 Entering Gaussian System, Link 0=/share/apps/g09/g09
 Input=C3H7OOH_1_2_opt_631gd.gjf
 Output=C3H7OOH_1_2_opt_631gd.log
 Initial command:
 /share/apps/g09/l1.exe /state/partition1/Gau-6726.inp -scrdir=/state/partition1/
 Entering Link 1 = /share/apps/g09/l1.exe PID=      6728.
  
 Copyright (c) 1988,1990,1992,1993,1995,1998,2003,2009, Gaussian, Inc.
                  All Rights Reserved.
  
 This is part of the Gaussian(R) 09 program.  It is based on
 the Gaussian(R) 03 system (copyright 2003, Gaussian, Inc.),
 the Gaussian(R) 98 system (copyright 1998, Gaussian, Inc.),
 the Gaussian(R) 94 system (copyright 1995, Gaussian, Inc.),
 the Gaussian 92(TM) system (copyright 1992, Gaussian, Inc.),
 the Gaussian 90(TM) system (copyright 1990, Gaussian, Inc.),
 the Gaussian 88(TM) system (copyright 1988, Gaussian, Inc.),
 the Gaussian 86(TM) system (copyright 1986, Carnegie Mellon
 University), and the Gaussian 82(TM) system (copyright 1983,
 Carnegie Mellon University). Gaussian is a federally registered
 trademark of Gaussian, Inc.
  
 This software contains proprietary and confidential information,
 including trade secrets, belonging to Gaussian, Inc.
  
 This software is provided under written license and may be
 used, copied, transmitted, or stored only in accord with that
 written license.
  
 The following legend is applicable only to US Government
 contracts under FAR:
  
                    RESTRICTED RIGHTS LEGEND
  
 Use, reproduction and disclosure by the US Government is
 subject to restrictions as set forth in subparagraphs (a)
 and (c) of the Commercial Computer Software - Restricted
 Rights clause in FAR 52.227-19.
  
 Gaussian, Inc.
 340 Quinnipiac St., Bldg. 40, Wallingford CT 06492
  
  
 ---------------------------------------------------------------
 Warning -- This program may not be used in any manner that
 competes with the business of Gaussian, Inc. or will provide
 assistance to any competitor of Gaussian, Inc.  The licensee
 of this program is prohibited from giving any competitor of
 Gaussian, Inc. access to this program.  By using this program,
 the user acknowledges that Gaussian, Inc. is engaged in the
 business of creating and licensing software in the field of
 computational chemistry and represents and warrants to the
 licensee that it is not a competitor of Gaussian, Inc. and that
 it will not use this program in any manner prohibited above.
 ---------------------------------------------------------------
  

 Cite this work as:
 Gaussian 09, Revision A.01,
 M. J. Frisch, G. W. Trucks, H. B. Schlegel, G. E. Scuseria, 
 M. A. Robb, J. R. Cheeseman, G. Scalmani, V. Barone, B. Mennucci, 
 G. A. Petersson, H. Nakatsuji, M. Caricato, X. Li, H. P. Hratchian, 
 A. F. Izmaylov, J. Bloino, G. Zheng, J. L. Sonnenberg, M. Hada, 
 M. Ehara, K. Toyota, R. Fukuda, J. Hasegawa, M. Ishida, T. Nakajima, 
 Y. Honda, O. Kitao, H. Nakai, T. Vreven, J. A. Montgomery, Jr., 
 J. E. Peralta, F. Ogliaro, M. Bearpark, J. J. Heyd, E. Brothers, 
 K. N. Kudin, V. N. Staroverov, R. Kobayashi, J. Normand, 
 K. Raghavachari, A. Rendell, J. C. Burant, S. S. Iyengar, J. Tomasi, 
 M. Cossi, N. Rega, J. M. Millam, M. Klene, J. E. Knox, J. B. Cross, 
 V. Bakken, C. Adamo, J. Jaramillo, R. Gomperts, R. E. Stratmann, 
 O. Yazyev, A. J. Austin, R. Cammi, C. Pomelli, J. W. Ochterski, 
 R. L. Martin, K. Morokuma, V. G. Zakrzewski, G. A. Voth, 
 P. Salvador, J. J. Dannenberg, S. Dapprich, A. D. Daniels, 
 O. Farkas, J. B. Foresman, J. V. Ortiz, J. Cioslowski, 
 and D. J. Fox, Gaussian, Inc., Wallingford CT, 2009.
 
 ******************************************
 Gaussian 09:  EM64L-G09RevA.01  8-May-2009
                23-Aug-2015 
 ******************************************
 %mem=28GB
 %nprocshared=12
 Will use up to   12 processors via shared memory.
 %chk=C3H7OOH_1_2_opt_631gd.chk
 --------------------------
 #p b3lyp/6-31g(d) opt freq
 --------------------------
 1/14=-1,18=20,19=15,26=3,38=1/1,3;
 2/9=110,12=2,17=6,18=5,40=1/2;
 3/5=1,6=6,7=1,11=2,16=1,25=1,30=1,71=1,74=-5/1,2,3;
 4//1;
 5/5=2,38=5/2;
 6/7=2,8=2,9=2,10=2,28=1/1;
 7//1,2,3,16;
 1/14=-1,18=20,19=15/3(2);
 2/9=110/2;
 99//99;
 2/9=110/2;
 3/5=1,6=6,7=1,11=2,16=1,25=1,30=1,71=1,74=-5/1,2,3;
 4/5=5,16=3/1;
 5/5=2,38=5/2;
 7//1,2,3,16;
 1/14=-1,18=20,19=15/3(-5);
 2/9=110/2;
 6/7=2,8=2,9=2,10=2,19=2,28=1/1;
 99/9=1/99;
 Leave Link    1 at Sun Aug 23 11:16:00 2015, MaxMem= 3758096384 cpu:       0.4
 (Enter /share/apps/g09/l101.exe)
 -----------------------------
 using ub3lyp/6-31G(d) to scan
 -----------------------------
 Symbolic Z-matrix:
 Charge =  0 Multiplicity = 1
 C                    -2.42489  -0.30642   0.05473 
 H                    -2.42147  -0.92165   0.9625 
 H                    -2.51516  -0.98088  -0.80502 
 H                    -3.32227   0.32051   0.08146 
 C                    -1.1613    0.55557  -0.04236 
 H                    -1.19466   1.17736  -0.94502 
 H                    -1.10493   1.24107   0.81232 
 C                     0.10603  -0.29388  -0.0814 
 H                     0.10465  -0.96687  -0.94935 
 H                     0.19927  -0.90752   0.82808 
 O                     1.20199   0.61125  -0.17681 
 O                     2.40606  -0.19526  -0.3039 
 H                     2.8153   -0.02718   0.56477 
 
 NAtoms=     13 NQM=     13 NQMF=      0 NMic=      0 NMicF=      0 NTot=     13.
                    Isotopes and Nuclear Properties:
 (Nuclear quadrupole moments (NQMom) in fm**2, nuclear magnetic moments (NMagM)
  in nuclear magnetons)

  Atom         1           2           3           4           5           6           7           8           9          10
 IAtWgt=          12           1           1           1          12           1           1          12           1           1
 AtmWgt=  12.0000000   1.0078250   1.0078250   1.0078250  12.0000000   1.0078250   1.0078250  12.0000000   1.0078250   1.0078250
 NucSpn=           0           1           1           1           0           1           1           0           1           1
 AtZEff=   0.0000000   0.0000000   0.0000000   0.0000000   0.0000000   0.0000000   0.0000000   0.0000000   0.0000000   0.0000000
 NQMom=    0.0000000   0.0000000   0.0000000   0.0000000   0.0000000   0.0000000   0.0000000   0.0000000   0.0000000   0.0000000
 NMagM=    0.0000000   2.7928460   2.7928460   2.7928460   0.0000000   2.7928460   2.7928460   0.0000000   2.7928460   2.7928460

  Atom        11          12          13
 IAtWgt=          16          16           1
 AtmWgt=  15.9949146  15.9949146   1.0078250
 NucSpn=           0           0           1
 AtZEff=   0.0000000   0.0000000   0.0000000
 NQMom=    0.0000000   0.0000000   0.0000000
 NMagM=    0.0000000   0.0000000   2.7928460
 Leave Link  101 at Sun Aug 23 11:16:00 2015, MaxMem= 3758096384 cpu:       0.6
 (Enter /share/apps/g09/l103.exe)

 GradGradGradGradGradGradGradGradGradGradGradGradGradGradGradGradGradGrad
 Berny optimization.
 Initialization pass.
                           ----------------------------
                           !    Initial Parameters    !
                           ! (Angstroms and Degrees)  !
 --------------------------                            --------------------------
 ! Name  Definition              Value          Derivative Info.                !
 --------------------------------------------------------------------------------
 ! R1    R(1,2)                  1.0966         estimate D2E/DX2                !
 ! R2    R(1,3)                  1.0965         estimate D2E/DX2                !
 ! R3    R(1,4)                  1.095          estimate D2E/DX2                !
 ! R4    R(1,5)                  1.5327         estimate D2E/DX2                !
 ! R5    R(5,6)                  1.0966         estimate D2E/DX2                !
 ! R6    R(5,7)                  1.0971         estimate D2E/DX2                !
 ! R7    R(5,8)                  1.5262         estimate D2E/DX2                !
 ! R8    R(8,9)                  1.0983         estimate D2E/DX2                !
 ! R9    R(8,10)                 1.1011         estimate D2E/DX2                !
 ! R10   R(8,11)                 1.4246         estimate D2E/DX2                !
 ! R11   R(11,12)                1.4548         estimate D2E/DX2                !
 ! R12   R(12,13)                0.9748         estimate D2E/DX2                !
 ! A1    A(2,1,3)              107.7129         estimate D2E/DX2                !
 ! A2    A(2,1,4)              107.6711         estimate D2E/DX2                !
 ! A3    A(2,1,5)              111.4315         estimate D2E/DX2                !
 ! A4    A(3,1,4)              107.6892         estimate D2E/DX2                !
 ! A5    A(3,1,5)              111.3556         estimate D2E/DX2                !
 ! A6    A(4,1,5)              110.8046         estimate D2E/DX2                !
 ! A7    A(1,5,6)              110.2402         estimate D2E/DX2                !
 ! A8    A(1,5,7)              110.1468         estimate D2E/DX2                !
 ! A9    A(1,5,8)              111.9125         estimate D2E/DX2                !
 ! A10   A(6,5,7)              106.7706         estimate D2E/DX2                !
 ! A11   A(6,5,8)              108.6511         estimate D2E/DX2                !
 ! A12   A(7,5,8)              108.9683         estimate D2E/DX2                !
 ! A13   A(5,8,9)              111.1142         estimate D2E/DX2                !
 ! A14   A(5,8,10)             111.0623         estimate D2E/DX2                !
 ! A15   A(5,8,11)             106.673          estimate D2E/DX2                !
 ! A16   A(9,8,10)             108.1417         estimate D2E/DX2                !
 ! A17   A(9,8,11)             109.7155         estimate D2E/DX2                !
 ! A18   A(10,8,11)            110.1365         estimate D2E/DX2                !
 ! A19   A(8,11,12)            106.8788         estimate D2E/DX2                !
 ! A20   A(11,12,13)           100.0218         estimate D2E/DX2                !
 ! D1    D(2,1,5,6)           -178.8196         estimate D2E/DX2                !
 ! D2    D(2,1,5,7)            -61.2484         estimate D2E/DX2                !
 ! D3    D(2,1,5,8)             60.1353         estimate D2E/DX2                !
 ! D4    D(3,1,5,6)             60.8873         estimate D2E/DX2                !
 ! D5    D(3,1,5,7)            178.4584         estimate D2E/DX2                !
 ! D6    D(3,1,5,8)            -60.1579         estimate D2E/DX2                !
 ! D7    D(4,1,5,6)            -58.9524         estimate D2E/DX2                !
 ! D8    D(4,1,5,7)             58.6188         estimate D2E/DX2                !
 ! D9    D(4,1,5,8)           -179.9975         estimate D2E/DX2                !
 ! D10   D(1,5,8,9)             60.2072         estimate D2E/DX2                !
 ! D11   D(1,5,8,10)           -60.2161         estimate D2E/DX2                !
 ! D12   D(1,5,8,11)           179.7552         estimate D2E/DX2                !
 ! D13   D(6,5,8,9)            -61.7535         estimate D2E/DX2                !
 ! D14   D(6,5,8,10)           177.8233         estimate D2E/DX2                !
 ! D15   D(6,5,8,11)            57.7945         estimate D2E/DX2                !
 ! D16   D(7,5,8,9)           -177.7318         estimate D2E/DX2                !
 ! D17   D(7,5,8,10)            61.8449         estimate D2E/DX2                !
 ! D18   D(7,5,8,11)           -58.1838         estimate D2E/DX2                !
 ! D19   D(5,8,11,12)         -176.3027         estimate D2E/DX2                !
 ! D20   D(9,8,11,12)          -55.8529         estimate D2E/DX2                !
 ! D21   D(10,8,11,12)          63.0737         estimate D2E/DX2                !
 ! D22   D(8,11,12,13)        -109.9999         estimate D2E/DX2                !
 --------------------------------------------------------------------------------
 Trust Radius=3.00D-01 FncErr=1.00D-07 GrdErr=1.00D-06
 Number of steps in this run=  64 maximum allowed number of steps= 100.
 GradGradGradGradGradGradGradGradGradGradGradGradGradGradGradGradGradGrad

 Leave Link  103 at Sun Aug 23 11:16:00 2015, MaxMem= 3758096384 cpu:       0.1
 (Enter /share/apps/g09/l202.exe)
                          Input orientation:                          
 ---------------------------------------------------------------------
 Center     Atomic      Atomic             Coordinates (Angstroms)
 Number     Number       Type             X           Y           Z
 ---------------------------------------------------------------------
      1          6           0       -2.424887   -0.306421    0.054729
      2          1           0       -2.421465   -0.921648    0.962504
      3          1           0       -2.515156   -0.980876   -0.805020
      4          1           0       -3.322266    0.320510    0.081461
      5          6           0       -1.161300    0.555572   -0.042360
      6          1           0       -1.194662    1.177365   -0.945023
      7          1           0       -1.104934    1.241072    0.812320
      8          6           0        0.106027   -0.293882   -0.081398
      9          1           0        0.104653   -0.966866   -0.949352
     10          1           0        0.199272   -0.907519    0.828076
     11          8           0        1.201988    0.611250   -0.176811
     12          8           0        2.406060   -0.195260   -0.303897
     13          1           0        2.815295   -0.027183    0.564774
 ---------------------------------------------------------------------
                    Distance matrix (angstroms):
                    1          2          3          4          5
     1  C    0.000000
     2  H    1.096618   0.000000
     3  H    1.096452   1.770996   0.000000
     4  H    1.095010   1.769360   1.769429   0.000000
     5  C    1.532681   2.186309   2.185234   2.177237   0.000000
     6  H    2.171308   3.090236   2.534030   2.512881   1.096604
     7  H    2.170473   2.536369   3.088943   2.509612   1.097071
     8  C    2.534603   2.805715   2.804673   3.486717   1.526176
     9  H    2.800525   3.168361   2.623819   3.803115   2.177863
    10  H    2.800999   2.624220   3.168675   3.803514   2.179323
    11  O    3.748327   4.096001   4.092270   4.540937   2.367764
    12  O    4.845515   5.043452   5.008661   5.764394   3.654888
    13  H    5.272346   5.327468   5.585658   6.166371   4.064668
                    6          7          8          9         10
     6  H    0.000000
     7  H    1.760785   0.000000
     8  C    2.145276   2.149707   0.000000
     9  H    2.507183   3.072715   1.098296   0.000000
    10  H    3.071429   2.513493   1.101085   1.780934   0.000000
    11  O    2.579645   2.587846   1.424605   2.071573   2.078917
    12  O    3.906449   3.954247   2.312874   2.511665   2.580424
    13  H    4.450863   4.127705   2.797999   3.243942   2.772705
                   11         12         13
    11  O    0.000000
    12  O    1.454785   0.000000
    13  H    1.886877   0.974840   0.000000
 Stoichiometry    C3H8O2
 Framework group  C1[X(C3H8O2)]
 Deg. of freedom    33
 Full point group                 C1      NOp   1
 Largest Abelian subgroup         C1      NOp   1
 Largest concise Abelian subgroup C1      NOp   1
                         Standard orientation:                         
 ---------------------------------------------------------------------
 Center     Atomic      Atomic             Coordinates (Angstroms)
 Number     Number       Type             X           Y           Z
 ---------------------------------------------------------------------
      1          6           0       -2.449907   -0.294406    0.008882
      2          1           0       -2.508675   -0.930839    0.899989
      3          1           0       -2.511870   -0.945772   -0.870941
      4          1           0       -3.331866    0.354579    0.005173
      5          6           0       -1.162285    0.536875   -0.001674
      6          1           0       -1.133512    1.180518   -0.889050
      7          1           0       -1.133635    1.200271    0.871624
      8          6           0        0.084210   -0.343716    0.003178
      9          1           0        0.111457   -0.995703   -0.880238
     10          1           0        0.115068   -0.980909    0.900630
     11          8           0        1.205451    0.534948   -0.013231
     12          8           0        2.394417   -0.299015   -0.098457
     13          1           0        2.761976   -0.162128    0.793998
 ---------------------------------------------------------------------
 Rotational constants (GHZ):     20.9139507      2.0863214      1.9788897
 Leave Link  202 at Sun Aug 23 11:16:01 2015, MaxMem= 3758096384 cpu:       0.1
 (Enter /share/apps/g09/l301.exe)
 Standard basis: 6-31G(d) (6D, 7F)
 Ernie: Thresh=  0.10000D-02 Tol=  0.10000D-05 Strict=F.
 There are    91 symmetry adapted basis functions of A   symmetry.
 Integral buffers will be    131072 words long.
 Raffenetti 2 integral format.
 Two-electron integral symmetry is turned on.
    91 basis functions,   172 primitive gaussians,    91 cartesian basis functions
    21 alpha electrons       21 beta electrons
       nuclear repulsion energy       185.7724383283 Hartrees.
 IExCor=  402 DFT=T Ex+Corr=B3LYP ExCW=0 ScaHFX=  0.200000
 ScaDFX=  0.800000  0.720000  1.000000  0.810000 ScalE2=  1.000000  1.000000
 IRadAn=      0 IRanWt=     -1 IRanGd=            0 ICorTp=0
 NAtoms=   13 NActive=   13 NUniq=   13 SFac= 7.50D-01 NAtFMM=   80 NAOKFM=F Big=F
 Leave Link  301 at Sun Aug 23 11:16:01 2015, MaxMem= 3758096384 cpu:       0.6
 (Enter /share/apps/g09/l302.exe)
 NPDir=0 NMtPBC=     1 NCelOv=     1 NCel=       1 NClECP=     1 NCelD=      1
         NCelK=      1 NCelE2=     1 NClLst=     1 CellRange=     0.0.
 One-electron integrals computed using PRISM.
 NBasis=    91 RedAO= T  NBF=    91
 NBsUse=    91 1.00D-06 NBFU=    91
 Precomputing XC quadrature grid using
 IXCGrd= 2 IRadAn=           0 IRanWt=          -1 IRanGd=           0 AccXCQ= 1.00D-10.
 NRdTot=     812 NPtTot=      102946 NUsed=      108812 NTot=      108844
 NSgBfM=    91    91    91    91    91 NAtAll=    13    13.
 Leave Link  302 at Sun Aug 23 11:16:01 2015, MaxMem= 3758096384 cpu:       2.2
 (Enter /share/apps/g09/l303.exe)
 DipDrv:  MaxL=1.
 Leave Link  303 at Sun Aug 23 11:16:02 2015, MaxMem= 3758096384 cpu:       0.3
 (Enter /share/apps/g09/l401.exe)
 Harris functional with IExCor=  402 diagonalized for initial guess.
 ExpMin= 1.61D-01 ExpMax= 5.48D+03 ExpMxC= 8.25D+02 IAcc=1 IRadAn=         1 AccDes= 0.00D+00
 HarFok:  IExCor=  402 AccDes= 0.00D+00 IRadAn=         1 IDoV= 1
 ScaDFX=  1.000000  1.000000  1.000000  1.000000
 FoFCou: FMM=F IPFlag=           0 FMFlag=      100000 FMFlg1=           0
         NFxFlg=           0 DoJE=T BraDBF=F KetDBF=T FulRan=T
         Omega=  0.000000  0.000000  1.000000  0.000000  0.000000 ICntrl=     500 IOpCl=  0
         NMat0=    1 NMatS0=    1 NMatT0=    0 NMatD0=    1 NMtDS0=    0 NMtDT0=    0
         I1Cent=           4 NGrid=           0.
 Petite list used in FoFCou.
 Harris En= -269.533636591867    
 Initial guess orbital symmetries:
       Occupied  (A) (A) (A) (A) (A) (A) (A) (A) (A) (A) (A) (A)
                 (A) (A) (A) (A) (A) (A) (A) (A) (A)
       Virtual   (A) (A) (A) (A) (A) (A) (A) (A) (A) (A) (A) (A)
                 (A) (A) (A) (A) (A) (A) (A) (A) (A) (A) (A) (A)
                 (A) (A) (A) (A) (A) (A) (A) (A) (A) (A) (A) (A)
                 (A) (A) (A) (A) (A) (A) (A) (A) (A) (A) (A) (A)
                 (A) (A) (A) (A) (A) (A) (A) (A) (A) (A) (A) (A)
                 (A) (A) (A) (A) (A) (A) (A) (A) (A) (A)
 The electronic state of the initial guess is 1-A.
 Leave Link  401 at Sun Aug 23 11:16:02 2015, MaxMem= 3758096384 cpu:       2.6
 (Enter /share/apps/g09/l502.exe)
 Closed shell SCF:
 Requested convergence on RMS density matrix=1.00D-08 within 128 cycles.
 Requested convergence on MAX density matrix=1.00D-06.
 Requested convergence on             energy=1.00D-06.
 No special actions if energy rises.
 Using DIIS extrapolation, IDIIS=  1040.
 Integral symmetry usage will be decided dynamically.
       108682 words used for storage of precomputed grid.
 Keep R1 ints in memory in canonical form, NReq=9826553.
 IEnd=      153462 IEndB=      153462 NGot=  3758096384 MDV=  3749204516
 LenX=  3749204516 LenY=  3749195794
 Symmetry not used in FoFDir.
 MinBra= 0 MaxBra= 2 Meth= 1.
 IRaf=       0 NMat=   1 IRICut=       1 DoRegI=T DoRafI=F ISym2E= 0 JSym2E=0.
 Integral accuracy reduced to 1.0D-05 until final iterations.

 Cycle   1  Pass 0  IDiag  1:
 E= -269.337129423238    
 DIIS: error= 4.12D-02 at cycle   1 NSaved=   1.
 NSaved= 1 IEnMin= 1 EnMin= -269.337129423238     IErMin= 1 ErrMin= 4.12D-02
 ErrMax= 4.12D-02 EMaxC= 1.00D-01 BMatC= 1.36D-01 BMatP= 1.36D-01
 IDIUse=3 WtCom= 5.88D-01 WtEn= 4.12D-01
 Coeff-Com:  0.100D+01
 Coeff-En:   0.100D+01
 Coeff:      0.100D+01
 Gap=     0.307 Goal=   None    Shift=    0.000
 GapD=    0.307 DampG=1.000 DampE=0.500 DampFc=0.5000 IDamp=-1.
 Damping current iteration by 5.00D-01
 RMSDP=8.32D-03 MaxDP=1.40D-01              OVMax= 1.69D-01

 Cycle   2  Pass 0  IDiag  1:
 E= -269.401671505852     Delta-E=       -0.064542082614 Rises=F Damp=T
 DIIS: error= 8.89D-03 at cycle   2 NSaved=   2.
 NSaved= 2 IEnMin= 2 EnMin= -269.401671505852     IErMin= 2 ErrMin= 8.89D-03
 ErrMax= 8.89D-03 EMaxC= 1.00D-01 BMatC= 6.88D-03 BMatP= 1.36D-01
 IDIUse=3 WtCom= 9.11D-01 WtEn= 8.89D-02
 Coeff-Com:  0.641D-01 0.936D+00
 Coeff-En:   0.101D+00 0.899D+00
 Coeff:      0.673D-01 0.933D+00
 Gap=     0.334 Goal=   None    Shift=    0.000
 RMSDP=1.22D-03 MaxDP=1.76D-02 DE=-6.45D-02 OVMax= 8.71D-02

 Cycle   3  Pass 0  IDiag  1:
 E= -269.477864910272     Delta-E=       -0.076193404420 Rises=F Damp=F
 DIIS: error= 4.94D-03 at cycle   3 NSaved=   3.
 NSaved= 3 IEnMin= 3 EnMin= -269.477864910272     IErMin= 3 ErrMin= 4.94D-03
 ErrMax= 4.94D-03 EMaxC= 1.00D-01 BMatC= 2.63D-03 BMatP= 6.88D-03
 IDIUse=3 WtCom= 9.51D-01 WtEn= 4.94D-02
 Coeff-Com:  0.337D-03 0.350D+00 0.650D+00
 Coeff-En:   0.000D+00 0.000D+00 0.100D+01
 Coeff:      0.321D-03 0.333D+00 0.667D+00
 Gap=     0.293 Goal=   None    Shift=    0.000
 RMSDP=7.20D-04 MaxDP=1.81D-02 DE=-7.62D-02 OVMax= 1.71D-02

 Cycle   4  Pass 0  IDiag  1:
 E= -269.478431646208     Delta-E=       -0.000566735936 Rises=F Damp=F
 DIIS: error= 4.53D-03 at cycle   4 NSaved=   4.
 NSaved= 4 IEnMin= 4 EnMin= -269.478431646208     IErMin= 4 ErrMin= 4.53D-03
 ErrMax= 4.53D-03 EMaxC= 1.00D-01 BMatC= 1.92D-03 BMatP= 2.63D-03
 IDIUse=3 WtCom= 9.55D-01 WtEn= 4.53D-02
 Coeff-Com: -0.477D-02 0.900D-01 0.457D+00 0.457D+00
 Coeff-En:   0.000D+00 0.000D+00 0.429D+00 0.571D+00
 Coeff:     -0.455D-02 0.859D-01 0.456D+00 0.462D+00
 Gap=     0.290 Goal=   None    Shift=    0.000
 RMSDP=3.65D-04 MaxDP=8.63D-03 DE=-5.67D-04 OVMax= 9.19D-03

 Cycle   5  Pass 0  IDiag  1:
 E= -269.479773772134     Delta-E=       -0.001342125925 Rises=F Damp=F
 DIIS: error= 5.28D-04 at cycle   5 NSaved=   5.
 NSaved= 5 IEnMin= 5 EnMin= -269.479773772134     IErMin= 5 ErrMin= 5.28D-04
 ErrMax= 5.28D-04 EMaxC= 1.00D-01 BMatC= 6.26D-05 BMatP= 1.92D-03
 IDIUse=3 WtCom= 9.95D-01 WtEn= 5.28D-03
 Coeff-Com: -0.145D-02 0.174D-01 0.177D+00 0.235D+00 0.572D+00
 Coeff-En:   0.000D+00 0.000D+00 0.000D+00 0.000D+00 0.100D+01
 Coeff:     -0.144D-02 0.173D-01 0.177D+00 0.233D+00 0.574D+00
 Gap=     0.290 Goal=   None    Shift=    0.000
 RMSDP=8.28D-05 MaxDP=1.74D-03 DE=-1.34D-03 OVMax= 1.84D-03

 Cycle   6  Pass 0  IDiag  1:
 E= -269.479819763111     Delta-E=       -0.000045990978 Rises=F Damp=F
 DIIS: error= 1.63D-04 at cycle   6 NSaved=   6.
 NSaved= 6 IEnMin= 6 EnMin= -269.479819763111     IErMin= 6 ErrMin= 1.63D-04
 ErrMax= 1.63D-04 EMaxC= 1.00D-01 BMatC= 5.80D-06 BMatP= 6.26D-05
 IDIUse=3 WtCom= 9.98D-01 WtEn= 1.63D-03
 Coeff-Com: -0.626D-04-0.582D-03 0.493D-01 0.802D-01 0.304D+00 0.567D+00
 Coeff-En:   0.000D+00 0.000D+00 0.000D+00 0.000D+00 0.000D+00 0.100D+01
 Coeff:     -0.625D-04-0.581D-03 0.492D-01 0.800D-01 0.304D+00 0.568D+00
 Gap=     0.289 Goal=   None    Shift=    0.000
 RMSDP=2.24D-05 MaxDP=4.65D-04 DE=-4.60D-05 OVMax= 4.14D-04

 Cycle   7  Pass 0  IDiag  1:
 E= -269.479824185562     Delta-E=       -0.000004422450 Rises=F Damp=F
 DIIS: error= 1.99D-05 at cycle   7 NSaved=   7.
 NSaved= 7 IEnMin= 7 EnMin= -269.479824185562     IErMin= 7 ErrMin= 1.99D-05
 ErrMax= 1.99D-05 EMaxC= 1.00D-01 BMatC= 6.79D-08 BMatP= 5.80D-06
 IDIUse=1 WtCom= 1.00D+00 WtEn= 0.00D+00
 Coeff-Com:  0.278D-04-0.673D-03 0.142D-01 0.240D-01 0.985D-01 0.212D+00
 Coeff-Com:  0.652D+00
 Coeff:      0.278D-04-0.673D-03 0.142D-01 0.240D-01 0.985D-01 0.212D+00
 Coeff:      0.652D+00
 Gap=     0.289 Goal=   None    Shift=    0.000
 RMSDP=2.89D-06 MaxDP=6.62D-05 DE=-4.42D-06 OVMax= 6.35D-05

 Initial convergence to 1.0D-05 achieved.  Increase integral accuracy.
 Cycle   8  Pass 1  IDiag  1:
 E= -269.479892053149     Delta-E=       -0.000067867587 Rises=F Damp=F
 DIIS: error= 7.65D-06 at cycle   1 NSaved=   1.
 NSaved= 1 IEnMin= 1 EnMin= -269.479892053149     IErMin= 1 ErrMin= 7.65D-06
 ErrMax= 7.65D-06 EMaxC= 1.00D-01 BMatC= 2.14D-08 BMatP= 2.14D-08
 IDIUse=1 WtCom= 1.00D+00 WtEn= 0.00D+00
 Coeff-Com:  0.100D+01
 Coeff:      0.100D+01
 Gap=     0.289 Goal=   None    Shift=    0.000
 RMSDP=2.89D-06 MaxDP=6.62D-05 DE=-6.79D-05 OVMax= 5.50D-05

 Cycle   9  Pass 1  IDiag  1:
 E= -269.479892065842     Delta-E=       -0.000000012693 Rises=F Damp=F
 DIIS: error= 9.11D-06 at cycle   2 NSaved=   2.
 NSaved= 2 IEnMin= 2 EnMin= -269.479892065842     IErMin= 1 ErrMin= 7.65D-06
 ErrMax= 9.11D-06 EMaxC= 1.00D-01 BMatC= 1.53D-08 BMatP= 2.14D-08
 IDIUse=1 WtCom= 1.00D+00 WtEn= 0.00D+00
 Coeff-Com:  0.448D+00 0.552D+00
 Coeff:      0.448D+00 0.552D+00
 Gap=     0.289 Goal=   None    Shift=    0.000
 RMSDP=1.44D-06 MaxDP=2.99D-05 DE=-1.27D-08 OVMax= 3.24D-05

 Cycle  10  Pass 1  IDiag  1:
 E= -269.479892078290     Delta-E=       -0.000000012448 Rises=F Damp=F
 DIIS: error= 3.36D-06 at cycle   3 NSaved=   3.
 NSaved= 3 IEnMin= 3 EnMin= -269.479892078290     IErMin= 3 ErrMin= 3.36D-06
 ErrMax= 3.36D-06 EMaxC= 1.00D-01 BMatC= 2.04D-09 BMatP= 1.53D-08
 IDIUse=1 WtCom= 1.00D+00 WtEn= 0.00D+00
 Coeff-Com:  0.345D-01 0.263D+00 0.702D+00
 Coeff:      0.345D-01 0.263D+00 0.702D+00
 Gap=     0.289 Goal=   None    Shift=    0.000
 RMSDP=5.26D-07 MaxDP=1.17D-05 DE=-1.24D-08 OVMax= 1.32D-05

 Cycle  11  Pass 1  IDiag  1:
 E= -269.479892079342     Delta-E=       -0.000000001052 Rises=F Damp=F
 DIIS: error= 3.04D-06 at cycle   4 NSaved=   4.
 NSaved= 4 IEnMin= 4 EnMin= -269.479892079342     IErMin= 4 ErrMin= 3.04D-06
 ErrMax= 3.04D-06 EMaxC= 1.00D-01 BMatC= 8.71D-10 BMatP= 2.04D-09
 IDIUse=1 WtCom= 1.00D+00 WtEn= 0.00D+00
 Coeff-Com: -0.151D-01 0.133D+00 0.485D+00 0.397D+00
 Coeff:     -0.151D-01 0.133D+00 0.485D+00 0.397D+00
 Gap=     0.289 Goal=   None    Shift=    0.000
 RMSDP=2.20D-07 MaxDP=4.71D-06 DE=-1.05D-09 OVMax= 5.65D-06

 Cycle  12  Pass 1  IDiag  1:
 E= -269.479892079978     Delta-E=       -0.000000000636 Rises=F Damp=F
 DIIS: error= 1.55D-07 at cycle   5 NSaved=   5.
 NSaved= 5 IEnMin= 5 EnMin= -269.479892079978     IErMin= 5 ErrMin= 1.55D-07
 ErrMax= 1.55D-07 EMaxC= 1.00D-01 BMatC= 4.85D-12 BMatP= 8.71D-10
 IDIUse=1 WtCom= 1.00D+00 WtEn= 0.00D+00
 Coeff-Com: -0.655D-02 0.433D-01 0.166D+00 0.155D+00 0.642D+00
 Coeff:     -0.655D-02 0.433D-01 0.166D+00 0.155D+00 0.642D+00
 Gap=     0.289 Goal=   None    Shift=    0.000
 RMSDP=2.48D-08 MaxDP=5.90D-07 DE=-6.36D-10 OVMax= 5.00D-07

 Cycle  13  Pass 1  IDiag  1:
 E= -269.479892079979     Delta-E=        0.000000000000 Rises=F Damp=F
 DIIS: error= 5.13D-08 at cycle   6 NSaved=   6.
 NSaved= 6 IEnMin= 6 EnMin= -269.479892079979     IErMin= 6 ErrMin= 5.13D-08
 ErrMax= 5.13D-08 EMaxC= 1.00D-01 BMatC= 7.49D-13 BMatP= 4.85D-12
 IDIUse=1 WtCom= 1.00D+00 WtEn= 0.00D+00
 Coeff-Com: -0.166D-02 0.744D-02 0.317D-01 0.372D-01 0.319D+00 0.606D+00
 Coeff:     -0.166D-02 0.744D-02 0.317D-01 0.372D-01 0.319D+00 0.606D+00
 Gap=     0.289 Goal=   None    Shift=    0.000
 RMSDP=9.71D-09 MaxDP=1.50D-07 DE=-4.55D-13 OVMax= 1.75D-07

 SCF Done:  E(RB3LYP) =  -269.479892080     A.U. after   13 cycles
             Convg  =    0.9713D-08             -V/T =  2.0090
 KE= 2.670657097076D+02 PE=-1.001754348975D+03 EE= 2.794363088596D+02
 Leave Link  502 at Sun Aug 23 11:16:05 2015, MaxMem= 3758096384 cpu:      29.6
 (Enter /share/apps/g09/l601.exe)
 Copying SCF densities to generalized density rwf, IOpCl= 0 IROHF=0.

 **********************************************************************

            Population analysis using the SCF density.

 **********************************************************************

 Orbital symmetries:
       Occupied  (A) (A) (A) (A) (A) (A) (A) (A) (A) (A) (A) (A)
                 (A) (A) (A) (A) (A) (A) (A) (A) (A)
       Virtual   (A) (A) (A) (A) (A) (A) (A) (A) (A) (A) (A) (A)
                 (A) (A) (A) (A) (A) (A) (A) (A) (A) (A) (A) (A)
                 (A) (A) (A) (A) (A) (A) (A) (A) (A) (A) (A) (A)
                 (A) (A) (A) (A) (A) (A) (A) (A) (A) (A) (A) (A)
                 (A) (A) (A) (A) (A) (A) (A) (A) (A) (A) (A) (A)
                 (A) (A) (A) (A) (A) (A) (A) (A) (A) (A)
 The electronic state is 1-A.
 Alpha  occ. eigenvalues --  -19.19620 -19.19528 -10.23019 -10.18936 -10.18318
 Alpha  occ. eigenvalues --   -1.10671  -0.90742  -0.77574  -0.66694  -0.59309
 Alpha  occ. eigenvalues --   -0.52197  -0.48365  -0.45888  -0.43635  -0.40378
 Alpha  occ. eigenvalues --   -0.38722  -0.36741  -0.34240  -0.33908  -0.29240
 Alpha  occ. eigenvalues --   -0.25775
 Alpha virt. eigenvalues --    0.03165   0.08274   0.09213   0.13683   0.14471
 Alpha virt. eigenvalues --    0.15446   0.17174   0.18530   0.19935   0.20132
 Alpha virt. eigenvalues --    0.24116   0.26552   0.51951   0.54052   0.54250
 Alpha virt. eigenvalues --    0.54603   0.60543   0.65464   0.67300   0.69488
 Alpha virt. eigenvalues --    0.74991   0.79328   0.83466   0.83790   0.87176
 Alpha virt. eigenvalues --    0.87582   0.89339   0.90496   0.92880   0.96336
 Alpha virt. eigenvalues --    0.96740   0.97569   1.03709   1.07758   1.09908
 Alpha virt. eigenvalues --    1.19380   1.30715   1.37384   1.40659   1.44592
 Alpha virt. eigenvalues --    1.45658   1.56823   1.58697   1.69649   1.80194
 Alpha virt. eigenvalues --    1.82902   1.85538   1.90973   1.94723   1.97458
 Alpha virt. eigenvalues --    2.01697   2.05515   2.14555   2.15885   2.26024
 Alpha virt. eigenvalues --    2.30454   2.31777   2.38230   2.42621   2.49684
 Alpha virt. eigenvalues --    2.53092   2.55599   2.75519   2.82229   3.08461
 Alpha virt. eigenvalues --    3.57423   3.84652   4.15103   4.30196   4.47800
          Condensed to atoms (all electrons):
              1          2          3          4          5          6
     1  C    5.065112   0.377993   0.378616   0.376688   0.359820  -0.033187
     2  H    0.377993   0.573033  -0.032661  -0.030468  -0.034779   0.004924
     3  H    0.378616  -0.032661   0.569257  -0.030176  -0.034730  -0.004410
     4  H    0.376688  -0.030468  -0.030176   0.560833  -0.027332  -0.002961
     5  C    0.359820  -0.034779  -0.034730  -0.027332   5.003386   0.373888
     6  H   -0.033187   0.004924  -0.004410  -0.002961   0.373888   0.579219
     7  H   -0.034168  -0.004387   0.004996  -0.003008   0.372393  -0.038384
     8  C   -0.041329  -0.004577  -0.004354   0.003670   0.368745  -0.037013
     9  H   -0.001000  -0.000499   0.004595  -0.000090  -0.034362  -0.007765
    10  H   -0.000706   0.004646  -0.000533  -0.000087  -0.034902   0.006452
    11  O    0.002138  -0.000002  -0.000003  -0.000044  -0.032826   0.003111
    12  O   -0.000063  -0.000002  -0.000001   0.000001   0.004360  -0.000091
    13  H    0.000007   0.000000   0.000000   0.000000  -0.000400   0.000024
              7          8          9         10         11         12
     1  C   -0.034168  -0.041329  -0.001000  -0.000706   0.002138  -0.000063
     2  H   -0.004387  -0.004577  -0.000499   0.004646  -0.000002  -0.000002
     3  H    0.004996  -0.004354   0.004595  -0.000533  -0.000003  -0.000001
     4  H   -0.003008   0.003670  -0.000090  -0.000087  -0.000044   0.000001
     5  C    0.372393   0.368745  -0.034362  -0.034902  -0.032826   0.004360
     6  H   -0.038384  -0.037013  -0.007765   0.006452   0.003111  -0.000091
     7  H    0.589364  -0.036591   0.006235  -0.007922   0.002518  -0.000088
     8  C   -0.036591   4.851707   0.363573   0.350657   0.194238  -0.031755
     9  H    0.006235   0.363573   0.623921  -0.058735  -0.036891   0.001369
    10  H   -0.007922   0.350657  -0.058735   0.657030  -0.039502   0.002213
    11  O    0.002518   0.194238  -0.036891  -0.039502   8.167010   0.065764
    12  O   -0.000088  -0.031755   0.001369   0.002213   0.065764   8.149090
    13  H    0.000005  -0.000737  -0.000530   0.003031  -0.019290   0.215906
             13
     1  C    0.000007
     2  H    0.000000
     3  H    0.000000
     4  H    0.000000
     5  C   -0.000400
     6  H    0.000024
     7  H    0.000005
     8  C   -0.000737
     9  H   -0.000530
    10  H    0.003031
    11  O   -0.019290
    12  O    0.215906
    13  H    0.392569
 Mulliken atomic charges:
              1
     1  C   -0.449919
     2  H    0.146779
     3  H    0.149403
     4  H    0.152975
     5  C   -0.283260
     6  H    0.156192
     7  H    0.149037
     8  C    0.023767
     9  H    0.140179
    10  H    0.118358
    11  O   -0.306222
    12  O   -0.406702
    13  H    0.409415
 Sum of Mulliken atomic charges =   0.00000
 Mulliken charges with hydrogens summed into heavy atoms:
              1
     1  C   -0.000763
     5  C    0.021969
     8  C    0.282304
    11  O   -0.306222
    12  O    0.002713
 Sum of Mulliken charges with hydrogens summed into heavy atoms =   0.00000
 Electronic spatial extent (au):  <R**2>=            617.2454
 Charge=              0.0000 electrons
 Dipole moment (field-independent basis, Debye):
    X=             -0.9812    Y=             -0.5755    Z=              1.4963  Tot=              1.8796
 Quadrupole moment (field-independent basis, Debye-Ang):
   XX=            -29.8601   YY=            -32.3253   ZZ=            -29.9811
   XY=             -0.7838   XZ=              4.6549   YZ=             -0.1674
 Traceless Quadrupole moment (field-independent basis, Debye-Ang):
   XX=              0.8621   YY=             -1.6031   ZZ=              0.7410
   XY=             -0.7838   XZ=              4.6549   YZ=             -0.1674
 Octapole moment (field-independent basis, Debye-Ang**2):
  XXX=             24.5158  YYY=              1.0534  ZZZ=              1.2063  XYY=              3.2605
  XXY=              1.1344  XXZ=             13.1604  XZZ=              7.9276  YZZ=             -0.3587
  YYZ=              0.0489  XYZ=             -0.6707
 Hexadecapole moment (field-independent basis, Debye-Ang**3):
 XXXX=           -586.9766 YYYY=            -88.1453 ZZZZ=            -49.8731 XXXY=             -6.8009
 XXXZ=             38.7882 YYYX=             -1.0506 YYYZ=              0.1333 ZZZX=              4.4965
 ZZZY=             -0.0850 XXYY=           -120.9318 XXZZ=           -104.7871 YYZZ=            -21.3749
 XXYZ=             -1.9127 YYXZ=              0.7391 ZZXY=             -0.3434
 N-N= 1.857724383283D+02 E-N=-1.001754354642D+03  KE= 2.670657097076D+02
 No NMR shielding tensors so no spin-rotation constants.
 Leave Link  601 at Sun Aug 23 11:16:05 2015, MaxMem= 3758096384 cpu:       1.6
 (Enter /share/apps/g09/l701.exe)
 Compute integral first derivatives.
 ... and contract with generalized density number  0.
 Leave Link  701 at Sun Aug 23 11:16:06 2015, MaxMem= 3758096384 cpu:       4.9
 (Enter /share/apps/g09/l702.exe)
 L702 exits ... SP integral derivatives will be done elsewhere.
 Leave Link  702 at Sun Aug 23 11:16:06 2015, MaxMem= 3758096384 cpu:       0.2
 (Enter /share/apps/g09/l703.exe)
 Compute integral first derivatives, UseDBF=F ICtDFT=           0.
 Integral derivatives from FoFDir, PRISM(SPDF).
 Calling FoFJK, ICntrl=      2127 FMM=F ISym2X=0 I1Cent= 0 IOpClX= 0 NMat=1 NMatS=1 NMatT=0.
 FoFCou: FMM=F IPFlag=           0 FMFlag=      100000 FMFlg1=         800
         NFxFlg=           0 DoJE=F BraDBF=F KetDBF=F FulRan=T
         Omega=  0.000000  0.000000  1.000000  0.000000  0.000000 ICntrl=    2127 IOpCl=  0
         NMat0=    1 NMatS0=    1 NMatT0=    0 NMatD0=    1 NMtDS0=    0 NMtDT0=    0
         I1Cent=           0 NGrid=           0.
 Symmetry not used in FoFCou.
 Leave Link  703 at Sun Aug 23 11:16:07 2015, MaxMem= 3758096384 cpu:       9.8
 (Enter /share/apps/g09/l716.exe)
 Dipole        =-3.86025419D-01-2.26426557D-01 5.88684875D-01
 ***** Axes restored to original set *****
 -------------------------------------------------------------------
 Center     Atomic                   Forces (Hartrees/Bohr)
 Number     Number              X              Y              Z
 -------------------------------------------------------------------
      1        6          -0.000019215   -0.000028830    0.000016758
      2        1           0.000014594    0.000015622   -0.000005266
      3        1           0.000017420    0.000001501    0.000003145
      4        1           0.000003658    0.000006534   -0.000007165
      5        6           0.000019859    0.000023489   -0.000048624
      6        1          -0.000038183    0.000016091    0.000005291
      7        1           0.000013806   -0.000003336   -0.000000423
      8        6           0.000142533   -0.000019102    0.000046834
      9        1          -0.000012603   -0.000004216   -0.000034638
     10        1           0.000012639    0.000002266   -0.000052790
     11        8          -0.000116352    0.000112527    0.000143221
     12        8           0.000132290   -0.000183971    0.000200206
     13        1          -0.000170445    0.000061425   -0.000266549
 -------------------------------------------------------------------
 Cartesian Forces:  Max     0.000266549 RMS     0.000084256
 Leave Link  716 at Sun Aug 23 11:16:07 2015, MaxMem= 3758096384 cpu:       0.3
 (Enter /share/apps/g09/l103.exe)

 GradGradGradGradGradGradGradGradGradGradGradGradGradGradGradGradGradGrad
 Berny optimization.
 Internal  Forces:  Max     0.000297871 RMS     0.000065512
 Search for a local minimum.
 Step number   1 out of a maximum of   64
 All quantities printed in internal units (Hartrees-Bohrs-Radians)
 RMS Force = .65512D-04 SwitMx=.10000D-02 MixMth= 2
 Mixed Optimization -- En-DIIS/RFO-DIIS
 Second derivative matrix not updated -- first step.
     Eigenvalues ---    0.00334   0.00420   0.00570   0.01366   0.03614
     Eigenvalues ---    0.04854   0.05430   0.05448   0.05500   0.05762
     Eigenvalues ---    0.08222   0.11113   0.12114   0.13543   0.16000
     Eigenvalues ---    0.16000   0.16000   0.16000   0.21897   0.21945
     Eigenvalues ---    0.25000   0.29177   0.29779   0.33562   0.33871
     Eigenvalues ---    0.34008   0.34059   0.34060   0.34078   0.34240
     Eigenvalues ---    0.37625   0.41774   0.524001000.000001000.00000
     Eigenvalues --- 1000.000001000.000001000.000001000.000001000.00000
     Eigenvalues --- 1000.000001000.000001000.000001000.000001000.00000
     Eigenvalues --- 1000.000001000.000001000.000001000.000001000.00000
     Eigenvalues --- 1000.000001000.000001000.000001000.00000
 RFO step:  Lambda=-3.63921125D-06 EMin= 3.33643633D-03
 Linear search not attempted -- first point.
 Iteration  1 RMS(Cart)=  0.00402370 RMS(Int)=  0.00004380
 Iteration  2 RMS(Cart)=  0.00003932 RMS(Int)=  0.00000001
 Iteration  3 RMS(Cart)=  0.00000000 RMS(Int)=  0.00000001
 Variable       Old X    -DE/DX   Delta X   Delta X   Delta X     New X
                                 (Linear)    (Quad)   (Total)
    R1        2.07231  -0.00001   0.00000  -0.00004  -0.00004   2.07227
    R2        2.07199  -0.00001   0.00000  -0.00001  -0.00001   2.07198
    R3        2.06927   0.00000   0.00000   0.00000   0.00000   2.06927
    R4        2.89635  -0.00001   0.00000  -0.00004  -0.00004   2.89631
    R5        2.07228   0.00001   0.00000   0.00002   0.00002   2.07230
    R6        2.07316   0.00000   0.00000  -0.00001  -0.00001   2.07316
    R7        2.88406   0.00001   0.00000   0.00002   0.00002   2.88408
    R8        2.07548   0.00003   0.00000   0.00009   0.00009   2.07557
    R9        2.08075  -0.00004   0.00000  -0.00013  -0.00013   2.08062
   R10        2.69211  -0.00013   0.00000  -0.00031  -0.00031   2.69180
   R11        2.74914   0.00004   0.00000   0.00011   0.00011   2.74926
   R12        1.84218  -0.00030   0.00000  -0.00057  -0.00057   1.84161
    A1        1.87995   0.00001   0.00000   0.00005   0.00005   1.88000
    A2        1.87922   0.00001   0.00000   0.00010   0.00010   1.87932
    A3        1.94485  -0.00002   0.00000  -0.00016  -0.00016   1.94469
    A4        1.87953   0.00001   0.00000   0.00010   0.00010   1.87963
    A5        1.94352  -0.00001   0.00000  -0.00009  -0.00009   1.94343
    A6        1.93390   0.00000   0.00000   0.00000   0.00000   1.93391
    A7        1.92405   0.00000   0.00000   0.00001   0.00001   1.92406
    A8        1.92242   0.00002   0.00000  -0.00004  -0.00004   1.92238
    A9        1.95324  -0.00005   0.00000  -0.00024  -0.00024   1.95300
   A10        1.86350  -0.00001   0.00000  -0.00002  -0.00002   1.86348
   A11        1.89632   0.00004   0.00000   0.00041   0.00041   1.89673
   A12        1.90186   0.00000   0.00000  -0.00010  -0.00010   1.90176
   A13        1.93931  -0.00002   0.00000  -0.00017  -0.00017   1.93913
   A14        1.93840   0.00003   0.00000   0.00024   0.00024   1.93865
   A15        1.86180  -0.00001   0.00000  -0.00003  -0.00003   1.86176
   A16        1.88743  -0.00001   0.00000  -0.00004  -0.00004   1.88739
   A17        1.91490   0.00001   0.00000   0.00007   0.00007   1.91497
   A18        1.92224  -0.00001   0.00000  -0.00007  -0.00007   1.92217
   A19        1.86539  -0.00025   0.00000  -0.00098  -0.00098   1.86441
   A20        1.74571  -0.00019   0.00000  -0.00118  -0.00118   1.74453
    D1       -3.12099   0.00001   0.00000   0.00160   0.00160  -3.11939
    D2       -1.06899   0.00001   0.00000   0.00156   0.00156  -1.06743
    D3        1.04956  -0.00001   0.00000   0.00124   0.00124   1.05080
    D4        1.06268   0.00002   0.00000   0.00170   0.00170   1.06439
    D5        3.11469   0.00001   0.00000   0.00166   0.00166   3.11635
    D6       -1.04995   0.00000   0.00000   0.00134   0.00134  -1.04862
    D7       -1.02891   0.00001   0.00000   0.00163   0.00163  -1.02728
    D8        1.02309   0.00001   0.00000   0.00159   0.00159   1.02468
    D9       -3.14155  -0.00001   0.00000   0.00127   0.00127  -3.14028
   D10        1.05081   0.00001   0.00000   0.00226   0.00226   1.05307
   D11       -1.05097   0.00001   0.00000   0.00226   0.00226  -1.04871
   D12        3.13732   0.00001   0.00000   0.00223   0.00223   3.13955
   D13       -1.07780   0.00001   0.00000   0.00212   0.00212  -1.07568
   D14        3.10360   0.00001   0.00000   0.00213   0.00213   3.10573
   D15        1.00870   0.00002   0.00000   0.00209   0.00209   1.01080
   D16       -3.10201   0.00000   0.00000   0.00197   0.00197  -3.10003
   D17        1.07940   0.00000   0.00000   0.00198   0.00198   1.08137
   D18       -1.01550   0.00000   0.00000   0.00194   0.00194  -1.01355
   D19       -3.07706   0.00001   0.00000  -0.00039  -0.00039  -3.07746
   D20       -0.97482  -0.00001   0.00000  -0.00058  -0.00058  -0.97540
   D21        1.10084  -0.00002   0.00000  -0.00063  -0.00063   1.10022
   D22       -1.91986  -0.00012   0.00000  -0.02148  -0.02148  -1.94134
         Item               Value     Threshold  Converged?
 Maximum Force            0.000298     0.000450     YES
 RMS     Force            0.000066     0.000300     YES
 Maximum Displacement     0.018643     0.001800     NO 
 RMS     Displacement     0.004019     0.001200     NO 
 Predicted change in Energy=-1.819602D-06
 GradGradGradGradGradGradGradGradGradGradGradGradGradGradGradGradGradGrad

 Leave Link  103 at Sun Aug 23 11:16:07 2015, MaxMem= 3758096384 cpu:       0.1
 (Enter /share/apps/g09/l202.exe)
                          Input orientation:                          
 ---------------------------------------------------------------------
 Center     Atomic      Atomic             Coordinates (Angstroms)
 Number     Number       Type             X           Y           Z
 ---------------------------------------------------------------------
      1          6           0       -2.425498   -0.305870    0.054637
      2          1           0       -2.422904   -0.920364    0.962886
      3          1           0       -2.515489   -0.980922   -0.804663
      4          1           0       -3.322506    0.321638    0.080297
      5          6           0       -1.161324    0.555251   -0.042247
      6          1           0       -1.194449    1.177616   -0.944537
      7          1           0       -1.104313    1.240210    0.812818
      8          6           0        0.105207   -0.295399   -0.081566
      9          1           0        0.104051   -0.966468   -0.951060
     10          1           0        0.196944   -0.911154    0.826546
     11          8           0        1.202032    0.608764   -0.173714
     12          8           0        2.404785   -0.199870   -0.300469
     13          1           0        2.822087   -0.017317    0.561075
 ---------------------------------------------------------------------
                    Distance matrix (angstroms):
                    1          2          3          4          5
     1  C    0.000000
     2  H    1.096598   0.000000
     3  H    1.096444   1.771008   0.000000
     4  H    1.095011   1.769412   1.769489   0.000000
     5  C    1.532662   2.186165   2.185147   2.177223   0.000000
     6  H    2.171304   3.090127   2.534561   2.512292   1.096615
     7  H    2.170422   2.535603   3.088866   2.510128   1.097067
     8  C    2.534389   2.805852   2.803722   3.486567   1.526188
     9  H    2.801149   3.170302   2.623668   3.803184   2.177784
    10  H    2.799895   2.623409   3.165913   3.803051   2.179458
    11  O    3.748023   4.095150   4.092086   4.540750   2.367615
    12  O    4.844478   5.041999   5.007329   5.763577   3.654315
    13  H    5.279857   5.337309   5.593165   6.172687   4.069323
                    6          7          8          9         10
     6  H    0.000000
     7  H    1.760778   0.000000
     8  C    2.145599   2.149641   0.000000
     9  H    2.506640   3.072595   1.098342   0.000000
    10  H    3.071754   2.514324   1.101017   1.780890   0.000000
    11  O    2.580869   2.586735   1.424439   2.071518   2.078671
    12  O    3.907272   3.953101   2.311948   2.510840   2.578885
    13  H    4.452785   4.130540   2.805665   3.251947   2.785820
                   11         12         13
    11  O    0.000000
    12  O    1.454844   0.000000
    13  H    1.885860   0.974539   0.000000
 Stoichiometry    C3H8O2
 Framework group  C1[X(C3H8O2)]
 Deg. of freedom    33
 Full point group                 C1      NOp   1
 Largest Abelian subgroup         C1      NOp   1
 Largest concise Abelian subgroup C1      NOp   1
                         Standard orientation:                         
 ---------------------------------------------------------------------
 Center     Atomic      Atomic             Coordinates (Angstroms)
 Number     Number       Type             X           Y           Z
 ---------------------------------------------------------------------
      1          6           0       -2.449811   -0.294265    0.010181
      2          1           0       -2.508336   -0.927710    0.903405
      3          1           0       -2.511654   -0.948543   -0.867477
      4          1           0       -3.331810    0.354651    0.004372
      5          6           0       -1.162253    0.537041   -0.003171
      6          1           0       -1.134328    1.178986   -0.891817
      7          1           0       -1.132885    1.202131    0.868809
      8          6           0        0.084083   -0.343788    0.002739
      9          1           0        0.111551   -0.996078   -0.880504
     10          1           0        0.114535   -0.980706    0.900317
     11          8           0        1.205338    0.534594   -0.013406
     12          8           0        2.393475   -0.300808   -0.097091
     13          1           0        2.770304   -0.146945    0.788377
 ---------------------------------------------------------------------
 Rotational constants (GHZ):     20.9166195      2.0867573      1.9791177
 Leave Link  202 at Sun Aug 23 11:16:07 2015, MaxMem= 3758096384 cpu:       0.1
 (Enter /share/apps/g09/l301.exe)
 Standard basis: 6-31G(d) (6D, 7F)
 Ernie: Thresh=  0.10000D-02 Tol=  0.10000D-05 Strict=F.
 There are    91 symmetry adapted basis functions of A   symmetry.
 Integral buffers will be    131072 words long.
 Raffenetti 2 integral format.
 Two-electron integral symmetry is turned on.
    91 basis functions,   172 primitive gaussians,    91 cartesian basis functions
    21 alpha electrons       21 beta electrons
       nuclear repulsion energy       185.7814399558 Hartrees.
 IExCor=  402 DFT=T Ex+Corr=B3LYP ExCW=0 ScaHFX=  0.200000
 ScaDFX=  0.800000  0.720000  1.000000  0.810000 ScalE2=  1.000000  1.000000
 IRadAn=      0 IRanWt=     -1 IRanGd=            0 ICorTp=0
 NAtoms=   13 NActive=   13 NUniq=   13 SFac= 7.50D-01 NAtFMM=   80 NAOKFM=F Big=F
 Leave Link  301 at Sun Aug 23 11:16:07 2015, MaxMem= 3758096384 cpu:       0.5
 (Enter /share/apps/g09/l302.exe)
 NPDir=0 NMtPBC=     1 NCelOv=     1 NCel=       1 NClECP=     1 NCelD=      1
         NCelK=      1 NCelE2=     1 NClLst=     1 CellRange=     0.0.
 One-electron integrals computed using PRISM.
 NBasis=    91 RedAO= T  NBF=    91
 NBsUse=    91 1.00D-06 NBFU=    91
 Precomputing XC quadrature grid using
 IXCGrd= 2 IRadAn=           0 IRanWt=          -1 IRanGd=           0 AccXCQ= 1.00D-10.
 NRdTot=     812 NPtTot=      102946 NUsed=      108812 NTot=      108844
 NSgBfM=    91    91    91    91    91 NAtAll=    13    13.
 Leave Link  302 at Sun Aug 23 11:16:07 2015, MaxMem= 3758096384 cpu:       2.8
 (Enter /share/apps/g09/l303.exe)
 DipDrv:  MaxL=1.
 Leave Link  303 at Sun Aug 23 11:16:07 2015, MaxMem= 3758096384 cpu:       0.3
 (Enter /share/apps/g09/l401.exe)
 Initial guess read from the read-write file.
 B after Tr=     0.000000    0.000000    0.000000
         Rot=    1.000000    0.000000    0.000000    0.000000 Ang=   0.00 deg.
 Guess basis will be translated and rotated to current coordinates.
 Initial guess orbital symmetries:
       Occupied  (A) (A) (A) (A) (A) (A) (A) (A) (A) (A) (A) (A)
                 (A) (A) (A) (A) (A) (A) (A) (A) (A)
       Virtual   (A) (A) (A) (A) (A) (A) (A) (A) (A) (A) (A) (A)
                 (A) (A) (A) (A) (A) (A) (A) (A) (A) (A) (A) (A)
                 (A) (A) (A) (A) (A) (A) (A) (A) (A) (A) (A) (A)
                 (A) (A) (A) (A) (A) (A) (A) (A) (A) (A) (A) (A)
                 (A) (A) (A) (A) (A) (A) (A) (A) (A) (A) (A) (A)
                 (A) (A) (A) (A) (A) (A) (A) (A) (A) (A)
 The electronic state of the initial guess is 1-A.
 Leave Link  401 at Sun Aug 23 11:16:08 2015, MaxMem= 3758096384 cpu:       0.9
 (Enter /share/apps/g09/l502.exe)
 Closed shell SCF:
 Requested convergence on RMS density matrix=1.00D-08 within 128 cycles.
 Requested convergence on MAX density matrix=1.00D-06.
 Requested convergence on             energy=1.00D-06.
 No special actions if energy rises.
 Using DIIS extrapolation, IDIIS=  1040.
 Integral symmetry usage will be decided dynamically.
       108682 words used for storage of precomputed grid.
 Keep R1 ints in memory in canonical form, NReq=9826553.
 IEnd=      153462 IEndB=      153462 NGot=  3758096384 MDV=  3749204516
 LenX=  3749204516 LenY=  3749195794
 Symmetry not used in FoFDir.
 MinBra= 0 MaxBra= 2 Meth= 1.
 IRaf=       0 NMat=   1 IRICut=       1 DoRegI=T DoRafI=F ISym2E= 0 JSym2E=0.

 Cycle   1  Pass 1  IDiag  1:
 E= -269.479835927368    
 DIIS: error= 7.83D-04 at cycle   1 NSaved=   1.
 NSaved= 1 IEnMin= 1 EnMin= -269.479835927368     IErMin= 1 ErrMin= 7.83D-04
 ErrMax= 7.83D-04 EMaxC= 1.00D-01 BMatC= 3.44D-05 BMatP= 3.44D-05
 IDIUse=3 WtCom= 9.92D-01 WtEn= 7.83D-03
 Coeff-Com:  0.100D+01
 Coeff-En:   0.100D+01
 Coeff:      0.100D+01
 Gap=     0.289 Goal=   None    Shift=    0.000
 RMSDP=1.20D-04 MaxDP=3.28D-03              OVMax= 3.60D-03

 Cycle   2  Pass 1  IDiag  1:
 E= -269.479893535898     Delta-E=       -0.000057608530 Rises=F Damp=F
 DIIS: error= 6.29D-05 at cycle   2 NSaved=   2.
 NSaved= 2 IEnMin= 2 EnMin= -269.479893535898     IErMin= 2 ErrMin= 6.29D-05
 ErrMax= 6.29D-05 EMaxC= 1.00D-01 BMatC= 4.26D-07 BMatP= 3.44D-05
 IDIUse=1 WtCom= 1.00D+00 WtEn= 0.00D+00
 Coeff-Com: -0.708D-01 0.107D+01
 Coeff:     -0.708D-01 0.107D+01
 Gap=     0.289 Goal=   None    Shift=    0.000
 RMSDP=2.05D-05 MaxDP=4.18D-04 DE=-5.76D-05 OVMax= 6.12D-04

 Cycle   3  Pass 1  IDiag  1:
 E= -269.479894159142     Delta-E=       -0.000000623244 Rises=F Damp=F
 DIIS: error= 4.27D-05 at cycle   3 NSaved=   3.
 NSaved= 3 IEnMin= 3 EnMin= -269.479894159142     IErMin= 3 ErrMin= 4.27D-05
 ErrMax= 4.27D-05 EMaxC= 1.00D-01 BMatC= 3.11D-07 BMatP= 4.26D-07
 IDIUse=1 WtCom= 1.00D+00 WtEn= 0.00D+00
 Coeff-Com: -0.450D-01 0.557D+00 0.488D+00
 Coeff:     -0.450D-01 0.557D+00 0.488D+00
 Gap=     0.289 Goal=   None    Shift=    0.000
 RMSDP=5.83D-06 MaxDP=1.04D-04 DE=-6.23D-07 OVMax= 1.12D-04

 Cycle   4  Pass 1  IDiag  1:
 E= -269.479894400908     Delta-E=       -0.000000241766 Rises=F Damp=F
 DIIS: error= 7.32D-06 at cycle   4 NSaved=   4.
 NSaved= 4 IEnMin= 4 EnMin= -269.479894400908     IErMin= 4 ErrMin= 7.32D-06
 ErrMax= 7.32D-06 EMaxC= 1.00D-01 BMatC= 1.31D-08 BMatP= 3.11D-07
 IDIUse=1 WtCom= 1.00D+00 WtEn= 0.00D+00
 Coeff-Com: -0.894D-02 0.772D-01 0.178D+00 0.753D+00
 Coeff:     -0.894D-02 0.772D-01 0.178D+00 0.753D+00
 Gap=     0.289 Goal=   None    Shift=    0.000
 RMSDP=1.44D-06 MaxDP=3.04D-05 DE=-2.42D-07 OVMax= 3.52D-05

 Cycle   5  Pass 1  IDiag  1:
 E= -269.479894409123     Delta-E=       -0.000000008216 Rises=F Damp=F
 DIIS: error= 5.12D-06 at cycle   5 NSaved=   5.
 NSaved= 5 IEnMin= 5 EnMin= -269.479894409123     IErMin= 5 ErrMin= 5.12D-06
 ErrMax= 5.12D-06 EMaxC= 1.00D-01 BMatC= 4.10D-09 BMatP= 1.31D-08
 IDIUse=1 WtCom= 1.00D+00 WtEn= 0.00D+00
 Coeff-Com: -0.928D-03-0.570D-02 0.574D-01 0.428D+00 0.521D+00
 Coeff:     -0.928D-03-0.570D-02 0.574D-01 0.428D+00 0.521D+00
 Gap=     0.289 Goal=   None    Shift=    0.000
 RMSDP=6.76D-07 MaxDP=1.66D-05 DE=-8.22D-09 OVMax= 1.78D-05

 Cycle   6  Pass 1  IDiag  1:
 E= -269.479894411561     Delta-E=       -0.000000002437 Rises=F Damp=F
 DIIS: error= 3.33D-06 at cycle   6 NSaved=   6.
 NSaved= 6 IEnMin= 6 EnMin= -269.479894411561     IErMin= 6 ErrMin= 3.33D-06
 ErrMax= 3.33D-06 EMaxC= 1.00D-01 BMatC= 8.31D-10 BMatP= 4.10D-09
 IDIUse=1 WtCom= 1.00D+00 WtEn= 0.00D+00
 Coeff-Com:  0.114D-02-0.172D-01 0.300D-02 0.123D+00 0.341D+00 0.549D+00
 Coeff:      0.114D-02-0.172D-01 0.300D-02 0.123D+00 0.341D+00 0.549D+00
 Gap=     0.289 Goal=   None    Shift=    0.000
 RMSDP=2.65D-07 MaxDP=5.00D-06 DE=-2.44D-09 OVMax= 6.19D-06

 Cycle   7  Pass 1  IDiag  1:
 E= -269.479894412192     Delta-E=       -0.000000000631 Rises=F Damp=F
 DIIS: error= 2.42D-07 at cycle   7 NSaved=   7.
 NSaved= 7 IEnMin= 7 EnMin= -269.479894412192     IErMin= 7 ErrMin= 2.42D-07
 ErrMax= 2.42D-07 EMaxC= 1.00D-01 BMatC= 1.01D-11 BMatP= 8.31D-10
 IDIUse=1 WtCom= 1.00D+00 WtEn= 0.00D+00
 Coeff-Com:  0.515D-03-0.741D-02 0.343D-04 0.423D-01 0.131D+00 0.235D+00
 Coeff-Com:  0.598D+00
 Coeff:      0.515D-03-0.741D-02 0.343D-04 0.423D-01 0.131D+00 0.235D+00
 Coeff:      0.598D+00
 Gap=     0.289 Goal=   None    Shift=    0.000
 RMSDP=4.12D-08 MaxDP=8.87D-07 DE=-6.31D-10 OVMax= 9.32D-07

 Cycle   8  Pass 1  IDiag  1:
 E= -269.479894412201     Delta-E=       -0.000000000009 Rises=F Damp=F
 DIIS: error= 8.32D-08 at cycle   8 NSaved=   8.
 NSaved= 8 IEnMin= 8 EnMin= -269.479894412201     IErMin= 8 ErrMin= 8.32D-08
 ErrMax= 8.32D-08 EMaxC= 1.00D-01 BMatC= 8.65D-13 BMatP= 1.01D-11
 IDIUse=1 WtCom= 1.00D+00 WtEn= 0.00D+00
 Coeff-Com:  0.512D-04-0.680D-03-0.397D-03-0.264D-03 0.444D-02 0.174D-01
 Coeff-Com:  0.237D+00 0.743D+00
 Coeff:      0.512D-04-0.680D-03-0.397D-03-0.264D-03 0.444D-02 0.174D-01
 Coeff:      0.237D+00 0.743D+00
 Gap=     0.289 Goal=   None    Shift=    0.000
 RMSDP=1.20D-08 MaxDP=2.30D-07 DE=-9.21D-12 OVMax= 2.33D-07

 Cycle   9  Pass 1  IDiag  1:
 E= -269.479894412202     Delta-E=       -0.000000000001 Rises=F Damp=F
 DIIS: error= 1.44D-08 at cycle   9 NSaved=   9.
 NSaved= 9 IEnMin= 9 EnMin= -269.479894412202     IErMin= 9 ErrMin= 1.44D-08
 ErrMax= 1.44D-08 EMaxC= 1.00D-01 BMatC= 2.70D-14 BMatP= 8.65D-13
 IDIUse=1 WtCom= 1.00D+00 WtEn= 0.00D+00
 Coeff-Com: -0.669D-05 0.110D-03-0.130D-03-0.197D-02-0.473D-02-0.518D-02
 Coeff-Com:  0.513D-01 0.247D+00 0.713D+00
 Coeff:     -0.669D-05 0.110D-03-0.130D-03-0.197D-02-0.473D-02-0.518D-02
 Coeff:      0.513D-01 0.247D+00 0.713D+00
 Gap=     0.289 Goal=   None    Shift=    0.000
 RMSDP=2.50D-09 MaxDP=2.94D-08 DE=-1.02D-12 OVMax= 4.61D-08

 SCF Done:  E(RB3LYP) =  -269.479894412     A.U. after    9 cycles
             Convg  =    0.2497D-08             -V/T =  2.0090
 KE= 2.670666512203D+02 PE=-1.001775613911D+03 EE= 2.794476283227D+02
 Leave Link  502 at Sun Aug 23 11:16:11 2015, MaxMem= 3758096384 cpu:      32.5
 (Enter /share/apps/g09/l701.exe)
 Compute integral first derivatives.
 ... and contract with generalized density number  0.
 Leave Link  701 at Sun Aug 23 11:16:11 2015, MaxMem= 3758096384 cpu:       2.7
 (Enter /share/apps/g09/l702.exe)
 L702 exits ... SP integral derivatives will be done elsewhere.
 Leave Link  702 at Sun Aug 23 11:16:11 2015, MaxMem= 3758096384 cpu:       0.2
 (Enter /share/apps/g09/l703.exe)
 Compute integral first derivatives, UseDBF=F ICtDFT=           0.
 Integral derivatives from FoFDir, PRISM(SPDF).
 Calling FoFJK, ICntrl=      2127 FMM=F ISym2X=0 I1Cent= 0 IOpClX= 0 NMat=1 NMatS=1 NMatT=0.
 FoFCou: FMM=F IPFlag=           0 FMFlag=      100000 FMFlg1=         800
         NFxFlg=           0 DoJE=F BraDBF=F KetDBF=F FulRan=T
         Omega=  0.000000  0.000000  1.000000  0.000000  0.000000 ICntrl=    2127 IOpCl=  0
         NMat0=    1 NMatS0=    1 NMatT0=    0 NMatD0=    1 NMtDS0=    0 NMtDT0=    0
         I1Cent=           0 NGrid=           0.
 Symmetry not used in FoFCou.
 Leave Link  703 at Sun Aug 23 11:16:12 2015, MaxMem= 3758096384 cpu:       7.7
 (Enter /share/apps/g09/l716.exe)
 Dipole        =-3.79068950D-01-2.15357265D-01 5.84916527D-01
 ***** Axes restored to original set *****
 -------------------------------------------------------------------
 Center     Atomic                   Forces (Hartrees/Bohr)
 Number     Number              X              Y              Z
 -------------------------------------------------------------------
      1        6          -0.000016656   -0.000009160    0.000014036
      2        1           0.000004003    0.000003667   -0.000003846
      3        1           0.000001339   -0.000001302   -0.000002124
      4        1          -0.000001342   -0.000003095   -0.000006336
      5        6           0.000012654    0.000006640   -0.000037756
      6        1          -0.000014700    0.000003707    0.000005989
      7        1           0.000010109   -0.000000004    0.000006101
      8        6           0.000095165    0.000000617    0.000082019
      9        1          -0.000010078    0.000003328   -0.000029929
     10        1           0.000011542    0.000008242   -0.000047710
     11        8          -0.000228499    0.000169841    0.000069140
     12        8           0.000215015   -0.000211747    0.000033511
     13        1          -0.000078552    0.000029266   -0.000083096
 -------------------------------------------------------------------
 Cartesian Forces:  Max     0.000228499 RMS     0.000074063
 Leave Link  716 at Sun Aug 23 11:16:12 2015, MaxMem= 3758096384 cpu:       0.2
 (Enter /share/apps/g09/l103.exe)

 GradGradGradGradGradGradGradGradGradGradGradGradGradGradGradGradGradGrad
 Berny optimization.
 Using GEDIIS/GDIIS optimizer.
 Internal  Forces:  Max     0.000218291 RMS     0.000044663
 Search for a local minimum.
 Step number   2 out of a maximum of   64
 All quantities printed in internal units (Hartrees-Bohrs-Radians)
 RMS Force = .44663D-04 SwitMx=.10000D-02 MixMth= 2
 Mixed Optimization -- En-DIIS/RFO-DIIS
 Swaping is turned off.
 Update second derivatives using D2CorX and points    1    2
 DE= -2.33D-06 DEPred=-1.82D-06 R= 1.28D+00
 SS=  1.41D+00  RLast= 2.29D-02 DXNew= 5.0454D-01 6.8820D-02
 Trust test= 1.28D+00 RLast= 2.29D-02 DXMaxT set to 3.00D-01
     Eigenvalues ---    0.00320   0.00388   0.00471   0.01363   0.03608
     Eigenvalues ---    0.04854   0.05430   0.05453   0.05501   0.05761
     Eigenvalues ---    0.08217   0.11111   0.12083   0.13444   0.15143
     Eigenvalues ---    0.16000   0.16000   0.16014   0.21841   0.21985
     Eigenvalues ---    0.23692   0.29199   0.29779   0.33511   0.33853
     Eigenvalues ---    0.34009   0.34057   0.34061   0.34079   0.34240
     Eigenvalues ---    0.38691   0.41532   0.519391000.000001000.00000
     Eigenvalues --- 1000.000001000.000001000.000001000.000001000.00000
     Eigenvalues --- 1000.000001000.000001000.000001000.000001000.00000
     Eigenvalues --- 1000.000001000.000001000.000001000.000001000.00000
     Eigenvalues --- 1000.000001000.000001000.000001000.00000
 En-DIIS/RFO-DIIS IScMMF=        0 using points:     2    1
 RFO step:  Lambda=-2.46245555D-07.
 DIIS coeffs:      1.52674     -0.52674
 Iteration  1 RMS(Cart)=  0.00211090 RMS(Int)=  0.00001237
 Iteration  2 RMS(Cart)=  0.00001162 RMS(Int)=  0.00000002
 Iteration  3 RMS(Cart)=  0.00000000 RMS(Int)=  0.00000002
 Variable       Old X    -DE/DX   Delta X   Delta X   Delta X     New X
                                  (DIIS)     (GDIIS)  (Total)
    R1        2.07227  -0.00001  -0.00002  -0.00001  -0.00003   2.07224
    R2        2.07198   0.00000  -0.00001   0.00002   0.00001   2.07199
    R3        2.06927   0.00000   0.00000   0.00000   0.00000   2.06927
    R4        2.89631   0.00002  -0.00002   0.00010   0.00008   2.89639
    R5        2.07230   0.00000   0.00001  -0.00001   0.00000   2.07230
    R6        2.07316   0.00000   0.00000   0.00002   0.00002   2.07317
    R7        2.88408   0.00000   0.00001   0.00001   0.00002   2.88410
    R8        2.07557   0.00002   0.00005   0.00006   0.00011   2.07567
    R9        2.08062  -0.00004  -0.00007  -0.00014  -0.00021   2.08041
   R10        2.69180  -0.00008  -0.00016  -0.00017  -0.00033   2.69147
   R11        2.74926   0.00022   0.00006   0.00084   0.00090   2.75015
   R12        1.84161  -0.00010  -0.00030  -0.00006  -0.00036   1.84125
    A1        1.88000   0.00000   0.00003  -0.00002   0.00001   1.88001
    A2        1.87932   0.00000   0.00005   0.00002   0.00007   1.87939
    A3        1.94469  -0.00001  -0.00008   0.00000  -0.00008   1.94461
    A4        1.87963   0.00000   0.00005  -0.00007  -0.00002   1.87961
    A5        1.94343   0.00000  -0.00005   0.00001  -0.00004   1.94339
    A6        1.93391   0.00001   0.00000   0.00006   0.00007   1.93397
    A7        1.92406   0.00000   0.00000  -0.00002  -0.00002   1.92404
    A8        1.92238   0.00001  -0.00002   0.00003   0.00000   1.92238
    A9        1.95300  -0.00001  -0.00013   0.00002  -0.00011   1.95289
   A10        1.86348   0.00000  -0.00001   0.00001   0.00000   1.86348
   A11        1.89673   0.00001   0.00022   0.00004   0.00026   1.89699
   A12        1.90176   0.00000  -0.00005  -0.00007  -0.00013   1.90163
   A13        1.93913  -0.00003  -0.00009  -0.00026  -0.00036   1.93878
   A14        1.93865   0.00002   0.00013   0.00025   0.00038   1.93903
   A15        1.86176   0.00002  -0.00002   0.00013   0.00011   1.86187
   A16        1.88739   0.00000  -0.00002   0.00000  -0.00002   1.88737
   A17        1.91497   0.00000   0.00004  -0.00014  -0.00010   1.91487
   A18        1.92217  -0.00001  -0.00004   0.00002  -0.00002   1.92215
   A19        1.86441  -0.00016  -0.00052  -0.00057  -0.00109   1.86332
   A20        1.74453  -0.00011  -0.00062  -0.00054  -0.00116   1.74338
    D1       -3.11939   0.00000   0.00084   0.00045   0.00130  -3.11809
    D2       -1.06743   0.00000   0.00082   0.00047   0.00129  -1.06614
    D3        1.05080   0.00000   0.00065   0.00041   0.00106   1.05185
    D4        1.06439   0.00001   0.00090   0.00047   0.00137   1.06576
    D5        3.11635   0.00001   0.00087   0.00048   0.00136   3.11770
    D6       -1.04862   0.00000   0.00070   0.00042   0.00113  -1.04749
    D7       -1.02728   0.00001   0.00086   0.00052   0.00138  -1.02590
    D8        1.02468   0.00001   0.00084   0.00053   0.00137   1.02604
    D9       -3.14028   0.00000   0.00067   0.00047   0.00114  -3.13915
   D10        1.05307   0.00000   0.00119   0.00051   0.00170   1.05477
   D11       -1.04871   0.00001   0.00119   0.00051   0.00170  -1.04701
   D12        3.13955   0.00000   0.00117   0.00027   0.00144   3.14099
   D13       -1.07568   0.00001   0.00112   0.00050   0.00161  -1.07407
   D14        3.10573   0.00001   0.00112   0.00050   0.00162   3.10735
   D15        1.01080   0.00000   0.00110   0.00026   0.00136   1.01216
   D16       -3.10003   0.00000   0.00104   0.00051   0.00154  -3.09849
   D17        1.08137   0.00000   0.00104   0.00051   0.00155   1.08292
   D18       -1.01355   0.00000   0.00102   0.00027   0.00129  -1.01226
   D19       -3.07746   0.00001  -0.00021  -0.00021  -0.00042  -3.07788
   D20       -0.97540  -0.00001  -0.00031  -0.00053  -0.00084  -0.97624
   D21        1.10022  -0.00002  -0.00033  -0.00060  -0.00093   1.09928
   D22       -1.94134  -0.00003  -0.01131  -0.00016  -0.01147  -1.95281
         Item               Value     Threshold  Converged?
 Maximum Force            0.000218     0.000450     YES
 RMS     Force            0.000045     0.000300     YES
 Maximum Displacement     0.009054     0.001800     NO 
 RMS     Displacement     0.002110     0.001200     NO 
 Predicted change in Energy=-5.419120D-07
 GradGradGradGradGradGradGradGradGradGradGradGradGradGradGradGradGradGrad

 Leave Link  103 at Sun Aug 23 11:16:12 2015, MaxMem= 3758096384 cpu:       4.2
 (Enter /share/apps/g09/l202.exe)
                          Input orientation:                          
 ---------------------------------------------------------------------
 Center     Atomic      Atomic             Coordinates (Angstroms)
 Number     Number       Type             X           Y           Z
 ---------------------------------------------------------------------
      1          6           0       -2.425768   -0.305661    0.054740
      2          1           0       -2.423618   -0.919402    0.963482
      3          1           0       -2.515403   -0.981410   -0.804055
      4          1           0       -3.322726    0.321955    0.079416
      5          6           0       -1.161369    0.555193   -0.042236
      6          1           0       -1.194597    1.177817   -0.944341
      7          1           0       -1.103961    1.239908    0.813011
      8          6           0        0.104875   -0.295892   -0.081787
      9          1           0        0.103825   -0.965558   -0.952434
     10          1           0        0.195978   -0.913138    0.825243
     11          8           0        1.202071    0.607738   -0.172023
     12          8           0        2.404085   -0.202910   -0.298385
     13          1           0        2.825233   -0.012526    0.559370
 ---------------------------------------------------------------------
                    Distance matrix (angstroms):
                    1          2          3          4          5
     1  C    0.000000
     2  H    1.096583   0.000000
     3  H    1.096448   1.771004   0.000000
     4  H    1.095009   1.769445   1.769478   0.000000
     5  C    1.532703   2.186132   2.185160   2.177306   0.000000
     6  H    2.171325   3.090083   2.535049   2.511874   1.096613
     7  H    2.170469   2.535105   3.088903   2.510721   1.097077
     8  C    2.534341   2.806176   2.803116   3.486570   1.526199
     9  H    2.801553   3.171881   2.623475   3.803111   2.177581
    10  H    2.799331   2.623248   3.163994   3.803024   2.179658
    11  O    3.747924   4.094771   4.092000   4.540780   2.367584
    12  O    4.843835   5.041070   5.006308   5.763209   3.654148
    13  H    5.283331   5.341925   5.596432   6.175729   4.071514
                    6          7          8          9         10
     6  H    0.000000
     7  H    1.760783   0.000000
     8  C    2.145798   2.149565   0.000000
     9  H    2.505997   3.072397   1.098398   0.000000
    10  H    3.072006   2.515075   1.100907   1.780836   0.000000
    11  O    2.581760   2.586062   1.424265   2.071339   2.078419
    12  O    3.908219   3.952634   2.311261   2.510101   2.577344
    13  H    4.453885   4.131766   2.809222   3.255746   2.791912
                   11         12         13
    11  O    0.000000
    12  O    1.455319   0.000000
    13  H    1.885289   0.974348   0.000000
 Stoichiometry    C3H8O2
 Framework group  C1[X(C3H8O2)]
 Deg. of freedom    33
 Full point group                 C1      NOp   1
 Largest Abelian subgroup         C1      NOp   1
 Largest concise Abelian subgroup C1      NOp   1
                         Standard orientation:                         
 ---------------------------------------------------------------------
 Center     Atomic      Atomic             Coordinates (Angstroms)
 Number     Number       Type             X           Y           Z
 ---------------------------------------------------------------------
      1          6           0       -2.449705   -0.294444    0.010998
      2          1           0       -2.508047   -0.926028    0.905533
      3          1           0       -2.511268   -0.950580   -0.865298
      4          1           0       -3.331904    0.354182    0.003727
      5          6           0       -1.162315    0.537169   -0.003990
      6          1           0       -1.135133    1.178255   -0.893275
      7          1           0       -1.132539    1.203121    0.867330
      8          6           0        0.084147   -0.343501    0.002304
      9          1           0        0.111774   -0.995474   -0.881237
     10          1           0        0.114624   -0.980717    0.899535
     11          8           0        1.205249    0.534799   -0.013470
     12          8           0        2.392936   -0.302162   -0.096237
     13          1           0        2.774248   -0.139193    0.785464
 ---------------------------------------------------------------------
 Rotational constants (GHZ):     20.9095207      2.0870551      1.9792189
 Leave Link  202 at Sun Aug 23 11:16:12 2015, MaxMem= 3758096384 cpu:       0.4
 (Enter /share/apps/g09/l301.exe)
 Standard basis: 6-31G(d) (6D, 7F)
 Ernie: Thresh=  0.10000D-02 Tol=  0.10000D-05 Strict=F.
 There are    91 symmetry adapted basis functions of A   symmetry.
 Integral buffers will be    131072 words long.
 Raffenetti 2 integral format.
 Two-electron integral symmetry is turned on.
    91 basis functions,   172 primitive gaussians,    91 cartesian basis functions
    21 alpha electrons       21 beta electrons
       nuclear repulsion energy       185.7810507619 Hartrees.
 IExCor=  402 DFT=T Ex+Corr=B3LYP ExCW=0 ScaHFX=  0.200000
 ScaDFX=  0.800000  0.720000  1.000000  0.810000 ScalE2=  1.000000  1.000000
 IRadAn=      0 IRanWt=     -1 IRanGd=            0 ICorTp=0
 NAtoms=   13 NActive=   13 NUniq=   13 SFac= 7.50D-01 NAtFMM=   80 NAOKFM=F Big=F
 Leave Link  301 at Sun Aug 23 11:16:13 2015, MaxMem= 3758096384 cpu:       0.4
 (Enter /share/apps/g09/l302.exe)
 NPDir=0 NMtPBC=     1 NCelOv=     1 NCel=       1 NClECP=     1 NCelD=      1
         NCelK=      1 NCelE2=     1 NClLst=     1 CellRange=     0.0.
 One-electron integrals computed using PRISM.
 NBasis=    91 RedAO= T  NBF=    91
 NBsUse=    91 1.00D-06 NBFU=    91
 Precomputing XC quadrature grid using
 IXCGrd= 2 IRadAn=           0 IRanWt=          -1 IRanGd=           0 AccXCQ= 1.00D-10.
 NRdTot=     812 NPtTot=      102946 NUsed=      108812 NTot=      108844
 NSgBfM=    91    91    91    91    91 NAtAll=    13    13.
 Leave Link  302 at Sun Aug 23 11:16:13 2015, MaxMem= 3758096384 cpu:       4.4
 (Enter /share/apps/g09/l303.exe)
 DipDrv:  MaxL=1.
 Leave Link  303 at Sun Aug 23 11:16:13 2015, MaxMem= 3758096384 cpu:       1.0
 (Enter /share/apps/g09/l401.exe)
 Initial guess read from the read-write file.
 B after Tr=     0.000000    0.000000    0.000000
         Rot=    1.000000    0.000000    0.000000    0.000000 Ang=   0.00 deg.
 Guess basis will be translated and rotated to current coordinates.
 Initial guess orbital symmetries:
       Occupied  (A) (A) (A) (A) (A) (A) (A) (A) (A) (A) (A) (A)
                 (A) (A) (A) (A) (A) (A) (A) (A) (A)
       Virtual   (A) (A) (A) (A) (A) (A) (A) (A) (A) (A) (A) (A)
                 (A) (A) (A) (A) (A) (A) (A) (A) (A) (A) (A) (A)
                 (A) (A) (A) (A) (A) (A) (A) (A) (A) (A) (A) (A)
                 (A) (A) (A) (A) (A) (A) (A) (A) (A) (A) (A) (A)
                 (A) (A) (A) (A) (A) (A) (A) (A) (A) (A) (A) (A)
                 (A) (A) (A) (A) (A) (A) (A) (A) (A) (A)
 The electronic state of the initial guess is 1-A.
 Leave Link  401 at Sun Aug 23 11:16:13 2015, MaxMem= 3758096384 cpu:       1.9
 (Enter /share/apps/g09/l502.exe)
 Closed shell SCF:
 Requested convergence on RMS density matrix=1.00D-08 within 128 cycles.
 Requested convergence on MAX density matrix=1.00D-06.
 Requested convergence on             energy=1.00D-06.
 No special actions if energy rises.
 Using DIIS extrapolation, IDIIS=  1040.
 Integral symmetry usage will be decided dynamically.
       108682 words used for storage of precomputed grid.
 Keep R1 ints in memory in canonical form, NReq=9826553.
 IEnd=      153462 IEndB=      153462 NGot=  3758096384 MDV=  3749204516
 LenX=  3749204516 LenY=  3749195794
 Symmetry not used in FoFDir.
 MinBra= 0 MaxBra= 2 Meth= 1.
 IRaf=       0 NMat=   1 IRICut=       1 DoRegI=T DoRafI=F ISym2E= 0 JSym2E=0.

 Cycle   1  Pass 1  IDiag  1:
 E= -269.479877852009    
 DIIS: error= 4.14D-04 at cycle   1 NSaved=   1.
 NSaved= 1 IEnMin= 1 EnMin= -269.479877852009     IErMin= 1 ErrMin= 4.14D-04
 ErrMax= 4.14D-04 EMaxC= 1.00D-01 BMatC= 9.99D-06 BMatP= 9.99D-06
 IDIUse=3 WtCom= 9.96D-01 WtEn= 4.14D-03
 Coeff-Com:  0.100D+01
 Coeff-En:   0.100D+01
 Coeff:      0.100D+01
 Gap=     0.288 Goal=   None    Shift=    0.000
 RMSDP=6.47D-05 MaxDP=1.74D-03              OVMax= 1.87D-03

 Cycle   2  Pass 1  IDiag  1:
 E= -269.479894710147     Delta-E=       -0.000016858138 Rises=F Damp=F
 DIIS: error= 2.99D-05 at cycle   2 NSaved=   2.
 NSaved= 2 IEnMin= 2 EnMin= -269.479894710147     IErMin= 2 ErrMin= 2.99D-05
 ErrMax= 2.99D-05 EMaxC= 1.00D-01 BMatC= 1.31D-07 BMatP= 9.99D-06
 IDIUse=1 WtCom= 1.00D+00 WtEn= 0.00D+00
 Coeff-Com: -0.724D-01 0.107D+01
 Coeff:     -0.724D-01 0.107D+01
 Gap=     0.288 Goal=   None    Shift=    0.000
 RMSDP=1.12D-05 MaxDP=2.24D-04 DE=-1.69D-05 OVMax= 3.21D-04

 Cycle   3  Pass 1  IDiag  1:
 E= -269.479894882787     Delta-E=       -0.000000172639 Rises=F Damp=F
 DIIS: error= 2.27D-05 at cycle   3 NSaved=   3.
 NSaved= 3 IEnMin= 3 EnMin= -269.479894882787     IErMin= 3 ErrMin= 2.27D-05
 ErrMax= 2.27D-05 EMaxC= 1.00D-01 BMatC= 1.04D-07 BMatP= 1.31D-07
 IDIUse=1 WtCom= 1.00D+00 WtEn= 0.00D+00
 Coeff-Com: -0.463D-01 0.569D+00 0.477D+00
 Coeff:     -0.463D-01 0.569D+00 0.477D+00
 Gap=     0.288 Goal=   None    Shift=    0.000
 RMSDP=3.34D-06 MaxDP=5.42D-05 DE=-1.73D-07 OVMax= 6.32D-05

 Cycle   4  Pass 1  IDiag  1:
 E= -269.479894964379     Delta-E=       -0.000000081592 Rises=F Damp=F
 DIIS: error= 3.13D-06 at cycle   4 NSaved=   4.
 NSaved= 4 IEnMin= 4 EnMin= -269.479894964379     IErMin= 4 ErrMin= 3.13D-06
 ErrMax= 3.13D-06 EMaxC= 1.00D-01 BMatC= 2.60D-09 BMatP= 1.04D-07
 IDIUse=1 WtCom= 1.00D+00 WtEn= 0.00D+00
 Coeff-Com: -0.653D-02 0.493D-01 0.138D+00 0.819D+00
 Coeff:     -0.653D-02 0.493D-01 0.138D+00 0.819D+00
 Gap=     0.288 Goal=   None    Shift=    0.000
 RMSDP=7.04D-07 MaxDP=1.31D-05 DE=-8.16D-08 OVMax= 1.68D-05

 Cycle   5  Pass 1  IDiag  1:
 E= -269.479894966452     Delta-E=       -0.000000002073 Rises=F Damp=F
 DIIS: error= 1.40D-06 at cycle   5 NSaved=   5.
 NSaved= 5 IEnMin= 5 EnMin= -269.479894966452     IErMin= 5 ErrMin= 1.40D-06
 ErrMax= 1.40D-06 EMaxC= 1.00D-01 BMatC= 4.18D-10 BMatP= 2.60D-09
 IDIUse=1 WtCom= 1.00D+00 WtEn= 0.00D+00
 Coeff-Com:  0.419D-03-0.163D-01 0.277D-01 0.352D+00 0.636D+00
 Coeff:      0.419D-03-0.163D-01 0.277D-01 0.352D+00 0.636D+00
 Gap=     0.288 Goal=   None    Shift=    0.000
 RMSDP=2.65D-07 MaxDP=5.71D-06 DE=-2.07D-09 OVMax= 6.57D-06

 Cycle   6  Pass 1  IDiag  1:
 E= -269.479894966646     Delta-E=       -0.000000000194 Rises=F Damp=F
 DIIS: error= 1.58D-06 at cycle   6 NSaved=   6.
 NSaved= 6 IEnMin= 6 EnMin= -269.479894966646     IErMin= 5 ErrMin= 1.40D-06
 ErrMax= 1.58D-06 EMaxC= 1.00D-01 BMatC= 2.04D-10 BMatP= 4.18D-10
 IDIUse=1 WtCom= 1.00D+00 WtEn= 0.00D+00
 Coeff-Com:  0.105D-02-0.161D-01 0.262D-02 0.135D+00 0.439D+00 0.439D+00
 Coeff:      0.105D-02-0.161D-01 0.262D-02 0.135D+00 0.439D+00 0.439D+00
 Gap=     0.288 Goal=   None    Shift=    0.000
 RMSDP=1.19D-07 MaxDP=2.58D-06 DE=-1.94D-10 OVMax= 3.11D-06

 Cycle   7  Pass 1  IDiag  1:
 E= -269.479894966792     Delta-E=       -0.000000000146 Rises=F Damp=F
 DIIS: error= 1.55D-07 at cycle   7 NSaved=   7.
 NSaved= 7 IEnMin= 7 EnMin= -269.479894966792     IErMin= 7 ErrMin= 1.55D-07
 ErrMax= 1.55D-07 EMaxC= 1.00D-01 BMatC= 3.85D-12 BMatP= 2.04D-10
 IDIUse=1 WtCom= 1.00D+00 WtEn= 0.00D+00
 Coeff-Com:  0.492D-03-0.710D-02-0.141D-03 0.459D-01 0.174D+00 0.211D+00
 Coeff-Com:  0.575D+00
 Coeff:      0.492D-03-0.710D-02-0.141D-03 0.459D-01 0.174D+00 0.211D+00
 Coeff:      0.575D+00
 Gap=     0.288 Goal=   None    Shift=    0.000
 RMSDP=2.45D-08 MaxDP=4.42D-07 DE=-1.46D-10 OVMax= 5.08D-07

 Cycle   8  Pass 1  IDiag  1:
 E= -269.479894966796     Delta-E=       -0.000000000004 Rises=F Damp=F
 DIIS: error= 4.05D-08 at cycle   8 NSaved=   8.
 NSaved= 8 IEnMin= 8 EnMin= -269.479894966796     IErMin= 8 ErrMin= 4.05D-08
 ErrMax= 4.05D-08 EMaxC= 1.00D-01 BMatC= 2.21D-13 BMatP= 3.85D-12
 IDIUse=1 WtCom= 1.00D+00 WtEn= 0.00D+00
 Coeff-Com:  0.577D-04-0.786D-03-0.450D-03 0.142D-03 0.116D-01 0.270D-01
 Coeff-Com:  0.221D+00 0.742D+00
 Coeff:      0.577D-04-0.786D-03-0.450D-03 0.142D-03 0.116D-01 0.270D-01
 Coeff:      0.221D+00 0.742D+00
 Gap=     0.288 Goal=   None    Shift=    0.000
 RMSDP=6.33D-09 MaxDP=1.17D-07 DE=-3.87D-12 OVMax= 1.20D-07

 SCF Done:  E(RB3LYP) =  -269.479894967     A.U. after    8 cycles
             Convg  =    0.6333D-08             -V/T =  2.0090
 KE= 2.670667982869D+02 PE=-1.001776217703D+03 EE= 2.794484736873D+02
 Leave Link  502 at Sun Aug 23 11:16:16 2015, MaxMem= 3758096384 cpu:      24.1
 (Enter /share/apps/g09/l701.exe)
 Compute integral first derivatives.
 ... and contract with generalized density number  0.
 Leave Link  701 at Sun Aug 23 11:16:16 2015, MaxMem= 3758096384 cpu:       2.4
 (Enter /share/apps/g09/l702.exe)
 L702 exits ... SP integral derivatives will be done elsewhere.
 Leave Link  702 at Sun Aug 23 11:16:16 2015, MaxMem= 3758096384 cpu:       0.1
 (Enter /share/apps/g09/l703.exe)
 Compute integral first derivatives, UseDBF=F ICtDFT=           0.
 Integral derivatives from FoFDir, PRISM(SPDF).
 Calling FoFJK, ICntrl=      2127 FMM=F ISym2X=0 I1Cent= 0 IOpClX= 0 NMat=1 NMatS=1 NMatT=0.
 FoFCou: FMM=F IPFlag=           0 FMFlag=      100000 FMFlg1=         800
         NFxFlg=           0 DoJE=F BraDBF=F KetDBF=F FulRan=T
[...]
   A12        1.90170   0.00000   0.00000   0.00000   0.00000   1.90170
   A13        1.93871   0.00000   0.00000  -0.00002  -0.00002   1.93869
   A14        1.93899   0.00000   0.00000   0.00001   0.00001   1.93900
   A15        1.86192  -0.00001   0.00000  -0.00005  -0.00005   1.86187
   A16        1.88737   0.00000   0.00000   0.00002   0.00002   1.88739
   A17        1.91495   0.00000   0.00000   0.00002   0.00002   1.91498
   A18        1.92213   0.00001   0.00000   0.00002   0.00002   1.92216
   A19        1.86332  -0.00003   0.00000  -0.00006  -0.00006   1.86326
   A20        1.74330  -0.00003   0.00000  -0.00013  -0.00013   1.74317
    D1       -3.11793   0.00000   0.00000  -0.00016  -0.00016  -3.11810
    D2       -1.06599   0.00000   0.00000  -0.00015  -0.00015  -1.06615
    D3        1.05207   0.00000   0.00000  -0.00015  -0.00015   1.05192
    D4        1.06591   0.00000   0.00000  -0.00017  -0.00017   1.06574
    D5        3.11785   0.00000   0.00000  -0.00016  -0.00016   3.11769
    D6       -1.04728   0.00000   0.00000  -0.00016  -0.00016  -1.04743
    D7       -1.02572   0.00000   0.00000  -0.00017  -0.00017  -1.02589
    D8        1.02622   0.00000   0.00000  -0.00016  -0.00016   1.02606
    D9       -3.13891   0.00000   0.00000  -0.00016  -0.00016  -3.13906
   D10        1.05484   0.00000   0.00000  -0.00033  -0.00033   1.05451
   D11       -1.04686   0.00000   0.00000  -0.00034  -0.00034  -1.04720
   D12        3.14115   0.00000   0.00000  -0.00034  -0.00034   3.14081
   D13       -1.07394   0.00000   0.00000  -0.00032  -0.00032  -1.07426
   D14        3.10755   0.00000   0.00000  -0.00033  -0.00033   3.10722
   D15        1.01237   0.00000   0.00000  -0.00033  -0.00033   1.01204
   D16       -3.09840   0.00000   0.00000  -0.00032  -0.00032  -3.09872
   D17        1.08309   0.00000   0.00000  -0.00033  -0.00033   1.08276
   D18       -1.01208   0.00000   0.00000  -0.00034  -0.00034  -1.01242
   D19       -3.07818   0.00000   0.00000  -0.00021  -0.00021  -3.07839
   D20       -0.97656   0.00000   0.00000  -0.00025  -0.00025  -0.97681
   D21        1.09900   0.00000   0.00000  -0.00020  -0.00020   1.09880
   D22       -1.95510   0.00001   0.00000   0.00068   0.00068  -1.95442
         Item               Value     Threshold  Converged?
 Maximum Force            0.000031     0.000450     YES
 RMS     Force            0.000007     0.000300     YES
 Maximum Displacement     0.000713     0.001800     YES
 RMS     Displacement     0.000206     0.001200     YES
 Predicted change in Energy=-7.841787D-09
 Optimization completed.
    -- Stationary point found.
                           ----------------------------
                           !   Optimized Parameters   !
                           ! (Angstroms and Degrees)  !
 --------------------------                            --------------------------
 ! Name  Definition              Value          Derivative Info.                !
 --------------------------------------------------------------------------------
 ! R1    R(1,2)                  1.0966         -DE/DX =    0.0                 !
 ! R2    R(1,3)                  1.0965         -DE/DX =    0.0                 !
 ! R3    R(1,4)                  1.095          -DE/DX =    0.0                 !
 ! R4    R(1,5)                  1.5327         -DE/DX =    0.0                 !
 ! R5    R(5,6)                  1.0966         -DE/DX =    0.0                 !
 ! R6    R(5,7)                  1.0971         -DE/DX =    0.0                 !
 ! R7    R(5,8)                  1.5262         -DE/DX =    0.0                 !
 ! R8    R(8,9)                  1.0984         -DE/DX =    0.0                 !
 ! R9    R(8,10)                 1.1009         -DE/DX =    0.0                 !
 ! R10   R(8,11)                 1.4243         -DE/DX =    0.0                 !
 ! R11   R(11,12)                1.4556         -DE/DX =    0.0                 !
 ! R12   R(12,13)                0.9744         -DE/DX =    0.0                 !
 ! A1    A(2,1,3)              107.7166         -DE/DX =    0.0                 !
 ! A2    A(2,1,4)              107.6822         -DE/DX =    0.0                 !
 ! A3    A(2,1,5)              111.4183         -DE/DX =    0.0                 !
 ! A4    A(3,1,4)              107.693          -DE/DX =    0.0                 !
 ! A5    A(3,1,5)              111.3476         -DE/DX =    0.0                 !
 ! A6    A(4,1,5)              110.8083         -DE/DX =    0.0                 !
 ! A7    A(1,5,6)              110.2388         -DE/DX =    0.0                 !
 ! A8    A(1,5,7)              110.1436         -DE/DX =    0.0                 !
 ! A9    A(1,5,8)              111.8917         -DE/DX =    0.0                 !
 ! A10   A(6,5,7)              106.77           -DE/DX =    0.0                 !
 ! A11   A(6,5,8)              108.6875         -DE/DX =    0.0                 !
 ! A12   A(7,5,8)              108.9592         -DE/DX =    0.0                 !
 ! A13   A(5,8,9)              111.0797         -DE/DX =    0.0                 !
 ! A14   A(5,8,10)             111.096          -DE/DX =    0.0                 !
 ! A15   A(5,8,11)             106.6802         -DE/DX =    0.0                 !
 ! A16   A(9,8,10)             108.1382         -DE/DX =    0.0                 !
 ! A17   A(9,8,11)             109.7187         -DE/DX =    0.0                 !
 ! A18   A(10,8,11)            110.1301         -DE/DX =    0.0                 !
 ! A19   A(8,11,12)            106.7604         -DE/DX =    0.0                 !
 ! A20   A(11,12,13)            99.8838         -DE/DX =    0.0                 !
 ! D1    D(2,1,5,6)           -178.6445         -DE/DX =    0.0                 !
 ! D2    D(2,1,5,7)            -61.0769         -DE/DX =    0.0                 !
 ! D3    D(2,1,5,8)             60.279          -DE/DX =    0.0                 !
 ! D4    D(3,1,5,6)             61.0721         -DE/DX =    0.0                 !
 ! D5    D(3,1,5,7)            178.6397         -DE/DX =    0.0                 !
 ! D6    D(3,1,5,8)            -60.0044         -DE/DX =    0.0                 !
 ! D7    D(4,1,5,6)            -58.7695         -DE/DX =    0.0                 !
 ! D8    D(4,1,5,7)             58.7981         -DE/DX =    0.0                 !
 ! D9    D(4,1,5,8)           -179.8461         -DE/DX =    0.0                 !
 ! D10   D(1,5,8,9)             60.438          -DE/DX =    0.0                 !
 ! D11   D(1,5,8,10)           -59.9804         -DE/DX =    0.0                 !
 ! D12   D(1,5,8,11)           179.9749         -DE/DX =    0.0                 !
 ! D13   D(6,5,8,9)            -61.5323         -DE/DX =    0.0                 !
 ! D14   D(6,5,8,10)           178.0493         -DE/DX =    0.0                 !
 ! D15   D(6,5,8,11)            58.0045         -DE/DX =    0.0                 !
 ! D16   D(7,5,8,9)           -177.525          -DE/DX =    0.0                 !
 ! D17   D(7,5,8,10)            62.0566         -DE/DX =    0.0                 !
 ! D18   D(7,5,8,11)           -57.9881         -DE/DX =    0.0                 !
 ! D19   D(5,8,11,12)         -176.3669         -DE/DX =    0.0                 !
 ! D20   D(9,8,11,12)          -55.9525         -DE/DX =    0.0                 !
 ! D21   D(10,8,11,12)          62.968          -DE/DX =    0.0                 !
 ! D22   D(8,11,12,13)        -112.019          -DE/DX =    0.0                 !
 --------------------------------------------------------------------------------
 GradGradGradGradGradGradGradGradGradGradGradGradGradGradGradGradGradGrad

 Leave Link  103 at Sun Aug 23 11:16:44 2015, MaxMem= 3758096384 cpu:       0.1
 (Enter /share/apps/g09/l9999.exe)
 1\1\GINC-COMPUTE-0-2\Freq\RB3LYP\6-31G(d)\C3H8O2\HETANJIN\23-Aug-2015\
 0\\#P Geom=AllCheck Guess=TCheck SCRF=Check GenChk RB3LYP/6-31G(d) Fre
 q\\using ub3lyp/6-31G(d) to scan\\0,1\C,-2.4258722402,-0.3056053268,0.
 0547479888\H,-2.4238430443,-0.9192840025,0.9635302382\H,-2.515468668,-
 0.9814049818,-0.8040150784\H,-3.3227911077,0.3220708767,0.0792793045\C
 ,-1.1614150256,0.5551623455,-0.0421849983\H,-1.1946138489,1.1778319722
 ,-0.9442542181\H,-1.103971932,1.2398256848,0.8131092966\C,0.1047627476
 ,-0.2960392373,-0.0818744203\H,0.1035854839,-0.965535228,-0.9526650996
 \H,0.1957314369,-0.9134797151,0.8250171426\O,1.2020835174,0.6074517824
 ,-0.1718351613\O,2.4042377022,-0.2034819473,-0.2979207322\H,2.82619997
 88,-0.0113982229,0.5590687376\\Version=EM64L-G09RevA.01\State=1-A\HF=-
 269.479895\RMSD=2.649e-09\RMSF=9.755e-06\ZeroPoint=0.1122767\Thermal=0
 .1191413\Dipole=-0.3402288,-0.2046589,0.6046753\DipoleDeriv=0.0541552,
 -0.0146829,0.0035631,0.0865935,0.1000146,-0.0022596,-0.0005373,-0.0003
 167,0.1263017,0.0353949,-0.0028817,-0.0249141,-0.041718,-0.0247344,0.0
 967042,0.0124506,0.1065397,-0.0903166,0.0367617,-0.0128881,0.0128728,-
 0.0526038,-0.0376044,-0.095046,-0.0207122,-0.1073543,-0.0735307,-0.146
 7339,0.0711837,0.0075065,0.0784551,-0.0115227,-0.0016832,0.0087906,-0.
 0008924,0.0701319,0.0250281,0.0011112,0.0074181,-0.0946089,0.1094686,0
 .0050524,0.0059308,0.0098353,0.1480156,0.014644,-0.0088284,0.0076504,0
 .0089083,-0.0356385,0.0878854,0.0011298,0.103862,-0.0735124,0.0089588,
 -0.0226774,-0.0174602,-0.0018031,-0.0532273,-0.0918449,-0.0101092,-0.1
 106974,-0.0654028,0.5926251,0.1544303,-0.015229,0.2368093,0.4031641,-0
 .0255886,-0.006274,-0.0288509,0.4367469,-0.0229562,0.0017534,0.0051515
 ,-0.0576119,-0.0607203,-0.0785164,-0.0086947,-0.1036449,-0.1029856,-0.
 0479518,0.0188465,-0.027441,-0.0484127,-0.0664418,0.0896242,-0.0022826
 ,0.1183561,-0.1425639,-0.2428765,-0.154625,-0.0115194,-0.2086141,-0.31
 91185,0.0156148,0.0626634,-0.0385841,-0.2856307,-0.5702372,-0.0599543,
 0.0837683,0.0372059,-0.2953958,0.0663197,-0.02449,0.1119037,-0.076549,
 0.2631877,0.0292128,-0.031367,0.0574004,0.2917563,-0.0662621,-0.017865
 3,-0.0601559,0.1292954\Polar=54.235694,-1.6148997,36.8443906,0.8293022
 ,0.3392223,36.5530654\PG=C01 [X(C3H8O2)]\NImag=0\\0.51261503,-0.049857
 25,0.54449734,0.00480827,0.00387409,0.57376799,-0.04952476,0.00279366,
 -0.00355423,0.05223207,0.00259782,-0.12965728,0.11926781,0.00045631,0.
 13863203,-0.00309257,0.11956140,-0.23158195,0.00328805,-0.13319838,0.2
 4877554,-0.05065873,-0.01023824,-0.01410569,-0.00101481,-0.00029378,-0
 .00093993,0.05352969,-0.01050119,-0.14707671,-0.12504376,0.00139435,0.
 01335580,0.01508110,0.01501764,0.15799532,-0.01462302,-0.12541863,-0.2
 1348778,-0.00119655,-0.01750307,-0.02099525,0.01553023,0.13896613,0.22
 854752,-0.22370705,0.12697856,0.00457719,0.00057442,-0.00033371,-0.000
 67173,0.00307086,-0.00194229,0.00065049,0.24405619,0.12789880,-0.13971
 879,-0.00347975,0.01398443,-0.01079128,-0.00155264,0.01576656,-0.01181
 184,0.00089030,-0.13663652,0.14982975,0.00454231,-0.00342262,-0.049582
 79,-0.02396037,0.01640791,0.00158102,0.02280906,-0.01540851,0.00015754
 ,-0.00539105,0.00349407,0.04807333,-0.15542059,-0.05262954,0.00569220,
 0.00012616,0.00003623,0.00071673,-0.00256061,-0.00166698,-0.00039017,-
 0.02265076,-0.01865142,0.00177568,0.46540904,-0.05330083,-0.11759805,0
 .00410951,-0.01585346,-0.01148924,0.00037412,-0.01750302,-0.01254375,0
 .00228826,0.01634185,0.01273676,-0.00136267,0.00384354,0.54138690,0.00
 579524,0.00418240,-0.08162613,0.02518080,0.01623754,-0.00051030,-0.023
 71943,-0.01522105,0.00316300,0.00055697,0.00046055,-0.00125130,0.00656
 978,0.00127330,0.60498954,0.00015963,-0.01693283,0.02499895,-0.0047843
 7,-0.00375097,0.00005915,0.00118670,0.00067445,-0.00051276,0.00108260,
 0.00085552,0.00016409,-0.04867687,0.00518803,-0.00656753,0.05596871,-0
 .00014773,-0.01081030,0.01516707,-0.00326325,-0.00121610,-0.00007226,0
 .00077891,0.00022212,-0.00005805,0.00015770,0.00086321,-0.00038628,0.0
 0620182,-0.13141153,0.11694770,-0.00610803,0.14236173,0.00030602,0.000
 02560,-0.00025923,0.00013412,-0.00036312,0.00162528,0.00034727,0.00011
 989,0.00081438,0.00047869,-0.00006601,0.00002885,-0.00775972,0.1182964
 3,-0.23090930,0.00780199,-0.13129727,0.24632583,-0.00240685,-0.0185753
 6,-0.02356542,0.00120059,0.00069367,0.00044089,-0.00472890,-0.00366468
 ,0.00087596,0.00100499,0.00084874,-0.00031659,-0.04924372,-0.00725315,
 -0.01119711,-0.00031904,-0.00066874,-0.00092076,0.05646896,-0.00175085
 ,-0.01187321,-0.01432366,0.00077344,0.00023025,0.00003251,-0.00325327,
 -0.00116110,0.00061930,0.00015554,0.00089312,0.00031767,-0.00624247,-0
 .14778280,-0.12193616,0.00099017,0.01285484,0.01453940,0.00782930,0.16
 061317,0.00008610,0.00265627,0.00309253,-0.00044899,-0.00016549,0.0008
 3209,0.00070542,0.00090573,0.00148513,-0.00060389,-0.00007647,0.000084
 68,-0.01030763,-0.12305804,-0.21249703,-0.00136719,-0.01714645,-0.0214
 9992,0.01080389,0.13660275,0.22613942,-0.02995162,0.01110508,0.0011434
 4,0.00150691,0.00109065,-0.00050004,0.00133572,0.00109864,0.00024280,-
 0.00191985,-0.00250446,0.00016682,-0.14133705,0.06020791,0.00101199,-0
 .00260217,0.00161159,-0.00040573,0.00023410,-0.00037206,0.00051244,0.4
 4917194,-0.01649835,0.01491061,0.00037529,-0.00135738,-0.00002752,0.00
 038824,-0.00146182,-0.00000156,-0.00020611,-0.00595624,-0.00328296,0.0
 0042248,0.05378739,-0.12978968,-0.00138452,0.01775284,-0.01325382,-0.0
 0088361,0.01951789,-0.01427643,0.00004260,-0.03313177,0.56379761,0.002
 18454,-0.00113134,-0.00054245,0.00175615,-0.00007770,-0.00031001,-0.00
 182700,-0.00002447,-0.00010524,0.00031581,0.00024753,-0.00008741,0.001
 36103,-0.00194494,-0.08532236,-0.02609760,0.01829951,0.00093223,0.0251
 0500,-0.01737530,-0.00064587,0.00986252,0.00834827,0.60607119,0.001829
 05,0.00055464,0.00056976,-0.00012547,-0.00004980,0.00000808,-0.0003598
 6,-0.00053316,-0.00051245,0.00024256,-0.00007840,-0.00026875,-0.000211
 50,0.01700639,0.02340399,0.00114716,-0.00083242,-0.00050973,-0.0049292
 7,0.00343068,-0.00018571,-0.04846767,0.00964247,0.00734849,0.05779141,
 -0.00082236,0.00030636,0.00016690,0.00012493,0.00007819,0.00007815,0.0
 0053422,0.00063167,0.00015121,-0.00002479,0.00009991,0.00037191,0.0015
 7452,-0.01063759,-0.01488034,-0.00083755,0.00043317,-0.00002008,0.0026
 3025,-0.00127109,0.00004408,0.00408520,-0.13539692,-0.11425860,0.00225
 585,0.15573426,-0.00013681,-0.00004477,-0.00005036,-0.00009860,-0.0000
 7665,0.00001833,0.00066806,0.00022735,0.00023880,0.00017194,0.00024950
 ,0.00022922,-0.00033983,0.00071325,0.00036546,0.00043493,-0.00001190,0
 .00106903,-0.00022596,0.00032077,0.00165370,0.00519896,-0.11745439,-0.
 22357467,-0.00375029,0.13057154,0.23215100,0.00176730,0.00055736,-0.00
 078940,-0.00035573,-0.00052129,0.00061602,-0.00010552,-0.00004493,0.00
 000354,0.00022609,-0.00008671,0.00027164,-0.00248905,0.01509483,-0.024
 18488,-0.00487330,0.00345433,0.00063414,0.00114466,-0.00076230,0.00061
 259,-0.05285311,0.01931109,-0.02606949,0.00289194,0.00103172,0.0014303
 7,0.06051040,-0.00079911,0.00021853,-0.00005327,0.00047547,0.00061353,
 -0.00026212,0.00012617,0.00007906,-0.00009080,-0.00005043,0.00008356,-
 0.00036581,0.00313034,-0.00954717,0.01553793,0.00264744,-0.00134648,-0
 .00013932,-0.00092025,0.00046910,0.00010813,0.01485750,-0.11930117,0.1
 0351981,-0.00085860,0.01171980,-0.01558001,-0.00974887,0.13769681,0.00
 000452,0.00004586,-0.00000311,-0.00064651,-0.00022482,0.00030618,0.000
 12163,0.00007227,0.00001020,-0.00019533,-0.00024498,0.00026745,0.00064
 326,-0.00158409,0.00150056,0.00061019,-0.00037531,0.00160557,-0.000435
 26,0.00020274,0.00108212,-0.02514229,0.10501890,-0.22931313,-0.0045843
 9,0.01415097,-0.02267160,0.02267706,-0.12168771,0.24038394,-0.00337310
 ,0.00187882,0.00017041,0.00027266,0.00029725,-0.00014450,0.00037733,0.
 00037541,0.00013113,-0.00073476,-0.00030549,0.00011484,-0.03830668,-0.
 01113646,0.00222807,0.00129511,-0.00113441,0.00014700,0.00139853,-0.00
 102406,-0.00019018,-0.12304329,-0.09907524,0.00341607,-0.01439026,-0.0
 1183333,-0.00319888,-0.01043682,-0.00876981,0.00622290,0.38066881,0.00
 379009,-0.00290676,-0.00012136,0.00031905,0.00020104,-0.00042051,0.000
 34954,0.00022554,0.00035990,0.00128783,0.00103887,-0.00008741,0.013336
 84,0.01472252,-0.00129923,0.00014788,0.00119381,-0.00001119,0.00017919
 ,0.00114463,-0.00015113,-0.04726139,-0.17594421,0.00471181,-0.02983127
 ,-0.02375974,0.00012832,-0.02760477,-0.02290872,0.00608827,0.01304484,
 0.32091979,0.00010815,-0.00022372,-0.00078074,-0.00026565,-0.00021769,
 0.00027847,0.00025177,0.00023510,0.00023088,0.00007357,0.00004738,0.00
 041974,0.00244083,0.00073487,0.00152656,-0.00030518,-0.00055296,0.0000
 7734,-0.00000236,0.00063378,0.00009529,0.00509759,0.00551107,-0.065428
 40,-0.02140447,-0.01884093,0.01055010,0.02526774,0.02159807,0.00628771
 ,-0.00252750,-0.00183143,0.07388316,-0.00108098,0.00408059,-0.00017366
 ,-0.00003693,-0.00019130,0.00019472,-0.00010983,-0.00024152,-0.0001889
 7,-0.00119468,-0.00099707,0.00005999,-0.00373321,-0.01148424,0.0003764
 3,0.00009616,0.00017738,-0.00030092,0.00030056,0.00007333,0.00028734,-
 0.04722900,0.03344270,0.00615742,0.00420000,0.00078396,-0.00047170,0.0
 0468668,0.00061467,0.00019458,-0.16516070,0.07315732,0.01762439,0.3055
 5841,-0.00070614,-0.00007933,0.00025650,0.00015892,0.00005316,-0.00003
 371,0.00020446,0.00009484,-0.00000611,-0.00006110,0.00002249,0.0000222
 4,-0.00299141,0.00125729,-0.00057652,-0.00066250,0.00013799,-0.0001670
 6,-0.00056641,0.00016567,0.00035763,-0.01028013,0.01475719,0.00083444,
 -0.00096761,0.00205052,0.00053557,-0.00000701,0.00202811,-0.00187588,0
 .08977248,-0.10991431,-0.02888272,-0.05781372,0.12677622,-0.00016125,0
 .00022426,0.00106548,-0.00020807,-0.00012570,0.00000911,0.00016395,0.0
 0008183,-0.00006365,-0.00009781,-0.00003521,0.00008876,-0.00122621,-0.
 00071111,0.00072121,0.00088934,-0.00056630,0.00023952,-0.00049876,0.00
 039650,0.00019028,0.00291069,0.00267902,-0.00325950,-0.00056770,0.0020
 1872,0.00019922,-0.00032191,-0.00304541,0.00140650,-0.01750637,-0.0084
 7223,-0.03852576,0.15964601,0.12691464,0.43327877,-0.00024733,0.000284
 51,0.00022817,-0.00007072,-0.00003109,0.00002514,0.00003796,0.00003426
 ,-0.00001025,-0.00005062,-0.00009399,0.00003235,-0.00090515,-0.0011513
 9,0.00054570,0.00031967,-0.00022714,0.00004761,-0.00012461,0.00015255,
 0.00009579,-0.00484489,0.00402642,-0.00351293,0.00038189,0.00049738,0.
 00031780,-0.00011353,-0.00070451,0.00052964,-0.02856684,-0.00091514,-0
 .02635887,-0.09629648,-0.01607983,-0.14302191,0.13048066,0.00009711,-0
 .00021242,-0.00019536,-0.00000648,0.00001743,0.00002409,-0.00002736,-0
 .00000938,0.00000768,0.00008358,0.00003719,-0.00000298,0.00027114,0.00
 069634,0.00065840,0.00003557,-0.00002864,-0.00003365,-0.00005045,-0.00
 000615,-0.00011961,-0.00050676,-0.00219115,-0.00114900,0.00026123,0.00
 001145,0.00042142,-0.00067346,0.00019506,0.00041379,0.02791000,-0.0040
 1247,0.02178918,-0.04160210,-0.03734982,-0.11935899,0.01420797,0.04285
 257,0.00017850,-0.00032878,-0.00001146,0.00001986,0.00003937,-0.000028
 50,-0.00000535,0.00000839,0.00000448,0.00013514,0.00006572,-0.00000910
 ,0.00082405,0.00087111,-0.00014992,-0.00010838,0.00005250,-0.00004958,
 -0.00006352,-0.00003028,-0.00001240,-0.00009919,-0.00285725,0.00158562
 ,0.00045317,0.00044649,-0.00017825,-0.00014740,0.00046052,-0.00086237,
 0.01113701,0.00110619,0.01138564,-0.18340563,-0.09737902,-0.39534996,0
 .17108176,0.09754504,0.38367578\\-0.00000338,0.00000203,0.00000116,0.0
 0000027,0.00000248,0.00000154,0.00000134,-0.00000110,0.00000145,-0.000
 00049,-0.00000030,-0.00000141,-0.00000197,-0.00000819,-0.00000107,0.00
 000043,-0.00000327,-0.00000152,-0.00000001,0.00000321,-0.00000158,-0.0
 0002057,0.00001269,-0.00000521,0.00000286,-0.00000342,0.00000198,-0.00
 000030,0.00000213,0.00000104,0.00002171,-0.00002427,-0.00000692,-0.000
 00925,0.00002691,0.00002524,0.00000937,-0.00000891,-0.00001470\\\@


 THE WISE MAN HAS THE POWER TO REASON AWAY
 WHAT A FOOL BELIEVES.
                     - DOOBIE BROTHERS
 Job cpu time:  0 days  0 hours  3 minutes 35.0 seconds.
 File lengths (MBytes):  RWF=     18 Int=      0 D2E=      0 Chk=      2 Scr=      1
 Normal termination of Gaussian 09 at Sun Aug 23 11:16:44 2015.
