 Entering Gaussian System, Link 0=/share/apps/g09/g09
 Input=C3H7OOH_2_1_opt_631gd.gjf
 Output=C3H7OOH_2_1_opt_631gd.log
 Initial command:
 /share/apps/g09/l1.exe /state/partition1/Gau-25083.inp -scrdir=/state/partition1/
 Entering Link 1 = /share/apps/g09/l1.exe PID=     25086.
  
 Copyright (c) 1988,1990,1992,1993,1995,1998,2003,2009, Gaussian, Inc.
                  All Rights Reserved.
  
 This is part of the Gaussian(R) 09 program.  It is based on
 the Gaussian(R) 03 system (copyright 2003, Gaussian, Inc.),
 the Gaussian(R) 98 system (copyright 1998, Gaussian, Inc.),
 the Gaussian(R) 94 system (copyright 1995, Gaussian, Inc.),
 the Gaussian 92(TM) system (copyright 1992, Gaussian, Inc.),
 the Gaussian 90(TM) system (copyright 1990, Gaussian, Inc.),
 the Gaussian 88(TM) system (copyright 1988, Gaussian, Inc.),
 the Gaussian 86(TM) system (copyright 1986, Carnegie Mellon
 University), and the Gaussian 82(TM) system (copyright 1983,
 Carnegie Mellon University). Gaussian is a federally registered
 trademark of Gaussian, Inc.
  
 This software contains proprietary and confidential information,
 including trade secrets, belonging to Gaussian, Inc.
  
 This software is provided under written license and may be
 used, copied, transmitted, or stored only in accord with that
 written license.
  
 The following legend is applicable only to US Government
 contracts under FAR:
  
                    RESTRICTED RIGHTS LEGEND
  
 Use, reproduction and disclosure by the US Government is
 subject to restrictions as set forth in subparagraphs (a)
 and (c) of the Commercial Computer Software - Restricted
 Rights clause in FAR 52.227-19.
  
 Gaussian, Inc.
 340 Quinnipiac St., Bldg. 40, Wallingford CT 06492
  
  
 ---------------------------------------------------------------
 Warning -- This program may not be used in any manner that
 competes with the business of Gaussian, Inc. or will provide
 assistance to any competitor of Gaussian, Inc.  The licensee
 of this program is prohibited from giving any competitor of
 Gaussian, Inc. access to this program.  By using this program,
 the user acknowledges that Gaussian, Inc. is engaged in the
 business of creating and licensing software in the field of
 computational chemistry and represents and warrants to the
 licensee that it is not a competitor of Gaussian, Inc. and that
 it will not use this program in any manner prohibited above.
 ---------------------------------------------------------------
  

 Cite this work as:
 Gaussian 09, Revision A.01,
 M. J. Frisch, G. W. Trucks, H. B. Schlegel, G. E. Scuseria, 
 M. A. Robb, J. R. Cheeseman, G. Scalmani, V. Barone, B. Mennucci, 
 G. A. Petersson, H. Nakatsuji, M. Caricato, X. Li, H. P. Hratchian, 
 A. F. Izmaylov, J. Bloino, G. Zheng, J. L. Sonnenberg, M. Hada, 
 M. Ehara, K. Toyota, R. Fukuda, J. Hasegawa, M. Ishida, T. Nakajima, 
 Y. Honda, O. Kitao, H. Nakai, T. Vreven, J. A. Montgomery, Jr., 
 J. E. Peralta, F. Ogliaro, M. Bearpark, J. J. Heyd, E. Brothers, 
 K. N. Kudin, V. N. Staroverov, R. Kobayashi, J. Normand, 
 K. Raghavachari, A. Rendell, J. C. Burant, S. S. Iyengar, J. Tomasi, 
 M. Cossi, N. Rega, J. M. Millam, M. Klene, J. E. Knox, J. B. Cross, 
 V. Bakken, C. Adamo, J. Jaramillo, R. Gomperts, R. E. Stratmann, 
 O. Yazyev, A. J. Austin, R. Cammi, C. Pomelli, J. W. Ochterski, 
 R. L. Martin, K. Morokuma, V. G. Zakrzewski, G. A. Voth, 
 P. Salvador, J. J. Dannenberg, S. Dapprich, A. D. Daniels, 
 O. Farkas, J. B. Foresman, J. V. Ortiz, J. Cioslowski, 
 and D. J. Fox, Gaussian, Inc., Wallingford CT, 2009.
 
 ******************************************
 Gaussian 09:  EM64L-G09RevA.01  8-May-2009
                22-Aug-2015 
 ******************************************
 %mem=28GB
 %nprocshared=12
 Will use up to   12 processors via shared memory.
 %chk=C3H7OOH_2_1_opt_631gd.chk
 --------------------------
 #p b3lyp/6-31g(d) opt freq
 --------------------------
 1/14=-1,18=20,19=15,26=3,38=1/1,3;
 2/9=110,12=2,17=6,18=5,40=1/2;
 3/5=1,6=6,7=1,11=2,16=1,25=1,30=1,71=1,74=-5/1,2,3;
 4//1;
 5/5=2,38=5/2;
 6/7=2,8=2,9=2,10=2,28=1/1;
 7//1,2,3,16;
 1/14=-1,18=20,19=15/3(2);
 2/9=110/2;
 99//99;
 2/9=110/2;
 3/5=1,6=6,7=1,11=2,16=1,25=1,30=1,71=1,74=-5/1,2,3;
 4/5=5,16=3/1;
 5/5=2,38=5/2;
 7//1,2,3,16;
 1/14=-1,18=20,19=15/3(-5);
 2/9=110/2;
 6/7=2,8=2,9=2,10=2,19=2,28=1/1;
 99/9=1/99;
 Leave Link    1 at Sat Aug 22 22:05:30 2015, MaxMem= 3758096384 cpu:       0.7
 (Enter /share/apps/g09/l101.exe)
 -----------------------------
 using ub3lyp/6-31G(d) to scan
 -----------------------------
 Symbolic Z-matrix:
 Charge =  0 Multiplicity = 1
 C                    -2.57292  -0.54167   0. 
 H                    -2.21626  -1.55048   0. 
 H                    -2.21624  -0.03727  -0.87365 
 H                    -3.64292  -0.54165   0. 
 C                    -2.05957   0.18429   1.2574 
 H                    -2.41641  -0.32      2.13106 
 C                    -0.51957   0.18403   1.25755 
 H                    -0.16274   0.68828   0.38388 
 H                    -0.1629    0.68846   2.13118 
 H                    -0.16308  -0.82484   1.25768 
 O                    -2.53601   1.53259   1.25727 
 O                    -3.27148   1.74013   2.33357 
 H                    -3.59086   2.64545   2.33377 
 
 NAtoms=     13 NQM=     13 NQMF=      0 NMic=      0 NMicF=      0 NTot=     13.
                    Isotopes and Nuclear Properties:
 (Nuclear quadrupole moments (NQMom) in fm**2, nuclear magnetic moments (NMagM)
  in nuclear magnetons)

  Atom         1           2           3           4           5           6           7           8           9          10
 IAtWgt=          12           1           1           1          12           1          12           1           1           1
 AtmWgt=  12.0000000   1.0078250   1.0078250   1.0078250  12.0000000   1.0078250  12.0000000   1.0078250   1.0078250   1.0078250
 NucSpn=           0           1           1           1           0           1           0           1           1           1
 AtZEff=   0.0000000   0.0000000   0.0000000   0.0000000   0.0000000   0.0000000   0.0000000   0.0000000   0.0000000   0.0000000
 NQMom=    0.0000000   0.0000000   0.0000000   0.0000000   0.0000000   0.0000000   0.0000000   0.0000000   0.0000000   0.0000000
 NMagM=    0.0000000   2.7928460   2.7928460   2.7928460   0.0000000   2.7928460   0.0000000   2.7928460   2.7928460   2.7928460

  Atom        11          12          13
 IAtWgt=          16          16           1
 AtmWgt=  15.9949146  15.9949146   1.0078250
 NucSpn=           0           0           1
 AtZEff=   0.0000000   0.0000000   0.0000000
 NQMom=    0.0000000   0.0000000   0.0000000
 NMagM=    0.0000000   0.0000000   2.7928460
 Leave Link  101 at Sat Aug 22 22:05:32 2015, MaxMem= 3758096384 cpu:       0.6
 (Enter /share/apps/g09/l103.exe)

 GradGradGradGradGradGradGradGradGradGradGradGradGradGradGradGradGradGrad
 Berny optimization.
 Initialization pass.
                           ----------------------------
                           !    Initial Parameters    !
                           ! (Angstroms and Degrees)  !
 --------------------------                            --------------------------
 ! Name  Definition              Value          Derivative Info.                !
 --------------------------------------------------------------------------------
 ! R1    R(1,2)                  1.07           estimate D2E/DX2                !
 ! R2    R(1,3)                  1.07           estimate D2E/DX2                !
 ! R3    R(1,4)                  1.07           estimate D2E/DX2                !
 ! R4    R(1,5)                  1.54           estimate D2E/DX2                !
 ! R5    R(5,6)                  1.07           estimate D2E/DX2                !
 ! R6    R(5,7)                  1.54           estimate D2E/DX2                !
 ! R7    R(5,11)                 1.43           estimate D2E/DX2                !
 ! R8    R(7,8)                  1.07           estimate D2E/DX2                !
 ! R9    R(7,9)                  1.07           estimate D2E/DX2                !
 ! R10   R(7,10)                 1.07           estimate D2E/DX2                !
 ! R11   R(11,12)                1.32           estimate D2E/DX2                !
 ! R12   R(12,13)                0.96           estimate D2E/DX2                !
 ! A1    A(2,1,3)              109.4712         estimate D2E/DX2                !
 ! A2    A(2,1,4)              109.4712         estimate D2E/DX2                !
 ! A3    A(2,1,5)              109.4712         estimate D2E/DX2                !
 ! A4    A(3,1,4)              109.4712         estimate D2E/DX2                !
 ! A5    A(3,1,5)              109.4713         estimate D2E/DX2                !
 ! A6    A(4,1,5)              109.4712         estimate D2E/DX2                !
 ! A7    A(1,5,6)              109.4712         estimate D2E/DX2                !
 ! A8    A(1,5,7)              109.4712         estimate D2E/DX2                !
 ! A9    A(1,5,11)             109.4712         estimate D2E/DX2                !
 ! A10   A(6,5,7)              109.4712         estimate D2E/DX2                !
 ! A11   A(6,5,11)             109.4712         estimate D2E/DX2                !
 ! A12   A(7,5,11)             109.4713         estimate D2E/DX2                !
 ! A13   A(5,7,8)              109.4712         estimate D2E/DX2                !
 ! A14   A(5,7,9)              109.4712         estimate D2E/DX2                !
 ! A15   A(5,7,10)             109.4712         estimate D2E/DX2                !
 ! A16   A(8,7,9)              109.4713         estimate D2E/DX2                !
 ! A17   A(8,7,10)             109.4712         estimate D2E/DX2                !
 ! A18   A(9,7,10)             109.4712         estimate D2E/DX2                !
 ! A19   A(5,11,12)            109.5            estimate D2E/DX2                !
 ! A20   A(11,12,13)           109.5            estimate D2E/DX2                !
 ! D1    D(2,1,5,6)            -60.0111         estimate D2E/DX2                !
 ! D2    D(2,1,5,7)             59.9889         estimate D2E/DX2                !
 ! D3    D(2,1,5,11)           179.9889         estimate D2E/DX2                !
 ! D4    D(3,1,5,6)            179.9889         estimate D2E/DX2                !
 ! D5    D(3,1,5,7)            -60.0111         estimate D2E/DX2                !
 ! D6    D(3,1,5,11)            59.9889         estimate D2E/DX2                !
 ! D7    D(4,1,5,6)             59.9889         estimate D2E/DX2                !
 ! D8    D(4,1,5,7)            179.9889         estimate D2E/DX2                !
 ! D9    D(4,1,5,11)           -60.0111         estimate D2E/DX2                !
 ! D10   D(1,5,7,8)             59.9979         estimate D2E/DX2                !
 ! D11   D(1,5,7,9)            179.9979         estimate D2E/DX2                !
 ! D12   D(1,5,7,10)           -60.0021         estimate D2E/DX2                !
 ! D13   D(6,5,7,8)            179.9979         estimate D2E/DX2                !
 ! D14   D(6,5,7,9)            -60.0021         estimate D2E/DX2                !
 ! D15   D(6,5,7,10)            59.9979         estimate D2E/DX2                !
 ! D16   D(11,5,7,8)           -60.0021         estimate D2E/DX2                !
 ! D17   D(11,5,7,9)            59.9979         estimate D2E/DX2                !
 ! D18   D(11,5,7,10)          179.9979         estimate D2E/DX2                !
 ! D19   D(1,5,11,12)          119.8889         estimate D2E/DX2                !
 ! D20   D(6,5,11,12)           -0.1111         estimate D2E/DX2                !
 ! D21   D(7,5,11,12)         -120.1111         estimate D2E/DX2                !
 ! D22   D(5,11,12,13)         179.9634         estimate D2E/DX2                !
 --------------------------------------------------------------------------------
 Trust Radius=3.00D-01 FncErr=1.00D-07 GrdErr=1.00D-06
 Number of steps in this run=  64 maximum allowed number of steps= 100.
 GradGradGradGradGradGradGradGradGradGradGradGradGradGradGradGradGradGrad

 Leave Link  103 at Sat Aug 22 22:05:32 2015, MaxMem= 3758096384 cpu:       0.1
 (Enter /share/apps/g09/l202.exe)
                          Input orientation:                          
 ---------------------------------------------------------------------
 Center     Atomic      Atomic             Coordinates (Angstroms)
 Number     Number       Type             X           Y           Z
 ---------------------------------------------------------------------
      1          6           0       -2.572917   -0.541667    0.000000
      2          1           0       -2.216262   -1.550477    0.000000
      3          1           0       -2.216244   -0.037268   -0.873652
      4          1           0       -3.642917   -0.541653    0.000000
      5          6           0       -2.059575    0.184290    1.257405
      6          1           0       -2.416407   -0.319996    2.131056
      7          6           0       -0.519575    0.184027    1.257545
      8          1           0       -0.162743    0.688280    0.383875
      9          1           0       -0.162902    0.688457    2.131178
     10          1           0       -0.163080   -0.824840    1.257680
     11          8           0       -2.536012    1.532588    1.257275
     12          8           0       -3.271481    1.740130    2.333570
     13          1           0       -3.590855    2.645448    2.333772
 ---------------------------------------------------------------------
                    Distance matrix (angstroms):
                    1          2          3          4          5
     1  C    0.000000
     2  H    1.070000   0.000000
     3  H    1.070000   1.747302   0.000000
     4  H    1.070000   1.747303   1.747303   0.000000
     5  C    1.540000   2.148263   2.148263   2.148263   0.000000
     6  H    2.148263   2.468915   3.024611   2.468777   1.070000
     7  C    2.514809   2.732887   2.733068   3.444314   1.540000
     8  H    2.732960   3.062080   2.514888   3.711025   2.148263
     9  H    3.444314   3.710935   3.711050   4.262112   2.148263
    10  H    2.732995   2.514730   3.062405   3.710959   2.148263
    11  O    2.425826   3.344886   2.665998   2.666168   1.430000
    12  O    3.337684   4.169787   3.815618   3.284821   2.246661
    13  H    4.079264   4.994175   4.401601   3.950547   3.092036
                    6          7          8          9         10
     6  H    0.000000
     7  C    2.148263   0.000000
     8  H    3.024610   1.070000   0.000000
     9  H    2.468859   1.070000   1.747303   0.000000
    10  H    2.468833   1.070000   1.747303   1.747303   0.000000
    11  O    2.051796   2.425827   2.666100   2.666067   3.344887
    12  O    2.239706   3.339502   3.817323   3.287893   4.171183
    13  H    3.195979   4.080395   4.402790   3.952432   4.995049
                   11         12         13
    11  O    0.000000
    12  O    1.320000   0.000000
    13  H    1.873499   0.960000   0.000000
 Stoichiometry    C3H8O2
 Framework group  C1[X(C3H8O2)]
 Deg. of freedom    33
 Full point group                 C1      NOp   1
 Largest Abelian subgroup         C1      NOp   1
 Largest concise Abelian subgroup C1      NOp   1
                         Standard orientation:                         
 ---------------------------------------------------------------------
 Center     Atomic      Atomic             Coordinates (Angstroms)
 Number     Number       Type             X           Y           Z
 ---------------------------------------------------------------------
      1          6           0        1.178914    1.258181    0.022989
      2          1           0        2.064470    1.259154   -0.577586
      3          1           0        1.449957    1.258390    1.058091
      4          1           0        0.599699    2.131241   -0.194210
      5          6           0        0.347915   -0.000073   -0.289801
      6          1           0        0.076709   -0.000184   -1.324860
      7          6           0        1.181652   -1.256627    0.022541
      8          1           0        1.452889   -1.256496    1.057592
      9          1           0        0.604256   -2.130868   -0.194752
     10          1           0        2.067094   -1.255574   -0.578201
     11          8           0       -0.835457   -0.001504    0.513024
     12          8           0       -1.898652   -0.000109   -0.269289
     13          1           0       -2.693084   -0.001648    0.269669
 ---------------------------------------------------------------------
 Rotational constants (GHZ):      7.8104075      3.7316333      2.8444553
 Leave Link  202 at Sat Aug 22 22:05:32 2015, MaxMem= 3758096384 cpu:       0.1
 (Enter /share/apps/g09/l301.exe)
 Standard basis: 6-31G(d) (6D, 7F)
 Ernie: Thresh=  0.10000D-02 Tol=  0.10000D-05 Strict=F.
 There are    91 symmetry adapted basis functions of A   symmetry.
 Integral buffers will be    131072 words long.
 Raffenetti 2 integral format.
 Two-electron integral symmetry is turned on.
    91 basis functions,   172 primitive gaussians,    91 cartesian basis functions
    21 alpha electrons       21 beta electrons
       nuclear repulsion energy       196.5706715159 Hartrees.
 IExCor=  402 DFT=T Ex+Corr=B3LYP ExCW=0 ScaHFX=  0.200000
 ScaDFX=  0.800000  0.720000  1.000000  0.810000 ScalE2=  1.000000  1.000000
 IRadAn=      0 IRanWt=     -1 IRanGd=            0 ICorTp=0
 NAtoms=   13 NActive=   13 NUniq=   13 SFac= 7.50D-01 NAtFMM=   80 NAOKFM=F Big=F
 Leave Link  301 at Sat Aug 22 22:05:33 2015, MaxMem= 3758096384 cpu:       0.6
 (Enter /share/apps/g09/l302.exe)
 NPDir=0 NMtPBC=     1 NCelOv=     1 NCel=       1 NClECP=     1 NCelD=      1
         NCelK=      1 NCelE2=     1 NClLst=     1 CellRange=     0.0.
 One-electron integrals computed using PRISM.
 NBasis=    91 RedAO= T  NBF=    91
 NBsUse=    91 1.00D-06 NBFU=    91
 Precomputing XC quadrature grid using
 IXCGrd= 2 IRadAn=           0 IRanWt=          -1 IRanGd=           0 AccXCQ= 1.00D-10.
 NRdTot=     808 NPtTot=      102508 NUsed=      108346 NTot=      108378
 NSgBfM=    91    91    91    91    91 NAtAll=    13    13.
 Leave Link  302 at Sat Aug 22 22:05:33 2015, MaxMem= 3758096384 cpu:       2.7
 (Enter /share/apps/g09/l303.exe)
 DipDrv:  MaxL=1.
 Leave Link  303 at Sat Aug 22 22:05:34 2015, MaxMem= 3758096384 cpu:       0.3
 (Enter /share/apps/g09/l401.exe)
 Harris functional with IExCor=  402 diagonalized for initial guess.
 ExpMin= 1.61D-01 ExpMax= 5.48D+03 ExpMxC= 8.25D+02 IAcc=1 IRadAn=         1 AccDes= 0.00D+00
 HarFok:  IExCor=  402 AccDes= 0.00D+00 IRadAn=         1 IDoV= 1
 ScaDFX=  1.000000  1.000000  1.000000  1.000000
 FoFCou: FMM=F IPFlag=           0 FMFlag=      100000 FMFlg1=           0
         NFxFlg=           0 DoJE=T BraDBF=F KetDBF=T FulRan=T
         Omega=  0.000000  0.000000  1.000000  0.000000  0.000000 ICntrl=     500 IOpCl=  0
         NMat0=    1 NMatS0=    1 NMatT0=    0 NMatD0=    1 NMtDS0=    0 NMtDT0=    0
         I1Cent=           4 NGrid=           0.
 Petite list used in FoFCou.
 Harris En= -269.535459547571    
 Initial guess orbital symmetries:
       Occupied  (A) (A) (A) (A) (A) (A) (A) (A) (A) (A) (A) (A)
                 (A) (A) (A) (A) (A) (A) (A) (A) (A)
       Virtual   (A) (A) (A) (A) (A) (A) (A) (A) (A) (A) (A) (A)
                 (A) (A) (A) (A) (A) (A) (A) (A) (A) (A) (A) (A)
                 (A) (A) (A) (A) (A) (A) (A) (A) (A) (A) (A) (A)
                 (A) (A) (A) (A) (A) (A) (A) (A) (A) (A) (A) (A)
                 (A) (A) (A) (A) (A) (A) (A) (A) (A) (A) (A) (A)
                 (A) (A) (A) (A) (A) (A) (A) (A) (A) (A)
 The electronic state of the initial guess is 1-A.
 Leave Link  401 at Sat Aug 22 22:05:34 2015, MaxMem= 3758096384 cpu:       3.1
 (Enter /share/apps/g09/l502.exe)
 Closed shell SCF:
 Requested convergence on RMS density matrix=1.00D-08 within 128 cycles.
 Requested convergence on MAX density matrix=1.00D-06.
 Requested convergence on             energy=1.00D-06.
 No special actions if energy rises.
 Using DIIS extrapolation, IDIIS=  1040.
 Integral symmetry usage will be decided dynamically.
       108216 words used for storage of precomputed grid.
 Keep R1 ints in memory in canonical form, NReq=9826087.
 IEnd=      152996 IEndB=      152996 NGot=  3758096384 MDV=  3749204982
 LenX=  3749204982 LenY=  3749196260
 Symmetry not used in FoFDir.
 MinBra= 0 MaxBra= 2 Meth= 1.
 IRaf=       0 NMat=   1 IRICut=       1 DoRegI=T DoRafI=F ISym2E= 0 JSym2E=0.
 Integral accuracy reduced to 1.0D-05 until final iterations.

 Cycle   1  Pass 0  IDiag  1:
 E= -269.284527164213    
 DIIS: error= 6.09D-02 at cycle   1 NSaved=   1.
 NSaved= 1 IEnMin= 1 EnMin= -269.284527164213     IErMin= 1 ErrMin= 6.09D-02
 ErrMax= 6.09D-02 EMaxC= 1.00D-01 BMatC= 1.73D-01 BMatP= 1.73D-01
 IDIUse=3 WtCom= 3.91D-01 WtEn= 6.09D-01
 Coeff-Com:  0.100D+01
 Coeff-En:   0.100D+01
 Coeff:      0.100D+01
 Gap=     0.291 Goal=   None    Shift=    0.000
 GapD=    0.291 DampG=1.000 DampE=0.500 DampFc=0.5000 IDamp=-1.
 Damping current iteration by 5.00D-01
 RMSDP=8.83D-03 MaxDP=1.43D-01              OVMax= 1.71D-01

 Cycle   2  Pass 0  IDiag  1:
 E= -269.366879220072     Delta-E=       -0.082352055860 Rises=F Damp=T
 DIIS: error= 8.98D-03 at cycle   2 NSaved=   2.
 NSaved= 2 IEnMin= 2 EnMin= -269.366879220072     IErMin= 2 ErrMin= 8.98D-03
 ErrMax= 8.98D-03 EMaxC= 1.00D-01 BMatC= 6.60D-03 BMatP= 1.73D-01
 IDIUse=3 WtCom= 9.10D-01 WtEn= 8.98D-02
 Coeff-Com:  0.427D-01 0.957D+00
 Coeff-En:   0.624D-01 0.938D+00
 Coeff:      0.445D-01 0.956D+00
 Gap=     0.279 Goal=   None    Shift=    0.000
 RMSDP=1.21D-03 MaxDP=1.87D-02 DE=-8.24D-02 OVMax= 8.87D-02

 Cycle   3  Pass 0  IDiag  1:
 E= -269.458177170122     Delta-E=       -0.091297950050 Rises=F Damp=F
 DIIS: error= 3.48D-03 at cycle   3 NSaved=   3.
 NSaved= 3 IEnMin= 3 EnMin= -269.458177170122     IErMin= 3 ErrMin= 3.48D-03
 ErrMax= 3.48D-03 EMaxC= 1.00D-01 BMatC= 1.91D-03 BMatP= 6.60D-03
 IDIUse=3 WtCom= 9.65D-01 WtEn= 3.48D-02
 Coeff-Com: -0.238D-02 0.311D+00 0.691D+00
 Coeff-En:   0.000D+00 0.000D+00 0.100D+01
 Coeff:     -0.230D-02 0.300D+00 0.702D+00
 Gap=     0.281 Goal=   None    Shift=    0.000
 RMSDP=5.94D-04 MaxDP=1.47D-02 DE=-9.13D-02 OVMax= 1.43D-02

 Cycle   4  Pass 0  IDiag  1:
 E= -269.458721272745     Delta-E=       -0.000544102623 Rises=F Damp=F
 DIIS: error= 2.84D-03 at cycle   4 NSaved=   4.
 NSaved= 4 IEnMin= 4 EnMin= -269.458721272745     IErMin= 4 ErrMin= 2.84D-03
 ErrMax= 2.84D-03 EMaxC= 1.00D-01 BMatC= 1.15D-03 BMatP= 1.91D-03
 IDIUse=3 WtCom= 9.72D-01 WtEn= 2.84D-02
 Coeff-Com: -0.347D-02 0.721D-01 0.441D+00 0.491D+00
 Coeff-En:   0.000D+00 0.000D+00 0.385D+00 0.615D+00
 Coeff:     -0.337D-02 0.701D-01 0.439D+00 0.494D+00
 Gap=     0.277 Goal=   None    Shift=    0.000
 RMSDP=2.86D-04 MaxDP=6.86D-03 DE=-5.44D-04 OVMax= 7.18D-03

 Cycle   5  Pass 0  IDiag  1:
 E= -269.459495302402     Delta-E=       -0.000774029657 Rises=F Damp=F
 DIIS: error= 3.20D-04 at cycle   5 NSaved=   5.
 NSaved= 5 IEnMin= 5 EnMin= -269.459495302402     IErMin= 5 ErrMin= 3.20D-04
 ErrMax= 3.20D-04 EMaxC= 1.00D-01 BMatC= 1.57D-05 BMatP= 1.15D-03
 IDIUse=3 WtCom= 9.97D-01 WtEn= 3.20D-03
 Coeff-Com:  0.986D-04 0.152D-02 0.100D+00 0.172D+00 0.726D+00
 Coeff-En:   0.000D+00 0.000D+00 0.000D+00 0.000D+00 0.100D+01
 Coeff:      0.982D-04 0.152D-02 0.100D+00 0.171D+00 0.727D+00
 Gap=     0.276 Goal=   None    Shift=    0.000
 RMSDP=4.47D-05 MaxDP=7.56D-04 DE=-7.74D-04 OVMax= 7.80D-04

 Cycle   6  Pass 0  IDiag  1:
 E= -269.459506887139     Delta-E=       -0.000011584737 Rises=F Damp=F
 DIIS: error= 1.07D-04 at cycle   6 NSaved=   6.
 NSaved= 6 IEnMin= 6 EnMin= -269.459506887139     IErMin= 6 ErrMin= 1.07D-04
 ErrMax= 1.07D-04 EMaxC= 1.00D-01 BMatC= 1.55D-06 BMatP= 1.57D-05
 IDIUse=3 WtCom= 9.99D-01 WtEn= 1.07D-03
 Coeff-Com:  0.245D-03-0.132D-02 0.424D-01 0.790D-01 0.392D+00 0.487D+00
 Coeff-En:   0.000D+00 0.000D+00 0.000D+00 0.000D+00 0.000D+00 0.100D+01
 Coeff:      0.245D-03-0.132D-02 0.423D-01 0.789D-01 0.392D+00 0.488D+00
 Gap=     0.277 Goal=   None    Shift=    0.000
 RMSDP=1.16D-05 MaxDP=2.41D-04 DE=-1.16D-05 OVMax= 2.62D-04

 Cycle   7  Pass 0  IDiag  1:
 E= -269.459508061963     Delta-E=       -0.000001174824 Rises=F Damp=F
 DIIS: error= 1.33D-05 at cycle   7 NSaved=   7.
 NSaved= 7 IEnMin= 7 EnMin= -269.459508061963     IErMin= 7 ErrMin= 1.33D-05
 ErrMax= 1.33D-05 EMaxC= 1.00D-01 BMatC= 2.56D-08 BMatP= 1.55D-06
 IDIUse=1 WtCom= 1.00D+00 WtEn= 0.00D+00
 Coeff-Com:  0.103D-03-0.566D-03 0.662D-02 0.128D-01 0.744D-01 0.159D+00
 Coeff-Com:  0.747D+00
 Coeff:      0.103D-03-0.566D-03 0.662D-02 0.128D-01 0.744D-01 0.159D+00
 Coeff:      0.747D+00
 Gap=     0.277 Goal=   None    Shift=    0.000
 RMSDP=1.81D-06 MaxDP=1.78D-05 DE=-1.17D-06 OVMax= 3.21D-05

 Initial convergence to 1.0D-05 achieved.  Increase integral accuracy.
 Cycle   8  Pass 1  IDiag  1:
 E= -269.459517707941     Delta-E=       -0.000009645978 Rises=F Damp=F
 DIIS: error= 1.30D-05 at cycle   1 NSaved=   1.
 NSaved= 1 IEnMin= 1 EnMin= -269.459517707941     IErMin= 1 ErrMin= 1.30D-05
 ErrMax= 1.30D-05 EMaxC= 1.00D-01 BMatC= 2.62D-08 BMatP= 2.62D-08
 IDIUse=1 WtCom= 1.00D+00 WtEn= 0.00D+00
 Coeff-Com:  0.100D+01
 Coeff:      0.100D+01
 Gap=     0.277 Goal=   None    Shift=    0.000
 RMSDP=1.81D-06 MaxDP=1.78D-05 DE=-9.65D-06 OVMax= 4.97D-05

 Cycle   9  Pass 1  IDiag  1:
 E= -269.459517739660     Delta-E=       -0.000000031719 Rises=F Damp=F
 DIIS: error= 2.91D-06 at cycle   2 NSaved=   2.
 NSaved= 2 IEnMin= 2 EnMin= -269.459517739660     IErMin= 2 ErrMin= 2.91D-06
 ErrMax= 2.91D-06 EMaxC= 1.00D-01 BMatC= 1.96D-09 BMatP= 2.62D-08
 IDIUse=1 WtCom= 1.00D+00 WtEn= 0.00D+00
 Coeff-Com:  0.701D-01 0.930D+00
 Coeff:      0.701D-01 0.930D+00
 Gap=     0.277 Goal=   None    Shift=    0.000
 RMSDP=9.33D-07 MaxDP=1.66D-05 DE=-3.17D-08 OVMax= 1.91D-05

 Cycle  10  Pass 1  IDiag  1:
 E= -269.459517739319     Delta-E=        0.000000000340 Rises=F Damp=F
 DIIS: error= 3.36D-06 at cycle   3 NSaved=   3.
 NSaved= 3 IEnMin= 2 EnMin= -269.459517739660     IErMin= 2 ErrMin= 2.91D-06
 ErrMax= 3.36D-06 EMaxC= 1.00D-01 BMatC= 2.56D-09 BMatP= 1.96D-09
 IDIUse=1 WtCom= 1.00D+00 WtEn= 0.00D+00
 Coeff-Com: -0.224D-01 0.543D+00 0.479D+00
 Coeff:     -0.224D-01 0.543D+00 0.479D+00
 Gap=     0.277 Goal=   None    Shift=    0.000
 RMSDP=4.50D-07 MaxDP=8.73D-06 DE= 3.40D-10 OVMax= 1.01D-05

 Cycle  11  Pass 1  IDiag  1:
 E= -269.459517741331     Delta-E=       -0.000000002012 Rises=F Damp=F
 DIIS: error= 5.01D-07 at cycle   4 NSaved=   4.
 NSaved= 4 IEnMin= 4 EnMin= -269.459517741331     IErMin= 4 ErrMin= 5.01D-07
 ErrMax= 5.01D-07 EMaxC= 1.00D-01 BMatC= 3.99D-11 BMatP= 1.96D-09
 IDIUse=1 WtCom= 1.00D+00 WtEn= 0.00D+00
 Coeff-Com: -0.121D-01 0.219D+00 0.216D+00 0.577D+00
 Coeff:     -0.121D-01 0.219D+00 0.216D+00 0.577D+00
 Gap=     0.277 Goal=   None    Shift=    0.000
 RMSDP=6.48D-08 MaxDP=1.39D-06 DE=-2.01D-09 OVMax= 1.48D-06

 Cycle  12  Pass 1  IDiag  1:
 E= -269.459517741356     Delta-E=       -0.000000000024 Rises=F Damp=F
 DIIS: error= 2.29D-07 at cycle   5 NSaved=   5.
 NSaved= 5 IEnMin= 5 EnMin= -269.459517741356     IErMin= 5 ErrMin= 2.29D-07
 ErrMax= 2.29D-07 EMaxC= 1.00D-01 BMatC= 6.55D-12 BMatP= 3.99D-11
 IDIUse=1 WtCom= 1.00D+00 WtEn= 0.00D+00
 Coeff-Com: -0.443D-02 0.706D-01 0.751D-01 0.328D+00 0.531D+00
 Coeff:     -0.443D-02 0.706D-01 0.751D-01 0.328D+00 0.531D+00
 Gap=     0.277 Goal=   None    Shift=    0.000
 RMSDP=2.39D-08 MaxDP=4.88D-07 DE=-2.42D-11 OVMax= 5.35D-07

 Cycle  13  Pass 1  IDiag  1:
 E= -269.459517741361     Delta-E=       -0.000000000006 Rises=F Damp=F
 DIIS: error= 3.95D-08 at cycle   6 NSaved=   6.
 NSaved= 6 IEnMin= 6 EnMin= -269.459517741361     IErMin= 6 ErrMin= 3.95D-08
 ErrMax= 3.95D-08 EMaxC= 1.00D-01 BMatC= 1.98D-13 BMatP= 6.55D-12
 IDIUse=1 WtCom= 1.00D+00 WtEn= 0.00D+00
 Coeff-Com: -0.322D-03 0.705D-03 0.314D-02 0.577D-01 0.192D+00 0.747D+00
 Coeff:     -0.322D-03 0.705D-03 0.314D-02 0.577D-01 0.192D+00 0.747D+00
 Gap=     0.277 Goal=   None    Shift=    0.000
 RMSDP=5.38D-09 MaxDP=7.57D-08 DE=-5.68D-12 OVMax= 1.06D-07

 SCF Done:  E(RB3LYP) =  -269.459517741     A.U. after   13 cycles
             Convg  =    0.5381D-08             -V/T =  2.0071
 KE= 2.675573292403D+02 PE=-1.023821598475D+03 EE= 2.902340799771D+02
 Leave Link  502 at Sat Aug 22 22:05:39 2015, MaxMem= 3758096384 cpu:      43.3
 (Enter /share/apps/g09/l601.exe)
 Copying SCF densities to generalized density rwf, IOpCl= 0 IROHF=0.

 **********************************************************************

            Population analysis using the SCF density.

 **********************************************************************

 Orbital symmetries:
       Occupied  (A) (A) (A) (A) (A) (A) (A) (A) (A) (A) (A) (A)
                 (A) (A) (A) (A) (A) (A) (A) (A) (A)
       Virtual   (A) (A) (A) (A) (A) (A) (A) (A) (A) (A) (A) (A)
                 (A) (A) (A) (A) (A) (A) (A) (A) (A) (A) (A) (A)
                 (A) (A) (A) (A) (A) (A) (A) (A) (A) (A) (A) (A)
                 (A) (A) (A) (A) (A) (A) (A) (A) (A) (A) (A) (A)
                 (A) (A) (A) (A) (A) (A) (A) (A) (A) (A) (A) (A)
                 (A) (A) (A) (A) (A) (A) (A) (A) (A) (A)
 The electronic state is 1-A.
 Alpha  occ. eigenvalues --  -19.18184 -19.18014 -10.23056 -10.16482 -10.16478
 Alpha  occ. eigenvalues --   -1.16078  -0.89370  -0.75846  -0.68877  -0.58895
 Alpha  occ. eigenvalues --   -0.55397  -0.47376  -0.44607  -0.44011  -0.39806
 Alpha  occ. eigenvalues --   -0.39149  -0.38034  -0.34375  -0.33374  -0.31240
 Alpha  occ. eigenvalues --   -0.20108
 Alpha virt. eigenvalues --    0.07547   0.10040   0.13445   0.15912   0.16413
 Alpha virt. eigenvalues --    0.16726   0.18962   0.20404   0.20868   0.20971
 Alpha virt. eigenvalues --    0.25568   0.25869   0.50715   0.52689   0.56900
 Alpha virt. eigenvalues --    0.57636   0.58069   0.64521   0.69443   0.70724
 Alpha virt. eigenvalues --    0.76174   0.77958   0.81336   0.86669   0.91052
 Alpha virt. eigenvalues --    0.91827   0.92236   0.93181   0.94260   0.96931
 Alpha virt. eigenvalues --    0.99473   1.00671   1.02580   1.08560   1.09931
 Alpha virt. eigenvalues --    1.10475   1.32898   1.36851   1.40506   1.40934
 Alpha virt. eigenvalues --    1.59886   1.63111   1.67056   1.70029   1.79534
 Alpha virt. eigenvalues --    1.80920   1.84368   1.94792   1.95111   2.03235
 Alpha virt. eigenvalues --    2.09666   2.16767   2.21832   2.22236   2.27741
 Alpha virt. eigenvalues --    2.28713   2.36821   2.44072   2.49532   2.52948
 Alpha virt. eigenvalues --    2.58629   2.72130   2.73336   2.84159   2.99116
 Alpha virt. eigenvalues --    3.60776   3.86427   4.19244   4.30144   4.53973
          Condensed to atoms (all electrons):
              1          2          3          4          5          6
     1  C    5.118635   0.356718   0.376243   0.371059   0.388022  -0.044898
     2  H    0.356718   0.582204  -0.030618  -0.027019  -0.028364  -0.001498
     3  H    0.376243  -0.030618   0.557455  -0.028748  -0.029985   0.005608
     4  H    0.371059  -0.027019  -0.028748   0.552260  -0.027936  -0.002909
     5  C    0.388022  -0.028364  -0.029985  -0.027936   4.726818   0.366700
     6  H   -0.044898  -0.001498   0.005608  -0.002909   0.366700   0.592144
     7  C   -0.076558   0.002393  -0.007589   0.005653   0.388072  -0.044800
     8  H   -0.007598   0.000077   0.005787  -0.000014  -0.029977   0.005609
     9  H    0.005657  -0.000054  -0.000014  -0.000224  -0.027945  -0.002911
    10  H    0.002409  -0.000432   0.000075  -0.000053  -0.028378  -0.001526
    11  O   -0.045012   0.003629  -0.001122   0.000419   0.191989  -0.028563
    12  O    0.002719  -0.000154  -0.000076   0.000815  -0.042147   0.007619
    13  H   -0.000417   0.000007   0.000021  -0.000071   0.005527   0.000029
              7          8          9         10         11         12
     1  C   -0.076558  -0.007598   0.005657   0.002409  -0.045012   0.002719
     2  H    0.002393   0.000077  -0.000054  -0.000432   0.003629  -0.000154
     3  H   -0.007589   0.005787  -0.000014   0.000075  -0.001122  -0.000076
     4  H    0.005653  -0.000014  -0.000224  -0.000053   0.000419   0.000815
     5  C    0.388072  -0.029977  -0.027945  -0.028378   0.191989  -0.042147
     6  H   -0.044800   0.005609  -0.002911  -0.001526  -0.028563   0.007619
     7  C    5.118398   0.376243   0.371029   0.356802  -0.044931   0.002729
     8  H    0.376243   0.557449  -0.028754  -0.030626  -0.001129  -0.000076
     9  H    0.371029  -0.028754   0.552283  -0.027003   0.000447   0.000801
    10  H    0.356802  -0.030626  -0.027003   0.582084   0.003624  -0.000154
    11  O   -0.044931  -0.001129   0.000447   0.003624   8.235241   0.015708
    12  O    0.002729  -0.000076   0.000801  -0.000154   0.015708   8.196022
    13  H   -0.000418   0.000021  -0.000071   0.000007  -0.023228   0.231393
             13
     1  C   -0.000417
     2  H    0.000007
     3  H    0.000021
     4  H   -0.000071
     5  C    0.005527
     6  H    0.000029
     7  C   -0.000418
     8  H    0.000021
     9  H   -0.000071
    10  H    0.000007
    11  O   -0.023228
    12  O    0.231393
    13  H    0.373683
 Mulliken atomic charges:
              1
     1  C   -0.446980
     2  H    0.143110
     3  H    0.152963
     4  H    0.156767
     5  C    0.147604
     6  H    0.149396
     7  C   -0.447022
     8  H    0.152988
     9  H    0.156759
    10  H    0.143170
    11  O   -0.307072
    12  O   -0.415200
    13  H    0.413517
 Sum of Mulliken atomic charges =   0.00000
 Mulliken charges with hydrogens summed into heavy atoms:
              1
     1  C    0.005860
     5  C    0.297000
     7  C    0.005894
    11  O   -0.307072
    12  O   -0.001682
 Sum of Mulliken charges with hydrogens summed into heavy atoms =   0.00000
 Electronic spatial extent (au):  <R**2>=            476.5932
 Charge=              0.0000 electrons
 Dipole moment (field-independent basis, Debye):
    X=             -0.0405    Y=             -0.0016    Z=              0.0597  Tot=              0.0721
 Quadrupole moment (field-independent basis, Debye-Ang):
   XX=            -25.5022   YY=            -31.7023   ZZ=            -31.5436
   XY=              0.0062   XZ=             -2.2086   YZ=              0.0003
 Traceless Quadrupole moment (field-independent basis, Debye-Ang):
   XX=              4.0805   YY=             -2.1196   ZZ=             -1.9610
   XY=              0.0062   XZ=             -2.2086   YZ=              0.0003
 Octapole moment (field-independent basis, Debye-Ang**2):
  XXX=            -35.0933  YYY=             -0.0126  ZZZ=              1.0154  XYY=             -4.6870
  XXY=             -0.0257  XXZ=              6.2357  XZZ=             -2.4352  YZZ=             -0.0015
  YYZ=             -0.0025  XYZ=              0.0019
 Hexadecapole moment (field-independent basis, Debye-Ang**3):
 XXXX=           -258.1381 YYYY=           -195.1754 ZZZZ=            -61.0284 XXXY=              0.0824
 XXXZ=            -19.6850 YYYX=              0.0010 YYYZ=             -0.0013 ZZZX=              0.4151
 ZZZY=             -0.0024 XXYY=            -92.8229 XXZZ=            -64.9221 YYZZ=            -43.7066
 XXYZ=             -0.0124 YYXZ=             -0.5433 ZZXY=              0.0030
 N-N= 1.965706715159D+02 E-N=-1.023821596847D+03  KE= 2.675573292403D+02
 No NMR shielding tensors so no spin-rotation constants.
 Leave Link  601 at Sat Aug 22 22:05:39 2015, MaxMem= 3758096384 cpu:       4.1
 (Enter /share/apps/g09/l701.exe)
 Compute integral first derivatives.
 ... and contract with generalized density number  0.
 Leave Link  701 at Sat Aug 22 22:05:39 2015, MaxMem= 3758096384 cpu:       1.7
 (Enter /share/apps/g09/l702.exe)
 L702 exits ... SP integral derivatives will be done elsewhere.
 Leave Link  702 at Sat Aug 22 22:05:39 2015, MaxMem= 3758096384 cpu:       0.2
 (Enter /share/apps/g09/l703.exe)
 Compute integral first derivatives, UseDBF=F ICtDFT=           0.
 Integral derivatives from FoFDir, PRISM(SPDF).
 Calling FoFJK, ICntrl=      2127 FMM=F ISym2X=0 I1Cent= 0 IOpClX= 0 NMat=1 NMatS=1 NMatT=0.
 FoFCou: FMM=F IPFlag=           0 FMFlag=      100000 FMFlg1=         800
         NFxFlg=           0 DoJE=F BraDBF=F KetDBF=F FulRan=T
         Omega=  0.000000  0.000000  1.000000  0.000000  0.000000 ICntrl=    2127 IOpCl=  0
         NMat0=    1 NMatS0=    1 NMatT0=    0 NMatD0=    1 NMtDS0=    0 NMtDT0=    0
         I1Cent=           0 NGrid=           0.
 Symmetry not used in FoFCou.
 Leave Link  703 at Sat Aug 22 22:05:40 2015, MaxMem= 3758096384 cpu:       8.8
 (Enter /share/apps/g09/l716.exe)
 Dipole        =-1.59266105D-02-6.25334239D-04 2.34798102D-02
 ***** Axes restored to original set *****
 -------------------------------------------------------------------
 Center     Atomic                   Forces (Hartrees/Bohr)
 Number     Number              X              Y              Z
 -------------------------------------------------------------------
      1        6           0.001591678    0.014118743    0.021925815
      2        1           0.005153184   -0.016941373   -0.001789433
      3        1           0.004788126    0.007023604   -0.015466091
      4        1          -0.017443751   -0.001117027   -0.002484345
      5        6           0.014936167   -0.005065447   -0.021532606
      6        1          -0.008307959   -0.003255072    0.015457992
      7        6          -0.025104142    0.004728861    0.005581542
      8        1           0.007730363    0.008058186   -0.013669256
      9        1           0.008371749    0.008008501    0.013322153
     10        1           0.007714707   -0.016029362   -0.000216190
     11        8           0.057293884   -0.000620373   -0.092661596
     12        8          -0.061669402   -0.011460322    0.106755528
     13        1           0.004945395    0.012551082   -0.015223514
 -------------------------------------------------------------------
 Cartesian Forces:  Max     0.106755528 RMS     0.028595802
 Leave Link  716 at Sat Aug 22 22:05:40 2015, MaxMem= 3758096384 cpu:       0.3
 (Enter /share/apps/g09/l103.exe)

 GradGradGradGradGradGradGradGradGradGradGradGradGradGradGradGradGradGrad
 Berny optimization.
 Internal  Forces:  Max     0.106398549 RMS     0.016620092
 Search for a local minimum.
 Step number   1 out of a maximum of   64
 All quantities printed in internal units (Hartrees-Bohrs-Radians)
 RMS Force = .16620D-01 SwitMx=.10000D-02 MixMth= 1
 Mixed Optimization -- RFO/linear search
 Second derivative matrix not updated -- first step.
     Eigenvalues ---    0.00237   0.00237   0.01295   0.02353   0.04530
     Eigenvalues ---    0.04906   0.05720   0.05720   0.05720   0.05720
     Eigenvalues ---    0.06926   0.16000   0.16000   0.16000   0.16000
     Eigenvalues ---    0.16000   0.16000   0.16000   0.16074   0.19695
     Eigenvalues ---    0.25000   0.28519   0.28519   0.37230   0.37230
     Eigenvalues ---    0.37230   0.37230   0.37230   0.37230   0.37230
     Eigenvalues ---    0.40989   0.55473   0.619311000.000001000.00000
     Eigenvalues --- 1000.000001000.000001000.000001000.000001000.00000
     Eigenvalues --- 1000.000001000.000001000.000001000.000001000.00000
     Eigenvalues --- 1000.000001000.000001000.000001000.000001000.00000
     Eigenvalues --- 1000.000001000.000001000.000001000.00000
 RFO step:  Lambda=-3.02090987D-02 EMin= 2.36824061D-03
 Linear search not attempted -- first point.
 Iteration  1 RMS(Cart)=  0.04123703 RMS(Int)=  0.00234015
 Iteration  2 RMS(Cart)=  0.00293000 RMS(Int)=  0.00017421
 Iteration  3 RMS(Cart)=  0.00000461 RMS(Int)=  0.00017417
 Iteration  4 RMS(Cart)=  0.00000000 RMS(Int)=  0.00017417
 Variable       Old X    -DE/DX   Delta X   Delta X   Delta X     New X
                                 (Linear)    (Quad)   (Total)
    R1        2.02201   0.01769   0.00000   0.04395   0.04395   2.06596
    R2        2.02201   0.01753   0.00000   0.04356   0.04356   2.06557
    R3        2.02201   0.01744   0.00000   0.04334   0.04334   2.06535
    R4        2.91018  -0.00127   0.00000  -0.00403  -0.00403   2.90615
    R5        2.02201   0.01693   0.00000   0.04205   0.04205   2.06406
    R6        2.91018  -0.00129   0.00000  -0.00409  -0.00409   2.90609
    R7        2.70231   0.00026   0.00000   0.00060   0.00060   2.70291
    R8        2.02201   0.01753   0.00000   0.04356   0.04356   2.06557
    R9        2.02201   0.01744   0.00000   0.04334   0.04334   2.06534
   R10        2.02201   0.01769   0.00000   0.04394   0.04394   2.06594
   R11        2.49444   0.10640   0.00000   0.16381   0.16381   2.65825
   R12        1.81414   0.01019   0.00000   0.01743   0.01743   1.83156
    A1        1.91063  -0.00199   0.00000  -0.01146  -0.01149   1.89914
    A2        1.91063  -0.00223   0.00000  -0.01051  -0.01062   1.90002
    A3        1.91063   0.00181   0.00000   0.00965   0.00958   1.92021
    A4        1.91063  -0.00250   0.00000  -0.01334  -0.01342   1.89722
    A5        1.91063   0.00178   0.00000   0.00878   0.00872   1.91936
    A6        1.91063   0.00312   0.00000   0.01688   0.01678   1.92742
    A7        1.91063  -0.00130   0.00000   0.00335   0.00257   1.91320
    A8        1.91063   0.00931   0.00000   0.05086   0.05057   1.96120
    A9        1.91063  -0.00308   0.00000  -0.01323  -0.01316   1.89747
   A10        1.91063  -0.00129   0.00000   0.00338   0.00260   1.91323
   A11        1.91063  -0.00050   0.00000  -0.03085  -0.03098   1.87965
   A12        1.91063  -0.00314   0.00000  -0.01351  -0.01345   1.89718
   A13        1.91063   0.00179   0.00000   0.00883   0.00878   1.91941
   A14        1.91063   0.00312   0.00000   0.01691   0.01682   1.92745
   A15        1.91063   0.00180   0.00000   0.00955   0.00948   1.92011
   A16        1.91063  -0.00250   0.00000  -0.01335  -0.01343   1.89721
   A17        1.91063  -0.00199   0.00000  -0.01147  -0.01150   1.89913
   A18        1.91063  -0.00222   0.00000  -0.01048  -0.01058   1.90005
   A19        1.91114  -0.00929   0.00000  -0.03316  -0.03316   1.87797
   A20        1.91114  -0.03196   0.00000  -0.16800  -0.16800   1.74313
    D1       -1.04739  -0.00240   0.00000  -0.02958  -0.02971  -1.07710
    D2        1.04700   0.00092   0.00000   0.00775   0.00785   1.05485
    D3        3.14140   0.00089   0.00000   0.01425   0.01421  -3.12757
    D4        3.14140  -0.00216   0.00000  -0.02683  -0.02693   3.11447
    D5       -1.04739   0.00116   0.00000   0.01050   0.01063  -1.03676
    D6        1.04700   0.00113   0.00000   0.01700   0.01700   1.06400
    D7        1.04700  -0.00210   0.00000  -0.02621  -0.02631   1.02070
    D8        3.14140   0.00122   0.00000   0.01113   0.01126  -3.13053
    D9       -1.04739   0.00119   0.00000   0.01762   0.01762  -1.02977
   D10        1.04716  -0.00115   0.00000  -0.01042  -0.01055   1.03661
   D11        3.14156  -0.00120   0.00000  -0.01100  -0.01113   3.13042
   D12       -1.04723  -0.00091   0.00000  -0.00763  -0.00773  -1.05496
   D13        3.14156   0.00216   0.00000   0.02690   0.02699  -3.11464
   D14       -1.04723   0.00211   0.00000   0.02631   0.02641  -1.02082
   D15        1.04716   0.00241   0.00000   0.02969   0.02982   1.07698
   D16       -1.04723  -0.00115   0.00000  -0.01709  -0.01708  -1.06432
   D17        1.04716  -0.00120   0.00000  -0.01767  -0.01766   1.02950
   D18        3.14156  -0.00091   0.00000  -0.01429  -0.01426   3.12730
   D19        2.09246  -0.00380   0.00000  -0.02322  -0.02303   2.06943
   D20       -0.00194  -0.00002   0.00000  -0.00033  -0.00033  -0.00227
   D21       -2.09633   0.00378   0.00000   0.02269   0.02249  -2.07384
   D22        3.14095  -0.00001   0.00000  -0.00010  -0.00010   3.14085
         Item               Value     Threshold  Converged?
 Maximum Force            0.106399     0.000450     NO 
 RMS     Force            0.016620     0.000300     NO 
 Maximum Displacement     0.122621     0.001800     NO 
 RMS     Displacement     0.041731     0.001200     NO 
 Predicted change in Energy=-1.636475D-02
 GradGradGradGradGradGradGradGradGradGradGradGradGradGradGradGradGradGrad

 Leave Link  103 at Sat Aug 22 22:05:40 2015, MaxMem= 3758096384 cpu:       0.9
 (Enter /share/apps/g09/l202.exe)
                          Input orientation:                          
 ---------------------------------------------------------------------
 Center     Atomic      Atomic             Coordinates (Angstroms)
 Number     Number       Type             X           Y           Z
 ---------------------------------------------------------------------
      1          6           0       -2.594910   -0.539869   -0.005720
      2          1           0       -2.254707   -1.578757   -0.019487
      3          1           0       -2.240229   -0.040789   -0.911191
      4          1           0       -3.687752   -0.525931   -0.003060
      5          6           0       -2.045801    0.177497    1.238832
      6          1           0       -2.425824   -0.308835    2.139986
      7          6           0       -0.508456    0.197614    1.272113
      8          1           0       -0.122438    0.707603    0.385736
      9          1           0       -0.152887    0.723577    2.161740
     10          1           0       -0.121121   -0.824607    1.287388
     11          8           0       -2.522189    1.526150    1.238803
     12          8           0       -3.298508    1.703046    2.398458
     13          1           0       -3.556145    2.630617    2.286106
 ---------------------------------------------------------------------
                    Distance matrix (angstroms):
                    1          2          3          4          5
     1  C    0.000000
     2  H    1.093259   0.000000
     3  H    1.093050   1.777833   0.000000
     4  H    1.092934   1.778294   1.776341   0.000000
     5  C    1.537869   2.170584   2.169804   2.175570   0.000000
     6  H    2.164722   2.511037   3.068547   2.496446   1.092253
     7  C    2.555392   2.805907   2.796907   3.501072   1.537837
     8  H    2.796881   3.152494   2.593675   3.792655   2.169818
     9  H    3.501093   3.804752   3.792645   4.329307   2.175566
    10  H    2.805857   2.613207   3.152576   3.804644   2.170476
    11  O    2.412998   3.360846   2.675309   2.666795   1.430318
    12  O    3.362407   4.207874   3.887762   3.299566   2.289389
    13  H    4.028451   4.972758   4.369297   3.901461   3.065244
                    6          7          8          9         10
     6  H    0.000000
     7  C    2.164715   0.000000
     8  H    3.068571   1.093052   0.000000
     9  H    2.496515   1.092933   1.776337   0.000000
    10  H    2.510896   1.093251   1.777820   1.778307   0.000000
    11  O    2.046604   2.412724   2.675173   2.666370   3.360587
    12  O    2.208178   3.364426   3.889650   3.303078   4.209429
    13  H    3.152675   4.029404   4.370324   3.903131   4.973470
                   11         12         13
    11  O    0.000000
    12  O    1.406685   0.000000
    13  H    1.840042   0.969221   0.000000
 Stoichiometry    C3H8O2
 Framework group  C1[X(C3H8O2)]
 Deg. of freedom    33
 Full point group                 C1      NOp   1
 Largest Abelian subgroup         C1      NOp   1
 Largest concise Abelian subgroup C1      NOp   1
                         Standard orientation:                         
 ---------------------------------------------------------------------
 Center     Atomic      Atomic             Coordinates (Angstroms)
 Number     Number       Type             X           Y           Z
 ---------------------------------------------------------------------
      1          6           0        1.168744    1.278577    0.011012
      2          1           0        2.060916    1.308720   -0.620127
      3          1           0        1.477739    1.297827    1.059300
      4          1           0        0.562254    2.164859   -0.191912
      5          6           0        0.363808   -0.000012   -0.275922
      6          1           0        0.034565   -0.000118   -1.317370
      7          6           0        1.171747   -1.276813    0.010356
      8          1           0        1.480949   -1.295846    1.058590
      9          1           0        0.567348   -2.164445   -0.192905
     10          1           0        2.063894   -1.304485   -0.620917
     11          8           0       -0.804393   -0.001836    0.549374
     12          8           0       -1.925452   -0.000019   -0.300323
     13          1           0       -2.634691   -0.002178    0.360256
 ---------------------------------------------------------------------
 Rotational constants (GHZ):      7.4730854      3.7024693      2.8110462
 Leave Link  202 at Sat Aug 22 22:05:41 2015, MaxMem= 3758096384 cpu:       0.1
 (Enter /share/apps/g09/l301.exe)
 Standard basis: 6-31G(d) (6D, 7F)
 Ernie: Thresh=  0.10000D-02 Tol=  0.10000D-05 Strict=F.
 There are    91 symmetry adapted basis functions of A   symmetry.
 Integral buffers will be    131072 words long.
 Raffenetti 2 integral format.
 Two-electron integral symmetry is turned on.
    91 basis functions,   172 primitive gaussians,    91 cartesian basis functions
    21 alpha electrons       21 beta electrons
       nuclear repulsion energy       193.8766409566 Hartrees.
 IExCor=  402 DFT=T Ex+Corr=B3LYP ExCW=0 ScaHFX=  0.200000
 ScaDFX=  0.800000  0.720000  1.000000  0.810000 ScalE2=  1.000000  1.000000
 IRadAn=      0 IRanWt=     -1 IRanGd=            0 ICorTp=0
 NAtoms=   13 NActive=   13 NUniq=   13 SFac= 7.50D-01 NAtFMM=   80 NAOKFM=F Big=F
 Leave Link  301 at Sat Aug 22 22:05:41 2015, MaxMem= 3758096384 cpu:       0.5
 (Enter /share/apps/g09/l302.exe)
 NPDir=0 NMtPBC=     1 NCelOv=     1 NCel=       1 NClECP=     1 NCelD=      1
         NCelK=      1 NCelE2=     1 NClLst=     1 CellRange=     0.0.
 One-electron integrals computed using PRISM.
 NBasis=    91 RedAO= T  NBF=    91
 NBsUse=    91 1.00D-06 NBFU=    91
 Precomputing XC quadrature grid using
 IXCGrd= 2 IRadAn=           0 IRanWt=          -1 IRanGd=           0 AccXCQ= 1.00D-10.
 NRdTot=     808 NPtTot=      102070 NUsed=      107908 NTot=      107940
 NSgBfM=    91    91    91    91    91 NAtAll=    13    13.
 Leave Link  302 at Sat Aug 22 22:05:41 2015, MaxMem= 3758096384 cpu:       2.9
 (Enter /share/apps/g09/l303.exe)
 DipDrv:  MaxL=1.
 Leave Link  303 at Sat Aug 22 22:05:41 2015, MaxMem= 3758096384 cpu:       0.3
 (Enter /share/apps/g09/l401.exe)
 Initial guess read from the read-write file.
 B after Tr=     0.000000    0.000000    0.000000
         Rot=    1.000000    0.000000    0.000000    0.000000 Ang=   0.00 deg.
 Guess basis will be translated and rotated to current coordinates.
 Initial guess orbital symmetries:
       Occupied  (A) (A) (A) (A) (A) (A) (A) (A) (A) (A) (A) (A)
                 (A) (A) (A) (A) (A) (A) (A) (A) (A)
       Virtual   (A) (A) (A) (A) (A) (A) (A) (A) (A) (A) (A) (A)
                 (A) (A) (A) (A) (A) (A) (A) (A) (A) (A) (A) (A)
                 (A) (A) (A) (A) (A) (A) (A) (A) (A) (A) (A) (A)
                 (A) (A) (A) (A) (A) (A) (A) (A) (A) (A) (A) (A)
                 (A) (A) (A) (A) (A) (A) (A) (A) (A) (A) (A) (A)
                 (A) (A) (A) (A) (A) (A) (A) (A) (A) (A)
 The electronic state of the initial guess is 1-A.
 Generating alternative initial guess.
 Harris functional with IExCor=  402 diagonalized for initial guess.
 ExpMin= 1.61D-01 ExpMax= 5.48D+03 ExpMxC= 8.25D+02 IAcc=1 IRadAn=         1 AccDes= 0.00D+00
 HarFok:  IExCor=  402 AccDes= 0.00D+00 IRadAn=         1 IDoV= 1
 ScaDFX=  1.000000  1.000000  1.000000  1.000000
 FoFCou: FMM=F IPFlag=           0 FMFlag=      100000 FMFlg1=           0
         NFxFlg=           0 DoJE=T BraDBF=F KetDBF=T FulRan=T
         Omega=  0.000000  0.000000  1.000000  0.000000  0.000000 ICntrl=     500 IOpCl=  0
         NMat0=    1 NMatS0=    1 NMatT0=    0 NMatD0=    1 NMtDS0=    0 NMtDT0=    0
         I1Cent=           4 NGrid=           0.
 Petite list used in FoFCou.
 Harris En= -269.539834598468    
 Leave Link  401 at Sat Aug 22 22:05:42 2015, MaxMem= 3758096384 cpu:       5.6
 (Enter /share/apps/g09/l502.exe)
 Closed shell SCF:
 Requested convergence on RMS density matrix=1.00D-08 within 128 cycles.
 Requested convergence on MAX density matrix=1.00D-06.
 Requested convergence on             energy=1.00D-06.
 No special actions if energy rises.
 Using DIIS extrapolation, IDIIS=  1040.
 Integral symmetry usage will be decided dynamically.
       107778 words used for storage of precomputed grid.
 Keep R1 ints in memory in canonical form, NReq=9825649.
 IEnd=      152558 IEndB=      152558 NGot=  3758096384 MDV=  3749205420
 LenX=  3749205420 LenY=  3749196698
 Symmetry not used in FoFDir.
 MinBra= 0 MaxBra= 2 Meth= 1.
 IRaf=       0 NMat=   1 IRICut=       1 DoRegI=T DoRafI=F ISym2E= 0 JSym2E=0.
 Integral accuracy reduced to 1.0D-05 until final iterations.

 Cycle   1  Pass 0  IDiag  1:
 E= -269.469789278291    
 DIIS: error= 6.82D-03 at cycle   1 NSaved=   1.
 NSaved= 1 IEnMin= 1 EnMin= -269.469789278291     IErMin= 1 ErrMin= 6.82D-03
 ErrMax= 6.82D-03 EMaxC= 1.00D-01 BMatC= 5.09D-03 BMatP= 5.09D-03
 IDIUse=3 WtCom= 9.32D-01 WtEn= 6.82D-02
 Coeff-Com:  0.100D+01
 Coeff-En:   0.100D+01
 Coeff:      0.100D+01
 Gap=     0.299 Goal=   None    Shift=    0.000
 GapD=    0.299 DampG=1.000 DampE=1.000 DampFc=1.0000 IDamp=-1.
 RMSDP=1.15D-03 MaxDP=2.02D-02              OVMax= 2.50D-02

 Cycle   2  Pass 0  IDiag  1:
 E= -269.477210820222     Delta-E=       -0.007421541931 Rises=F Damp=F
 DIIS: error= 2.43D-03 at cycle   2 NSaved=   2.
 NSaved= 2 IEnMin= 2 EnMin= -269.477210820222     IErMin= 2 ErrMin= 2.43D-03
 ErrMax= 2.43D-03 EMaxC= 1.00D-01 BMatC= 3.59D-04 BMatP= 5.09D-03
 IDIUse=3 WtCom= 9.76D-01 WtEn= 2.43D-02
 Coeff-Com:  0.729D-01 0.927D+00
 Coeff-En:   0.000D+00 0.100D+01
 Coeff:      0.711D-01 0.929D+00
 Gap=     0.273 Goal=   None    Shift=    0.000
 RMSDP=3.59D-04 MaxDP=5.58D-03 DE=-7.42D-03 OVMax= 6.78D-03

 Cycle   3  Pass 0  IDiag  1:
 E= -269.477269067511     Delta-E=       -0.000058247289 Rises=F Damp=F
 DIIS: error= 2.50D-03 at cycle   3 NSaved=   3.
 NSaved= 3 IEnMin= 3 EnMin= -269.477269067511     IErMin= 2 ErrMin= 2.43D-03
 ErrMax= 2.50D-03 EMaxC= 1.00D-01 BMatC= 3.29D-04 BMatP= 3.59D-04
 IDIUse=3 WtCom= 9.75D-01 WtEn= 2.50D-02
 Coeff-Com: -0.209D-01 0.493D+00 0.528D+00
 Coeff-En:   0.000D+00 0.455D+00 0.545D+00
 Coeff:     -0.203D-01 0.492D+00 0.528D+00
 Gap=     0.273 Goal=   None    Shift=    0.000
 RMSDP=1.79D-04 MaxDP=3.05D-03 DE=-5.82D-05 OVMax= 3.53D-03

 Cycle   4  Pass 0  IDiag  1:
 E= -269.477570151884     Delta-E=       -0.000301084373 Rises=F Damp=F
 DIIS: error= 3.49D-04 at cycle   4 NSaved=   4.
 NSaved= 4 IEnMin= 4 EnMin= -269.477570151884     IErMin= 4 ErrMin= 3.49D-04
 ErrMax= 3.49D-04 EMaxC= 1.00D-01 BMatC= 1.60D-05 BMatP= 3.29D-04
 IDIUse=3 WtCom= 9.97D-01 WtEn= 3.49D-03
 Coeff-Com: -0.144D-01 0.206D+00 0.265D+00 0.543D+00
 Coeff-En:   0.000D+00 0.000D+00 0.000D+00 0.100D+01
 Coeff:     -0.143D-01 0.205D+00 0.264D+00 0.545D+00
 Gap=     0.272 Goal=   None    Shift=    0.000
 RMSDP=4.06D-05 MaxDP=1.17D-03 DE=-3.01D-04 OVMax= 1.15D-03

 Cycle   5  Pass 0  IDiag  1:
 E= -269.477578843962     Delta-E=       -0.000008692077 Rises=F Damp=F
 DIIS: error= 1.76D-04 at cycle   5 NSaved=   5.
 NSaved= 5 IEnMin= 5 EnMin= -269.477578843962     IErMin= 5 ErrMin= 1.76D-04
 ErrMax= 1.76D-04 EMaxC= 1.00D-01 BMatC= 3.42D-06 BMatP= 1.60D-05
 IDIUse=3 WtCom= 9.98D-01 WtEn= 1.76D-03
 Coeff-Com: -0.601D-02 0.654D-01 0.967D-01 0.349D+00 0.494D+00
 Coeff-En:   0.000D+00 0.000D+00 0.000D+00 0.187D+00 0.813D+00
 Coeff:     -0.600D-02 0.653D-01 0.965D-01 0.349D+00 0.495D+00
 Gap=     0.273 Goal=   None    Shift=    0.000
 RMSDP=1.57D-05 MaxDP=2.88D-04 DE=-8.69D-06 OVMax= 4.02D-04

 Cycle   6  Pass 0  IDiag  1:
 E= -269.477581361040     Delta-E=       -0.000002517078 Rises=F Damp=F
 DIIS: error= 1.98D-05 at cycle   6 NSaved=   6.
 NSaved= 6 IEnMin= 6 EnMin= -269.477581361040     IErMin= 6 ErrMin= 1.98D-05
 ErrMax= 1.98D-05 EMaxC= 1.00D-01 BMatC= 5.51D-08 BMatP= 3.42D-06
 IDIUse=1 WtCom= 1.00D+00 WtEn= 0.00D+00
 Coeff-Com: -0.887D-03 0.608D-02 0.125D-01 0.846D-01 0.172D+00 0.726D+00
 Coeff:     -0.887D-03 0.608D-02 0.125D-01 0.846D-01 0.172D+00 0.726D+00
 Gap=     0.273 Goal=   None    Shift=    0.000
 RMSDP=2.89D-06 MaxDP=6.18D-05 DE=-2.52D-06 OVMax= 7.25D-05

 Initial convergence to 1.0D-05 achieved.  Increase integral accuracy.
 Cycle   7  Pass 1  IDiag  1:
 E= -269.477648285594     Delta-E=       -0.000066924554 Rises=F Damp=F
 DIIS: error= 1.48D-05 at cycle   1 NSaved=   1.
 NSaved= 1 IEnMin= 1 EnMin= -269.477648285594     IErMin= 1 ErrMin= 1.48D-05
 ErrMax= 1.48D-05 EMaxC= 1.00D-01 BMatC= 3.79D-08 BMatP= 3.79D-08
 IDIUse=1 WtCom= 1.00D+00 WtEn= 0.00D+00
 Coeff-Com:  0.100D+01
 Coeff:      0.100D+01
 Gap=     0.273 Goal=   None    Shift=    0.000
 RMSDP=2.89D-06 MaxDP=6.18D-05 DE=-6.69D-05 OVMax= 6.50D-05

 Cycle   8  Pass 1  IDiag  1:
 E= -269.477648314067     Delta-E=       -0.000000028473 Rises=F Damp=F
 DIIS: error= 1.43D-05 at cycle   2 NSaved=   2.
 NSaved= 2 IEnMin= 2 EnMin= -269.477648314067     IErMin= 2 ErrMin= 1.43D-05
 ErrMax= 1.43D-05 EMaxC= 1.00D-01 BMatC= 1.88D-08 BMatP= 3.79D-08
 IDIUse=1 WtCom= 1.00D+00 WtEn= 0.00D+00
 Coeff-Com:  0.382D+00 0.618D+00
 Coeff:      0.382D+00 0.618D+00
 Gap=     0.273 Goal=   None    Shift=    0.000
 RMSDP=1.66D-06 MaxDP=4.24D-05 DE=-2.85D-08 OVMax= 4.10D-05

 Cycle   9  Pass 1  IDiag  1:
 E= -269.477648323273     Delta-E=       -0.000000009206 Rises=F Damp=F
 DIIS: error= 8.92D-06 at cycle   3 NSaved=   3.
 NSaved= 3 IEnMin= 3 EnMin= -269.477648323273     IErMin= 3 ErrMin= 8.92D-06
 ErrMax= 8.92D-06 EMaxC= 1.00D-01 BMatC= 6.44D-09 BMatP= 1.88D-08
 IDIUse=1 WtCom= 1.00D+00 WtEn= 0.00D+00
 Coeff-Com:  0.471D-02 0.365D+00 0.630D+00
 Coeff:      0.471D-02 0.365D+00 0.630D+00
 Gap=     0.273 Goal=   None    Shift=    0.000
 RMSDP=7.15D-07 MaxDP=1.83D-05 DE=-9.21D-09 OVMax= 2.04D-05

 Cycle  10  Pass 1  IDiag  1:
 E= -269.477648327473     Delta-E=       -0.000000004200 Rises=F Damp=F
 DIIS: error= 2.52D-06 at cycle   4 NSaved=   4.
 NSaved= 4 IEnMin= 4 EnMin= -269.477648327473     IErMin= 4 ErrMin= 2.52D-06
 ErrMax= 2.52D-06 EMaxC= 1.00D-01 BMatC= 7.80D-10 BMatP= 6.44D-09
 IDIUse=1 WtCom= 1.00D+00 WtEn= 0.00D+00
 Coeff-Com: -0.144D-01 0.201D+00 0.401D+00 0.413D+00
 Coeff:     -0.144D-01 0.201D+00 0.401D+00 0.413D+00
 Gap=     0.273 Goal=   None    Shift=    0.000
 RMSDP=2.45D-07 MaxDP=6.22D-06 DE=-4.20D-09 OVMax= 5.74D-06

 Cycle  11  Pass 1  IDiag  1:
 E= -269.477648328036     Delta-E=       -0.000000000563 Rises=F Damp=F
 DIIS: error= 2.28D-07 at cycle   5 NSaved=   5.
 NSaved= 5 IEnMin= 5 EnMin= -269.477648328036     IErMin= 5 ErrMin= 2.28D-07
 ErrMax= 2.28D-07 EMaxC= 1.00D-01 BMatC= 8.96D-12 BMatP= 7.80D-10
 IDIUse=1 WtCom= 1.00D+00 WtEn= 0.00D+00
 Coeff-Com: -0.561D-02 0.526D-01 0.113D+00 0.157D+00 0.683D+00
 Coeff:     -0.561D-02 0.526D-01 0.113D+00 0.157D+00 0.683D+00
 Gap=     0.273 Goal=   None    Shift=    0.000
 RMSDP=3.19D-08 MaxDP=5.83D-07 DE=-5.63D-10 OVMax= 5.49D-07

 Cycle  12  Pass 1  IDiag  1:
 E= -269.477648328040     Delta-E=       -0.000000000005 Rises=F Damp=F
 DIIS: error= 8.90D-08 at cycle   6 NSaved=   6.
 NSaved= 6 IEnMin= 6 EnMin= -269.477648328040     IErMin= 6 ErrMin= 8.90D-08
 ErrMax= 8.90D-08 EMaxC= 1.00D-01 BMatC= 6.94D-13 BMatP= 8.96D-12
 IDIUse=1 WtCom= 1.00D+00 WtEn= 0.00D+00
 Coeff-Com: -0.148D-02 0.117D-01 0.265D-01 0.450D-01 0.284D+00 0.634D+00
 Coeff:     -0.148D-02 0.117D-01 0.265D-01 0.450D-01 0.284D+00 0.634D+00
 Gap=     0.273 Goal=   None    Shift=    0.000
 RMSDP=1.14D-08 MaxDP=1.81D-07 DE=-4.66D-12 OVMax= 1.91D-07

 Cycle  13  Pass 1  IDiag  1:
 E= -269.477648328041     Delta-E=       -0.000000000001 Rises=F Damp=F
 DIIS: error= 2.24D-08 at cycle   7 NSaved=   7.
 NSaved= 7 IEnMin= 7 EnMin= -269.477648328041     IErMin= 7 ErrMin= 2.24D-08
 ErrMax= 2.24D-08 EMaxC= 1.00D-01 BMatC= 5.48D-14 BMatP= 6.94D-13
 IDIUse=1 WtCom= 1.00D+00 WtEn= 0.00D+00
 Coeff-Com:  0.693D-04-0.194D-02-0.368D-02-0.882D-03 0.249D-01 0.242D+00
 Coeff-Com:  0.739D+00
 Coeff:      0.693D-04-0.194D-02-0.368D-02-0.882D-03 0.249D-01 0.242D+00
 Coeff:      0.739D+00
 Gap=     0.273 Goal=   None    Shift=    0.000
 RMSDP=2.63D-09 MaxDP=3.25D-08 DE=-7.96D-13 OVMax= 4.32D-08

 SCF Done:  E(RB3LYP) =  -269.477648328     A.U. after   13 cycles
             Convg  =    0.2633D-08             -V/T =  2.0086
 KE= 2.671812117950D+02 PE=-1.018203192639D+03 EE= 2.876676915590D+02
 Leave Link  502 at Sat Aug 22 22:05:45 2015, MaxMem= 3758096384 cpu:      36.4
 (Enter /share/apps/g09/l701.exe)
 Compute integral first derivatives.
 ... and contract with generalized density number  0.
 Leave Link  701 at Sat Aug 22 22:05:45 2015, MaxMem= 3758096384 cpu:       2.9
 (Enter /share/apps/g09/l702.exe)
 L702 exits ... SP integral derivatives will be done elsewhere.
 Leave Link  702 at Sat Aug 22 22:05:45 2015, MaxMem= 3758096384 cpu:       0.2
 (Enter /share/apps/g09/l703.exe)
 Compute integral first derivatives, UseDBF=F ICtDFT=           0.
 Integral derivatives from FoFDir, PRISM(SPDF).
 Calling FoFJK, ICntrl=      2127 FMM=F ISym2X=0 I1Cent= 0 IOpClX= 0 NMat=1 NMatS=1 NMatT=0.
 FoFCou: FMM=F IPFlag=           0 FMFlag=      100000 FMFlg1=         800
         NFxFlg=           0 DoJE=F BraDBF=F KetDBF=F FulRan=T
         Omega=  0.000000  0.000000  1.000000  0.000000  0.000000 ICntrl=    2127 IOpCl=  0
         NMat0=    1 NMatS0=    1 NMatT0=    0 NMatD0=    1 NMtDS0=    0 NMtDT0=    0
         I1Cent=           0 NGrid=           0.
 Symmetry not used in FoFCou.
 Leave Link  703 at Sat Aug 22 22:05:46 2015, MaxMem= 3758096384 cpu:       8.0
 (Enter /share/apps/g09/l716.exe)
 Dipole        = 4.14304448D-02-7.92364189D-04 6.09264543D-02
 ***** Axes restored to original set *****
 -------------------------------------------------------------------
 Center     Atomic                   Forces (Hartrees/Bohr)
 Number     Number              X              Y              Z
 -------------------------------------------------------------------
      1        6           0.001317861    0.003646234    0.006572631
      2        1           0.000237525   -0.001750396   -0.001317683
      3        1           0.000136786   -0.000023027   -0.002039157
      4        1          -0.000881003   -0.000024838   -0.000160374
      5        6           0.005598335   -0.007114262   -0.005087152
      6        1          -0.001182033    0.000618905    0.001596469
      7        6          -0.007524778    0.000533151    0.001150595
      8        1           0.001631407    0.000504812   -0.001124193
      9        1           0.000435365    0.000438384    0.000646068
     10        1           0.001825294   -0.001191212   -0.000352183
     11        8           0.018611220    0.000587661   -0.030502119
     12        8          -0.019599710    0.000571623    0.031465596
     13        1          -0.000606270    0.003202966   -0.000848497
 -------------------------------------------------------------------
 Cartesian Forces:  Max     0.031465596 RMS     0.008639982
 Leave Link  716 at Sat Aug 22 22:05:46 2015, MaxMem= 3758096384 cpu:       0.2
 (Enter /share/apps/g09/l103.exe)

 GradGradGradGradGradGradGradGradGradGradGradGradGradGradGradGradGradGrad
 Berny optimization.
 Using GEDIIS/GDIIS optimizer.
 Internal  Forces:  Max     0.036860199 RMS     0.005193379
 Search for a local minimum.
 Step number   2 out of a maximum of   64
 All quantities printed in internal units (Hartrees-Bohrs-Radians)
 RMS Force = .51934D-02 SwitMx=.10000D-02 MixMth= 1
 Mixed Optimization -- RFO/linear search
 Update second derivatives using D2CorX and points    1    2
 DE= -1.81D-02 DEPred=-1.64D-02 R= 1.11D+00
 SS=  1.41D+00  RLast= 2.88D-01 DXNew= 5.0454D-01 8.6516D-01
 Trust test= 1.11D+00 RLast= 2.88D-01 DXMaxT set to 5.05D-01
 Use linear search instead of GDIIS.
     Eigenvalues ---    0.00237   0.00237   0.01295   0.02353   0.04167
     Eigenvalues ---    0.04844   0.05570   0.05571   0.05620   0.05621
     Eigenvalues ---    0.07401   0.15849   0.16000   0.16000   0.16000
     Eigenvalues ---    0.16000   0.16000   0.16631   0.17432   0.19678
     Eigenvalues ---    0.24994   0.28320   0.28519   0.36988   0.37230
     Eigenvalues ---    0.37230   0.37230   0.37230   0.37230   0.37503
     Eigenvalues ---    0.41353   0.46912   0.555641000.000001000.00000
     Eigenvalues --- 1000.000001000.000001000.000001000.000001000.00000
     Eigenvalues --- 1000.000001000.000001000.000001000.000001000.00000
     Eigenvalues --- 1000.000001000.000001000.000001000.000001000.00000
     Eigenvalues --- 1000.000001000.000001000.000001000.00000
 RFO step:  Lambda=-1.33480804D-03 EMin= 2.36818642D-03
 Quartic linear search produced a step of  0.38109.
 Iteration  1 RMS(Cart)=  0.01850372 RMS(Int)=  0.00029234
 Iteration  2 RMS(Cart)=  0.00028765 RMS(Int)=  0.00013268
 Iteration  3 RMS(Cart)=  0.00000007 RMS(Int)=  0.00013268
 Variable       Old X    -DE/DX   Delta X   Delta X   Delta X     New X
                                 (Linear)    (Quad)   (Total)
    R1        2.06596   0.00175   0.01675  -0.00711   0.00964   2.07560
    R2        2.06557   0.00172   0.01660  -0.00711   0.00949   2.07505
    R3        2.06535   0.00088   0.01652  -0.01015   0.00636   2.07171
    R4        2.90615  -0.00363  -0.00153  -0.01626  -0.01779   2.88836
    R5        2.06406   0.00145   0.01603  -0.00764   0.00839   2.07244
    R6        2.90609  -0.00362  -0.00156  -0.01622  -0.01778   2.88831
    R7        2.70291   0.00465   0.00023   0.01543   0.01566   2.71857
    R8        2.06557   0.00172   0.01660  -0.00711   0.00949   2.07506
    R9        2.06534   0.00088   0.01652  -0.01016   0.00635   2.07170
   R10        2.06594   0.00176   0.01674  -0.00710   0.00964   2.07559
   R11        2.65825   0.03686   0.06243   0.02982   0.09224   2.75049
   R12        1.83156   0.00333   0.00664   0.00274   0.00938   1.84094
    A1        1.89914  -0.00139  -0.00438  -0.00812  -0.01261   1.88654
    A2        1.90002  -0.00061  -0.00405  -0.00130  -0.00540   1.89462
    A3        1.92021   0.00161   0.00365   0.01189   0.01546   1.93567
    A4        1.89722  -0.00060  -0.00511  -0.00294  -0.00807   1.88914
    A5        1.91936   0.00123   0.00332   0.00766   0.01091   1.93027
    A6        1.92742  -0.00030   0.00640  -0.00748  -0.00112   1.92629
    A7        1.91320  -0.00021   0.00098   0.00437   0.00476   1.91796
    A8        1.96120   0.00161   0.01927   0.00431   0.02333   1.98453
    A9        1.89747  -0.00046  -0.00502   0.00105  -0.00395   1.89352
   A10        1.91323  -0.00021   0.00099   0.00432   0.00472   1.91796
   A11        1.87965  -0.00032  -0.01181  -0.01604  -0.02790   1.85175
   A12        1.89718  -0.00048  -0.00513   0.00099  -0.00413   1.89306
   A13        1.91941   0.00124   0.00335   0.00764   0.01092   1.93033
   A14        1.92745  -0.00030   0.00641  -0.00749  -0.00112   1.92633
   A15        1.92011   0.00161   0.00361   0.01195   0.01548   1.93559
   A16        1.89721  -0.00060  -0.00512  -0.00293  -0.00807   1.88914
   A17        1.89913  -0.00139  -0.00438  -0.00816  -0.01266   1.88648
   A18        1.90005  -0.00062  -0.00403  -0.00130  -0.00539   1.89466
   A19        1.87797  -0.00138  -0.01264   0.00232  -0.01032   1.86765
   A20        1.74313  -0.00100  -0.06402   0.03826  -0.02577   1.71737
    D1       -1.07710  -0.00053  -0.01132  -0.02526  -0.03665  -1.11375
    D2        1.05485   0.00015   0.00299  -0.01371  -0.01063   1.04423
    D3       -3.12757   0.00025   0.00542  -0.00903  -0.00359  -3.13117
    D4        3.11447  -0.00060  -0.01026  -0.02750  -0.03787   3.07660
    D5       -1.03676   0.00008   0.00405  -0.01595  -0.01185  -1.04861
    D6        1.06400   0.00018   0.00648  -0.01127  -0.00481   1.05919
    D7        1.02070  -0.00045  -0.01002  -0.02400  -0.03410   0.98659
    D8       -3.13053   0.00023   0.00429  -0.01246  -0.00808  -3.13861
    D9       -1.02977   0.00033   0.00671  -0.00778  -0.00105  -1.03082
   D10        1.03661  -0.00007  -0.00402   0.01663   0.01256   1.04916
   D11        3.13042  -0.00022  -0.00424   0.01313   0.00880   3.13923
   D12       -1.05496  -0.00014  -0.00295   0.01442   0.01138  -1.04358
   D13       -3.11464   0.00060   0.01029   0.02821   0.03860  -3.07604
   D14       -1.02082   0.00045   0.01007   0.02471   0.03485  -0.98597
   D15        1.07698   0.00053   0.01136   0.02599   0.03743   1.11440
   D16       -1.06432  -0.00018  -0.00651   0.01192   0.00543  -1.05889
   D17        1.02950  -0.00033  -0.00673   0.00842   0.00168   1.03118
   D18        3.12730  -0.00025  -0.00543   0.00971   0.00426   3.13155
   D19        2.06943  -0.00071  -0.00878  -0.00501  -0.01363   2.05580
   D20       -0.00227  -0.00002  -0.00013  -0.00179  -0.00191  -0.00418
   D21       -2.07384   0.00067   0.00857   0.00152   0.00992  -2.06392
   D22        3.14085   0.00000  -0.00004  -0.00001  -0.00005   3.14080
         Item               Value     Threshold  Converged?
 Maximum Force            0.036860     0.000450     NO 
 RMS     Force            0.005193     0.000300     NO 
 Maximum Displacement     0.045660     0.001800     NO 
 RMS     Displacement     0.018460     0.001200     NO 
 Predicted change in Energy=-1.724051D-03
 GradGradGradGradGradGradGradGradGradGradGradGradGradGradGradGradGradGrad

 Leave Link  103 at Sat Aug 22 22:05:46 2015, MaxMem= 3758096384 cpu:       0.1
 (Enter /share/apps/g09/l202.exe)
                          Input orientation:                          
 ---------------------------------------------------------------------
 Center     Atomic      Atomic             Coordinates (Angstroms)
 Number     Number       Type             X           Y           Z
 ---------------------------------------------------------------------
      1          6           0       -2.596575   -0.542958   -0.004951
      2          1           0       -2.264729   -1.589540   -0.035552
      3          1           0       -2.258813   -0.051067   -0.926753
      4          1           0       -3.692598   -0.524883    0.011849
      5          6           0       -2.033837    0.171944    1.223225
      6          1           0       -2.430849   -0.287081    2.136683
      7          6           0       -0.506447    0.195316    1.274487
      8          1           0       -0.098276    0.712547    0.396061
      9          1           0       -0.162774    0.721345    2.172845
     10          1           0       -0.099230   -0.824651    1.289396
     11          8           0       -2.510411    1.529311    1.219284
     12          8           0       -3.313680    1.702003    2.420704
     13          1           0       -3.562750    2.635033    2.292428
 ---------------------------------------------------------------------
                    Distance matrix (angstroms):
                    1          2          3          4          5
     1  C    0.000000
     2  H    1.098359   0.000000
     3  H    1.098071   1.777969   0.000000
     4  H    1.096300   1.781727   1.777980   0.000000
     5  C    1.528454   2.177304   2.173190   2.168982   0.000000
     6  H    2.163223   2.538228   3.077327   2.482635   1.096690
     7  C    2.559422   2.827272   2.824350   3.502070   1.528428
     8  H    2.824642   3.190520   2.645915   3.820733   2.173212
     9  H    3.502091   3.825627   3.820669   4.322342   2.168985
    10  H    2.826910   2.651402   3.189601   3.825478   2.177219
    11  O    2.408417   3.370787   2.677008   2.659920   1.438605
    12  O    3.381994   4.238837   3.923196   3.302299   2.326593
    13  H    4.038696   4.995134   4.390730   3.899098   3.089916
                    6          7          8          9         10
     6  H    0.000000
     7  C    2.163194   0.000000
     8  H    3.077324   1.098073   0.000000
     9  H    2.482417   1.096296   1.777976   0.000000
    10  H    2.538370   1.098354   1.777928   1.781747   0.000000
    11  O    2.036475   2.407999   2.676415   2.659603   3.370437
    12  O    2.194655   3.385922   3.926452   3.309280   4.242231
    13  H    3.137548   4.040966   4.392578   3.903376   4.997145
                   11         12         13
    11  O    0.000000
    12  O    1.455497   0.000000
    13  H    1.865925   0.974185   0.000000
 Stoichiometry    C3H8O2
 Framework group  C1[X(C3H8O2)]
 Deg. of freedom    33
 Full point group                 C1      NOp   1
 Largest Abelian subgroup         C1      NOp   1
 Largest concise Abelian subgroup C1      NOp   1
                         Standard orientation:                         
 ---------------------------------------------------------------------
 Center     Atomic      Atomic             Coordinates (Angstroms)
 Number     Number       Type             X           Y           Z
 ---------------------------------------------------------------------
      1          6           0        1.166718    1.281476    0.003267
      2          1           0        2.065252    1.330101   -0.626546
      3          1           0        1.483827    1.324795    1.053660
      4          1           0        0.546956    2.161559   -0.204637
      5          6           0        0.379100    0.000016   -0.268192
      6          1           0        0.011744   -0.000353   -1.301526
      7          6           0        1.172774   -1.277939    0.002006
      8          1           0        1.489633   -1.321114    1.052482
      9          1           0        0.557433   -2.160770   -0.207351
     10          1           0        2.071846   -1.321292   -0.627415
     11          8           0       -0.789628   -0.003541    0.570645
     12          8           0       -1.947084   -0.000258   -0.311826
     13          1           0       -2.644548   -0.003854    0.368297
 ---------------------------------------------------------------------
 Rotational constants (GHZ):      7.3923436      3.6595395      2.7873594
 Leave Link  202 at Sat Aug 22 22:05:46 2015, MaxMem= 3758096384 cpu:       0.1
 (Enter /share/apps/g09/l301.exe)
 Standard basis: 6-31G(d) (6D, 7F)
 Ernie: Thresh=  0.10000D-02 Tol=  0.10000D-05 Strict=F.
 There are    91 symmetry adapted basis functions of A   symmetry.
 Integral buffers will be    131072 words long.
 Raffenetti 2 integral format.
 Two-electron integral symmetry is turned on.
    91 basis functions,   172 primitive gaussians,    91 cartesian basis functions
    21 alpha electrons       21 beta electrons
       nuclear repulsion energy       192.6491533827 Hartrees.
 IExCor=  402 DFT=T Ex+Corr=B3LYP ExCW=0 ScaHFX=  0.200000
 ScaDFX=  0.800000  0.720000  1.000000  0.810000 ScalE2=  1.000000  1.000000
 IRadAn=      0 IRanWt=     -1 IRanGd=            0 ICorTp=0
 NAtoms=   13 NActive=   13 NUniq=   13 SFac= 7.50D-01 NAtFMM=   80 NAOKFM=F Big=F
 Leave Link  301 at Sat Aug 22 22:05:46 2015, MaxMem= 3758096384 cpu:       0.5
 (Enter /share/apps/g09/l302.exe)
 NPDir=0 NMtPBC=     1 NCelOv=     1 NCel=       1 NClECP=     1 NCelD=      1
         NCelK=      1 NCelE2=     1 NClLst=     1 CellRange=     0.0.
 One-electron integrals computed using PRISM.
 NBasis=    91 RedAO= T  NBF=    91
 NBsUse=    91 1.00D-06 NBFU=    91
 Precomputing XC quadrature grid using
 IXCGrd= 2 IRadAn=           0 IRanWt=          -1 IRanGd=           0 AccXCQ= 1.00D-10.
 NRdTot=     808 NPtTot=      102508 NUsed=      108346 NTot=      108378
 NSgBfM=    91    91    91    91    91 NAtAll=    13    13.
 Leave Link  302 at Sat Aug 22 22:05:47 2015, MaxMem= 3758096384 cpu:       2.8
 (Enter /share/apps/g09/l303.exe)
 DipDrv:  MaxL=1.
 Leave Link  303 at Sat Aug 22 22:05:47 2015, MaxMem= 3758096384 cpu:       0.9
 (Enter /share/apps/g09/l401.exe)
 Initial guess read from the read-write file.
 B after Tr=     0.000000    0.000000    0.000000
         Rot=    1.000000    0.000000    0.000000    0.000000 Ang=   0.00 deg.
 Guess basis will be translated and rotated to current coordinates.
 Initial guess orbital symmetries:
       Occupied  (A) (A) (A) (A) (A) (A) (A) (A) (A) (A) (A) (A)
                 (A) (A) (A) (A) (A) (A) (A) (A) (A)
       Virtual   (A) (A) (A) (A) (A) (A) (A) (A) (A) (A) (A) (A)
                 (A) (A) (A) (A) (A) (A) (A) (A) (A) (A) (A) (A)
                 (A) (A) (A) (A) (A) (A) (A) (A) (A) (A) (A) (A)
                 (A) (A) (A) (A) (A) (A) (A) (A) (A) (A) (A) (A)
                 (A) (A) (A) (A) (A) (A) (A) (A) (A) (A) (A) (A)
                 (A) (A) (A) (A) (A) (A) (A) (A) (A) (A)
 The electronic state of the initial guess is 1-A.
 Generating alternative initial guess.
 Harris functional with IExCor=  402 diagonalized for initial guess.
 ExpMin= 1.61D-01 ExpMax= 5.48D+03 ExpMxC= 8.25D+02 IAcc=1 IRadAn=         1 AccDes= 0.00D+00
 HarFok:  IExCor=  402 AccDes= 0.00D+00 IRadAn=         1 IDoV= 1
 ScaDFX=  1.000000  1.000000  1.000000  1.000000
 FoFCou: FMM=F IPFlag=           0 FMFlag=      100000 FMFlg1=           0
         NFxFlg=           0 DoJE=T BraDBF=F KetDBF=T FulRan=T
         Omega=  0.000000  0.000000  1.000000  0.000000  0.000000 ICntrl=     500 IOpCl=  0
         NMat0=    1 NMatS0=    1 NMatT0=    0 NMatD0=    1 NMtDS0=    0 NMtDT0=    0
         I1Cent=           4 NGrid=           0.
 Petite list used in FoFCou.
 Harris En= -269.540770920528    
 Leave Link  401 at Sat Aug 22 22:05:47 2015, MaxMem= 3758096384 cpu:       4.3
 (Enter /share/apps/g09/l502.exe)
 Closed shell SCF:
 Requested convergence on RMS density matrix=1.00D-08 within 128 cycles.
 Requested convergence on MAX density matrix=1.00D-06.
 Requested convergence on             energy=1.00D-06.
 No special actions if energy rises.
 Using DIIS extrapolation, IDIIS=  1040.
 Integral symmetry usage will be decided dynamically.
       108216 words used for storage of precomputed grid.
 Keep R1 ints in memory in canonical form, NReq=9826087.
 IEnd=      152996 IEndB=      152996 NGot=  3758096384 MDV=  3749204982
 LenX=  3749204982 LenY=  3749196260
 Symmetry not used in FoFDir.
 MinBra= 0 MaxBra= 2 Meth= 1.
 IRaf=       0 NMat=   1 IRICut=       1 DoRegI=T DoRafI=F ISym2E= 0 JSym2E=0.
 Integral accuracy reduced to 1.0D-05 until final iterations.

 Cycle   1  Pass 0  IDiag  1:
 E= -269.478305648618    
 DIIS: error= 2.87D-03 at cycle   1 NSaved=   1.
 NSaved= 1 IEnMin= 1 EnMin= -269.478305648618     IErMin= 1 ErrMin= 2.87D-03
 ErrMax= 2.87D-03 EMaxC= 1.00D-01 BMatC= 9.31D-04 BMatP= 9.31D-04
 IDIUse=3 WtCom= 9.71D-01 WtEn= 2.87D-02
 Coeff-Com:  0.100D+01
 Coeff-En:   0.100D+01
 Coeff:      0.100D+01
 Gap=     0.268 Goal=   None    Shift=    0.000
 GapD=    0.268 DampG=1.000 DampE=1.000 DampFc=1.0000 IDamp=-1.
 RMSDP=4.65D-04 MaxDP=5.66D-03              OVMax= 1.05D-02

 Cycle   2  Pass 0  IDiag  1:
 E= -269.479745986408     Delta-E=       -0.001440337790 Rises=F Damp=F
 DIIS: error= 3.67D-04 at cycle   2 NSaved=   2.
 NSaved= 2 IEnMin= 2 EnMin= -269.479745986408     IErMin= 2 ErrMin= 3.67D-04
 ErrMax= 3.67D-04 EMaxC= 1.00D-01 BMatC= 2.70D-05 BMatP= 9.31D-04
 IDIUse=3 WtCom= 9.96D-01 WtEn= 3.67D-03
 Coeff-Com: -0.493D-02 0.100D+01
 Coeff-En:   0.000D+00 0.100D+01
 Coeff:     -0.491D-02 0.100D+01
 Gap=     0.255 Goal=   None    Shift=    0.000
 RMSDP=9.19D-05 MaxDP=1.72D-03 DE=-1.44D-03 OVMax= 1.56D-03

 Cycle   3  Pass 0  IDiag  1:
 E= -269.479752926211     Delta-E=       -0.000006939803 Rises=F Damp=F
 DIIS: error= 3.78D-04 at cycle   3 NSaved=   3.
 NSaved= 3 IEnMin= 3 EnMin= -269.479752926211     IErMin= 2 ErrMin= 3.67D-04
 ErrMax= 3.78D-04 EMaxC= 1.00D-01 BMatC= 2.61D-05 BMatP= 2.70D-05
 IDIUse=3 WtCom= 9.96D-01 WtEn= 3.78D-03
 Coeff-Com: -0.310D-01 0.511D+00 0.520D+00
 Coeff-En:   0.000D+00 0.404D+00 0.596D+00
 Coeff:     -0.309D-01 0.511D+00 0.520D+00
 Gap=     0.255 Goal=   None    Shift=    0.000
 RMSDP=4.90D-05 MaxDP=1.20D-03 DE=-6.94D-06 OVMax= 9.59D-04

 Cycle   4  Pass 0  IDiag  1:
[...]
   A19        1.87684  -0.00002   0.00000  -0.00011  -0.00011   1.87673
   A20        1.74347   0.00001   0.00000   0.00002   0.00002   1.74348
    D1       -1.03721   0.00000   0.00000   0.00025   0.00025  -1.03696
    D2        1.11211   0.00001   0.00000   0.00039   0.00039   1.11250
    D3       -3.12512  -0.00001   0.00000   0.00031   0.00031  -3.12481
    D4       -3.13100   0.00000   0.00000   0.00024   0.00024  -3.13076
    D5       -0.98168   0.00001   0.00000   0.00038   0.00038  -0.98130
    D6        1.06427  -0.00001   0.00000   0.00030   0.00030   1.06457
    D7        1.04853   0.00000   0.00000   0.00033   0.00033   1.04886
    D8       -3.08533   0.00001   0.00000   0.00047   0.00047  -3.08486
    D9       -1.03938   0.00000   0.00000   0.00040   0.00040  -1.03898
   D10        1.02907   0.00000   0.00000   0.00009   0.00009   1.02916
   D11        3.12923   0.00001   0.00000   0.00018   0.00018   3.12941
   D12       -1.05845   0.00000   0.00000   0.00008   0.00008  -1.05837
   D13       -3.10460   0.00001   0.00000   0.00024   0.00024  -3.10436
   D14       -1.00443   0.00001   0.00000   0.00032   0.00032  -1.00411
   D15        1.09107   0.00000   0.00000   0.00022   0.00022   1.09130
   D16       -1.09375  -0.00001   0.00000   0.00006   0.00006  -1.09370
   D17        1.00641  -0.00001   0.00000   0.00014   0.00014   1.00655
   D18        3.10192  -0.00001   0.00000   0.00004   0.00004   3.10196
   D19        1.19362   0.00000   0.00000   0.00020   0.00020   1.19383
   D20       -0.91442   0.00000   0.00000   0.00020   0.00020  -0.91422
   D21       -2.94913   0.00001   0.00000   0.00030   0.00030  -2.94883
   D22       -2.01636   0.00000   0.00000  -0.00060  -0.00060  -2.01695
         Item               Value     Threshold  Converged?
 Maximum Force            0.000031     0.000450     YES
 RMS     Force            0.000011     0.000300     YES
 Maximum Displacement     0.000903     0.001800     YES
 RMS     Displacement     0.000267     0.001200     YES
 Predicted change in Energy=-2.036938D-08
 Optimization completed.
    -- Stationary point found.
                           ----------------------------
                           !   Optimized Parameters   !
                           ! (Angstroms and Degrees)  !
 --------------------------                            --------------------------
 ! Name  Definition              Value          Derivative Info.                !
 --------------------------------------------------------------------------------
 ! R1    R(1,2)                  1.0959         -DE/DX =    0.0                 !
 ! R2    R(1,3)                  1.0967         -DE/DX =    0.0                 !
 ! R3    R(1,4)                  1.0939         -DE/DX =    0.0                 !
 ! R4    R(1,5)                  1.5267         -DE/DX =    0.0                 !
 ! R5    R(5,6)                  1.0986         -DE/DX =    0.0                 !
 ! R6    R(5,7)                  1.5267         -DE/DX =    0.0                 !
 ! R7    R(5,11)                 1.4366         -DE/DX =    0.0                 !
 ! R8    R(7,8)                  1.0957         -DE/DX =    0.0                 !
 ! R9    R(7,9)                  1.0941         -DE/DX =    0.0                 !
 ! R10   R(7,10)                 1.0951         -DE/DX =    0.0                 !
 ! R11   R(11,12)                1.4572         -DE/DX =    0.0                 !
 ! R12   R(12,13)                0.9738         -DE/DX =    0.0                 !
 ! A1    A(2,1,3)              108.2928         -DE/DX =    0.0                 !
 ! A2    A(2,1,4)              107.9937         -DE/DX =    0.0                 !
 ! A3    A(2,1,5)              110.6255         -DE/DX =    0.0                 !
 ! A4    A(3,1,4)              108.8428         -DE/DX =    0.0                 !
 ! A5    A(3,1,5)              110.5721         -DE/DX =    0.0                 !
 ! A6    A(4,1,5)              110.4365         -DE/DX =    0.0                 !
 ! A7    A(1,5,6)              109.8065         -DE/DX =    0.0                 !
 ! A8    A(1,5,7)              113.2946         -DE/DX =    0.0                 !
 ! A9    A(1,5,11)             111.767          -DE/DX =    0.0                 !
 ! A10   A(6,5,7)              109.7861         -DE/DX =    0.0                 !
 ! A11   A(6,5,11)             107.837          -DE/DX =    0.0                 !
 ! A12   A(7,5,11)             104.0977         -DE/DX =    0.0                 !
 ! A13   A(5,7,8)              110.6844         -DE/DX =    0.0                 !
 ! A14   A(5,7,9)              110.704          -DE/DX =    0.0                 !
 ! A15   A(5,7,10)             109.9438         -DE/DX =    0.0                 !
 ! A16   A(8,7,9)              108.4844         -DE/DX =    0.0                 !
 ! A17   A(8,7,10)             108.2995         -DE/DX =    0.0                 !
 ! A18   A(9,7,10)             108.6577         -DE/DX =    0.0                 !
 ! A19   A(5,11,12)            107.5352         -DE/DX =    0.0                 !
 ! A20   A(11,12,13)            99.8934         -DE/DX =    0.0                 !
 ! D1    D(2,1,5,6)            -59.4278         -DE/DX =    0.0                 !
 ! D2    D(2,1,5,7)             63.7193         -DE/DX =    0.0                 !
 ! D3    D(2,1,5,11)          -179.0563         -DE/DX =    0.0                 !
 ! D4    D(3,1,5,6)           -179.3932         -DE/DX =    0.0                 !
 ! D5    D(3,1,5,7)            -56.2461         -DE/DX =    0.0                 !
 ! D6    D(3,1,5,11)            60.9783         -DE/DX =    0.0                 !
 ! D7    D(4,1,5,6)             60.0765         -DE/DX =    0.0                 !
 ! D8    D(4,1,5,7)           -176.7765         -DE/DX =    0.0                 !
 ! D9    D(4,1,5,11)           -59.5521         -DE/DX =    0.0                 !
 ! D10   D(1,5,7,8)             58.9613         -DE/DX =    0.0                 !
 ! D11   D(1,5,7,9)            179.2918         -DE/DX =    0.0                 !
 ! D12   D(1,5,7,10)           -60.6445         -DE/DX =    0.0                 !
 ! D13   D(6,5,7,8)           -177.8803         -DE/DX =    0.0                 !
 ! D14   D(6,5,7,9)            -57.5499         -DE/DX =    0.0                 !
 ! D15   D(6,5,7,10)            62.5138         -DE/DX =    0.0                 !
 ! D16   D(11,5,7,8)           -62.6674         -DE/DX =    0.0                 !
 ! D17   D(11,5,7,9)            57.6631         -DE/DX =    0.0                 !
 ! D18   D(11,5,7,10)          177.7268         -DE/DX =    0.0                 !
 ! D19   D(1,5,11,12)           68.3896         -DE/DX =    0.0                 !
 ! D20   D(6,5,11,12)          -52.3922         -DE/DX =    0.0                 !
 ! D21   D(7,5,11,12)         -168.9728         -DE/DX =    0.0                 !
 ! D22   D(5,11,12,13)        -115.5287         -DE/DX =    0.0                 !
 --------------------------------------------------------------------------------
 GradGradGradGradGradGradGradGradGradGradGradGradGradGradGradGradGradGrad

 Leave Link  103 at Sat Aug 22 22:08:52 2015, MaxMem= 3758096384 cpu:       0.1
 (Enter /share/apps/g09/l9999.exe)
 1\1\GINC-COMPUTE-0-9\Freq\RB3LYP\6-31G(d)\C3H8O2\HETANJIN\22-Aug-2015\
 0\\#P Geom=AllCheck Guess=TCheck SCRF=Check GenChk RB3LYP/6-31G(d) Fre
 q\\using ub3lyp/6-31G(d) to scan\\0,1\C,-2.6694549161,-0.3276742974,0.
 1746436752\H,-2.4541427712,-1.3858337784,-0.012357153\H,-2.377618168,0
 .2452069624,-0.7137812819\H,-3.7481943128,-0.2235052524,0.3235889924\C
 ,-1.9113745453,0.1662459489,1.4043608976\H,-2.204946672,-0.4227290128,
 2.2840703939\C,-0.3945788743,0.1230502816,1.2362144458\H,-0.0820048539
 ,0.73699437,0.3842587003\H,0.1050105698,0.4967932222,2.134925591\H,-0.
 067883897,-0.9065336105,1.0563065173\O,-2.193149576,1.5466708217,1.685
 0023527\O,-3.5816592431,1.6319475353,2.1188218466\H,-3.9509704301,2.16
 66853993,1.393649852\\Version=EM64L-G09RevA.01\State=1-A\HF=-269.48550
 75\RMSD=1.747e-09\RMSF=1.757e-05\ZeroPoint=0.1118141\Thermal=0.118495\
 Dipole=-0.0500804,-0.2868926,-0.620733\DipoleDeriv=-0.0300667,-0.03977
 36,-0.0989585,0.0329432,0.0298044,-0.0602371,-0.0622992,-0.0838083,-0.
 0184367,0.0656258,0.0511408,0.0014044,0.0388104,-0.1332278,-0.0475791,
 0.0025321,-0.0313739,0.0340964,0.0326154,-0.0407997,0.0500627,-0.03857
 19,-0.0041646,0.1014074,0.0171483,0.0592984,-0.086102,-0.1367085,0.003
 1584,-0.0104213,0.0278754,0.0820924,0.0132001,0.0083706,0.0047614,0.04
 3398,0.3840149,-0.028983,0.0577808,-0.1672713,0.6728085,0.1553388,0.02
 93645,0.1315661,0.4590541,-0.0197559,-0.0499409,0.0345192,0.019358,-0.
 0725527,0.0359597,0.025066,0.076538,-0.1381908,-0.0251447,0.0167556,0.
 0015073,0.0755423,0.0292296,-0.0507894,-0.0213507,-0.0346578,0.0808306
 ,0.027782,-0.0126312,0.0123139,-0.0509856,0.0089923,0.0902836,0.055947
 ,0.0884691,-0.060096,-0.013338,-0.0345553,-0.0658684,-0.0572274,0.0558
 98,-0.0528699,-0.0826849,-0.0502208,-0.0610994,0.0094896,0.0441912,0.0
 200655,0.0618951,-0.1079637,-0.0313372,0.0229101,-0.0353844,0.0633997,
 -0.082774,-0.049431,-0.0825795,-0.0062182,-0.5011657,-0.0936401,0.0029
 017,-0.0610801,-0.3446371,-0.4421095,0.1195786,0.0816468,0.072911,-0.3
 741278,-0.1641809,-0.0001288,-0.1520067,-0.1283198,0.2303695,0.0212903
 ,-0.0014729,-0.009061,0.3143771,0.1044443,0.0022234,0.0878992,0.156103
 \Polar=47.5513892,-5.0029958,40.2341834,-0.9065618,1.6061197,38.029837
 1\PG=C01 [X(C3H8O2)]\NImag=0\\0.56304146,-0.01776615,0.57393288,-0.042
 70042,-0.02816775,0.51301717,-0.05868518,0.05209662,0.00826843,0.06014
 119,0.05089123,-0.29537730,-0.04283584,-0.05660002,0.32050337,0.007914
 81,-0.04130806,-0.05727688,-0.00828388,0.04752453,0.05747941,-0.070911
 26,-0.03867111,0.05846651,0.00116264,0.00351489,-0.00661938,0.07196588
 ,-0.03712349,-0.12257393,0.11166374,-0.00969102,-0.01507458,0.02618514
 ,0.04265468,0.12828339,0.05771577,0.11037901,-0.21724992,-0.00249167,-
 0.00323820,0.00616281,-0.06163899,-0.12248684,0.23818185,-0.30925133,0
 .02532494,0.03799183,-0.00473240,0.00055264,0.00081225,-0.00646819,0.0
 0086414,0.00092981,0.33637437,0.02616080,-0.05213389,-0.00161723,0.032
 75093,-0.00161675,-0.00442270,-0.01875881,0.00199894,0.00155943,-0.028
 88566,0.05210654,0.04015948,-0.00224734,-0.05512586,0.00502172,0.00002
 552,-0.00176271,0.02597553,-0.00446669,-0.00302521,-0.04106993,0.00423
 443,0.05687455,-0.11305951,-0.01137579,-0.04651811,0.00342603,0.003625
 81,0.00894740,0.00403506,0.00299661,0.00750606,-0.01690416,-0.01165420
 ,-0.02964326,0.52225485,-0.01662516,-0.08104502,-0.01866123,-0.0164077
 9,-0.00980551,-0.02487641,0.01130879,0.00489795,0.01744611,0.00177016,
 0.00054405,0.00445988,0.04956722,0.47571067,-0.04588958,-0.01480211,-0
 .16083321,0.00019976,0.00176706,-0.00077220,-0.01495556,-0.00972508,-0
 .02533104,0.00304296,0.00221669,0.00551324,-0.02654479,-0.06717719,0.5
 6185854,0.00487176,0.00764428,-0.01604554,0.00045644,-0.00011871,0.000
 67760,-0.00123384,-0.00107105,-0.00348232,0.00070717,0.00065961,0.0005
 6971,-0.07068802,-0.03932575,0.05549229,0.07654213,0.00165125,0.007840
 12,-0.00830597,0.00063911,0.00059885,0.00108856,-0.00147996,0.00021382
 ,-0.00253358,-0.00002684,-0.00000948,0.00042384,-0.03295540,-0.1096179
 3,0.10110812,0.03925080,0.13743046,0.00687347,0.01347764,-0.02330094,0
 .00045039,-0.00048868,0.00046381,-0.00320750,-0.00222707,-0.00363777,-
 0.00024495,0.00015201,0.00106854,0.05583645,0.10519379,-0.22165494,-0.
 05828458,-0.11161929,0.23494648,-0.02099579,-0.00228602,-0.00235812,0.
 00027493,0.00064877,0.00068804,0.00146716,0.00046946,0.00171572,-0.000
 32842,-0.00061537,-0.00142194,-0.19020482,-0.00432843,0.01321778,-0.01
 082221,0.00015241,0.00060454,0.48174763,-0.01150572,0.00310820,0.00214
 225,-0.00001112,-0.00007749,0.00026094,0.00103081,0.00016545,0.0002697
 6,-0.00156709,-0.00081355,-0.00264616,-0.01021583,-0.07946135,0.003944
 52,-0.01798311,0.00289952,0.00116466,0.00065303,0.58714575,-0.02954000
 ,0.00207838,0.00329420,0.00052575,0.00044662,0.00080155,-0.00059775,-0
 .00003372,0.00101940,-0.00406318,-0.00210021,-0.00469724,0.01291691,0.
 00191210,-0.08493867,0.02672726,-0.00221247,-0.00184361,0.01418547,0.0
 0535167,0.58724755,0.00194446,-0.00010990,0.00160951,-0.00005267,0.000
 02158,-0.00010398,-0.00020912,0.00018203,-0.00111746,0.00027855,0.0004
 0916,-0.00020972,-0.01062250,-0.02167648,0.02897286,-0.00645830,0.0010
 9510,0.00023498,-0.06927261,-0.04031758,0.05442349,0.07551103,0.000118
 42,-0.00022645,0.00017827,-0.00009775,0.00000453,0.00006039,-0.0003719
 1,0.00017927,-0.00034729,0.00007095,0.00011839,-0.00026867,0.00030454,
 -0.00030607,-0.00123733,0.00025414,0.00085964,-0.00038503,-0.04156135,
 -0.13310818,0.11547884,0.04591450,0.14004432,-0.00059198,-0.00086876,0
 .00098298,-0.00007406,-0.00009340,0.00002097,0.00009558,0.00020892,0.0
 0044863,0.00006114,-0.00010126,0.00007680,0.00198892,0.00164183,-0.004
 19844,0.00057607,-0.00034224,0.00124247,0.05565048,0.11567398,-0.21115
 540,-0.06256380,-0.12833383,0.22618545,-0.00642135,0.00158564,0.002861
 78,0.00022376,-0.00010194,0.00025664,0.00011610,0.00021408,0.00003496,
 -0.00111976,-0.00072966,-0.00184812,-0.01549683,-0.01257199,-0.0305385
 3,0.00138119,-0.00020891,0.00028075,-0.10255781,-0.04084488,-0.0974792
 2,0.00440500,0.00451118,0.00784250,0.11188615,-0.00006964,0.00019682,0
 .00032140,0.00020382,0.00030676,0.00023063,-0.00006839,0.00003957,-0.0
 0031618,0.00008788,0.00042069,-0.00025092,0.00061987,-0.00123898,0.001
 11686,-0.00017879,-0.00017805,-0.00017683,-0.04228220,-0.08107580,-0.0
 7533942,0.00986717,0.00748201,0.01605416,0.04625831,0.08259672,0.00030
 809,-0.00027749,0.00069172,0.00011092,-0.00002362,-0.00010543,0.000294
 27,-0.00012577,0.00040966,0.00020655,-0.00018451,0.00028081,0.00264808
 ,0.00233134,0.00434041,-0.00049739,0.00022463,0.00089114,-0.09996056,-
 0.07527722,-0.23488915,-0.01103331,-0.00968390,-0.01958113,0.10859431,
 0.08342747,0.25085627,0.00114771,0.00016214,-0.00010567,-0.00060652,-0
 .00060010,-0.00056777,-0.00010812,-0.00004350,-0.00007229,0.00038920,-
 0.00020239,0.00038563,-0.00596780,0.03393368,0.00471630,0.00132345,-0.
 00067702,0.00033534,-0.07115094,0.07273395,0.01226138,0.00253528,-0.00
 926526,-0.00286317,0.00484869,-0.01504201,-0.00085679,0.07621519,-0.00
 039720,-0.00027549,-0.00015572,-0.00006636,0.00060394,0.00008744,0.000
 05680,-0.00002181,-0.00004357,0.00006981,0.00029710,0.00008814,-0.0017
 5660,-0.00089348,0.00021026,0.00048757,0.00044564,-0.00021122,0.074569
 03,-0.28591128,-0.04114748,0.00498849,-0.01598994,-0.00380765,0.002597
 31,-0.00902994,-0.00071640,-0.08087094,0.30943379,-0.00031668,0.000091
 69,-0.00001908,-0.00034439,-0.00006065,0.00014480,-0.00008780,0.000143
 21,-0.00000752,0.00012219,0.00002725,-0.00011589,0.00042456,-0.0037884
 5,-0.00254793,-0.00025577,-0.00001980,-0.00011554,0.01277492,-0.041164
 83,-0.05504737,-0.00903816,0.02498516,0.00560320,0.00964997,-0.0257335
 7,-0.00322293,-0.01457336,0.04577610,0.05488439,0.00665219,-0.01511388
 ,-0.00004780,-0.00241186,-0.00131954,-0.00322970,0.00044056,0.00035636
 ,0.00064133,-0.00090701,0.00015679,0.00086473,-0.07086523,0.01037853,0
 .00303672,0.00117101,-0.00510246,-0.00147280,-0.02231577,0.03742774,0.
 00874459,0.00162321,0.00050533,-0.00014690,0.00174737,0.00107478,0.000
 30110,-0.00578153,0.00089053,0.00113354,0.33256914,0.00558050,-0.03422
 130,-0.01354871,-0.00344687,-0.00048425,-0.00523175,0.00026215,0.00216
 496,-0.00030457,0.00034309,0.00057315,0.00135384,-0.03668100,-0.201161
 56,-0.00734180,0.01039754,-0.04433299,-0.00459432,0.01370760,-0.004201
 44,-0.00175233,-0.00084492,0.00103012,0.00036290,-0.00049137,0.0005086
 6,-0.00001834,-0.00271762,0.00102496,0.00022590,-0.02241176,0.33463881
 ,0.00607429,-0.03754020,-0.00351888,-0.00410836,-0.00353162,-0.0055633
 7,0.00168616,0.00087941,0.00353264,0.00060260,0.00086559,0.00148700,0.
 00174171,-0.01635758,-0.06470111,-0.00343685,0.02346468,0.01139648,0.0
 0666422,-0.00799640,0.00000768,-0.00060404,-0.00052259,0.00021056,-0.0
 0020363,0.00053202,0.00005596,0.00088542,-0.00031397,-0.00051181,-0.05
 786267,0.03032786,0.09138055,0.00081184,-0.00156512,-0.00115739,0.0008
 3710,-0.00042182,-0.00054896,-0.00009737,0.00014908,0.00014096,0.00178
 871,0.00058950,0.00101325,-0.02992124,0.00486065,0.01014412,0.00286748
 ,-0.00178272,-0.00132805,0.00422246,0.00889333,0.00167393,0.00037175,-
 0.00035982,-0.00010422,0.00077392,-0.00048660,-0.00014289,-0.00237514,
 -0.00051273,0.00017425,-0.20856904,0.01073657,0.06968109,0.31071038,-0
 .00218417,0.00003440,-0.00095725,0.00123572,0.00019221,0.00032980,0.00
 058379,-0.00023227,-0.00026508,0.00212850,-0.00043551,-0.00046704,0.04
 396009,0.00478628,-0.01189834,0.00012839,0.00311745,0.00016407,0.00080
 193,-0.00851158,-0.00189109,0.00027717,-0.00007155,-0.00039842,-0.0000
 2207,0.00000197,0.00033246,0.00247847,0.00030369,-0.00046910,0.0008213
 3,-0.05614173,0.01063623,-0.12499628,0.20674487,0.00004345,-0.00076525
 ,-0.00074628,0.00095615,0.00027990,0.00057719,0.00036013,0.00003292,-0
 .00014873,0.00184453,-0.00004240,-0.00049626,0.00666081,-0.00364904,-0
 .00807507,-0.00206414,-0.00084261,0.00067431,-0.00184728,-0.00013563,0
 .00062422,-0.00055417,-0.00000925,0.00017256,0.00075594,0.00008040,0.0
 0029511,-0.00003769,0.00032491,0.00110214,0.03194496,0.01510946,-0.046
 00536,0.05109978,-0.21230121,0.35301013,0.00085502,0.00007434,-0.00026
 500,-0.00003347,-0.00009279,0.00005693,-0.00015950,0.00004262,0.000118
 11,0.00017327,0.00011931,0.00020292,-0.00598583,-0.00088344,-0.0008943
 3,-0.00011827,-0.00055535,-0.00007805,-0.00006380,0.00170647,0.0002213
 8,-0.00005407,-0.00002297,0.00012945,0.00021357,0.00001581,0.00002762,
 -0.00046947,-0.00005570,0.00033673,-0.03335304,0.02556609,-0.02111995,
 -0.08142086,0.07478712,-0.08916247,0.12041646,0.00126933,0.00074096,-0
 .00005596,-0.00060527,0.00022623,0.00007150,-0.00006173,-0.00004076,-0
 .00011900,-0.00073252,-0.00104968,-0.00023884,0.00356468,-0.00240906,0
 .00181836,-0.00014493,0.00073295,-0.00044974,0.00007114,-0.00015825,-0
 .00079089,0.00019368,-0.00001608,0.00000376,-0.00019571,-0.00003043,-0
 .00000864,0.00011061,0.00001282,-0.00001290,-0.00766375,0.00060263,-0.
 00044344,0.10489597,-0.14978822,0.20191779,-0.10070150,0.15117689,-0.0
 0005071,-0.00004974,0.00008498,-0.00023076,0.00022837,-0.00016995,0.00
 022882,-0.00004816,-0.00035480,-0.00023580,-0.00058708,-0.00007776,0.0
 0403526,0.00152485,0.00134042,0.00002367,-0.00043387,-0.00013043,0.000
 08672,-0.00158755,-0.00042314,-0.00001619,0.00008524,-0.00000864,-0.00
 020735,0.00005396,-0.00002244,0.00049265,-0.00009085,-0.00014646,0.016
 09291,-0.01458813,0.01222966,-0.13064587,0.21718496,-0.30098395,0.1104
 2666,-0.20169200,0.28866251\\0.00003825,0.00002125,-0.00002048,0.00000
 947,0.00000327,0.00000472,-0.00000129,-0.00000822,0.00000078,-0.000019
 05,-0.00000169,0.00000180,0.00001971,0.00003648,0.00000367,-0.00000352
 ,-0.00001917,0.00001213,0.00000375,-0.00003707,-0.00000992,-0.00001339
 ,-0.00000201,0.00001050,-0.00000365,0.00000583,0.00001225,0.00000957,0
 .00000453,0.00000250,-0.00005915,-0.00000449,-0.00000224,0.00002301,-0
 .00000692,0.00000773,-0.00000372,0.00000823,-0.00002344\\\@


 FROM WHENCE IT HAPPENS, THAT THEY WHICH TRUST TO BOOKS, DO AS THEY THAT CAST UP MANY LITTLE SUMMS INTO GREATER,
 WITHOUT CONSIDERING WETHER THOSE LITTLE SUMMES WERE RIGHTLY CAST UP OR NOT...
 AND AT LAST FINDING THE ERROUR VISIBLE, AND NOT MISTRUSTING THEIR FIRST GROUNDS,
 KNOW NOT WHICH WAY TO CLEERE THEMSELVES...
 BUT SPEND TIME IN FLUTTERING OVER THEIR BOOKES....
 AS BIRDS THAT ENTERING BY THE CHIMNEY, AND FINDING THEMSELVES INCLOSED IN A CHAMBER,
 FLUTTER AT THE FALSE LIGHT OF A GLASSE WINDOW,
 FOR WANT OF WIT TO CONSIDER WHICH WAY THEY CAME IN....
           LEVIATHAN
 Job cpu time:  0 days  0 hours  2 minutes 43.2 seconds.
 File lengths (MBytes):  RWF=     18 Int=      0 D2E=      0 Chk=      2 Scr=      1
 Normal termination of Gaussian 09 at Sat Aug 22 22:08:52 2015.
