 Entering Gaussian System, Link 0=/share/apps/g09/g09
 Input=C4H9OH_2_2_opt_631gd.gjf
 Output=C4H9OH_2_2_opt_631gd.log
 Initial command:
 /share/apps/g09/l1.exe /state/partition1/Gau-11894.inp -scrdir=/state/partition1/
 Entering Link 1 = /share/apps/g09/l1.exe PID=     11897.
  
 Copyright (c) 1988,1990,1992,1993,1995,1998,2003,2009, Gaussian, Inc.
                  All Rights Reserved.
  
 This is part of the Gaussian(R) 09 program.  It is based on
 the Gaussian(R) 03 system (copyright 2003, Gaussian, Inc.),
 the Gaussian(R) 98 system (copyright 1998, Gaussian, Inc.),
 the Gaussian(R) 94 system (copyright 1995, Gaussian, Inc.),
 the Gaussian 92(TM) system (copyright 1992, Gaussian, Inc.),
 the Gaussian 90(TM) system (copyright 1990, Gaussian, Inc.),
 the Gaussian 88(TM) system (copyright 1988, Gaussian, Inc.),
 the Gaussian 86(TM) system (copyright 1986, Carnegie Mellon
 University), and the Gaussian 82(TM) system (copyright 1983,
 Carnegie Mellon University). Gaussian is a federally registered
 trademark of Gaussian, Inc.
  
 This software contains proprietary and confidential information,
 including trade secrets, belonging to Gaussian, Inc.
  
 This software is provided under written license and may be
 used, copied, transmitted, or stored only in accord with that
 written license.
  
 The following legend is applicable only to US Government
 contracts under FAR:
  
                    RESTRICTED RIGHTS LEGEND
  
 Use, reproduction and disclosure by the US Government is
 subject to restrictions as set forth in subparagraphs (a)
 and (c) of the Commercial Computer Software - Restricted
 Rights clause in FAR 52.227-19.
  
 Gaussian, Inc.
 340 Quinnipiac St., Bldg. 40, Wallingford CT 06492
  
  
 ---------------------------------------------------------------
 Warning -- This program may not be used in any manner that
 competes with the business of Gaussian, Inc. or will provide
 assistance to any competitor of Gaussian, Inc.  The licensee
 of this program is prohibited from giving any competitor of
 Gaussian, Inc. access to this program.  By using this program,
 the user acknowledges that Gaussian, Inc. is engaged in the
 business of creating and licensing software in the field of
 computational chemistry and represents and warrants to the
 licensee that it is not a competitor of Gaussian, Inc. and that
 it will not use this program in any manner prohibited above.
 ---------------------------------------------------------------
  

 Cite this work as:
 Gaussian 09, Revision A.01,
 M. J. Frisch, G. W. Trucks, H. B. Schlegel, G. E. Scuseria, 
 M. A. Robb, J. R. Cheeseman, G. Scalmani, V. Barone, B. Mennucci, 
 G. A. Petersson, H. Nakatsuji, M. Caricato, X. Li, H. P. Hratchian, 
 A. F. Izmaylov, J. Bloino, G. Zheng, J. L. Sonnenberg, M. Hada, 
 M. Ehara, K. Toyota, R. Fukuda, J. Hasegawa, M. Ishida, T. Nakajima, 
 Y. Honda, O. Kitao, H. Nakai, T. Vreven, J. A. Montgomery, Jr., 
 J. E. Peralta, F. Ogliaro, M. Bearpark, J. J. Heyd, E. Brothers, 
 K. N. Kudin, V. N. Staroverov, R. Kobayashi, J. Normand, 
 K. Raghavachari, A. Rendell, J. C. Burant, S. S. Iyengar, J. Tomasi, 
 M. Cossi, N. Rega, J. M. Millam, M. Klene, J. E. Knox, J. B. Cross, 
 V. Bakken, C. Adamo, J. Jaramillo, R. Gomperts, R. E. Stratmann, 
 O. Yazyev, A. J. Austin, R. Cammi, C. Pomelli, J. W. Ochterski, 
 R. L. Martin, K. Morokuma, V. G. Zakrzewski, G. A. Voth, 
 P. Salvador, J. J. Dannenberg, S. Dapprich, A. D. Daniels, 
 O. Farkas, J. B. Foresman, J. V. Ortiz, J. Cioslowski, 
 and D. J. Fox, Gaussian, Inc., Wallingford CT, 2009.
 
 ******************************************
 Gaussian 09:  EM64L-G09RevA.01  8-May-2009
                23-Aug-2015 
 ******************************************
 %mem=28GB
 %nprocshared=12
 Will use up to   12 processors via shared memory.
 %chk=C4H9OH_2_2_opt_631gd.chk
 --------------------------
 #p b3lyp/6-31g(d) opt freq
 --------------------------
 1/14=-1,18=20,19=15,26=3,38=1/1,3;
 2/9=110,12=2,17=6,18=5,40=1/2;
 3/5=1,6=6,7=1,11=2,16=1,25=1,30=1,71=1,74=-5/1,2,3;
 4//1;
 5/5=2,38=5/2;
 6/7=2,8=2,9=2,10=2,28=1/1;
 7//1,2,3,16;
 1/14=-1,18=20,19=15/3(2);
 2/9=110/2;
 99//99;
 2/9=110/2;
 3/5=1,6=6,7=1,11=2,16=1,25=1,30=1,71=1,74=-5/1,2,3;
 4/5=5,16=3/1;
 5/5=2,38=5/2;
 7//1,2,3,16;
 1/14=-1,18=20,19=15/3(-5);
 2/9=110/2;
 6/7=2,8=2,9=2,10=2,19=2,28=1/1;
 99/9=1/99;
 Leave Link    1 at Sun Aug 23 11:16:00 2015, MaxMem= 3758096384 cpu:       0.5
 (Enter /share/apps/g09/l101.exe)
 -----------------------------
 using ub3lyp/6-31G(d) to scan
 -----------------------------
 Symbolic Z-matrix:
 Charge =  0 Multiplicity = 1
 C                     1.82796  -0.67067   0.10775 
 H                     2.0202   -0.63185  -0.97348 
 H                     1.81927  -1.72595   0.40505 
 H                     2.65722  -0.17165   0.6189 
 C                     0.50353   0.01568   0.44784 
 H                     0.34028  -0.0401    1.5318 
 C                    -0.6939   -0.63125  -0.26413 
 H                    -0.70173  -1.70612  -0.03671 
 H                    -0.53524  -0.55274  -1.35159 
 C                    -2.03774  -0.00241   0.11355 
 H                    -2.02822   1.07405  -0.08251 
 H                    -2.86096  -0.45121  -0.45336 
 H                    -2.25097  -0.142     1.18038 
 O                     0.5743    1.42124   0.18365 
 H                     0.71091   1.5249   -0.77261 
 
 NAtoms=     15 NQM=     15 NQMF=      0 NMic=      0 NMicF=      0 NTot=     15.
                    Isotopes and Nuclear Properties:
 (Nuclear quadrupole moments (NQMom) in fm**2, nuclear magnetic moments (NMagM)
  in nuclear magnetons)

  Atom         1           2           3           4           5           6           7           8           9          10
 IAtWgt=          12           1           1           1          12           1          12           1           1          12
 AtmWgt=  12.0000000   1.0078250   1.0078250   1.0078250  12.0000000   1.0078250  12.0000000   1.0078250   1.0078250  12.0000000
 NucSpn=           0           1           1           1           0           1           0           1           1           0
 AtZEff=   0.0000000   0.0000000   0.0000000   0.0000000   0.0000000   0.0000000   0.0000000   0.0000000   0.0000000   0.0000000
 NQMom=    0.0000000   0.0000000   0.0000000   0.0000000   0.0000000   0.0000000   0.0000000   0.0000000   0.0000000   0.0000000
 NMagM=    0.0000000   2.7928460   2.7928460   2.7928460   0.0000000   2.7928460   0.0000000   2.7928460   2.7928460   0.0000000

  Atom        11          12          13          14          15
 IAtWgt=           1           1           1          16           1
 AtmWgt=   1.0078250   1.0078250   1.0078250  15.9949146   1.0078250
 NucSpn=           1           1           1           0           1
 AtZEff=   0.0000000   0.0000000   0.0000000   0.0000000   0.0000000
 NQMom=    0.0000000   0.0000000   0.0000000   0.0000000   0.0000000
 NMagM=    2.7928460   2.7928460   2.7928460   0.0000000   2.7928460
 Leave Link  101 at Sun Aug 23 11:16:00 2015, MaxMem= 3758096384 cpu:       0.6
 (Enter /share/apps/g09/l103.exe)

 GradGradGradGradGradGradGradGradGradGradGradGradGradGradGradGradGradGrad
 Berny optimization.
 Initialization pass.
                           ----------------------------
                           !    Initial Parameters    !
                           ! (Angstroms and Degrees)  !
 --------------------------                            --------------------------
 ! Name  Definition              Value          Derivative Info.                !
 --------------------------------------------------------------------------------
 ! R1    R(1,2)                  1.0989         estimate D2E/DX2                !
 ! R2    R(1,3)                  1.0964         estimate D2E/DX2                !
 ! R3    R(1,4)                  1.0945         estimate D2E/DX2                !
 ! R4    R(1,5)                  1.53           estimate D2E/DX2                !
 ! R5    R(5,6)                  1.0976         estimate D2E/DX2                !
 ! R6    R(5,7)                  1.536          estimate D2E/DX2                !
 ! R7    R(5,14)                 1.4319         estimate D2E/DX2                !
 ! R8    R(7,8)                  1.0987         estimate D2E/DX2                !
 ! R9    R(7,9)                  1.1018         estimate D2E/DX2                !
 ! R10   R(7,10)                 1.531          estimate D2E/DX2                !
 ! R11   R(10,11)                1.0942         estimate D2E/DX2                !
 ! R12   R(10,12)                1.0957         estimate D2E/DX2                !
 ! R13   R(10,13)                1.0968         estimate D2E/DX2                !
 ! R14   R(14,15)                0.9715         estimate D2E/DX2                !
 ! A1    A(2,1,3)              107.59           estimate D2E/DX2                !
 ! A2    A(2,1,4)              108.1113         estimate D2E/DX2                !
 ! A3    A(2,1,5)              110.751          estimate D2E/DX2                !
 ! A4    A(3,1,4)              108.5542         estimate D2E/DX2                !
 ! A5    A(3,1,5)              111.3853         estimate D2E/DX2                !
 ! A6    A(4,1,5)              110.3353         estimate D2E/DX2                !
 ! A7    A(1,5,6)              108.9942         estimate D2E/DX2                !
 ! A8    A(1,5,7)              112.5117         estimate D2E/DX2                !
 ! A9    A(1,5,14)             110.8882         estimate D2E/DX2                !
 ! A10   A(6,5,7)              108.6876         estimate D2E/DX2                !
 ! A11   A(6,5,14)             103.8538         estimate D2E/DX2                !
 ! A12   A(7,5,14)             111.4958         estimate D2E/DX2                !
 ! A13   A(5,7,8)              108.7632         estimate D2E/DX2                !
 ! A14   A(5,7,9)              108.3746         estimate D2E/DX2                !
 ! A15   A(5,7,10)             113.3872         estimate D2E/DX2                !
 ! A16   A(8,7,9)              105.9641         estimate D2E/DX2                !
 ! A17   A(8,7,10)             110.1518         estimate D2E/DX2                !
 ! A18   A(9,7,10)             109.9145         estimate D2E/DX2                !
 ! A19   A(7,10,11)            110.6237         estimate D2E/DX2                !
 ! A20   A(7,10,12)            111.3218         estimate D2E/DX2                !
 ! A21   A(7,10,13)            110.9957         estimate D2E/DX2                !
 ! A22   A(11,10,12)           108.4691         estimate D2E/DX2                !
 ! A23   A(11,10,13)           107.5278         estimate D2E/DX2                !
 ! A24   A(12,10,13)           107.762          estimate D2E/DX2                !
 ! A25   A(5,14,15)            107.055          estimate D2E/DX2                !
 ! D1    D(2,1,5,6)            179.9725         estimate D2E/DX2                !
 ! D2    D(2,1,5,7)             59.344          estimate D2E/DX2                !
 ! D3    D(2,1,5,14)           -66.2986         estimate D2E/DX2                !
 ! D4    D(3,1,5,6)             60.2741         estimate D2E/DX2                !
 ! D5    D(3,1,5,7)            -60.3544         estimate D2E/DX2                !
 ! D6    D(3,1,5,14)           174.003          estimate D2E/DX2                !
 ! D7    D(4,1,5,6)            -60.3615         estimate D2E/DX2                !
 ! D8    D(4,1,5,7)            179.01           estimate D2E/DX2                !
 ! D9    D(4,1,5,14)            53.3674         estimate D2E/DX2                !
 ! D10   D(1,5,7,8)             54.3469         estimate D2E/DX2                !
 ! D11   D(1,5,7,9)            -60.4193         estimate D2E/DX2                !
 ! D12   D(1,5,7,10)           177.2574         estimate D2E/DX2                !
 ! D13   D(6,5,7,8)            -66.4577         estimate D2E/DX2                !
 ! D14   D(6,5,7,9)            178.7762         estimate D2E/DX2                !
 ! D15   D(6,5,7,10)            56.4528         estimate D2E/DX2                !
 ! D16   D(14,5,7,8)           179.659          estimate D2E/DX2                !
 ! D17   D(14,5,7,9)            64.8928         estimate D2E/DX2                !
 ! D18   D(14,5,7,10)          -57.4305         estimate D2E/DX2                !
 ! D19   D(1,5,14,15)           63.5943         estimate D2E/DX2                !
 ! D20   D(6,5,14,15)         -179.4743         estimate D2E/DX2                !
 ! D21   D(7,5,14,15)          -62.6149         estimate D2E/DX2                !
 ! D22   D(5,7,10,11)           56.1982         estimate D2E/DX2                !
 ! D23   D(5,7,10,12)          176.8789         estimate D2E/DX2                !
 ! D24   D(5,7,10,13)          -63.0838         estimate D2E/DX2                !
 ! D25   D(8,7,10,11)          178.3395         estimate D2E/DX2                !
 ! D26   D(8,7,10,12)          -60.9799         estimate D2E/DX2                !
 ! D27   D(8,7,10,13)           59.0574         estimate D2E/DX2                !
 ! D28   D(9,7,10,11)          -65.266          estimate D2E/DX2                !
 ! D29   D(9,7,10,12)           55.4147         estimate D2E/DX2                !
 ! D30   D(9,7,10,13)          175.4519         estimate D2E/DX2                !
 --------------------------------------------------------------------------------
 Trust Radius=3.00D-01 FncErr=1.00D-07 GrdErr=1.00D-06
 Number of steps in this run=  79 maximum allowed number of steps= 100.
 GradGradGradGradGradGradGradGradGradGradGradGradGradGradGradGradGradGrad

 Leave Link  103 at Sun Aug 23 11:16:01 2015, MaxMem= 3758096384 cpu:       0.1
 (Enter /share/apps/g09/l202.exe)
                          Input orientation:                          
 ---------------------------------------------------------------------
 Center     Atomic      Atomic             Coordinates (Angstroms)
 Number     Number       Type             X           Y           Z
 ---------------------------------------------------------------------
      1          6           0        1.827963   -0.670673    0.107746
      2          1           0        2.020203   -0.631853   -0.973484
      3          1           0        1.819270   -1.725951    0.405052
      4          1           0        2.657224   -0.171646    0.618903
      5          6           0        0.503532    0.015680    0.447840
      6          1           0        0.340284   -0.040103    1.531799
      7          6           0       -0.693902   -0.631245   -0.264127
      8          1           0       -0.701733   -1.706124   -0.036706
      9          1           0       -0.535241   -0.552742   -1.351589
     10          6           0       -2.037742   -0.002411    0.113554
     11          1           0       -2.028219    1.074045   -0.082505
     12          1           0       -2.860958   -0.451207   -0.453360
     13          1           0       -2.250969   -0.142003    1.180384
     14          8           0        0.574302    1.421243    0.183648
     15          1           0        0.710911    1.524903   -0.772605
 ---------------------------------------------------------------------
                    Distance matrix (angstroms):
                    1          2          3          4          5
     1  C    0.000000
     2  H    1.098873   0.000000
     3  H    1.096393   1.771380   0.000000
     4  H    1.094524   1.775748   1.778697   0.000000
     5  C    1.529988   2.177097   2.183180   2.168581   0.000000
     6  H    2.153772   3.073880   2.509789   2.493771   1.097601
     7  C    2.549441   2.805272   2.821740   3.495857   1.535987
     8  H    2.737222   3.072547   2.559492   3.750605   2.156863
     9  H    2.779982   2.584476   3.163215   3.770929   2.154089
    10  C    3.923045   4.247913   4.234631   4.725116   2.563230
    11  H    4.236788   4.482594   4.783394   4.898683   2.794846
    12  H    4.727471   4.912117   4.926092   5.628342   3.514248
    13  H    4.250615   4.808535   4.435863   4.940293   2.854603
    14  O    2.439988   2.764921   3.391725   2.658064   1.431926
    15  H    2.615985   2.531046   3.630893   2.933037   1.951985
                    6          7          8          9         10
     6  H    0.000000
     7  C    2.155073   0.000000
     8  H    2.514286   1.098702   0.000000
     9  H    3.056676   1.101776   1.756965   0.000000
    10  C    2.769088   1.531007   2.170285   2.169566   0.000000
    11  H    3.075241   2.172879   3.080747   2.546761   1.094206
    12  H    3.789171   2.182740   2.531930   2.495212   1.095671
    13  H    2.616958   2.179548   2.515535   3.085987   1.096849
    14  O    2.001951   2.453885   3.384855   2.735810   2.975647
    15  H    2.810140   2.623171   3.602311   2.490929   3.266965
                   11         12         13         14         15
    11  H    0.000000
    12  H    1.776902   0.000000
    13  H    1.767280   1.771105   0.000000
    14  O    2.639034   3.963945   3.379257   0.000000
    15  H    2.860480   4.094530   3.919882   0.971508   0.000000
 Stoichiometry    C4H10O
 Framework group  C1[X(C4H10O)]
 Deg. of freedom    39
 Full point group                 C1      NOp   1
 Largest Abelian subgroup         C1      NOp   1
 Largest concise Abelian subgroup C1      NOp   1
                         Standard orientation:                         
 ---------------------------------------------------------------------
 Center     Atomic      Atomic             Coordinates (Angstroms)
 Number     Number       Type             X           Y           Z
 ---------------------------------------------------------------------
      1          6           0       -1.806613   -0.660514   -0.003939
      2          1           0       -1.957085   -0.715608    1.083188
      3          1           0       -1.827826   -1.685066   -0.393711
      4          1           0       -2.645674   -0.106108   -0.435903
      5          6           0       -0.484078    0.034528   -0.333603
      6          1           0       -0.362976    0.073385   -1.423811
      7          6           0        0.727820   -0.690333    0.270662
      8          1           0        0.708044   -1.740629   -0.051258
      9          1           0        0.611835   -0.706940    1.366190
     10          6           0        2.067309   -0.049496   -0.102273
     11          1           0        2.084236    1.005194    0.188639
     12          1           0        2.903328   -0.558767    0.389875
     13          1           0        2.237513   -0.096345   -1.184822
     14          8           0       -0.519950    1.411770    0.056693
     15          1           0       -0.618423    1.431612    1.022993
 ---------------------------------------------------------------------
 Rotational constants (GHZ):      7.9534095      3.4125714      2.6508638
 Leave Link  202 at Sun Aug 23 11:16:01 2015, MaxMem= 3758096384 cpu:       0.1
 (Enter /share/apps/g09/l301.exe)
 Standard basis: 6-31G(d) (6D, 7F)
 Ernie: Thresh=  0.10000D-02 Tol=  0.10000D-05 Strict=F.
 There are    95 symmetry adapted basis functions of A   symmetry.
 Integral buffers will be    131072 words long.
 Raffenetti 2 integral format.
 Two-electron integral symmetry is turned on.
    95 basis functions,   180 primitive gaussians,    95 cartesian basis functions
    21 alpha electrons       21 beta electrons
       nuclear repulsion energy       192.7140339244 Hartrees.
 IExCor=  402 DFT=T Ex+Corr=B3LYP ExCW=0 ScaHFX=  0.200000
 ScaDFX=  0.800000  0.720000  1.000000  0.810000 ScalE2=  1.000000  1.000000
 IRadAn=      0 IRanWt=     -1 IRanGd=            0 ICorTp=0
 NAtoms=   15 NActive=   15 NUniq=   15 SFac= 7.50D-01 NAtFMM=   80 NAOKFM=F Big=F
 Leave Link  301 at Sun Aug 23 11:16:01 2015, MaxMem= 3758096384 cpu:       0.6
 (Enter /share/apps/g09/l302.exe)
 NPDir=0 NMtPBC=     1 NCelOv=     1 NCel=       1 NClECP=     1 NCelD=      1
         NCelK=      1 NCelE2=     1 NClLst=     1 CellRange=     0.0.
 One-electron integrals computed using PRISM.
 NBasis=    95 RedAO= T  NBF=    95
 NBsUse=    95 1.00D-06 NBFU=    95
 Precomputing XC quadrature grid using
 IXCGrd= 2 IRadAn=           0 IRanWt=          -1 IRanGd=           0 AccXCQ= 1.00D-10.
 NRdTot=     933 NPtTot=      118114 NUsed=      124853 NTot=      124885
 NSgBfM=    95    95    95    95    95 NAtAll=    15    15.
 Leave Link  302 at Sun Aug 23 11:16:02 2015, MaxMem= 3758096384 cpu:       2.8
 (Enter /share/apps/g09/l303.exe)
 DipDrv:  MaxL=1.
 Leave Link  303 at Sun Aug 23 11:16:02 2015, MaxMem= 3758096384 cpu:       0.3
 (Enter /share/apps/g09/l401.exe)
 Harris functional with IExCor=  402 diagonalized for initial guess.
 ExpMin= 1.61D-01 ExpMax= 5.48D+03 ExpMxC= 8.25D+02 IAcc=1 IRadAn=         1 AccDes= 0.00D+00
 HarFok:  IExCor=  402 AccDes= 0.00D+00 IRadAn=         1 IDoV= 1
 ScaDFX=  1.000000  1.000000  1.000000  1.000000
 FoFCou: FMM=F IPFlag=           0 FMFlag=      100000 FMFlg1=           0
         NFxFlg=           0 DoJE=T BraDBF=F KetDBF=T FulRan=T
         Omega=  0.000000  0.000000  1.000000  0.000000  0.000000 ICntrl=     500 IOpCl=  0
         NMat0=    1 NMatS0=    1 NMatT0=    0 NMatD0=    1 NMtDS0=    0 NMtDT0=    0
         I1Cent=           4 NGrid=           0.
 Petite list used in FoFCou.
 Harris En= -233.746828009620    
 Initial guess orbital symmetries:
       Occupied  (A) (A) (A) (A) (A) (A) (A) (A) (A) (A) (A) (A)
                 (A) (A) (A) (A) (A) (A) (A) (A) (A)
       Virtual   (A) (A) (A) (A) (A) (A) (A) (A) (A) (A) (A) (A)
                 (A) (A) (A) (A) (A) (A) (A) (A) (A) (A) (A) (A)
                 (A) (A) (A) (A) (A) (A) (A) (A) (A) (A) (A) (A)
                 (A) (A) (A) (A) (A) (A) (A) (A) (A) (A) (A) (A)
                 (A) (A) (A) (A) (A) (A) (A) (A) (A) (A) (A) (A)
                 (A) (A) (A) (A) (A) (A) (A) (A) (A) (A) (A) (A)
                 (A) (A)
 The electronic state of the initial guess is 1-A.
 Leave Link  401 at Sun Aug 23 11:16:02 2015, MaxMem= 3758096384 cpu:       3.0
 (Enter /share/apps/g09/l502.exe)
 Closed shell SCF:
 Requested convergence on RMS density matrix=1.00D-08 within 128 cycles.
 Requested convergence on MAX density matrix=1.00D-06.
 Requested convergence on             energy=1.00D-06.
 No special actions if energy rises.
 Using DIIS extrapolation, IDIIS=  1040.
 Integral symmetry usage will be decided dynamically.
       124705 words used for storage of precomputed grid.
 Keep R1 ints in memory in canonical form, NReq=11484897.
 IEnd=      171801 IEndB=      171801 NGot=  3758096384 MDV=  3747551236
 LenX=  3747551236 LenY=  3747541770
 Symmetry not used in FoFDir.
 MinBra= 0 MaxBra= 2 Meth= 1.
 IRaf=       0 NMat=   1 IRICut=       1 DoRegI=T DoRafI=F ISym2E= 0 JSym2E=0.
 Integral accuracy reduced to 1.0D-05 until final iterations.

 Cycle   1  Pass 0  IDiag  1:
 E= -233.448013827942    
 DIIS: error= 3.85D-02 at cycle   1 NSaved=   1.
 NSaved= 1 IEnMin= 1 EnMin= -233.448013827942     IErMin= 1 ErrMin= 3.85D-02
 ErrMax= 3.85D-02 EMaxC= 1.00D-01 BMatC= 2.14D-01 BMatP= 2.14D-01
 IDIUse=3 WtCom= 6.15D-01 WtEn= 3.85D-01
 Coeff-Com:  0.100D+01
 Coeff-En:   0.100D+01
 Coeff:      0.100D+01
 Gap=     0.250 Goal=   None    Shift=    0.000
 GapD=    0.250 DampG=1.000 DampE=0.500 DampFc=0.5000 IDamp=-1.
 Damping current iteration by 5.00D-01
 RMSDP=1.06D-02 MaxDP=1.40D-01              OVMax= 1.77D-01

 Cycle   2  Pass 0  IDiag  1:
 E= -233.545542154118     Delta-E=       -0.097528326176 Rises=F Damp=T
 DIIS: error= 7.13D-03 at cycle   2 NSaved=   2.
 NSaved= 2 IEnMin= 2 EnMin= -233.545542154118     IErMin= 2 ErrMin= 7.13D-03
 ErrMax= 7.13D-03 EMaxC= 1.00D-01 BMatC= 8.53D-03 BMatP= 2.14D-01
 IDIUse=3 WtCom= 9.29D-01 WtEn= 7.13D-02
 Coeff-Com:  0.905D-01 0.909D+00
 Coeff-En:   0.132D+00 0.868D+00
 Coeff:      0.935D-01 0.907D+00
 Gap=     0.336 Goal=   None    Shift=    0.000
 RMSDP=1.59D-03 MaxDP=2.14D-02 DE=-9.75D-02 OVMax= 8.98D-02

 Cycle   3  Pass 0  IDiag  1:
 E= -233.665715739867     Delta-E=       -0.120173585749 Rises=F Damp=F
 DIIS: error= 3.88D-03 at cycle   3 NSaved=   3.
 NSaved= 3 IEnMin= 3 EnMin= -233.665715739867     IErMin= 3 ErrMin= 3.88D-03
 ErrMax= 3.88D-03 EMaxC= 1.00D-01 BMatC= 2.18D-03 BMatP= 8.53D-03
 IDIUse=3 WtCom= 9.61D-01 WtEn= 3.88D-02
 Coeff-Com:  0.180D-01 0.301D+00 0.681D+00
 Coeff-En:   0.000D+00 0.000D+00 0.100D+01
 Coeff:      0.173D-01 0.289D+00 0.694D+00
 Gap=     0.331 Goal=   None    Shift=    0.000
 RMSDP=6.89D-04 MaxDP=1.41D-02 DE=-1.20D-01 OVMax= 1.49D-02

 Cycle   4  Pass 0  IDiag  1:
 E= -233.666625230102     Delta-E=       -0.000909490235 Rises=F Damp=F
 DIIS: error= 2.62D-03 at cycle   4 NSaved=   4.
 NSaved= 4 IEnMin= 4 EnMin= -233.666625230102     IErMin= 4 ErrMin= 2.62D-03
 ErrMax= 2.62D-03 EMaxC= 1.00D-01 BMatC= 1.07D-03 BMatP= 2.18D-03
 IDIUse=3 WtCom= 9.74D-01 WtEn= 2.62D-02
 Coeff-Com:  0.172D-02 0.437D-01 0.411D+00 0.544D+00
 Coeff-En:   0.000D+00 0.000D+00 0.339D+00 0.661D+00
 Coeff:      0.168D-02 0.425D-01 0.409D+00 0.547D+00
 Gap=     0.334 Goal=   None    Shift=    0.000
 RMSDP=3.00D-04 MaxDP=6.45D-03 DE=-9.09D-04 OVMax= 6.47D-03

 Cycle   5  Pass 0  IDiag  1:
 E= -233.667447273029     Delta-E=       -0.000822042928 Rises=F Damp=F
 DIIS: error= 2.74D-04 at cycle   5 NSaved=   5.
 NSaved= 5 IEnMin= 5 EnMin= -233.667447273029     IErMin= 5 ErrMin= 2.74D-04
 ErrMax= 2.74D-04 EMaxC= 1.00D-01 BMatC= 1.46D-05 BMatP= 1.07D-03
 IDIUse=3 WtCom= 9.97D-01 WtEn= 2.74D-03
 Coeff-Com:  0.330D-03 0.299D-03 0.112D+00 0.195D+00 0.693D+00
 Coeff-En:   0.000D+00 0.000D+00 0.000D+00 0.000D+00 0.100D+01
 Coeff:      0.329D-03 0.298D-03 0.112D+00 0.194D+00 0.693D+00
 Gap=     0.333 Goal=   None    Shift=    0.000
 RMSDP=4.70D-05 MaxDP=5.86D-04 DE=-8.22D-04 OVMax= 7.62D-04

 Cycle   6  Pass 0  IDiag  1:
 E= -233.667458569601     Delta-E=       -0.000011296572 Rises=F Damp=F
 DIIS: error= 9.22D-05 at cycle   6 NSaved=   6.
 NSaved= 6 IEnMin= 6 EnMin= -233.667458569601     IErMin= 6 ErrMin= 9.22D-05
 ErrMax= 9.22D-05 EMaxC= 1.00D-01 BMatC= 1.59D-06 BMatP= 1.46D-05
 IDIUse=1 WtCom= 1.00D+00 WtEn= 0.00D+00
 Coeff-Com:  0.233D-03-0.156D-02 0.422D-01 0.797D-01 0.356D+00 0.524D+00
 Coeff:      0.233D-03-0.156D-02 0.422D-01 0.797D-01 0.356D+00 0.524D+00
 Gap=     0.333 Goal=   None    Shift=    0.000
 RMSDP=1.24D-05 MaxDP=2.11D-04 DE=-1.13D-05 OVMax= 2.33D-04

 Cycle   7  Pass 0  IDiag  1:
 E= -233.667460054150     Delta-E=       -0.000001484549 Rises=F Damp=F
 DIIS: error= 1.05D-05 at cycle   7 NSaved=   7.
 NSaved= 7 IEnMin= 7 EnMin= -233.667460054150     IErMin= 7 ErrMin= 1.05D-05
 ErrMax= 1.05D-05 EMaxC= 1.00D-01 BMatC= 2.00D-08 BMatP= 1.59D-06
 IDIUse=1 WtCom= 1.00D+00 WtEn= 0.00D+00
 Coeff-Com:  0.912D-04-0.480D-03 0.616D-02 0.123D-01 0.627D-01 0.150D+00
 Coeff-Com:  0.769D+00
 Coeff:      0.912D-04-0.480D-03 0.616D-02 0.123D-01 0.627D-01 0.150D+00
 Coeff:      0.769D+00
 Gap=     0.333 Goal=   None    Shift=    0.000
 RMSDP=2.02D-06 MaxDP=2.66D-05 DE=-1.48D-06 OVMax= 3.17D-05

 Initial convergence to 1.0D-05 achieved.  Increase integral accuracy.
 Cycle   8  Pass 1  IDiag  1:
 E= -233.667438447742     Delta-E=        0.000021606408 Rises=F Damp=F
 DIIS: error= 8.97D-06 at cycle   1 NSaved=   1.
 NSaved= 1 IEnMin= 1 EnMin= -233.667438447742     IErMin= 1 ErrMin= 8.97D-06
 ErrMax= 8.97D-06 EMaxC= 1.00D-01 BMatC= 2.01D-08 BMatP= 2.01D-08
 IDIUse=1 WtCom= 1.00D+00 WtEn= 0.00D+00
 Coeff-Com:  0.100D+01
 Coeff:      0.100D+01
 Gap=     0.333 Goal=   None    Shift=    0.000
 RMSDP=2.02D-06 MaxDP=2.66D-05 DE= 2.16D-05 OVMax= 5.14D-05

 Cycle   9  Pass 1  IDiag  1:
 E= -233.667438474570     Delta-E=       -0.000000026829 Rises=F Damp=F
 DIIS: error= 2.83D-06 at cycle   2 NSaved=   2.
 NSaved= 2 IEnMin= 2 EnMin= -233.667438474570     IErMin= 2 ErrMin= 2.83D-06
 ErrMax= 2.83D-06 EMaxC= 1.00D-01 BMatC= 9.83D-10 BMatP= 2.01D-08
 IDIUse=1 WtCom= 1.00D+00 WtEn= 0.00D+00
 Coeff-Com:  0.519D-01 0.948D+00
 Coeff:      0.519D-01 0.948D+00
 Gap=     0.333 Goal=   None    Shift=    0.000
 RMSDP=6.54D-07 MaxDP=1.31D-05 DE=-2.68D-08 OVMax= 1.34D-05

 Cycle  10  Pass 1  IDiag  1:
 E= -233.667438474817     Delta-E=       -0.000000000246 Rises=F Damp=F
 DIIS: error= 2.83D-06 at cycle   3 NSaved=   3.
 NSaved= 3 IEnMin= 3 EnMin= -233.667438474817     IErMin= 2 ErrMin= 2.83D-06
 ErrMax= 2.83D-06 EMaxC= 1.00D-01 BMatC= 8.11D-10 BMatP= 9.83D-10
 IDIUse=1 WtCom= 1.00D+00 WtEn= 0.00D+00
 Coeff-Com: -0.199D-01 0.478D+00 0.541D+00
 Coeff:     -0.199D-01 0.478D+00 0.541D+00
 Gap=     0.333 Goal=   None    Shift=    0.000
 RMSDP=2.90D-07 MaxDP=7.33D-06 DE=-2.46D-10 OVMax= 7.15D-06

 Cycle  11  Pass 1  IDiag  1:
 E= -233.667438475621     Delta-E=       -0.000000000804 Rises=F Damp=F
 DIIS: error= 2.40D-07 at cycle   4 NSaved=   4.
 NSaved= 4 IEnMin= 4 EnMin= -233.667438475621     IErMin= 4 ErrMin= 2.40D-07
 ErrMax= 2.40D-07 EMaxC= 1.00D-01 BMatC= 1.12D-11 BMatP= 8.11D-10
 IDIUse=1 WtCom= 1.00D+00 WtEn= 0.00D+00
 Coeff-Com: -0.826D-02 0.145D+00 0.198D+00 0.665D+00
 Coeff:     -0.826D-02 0.145D+00 0.198D+00 0.665D+00
 Gap=     0.333 Goal=   None    Shift=    0.000
 RMSDP=4.50D-08 MaxDP=7.87D-07 DE=-8.04D-10 OVMax= 7.75D-07

 Cycle  12  Pass 1  IDiag  1:
 E= -233.667438475633     Delta-E=       -0.000000000012 Rises=F Damp=F
 DIIS: error= 5.11D-08 at cycle   5 NSaved=   5.
 NSaved= 5 IEnMin= 5 EnMin= -233.667438475633     IErMin= 5 ErrMin= 5.11D-08
 ErrMax= 5.11D-08 EMaxC= 1.00D-01 BMatC= 5.71D-13 BMatP= 1.12D-11
 IDIUse=1 WtCom= 1.00D+00 WtEn= 0.00D+00
 Coeff-Com: -0.174D-02 0.224D-01 0.375D-01 0.221D+00 0.721D+00
 Coeff:     -0.174D-02 0.224D-01 0.375D-01 0.221D+00 0.721D+00
 Gap=     0.333 Goal=   None    Shift=    0.000
 RMSDP=1.17D-08 MaxDP=1.71D-07 DE=-1.21D-11 OVMax= 2.06D-07

 Cycle  13  Pass 1  IDiag  1:
 E= -233.667438475635     Delta-E=       -0.000000000002 Rises=F Damp=F
 DIIS: error= 3.14D-08 at cycle   6 NSaved=   6.
 NSaved= 6 IEnMin= 6 EnMin= -233.667438475635     IErMin= 6 ErrMin= 3.14D-08
 ErrMax= 3.14D-08 EMaxC= 1.00D-01 BMatC= 1.54D-13 BMatP= 5.71D-13
 IDIUse=1 WtCom= 1.00D+00 WtEn= 0.00D+00
 Coeff-Com: -0.281D-03 0.103D-02 0.504D-02 0.655D-01 0.389D+00 0.540D+00
 Coeff:     -0.281D-03 0.103D-02 0.504D-02 0.655D-01 0.389D+00 0.540D+00
 Gap=     0.333 Goal=   None    Shift=    0.000
 RMSDP=3.69D-09 MaxDP=8.79D-08 DE=-2.33D-12 OVMax= 7.19D-08

 SCF Done:  E(RB3LYP) =  -233.667438476     A.U. after   13 cycles
             Convg  =    0.3690D-08             -V/T =  2.0096
 KE= 2.314449104441D+02 PE=-9.288057628283D+02 EE= 2.709793799842D+02
 Leave Link  502 at Sun Aug 23 11:16:06 2015, MaxMem= 3758096384 cpu:      37.2
 (Enter /share/apps/g09/l601.exe)
 Copying SCF densities to generalized density rwf, IOpCl= 0 IROHF=0.

 **********************************************************************

            Population analysis using the SCF density.

 **********************************************************************

 Orbital symmetries:
       Occupied  (A) (A) (A) (A) (A) (A) (A) (A) (A) (A) (A) (A)
                 (A) (A) (A) (A) (A) (A) (A) (A) (A)
       Virtual   (A) (A) (A) (A) (A) (A) (A) (A) (A) (A) (A) (A)
                 (A) (A) (A) (A) (A) (A) (A) (A) (A) (A) (A) (A)
                 (A) (A) (A) (A) (A) (A) (A) (A) (A) (A) (A) (A)
                 (A) (A) (A) (A) (A) (A) (A) (A) (A) (A) (A) (A)
                 (A) (A) (A) (A) (A) (A) (A) (A) (A) (A) (A) (A)
                 (A) (A) (A) (A) (A) (A) (A) (A) (A) (A) (A) (A)
                 (A) (A)
 The electronic state is 1-A.
 Alpha  occ. eigenvalues --  -19.13724 -10.23054 -10.18099 -10.17503 -10.16958
 Alpha  occ. eigenvalues --   -1.00979  -0.77956  -0.72291  -0.63151  -0.58955
 Alpha  occ. eigenvalues --   -0.47185  -0.46468  -0.43739  -0.41675  -0.40355
 Alpha  occ. eigenvalues --   -0.36619  -0.36505  -0.34228  -0.33636  -0.31029
 Alpha  occ. eigenvalues --   -0.26128
 Alpha virt. eigenvalues --    0.07216   0.11466   0.12465   0.13419   0.15372
 Alpha virt. eigenvalues --    0.17010   0.17787   0.18066   0.18540   0.19947
 Alpha virt. eigenvalues --    0.24282   0.24513   0.26150   0.26548   0.49423
 Alpha virt. eigenvalues --    0.51276   0.54976   0.56416   0.58797   0.60532
 Alpha virt. eigenvalues --    0.64132   0.64647   0.69357   0.75019   0.77340
 Alpha virt. eigenvalues --    0.83386   0.85275   0.86049   0.89058   0.90681
 Alpha virt. eigenvalues --    0.91059   0.91900   0.93337   0.95363   0.96477
 Alpha virt. eigenvalues --    0.97221   0.99634   1.03451   1.08877   1.14317
 Alpha virt. eigenvalues --    1.32958   1.37081   1.41114   1.48783   1.57064
 Alpha virt. eigenvalues --    1.64687   1.69094   1.74076   1.78590   1.84669
 Alpha virt. eigenvalues --    1.88921   1.89685   1.94453   2.00496   2.02290
 Alpha virt. eigenvalues --    2.11797   2.18019   2.19567   2.21300   2.26002
 Alpha virt. eigenvalues --    2.30925   2.35538   2.37645   2.46845   2.54259
 Alpha virt. eigenvalues --    2.58530   2.69486   2.76678   2.87896   3.76129
 Alpha virt. eigenvalues --    4.15086   4.24683   4.38350   4.54232
          Condensed to atoms (all electrons):
              1          2          3          4          5          6
     1  C    5.177594   0.363211   0.346406   0.367466   0.366570  -0.052355
     2  H    0.363211   0.590749  -0.028907  -0.031837  -0.030013   0.005665
     3  H    0.346406  -0.028907   0.585209  -0.026250  -0.023557  -0.000894
     4  H    0.367466  -0.031837  -0.026250   0.556737  -0.026642  -0.004446
     5  C    0.366570  -0.030013  -0.023557  -0.026642   4.689396   0.385546
     6  H   -0.052355   0.005665  -0.000894  -0.004446   0.385546   0.619444
     7  C   -0.057427  -0.008556   0.001021   0.005474   0.370273  -0.055606
     8  H    0.000007   0.000074   0.001266  -0.000131  -0.028952  -0.001094
     9  H   -0.007145   0.005800   0.000099  -0.000120  -0.035331   0.006453
    10  C    0.005159  -0.000012  -0.000132  -0.000160  -0.039010  -0.005098
    11  H    0.000367  -0.000003  -0.000019  -0.000002  -0.007577  -0.000313
    12  H   -0.000129   0.000000  -0.000005   0.000002   0.003999  -0.000055
    13  H    0.000010   0.000008  -0.000002   0.000000  -0.004123   0.004938
    14  O   -0.048155  -0.002124   0.003604   0.002610   0.267354  -0.045045
    15  H   -0.005970   0.005552  -0.000096  -0.000685  -0.030904   0.008676
              7          8          9         10         11         12
     1  C   -0.057427   0.000007  -0.007145   0.005159   0.000367  -0.000129
     2  H   -0.008556   0.000074   0.005800  -0.000012  -0.000003   0.000000
     3  H    0.001021   0.001266   0.000099  -0.000132  -0.000019  -0.000005
     4  H    0.005474  -0.000131  -0.000120  -0.000160  -0.000002   0.000002
     5  C    0.370273  -0.028952  -0.035331  -0.039010  -0.007577   0.003999
     6  H   -0.055606  -0.001094   0.006453  -0.005098  -0.000313  -0.000055
     7  C    5.081471   0.350566   0.360530   0.370664  -0.035302  -0.028614
     8  H    0.350566   0.615924  -0.035599  -0.035801   0.005366  -0.002415
     9  H    0.360530  -0.035599   0.627814  -0.040913  -0.003522  -0.003498
    10  C    0.370664  -0.035801  -0.040913   5.065276   0.375389   0.370784
    11  H   -0.035302   0.005366  -0.003522   0.375389   0.554280  -0.030089
    12  H   -0.028614  -0.002415  -0.003498   0.370784  -0.030089   0.582629
    13  H   -0.035482  -0.004408   0.005290   0.378320  -0.029775  -0.031714
    14  O   -0.050436   0.003632  -0.003219  -0.004281   0.012901   0.000157
    15  H   -0.006543  -0.000039   0.006218  -0.000413  -0.000024  -0.000044
             13         14         15
     1  C    0.000010  -0.048155  -0.005970
     2  H    0.000008  -0.002124   0.005552
     3  H   -0.000002   0.003604  -0.000096
     4  H    0.000000   0.002610  -0.000685
     5  C   -0.004123   0.267354  -0.030904
     6  H    0.004938  -0.045045   0.008676
     7  C   -0.035482  -0.050436  -0.006543
     8  H   -0.004408   0.003632  -0.000039
     9  H    0.005290  -0.003219   0.006218
    10  C    0.378320  -0.004281  -0.000413
    11  H   -0.029775   0.012901  -0.000024
    12  H   -0.031714   0.000157  -0.000044
    13  H    0.575124  -0.000159   0.000077
    14  O   -0.000159   8.252676   0.228456
    15  H    0.000077   0.228456   0.416104
 Mulliken atomic charges:
              1
     1  C   -0.455608
     2  H    0.130392
     3  H    0.142257
     4  H    0.157984
     5  C    0.142971
     6  H    0.134184
     7  C   -0.262032
     8  H    0.131604
     9  H    0.117143
    10  C   -0.439771
    11  H    0.158322
    12  H    0.138993
    13  H    0.141896
    14  O   -0.617971
    15  H    0.379635
 Sum of Mulliken atomic charges =   0.00000
 Mulliken charges with hydrogens summed into heavy atoms:
              1
     1  C   -0.024975
     5  C    0.277155
     7  C   -0.013285
    10  C   -0.000561
    14  O   -0.238335
 Sum of Mulliken charges with hydrogens summed into heavy atoms =   0.00000
 Electronic spatial extent (au):  <R**2>=            524.9237
 Charge=              0.0000 electrons
 Dipole moment (field-independent basis, Debye):
    X=             -0.1260    Y=             -1.2314    Z=              0.9894  Tot=              1.5846
 Quadrupole moment (field-independent basis, Debye-Ang):
   XX=            -33.3759   YY=            -35.4526   ZZ=            -30.6419
   XY=              0.3249   XZ=             -0.6485   YZ=              2.3929
 Traceless Quadrupole moment (field-independent basis, Debye-Ang):
   XX=             -0.2191   YY=             -2.2958   ZZ=              2.5149
   XY=              0.3249   XZ=             -0.6485   YZ=              2.3929
 Octapole moment (field-independent basis, Debye-Ang**2):
  XXX=             -3.1719  YYY=              1.7577  ZZZ=              2.0621  XYY=              0.3004
  XXY=              1.9416  XXZ=              0.4756  XZZ=             -2.1502  YZZ=              4.9564
  YYZ=              3.3899  XYZ=             -1.4752
 Hexadecapole moment (field-independent basis, Debye-Ang**3):
 XXXX=           -455.0862 YYYY=           -173.9972 ZZZZ=            -68.3568 XXXY=             -7.4839
 XXXZ=              3.3383 YYYX=             -0.5102 YYYZ=              9.5066 ZZZX=             -3.3355
 ZZZY=              4.1115 XXYY=           -105.0361 XXZZ=            -85.9974 YYZZ=            -37.1195
 XXYZ=              0.9225 YYXZ=             -1.4292 ZZXY=             -3.1133
 N-N= 1.927140339244D+02 E-N=-9.288057657783D+02  KE= 2.314449104441D+02
 No NMR shielding tensors so no spin-rotation constants.
 Leave Link  601 at Sun Aug 23 11:16:06 2015, MaxMem= 3758096384 cpu:       3.4
 (Enter /share/apps/g09/l701.exe)
 Compute integral first derivatives.
 ... and contract with generalized density number  0.
 Leave Link  701 at Sun Aug 23 11:16:07 2015, MaxMem= 3758096384 cpu:       3.7
 (Enter /share/apps/g09/l702.exe)
 L702 exits ... SP integral derivatives will be done elsewhere.
 Leave Link  702 at Sun Aug 23 11:16:07 2015, MaxMem= 3758096384 cpu:       0.1
 (Enter /share/apps/g09/l703.exe)
 Compute integral first derivatives, UseDBF=F ICtDFT=           0.
 Integral derivatives from FoFDir, PRISM(SPDF).
 Calling FoFJK, ICntrl=      2127 FMM=F ISym2X=0 I1Cent= 0 IOpClX= 0 NMat=1 NMatS=1 NMatT=0.
 FoFCou: FMM=F IPFlag=           0 FMFlag=      100000 FMFlg1=         800
         NFxFlg=           0 DoJE=F BraDBF=F KetDBF=F FulRan=T
         Omega=  0.000000  0.000000  1.000000  0.000000  0.000000 ICntrl=    2127 IOpCl=  0
         NMat0=    1 NMatS0=    1 NMatT0=    0 NMatD0=    1 NMtDS0=    0 NMtDT0=    0
         I1Cent=           0 NGrid=           0.
 Symmetry not used in FoFCou.
 Leave Link  703 at Sun Aug 23 11:16:08 2015, MaxMem= 3758096384 cpu:      10.2
 (Enter /share/apps/g09/l716.exe)
 Dipole        =-4.95813549D-02-4.84464266D-01 3.89257693D-01
 ***** Axes restored to original set *****
 -------------------------------------------------------------------
 Center     Atomic                   Forces (Hartrees/Bohr)
 Number     Number              X              Y              Z
 -------------------------------------------------------------------
      1        6           0.000051422   -0.000056261    0.000001355
      2        1          -0.000012104    0.000004718    0.000022590
      3        1          -0.000003178    0.000014832   -0.000004672
      4        1          -0.000002984    0.000017643    0.000006057
      5        6           0.000011858   -0.000032414   -0.000197234
      6        1           0.000048130   -0.000008316    0.000020052
      7        6           0.000017391    0.000094276    0.000177059
      8        1          -0.000050559   -0.000019478   -0.000014860
      9        1          -0.000021798   -0.000002165   -0.000043758
     10        6          -0.000001508    0.000005399   -0.000067744
     11        1           0.000017417    0.000005902   -0.000001896
     12        1           0.000019675   -0.000011798    0.000008852
     13        1           0.000017789   -0.000031678    0.000045929
     14        8          -0.000267995    0.000027478    0.000049792
     15        1           0.000176445   -0.000008139   -0.000001520
 -------------------------------------------------------------------
 Cartesian Forces:  Max     0.000267995 RMS     0.000068528
 Leave Link  716 at Sun Aug 23 11:16:08 2015, MaxMem= 3758096384 cpu:       0.2
 (Enter /share/apps/g09/l103.exe)

 GradGradGradGradGradGradGradGradGradGradGradGradGradGradGradGradGradGrad
 Berny optimization.
 Internal  Forces:  Max     0.000156669 RMS     0.000035849
 Search for a local minimum.
 Step number   1 out of a maximum of   79
 All quantities printed in internal units (Hartrees-Bohrs-Radians)
 RMS Force = .35849D-04 SwitMx=.10000D-02 MixMth= 2
 Mixed Optimization -- En-DIIS/RFO-DIIS
 Second derivative matrix not updated -- first step.
     Eigenvalues ---    0.00290   0.00356   0.00369   0.01269   0.03410
     Eigenvalues ---    0.03959   0.04677   0.04769   0.05476   0.05510
     Eigenvalues ---    0.05564   0.05604   0.07507   0.08461   0.12298
     Eigenvalues ---    0.16000   0.16000   0.16000   0.16000   0.16000
     Eigenvalues ---    0.16000   0.16000   0.17240   0.20257   0.21900
     Eigenvalues ---    0.28877   0.29331   0.29425   0.33487   0.33807
     Eigenvalues ---    0.33826   0.33949   0.34033   0.34084   0.34165
     Eigenvalues ---    0.34295   0.34331   0.40714   0.530701000.00000
     Eigenvalues --- 1000.000001000.000001000.000001000.000001000.00000
     Eigenvalues --- 1000.000001000.000001000.000001000.000001000.00000
     Eigenvalues --- 1000.000001000.000001000.000001000.000001000.00000
     Eigenvalues --- 1000.000001000.000001000.000001000.000001000.00000
     Eigenvalues --- 1000.000001000.000001000.000001000.000001000.00000
     Eigenvalues --- 1000.000001000.000001000.000001000.00000
 RFO step:  Lambda=-2.97850553D-06 EMin= 2.89903746D-03
 Linear search not attempted -- first point.
 Iteration  1 RMS(Cart)=  0.00160119 RMS(Int)=  0.00000678
 Iteration  2 RMS(Cart)=  0.00000625 RMS(Int)=  0.00000009
 Iteration  3 RMS(Cart)=  0.00000000 RMS(Int)=  0.00000009
 Variable       Old X    -DE/DX   Delta X   Delta X   Delta X     New X
                                 (Linear)    (Quad)   (Total)
    R1        2.07657  -0.00003   0.00000  -0.00008  -0.00008   2.07649
    R2        2.07188  -0.00001   0.00000  -0.00004  -0.00004   2.07184
    R3        2.06835   0.00001   0.00000   0.00002   0.00002   2.06838
    R4        2.89126   0.00003   0.00000   0.00011   0.00011   2.89136
    R5        2.07417   0.00001   0.00000   0.00004   0.00004   2.07420
    R6        2.90260  -0.00006   0.00000  -0.00022  -0.00022   2.90237
    R7        2.70595   0.00000   0.00000   0.00001   0.00001   2.70596
    R8        2.07625   0.00002   0.00000   0.00005   0.00005   2.07630
    R9        2.08205   0.00004   0.00000   0.00012   0.00012   2.08217
   R10        2.89318  -0.00006   0.00000  -0.00021  -0.00021   2.89297
   R11        2.06775   0.00001   0.00000   0.00002   0.00002   2.06777
   R12        2.07052  -0.00001   0.00000  -0.00004  -0.00004   2.07047
   R13        2.07274   0.00004   0.00000   0.00013   0.00013   2.07287
   R14        1.83588   0.00003   0.00000   0.00005   0.00005   1.83594
    A1        1.87780   0.00001   0.00000   0.00006   0.00006   1.87786
    A2        1.88690   0.00001   0.00000   0.00005   0.00005   1.88695
    A3        1.93297  -0.00001   0.00000  -0.00004  -0.00004   1.93293
    A4        1.89463   0.00001   0.00000   0.00008   0.00008   1.89470
    A5        1.94404   0.00000   0.00000   0.00000   0.00000   1.94404
    A6        1.92571  -0.00002   0.00000  -0.00014  -0.00014   1.92558
    A7        1.90231  -0.00005   0.00000  -0.00045  -0.00045   1.90185
    A8        1.96370   0.00010   0.00000   0.00075   0.00075   1.96445
    A9        1.93537   0.00002   0.00000   0.00047   0.00047   1.93584
   A10        1.89696  -0.00003   0.00000  -0.00045  -0.00045   1.89651
   A11        1.81259   0.00000   0.00000  -0.00040  -0.00040   1.81219
   A12        1.94597  -0.00006   0.00000  -0.00005  -0.00005   1.94592
   A13        1.89828   0.00005   0.00000   0.00045   0.00045   1.89873
   A14        1.89149   0.00003   0.00000   0.00026   0.00026   1.89175
   A15        1.97898  -0.00004   0.00000  -0.00019  -0.00019   1.97879
   A16        1.84942  -0.00001   0.00000  -0.00004  -0.00004   1.84938
   A17        1.92251  -0.00002   0.00000  -0.00031  -0.00031   1.92220
   A18        1.91837   0.00000   0.00000  -0.00014  -0.00014   1.91823
   A19        1.93075  -0.00001   0.00000  -0.00004  -0.00004   1.93070
   A20        1.94293  -0.00001   0.00000  -0.00006  -0.00006   1.94287
   A21        1.93724  -0.00004   0.00000  -0.00031  -0.00031   1.93693
   A22        1.89314   0.00002   0.00000   0.00021   0.00021   1.89335
   A23        1.87671   0.00003   0.00000   0.00017   0.00017   1.87688
   A24        1.88080   0.00002   0.00000   0.00006   0.00006   1.88086
   A25        1.86846  -0.00002   0.00000  -0.00011  -0.00011   1.86835
    D1        3.14111   0.00000   0.00000  -0.00038  -0.00038   3.14074
    D2        1.03575   0.00000   0.00000   0.00002   0.00002   1.03576
    D3       -1.15713  -0.00001   0.00000  -0.00086  -0.00086  -1.15799
    D4        1.05198   0.00000   0.00000  -0.00042  -0.00042   1.05156
    D5       -1.05338   0.00000   0.00000  -0.00003  -0.00003  -1.05341
    D6        3.03692  -0.00001   0.00000  -0.00091  -0.00091   3.03602
    D7       -1.05351   0.00000   0.00000  -0.00042  -0.00042  -1.05393
    D8        3.12431   0.00000   0.00000  -0.00003  -0.00003   3.12428
    D9        0.93144  -0.00001   0.00000  -0.00091  -0.00091   0.93053
   D10        0.94853  -0.00001   0.00000  -0.00030  -0.00030   0.94823
   D11       -1.05451  -0.00004   0.00000  -0.00062  -0.00062  -1.05514
   D12        3.09373  -0.00003   0.00000  -0.00050  -0.00050   3.09323
   D13       -1.15991   0.00001   0.00000   0.00010   0.00010  -1.15981
   D14        3.12023  -0.00002   0.00000  -0.00022  -0.00022   3.12001
   D15        0.98529  -0.00001   0.00000  -0.00010  -0.00010   0.98519
   D16        3.13564   0.00005   0.00000   0.00087   0.00087   3.13651
   D17        1.13259   0.00002   0.00000   0.00055   0.00055   1.13315
   D18       -1.00235   0.00003   0.00000   0.00068   0.00068  -1.00168
   D19        1.10993  -0.00005   0.00000  -0.00750  -0.00750   1.10243
   D20       -3.13242  -0.00010   0.00000  -0.00803  -0.00803  -3.14045
   D21       -1.09284  -0.00016   0.00000  -0.00881  -0.00881  -1.10164
   D22        0.98084  -0.00001   0.00000  -0.00001  -0.00001   0.98083
   D23        3.08712   0.00000   0.00000   0.00018   0.00018   3.08730
   D24       -1.10102  -0.00001   0.00000   0.00001   0.00001  -1.10101
   D25        3.11261   0.00001   0.00000   0.00021   0.00021   3.11282
   D26       -1.06430   0.00002   0.00000   0.00040   0.00040  -1.06390
   D27        1.03075   0.00001   0.00000   0.00023   0.00023   1.03098
   D28       -1.13911  -0.00001   0.00000  -0.00011  -0.00011  -1.13922
   D29        0.96717   0.00000   0.00000   0.00008   0.00008   0.96725
   D30        3.06221  -0.00001   0.00000  -0.00009  -0.00009   3.06213
         Item               Value     Threshold  Converged?
 Maximum Force            0.000157     0.000450     YES
 RMS     Force            0.000036     0.000300     YES
 Maximum Displacement     0.011335     0.001800     NO 
 RMS     Displacement     0.001601     0.001200     NO 
 Predicted change in Energy=-1.489329D-06
 GradGradGradGradGradGradGradGradGradGradGradGradGradGradGradGradGradGrad

 Leave Link  103 at Sun Aug 23 11:16:09 2015, MaxMem= 3758096384 cpu:       6.7
 (Enter /share/apps/g09/l202.exe)
                          Input orientation:                          
 ---------------------------------------------------------------------
 Center     Atomic      Atomic             Coordinates (Angstroms)
 Number     Number       Type             X           Y           Z
 ---------------------------------------------------------------------
      1          6           0        1.827928   -0.670289    0.107669
      2          1           0        2.020443   -0.631929   -0.973487
      3          1           0        1.819679   -1.725380    0.405570
      4          1           0        2.656701   -0.170447    0.618849
      5          6           0        0.503003    0.015614    0.446996
      6          1           0        0.339684   -0.040259    1.530960
      7          6           0       -0.694503   -0.631487   -0.264432
      8          1           0       -0.702615   -1.706398   -0.037046
      9          1           0       -0.536555   -0.553047   -1.352065
     10          6           0       -2.038060   -0.002689    0.113856
     11          1           0       -2.028589    1.073769   -0.082265
     12          1           0       -2.861519   -0.451670   -0.452515
     13          1           0       -2.250470   -0.142398    1.180904
     14          8           0        0.572889    1.421332    0.183364
     15          1           0        0.716909    1.525190   -0.771809
 ---------------------------------------------------------------------
                    Distance matrix (angstroms):
                    1          2          3          4          5
     1  C    0.000000
     2  H    1.098832   0.000000
     3  H    1.096372   1.771367   0.000000
     4  H    1.094537   1.775760   1.778739   0.000000
     5  C    1.530043   2.177087   2.183212   2.168540   0.000000
     6  H    2.153501   3.073642   2.509287   2.493484   1.097621
     7  C    2.550024   2.806010   2.822519   3.496186   1.535869
     8  H    2.738268   3.073508   2.560905   3.751580   2.157114
     9  H    2.781249   2.586075   3.164725   3.771972   2.154223
    10  C    3.923212   4.248495   4.234964   4.724822   2.562874
    11  H    4.236808   4.483118   4.783554   4.898120   2.794418
    12  H    4.727845   4.912989   4.926689   5.628291   3.513899
    13  H    4.250157   4.808507   4.435436   4.939334   2.853980
    14  O    2.440437   2.765790   3.392000   2.658135   1.431932
    15  H    2.613038   2.528445   3.628847   2.927782   1.951937
                    6          7          8          9         10
     6  H    0.000000
     7  C    2.154653   0.000000
     8  H    2.514170   1.098728   0.000000
     9  H    3.056564   1.101838   1.757006   0.000000
    10  C    2.768260   1.530894   2.169980   2.169410   0.000000
    11  H    3.074455   2.172757   3.080517   2.546584   1.094219
    12  H    3.788289   2.182583   2.531368   2.494980   1.095648
    13  H    2.615697   2.179274   2.515026   3.085785   1.096917
    14  O    2.001662   2.453747   3.384995   2.736162   2.974849
    15  H    2.809924   2.626932   3.605286   2.495383   3.272410
                   11         12         13         14         15
    11  H    0.000000
    12  H    1.777026   0.000000
    13  H    1.767453   1.771182   0.000000
    14  O    2.638001   3.963286   3.378120   0.000000
    15  H    2.866533   4.100618   3.924191   0.971536   0.000000
 Stoichiometry    C4H10O
 Framework group  C1[X(C4H10O)]
 Deg. of freedom    39
 Full point group                 C1      NOp   1
 Largest Abelian subgroup         C1      NOp   1
 Largest concise Abelian subgroup C1      NOp   1
                         Standard orientation:                         
 ---------------------------------------------------------------------
 Center     Atomic      Atomic             Coordinates (Angstroms)
 Number     Number       Type             X           Y           Z
 ---------------------------------------------------------------------
      1          6           0       -1.806836   -0.660517   -0.004317
      2          1           0       -1.957802   -0.716061    1.082677
      3          1           0       -1.828202   -1.684840   -0.394622
      4          1           0       -2.645434   -0.105506   -0.436437
      5          6           0       -0.483876    0.034290   -0.333029
      6          1           0       -0.362493    0.073052   -1.423229
      7          6           0        0.728111   -0.690409    0.270948
      8          1           0        0.708918   -1.740758   -0.050924
      9          1           0        0.612625   -0.707098    1.366590
     10          6           0        2.067225   -0.049258   -0.102329
     11          1           0        2.083909    1.005440    0.188615
     12          1           0        2.903478   -0.558466    0.389437
     13          1           0        2.236833   -0.096187   -1.185037
     14          8           0       -0.519273    1.411727    0.056642
     15          1           0       -0.625389    1.431972    1.022153
 ---------------------------------------------------------------------
 Rotational constants (GHZ):      7.9538642      3.4125281      2.6507561
 Leave Link  202 at Sun Aug 23 11:16:09 2015, MaxMem= 3758096384 cpu:       0.1
 (Enter /share/apps/g09/l301.exe)
 Standard basis: 6-31G(d) (6D, 7F)
 Ernie: Thresh=  0.10000D-02 Tol=  0.10000D-05 Strict=F.
 There are    95 symmetry adapted basis functions of A   symmetry.
 Integral buffers will be    131072 words long.
 Raffenetti 2 integral format.
 Two-electron integral symmetry is turned on.
    95 basis functions,   180 primitive gaussians,    95 cartesian basis functions
    21 alpha electrons       21 beta electrons
       nuclear repulsion energy       192.7130350367 Hartrees.
 IExCor=  402 DFT=T Ex+Corr=B3LYP ExCW=0 ScaHFX=  0.200000
 ScaDFX=  0.800000  0.720000  1.000000  0.810000 ScalE2=  1.000000  1.000000
 IRadAn=      0 IRanWt=     -1 IRanGd=            0 ICorTp=0
 NAtoms=   15 NActive=   15 NUniq=   15 SFac= 7.50D-01 NAtFMM=   80 NAOKFM=F Big=F
 Leave Link  301 at Sun Aug 23 11:16:09 2015, MaxMem= 3758096384 cpu:       0.6
 (Enter /share/apps/g09/l302.exe)
 NPDir=0 NMtPBC=     1 NCelOv=     1 NCel=       1 NClECP=     1 NCelD=      1
         NCelK=      1 NCelE2=     1 NClLst=     1 CellRange=     0.0.
 One-electron integrals computed using PRISM.
 NBasis=    95 RedAO= T  NBF=    95
 NBsUse=    95 1.00D-06 NBFU=    95
 Precomputing XC quadrature grid using
 IXCGrd= 2 IRadAn=           0 IRanWt=          -1 IRanGd=           0 AccXCQ= 1.00D-10.
 NRdTot=     933 NPtTot=      118114 NUsed=      124853 NTot=      124885
 NSgBfM=    95    95    95    95    95 NAtAll=    15    15.
 Leave Link  302 at Sun Aug 23 11:16:09 2015, MaxMem= 3758096384 cpu:       2.5
 (Enter /share/apps/g09/l303.exe)
 DipDrv:  MaxL=1.
 Leave Link  303 at Sun Aug 23 11:16:09 2015, MaxMem= 3758096384 cpu:       0.7
 (Enter /share/apps/g09/l401.exe)
 Initial guess read from the read-write file.
 B after Tr=     0.000000    0.000000    0.000000
         Rot=    1.000000    0.000000    0.000000    0.000000 Ang=   0.00 deg.
 Guess basis will be translated and rotated to current coordinates.
 Initial guess orbital symmetries:
       Occupied  (A) (A) (A) (A) (A) (A) (A) (A) (A) (A) (A) (A)
                 (A) (A) (A) (A) (A) (A) (A) (A) (A)
       Virtual   (A) (A) (A) (A) (A) (A) (A) (A) (A) (A) (A) (A)
                 (A) (A) (A) (A) (A) (A) (A) (A) (A) (A) (A) (A)
                 (A) (A) (A) (A) (A) (A) (A) (A) (A) (A) (A) (A)
                 (A) (A) (A) (A) (A) (A) (A) (A) (A) (A) (A) (A)
                 (A) (A) (A) (A) (A) (A) (A) (A) (A) (A) (A) (A)
                 (A) (A) (A) (A) (A) (A) (A) (A) (A) (A) (A) (A)
                 (A) (A)
 The electronic state of the initial guess is 1-A.
 Leave Link  401 at Sun Aug 23 11:16:09 2015, MaxMem= 3758096384 cpu:       1.0
 (Enter /share/apps/g09/l502.exe)
 Closed shell SCF:
 Requested convergence on RMS density matrix=1.00D-08 within 128 cycles.
 Requested convergence on MAX density matrix=1.00D-06.
 Requested convergence on             energy=1.00D-06.
 No special actions if energy rises.
 Using DIIS extrapolation, IDIIS=  1040.
 Integral symmetry usage will be decided dynamically.
       124705 words used for storage of precomputed grid.
 Keep R1 ints in memory in canonical form, NReq=11484897.
 IEnd=      171801 IEndB=      171801 NGot=  3758096384 MDV=  3747551236
 LenX=  3747551236 LenY=  3747541770
 Symmetry not used in FoFDir.
 MinBra= 0 MaxBra= 2 Meth= 1.
 IRaf=       0 NMat=   1 IRICut=       1 DoRegI=T DoRafI=F ISym2E= 0 JSym2E=0.

 Cycle   1  Pass 1  IDiag  1:
 E= -233.667432901716    
 DIIS: error= 3.01D-04 at cycle   1 NSaved=   1.
 NSaved= 1 IEnMin= 1 EnMin= -233.667432901716     IErMin= 1 ErrMin= 3.01D-04
 ErrMax= 3.01D-04 EMaxC= 1.00D-01 BMatC= 4.77D-06 BMatP= 4.77D-06
 IDIUse=3 WtCom= 9.97D-01 WtEn= 3.01D-03
 Coeff-Com:  0.100D+01
 Coeff-En:   0.100D+01
 Coeff:      0.100D+01
 Gap=     0.333 Goal=   None    Shift=    0.000
 RMSDP=4.27D-05 MaxDP=1.45D-03              OVMax= 1.60D-03

 Cycle   2  Pass 1  IDiag  1:
 E= -233.667440720051     Delta-E=       -0.000007818334 Rises=F Damp=F
 DIIS: error= 3.19D-05 at cycle   2 NSaved=   2.
 NSaved= 2 IEnMin= 2 EnMin= -233.667440720051     IErMin= 2 ErrMin= 3.19D-05
 ErrMax= 3.19D-05 EMaxC= 1.00D-01 BMatC= 4.93D-08 BMatP= 4.77D-06
 IDIUse=1 WtCom= 1.00D+00 WtEn= 0.00D+00
 Coeff-Com: -0.615D-01 0.106D+01
 Coeff:     -0.615D-01 0.106D+01
 Gap=     0.333 Goal=   None    Shift=    0.000
 RMSDP=7.62D-06 MaxDP=1.87D-04 DE=-7.82D-06 OVMax= 2.70D-04

 Cycle   3  Pass 1  IDiag  1:
 E= -233.667440811359     Delta-E=       -0.000000091308 Rises=F Damp=F
 DIIS: error= 1.03D-05 at cycle   3 NSaved=   3.
 NSaved= 3 IEnMin= 3 EnMin= -233.667440811359     IErMin= 3 ErrMin= 1.03D-05
 ErrMax= 1.03D-05 EMaxC= 1.00D-01 BMatC= 2.15D-08 BMatP= 4.93D-08
 IDIUse=1 WtCom= 1.00D+00 WtEn= 0.00D+00
 Coeff-Com: -0.368D-01 0.463D+00 0.573D+00
 Coeff:     -0.368D-01 0.463D+00 0.573D+00
 Gap=     0.333 Goal=   None    Shift=    0.000
 RMSDP=1.78D-06 MaxDP=2.56D-05 DE=-9.13D-08 OVMax= 3.18D-05

 Cycle   4  Pass 1  IDiag  1:
 E= -233.667440831065     Delta-E=       -0.000000019705 Rises=F Damp=F
 DIIS: error= 2.33D-06 at cycle   4 NSaved=   4.
 NSaved= 4 IEnMin= 4 EnMin= -233.667440831065     IErMin= 4 ErrMin= 2.33D-06
 ErrMax= 2.33D-06 EMaxC= 1.00D-01 BMatC= 1.43D-09 BMatP= 2.15D-08
 IDIUse=1 WtCom= 1.00D+00 WtEn= 0.00D+00
 Coeff-Com: -0.967D-02 0.883D-01 0.222D+00 0.699D+00
 Coeff:     -0.967D-02 0.883D-01 0.222D+00 0.699D+00
 Gap=     0.333 Goal=   None    Shift=    0.000
 RMSDP=5.03D-07 MaxDP=8.39D-06 DE=-1.97D-08 OVMax= 1.21D-05

 Cycle   5  Pass 1  IDiag  1:
 E= -233.667440832496     Delta-E=       -0.000000001432 Rises=F Damp=F
 DIIS: error= 5.91D-07 at cycle   5 NSaved=   5.
 NSaved= 5 IEnMin= 5 EnMin= -233.667440832496     IErMin= 5 ErrMin= 5.91D-07
 ErrMax= 5.91D-07 EMaxC= 1.00D-01 BMatC= 8.49D-11 BMatP= 1.43D-09
 IDIUse=1 WtCom= 1.00D+00 WtEn= 0.00D+00
 Coeff-Com:  0.145D-02-0.240D-01-0.528D-02 0.202D+00 0.825D+00
 Coeff:      0.145D-02-0.240D-01-0.528D-02 0.202D+00 0.825D+00
 Gap=     0.333 Goal=   None    Shift=    0.000
 RMSDP=1.53D-07 MaxDP=3.90D-06 DE=-1.43D-09 OVMax= 4.50D-06

 Cycle   6  Pass 1  IDiag  1:
 E= -233.667440832593     Delta-E=       -0.000000000097 Rises=F Damp=F
 DIIS: error= 1.11D-07 at cycle   6 NSaved=   6.
 NSaved= 6 IEnMin= 6 EnMin= -233.667440832593     IErMin= 6 ErrMin= 1.11D-07
 ErrMax= 1.11D-07 EMaxC= 1.00D-01 BMatC= 2.58D-12 BMatP= 8.49D-11
 IDIUse=1 WtCom= 1.00D+00 WtEn= 0.00D+00
 Coeff-Com:  0.673D-03-0.101D-01-0.455D-02 0.667D-01 0.312D+00 0.635D+00
 Coeff:      0.673D-03-0.101D-01-0.455D-02 0.667D-01 0.312D+00 0.635D+00
 Gap=     0.333 Goal=   None    Shift=    0.000
 RMSDP=2.06D-08 MaxDP=3.60D-07 DE=-9.66D-11 OVMax= 4.18D-07

 Cycle   7  Pass 1  IDiag  1:
 E= -233.667440832594     Delta-E=       -0.000000000001 Rises=F Damp=F
 DIIS: error= 6.00D-08 at cycle   7 NSaved=   7.
 NSaved= 7 IEnMin= 7 EnMin= -233.667440832594     IErMin= 7 ErrMin= 6.00D-08
 ErrMax= 6.00D-08 EMaxC= 1.00D-01 BMatC= 4.92D-13 BMatP= 2.58D-12
 IDIUse=1 WtCom= 1.00D+00 WtEn= 0.00D+00
 Coeff-Com:  0.179D-03-0.244D-02-0.168D-02 0.109D-01 0.650D-01 0.321D+00
 Coeff-Com:  0.607D+00
 Coeff:      0.179D-03-0.244D-02-0.168D-02 0.109D-01 0.650D-01 0.321D+00
 Coeff:      0.607D+00
 Gap=     0.333 Goal=   None    Shift=    0.000
 RMSDP=7.37D-09 MaxDP=1.73D-07 DE=-1.31D-12 OVMax= 1.78D-07

 SCF Done:  E(RB3LYP) =  -233.667440833     A.U. after    7 cycles
             Convg  =    0.7373D-08             -V/T =  2.0096
 KE= 2.314449240727D+02 PE=-9.288043774238D+02 EE= 2.709789774818D+02
 Leave Link  502 at Sun Aug 23 11:16:12 2015, MaxMem= 3758096384 cpu:      25.2
 (Enter /share/apps/g09/l701.exe)
 Compute integral first derivatives.
 ... and contract with generalized density number  0.
 Leave Link  701 at Sun Aug 23 11:16:12 2015, MaxMem= 3758096384 cpu:       3.9
 (Enter /share/apps/g09/l702.exe)
 L702 exits ... SP integral derivatives will be done elsewhere.
 Leave Link  702 at Sun Aug 23 11:16:12 2015, MaxMem= 3758096384 cpu:       0.1
 (Enter /share/apps/g09/l703.exe)
 Compute integral first derivatives, UseDBF=F ICtDFT=           0.
 Integral derivatives from FoFDir, PRISM(SPDF).
 Calling FoFJK, ICntrl=      2127 FMM=F ISym2X=0 I1Cent= 0 IOpClX= 0 NMat=1 NMatS=1 NMatT=0.
 FoFCou: FMM=F IPFlag=           0 FMFlag=      100000 FMFlg1=         800
         NFxFlg=           0 DoJE=F BraDBF=F KetDBF=F FulRan=T
         Omega=  0.000000  0.000000  1.000000  0.000000  0.000000 ICntrl=    2127 IOpCl=  0
         NMat0=    1 NMatS0=    1 NMatT0=    0 NMatD0=    1 NMtDS0=    0 NMtDT0=    0
         I1Cent=           0 NGrid=           0.
 Symmetry not used in FoFCou.
 Leave Link  703 at Sun Aug 23 11:16:13 2015, MaxMem= 3758096384 cpu:      10.3
 (Enter /share/apps/g09/l716.exe)
 Dipole        =-5.48575113D-02-4.84110710D-01 3.89157450D-01
 ***** Axes restored to original set *****
 -------------------------------------------------------------------
 Center     Atomic                   Forces (Hartrees/Bohr)
 Number     Number              X              Y              Z
 -------------------------------------------------------------------
      1        6          -0.000017446    0.000017253   -0.000020616
      2        1           0.000005330   -0.000007884   -0.000015297
      3        1          -0.000009165    0.000015836   -0.000010378
      4        1          -0.000004292    0.000005028    0.000007318
      5        6           0.000003756   -0.000034471    0.000034170
      6        1           0.000043269   -0.000019221    0.000026738
      7        6           0.000031467    0.000033467   -0.000004841
      8        1          -0.000000450   -0.000009770   -0.000000493
      9        1          -0.000009842   -0.000000417   -0.000002931
     10        6          -0.000016788    0.000028964    0.000003654
     11        1           0.000005471   -0.000012834    0.000002687
     12        1           0.000003548   -0.000006799    0.000005240
     13        1          -0.000002517   -0.000008253    0.000008776
     14        8          -0.000157717   -0.000010693   -0.000044064
     15        1           0.000125376    0.000009793    0.000010037
 -------------------------------------------------------------------
 Cartesian Forces:  Max     0.000157717 RMS     0.000034632
 Leave Link  716 at Sun Aug 23 11:16:13 2015, MaxMem= 3758096384 cpu:       0.2
 (Enter /share/apps/g09/l103.exe)

 GradGradGradGradGradGradGradGradGradGradGradGradGradGradGradGradGradGrad
 Berny optimization.
 Using GEDIIS/GDIIS optimizer.
 Internal  Forces:  Max     0.000077297 RMS     0.000018756
 Search for a local minimum.
 Step number   2 out of a maximum of   79
 All quantities printed in internal units (Hartrees-Bohrs-Radians)
 RMS Force = .18756D-04 SwitMx=.10000D-02 MixMth= 2
 Mixed Optimization -- En-DIIS/RFO-DIIS
 Swaping is turned off.
 Update second derivatives using D2CorX and points    1    2
 DE= -2.36D-06 DEPred=-1.49D-06 R= 1.58D+00
 SS=  1.41D+00  RLast= 1.43D-02 DXNew= 5.0454D-01 4.3044D-02
 Trust test= 1.58D+00 RLast= 1.43D-02 DXMaxT set to 3.00D-01
     Eigenvalues ---    0.00289   0.00352   0.00371   0.00395   0.03412
     Eigenvalues ---    0.04275   0.04768   0.05077   0.05486   0.05511
     Eigenvalues ---    0.05567   0.05657   0.07546   0.08613   0.12370
     Eigenvalues ---    0.15951   0.16000   0.16000   0.16000   0.16000
     Eigenvalues ---    0.16000   0.16284   0.17376   0.20397   0.21859
     Eigenvalues ---    0.28842   0.29377   0.30065   0.33537   0.33819
     Eigenvalues ---    0.33891   0.33945   0.34065   0.34136   0.34194
     Eigenvalues ---    0.34295   0.34432   0.40713   0.530641000.00000
     Eigenvalues --- 1000.000001000.000001000.000001000.000001000.00000
     Eigenvalues --- 1000.000001000.000001000.000001000.000001000.00000
     Eigenvalues --- 1000.000001000.000001000.000001000.000001000.00000
     Eigenvalues --- 1000.000001000.000001000.000001000.000001000.00000
     Eigenvalues --- 1000.000001000.000001000.000001000.000001000.00000
     Eigenvalues --- 1000.000001000.000001000.000001000.00000
 En-DIIS/RFO-DIIS IScMMF=        0 using points:     2    1
 RFO step:  Lambda=-2.90523462D-07.
 DIIS coeffs:      2.50396     -1.50396
 Iteration  1 RMS(Cart)=  0.00381187 RMS(Int)=  0.00003806
 Iteration  2 RMS(Cart)=  0.00003473 RMS(Int)=  0.00000015
 Iteration  3 RMS(Cart)=  0.00000000 RMS(Int)=  0.00000015
 Variable       Old X    -DE/DX   Delta X   Delta X   Delta X     New X
                                  (DIIS)     (GDIIS)  (Total)
    R1        2.07649   0.00001  -0.00012   0.00017   0.00006   2.07655
    R2        2.07184  -0.00002  -0.00006  -0.00008  -0.00014   2.07170
    R3        2.06838   0.00000   0.00004  -0.00001   0.00003   2.06841
    R4        2.89136  -0.00003   0.00016  -0.00033  -0.00017   2.89119
    R5        2.07420   0.00002   0.00006   0.00012   0.00018   2.07438
    R6        2.90237  -0.00003  -0.00034  -0.00001  -0.00035   2.90202
    R7        2.70596   0.00000   0.00002   0.00001   0.00002   2.70598
    R8        2.07630   0.00001   0.00007   0.00003   0.00010   2.07640
    R9        2.08217   0.00000   0.00018  -0.00010   0.00007   2.08225
   R10        2.89297   0.00002  -0.00032   0.00033   0.00001   2.89298
   R11        2.06777  -0.00001   0.00004  -0.00010  -0.00007   2.06771
   R12        2.07047   0.00000  -0.00006   0.00002  -0.00005   2.07043
   R13        2.07287   0.00001   0.00019  -0.00005   0.00014   2.07301
   R14        1.83594   0.00001   0.00008   0.00001   0.00009   1.83603
    A1        1.87786   0.00000   0.00009  -0.00018  -0.00010   1.87776
    A2        1.88695   0.00000   0.00008   0.00017   0.00025   1.88720
    A3        1.93293   0.00002  -0.00006   0.00036   0.00030   1.93323
    A4        1.89470   0.00001   0.00011   0.00000   0.00012   1.89482
    A5        1.94404  -0.00002   0.00000  -0.00033  -0.00033   1.94371
    A6        1.92558  -0.00001  -0.00021  -0.00001  -0.00022   1.92536
    A7        1.90185  -0.00001  -0.00068   0.00032  -0.00036   1.90149
    A8        1.96445   0.00002   0.00112  -0.00060   0.00052   1.96497
    A9        1.93584  -0.00001   0.00071  -0.00072   0.00000   1.93584
   A10        1.89651   0.00000  -0.00067   0.00067   0.00000   1.89651
   A11        1.81219   0.00002  -0.00061   0.00096   0.00035   1.81254
   A12        1.94592  -0.00002  -0.00008  -0.00045  -0.00053   1.94539
   A13        1.89873   0.00001   0.00068  -0.00044   0.00024   1.89897
   A14        1.89175   0.00002   0.00039   0.00013   0.00052   1.89227
   A15        1.97879  -0.00002  -0.00029  -0.00011  -0.00040   1.97838
   A16        1.84938   0.00000  -0.00007   0.00007   0.00000   1.84937
   A17        1.92220   0.00001  -0.00047   0.00021  -0.00026   1.92195
   A18        1.91823   0.00000  -0.00021   0.00015  -0.00007   1.91816
   A19        1.93070  -0.00001  -0.00007  -0.00006  -0.00013   1.93057
   A20        1.94287   0.00000  -0.00009  -0.00002  -0.00011   1.94277
   A21        1.93693   0.00000  -0.00047   0.00030  -0.00017   1.93676
   A22        1.89335   0.00001   0.00031  -0.00005   0.00026   1.89361
   A23        1.87688   0.00000   0.00025  -0.00005   0.00020   1.87708
   A24        1.88086   0.00000   0.00009  -0.00012  -0.00003   1.88084
   A25        1.86835   0.00002  -0.00016   0.00036   0.00020   1.86855
    D1        3.14074   0.00000  -0.00057   0.00033  -0.00024   3.14050
    D2        1.03576  -0.00001   0.00002  -0.00035  -0.00033   1.03544
    D3       -1.15799   0.00001  -0.00130   0.00127  -0.00002  -1.15802
    D4        1.05156   0.00000  -0.00063   0.00053  -0.00010   1.05146
    D5       -1.05341  -0.00001  -0.00004  -0.00015  -0.00019  -1.05360
    D6        3.03602   0.00001  -0.00136   0.00148   0.00011   3.03613
    D7       -1.05393   0.00000  -0.00064   0.00076   0.00012  -1.05381
    D8        3.12428   0.00000  -0.00005   0.00008   0.00003   3.12431
    D9        0.93053   0.00001  -0.00137   0.00170   0.00033   0.93086
   D10        0.94823   0.00001  -0.00045   0.00003  -0.00042   0.94781
   D11       -1.05514   0.00000  -0.00093   0.00011  -0.00083  -1.05596
   D12        3.09323   0.00000  -0.00075  -0.00010  -0.00085   3.09238
   D13       -1.15981   0.00001   0.00015  -0.00045  -0.00030  -1.16011
   D14        3.12001   0.00000  -0.00033  -0.00037  -0.00070   3.11931
   D15        0.98519   0.00000  -0.00015  -0.00058  -0.00073   0.98446
   D16        3.13651   0.00000   0.00131  -0.00175  -0.00044   3.13607
   D17        1.13315  -0.00001   0.00083  -0.00167  -0.00084   1.13231
   D18       -1.00168  -0.00001   0.00102  -0.00188  -0.00086  -1.00254
   D19        1.10243  -0.00007  -0.01127  -0.00790  -0.01918   1.08326
   D20       -3.14045  -0.00008  -0.01207  -0.00733  -0.01941   3.12333
   D21       -1.10164  -0.00008  -0.01324  -0.00622  -0.01946  -1.12110
   D22        0.98083   0.00000  -0.00002   0.00074   0.00072   0.98155
   D23        3.08730   0.00001   0.00027   0.00061   0.00088   3.08818
   D24       -1.10101   0.00000   0.00002   0.00064   0.00066  -1.10035
   D25        3.11282   0.00000   0.00032   0.00025   0.00056   3.11338
   D26       -1.06390   0.00000   0.00061   0.00012   0.00073  -1.06317
   D27        1.03098   0.00000   0.00035   0.00015   0.00050   1.03148
   D28       -1.13922   0.00000  -0.00017   0.00054   0.00037  -1.13885
   D29        0.96725   0.00000   0.00013   0.00041   0.00054   0.96779
   D30        3.06213   0.00000  -0.00013   0.00044   0.00031   3.06244
         Item               Value     Threshold  Converged?
 Maximum Force            0.000077     0.000450     YES
 RMS     Force            0.000019     0.000300     YES
 Maximum Displacement     0.028740     0.001800     NO 
 RMS     Displacement     0.003809     0.001200     NO 
 Predicted change in Energy=-2.215919D-06
 GradGradGradGradGradGradGradGradGradGradGradGradGradGradGradGradGradGrad

 Leave Link  103 at Sun Aug 23 11:16:14 2015, MaxMem= 3758096384 cpu:       4.9
 (Enter /share/apps/g09/l202.exe)
                          Input orientation:                          
 ---------------------------------------------------------------------
 Center     Atomic      Atomic             Coordinates (Angstroms)
 Number     Number       Type             X           Y           Z
 ---------------------------------------------------------------------
      1          6           0        1.827127   -0.669147    0.107343
      2          1           0        2.019982   -0.631366   -0.973803
      3          1           0        1.819316   -1.724012    0.405779
      4          1           0        2.655274   -0.168427    0.618716
      5          6           0        0.501705    0.015830    0.446183
      6          1           0        0.338560   -0.040016    1.530269
      7          6           0       -0.695516   -0.631714   -0.264920
      8          1           0       -0.703223   -1.706745   -0.037832
      9          1           0       -0.538605   -0.552927   -1.352718
     10          6           0       -2.039066   -0.003670    0.114664
     11          1           0       -2.030301    1.072727   -0.081627
     12          1           0       -2.862757   -0.453383   -0.450742
     13          1           0       -2.250186   -0.143539    1.182022
     14          8           0        0.570497    1.421480    0.181837
     15          1           0        0.732117    1.524821   -0.770621
 ---------------------------------------------------------------------
                    Distance matrix (angstroms):
                    1          2          3          4          5
     1  C    0.000000
     2  H    1.098862   0.000000
     3  H    1.096297   1.771268   0.000000
     4  H    1.094554   1.775957   1.778767   0.000000
     5  C    1.529951   2.177243   2.182838   2.168312   0.000000
     6  H    2.153220   3.073639   2.508577   2.492907   1.097714
     7  C    2.550237   2.806500   2.822646   3.496175   1.535682
     8  H    2.738678   3.073813   2.561306   3.751929   2.157171
     9  H    2.782440   2.587681   3.165998   3.772963   2.154478
    10  C    3.923055   4.249074   4.234553   4.724197   2.562382
    11  H    4.236696   4.483827   4.783186   4.897505   2.794042
    12  H    4.727899   4.913900   4.926452   5.627930   3.513437
    13  H    4.249198   4.808315   4.434106   4.937760   2.853027
    14  O    2.440367   2.765988   3.391729   2.658000   1.431944
    15  H    2.604489   2.519726   3.622269   2.914768   1.952116
                    6          7          8          9         10
     6  H    0.000000
     7  C    2.154559   0.000000
     8  H    2.514406   1.098781   0.000000
     9  H    3.056814   1.101877   1.757078   0.000000
    10  C    2.767374   1.530899   2.169838   2.169396   0.000000
    11  H    3.073745   2.172641   3.080344   2.546288   1.094183
    12  H    3.787308   2.182491   2.530810   2.495026   1.095624
    13  H    2.614115   2.179210   2.514906   3.085777   1.096990
    14  O    2.002007   2.453159   3.384732   2.735553   2.974119
    15  H    2.810284   2.635244   3.611122   2.504118   3.286255
                   11         12         13         14         15
    11  H    0.000000
    12  H    1.777144   0.000000
    13  H    1.767614   1.771203   0.000000
    14  O    2.637270   3.962638   3.377264   0.000000
    15  H    2.882717   4.115669   3.935781   0.971585   0.000000
 Stoichiometry    C4H10O
 Framework group  C1[X(C4H10O)]
 Deg. of freedom    39
 Full point group                 C1      NOp   1
 Largest Abelian subgroup         C1      NOp   1
 Largest concise Abelian subgroup C1      NOp   1
                         Standard orientation:                         
 ---------------------------------------------------------------------
 Center     Atomic      Atomic             Coordinates (Angstroms)
 Number     Number       Type             X           Y           Z
 ---------------------------------------------------------------------
      1          6           0       -1.806323   -0.661009   -0.005040
      2          1           0       -1.958252   -0.716758    1.081840
      3          1           0       -1.827004   -1.685250   -0.395383
      4          1           0       -2.644511   -0.106050   -0.438064
      5          6           0       -0.483274    0.033838   -0.332881
      6          1           0       -0.361437    0.072247   -1.423137
      7          6           0        0.728677   -0.689926    0.271816
      8          1           0        0.710207   -1.740580   -0.049284
      9          1           0        0.613585   -0.705897    1.367550
     10          6           0        2.067386   -0.048406   -0.102296
     11          1           0        2.083678    1.006354    0.188310
     12          1           0        2.903970   -0.557299    0.389179
     13          1           0        2.236393   -0.095797   -1.185153
     14          8           0       -0.519001    1.411277    0.056798
     15          1           0       -0.643418    1.431829    1.020164
 ---------------------------------------------------------------------
 Rotational constants (GHZ):      7.9560685      3.4124307      2.6510260
 Leave Link  202 at Sun Aug 23 11:16:14 2015, MaxMem= 3758096384 cpu:       0.6
 (Enter /share/apps/g09/l301.exe)
 Standard basis: 6-31G(d) (6D, 7F)
 Ernie: Thresh=  0.10000D-02 Tol=  0.10000D-05 Strict=F.
 There are    95 symmetry adapted basis functions of A   symmetry.
 Integral buffers will be    131072 words long.
 Raffenetti 2 integral format.
 Two-electron integral symmetry is turned on.
    95 basis functions,   180 primitive gaussians,    95 cartesian basis functions
    21 alpha electrons       21 beta electrons
       nuclear repulsion energy       192.7172390573 Hartrees.
 IExCor=  402 DFT=T Ex+Corr=B3LYP ExCW=0 ScaHFX=  0.200000
 ScaDFX=  0.800000  0.720000  1.000000  0.810000 ScalE2=  1.000000  1.000000
 IRadAn=      0 IRanWt=     -1 IRanGd=            0 ICorTp=0
 NAtoms=   15 NActive=   15 NUniq=   15 SFac= 7.50D-01 NAtFMM=   80 NAOKFM=F Big=F
 Leave Link  301 at Sun Aug 23 11:16:14 2015, MaxMem= 3758096384 cpu:       0.6
 (Enter /share/apps/g09/l302.exe)
 NPDir=0 NMtPBC=     1 NCelOv=     1 NCel=       1 NClECP=     1 NCelD=      1
         NCelK=      1 NCelE2=     1 NClLst=     1 CellRange=     0.0.
 One-electron integrals computed using PRISM.
 NBasis=    95 RedAO= T  NBF=    95
 NBsUse=    95 1.00D-06 NBFU=    95
 Precomputing XC quadrature grid using
 IXCGrd= 2 IRadAn=           0 IRanWt=          -1 IRanGd=           0 AccXCQ= 1.00D-10.
 NRdTot=     933 NPtTot=      118114 NUsed=      124853 NTot=      124885
 NSgBfM=    95    95    95    95    95 NAtAll=    15    15.
 Leave Link  302 at Sun Aug 23 11:16:15 2015, MaxMem= 3758096384 cpu:       3.3
 (Enter /share/apps/g09/l303.exe)
 DipDrv:  MaxL=1.
 Leave Link  303 at Sun Aug 23 11:16:15 2015, MaxMem= 3758096384 cpu:       0.3
 (Enter /share/apps/g09/l401.exe)
 Initial guess read from the read-write file.
 B after Tr=     0.000000    0.000000    0.000000
         Rot=    1.000000    0.000000    0.000000    0.000000 Ang=   0.00 deg.
 Guess basis will be translated and rotated to current coordinates.
 Initial guess orbital symmetries:
       Occupied  (A) (A) (A) (A) (A) (A) (A) (A) (A) (A) (A) (A)
                 (A) (A) (A) (A) (A) (A) (A) (A) (A)
       Virtual   (A) (A) (A) (A) (A) (A) (A) (A) (A) (A) (A) (A)
                 (A) (A) (A) (A) (A) (A) (A) (A) (A) (A) (A) (A)
                 (A) (A) (A) (A) (A) (A) (A) (A) (A) (A) (A) (A)
                 (A) (A) (A) (A) (A) (A) (A) (A) (A) (A) (A) (A)
                 (A) (A) (A) (A) (A) (A) (A) (A) (A) (A) (A) (A)
                 (A) (A) (A) (A) (A) (A) (A) (A) (A) (A) (A) (A)
                 (A) (A)
 The electronic state of the initial guess is 1-A.
 Generating alternative initial guess.
 Harris functional with IExCor=  402 diagonalized for initial guess.
 ExpMin= 1.61D-01 ExpMax= 5.48D+03 ExpMxC= 8.25D+02 IAcc=1 IRadAn=         1 AccDes= 0.00D+00
 HarFok:  IExCor=  402 AccDes= 0.00D+00 IRadAn=         1 IDoV= 1
 ScaDFX=  1.000000  1.000000  1.000000  1.000000
 FoFCou: FMM=F IPFlag=           0 FMFlag=      100000 FMFlg1=           0
[...]
    A6        1.92536   0.00003   0.00000   0.00040   0.00040   1.92575
    A7        1.90149   0.00002   0.00000   0.00019   0.00019   1.90168
    A8        1.96497  -0.00006   0.00000  -0.00042  -0.00042   1.96455
    A9        1.93584   0.00002   0.00000   0.00008   0.00008   1.93592
   A10        1.89651   0.00002   0.00000   0.00019   0.00019   1.89670
   A11        1.81254  -0.00003   0.00000  -0.00018  -0.00018   1.81236
   A12        1.94539   0.00003   0.00000   0.00017   0.00017   1.94556
   A13        1.89897  -0.00001   0.00000  -0.00017  -0.00017   1.89880
   A14        1.89227  -0.00003   0.00000  -0.00036  -0.00036   1.89191
   A15        1.97838   0.00002   0.00000   0.00005   0.00005   1.97843
   A16        1.84937   0.00001   0.00000   0.00028   0.00028   1.84965
   A17        1.92195   0.00001   0.00000   0.00026   0.00026   1.92220
   A18        1.91816   0.00000   0.00000  -0.00004  -0.00004   1.91813
   A19        1.93057  -0.00002   0.00000  -0.00019  -0.00019   1.93038
   A20        1.94277   0.00001   0.00000   0.00008   0.00008   1.94284
   A21        1.93676   0.00002   0.00000   0.00022   0.00022   1.93698
   A22        1.89361   0.00000   0.00000  -0.00010  -0.00010   1.89351
   A23        1.87708   0.00000   0.00000   0.00003   0.00003   1.87711
   A24        1.88084  -0.00001   0.00000  -0.00004  -0.00004   1.88079
   A25        1.86855  -0.00003   0.00000  -0.00014  -0.00014   1.86841
    D1        3.14050   0.00000   0.00000   0.00056   0.00056   3.14105
    D2        1.03544   0.00000   0.00000   0.00046   0.00046   1.03589
    D3       -1.15802  -0.00001   0.00000   0.00049   0.00049  -1.15753
    D4        1.05146   0.00001   0.00000   0.00086   0.00086   1.05232
    D5       -1.05360   0.00001   0.00000   0.00076   0.00076  -1.05284
    D6        3.03613   0.00000   0.00000   0.00079   0.00079   3.03692
    D7       -1.05381   0.00000   0.00000   0.00062   0.00062  -1.05320
    D8        3.12431   0.00000   0.00000   0.00052   0.00052   3.12483
    D9        0.93086  -0.00001   0.00000   0.00055   0.00055   0.93141
   D10        0.94781  -0.00001   0.00000   0.00076   0.00076   0.94857
   D11       -1.05596   0.00000   0.00000   0.00072   0.00072  -1.05524
   D12        3.09238   0.00001   0.00000   0.00100   0.00100   3.09338
   D13       -1.16011   0.00000   0.00000   0.00066   0.00066  -1.15945
   D14        3.11931   0.00000   0.00000   0.00062   0.00062   3.11993
   D15        0.98446   0.00001   0.00000   0.00090   0.00090   0.98536
   D16        3.13607   0.00000   0.00000   0.00068   0.00068   3.13675
   D17        1.13231   0.00001   0.00000   0.00064   0.00064   1.13294
   D18       -1.00254   0.00001   0.00000   0.00092   0.00092  -1.00162
   D19        1.08326  -0.00002   0.00000  -0.00172  -0.00172   1.08154
   D20        3.12333  -0.00001   0.00000  -0.00156  -0.00156   3.12177
   D21       -1.12110   0.00002   0.00000  -0.00136  -0.00136  -1.12246
   D22        0.98155   0.00000   0.00000  -0.00023  -0.00023   0.98131
   D23        3.08818  -0.00001   0.00000  -0.00043  -0.00043   3.08775
   D24       -1.10035  -0.00001   0.00000  -0.00029  -0.00029  -1.10064
   D25        3.11338   0.00000   0.00000  -0.00023  -0.00023   3.11315
   D26       -1.06317  -0.00001   0.00000  -0.00044  -0.00044  -1.06361
   D27        1.03148   0.00000   0.00000  -0.00029  -0.00029   1.03119
   D28       -1.13885   0.00002   0.00000   0.00023   0.00023  -1.13862
   D29        0.96779   0.00001   0.00000   0.00003   0.00003   0.96782
   D30        3.06244   0.00001   0.00000   0.00017   0.00017   3.06261
         Item               Value     Threshold  Converged?
 Maximum Force            0.000068     0.000450     YES
 RMS     Force            0.000021     0.000300     YES
 Maximum Displacement     0.002285     0.001800     NO 
 RMS     Displacement     0.000740     0.001200     YES
 Predicted change in Energy=-1.214090D-07
 GradGradGradGradGradGradGradGradGradGradGradGradGradGradGradGradGradGrad

 Leave Link  103 at Sun Aug 23 11:16:54 2015, MaxMem= 3758096384 cpu:      20.0
 (Enter /share/apps/g09/l9999.exe)
 1\1\GINC-COMPUTE-0-6\Freq\RB3LYP\6-31G(d)\C4H10O1\HETANJIN\23-Aug-2015
 \0\\#P Geom=AllCheck Guess=TCheck SCRF=Check GenChk RB3LYP/6-31G(d) Fr
 eq\\using ub3lyp/6-31G(d) to scan\\0,1\C,1.8271272608,-0.6691469788,0.
 1073429274\H,2.0199819196,-0.6313659926,-0.9738032764\H,1.8193158738,-
 1.7240124201,0.4057791781\H,2.6552738809,-0.1684270098,0.6187155435\C,
 0.5017051675,0.0158301824,0.4461832676\H,0.3385595986,-0.0400157982,1.
 5302689296\C,-0.6955158013,-0.6317140798,-0.2649203547\H,-0.7032225245
 ,-1.7067450113,-0.037831511\H,-0.5386045234,-0.5529266135,-1.352718468
 5\C,-2.0390658859,-0.0036697895,0.1146639578\H,-2.030301198,1.07272721
 56,-0.0816267149\H,-2.8627567931,-0.4533828042,-0.4507416692\H,-2.2501
 863423,-0.1435393369,1.1820216514\O,0.5704969681,1.4214804399,0.181837
 3489\H,0.7321173993,1.5248209967,-0.7706208096\\Version=EM64L-G09RevA.
 01\State=1-A\HF=-233.667443\RMSD=2.344e-09\RMSF=3.028e-05\ZeroPoint=0.
 1371468\Thermal=0.1438751\Dipole=0.0752899,-0.4485505,-0.4268756\Dipol
 eDeriv=-0.0914967,0.104675,0.0136537,0.0053818,0.0255202,-0.0022976,-0
 .0183434,-0.0239886,0.1275179,0.0276366,0.0162797,-0.0029864,0.0091133
 ,0.0432632,0.0332136,0.0578839,0.0056166,-0.1659607,0.0432057,-0.01113
 76,0.0134987,0.0239298,-0.1450591,0.0505468,0.0079371,0.0521039,0.0438
 72,-0.113038,-0.0433142,-0.0568015,-0.0701716,0.0239666,-0.0491748,-0.
 0631735,-0.0429986,0.0190272,0.5130553,0.0085978,0.0272384,0.0332166,0
 .7581515,-0.0678296,0.0539145,-0.0576243,0.2859524,-0.0127956,0.002664
 4,0.0446609,0.0016682,-0.0206076,-0.0056552,0.029006,0.0049778,-0.1640
 564,0.0094095,-0.061442,-0.0553739,0.0048495,0.0767736,-0.0177667,-0.0
 49316,-0.0603173,0.1433939,-0.0059839,0.0159621,-0.000004,0.0181946,-0
 .181603,0.0256546,0.0015695,0.0439391,0.0365726,-0.0367692,-0.0003915,
 0.0704787,-0.002547,0.0303991,0.0300487,0.0419086,-0.002164,-0.187898,
 0.0296618,0.0348846,0.0094066,-0.0129361,0.0730372,-0.0017187,-0.03613
 28,-0.0028545,0.1176702,0.0745685,-0.00293,0.0141851,0.0433437,-0.1182
 917,0.0284633,0.0170442,0.0383458,0.0459581,-0.1393256,-0.0458618,-0.0
 701091,-0.0619078,0.0224224,-0.0531461,-0.0868857,-0.0517423,0.0007847
 ,0.0218072,0.0158461,0.0182302,0.0114543,0.0488508,0.0302464,0.0717082
 ,0.0171258,-0.1558647,-0.6614201,-0.0435458,-0.0589552,-0.0258723,-0.9
 262801,0.0713753,-0.0725636,0.0756179,-0.1986622,0.3414845,0.0097132,0
 .0328777,0.0222829,0.2894569,-0.0719602,0.045443,0.0039626,0.0516931\P
 olar=51.29115,-0.4165595,45.5682936,-0.1474058,-1.0059063,44.7487823\P
 G=C01 [X(C4H10O1)]\NImag=0\\0.50652940,0.04645442,0.56655607,0.0249804
 9,-0.00816850,0.56675771,-0.05662111,-0.00147288,0.04043375,0.05957019
 ,-0.00229507,-0.05010075,0.00950559,-0.00014417,0.04871490,0.04052655,
 0.01047625,-0.29708908,-0.04719162,-0.01065879,0.32401556,-0.05076223,
 -0.00446140,0.00140363,-0.00093624,-0.00525412,0.00086217,0.05011317,-
 0.00272319,-0.29154658,0.06980168,-0.00032032,0.00046048,0.00008084,0.
 00331893,0.31731589,0.00098974,0.07019701,-0.06902302,0.00009306,0.032
 43309,-0.00805040,-0.00194196,-0.07684330,0.06978661,-0.19850507,-0.09
 255069,-0.09487600,0.00526946,0.00367778,0.00279733,0.00079253,0.00042
 760,0.00129219,0.21647996,-0.09500937,-0.10693134,-0.05872230,0.002690
 35,0.00060594,0.00150868,-0.02361384,-0.01295830,-0.01598473,0.1015251
 9,0.11174142,-0.09552560,-0.05868986,-0.11041073,-0.02487016,-0.015474
 64,-0.01446785,0.00882688,0.00421975,0.00468798,0.10305270,0.06511380,
 0.11514096,-0.16842275,0.03119810,0.02722929,-0.00594013,0.00298918,0.
 00168151,0.00535172,-0.00474253,-0.00171348,-0.02389638,0.01291324,0.0
 0752110,0.48449241,0.03887279,-0.08876537,-0.01462474,-0.00251844,-0.0
 0070730,0.00187266,0.02513147,-0.01294485,-0.00734843,-0.01606608,0.00
 612158,0.00454512,-0.00288187,0.45406642,0.02428065,-0.00861998,-0.094
 24037,0.03274063,-0.01587611,-0.00968363,-0.01102441,0.00512275,0.0008
 7049,-0.01512283,0.00822337,0.00384817,-0.02944110,-0.00880195,0.63712
 168,-0.00611065,0.00063559,0.02989579,-0.00493989,0.00281650,0.0016288
 8,0.00103995,0.00001146,-0.00060179,0.00114664,-0.00088025,-0.00024837
 ,-0.05764818,-0.00116190,0.03634520,0.06389613,0.00278255,0.00170979,-
 0.01507771,0.00313848,-0.00071723,-0.00089689,-0.00078211,0.00044980,0
 .00013912,-0.00026192,0.00032792,0.00074250,0.00044286,-0.04728400,-0.
 00248178,0.00217808,0.06636090,0.00138995,-0.00081374,-0.00659888,0.00
 092815,-0.00074841,0.00132015,0.00036405,-0.00060495,0.00015927,0.0003
 3008,0.00022724,0.00067349,0.03689158,0.00818548,-0.29864381,-0.039870
 20,-0.01294971,0.32411530,-0.02961559,-0.00938494,-0.01554875,0.002012
 48,-0.00097002,-0.00089821,0.00042541,-0.00082833,-0.00012075,-0.00407
 778,0.00203672,0.00088612,-0.13929286,-0.02658291,-0.03677040,0.001897
 76,0.00128930,0.00117753,0.46326610,0.00952945,0.01116962,0.00656994,0
 .00002285,-0.00014028,-0.00017711,-0.00020343,-0.00034422,0.00035708,0
 .00449519,-0.00179509,-0.00079662,-0.02420254,-0.08638609,-0.01484956,
 0.00023263,0.00218536,-0.00070791,-0.00853285,0.56577799,0.00561603,0.
 00383186,0.00482144,0.00154446,0.00015543,0.00036773,-0.00028353,0.000
 02922,-0.00010181,0.00318571,-0.00067618,0.00009360,-0.04022808,-0.023
 21433,-0.11247070,-0.02702576,-0.01452520,-0.01713511,-0.01856570,-0.0
 3202848,0.55792045,0.00018724,0.00015887,0.00036867,-0.00013550,-0.000
 02992,-0.00000163,-0.00090959,0.00026336,-0.00021628,0.00042224,0.0001
 7692,-0.00004339,0.00162486,-0.02325041,0.00953232,0.00075831,0.000756
 62,-0.00020573,-0.04904096,-0.00379296,-0.00044552,0.05594196,0.000885
 04,-0.00002429,0.00049340,-0.00007260,0.00002913,-0.00011392,-0.000311
 67,0.00107516,-0.00017995,0.00003755,0.00037063,-0.00024769,0.00234942
 ,-0.01443640,0.00590581,0.00015317,0.00041546,-0.00056629,-0.00525770,
 -0.29034521,0.05308122,0.00281731,0.31758914,0.00031874,0.00033685,0.0
 0030770,0.00000103,0.00015054,0.00001888,-0.00018637,-0.00003472,0.000
 28897,0.00023736,-0.00009681,-0.00016922,0.00105833,-0.01507089,0.0035
 2205,0.00082431,0.00043554,0.00030982,0.00024633,0.05410783,-0.0632258
 2,-0.00076915,-0.05830554,0.06324597,0.00176623,-0.00011261,-0.0009129
 7,-0.00023145,-0.00006026,0.00065629,-0.00007613,0.00000167,-0.0000648
 9,0.00020787,-0.00006904,0.00036677,0.00198075,0.00259103,-0.02858250,
 -0.00380276,-0.00257424,-0.00242440,-0.05331470,-0.00384195,0.03328285
 ,-0.00053042,-0.00025332,0.00104352,0.06154491,0.00079013,-0.00023322,
 0.00051092,0.00009680,0.00026852,0.00023492,-0.00002214,0.00006143,0.0
 0011896,0.00015699,-0.00009910,-0.00003516,0.00055809,-0.00034370,-0.0
 1578757,-0.00214006,-0.00061004,-0.00180260,-0.00268960,-0.05293069,0.
 02002543,-0.00414633,-0.00198737,0.03282123,0.00283100,0.05229576,0.00
 112108,-0.00029383,0.00031615,-0.00096760,0.00027725,0.00092445,0.0000
 5267,-0.00013490,0.00008099,-0.00015701,-0.00008654,0.00053565,0.00214
 796,0.00342205,-0.02086280,-0.00315028,-0.00170240,-0.00027337,0.03368
 919,0.02054244,-0.28712278,0.00069518,0.00122248,-0.00705653,-0.036426
 24,-0.02105617,0.31585961,-0.00211657,-0.00282056,-0.00188473,-0.00009
 883,-0.00004822,0.00007056,0.00018169,0.00029525,-0.00010647,-0.000764
 18,0.00072588,0.00042076,-0.03112825,0.00778510,0.00416866,0.00183154,
 0.00066795,0.00118834,-0.16550901,0.04212659,0.02637131,-0.00058762,0.
 00029488,0.00001966,-0.00569901,0.00249370,0.00144801,0.50446210,-0.00
 256568,-0.00200340,-0.00172203,0.00010065,-0.00010129,-0.00002159,-0.0
 0021835,0.00030281,-0.00018519,-0.00123142,0.00074477,-0.00005102,-0.0
 1062836,0.01025985,0.00577249,0.00024177,0.00012412,0.00020258,0.04108
 125,-0.10336792,-0.01303980,0.03158263,-0.01251028,-0.00930225,-0.0030
 1914,0.00116388,0.00069171,0.04041573,0.56414368,-0.00254502,-0.002328
 67,-0.00226416,-0.00022842,-0.00008616,0.00049713,0.00025201,-0.000118
 83,-0.00003122,-0.00142603,0.00029207,0.00067370,-0.01401766,0.0092157
 4,0.00542770,-0.00097039,0.00054882,0.00063333,0.02626663,-0.01380404,
 -0.09005314,-0.00654390,0.00257709,0.00173570,0.03086432,-0.01442487,-
 0.00749104,0.02552300,-0.00876892,0.56884616,0.00002642,-0.00032803,0.
 00014297,0.00003883,0.00003764,-0.00000713,0.00028242,-0.00027841,0.00
 002505,-0.00008294,-0.00009786,-0.00001064,0.00133268,0.00244076,-0.00
 092208,-0.00014639,-0.00016490,-0.00004110,0.00051441,0.03145394,-0.00
 654743,-0.00583957,0.00253627,0.00160903,0.00123622,-0.00080507,0.0000
 0710,-0.04800429,-0.00677278,0.00078398,0.05148122,0.00011372,0.000002
 06,0.00014756,-0.00002049,-0.00001061,-0.00001822,-0.00000957,0.000148
 78,-0.00002061,0.00012231,0.00003637,0.00000306,-0.00091243,-0.0019786
 9,-0.00031093,0.00012555,0.00003891,0.00006125,0.00175312,-0.01317702,
 0.00285873,0.00237506,0.00029391,-0.00134241,0.00000030,0.00049625,-0.
 00040207,-0.00442488,-0.30769424,0.04903486,0.00368153,0.33453990,-0.0
 0009253,-0.00011351,-0.00000401,0.00001820,-0.00000956,-0.00001617,0.0
 0000491,-0.00001677,-0.00001523,-0.00001316,0.00004388,-0.00001347,-0.
 00020954,0.00084943,0.00013680,-0.00003514,0.00008144,-0.00001040,-0.0
 0050250,-0.00961345,0.00160004,0.00195818,-0.00087690,0.00062335,-0.00
 075631,-0.00028231,0.00032530,0.00032568,0.04832142,-0.06056575,-0.002
 78712,-0.05282734,0.05999494,-0.00105517,-0.00139343,-0.00112075,-0.00
 002029,-0.00002475,0.00012076,0.00007479,0.00005337,-0.00003274,-0.000
 68030,0.00028852,0.00016385,-0.00348059,0.00470589,0.00338591,0.000280
 51,0.00016670,-0.00001615,-0.02138329,-0.01341392,-0.01597250,0.001067
 17,0.00031741,-0.00032334,0.00103553,-0.00054470,0.00046756,-0.1943178
 2,-0.08228061,-0.10235825,0.00015619,-0.00025689,0.00096784,0.21243069
 ,0.00065304,0.00061075,0.00037804,-0.00001098,0.00000158,-0.00003890,-
 0.00004208,0.00003032,0.00003375,0.00031263,-0.00010015,-0.00004414,0.
 00249509,-0.00293340,-0.00117316,-0.00011676,-0.00012629,-0.00007325,0
 .01268090,0.00652428,0.00930247,-0.00063480,0.00058876,0.00046471,-0.0
 0081804,0.00039277,0.00009471,-0.08272604,-0.09566814,-0.05718865,-0.0
 2440118,-0.01156078,-0.01853366,0.08889448,0.09961235,0.00035334,0.000
 11166,0.00056271,-0.00009530,0.00005067,0.00000018,-0.00001284,-0.0000
 1319,-0.00000800,0.00016924,-0.00008009,-0.00004700,0.00142603,-0.0008
 4533,-0.00049518,0.00029808,0.00004261,0.00047181,0.00838021,0.0050288
 9,0.00476918,-0.00060975,0.00023091,0.00003618,-0.00035591,0.00050742,
 0.00069033,-0.10320184,-0.05729729,-0.12165354,0.00646303,0.00252933,0
 .00344332,0.11182630,0.06421834,0.12796744,-0.00005601,0.00019422,-0.0
 0019036,0.00019457,-0.00004095,-0.00026053,-0.00001343,0.00001082,0.00
 002505,-0.00000097,-0.00000106,-0.00013508,0.00170553,-0.00010886,0.00
 223621,-0.00021650,-0.00018414,-0.00105465,-0.00627689,-0.00462813,0.0
 3044942,0.00136876,-0.00021263,-0.00068336,-0.00535548,0.00271392,0.00
 141988,-0.05786833,-0.00714450,0.04481144,-0.00085583,-0.00041321,0.00
 056882,0.00556460,0.00492553,-0.02460691,0.06176549,-0.00007217,-0.000
 04082,-0.00010198,-0.00004800,-0.00002603,0.00006244,0.00001683,-0.000
 02885,-0.00000077,-0.00002652,-0.00000281,0.00006299,-0.00065246,0.000
 16936,0.00045804,-0.00005930,0.00018500,0.00020496,0.00275134,0.001491
 81,-0.01551864,-0.00085048,0.00050298,-0.00032671,0.00333901,-0.000293
 88,-0.00090927,-0.00721554,-0.05506226,0.03523797,-0.00539893,-0.00250
 317,0.03318990,0.00351827,0.00159722,-0.01436704,0.00485919,0.05410977
 ,0.00004687,0.00007129,0.00046984,-0.00023053,0.00003123,0.00001628,0.
 00000019,-0.00002291,-0.00003222,0.00010107,-0.00001226,0.00000902,-0.
 00090987,-0.00017968,0.00017606,0.00074781,0.00028806,0.00062748,0.001
 85098,0.00060915,-0.00772794,0.00003594,-0.00048291,0.00055097,0.00137
 526,-0.00108981,0.00113892,0.04546413,0.03471252,-0.29620166,0.0003288
 9,0.00067431,-0.00504310,0.00297613,0.00287018,-0.01594313,-0.05201354
 ,-0.03750096,0.32173209,0.00384397,0.03381712,-0.00714763,0.00140650,-
 0.00098598,-0.00072812,-0.00522025,0.00487129,0.00176330,0.00412697,-0
 .00084880,-0.00001288,-0.06589347,-0.00946198,0.00620801,0.00145913,-0
 .00685520,0.00172164,0.00051736,-0.02931345,0.00620050,-0.00452216,-0.
 00383646,-0.00276461,0.00106988,0.00126664,0.00045669,0.00015066,0.000
 89624,-0.00024894,0.00055537,-0.00239188,0.00010865,0.00030802,-0.0013
 7807,0.00002388,-0.00019172,-0.00047559,0.00051675,0.07923423,0.002621
 70,-0.04211643,0.00980109,-0.00224801,0.00205111,-0.00115871,0.0068499
 7,-0.00254725,-0.00209761,-0.00069885,0.00204482,0.00088105,-0.0005581
 9,-0.20272599,-0.00702379,-0.00169296,-0.01568679,0.00817699,-0.007030
 62,-0.04001111,0.00836989,-0.00607033,-0.00206030,-0.00334473,0.002461
 93,0.00223813,-0.00018705,0.00276607,-0.00062537,-0.00006272,-0.001811
 32,0.00141939,-0.00019129,-0.00014086,0.00100609,-0.00009938,-0.000215
 93,0.00003679,0.00016298,0.01638645,0.34329668,-0.00052066,-0.00443172
 ,0.00410841,-0.00138382,-0.00039478,0.00232239,0.00117004,-0.00080246,
 0.00127958,0.00062661,0.00005372,-0.00030159,0.00649101,0.04537929,-0.
 10101298,0.00237753,0.04184961,-0.00781322,-0.00014751,-0.01367627,0.0
 0499644,-0.00322002,-0.00230512,0.00002975,0.00100575,-0.00024725,0.00
 310539,0.00010302,0.00057715,0.00070588,0.00067526,-0.00042343,-0.0004
 3471,-0.00000805,-0.00029043,0.00017081,-0.00053385,-0.00040789,0.0002
 3379,-0.08520406,-0.07094183,0.56071843,0.00091190,0.00006622,-0.00277
 340,0.00043140,0.00033236,0.00074319,-0.00034382,-0.00036097,0.0006099
 7,-0.00043805,0.00016340,-0.00039206,-0.00078534,0.00050541,0.00296572
 ,0.00055440,-0.00060001,-0.00037909,-0.00012245,0.00006859,0.00241825,
 0.00019528,0.00055333,-0.00063148,0.00016857,-0.00055938,-0.00080421,-
 0.00053206,-0.00045743,-0.00016279,-0.00069475,0.00025777,0.00044401,0
 .00001998,0.00016628,-0.00005757,0.00023620,0.00031435,-0.00029008,-0.
 01684449,-0.01061907,0.07856874,0.01724323,-0.00003736,0.00171391,0.00
 120903,0.00080675,-0.00032816,-0.00115165,-0.00039850,0.00052540,-0.00
 061841,0.00008023,-0.00010667,-0.00022914,-0.00836759,-0.01211141,0.04
 944238,-0.00034354,-0.00737291,0.00120837,-0.00031565,0.00134857,0.001
 34838,0.00064446,0.00049867,-0.00049263,-0.00047635,-0.00041873,-0.001
 47841,-0.00033591,0.00029379,-0.00012369,-0.00009165,-0.00005105,-0.00
 002126,0.00011053,0.00002465,-0.00001751,0.00024574,-0.00013510,-0.000
 13119,-0.00169031,-0.04631979,0.00606139,0.01016916,0.06243885,-0.0009
 3962,-0.00156511,0.00228629,-0.00079183,0.00064465,-0.00017561,0.00051
 256,-0.00066220,0.00010801,-0.00019728,0.00019615,-0.00025272,0.002072
 92,-0.00338442,-0.01369347,-0.00021569,0.00350600,0.00216413,0.0000568
 2,-0.00156189,0.00326844,-0.00053491,-0.00043259,-0.00021776,0.0009284
 5,0.00050685,-0.00017027,0.00008989,0.00011023,-0.00025908,0.00028019,
 0.00003591,-0.00002090,-0.00007655,-0.00002001,0.00003488,-0.00003255,
 -0.00008303,-0.00000639,0.07910683,0.05771512,-0.46810837,-0.08025923,
 -0.05500565,0.47504281\\0.00003919,-0.00002043,-0.00002993,0.00000774,
 0.00000075,0.00001586,-0.00002467,0.00002014,0.00001463,-0.00001723,0.
 00001824,0.00000449,-0.00004115,-0.00002590,-0.00001226,-0.00001416,-0
 .00002594,0.00003213,0.00005471,0.00008151,0.00009547,-0.00001572,0.00
 000259,-0.00001176,-0.00001322,-0.00002409,-0.00005992,-0.00000311,0.0
 0000170,-0.00004199,-0.00000357,0.00000636,0.00000507,0.00001697,-0.00
 000316,0.00000398,0.00000855,-0.00000357,0.00002635,0.00000408,-0.0000
 4984,0.00000626,0.00000159,0.00002163,-0.00004838\\\@


 CHARLIE BROWN -- WHICH DO YOU THINK LASTS LONGER IN LIFE, THE GOOD THINGS 
                  OR THE BAD THINGS?
 LINUS --         GOOD THINGS LAST EIGHT SECONDS ..
                  BAD THINGS LAST THREE WEEKS
 CHARLIE BROWN -- WHAT ABOUT IN BETWEEN?
 SNOOPY --        IN BETWEEN YOU SHOULD TAKE A NAP ...
 Job cpu time:  0 days  0 hours  5 minutes 25.4 seconds.
 File lengths (MBytes):  RWF=     21 Int=      0 D2E=      0 Chk=      3 Scr=      1
 Normal termination of Gaussian 09 at Sun Aug 23 11:16:54 2015.
