 Entering Link 1 = C:\software\G09W\l1.exe PID=      6072.
  
 Copyright (c) 1988,1990,1992,1993,1995,1998,2003,2009, Gaussian, Inc.
                  All Rights Reserved.
  
 This is part of the Gaussian(R) 09 program.  It is based on
 the Gaussian(R) 03 system (copyright 2003, Gaussian, Inc.),
 the Gaussian(R) 98 system (copyright 1998, Gaussian, Inc.),
 the Gaussian(R) 94 system (copyright 1995, Gaussian, Inc.),
 the Gaussian 92(TM) system (copyright 1992, Gaussian, Inc.),
 the Gaussian 90(TM) system (copyright 1990, Gaussian, Inc.),
 the Gaussian 88(TM) system (copyright 1988, Gaussian, Inc.),
 the Gaussian 86(TM) system (copyright 1986, Carnegie Mellon
 University), and the Gaussian 82(TM) system (copyright 1983,
 Carnegie Mellon University). Gaussian is a federally registered
 trademark of Gaussian, Inc.
  
 This software contains proprietary and confidential information,
 including trade secrets, belonging to Gaussian, Inc.
  
 This software is provided under written license and may be
 used, copied, transmitted, or stored only in accord with that
 written license.
  
 The following legend is applicable only to US Government
 contracts under FAR:
  
                    RESTRICTED RIGHTS LEGEND
  
 Use, reproduction and disclosure by the US Government is
 subject to restrictions as set forth in subparagraphs (a)
 and (c) of the Commercial Computer Software - Restricted
 Rights clause in FAR 52.227-19.
  
 Gaussian, Inc.
 340 Quinnipiac St., Bldg. 40, Wallingford CT 06492
  
  
 ---------------------------------------------------------------
 Warning -- This program may not be used in any manner that
 competes with the business of Gaussian, Inc. or will provide
 assistance to any competitor of Gaussian, Inc.  The licensee
 of this program is prohibited from giving any competitor of
 Gaussian, Inc. access to this program.  By using this program,
 the user acknowledges that Gaussian, Inc. is engaged in the
 business of creating and licensing software in the field of
 computational chemistry and represents and warrants to the
 licensee that it is not a competitor of Gaussian, Inc. and that
 it will not use this program in any manner prohibited above.
 ---------------------------------------------------------------
  

 Cite this work as:
 Gaussian 09, Revision A.02,
 M. J. Frisch, G. W. Trucks, H. B. Schlegel, G. E. Scuseria, 
 M. A. Robb, J. R. Cheeseman, G. Scalmani, V. Barone, B. Mennucci, 
 G. A. Petersson, H. Nakatsuji, M. Caricato, X. Li, H. P. Hratchian, 
 A. F. Izmaylov, J. Bloino, G. Zheng, J. L. Sonnenberg, M. Hada, 
 M. Ehara, K. Toyota, R. Fukuda, J. Hasegawa, M. Ishida, T. Nakajima, 
 Y. Honda, O. Kitao, H. Nakai, T. Vreven, J. A. Montgomery, Jr., 
 J. E. Peralta, F. Ogliaro, M. Bearpark, J. J. Heyd, E. Brothers, 
 K. N. Kudin, V. N. Staroverov, R. Kobayashi, J. Normand, 
 K. Raghavachari, A. Rendell, J. C. Burant, S. S. Iyengar, J. Tomasi, 
 M. Cossi, N. Rega, J. M. Millam, M. Klene, J. E. Knox, J. B. Cross, 
 V. Bakken, C. Adamo, J. Jaramillo, R. Gomperts, R. E. Stratmann, 
 O. Yazyev, A. J. Austin, R. Cammi, C. Pomelli, J. W. Ochterski, 
 R. L. Martin, K. Morokuma, V. G. Zakrzewski, G. A. Voth, 
 P. Salvador, J. J. Dannenberg, S. Dapprich, A. D. Daniels, 
 O. Farkas, J. B. Foresman, J. V. Ortiz, J. Cioslowski, 
 and D. J. Fox, Gaussian, Inc., Wallingford CT, 2009.
 
 ******************************************
 Gaussian 09:  IA32W-G09RevA.02 11-Jun-2009
                07-Aug-2015 
 ******************************************
 %chk=C:\hetanjin\Templates\Template21\test\H2.chk
 --------------------------
 #p m062x/6-31g(d) opt freq
 --------------------------
 1/14=-1,18=20,19=15,26=3,38=1/1,3;
 2/9=110,12=2,17=6,18=5,40=1/2;
 3/5=1,6=6,7=1,11=2,16=1,25=1,30=1,71=1,74=-55/1,2,3;
 4//1;
 5/5=2,38=5/2;
 6/7=2,8=2,9=2,10=2,28=1/1;
 7//1,2,3,16;
 1/14=-1,18=20,19=15/3(2);
 2/9=110/2;
 99//99;
 2/9=110/2;
 3/5=1,6=6,7=1,11=2,16=1,25=1,30=1,71=1,74=-55/1,2,3;
 4/5=5,16=3/1;
 5/5=2,38=5/2;
 7//1,2,3,16;
 1/14=-1,18=20,19=15/3(-5);
 2/9=110/2;
 6/7=2,8=2,9=2,10=2,19=2,28=1/1;
 99/9=1/99;
 Leave Link    1 at Fri Aug 07 16:13:39 2015, MaxMem=          0 cpu:       0.0
 (Enter C:\software\G09W\l101.exe)
 -------------------
 Title Card Required
 -------------------
 Symbolic Z-matrix:
 Charge =  0 Multiplicity = 1
 H                    -3.90089  -1.41944  -0.05892 
 H                    -4.50089  -1.41944  -0.05892 
 
 NAtoms=      2 NQM=      2 NQMF=      0 NMic=      0 NMicF=      0 NTot=      2.
                    Isotopes and Nuclear Properties:
 (Nuclear quadrupole moments (NQMom) in fm**2, nuclear magnetic moments (NMagM)
  in nuclear magnetons)

  Atom         1           2
 IAtWgt=           1           1
 AtmWgt=   1.0078250   1.0078250
 NucSpn=           1           1
 AtZEff=   0.0000000   0.0000000
 NQMom=    0.0000000   0.0000000
 NMagM=    2.7928460   2.7928460
 Leave Link  101 at Fri Aug 07 16:13:39 2015, MaxMem=   33554432 cpu:       0.0
 (Enter C:\software\G09W\l103.exe)

 GradGradGradGradGradGradGradGradGradGradGradGradGradGradGradGradGradGrad
 Berny optimization.
 Initialization pass.
                           ----------------------------
                           !    Initial Parameters    !
                           ! (Angstroms and Degrees)  !
 --------------------------                            --------------------------
 ! Name  Definition              Value          Derivative Info.                !
 --------------------------------------------------------------------------------
 ! R1    R(1,2)                  0.6            estimate D2E/DX2                !
 --------------------------------------------------------------------------------
 Trust Radius=3.00D-01 FncErr=1.00D-07 GrdErr=1.00D-06
 Number of steps in this run=  20 maximum allowed number of steps= 100.
 GradGradGradGradGradGradGradGradGradGradGradGradGradGradGradGradGradGrad

 Leave Link  103 at Fri Aug 07 16:13:39 2015, MaxMem=   33554432 cpu:       0.0
 (Enter C:\software\G09W\l202.exe)
                          Input orientation:                          
 ---------------------------------------------------------------------
 Center     Atomic      Atomic             Coordinates (Angstroms)
 Number     Number       Type             X           Y           Z
 ---------------------------------------------------------------------
      1          1           0       -3.900893   -1.419437   -0.058920
      2          1           0       -4.500893   -1.419437   -0.058920
 ---------------------------------------------------------------------
 Stoichiometry    H2
 Framework group  D*H[C*(H.H)]
 Deg. of freedom     1
 Full point group                 D*H     NOp   8
 Largest Abelian subgroup         D2H     NOp   8
 Largest concise Abelian subgroup C2      NOp   2
                         Standard orientation:                         
 ---------------------------------------------------------------------
 Center     Atomic      Atomic             Coordinates (Angstroms)
 Number     Number       Type             X           Y           Z
 ---------------------------------------------------------------------
      1          1           0        0.000000    0.000000    0.300000
      2          1           0        0.000000    0.000000   -0.300000
 ---------------------------------------------------------------------
 Rotational constants (GHZ):      0.0000000   2785.8616682   2785.8616682
 Leave Link  202 at Fri Aug 07 16:13:39 2015, MaxMem=   33554432 cpu:       0.0
 (Enter C:\software\G09W\l301.exe)
 Standard basis: 6-31G(d) (6D, 7F)
 Ernie: Thresh=  0.10000D-02 Tol=  0.10000D-05 Strict=F.
 There are     2 symmetry adapted basis functions of AG  symmetry.
 There are     0 symmetry adapted basis functions of B1G symmetry.
 There are     0 symmetry adapted basis functions of B2G symmetry.
 There are     0 symmetry adapted basis functions of B3G symmetry.
 There are     0 symmetry adapted basis functions of AU  symmetry.
 There are     2 symmetry adapted basis functions of B1U symmetry.
 There are     0 symmetry adapted basis functions of B2U symmetry.
 There are     0 symmetry adapted basis functions of B3U symmetry.
 Integral buffers will be    262144 words long.
 Raffenetti 2 integral format.
 Two-electron integral symmetry is turned on.
     4 basis functions,     8 primitive gaussians,     4 cartesian basis functions
     1 alpha electrons        1 beta electrons
       nuclear repulsion energy         0.8819620143 Hartrees.
 IExCor= 4336 DFT=T Ex+Corr=M062X ExCW=0 ScaHFX=  0.540000
 ScaDFX=  1.000000  1.000000  1.000000  1.000000 ScalE2=  1.000000  1.000000
 IRadAn=      0 IRanWt=     -1 IRanGd=            0 ICorTp=0
 NAtoms=    2 NActive=    2 NUniq=    1 SFac= 3.00D+00 NAtFMM=   80 NAOKFM=F Big=F
 Leave Link  301 at Fri Aug 07 16:13:39 2015, MaxMem=   33554432 cpu:       0.0
 (Enter C:\software\G09W\l302.exe)
 NPDir=0 NMtPBC=     1 NCelOv=     1 NCel=       1 NClECP=     1 NCelD=      1
         NCelK=      1 NCelE2=     1 NClLst=     1 CellRange=     0.0.
 One-electron integrals computed using PRISM.
 One-electron integral symmetry used in STVInt
 NBasis=     4 RedAO= T  NBF=     2     0     0     0     0     2     0     0
 NBsUse=     4 1.00D-06 NBFU=     2     0     0     0     0     2     0     0
 Precomputing XC quadrature grid using
 IXCGrd= 2 IRadAn=           0 IRanWt=          -1 IRanGd=           0 AccXCQ= 1.00D-10.
 NRdTot=     122 NPtTot=       15168 NUsed=       15749 NTot=       15765
 NSgBfM=     4     4     4     4     4 NAtAll=     2     2.
 Leave Link  302 at Fri Aug 07 16:13:39 2015, MaxMem=   33554432 cpu:       0.0
 (Enter C:\software\G09W\l303.exe)
 DipDrv:  MaxL=1.
 Leave Link  303 at Fri Aug 07 16:13:39 2015, MaxMem=   33554432 cpu:       0.0
 (Enter C:\software\G09W\l401.exe)
 Harris functional with IExCor= 1009 diagonalized for initial guess.
 ExpMin= 1.61D-01 ExpMax= 1.87D+01 ExpMxC= 1.87D+01 IAcc=1 IRadAn=         1 AccDes= 0.00D+00
 HarFok:  IExCor= 1009 AccDes= 0.00D+00 IRadAn=         1 IDoV= 1
 ScaDFX=  1.000000  1.000000  1.000000  1.000000
 FoFCou: FMM=F IPFlag=           0 FMFlag=      100000 FMFlg1=           0
         NFxFlg=           0 DoJE=T BraDBF=F KetDBF=T FulRan=T
         Omega=  0.000000  0.000000  1.000000  0.000000  0.000000 ICntrl=     500 IOpCl=  0
         NMat0=    1 NMatS0=    1 NMatT0=    0 NMatD0=    1 NMtDS0=    0 NMtDT0=    0
         I1Cent=           4 NGrid=           0.
 Petite list used in FoFCou.
 Harris En= -1.16618116547590    
 Initial guess orbital symmetries:
       Occupied  (SGG)
       Virtual   (SGU) (SGG) (SGU)
 The electronic state of the initial guess is 1-SGG.
 Leave Link  401 at Fri Aug 07 16:13:39 2015, MaxMem=   33554432 cpu:       0.0
 (Enter C:\software\G09W\l502.exe)
 Closed shell SCF:
 Requested convergence on RMS density matrix=1.00D-08 within 128 cycles.
 Requested convergence on MAX density matrix=1.00D-06.
 Requested convergence on             energy=1.00D-06.
 No special actions if energy rises.
 Using DIIS extrapolation, IDIIS=  1040.
 Integral symmetry usage will be decided dynamically.
        15721 words used for storage of precomputed grid.
 Keep R1 ints in memory in canonical form, NReq=866664.
 IEnd=       35443 IEndB=       35443 NGot=    33554432 MDV=    33536009
 LenX=    33536009 LenY=    33535127
 Symmetry not used in FoFDir.
 MinBra= 0 MaxBra= 0 Meth= 1.
 IRaf=       0 NMat=   1 IRICut=       1 DoRegI=T DoRafI=F ISym2E= 0 JSym2E=0.
 Integral accuracy reduced to 1.0D-05 until final iterations.

 Cycle   1  Pass 0  IDiag  1:
 E= -1.13943655361973    
 DIIS: error= 2.96D-02 at cycle   1 NSaved=   1.
 NSaved= 1 IEnMin= 1 EnMin= -1.13943655361973     IErMin= 1 ErrMin= 2.96D-02
 ErrMax= 2.96D-02 EMaxC= 1.00D-01 BMatC= 3.50D-03 BMatP= 3.50D-03
 IDIUse=3 WtCom= 7.04D-01 WtEn= 2.96D-01
 Coeff-Com:  0.100D+01
 Coeff-En:   0.100D+01
 Coeff:      0.100D+01
 Gap=     1.071 Goal=   None    Shift=    0.000
 GapD=    1.071 DampG=2.000 DampE=0.500 DampFc=1.0000 IDamp=-1.
 RMSDP=1.63D-02 MaxDP=2.74D-02              OVMax= 0.00D+00

 Cycle   2  Pass 0  IDiag  1:
 E= -1.14559129044826     Delta-E=       -0.006154736829 Rises=F Damp=F
 DIIS: error= 1.06D-03 at cycle   2 NSaved=   2.
 NSaved= 2 IEnMin= 2 EnMin= -1.14559129044826     IErMin= 2 ErrMin= 1.06D-03
 ErrMax= 1.06D-03 EMaxC= 1.00D-01 BMatC= 4.46D-06 BMatP= 3.50D-03
 IDIUse=3 WtCom= 9.89D-01 WtEn= 1.06D-02
 Coeff-Com:  0.344D-01 0.966D+00
 Coeff-En:   0.000D+00 0.100D+01
 Coeff:      0.341D-01 0.966D+00
 Gap=     0.760 Goal=   None    Shift=    0.000
 RMSDP=5.46D-04 MaxDP=9.05D-04 DE=-6.15D-03 OVMax= 0.00D+00

 Cycle   3  Pass 0  IDiag  1:
 E= -1.14559891721753     Delta-E=       -0.000007626769 Rises=F Damp=F
 DIIS: error= 1.54D-05 at cycle   3 NSaved=   3.
 NSaved= 3 IEnMin= 3 EnMin= -1.14559891721753     IErMin= 3 ErrMin= 1.54D-05
 ErrMax= 1.54D-05 EMaxC= 1.00D-01 BMatC= 9.53D-10 BMatP= 4.46D-06
 IDIUse=1 WtCom= 1.00D+00 WtEn= 0.00D+00
 Large coefficients: NSaved=  3 BigCof=    0.00 CofMax=   10.00 Det= 0.00D+00
 Inversion failed.  Reducing to  2 matrices.
 Coeff-Com:  0.144D-01 0.986D+00
 Coeff:      0.144D-01 0.986D+00
 Gap=     0.760 Goal=   None    Shift=    0.000
 RMSDP=7.88D-06 MaxDP=1.31D-05 DE=-7.63D-06 OVMax= 0.00D+00

 Initial convergence to 1.0D-05 achieved.  Increase integral accuracy.
 Cycle   4  Pass 1  IDiag  1:
 E= -1.14551505248898     Delta-E=        0.000083864729 Rises=F Damp=F
 DIIS: error= 1.36D-04 at cycle   1 NSaved=   1.
 NSaved= 1 IEnMin= 1 EnMin= -1.14551505248898     IErMin= 1 ErrMin= 1.36D-04
 ErrMax= 1.36D-04 EMaxC= 1.00D-01 BMatC= 7.41D-08 BMatP= 7.41D-08
 IDIUse=3 WtCom= 9.99D-01 WtEn= 1.36D-03
 Coeff-Com:  0.100D+01
 Coeff-En:   0.100D+01
 Coeff:      0.100D+01
 Gap=     0.756 Goal=   None    Shift=    0.000
 RMSDP=7.88D-06 MaxDP=1.31D-05 DE= 8.39D-05 OVMax= 0.00D+00

 Cycle   5  Pass 1  IDiag  1:
 E= -1.14551517906816     Delta-E=       -0.000000126579 Rises=F Damp=F
 DIIS: error= 6.29D-06 at cycle   2 NSaved=   2.
 NSaved= 2 IEnMin= 2 EnMin= -1.14551517906816     IErMin= 2 ErrMin= 6.29D-06
 ErrMax= 6.29D-06 EMaxC= 1.00D-01 BMatC= 1.58D-10 BMatP= 7.41D-08
 IDIUse=1 WtCom= 1.00D+00 WtEn= 0.00D+00
 Coeff-Com:  0.442D-01 0.956D+00
 Coeff:      0.442D-01 0.956D+00
 Gap=     0.737 Goal=   None    Shift=    0.000
 RMSDP=3.21D-06 MaxDP=5.33D-06 DE=-1.27D-07 OVMax= 0.00D+00

 Cycle   6  Pass 1  IDiag  1:
 E= -1.14551517933942     Delta-E=       -0.000000000271 Rises=F Damp=F
 DIIS: error= 4.23D-10 at cycle   3 NSaved=   3.
 NSaved= 3 IEnMin= 3 EnMin= -1.14551517933942     IErMin= 3 ErrMin= 4.23D-10
 ErrMax= 4.23D-10 EMaxC= 1.00D-01 BMatC= 7.15D-19 BMatP= 1.58D-10
 IDIUse=1 WtCom= 1.00D+00 WtEn= 0.00D+00
 Large coefficients: NSaved=  3 BigCof=    0.00 CofMax=   10.00 Det=-5.17D-26
 Inversion failed.  Reducing to  2 matrices.
 Coeff-Com:  0.672D-04 0.100D+01
 Coeff:      0.672D-04 0.100D+01
 Gap=     0.737 Goal=   None    Shift=    0.000
 RMSDP=2.16D-10 MaxDP=3.58D-10 DE=-2.71D-10 OVMax= 0.00D+00

 SCF Done:  E(RM062X) =  -1.14551517934     A.U. after    6 cycles
             Convg  =    0.2159D-09             -V/T =  1.8849
 KE= 1.294545304288D+00 PE=-3.996418908553D+00 EE= 6.743964106088D-01
 Leave Link  502 at Fri Aug 07 16:13:39 2015, MaxMem=   33554432 cpu:       0.0
 (Enter C:\software\G09W\l601.exe)
 Copying SCF densities to generalized density rwf, IOpCl= 0 IROHF=0.

 **********************************************************************

            Population analysis using the SCF density.

 **********************************************************************

 Orbital symmetries:
       Occupied  (SGG)
       Virtual   (SGU) (SGG) (SGU)
 The electronic state is 1-SGG.
 Alpha  occ. eigenvalues --   -0.53476
 Alpha virt. eigenvalues --    0.20239   0.58149   1.79235
          Condensed to atoms (all electrons):
              1          2
     1  H    0.573463   0.426537
     2  H    0.426537   0.573463
 Mulliken atomic charges:
              1
     1  H    0.000000
     2  H    0.000000
 Sum of Mulliken atomic charges =   0.00000
 Mulliken charges with hydrogens summed into heavy atoms:
              1
 Sum of Mulliken charges with hydrogens summed into heavy atoms =   0.00000
 Electronic spatial extent (au):  <R**2>=              4.4555
 Charge=              0.0000 electrons
 Dipole moment (field-independent basis, Debye):
    X=              0.0000    Y=              0.0000    Z=              0.0000  Tot=              0.0000
 Quadrupole moment (field-independent basis, Debye-Ang):
   XX=             -1.8068   YY=             -1.8068   ZZ=             -1.5146
   XY=              0.0000   XZ=              0.0000   YZ=              0.0000
 Traceless Quadrupole moment (field-independent basis, Debye-Ang):
   XX=             -0.0974   YY=             -0.0974   ZZ=              0.1948
   XY=              0.0000   XZ=              0.0000   YZ=              0.0000
 Octapole moment (field-independent basis, Debye-Ang**2):
  XXX=              0.0000  YYY=              0.0000  ZZZ=              0.0000  XYY=              0.0000
  XXY=              0.0000  XXZ=              0.0000  XZZ=              0.0000  YZZ=              0.0000
  YYZ=              0.0000  XYZ=              0.0000
 Hexadecapole moment (field-independent basis, Debye-Ang**3):
 XXXX=             -1.5371 YYYY=             -1.5371 ZZZZ=             -2.0998 XXXY=              0.0000
 XXXZ=              0.0000 YYYX=              0.0000 YYYZ=              0.0000 ZZZX=              0.0000
 ZZZY=              0.0000 XXYY=             -0.5124 XXZZ=             -0.6112 YYZZ=             -0.6112
 XXYZ=              0.0000 YYXZ=              0.0000 ZZXY=              0.0000
 N-N= 8.819620143167D-01 E-N=-3.996418908025D+00  KE= 1.294545304288D+00
 Symmetry AG   KE= 1.294545304288D+00
 Symmetry B1G  KE= 0.000000000000D+00
 Symmetry B2G  KE= 0.000000000000D+00
 Symmetry B3G  KE= 0.000000000000D+00
 Symmetry AU   KE= 0.000000000000D+00
 Symmetry B1U  KE= 7.350085686269D-33
 Symmetry B2U  KE= 0.000000000000D+00
 Symmetry B3U  KE= 0.000000000000D+00
 No NMR shielding tensors so no spin-rotation constants.
 Leave Link  601 at Fri Aug 07 16:13:39 2015, MaxMem=   33554432 cpu:       0.0
 (Enter C:\software\G09W\l701.exe)
 Compute integral first derivatives.
 ... and contract with generalized density number  0.
 Leave Link  701 at Fri Aug 07 16:13:40 2015, MaxMem=   33554432 cpu:       0.0
 (Enter C:\software\G09W\l702.exe)
 L702 exits ... SP integral derivatives will be done elsewhere.
 Leave Link  702 at Fri Aug 07 16:13:40 2015, MaxMem=   33554432 cpu:       0.0
 (Enter C:\software\G09W\l703.exe)
 Compute integral first derivatives, UseDBF=F ICtDFT=           0.
 Integral derivatives from FoFDir, PRISM(SPDF).
 Calling FoFJK, ICntrl=      2127 FMM=F ISym2X=1 I1Cent= 0 IOpClX= 0 NMat=1 NMatS=1 NMatT=0.
 FoFCou: FMM=F IPFlag=           0 FMFlag=      100000 FMFlg1=         800
         NFxFlg=           0 DoJE=F BraDBF=F KetDBF=F FulRan=T
         Omega=  0.000000  0.000000  1.000000  0.000000  0.000000 ICntrl=    2127 IOpCl=  0
         NMat0=    1 NMatS0=    1 NMatT0=    0 NMatD0=    1 NMtDS0=    0 NMtDT0=    0
         I1Cent=           0 NGrid=           0.
 Petite list used in FoFCou.
 Leave Link  703 at Fri Aug 07 16:13:40 2015, MaxMem=   33554432 cpu:       0.0
 (Enter C:\software\G09W\l716.exe)
 Dipole        = 0.00000000D+00 0.00000000D+00 0.00000000D+00
 ***** Axes restored to original set *****
 -------------------------------------------------------------------
 Center     Atomic                   Forces (Hartrees/Bohr)
 Number     Number              X              Y              Z
 -------------------------------------------------------------------
      1        1           0.164578275    0.000000000    0.000000000
      2        1          -0.164578275    0.000000000    0.000000000
 -------------------------------------------------------------------
 Cartesian Forces:  Max     0.164578275 RMS     0.095019311
 Leave Link  716 at Fri Aug 07 16:13:40 2015, MaxMem=   33554432 cpu:       0.0
 (Enter C:\software\G09W\l103.exe)

 GradGradGradGradGradGradGradGradGradGradGradGradGradGradGradGradGradGrad
 Berny optimization.
 Internal  Forces:  Max     0.164578275 RMS     0.164578275
 Search for a local minimum.
 Step number   1 out of a maximum of   20
 All quantities printed in internal units (Hartrees-Bohrs-Radians)
 RMS Force = .16458D+00 SwitMx=.10000D-02 MixMth= 1
 Mixed Optimization -- RFO/linear search
 Second derivative matrix not updated -- first step.
 The second derivative matrix:
                          R1
           R1           0.66291
     Eigenvalues ---    0.66291
 RFO step:  Lambda=-3.86102556D-02 EMin= 6.62913423D-01
 Linear search not attempted -- first point.
 Iteration  1 RMS(Cart)=  0.14142136 RMS(Int)=  0.03460117
 Iteration  2 RMS(Cart)=  0.02446672 RMS(Int)=  0.00000000
 Iteration  3 RMS(Cart)=  0.00000000 RMS(Int)=  0.00000000
 ClnCor:  largest displacement from symmetrization is 1.39D-17 for atom     2.
 Variable       Old X    -DE/DX   Delta X   Delta X   Delta X     New X
                                 (Linear)    (Quad)   (Total)
    R1        1.13384   0.16458   0.00000   0.23460   0.23460   1.36844
         Item               Value     Threshold  Converged?
 Maximum Force            0.164578     0.000450     NO 
 RMS     Force            0.164578     0.000300     NO 
 Maximum Displacement     0.117301     0.001800     NO 
 RMS     Displacement     0.165888     0.001200     NO 
 Predicted change in Energy=-2.036764D-02
 GradGradGradGradGradGradGradGradGradGradGradGradGradGradGradGradGradGrad

 Leave Link  103 at Fri Aug 07 16:13:40 2015, MaxMem=   33554432 cpu:       0.0
 (Enter C:\software\G09W\l202.exe)
                          Input orientation:                          
 ---------------------------------------------------------------------
 Center     Atomic      Atomic             Coordinates (Angstroms)
 Number     Number       Type             X           Y           Z
 ---------------------------------------------------------------------
      1          1           0       -3.838821   -1.419437   -0.058920
      2          1           0       -4.562966   -1.419437   -0.058920
 ---------------------------------------------------------------------
 Stoichiometry    H2
 Framework group  D*H[C*(H.H)]
 Deg. of freedom     1
 Full point group                 D*H     NOp   8
 Largest Abelian subgroup         D2H     NOp   8
 Largest concise Abelian subgroup C2      NOp   2
                         Standard orientation:                         
 ---------------------------------------------------------------------
 Center     Atomic      Atomic             Coordinates (Angstroms)
 Number     Number       Type             X           Y           Z
 ---------------------------------------------------------------------
      1          1           0        0.000000    0.000000    0.362073
      2          1           0        0.000000    0.000000   -0.362073
 ---------------------------------------------------------------------
 Rotational constants (GHZ):      0.0000000   1912.5388517   1912.5388517
 Leave Link  202 at Fri Aug 07 16:13:40 2015, MaxMem=   33554432 cpu:       0.0
 (Enter C:\software\G09W\l301.exe)
 Standard basis: 6-31G(d) (6D, 7F)
 Ernie: Thresh=  0.10000D-02 Tol=  0.10000D-05 Strict=F.
 There are     2 symmetry adapted basis functions of AG  symmetry.
 There are     0 symmetry adapted basis functions of B1G symmetry.
 There are     0 symmetry adapted basis functions of B2G symmetry.
 There are     0 symmetry adapted basis functions of B3G symmetry.
 There are     0 symmetry adapted basis functions of AU  symmetry.
 There are     2 symmetry adapted basis functions of B1U symmetry.
 There are     0 symmetry adapted basis functions of B2U symmetry.
 There are     0 symmetry adapted basis functions of B3U symmetry.
 Integral buffers will be    262144 words long.
 Raffenetti 2 integral format.
 Two-electron integral symmetry is turned on.
     4 basis functions,     8 primitive gaussians,     4 cartesian basis functions
     1 alpha electrons        1 beta electrons
       nuclear repulsion energy         0.7307607956 Hartrees.
 IExCor= 4336 DFT=T Ex+Corr=M062X ExCW=0 ScaHFX=  0.540000
 ScaDFX=  1.000000  1.000000  1.000000  1.000000 ScalE2=  1.000000  1.000000
 IRadAn=      0 IRanWt=     -1 IRanGd=            0 ICorTp=0
 NAtoms=    2 NActive=    2 NUniq=    1 SFac= 3.00D+00 NAtFMM=   80 NAOKFM=F Big=F
 Leave Link  301 at Fri Aug 07 16:13:40 2015, MaxMem=   33554432 cpu:       0.0
 (Enter C:\software\G09W\l302.exe)
 NPDir=0 NMtPBC=     1 NCelOv=     1 NCel=       1 NClECP=     1 NCelD=      1
         NCelK=      1 NCelE2=     1 NClLst=     1 CellRange=     0.0.
 One-electron integrals computed using PRISM.
 One-electron integral symmetry used in STVInt
 NBasis=     4 RedAO= T  NBF=     2     0     0     0     0     2     0     0
 NBsUse=     4 1.00D-06 NBFU=     2     0     0     0     0     2     0     0
 Precomputing XC quadrature grid using
 IXCGrd= 2 IRadAn=           0 IRanWt=          -1 IRanGd=           0 AccXCQ= 1.00D-10.
 NRdTot=     122 NPtTot=       15168 NUsed=       15749 NTot=       15765
 NSgBfM=     4     4     4     4     4 NAtAll=     2     2.
 Leave Link  302 at Fri Aug 07 16:13:40 2015, MaxMem=   33554432 cpu:       0.0
 (Enter C:\software\G09W\l303.exe)
 DipDrv:  MaxL=1.
 Leave Link  303 at Fri Aug 07 16:13:40 2015, MaxMem=   33554432 cpu:       0.0
 (Enter C:\software\G09W\l401.exe)
 Initial guess read from the read-write file.
 B after Tr=     0.000000    0.000000    0.000000
         Rot=    1.000000    0.000000    0.000000    0.000000 Ang=   0.00 deg.
 Guess basis will be translated and rotated to current coordinates.
 Initial guess orbital symmetries:
       Occupied  (SGG)
       Virtual   (SGU) (SGG) (SGU)
 The electronic state of the initial guess is 1-SGG.
 Generating alternative initial guess.
 Harris functional with IExCor= 1009 diagonalized for initial guess.
 ExpMin= 1.61D-01 ExpMax= 1.87D+01 ExpMxC= 1.87D+01 IAcc=1 IRadAn=         1 AccDes= 0.00D+00
 HarFok:  IExCor= 1009 AccDes= 0.00D+00 IRadAn=         1 IDoV= 1
 ScaDFX=  1.000000  1.000000  1.000000  1.000000
 FoFCou: FMM=F IPFlag=           0 FMFlag=      100000 FMFlg1=           0
         NFxFlg=           0 DoJE=T BraDBF=F KetDBF=T FulRan=T
         Omega=  0.000000  0.000000  1.000000  0.000000  0.000000 ICntrl=     500 IOpCl=  0
         NMat0=    1 NMatS0=    1 NMatT0=    0 NMatD0=    1 NMtDS0=    0 NMtDT0=    0
         I1Cent=           4 NGrid=           0.
 Petite list used in FoFCou.
 Harris En= -1.17615701190735    
 Leave Link  401 at Fri Aug 07 16:13:40 2015, MaxMem=   33554432 cpu:       0.0
 (Enter C:\software\G09W\l502.exe)
 Closed shell SCF:
 Requested convergence on RMS density matrix=1.00D-08 within 128 cycles.
 Requested convergence on MAX density matrix=1.00D-06.
 Requested convergence on             energy=1.00D-06.
 No special actions if energy rises.
 Using DIIS extrapolation, IDIIS=  1040.
 Integral symmetry usage will be decided dynamically.
        15721 words used for storage of precomputed grid.
 Keep R1 ints in memory in canonical form, NReq=866664.
 IEnd=       35443 IEndB=       35443 NGot=    33554432 MDV=    33536009
 LenX=    33536009 LenY=    33535127
 Symmetry not used in FoFDir.
 MinBra= 0 MaxBra= 0 Meth= 1.
 IRaf=       0 NMat=   1 IRICut=       1 DoRegI=T DoRafI=F ISym2E= 0 JSym2E=0.
 Integral accuracy reduced to 1.0D-05 until final iterations.

 Cycle   1  Pass 0  IDiag  1:
 E= -1.16156280725141    
 DIIS: error= 2.03D-02 at cycle   1 NSaved=   1.
 NSaved= 1 IEnMin= 1 EnMin= -1.16156280725141     IErMin= 1 ErrMin= 2.03D-02
 ErrMax= 2.03D-02 EMaxC= 1.00D-01 BMatC= 1.65D-03 BMatP= 1.65D-03
 IDIUse=3 WtCom= 7.97D-01 WtEn= 2.03D-01
 Coeff-Com:  0.100D+01
 Coeff-En:   0.100D+01
 Coeff:      0.100D+01
 Recover alternate guess density for next cycle.
 RMSDP=1.26D-03 MaxDP=2.11D-03              OVMax= 0.00D+00

 Cycle   2  Pass 0  IDiag  1:
 E= -1.16089021457405     Delta-E=        0.000672592677 Rises=F Damp=F
 Switch densities from cycles 1 and 2 for lowest energy.
 DIIS: error= 2.26D-02 at cycle   2 NSaved=   2.
 NSaved= 2 IEnMin= 1 EnMin= -1.16156280725141     IErMin= 1 ErrMin= 2.03D-02
 ErrMax= 2.26D-02 EMaxC= 1.00D+00 BMatC= 2.04D-03 BMatP= 1.65D-03
 IDIUse=1 WtCom= 1.00D+00 WtEn= 0.00D+00
 Large coefficients: NSaved=  2 BigCof=   10.00 CofMax=   10.00 Det=-2.04D-05
 Coeff-Com:  0.100D+02-0.900D+01
 Coeff:      0.100D+02-0.900D+01
 Gap=     0.750 Goal=   None    Shift=    0.000
 RMSDP=1.11D-02 MaxDP=1.84D-02 DE= 6.73D-04 OVMax= 0.00D+00

 Cycle   3  Pass 0  IDiag  1:
 E= -1.16440306952424     Delta-E=       -0.003512854950 Rises=F Damp=F
 DIIS: error= 2.00D-04 at cycle   3 NSaved=   3.
 NSaved= 3 IEnMin= 3 EnMin= -1.16440306952424     IErMin= 3 ErrMin= 2.00D-04
 ErrMax= 2.00D-04 EMaxC= 1.00D+00 BMatC= 1.59D-07 BMatP= 1.65D-03
 IDIUse=1 WtCom= 1.00D+00 WtEn= 0.00D+00
 Large coefficients: NSaved=  3 BigCof=    0.00 CofMax=   10.00 Det= 2.17D-19
 Inversion failed.  Reducing to  2 matrices.
 Coeff-Com:  0.876D-02 0.991D+00
 Coeff:      0.876D-02 0.991D+00
 Gap=     0.705 Goal=   None    Shift=    0.000
 RMSDP=1.06D-04 MaxDP=1.73D-04 DE=-3.51D-03 OVMax= 0.00D+00

 Cycle   4  Pass 0  IDiag  1:
 E= -1.16440333950164     Delta-E=       -0.000000269977 Rises=F Damp=F
 DIIS: error= 1.81D-06 at cycle   4 NSaved=   3.
 NSaved= 3 IEnMin= 3 EnMin= -1.16440333950164     IErMin= 3 ErrMin= 1.81D-06
 ErrMax= 1.81D-06 EMaxC= 1.00D+00 BMatC= 1.31D-11 BMatP= 1.59D-07
 IDIUse=1 WtCom= 1.00D+00 WtEn= 0.00D+00
 Large coefficients: NSaved=  3 BigCof=    0.00 CofMax=   10.00 Det= 2.65D-23
 Inversion failed.  Reducing to  2 matrices.
 Coeff-Com:  0.899D-02 0.991D+00
 Coeff:      0.899D-02 0.991D+00
 Gap=     0.705 Goal=   None    Shift=    0.000
 RMSDP=9.57D-07 MaxDP=1.56D-06 DE=-2.70D-07 OVMax= 0.00D+00

 Initial convergence to 1.0D-05 achieved.  Increase integral accuracy.
 Cycle   5  Pass 1  IDiag  1:
 E= -1.16345372533584     Delta-E=        0.000949614166 Rises=F Damp=F
 DIIS: error= 5.43D-04 at cycle   1 NSaved=   1.
 NSaved= 1 IEnMin= 1 EnMin= -1.16345372533584     IErMin= 1 ErrMin= 5.43D-04
 ErrMax= 5.43D-04 EMaxC= 1.00D+00 BMatC= 1.18D-06 BMatP= 1.18D-06
 IDIUse=1 WtCom= 1.00D+00 WtEn= 0.00D+00
 Coeff-Com:  0.100D+01
 Coeff:      0.100D+01
 Gap=     0.695 Goal=   None    Shift=    0.000
 RMSDP=9.57D-07 MaxDP=1.56D-06 DE= 9.50D-04 OVMax= 0.00D+00

 Cycle   6  Pass 1  IDiag  1:
 E= -1.16345572208364     Delta-E=       -0.000001996748 Rises=F Damp=F
 DIIS: error= 2.38D-05 at cycle   2 NSaved=   2.
 NSaved= 2 IEnMin= 2 EnMin= -1.16345572208364     IErMin= 2 ErrMin= 2.38D-05
 ErrMax= 2.38D-05 EMaxC= 1.00D+00 BMatC= 2.26D-09 BMatP= 1.18D-06
 IDIUse=1 WtCom= 1.00D+00 WtEn= 0.00D+00
 Coeff-Com:  0.419D-01 0.958D+00
 Coeff:      0.419D-01 0.958D+00
 Gap=     0.671 Goal=   None    Shift=    0.000
 RMSDP=1.25D-05 MaxDP=2.04D-05 DE=-2.00D-06 OVMax= 0.00D+00

 Cycle   7  Pass 1  IDiag  1:
 E= -1.16345572590671     Delta-E=       -0.000000003823 Rises=F Damp=F
 DIIS: error= 4.43D-09 at cycle   3 NSaved=   3.
 NSaved= 3 IEnMin= 3 EnMin= -1.16345572590671     IErMin= 3 ErrMin= 4.43D-09
 ErrMax= 4.43D-09 EMaxC= 1.00D+00 BMatC= 7.84D-17 BMatP= 2.26D-09
 IDIUse=1 WtCom= 1.00D+00 WtEn= 0.00D+00
 Large coefficients: NSaved=  3 BigCof=    0.00 CofMax=   10.00 Det= 4.14D-25
 Inversion failed.  Reducing to  2 matrices.
 Coeff-Com:  0.186D-03 0.100D+01
 Coeff:      0.186D-03 0.100D+01
 Gap=     0.671 Goal=   None    Shift=    0.000
 RMSDP=2.34D-09 MaxDP=3.79D-09 DE=-3.82D-09 OVMax= 0.00D+00

 SCF Done:  E(RM062X) =  -1.16345572591     A.U. after    7 cycles
             Convg  =    0.2337D-08             -V/T =  2.0054
 KE= 1.157166239566D+00 PE=-3.675006681328D+00 EE= 6.236239202878D-01
 Leave Link  502 at Fri Aug 07 16:13:41 2015, MaxMem=   33554432 cpu:       0.0
 (Enter C:\software\G09W\l701.exe)
 Compute integral first derivatives.
 ... and contract with generalized density number  0.
 Leave Link  701 at Fri Aug 07 16:13:41 2015, MaxMem=   33554432 cpu:       0.0
 (Enter C:\software\G09W\l702.exe)
 L702 exits ... SP integral derivatives will be done elsewhere.
 Leave Link  702 at Fri Aug 07 16:13:41 2015, MaxMem=   33554432 cpu:       0.0
 (Enter C:\software\G09W\l703.exe)
 Compute integral first derivatives, UseDBF=F ICtDFT=           0.
 Integral derivatives from FoFDir, PRISM(SPDF).
 Calling FoFJK, ICntrl=      2127 FMM=F ISym2X=1 I1Cent= 0 IOpClX= 0 NMat=1 NMatS=1 NMatT=0.
 FoFCou: FMM=F IPFlag=           0 FMFlag=      100000 FMFlg1=         800
         NFxFlg=           0 DoJE=F BraDBF=F KetDBF=F FulRan=T
         Omega=  0.000000  0.000000  1.000000  0.000000  0.000000 ICntrl=    2127 IOpCl=  0
         NMat0=    1 NMatS0=    1 NMatT0=    0 NMatD0=    1 NMtDS0=    0 NMtDT0=    0
         I1Cent=           0 NGrid=           0.
 Petite list used in FoFCou.
 Leave Link  703 at Fri Aug 07 16:13:41 2015, MaxMem=   33554432 cpu:       0.0
 (Enter C:\software\G09W\l716.exe)
 Dipole        =-4.93038066D-32 0.00000000D+00 0.00000000D+00
 ***** Axes restored to original set *****
 -------------------------------------------------------------------
 Center     Atomic                   Forces (Hartrees/Bohr)
 Number     Number              X              Y              Z
 -------------------------------------------------------------------
      1        1           0.009516278    0.000000000    0.000000000
      2        1          -0.009516278    0.000000000    0.000000000
 -------------------------------------------------------------------
 Cartesian Forces:  Max     0.009516278 RMS     0.005494226
 Leave Link  716 at Fri Aug 07 16:13:41 2015, MaxMem=   33554432 cpu:       0.0
 (Enter C:\software\G09W\l103.exe)

 GradGradGradGradGradGradGradGradGradGradGradGradGradGradGradGradGradGrad
 Berny optimization.
 Using GEDIIS/GDIIS optimizer.
 Internal  Forces:  Max     0.009516278 RMS     0.009516278
 Search for a local minimum.
 Step number   2 out of a maximum of   20
 All quantities printed in internal units (Hartrees-Bohrs-Radians)
 RMS Force = .95163D-02 SwitMx=.10000D-02 MixMth= 1
 Mixed Optimization -- RFO/linear search
 Update second derivatives using D2CorX and points    1    2
 DE= -1.79D-02 DEPred=-2.04D-02 R= 8.81D-01
 SS=  1.41D+00  RLast= 2.35D-01 DXNew= 5.0454D-01 7.0380D-01
 Trust test= 8.81D-01 RLast= 2.35D-01 DXMaxT set to 5.05D-01
 The second derivative matrix:
                          R1
           R1           0.66096
 Use linear search instead of GDIIS.
     Eigenvalues ---    0.66096
 RFO step:  Lambda= 0.00000000D+00 EMin= 6.60960035D-01
 Quartic linear search produced a step of  0.10477.
 Iteration  1 RMS(Cart)=  0.01737992 RMS(Int)=  0.00000000
 Iteration  2 RMS(Cart)=  0.00000000 RMS(Int)=  0.00000000
 ClnCor:  largest displacement from symmetrization is 1.78D-15 for atom     2.
 Variable       Old X    -DE/DX   Delta X   Delta X   Delta X     New X
                                 (Linear)    (Quad)   (Total)
    R1        1.36844   0.00952   0.02458   0.00000   0.02458   1.39302
         Item               Value     Threshold  Converged?
 Maximum Force            0.009516     0.000450     NO 
 RMS     Force            0.009516     0.000300     NO 
 Maximum Displacement     0.012289     0.001800     NO 
 RMS     Displacement     0.017380     0.001200     NO 
 Predicted change in Energy=-3.424921D-05
 GradGradGradGradGradGradGradGradGradGradGradGradGradGradGradGradGradGrad

 Leave Link  103 at Fri Aug 07 16:13:41 2015, MaxMem=   33554432 cpu:       0.0
 (Enter C:\software\G09W\l202.exe)
                          Input orientation:                          
 ---------------------------------------------------------------------
 Center     Atomic      Atomic             Coordinates (Angstroms)
 Number     Number       Type             X           Y           Z
 ---------------------------------------------------------------------
      1          1           0       -3.832317   -1.419437   -0.058920
      2          1           0       -4.569469   -1.419437   -0.058920
 ---------------------------------------------------------------------
 Stoichiometry    H2
 Framework group  D*H[C*(H.H)]
 Deg. of freedom     1
 Full point group                 D*H     NOp   8
 Largest Abelian subgroup         D2H     NOp   8
 Largest concise Abelian subgroup C2      NOp   2
                         Standard orientation:                         
 ---------------------------------------------------------------------
 Center     Atomic      Atomic             Coordinates (Angstroms)
 Number     Number       Type             X           Y           Z
 ---------------------------------------------------------------------
      1          1           0        0.000000    0.000000    0.368576
      2          1           0        0.000000    0.000000   -0.368576
 ---------------------------------------------------------------------
 Rotational constants (GHZ):      0.0000000   1845.6431140   1845.6431140
 Leave Link  202 at Fri Aug 07 16:13:41 2015, MaxMem=   33554432 cpu:       0.0
 (Enter C:\software\G09W\l301.exe)
 Standard basis: 6-31G(d) (6D, 7F)
 Ernie: Thresh=  0.10000D-02 Tol=  0.10000D-05 Strict=F.
 There are     2 symmetry adapted basis functions of AG  symmetry.
 There are     0 symmetry adapted basis functions of B1G symmetry.
 There are     0 symmetry adapted basis functions of B2G symmetry.
 There are     0 symmetry adapted basis functions of B3G symmetry.
 There are     0 symmetry adapted basis functions of AU  symmetry.
 There are     2 symmetry adapted basis functions of B1U symmetry.
 There are     0 symmetry adapted basis functions of B2U symmetry.
 There are     0 symmetry adapted basis functions of B3U symmetry.
 Integral buffers will be    262144 words long.
 Raffenetti 2 integral format.
 Two-electron integral symmetry is turned on.
     4 basis functions,     8 primitive gaussians,     4 cartesian basis functions
     1 alpha electrons        1 beta electrons
       nuclear repulsion energy         0.7178669680 Hartrees.
 IExCor= 4336 DFT=T Ex+Corr=M062X ExCW=0 ScaHFX=  0.540000
 ScaDFX=  1.000000  1.000000  1.000000  1.000000 ScalE2=  1.000000  1.000000
 IRadAn=      0 IRanWt=     -1 IRanGd=            0 ICorTp=0
 NAtoms=    2 NActive=    2 NUniq=    1 SFac= 3.00D+00 NAtFMM=   80 NAOKFM=F Big=F
 Leave Link  301 at Fri Aug 07 16:13:41 2015, MaxMem=   33554432 cpu:       0.0
 (Enter C:\software\G09W\l302.exe)
 NPDir=0 NMtPBC=     1 NCelOv=     1 NCel=       1 NClECP=     1 NCelD=      1
         NCelK=      1 NCelE2=     1 NClLst=     1 CellRange=     0.0.
 One-electron integrals computed using PRISM.
 One-electron integral symmetry used in STVInt
 NBasis=     4 RedAO= T  NBF=     2     0     0     0     0     2     0     0
 NBsUse=     4 1.00D-06 NBFU=     2     0     0     0     0     2     0     0
 Precomputing XC quadrature grid using
 IXCGrd= 2 IRadAn=           0 IRanWt=          -1 IRanGd=           0 AccXCQ= 1.00D-10.
 NRdTot=     122 NPtTot=       15168 NUsed=       15749 NTot=       15765
 NSgBfM=     4     4     4     4     4 NAtAll=     2     2.
 Leave Link  302 at Fri Aug 07 16:13:42 2015, MaxMem=   33554432 cpu:       1.0
 (Enter C:\software\G09W\l303.exe)
 DipDrv:  MaxL=1.
 Leave Link  303 at Fri Aug 07 16:13:42 2015, MaxMem=   33554432 cpu:       0.0
 (Enter C:\software\G09W\l401.exe)
 Initial guess read from the read-write file.
 B after Tr=     0.000000    0.000000    0.000000
         Rot=    1.000000    0.000000    0.000000    0.000000 Ang=   0.00 deg.
 Guess basis will be translated and rotated to current coordinates.
 Initial guess orbital symmetries:
       Occupied  (SGG)
       Virtual   (SGU) (SGG) (SGU)
 The electronic state of the initial guess is 1-SGG.
 Leave Link  401 at Fri Aug 07 16:13:42 2015, MaxMem=   33554432 cpu:       0.0
 (Enter C:\software\G09W\l502.exe)
 Closed shell SCF:
 Requested convergence on RMS density matrix=1.00D-08 within 128 cycles.
 Requested convergence on MAX density matrix=1.00D-06.
 Requested convergence on             energy=1.00D-06.
 No special actions if energy rises.
 Using DIIS extrapolation, IDIIS=  1040.
 Integral symmetry usage will be decided dynamically.
        15721 words used for storage of precomputed grid.
 Keep R1 ints in memory in canonical form, NReq=866664.
 IEnd=       35443 IEndB=       35443 NGot=    33554432 MDV=    33536009
 LenX=    33536009 LenY=    33535127
 Symmetry not used in FoFDir.
 MinBra= 0 MaxBra= 0 Meth= 1.
 IRaf=       0 NMat=   1 IRICut=       1 DoRegI=T DoRafI=F ISym2E= 0 JSym2E=0.

 Cycle   1  Pass 1  IDiag  1:
 E= -1.16353649855875    
 DIIS: error= 2.06D-03 at cycle   1 NSaved=   1.
 NSaved= 1 IEnMin= 1 EnMin= -1.16353649855875     IErMin= 1 ErrMin= 2.06D-03
 ErrMax= 2.06D-03 EMaxC= 1.00D-01 BMatC= 1.70D-05 BMatP= 1.70D-05
 IDIUse=3 WtCom= 9.79D-01 WtEn= 2.06D-02
 Coeff-Com:  0.100D+01
 Coeff-En:   0.100D+01
 Coeff:      0.100D+01
 Gap=     0.664 Goal=   None    Shift=    0.000
 GapD=    0.664 DampG=2.000 DampE=1.000 DampFc=2.0000 IDamp=-1.
 RMSDP=1.14D-03 MaxDP=1.85D-03              OVMax= 0.00D+00

 Cycle   2  Pass 1  IDiag  1:
 E= -1.16356518202567     Delta-E=       -0.000028683467 Rises=F Damp=F
 DIIS: error= 8.73D-05 at cycle   2 NSaved=   2.
 NSaved= 2 IEnMin= 2 EnMin= -1.16356518202567     IErMin= 2 ErrMin= 8.73D-05
 ErrMax= 8.73D-05 EMaxC= 1.00D-01 BMatC= 3.05D-08 BMatP= 1.70D-05
 IDIUse=1 WtCom= 1.00D+00 WtEn= 0.00D+00
 Coeff-Com:  0.406D-01 0.959D+00
 Coeff:      0.406D-01 0.959D+00
 Gap=     0.664 Goal=   None    Shift=    0.000
 RMSDP=4.63D-05 MaxDP=7.49D-05 DE=-2.87D-05 OVMax= 0.00D+00

 Cycle   3  Pass 1  IDiag  1:
 E= -1.16356523353776     Delta-E=       -0.000000051512 Rises=F Damp=F
 DIIS: error= 5.88D-08 at cycle   3 NSaved=   3.
 NSaved= 3 IEnMin= 3 EnMin= -1.16356523353776     IErMin= 3 ErrMin= 5.88D-08
 ErrMax= 5.88D-08 EMaxC= 1.00D-01 BMatC= 1.38D-14 BMatP= 3.05D-08
 IDIUse=1 WtCom= 1.00D+00 WtEn= 0.00D+00
 Large coefficients: NSaved=  3 BigCof=    0.00 CofMax=   10.00 Det=-6.62D-24
 Inversion failed.  Reducing to  2 matrices.
 Coeff-Com:  0.674D-03 0.999D+00
 Coeff:      0.674D-03 0.999D+00
 Gap=     0.664 Goal=   None    Shift=    0.000
 RMSDP=3.12D-08 MaxDP=5.04D-08 DE=-5.15D-08 OVMax= 0.00D+00

 Cycle   4  Pass 1  IDiag  1:
 E= -1.16356523353778     Delta-E=        0.000000000000 Rises=F Damp=F
 DIIS: error= 1.66D-12 at cycle   4 NSaved=   3.
 NSaved= 3 IEnMin= 3 EnMin= -1.16356523353778     IErMin= 3 ErrMin= 1.66D-12
 ErrMax= 1.66D-12 EMaxC= 1.00D-01 BMatC= 1.10D-23 BMatP= 1.38D-14
 IDIUse=1 WtCom= 1.00D+00 WtEn= 0.00D+00
 Large coefficients: NSaved=  3 BigCof=    0.00 CofMax=   10.00 Det=-3.16D-30
 Inversion failed.  Reducing to  2 matrices.
 Coeff-Com: -0.281D-04 0.100D+01
 Coeff:     -0.281D-04 0.100D+01
 Gap=     0.664 Goal=   None    Shift=    0.000
 RMSDP=8.78D-13 MaxDP=1.42D-12 DE=-2.42D-14 OVMax= 0.00D+00

 SCF Done:  E(RM062X) =  -1.16356523354     A.U. after    4 cycles
             Convg  =    0.8776D-12             -V/T =  2.0164
 KE= 1.144747503187D+00 PE=-3.644929078466D+00 EE= 6.187493736987D-01
 Leave Link  502 at Fri Aug 07 16:13:42 2015, MaxMem=   33554432 cpu:       0.0
 (Enter C:\software\G09W\l701.exe)
 Compute integral first derivatives.
 ... and contract with generalized density number  0.
 Leave Link  701 at Fri Aug 07 16:13:42 2015, MaxMem=   33554432 cpu:       0.0
 (Enter C:\software\G09W\l702.exe)
 L702 exits ... SP integral derivatives will be done elsewhere.
 Leave Link  702 at Fri Aug 07 16:13:42 2015, MaxMem=   33554432 cpu:       0.0
 (Enter C:\software\G09W\l703.exe)
 Compute integral first derivatives, UseDBF=F ICtDFT=           0.
 Integral derivatives from FoFDir, PRISM(SPDF).
 Calling FoFJK, ICntrl=      2127 FMM=F ISym2X=1 I1Cent= 0 IOpClX= 0 NMat=1 NMatS=1 NMatT=0.
 FoFCou: FMM=F IPFlag=           0 FMFlag=      100000 FMFlg1=         800
         NFxFlg=           0 DoJE=F BraDBF=F KetDBF=F FulRan=T
         Omega=  0.000000  0.000000  1.000000  0.000000  0.000000 ICntrl=    2127 IOpCl=  0
         NMat0=    1 NMatS0=    1 NMatT0=    0 NMatD0=    1 NMtDS0=    0 NMtDT0=    0
         I1Cent=           0 NGrid=           0.
 Petite list used in FoFCou.
 Leave Link  703 at Fri Aug 07 16:13:42 2015, MaxMem=   33554432 cpu:       0.0
 (Enter C:\software\G09W\l716.exe)
 Dipole        =-2.46519033D-32 0.00000000D+00 0.00000000D+00
 ***** Axes restored to original set *****
 -------------------------------------------------------------------
 Center     Atomic                   Forces (Hartrees/Bohr)
 Number     Number              X              Y              Z
 -------------------------------------------------------------------
      1        1          -0.000459897    0.000000000    0.000000000
      2        1           0.000459897    0.000000000    0.000000000
 -------------------------------------------------------------------
 Cartesian Forces:  Max     0.000459897 RMS     0.000265522
 Leave Link  716 at Fri Aug 07 16:13:42 2015, MaxMem=   33554432 cpu:       0.0
 (Enter C:\software\G09W\l103.exe)

 GradGradGradGradGradGradGradGradGradGradGradGradGradGradGradGradGradGrad
 Berny optimization.
 Using GEDIIS/GDIIS optimizer.
 Internal  Forces:  Max     0.000459897 RMS     0.000459897
 Search for a local minimum.
 Step number   3 out of a maximum of   20
 All quantities printed in internal units (Hartrees-Bohrs-Radians)
 RMS Force = .45990D-03 SwitMx=.10000D-02 MixMth= 2
 Mixed Optimization -- En-DIIS/RFO-DIIS
 Update second derivatives using D2CorX and points    2    3
 DE= -1.10D-04 DEPred=-3.42D-05 R= 3.20D+00
 SS=  1.41D+00  RLast= 2.46D-02 DXNew= 8.4853D-01 7.3737D-02
 Trust test= 3.20D+00 RLast= 2.46D-02 DXMaxT set to 5.05D-01
 The second derivative matrix:
                          R1
           R1           0.40588
 Use linear search instead of GDIIS.
     Eigenvalues ---    0.40588
 RFO step:  Lambda= 0.00000000D+00 EMin= 4.05883510D-01
 Quartic linear search produced a step of -0.04809.
 Iteration  1 RMS(Cart)=  0.00083583 RMS(Int)=  0.00000000
 Iteration  2 RMS(Cart)=  0.00000000 RMS(Int)=  0.00000000
 ClnCor:  largest displacement from symmetrization is 0.00D+00 for atom     0.
 Variable       Old X    -DE/DX   Delta X   Delta X   Delta X     New X
                                 (Linear)    (Quad)   (Total)
    R1        1.39302  -0.00046  -0.00118   0.00000  -0.00118   1.39183
         Item               Value     Threshold  Converged?
 Maximum Force            0.000460     0.000450     NO 
 RMS     Force            0.000460     0.000300     NO 
 Maximum Displacement     0.000591     0.001800     YES
 RMS     Displacement     0.000836     0.001200     YES
 Predicted change in Energy=-2.600623D-07
 GradGradGradGradGradGradGradGradGradGradGradGradGradGradGradGradGradGrad

 Leave Link  103 at Fri Aug 07 16:13:42 2015, MaxMem=   33554432 cpu:       0.0
 (Enter C:\software\G09W\l202.exe)
                          Input orientation:                          
 ---------------------------------------------------------------------
 Center     Atomic      Atomic             Coordinates (Angstroms)
 Number     Number       Type             X           Y           Z
 ---------------------------------------------------------------------
      1          1           0       -3.832630   -1.419437   -0.058920
      2          1           0       -4.569157   -1.419437   -0.058920
 ---------------------------------------------------------------------
 Stoichiometry    H2
 Framework group  D*H[C*(H.H)]
 Deg. of freedom     1
 Full point group                 D*H     NOp   8
 Largest Abelian subgroup         D2H     NOp   8
 Largest concise Abelian subgroup C2      NOp   2
                         Standard orientation:                         
 ---------------------------------------------------------------------
 Center     Atomic      Atomic             Coordinates (Angstroms)
 Number     Number       Type             X           Y           Z
 ---------------------------------------------------------------------
      1          1           0        0.000000    0.000000    0.368263
      2          1           0        0.000000    0.000000   -0.368263
 ---------------------------------------------------------------------
 Rotational constants (GHZ):      0.0000000   1848.7793491   1848.7793491
 Leave Link  202 at Fri Aug 07 16:13:42 2015, MaxMem=   33554432 cpu:       0.0
 (Enter C:\software\G09W\l301.exe)
 Standard basis: 6-31G(d) (6D, 7F)
 Ernie: Thresh=  0.10000D-02 Tol=  0.10000D-05 Strict=F.
 There are     2 symmetry adapted basis functions of AG  symmetry.
 There are     0 symmetry adapted basis functions of B1G symmetry.
 There are     0 symmetry adapted basis functions of B2G symmetry.
 There are     0 symmetry adapted basis functions of B3G symmetry.
 There are     0 symmetry adapted basis functions of AU  symmetry.
 There are     2 symmetry adapted basis functions of B1U symmetry.
 There are     0 symmetry adapted basis functions of B2U symmetry.
 There are     0 symmetry adapted basis functions of B3U symmetry.
 Integral buffers will be    262144 words long.
 Raffenetti 2 integral format.
 Two-electron integral symmetry is turned on.
     4 basis functions,     8 primitive gaussians,     4 cartesian basis functions
     1 alpha electrons        1 beta electrons
       nuclear repulsion energy         0.7184766319 Hartrees.
 IExCor= 4336 DFT=T Ex+Corr=M062X ExCW=0 ScaHFX=  0.540000
 ScaDFX=  1.000000  1.000000  1.000000  1.000000 ScalE2=  1.000000  1.000000
 IRadAn=      0 IRanWt=     -1 IRanGd=            0 ICorTp=0
 NAtoms=    2 NActive=    2 NUniq=    1 SFac= 3.00D+00 NAtFMM=   80 NAOKFM=F Big=F
 Leave Link  301 at Fri Aug 07 16:13:42 2015, MaxMem=   33554432 cpu:       0.0
 (Enter C:\software\G09W\l302.exe)
 NPDir=0 NMtPBC=     1 NCelOv=     1 NCel=       1 NClECP=     1 NCelD=      1
         NCelK=      1 NCelE2=     1 NClLst=     1 CellRange=     0.0.
 One-electron integrals computed using PRISM.
 One-electron integral symmetry used in STVInt
 NBasis=     4 RedAO= T  NBF=     2     0     0     0     0     2     0     0
 NBsUse=     4 1.00D-06 NBFU=     2     0     0     0     0     2     0     0
 Precomputing XC quadrature grid using
 IXCGrd= 2 IRadAn=           0 IRanWt=          -1 IRanGd=           0 AccXCQ= 1.00D-10.
 NRdTot=     122 NPtTot=       15168 NUsed=       15749 NTot=       15765
 NSgBfM=     4     4     4     4     4 NAtAll=     2     2.
 Leave Link  302 at Fri Aug 07 16:13:42 2015, MaxMem=   33554432 cpu:       0.0
 (Enter C:\software\G09W\l303.exe)
 DipDrv:  MaxL=1.
 Leave Link  303 at Fri Aug 07 16:13:42 2015, MaxMem=   33554432 cpu:       0.0
 (Enter C:\software\G09W\l401.exe)
 Initial guess read from the read-write file.
 B after Tr=     0.000000    0.000000    0.000000
         Rot=    1.000000    0.000000    0.000000    0.000000 Ang=   0.00 deg.
 Guess basis will be translated and rotated to current coordinates.
 Initial guess orbital symmetries:
       Occupied  (SGG)
       Virtual   (SGU) (SGG) (SGU)
 The electronic state of the initial guess is 1-SGG.
 Leave Link  401 at Fri Aug 07 16:13:43 2015, MaxMem=   33554432 cpu:       0.0
 (Enter C:\software\G09W\l502.exe)
 Closed shell SCF:
 Requested convergence on RMS density matrix=1.00D-08 within 128 cycles.
 Requested convergence on MAX density matrix=1.00D-06.
 Requested convergence on             energy=1.00D-06.
 No special actions if energy rises.
 Using DIIS extrapolation, IDIIS=  1040.
 Integral symmetry usage will be decided dynamically.
        15721 words used for storage of precomputed grid.
 Keep R1 ints in memory in canonical form, NReq=866664.
 IEnd=       35443 IEndB=       35443 NGot=    33554432 MDV=    33536009
 LenX=    33536009 LenY=    33535127
 Symmetry not used in FoFDir.
 MinBra= 0 MaxBra= 0 Meth= 1.
 IRaf=       0 NMat=   1 IRICut=       1 DoRegI=T DoRafI=F ISym2E= 0 JSym2E=0.

 Cycle   1  Pass 1  IDiag  1:
 E= -1.16356543981069    
 DIIS: error= 9.85D-05 at cycle   1 NSaved=   1.
 NSaved= 1 IEnMin= 1 EnMin= -1.16356543981069     IErMin= 1 ErrMin= 9.85D-05
 ErrMax= 9.85D-05 EMaxC= 1.00D-01 BMatC= 3.88D-08 BMatP= 3.88D-08
 IDIUse=1 WtCom= 1.00D+00 WtEn= 0.00D+00
 Coeff-Com:  0.100D+01
 Coeff:      0.100D+01
 Gap=     0.665 Goal=   None    Shift=    0.000
 RMSDP=5.45D-05 MaxDP=8.81D-05              OVMax= 0.00D+00

 Cycle   2  Pass 1  IDiag  1:
 E= -1.16356550533380     Delta-E=       -0.000000065523 Rises=F Damp=F
 DIIS: error= 4.25D-06 at cycle   2 NSaved=   2.
 NSaved= 2 IEnMin= 2 EnMin= -1.16356550533380     IErMin= 2 ErrMin= 4.25D-06
 ErrMax= 4.25D-06 EMaxC= 1.00D-01 BMatC= 7.21D-11 BMatP= 3.88D-08
 IDIUse=1 WtCom= 1.00D+00 WtEn= 0.00D+00
 Coeff-Com:  0.413D-01 0.959D+00
 Coeff:      0.413D-01 0.959D+00
 Gap=     0.665 Goal=   None    Shift=    0.000
 RMSDP=2.25D-06 MaxDP=3.64D-06 DE=-6.55D-08 OVMax= 0.00D+00

 Cycle   3  Pass 1  IDiag  1:
 E= -1.16356550545579     Delta-E=       -0.000000000122 Rises=F Damp=F
 DIIS: error= 1.35D-10 at cycle   3 NSaved=   3.
 NSaved= 3 IEnMin= 3 EnMin= -1.16356550545579     IErMin= 3 ErrMin= 1.35D-10
 ErrMax= 1.35D-10 EMaxC= 1.00D-01 BMatC= 7.32D-20 BMatP= 7.21D-11
 IDIUse=1 WtCom= 1.00D+00 WtEn= 0.00D+00
 Large coefficients: NSaved=  3 BigCof=    0.00 CofMax=   10.00 Det= 0.00D+00
 Inversion failed.  Reducing to  2 matrices.
 Coeff-Com: -0.319D-04 0.100D+01
 Coeff:     -0.319D-04 0.100D+01
 Gap=     0.665 Goal=   None    Shift=    0.000
 RMSDP=7.17D-11 MaxDP=1.16D-10 DE=-1.22D-10 OVMax= 0.00D+00

 SCF Done:  E(RM062X) =  -1.16356550546     A.U. after    3 cycles
             Convg  =    0.7171D-10             -V/T =  2.0159
 KE= 1.145336881772D+00 PE=-3.646360980794D+00 EE= 6.189819616195D-01
 Leave Link  502 at Fri Aug 07 16:13:43 2015, MaxMem=   33554432 cpu:       0.0
 (Enter C:\software\G09W\l701.exe)
 Compute integral first derivatives.
 ... and contract with generalized density number  0.
 Leave Link  701 at Fri Aug 07 16:13:43 2015, MaxMem=   33554432 cpu:       0.0
 (Enter C:\software\G09W\l702.exe)
 L702 exits ... SP integral derivatives will be done elsewhere.
 Leave Link  702 at Fri Aug 07 16:13:43 2015, MaxMem=   33554432 cpu:       0.0
 (Enter C:\software\G09W\l703.exe)
 Compute integral first derivatives, UseDBF=F ICtDFT=           0.
 Integral derivatives from FoFDir, PRISM(SPDF).
 Calling FoFJK, ICntrl=      2127 FMM=F ISym2X=1 I1Cent= 0 IOpClX= 0 NMat=1 NMatS=1 NMatT=0.
 FoFCou: FMM=F IPFlag=           0 FMFlag=      100000 FMFlg1=         800
         NFxFlg=           0 DoJE=F BraDBF=F KetDBF=F FulRan=T
         Omega=  0.000000  0.000000  1.000000  0.000000  0.000000 ICntrl=    2127 IOpCl=  0
         NMat0=    1 NMatS0=    1 NMatT0=    0 NMatD0=    1 NMtDS0=    0 NMtDT0=    0
         I1Cent=           0 NGrid=           0.
 Petite list used in FoFCou.
 Leave Link  703 at Fri Aug 07 16:13:43 2015, MaxMem=   33554432 cpu:       0.0
 (Enter C:\software\G09W\l716.exe)
 Dipole        =-9.86076132D-32 0.00000000D+00 0.00000000D+00
 ***** Axes restored to original set *****
 -------------------------------------------------------------------
 Center     Atomic                   Forces (Hartrees/Bohr)
 Number     Number              X              Y              Z
 -------------------------------------------------------------------
      1        1           0.000000139    0.000000000    0.000000000
      2        1          -0.000000139    0.000000000    0.000000000
 -------------------------------------------------------------------
 Cartesian Forces:  Max     0.000000139 RMS     0.000000080
 Leave Link  716 at Fri Aug 07 16:13:43 2015, MaxMem=   33554432 cpu:       0.0
 (Enter C:\software\G09W\l103.exe)

 GradGradGradGradGradGradGradGradGradGradGradGradGradGradGradGradGradGrad
 Berny optimization.
 Using GEDIIS/GDIIS optimizer.
 Internal  Forces:  Max     0.000000139 RMS     0.000000139
 Search for a local minimum.
 Step number   4 out of a maximum of   20
 All quantities printed in internal units (Hartrees-Bohrs-Radians)
 RMS Force = .13860D-06 SwitMx=.10000D-02 MixMth= 2
 Mixed Optimization -- En-DIIS/RFO-DIIS
 Swaping is turned off.
 Update second derivatives using D2CorX and points    4
 DE= -2.72D-07 DEPred=-2.60D-07 R= 1.05D+00
 Trust test= 1.05D+00 RLast= 1.18D-03 DXMaxT set to 5.05D-01
 The second derivative matrix:
                          R1
           R1           0.40588
     Eigenvalues ---    0.40588
 En-DIIS/RFO-DIIS IScMMF=        0 using points:     4    3
 RFO step:  Lambda=-3.01425551D-14.
 Iteration  1 RMS(Cart)=  0.00000024 RMS(Int)=  0.00000000
 ClnCor:  largest displacement from symmetrization is 0.00D+00 for atom     0.
 Variable       Old X    -DE/DX   Delta X   Delta X   Delta X     New X
                                  (DIIS)     (GDIIS)  (Total)
    R1        1.39183   0.00000   0.00000   0.00000   0.00000   1.39183
         Item               Value     Threshold  Converged?
 Maximum Force            0.000000     0.000450     YES
 RMS     Force            0.000000     0.000300     YES
 Maximum Displacement     0.000000     0.001800     YES
 RMS     Displacement     0.000000     0.001200     YES
 Predicted change in Energy=-2.366357D-14
 Optimization completed.
    -- Stationary point found.
                           ----------------------------
                           !   Optimized Parameters   !
                           ! (Angstroms and Degrees)  !
 --------------------------                            --------------------------
 ! Name  Definition              Value          Derivative Info.                !
 --------------------------------------------------------------------------------
 ! R1    R(1,2)                  0.7365         -DE/DX =    0.0                 !
 --------------------------------------------------------------------------------
 GradGradGradGradGradGradGradGradGradGradGradGradGradGradGradGradGradGrad

 Largest change from initial coordinates is atom    2       0.068 Angstoms.
 Leave Link  103 at Fri Aug 07 16:13:43 2015, MaxMem=   33554432 cpu:       0.0
 (Enter C:\software\G09W\l202.exe)
                          Input orientation:                          
 ---------------------------------------------------------------------
 Center     Atomic      Atomic             Coordinates (Angstroms)
 Number     Number       Type             X           Y           Z
 ---------------------------------------------------------------------
      1          1           0       -3.832630   -1.419437   -0.058920
      2          1           0       -4.569157   -1.419437   -0.058920
 ---------------------------------------------------------------------
 Stoichiometry    H2
 Framework group  D*H[C*(H.H)]
 Deg. of freedom     1
 Full point group                 D*H     NOp   8
 Largest Abelian subgroup         D2H     NOp   8
 Largest concise Abelian subgroup C2      NOp   2
                         Standard orientation:                         
 ---------------------------------------------------------------------
 Center     Atomic      Atomic             Coordinates (Angstroms)
 Number     Number       Type             X           Y           Z
 ---------------------------------------------------------------------
      1          1           0        0.000000    0.000000    0.368263
      2          1           0        0.000000    0.000000   -0.368263
 ---------------------------------------------------------------------
 Rotational constants (GHZ):      0.0000000   1848.7793491   1848.7793491
 Leave Link  202 at Fri Aug 07 16:13:43 2015, MaxMem=   33554432 cpu:       0.0
 (Enter C:\software\G09W\l601.exe)
 Copying SCF densities to generalized density rwf, IOpCl= 0 IROHF=0.

 **********************************************************************

            Population analysis using the SCF density.

 **********************************************************************

 Orbital symmetries:
       Occupied  (SGG)
       Virtual   (SGU) (SGG) (SGU)
 The electronic state is 1-SGG.
 Alpha  occ. eigenvalues --   -0.49920
 Alpha virt. eigenvalues --    0.16537   0.63447   1.41233
          Condensed to atoms (all electrons):
              1          2
     1  H    0.596340   0.403660
     2  H    0.403660   0.596340
 Mulliken atomic charges:
              1
     1  H    0.000000
     2  H    0.000000
 Sum of Mulliken atomic charges =   0.00000
 Mulliken charges with hydrogens summed into heavy atoms:
              1
 Sum of Mulliken charges with hydrogens summed into heavy atoms =   0.00000
 Electronic spatial extent (au):  <R**2>=              5.1357
 Charge=              0.0000 electrons
 Dipole moment (field-independent basis, Debye):
    X=              0.0000    Y=              0.0000    Z=              0.0000  Tot=              0.0000
 Quadrupole moment (field-independent basis, Debye-Ang):
   XX=             -2.0079   YY=             -2.0079   ZZ=             -1.5892
   XY=              0.0000   XZ=              0.0000   YZ=              0.0000
 Traceless Quadrupole moment (field-independent basis, Debye-Ang):
   XX=             -0.1396   YY=             -0.1396   ZZ=              0.2791
   XY=              0.0000   XZ=              0.0000   YZ=              0.0000
 Octapole moment (field-independent basis, Debye-Ang**2):
  XXX=              0.0000  YYY=              0.0000  ZZZ=              0.0000  XYY=              0.0000
  XXY=              0.0000  XXZ=              0.0000  XZZ=              0.0000  YZZ=              0.0000
  YYZ=              0.0000  XYZ=              0.0000
 Hexadecapole moment (field-independent basis, Debye-Ang**3):
 XXXX=             -1.8397 YYYY=             -1.8397 ZZZZ=             -2.7819 XXXY=              0.0000
 XXXZ=              0.0000 YYYX=              0.0000 YYYZ=              0.0000 ZZZX=              0.0000
 ZZZY=              0.0000 XXYY=             -0.6132 XXZZ=             -0.7811 YYZZ=             -0.7811
 XXYZ=              0.0000 YYXZ=              0.0000 ZZXY=              0.0000
 N-N= 7.184766319463D-01 E-N=-3.646360980646D+00  KE= 1.145336881772D+00
 Symmetry AG   KE= 1.145336881772D+00
 Symmetry B1G  KE= 0.000000000000D+00
 Symmetry B2G  KE= 0.000000000000D+00
 Symmetry B3G  KE= 0.000000000000D+00
 Symmetry AU   KE= 0.000000000000D+00
 Symmetry B1U  KE= 1.585797417894D-32
 Symmetry B2U  KE= 0.000000000000D+00
 Symmetry B3U  KE= 0.000000000000D+00
 No NMR shielding tensors so no spin-rotation constants.
 Leave Link  601 at Fri Aug 07 16:13:43 2015, MaxMem=   33554432 cpu:       0.0
 (Enter C:\software\G09W\l9999.exe)
 1|1|UNPC-CCE1|FOpt|RM062X|6-31G(d)|H2|CCE|07-Aug-2015|0||#p m062x/6-31
 g(d) opt freq||Title Card Required||0,1|H,-3.8326300599,-1.41943732,-0
 .05891992|H,-4.5691567401,-1.41943732,-0.05891992||Version=IA32W-G09Re
 vA.02|State=1-SGG|HF=-1.1635655|RMSD=7.171e-011|RMSF=8.002e-008|Dipole
 =0.,0.,0.|Quadrupole=0.2075329,-0.1037664,-0.1037664,0.,0.,0.|PG=D*H [
 C*(H1.H1)]||@


 One man practicing sportsmanship is far better than 50 preaching it.
 -- Knute K. Rockne
 Leave Link 9999 at Fri Aug 07 16:13:43 2015, MaxMem=   33554432 cpu:       0.0
 Job cpu time:  0 days  0 hours  0 minutes  4.0 seconds.
 File lengths (MBytes):  RWF=      5 Int=      0 D2E=      0 Chk=      1 Scr=      1
 Normal termination of Gaussian 09 at Fri Aug 07 16:13:43 2015.
 (Enter C:\software\G09W\l1.exe)
 Link1:  Proceeding to internal job step number  2.
 --------------------------------------------------------------------
 #P Geom=AllCheck Guess=TCheck SCRF=Check GenChk RM062X/6-31G(d) Freq
 --------------------------------------------------------------------
 1/10=4,29=7,30=1,38=1,40=1/1,3;
 2/12=2,40=1/2;
 3/5=1,6=6,7=1,11=2,14=-4,16=1,25=1,30=1,70=2,71=2,74=-55,116=1/1,2,3;
 4/5=101/1;
 5/5=2,98=1/2;
 8/6=4,10=90,11=11/1;
 11/6=1,8=1,9=11,15=111,16=1/1,2,10;
 10/6=1/2;
 6/7=2,8=2,9=2,10=2,18=1,28=1/1;
 7/8=1,10=1,25=1/1,2,3,16;
 1/10=4,30=1/3;
 99//99;
 Leave Link    1 at Fri Aug 07 16:13:44 2015, MaxMem=          0 cpu:       0.0
 (Enter C:\software\G09W\l101.exe)
 -------------------
 Title Card Required
 -------------------
 Redundant internal coordinates taken from checkpoint file:
 C:\hetanjin\Templates\Template21\test\H2.chk
 Charge =  0 Multiplicity = 1
 H,0,-3.8326300599,-1.41943732,-0.05891992
 H,0,-4.5691567401,-1.41943732,-0.05891992
 Recover connectivity data from disk.
                    Isotopes and Nuclear Properties:
 (Nuclear quadrupole moments (NQMom) in fm**2, nuclear magnetic moments (NMagM)
  in nuclear magnetons)

  Atom         1           2
 IAtWgt=           1           1
 AtmWgt=   1.0078250   1.0078250
 NucSpn=           1           1
 AtZEff=  -1.0000000  -1.0000000
 NQMom=    0.0000000   0.0000000
 NMagM=    2.7928460   2.7928460
 Leave Link  101 at Fri Aug 07 16:13:44 2015, MaxMem=   33554432 cpu:       0.0
 (Enter C:\software\G09W\l103.exe)

 GradGradGradGradGradGradGradGradGradGradGradGradGradGradGradGradGradGrad
 Berny optimization.
 Initialization pass.
                           ----------------------------
                           !    Initial Parameters    !
                           ! (Angstroms and Degrees)  !
 --------------------------                            --------------------------
 ! Name  Definition              Value          Derivative Info.                !
 --------------------------------------------------------------------------------
 ! R1    R(1,2)                  0.7365         calculate D2E/DX2 analytically  !
 --------------------------------------------------------------------------------
 Trust Radius=3.00D-01 FncErr=1.00D-07 GrdErr=1.00D-07
 Number of steps in this run=   2 maximum allowed number of steps=   2.
 GradGradGradGradGradGradGradGradGradGradGradGradGradGradGradGradGradGrad

 Leave Link  103 at Fri Aug 07 16:13:44 2015, MaxMem=   33554432 cpu:       0.0
 (Enter C:\software\G09W\l202.exe)
                          Input orientation:                          
 ---------------------------------------------------------------------
 Center     Atomic      Atomic             Coordinates (Angstroms)
 Number     Number       Type             X           Y           Z
 ---------------------------------------------------------------------
      1          1           0       -3.832630   -1.419437   -0.058920
      2          1           0       -4.569157   -1.419437   -0.058920
 ---------------------------------------------------------------------
 Stoichiometry    H2
 Framework group  D*H[C*(H.H)]
 Deg. of freedom     1
 Full point group                 D*H     NOp   8
 Largest Abelian subgroup         D2H     NOp   8
 Largest concise Abelian subgroup C2      NOp   2
                         Standard orientation:                         
 ---------------------------------------------------------------------
 Center     Atomic      Atomic             Coordinates (Angstroms)
 Number     Number       Type             X           Y           Z
 ---------------------------------------------------------------------
      1          1           0        0.000000    0.000000    0.368263
      2          1           0        0.000000    0.000000   -0.368263
 ---------------------------------------------------------------------
 Rotational constants (GHZ):      0.0000000   1848.7793491   1848.7793491
 Leave Link  202 at Fri Aug 07 16:13:44 2015, MaxMem=   33554432 cpu:       0.0
 (Enter C:\software\G09W\l301.exe)
 Standard basis: 6-31G(d) (6D, 7F)
 Ernie: Thresh=  0.10000D-02 Tol=  0.10000D-05 Strict=F.
 There are     2 symmetry adapted basis functions of AG  symmetry.
 There are     0 symmetry adapted basis functions of B1G symmetry.
 There are     0 symmetry adapted basis functions of B2G symmetry.
 There are     0 symmetry adapted basis functions of B3G symmetry.
 There are     0 symmetry adapted basis functions of AU  symmetry.
 There are     2 symmetry adapted basis functions of B1U symmetry.
 There are     0 symmetry adapted basis functions of B2U symmetry.
 There are     0 symmetry adapted basis functions of B3U symmetry.
 Integral buffers will be    262144 words long.
 Raffenetti 2 integral format.
 Two-electron integral symmetry is turned on.
     4 basis functions,     8 primitive gaussians,     4 cartesian basis functions
     1 alpha electrons        1 beta electrons
       nuclear repulsion energy         0.7184766319 Hartrees.
 IExCor= 4336 DFT=T Ex+Corr=M062X ExCW=0 ScaHFX=  0.540000
 ScaDFX=  1.000000  1.000000  1.000000  1.000000 ScalE2=  1.000000  1.000000
 IRadAn=      0 IRanWt=     -1 IRanGd=            0 ICorTp=0
 NAtoms=    2 NActive=    2 NUniq=    1 SFac= 3.00D+00 NAtFMM=   80 NAOKFM=F Big=F
 Leave Link  301 at Fri Aug 07 16:13:44 2015, MaxMem=   33554432 cpu:       0.0
 (Enter C:\software\G09W\l302.exe)
 NPDir=0 NMtPBC=     1 NCelOv=     1 NCel=       1 NClECP=     1 NCelD=      1
         NCelK=      1 NCelE2=     1 NClLst=     1 CellRange=     0.0.
 One-electron integrals computed using PRISM.
 One-electron integral symmetry used in STVInt
 NBasis=     4 RedAO= T  NBF=     2     0     0     0     0     2     0     0
 NBsUse=     4 1.00D-06 NBFU=     2     0     0     0     0     2     0     0
 Precomputing XC quadrature grid using
 IXCGrd= 2 IRadAn=           0 IRanWt=          -1 IRanGd=           0 AccXCQ= 1.00D-10.
 NRdTot=     122 NPtTot=       15168 NUsed=       15749 NTot=       15765
 NSgBfM=     4     4     4     4     4 NAtAll=     2     2.
 Leave Link  302 at Fri Aug 07 16:13:44 2015, MaxMem=   33554432 cpu:       0.0
 (Enter C:\software\G09W\l303.exe)
 DipDrv:  MaxL=1.
 Leave Link  303 at Fri Aug 07 16:13:44 2015, MaxMem=   33554432 cpu:       0.0
 (Enter C:\software\G09W\l401.exe)
 Initial guess read from the checkpoint file:  C:\hetanjin\Templates\Template21\t
 est\H2.chk
 B after Tr=     0.000000    0.000000    0.000000
         Rot=    1.000000    0.000000    0.000000    0.000000 Ang=   0.00 deg.
 Guess basis will be translated and rotated to current coordinates.
 Initial guess orbital symmetries:
       Occupied  (SGG)
       Virtual   (SGU) (SGG) (SGU)
 The electronic state of the initial guess is 1-SGG.
 Leave Link  401 at Fri Aug 07 16:13:44 2015, MaxMem=   33554432 cpu:       0.0
 (Enter C:\software\G09W\l502.exe)
 Closed shell SCF:
 Requested convergence on RMS density matrix=1.00D-08 within 128 cycles.
 Requested convergence on MAX density matrix=1.00D-06.
 Requested convergence on             energy=1.00D-06.
 No special actions if energy rises.
 Using DIIS extrapolation, IDIIS=  1040.
 Integral symmetry usage will be decided dynamically.
        15721 words used for storage of precomputed grid.
 Keep R1 ints in memory in canonical form, NReq=866664.
 IEnd=       35443 IEndB=       35443 NGot=    33554432 MDV=    33536009
 LenX=    33536009 LenY=    33535127
 Symmetry not used in FoFDir.
 MinBra= 0 MaxBra= 0 Meth= 1.
 IRaf=       0 NMat=   1 IRICut=       1 DoRegI=T DoRafI=F ISym2E= 0 JSym2E=0.

 Cycle   1  Pass 1  IDiag  1:
 E= -1.16356550545579    
 DIIS: error= 1.94D-15 at cycle   1 NSaved=   1.
 NSaved= 1 IEnMin= 1 EnMin= -1.16356550545579     IErMin= 1 ErrMin= 1.94D-15
 ErrMax= 1.94D-15 EMaxC= 1.00D-01 BMatC= 1.51D-29 BMatP= 1.51D-29
 IDIUse=1 WtCom= 1.00D+00 WtEn= 0.00D+00
 Coeff-Com:  0.100D+01
 Coeff:      0.100D+01
 Gap=     0.665 Goal=   None    Shift=    0.000
 RMSDP=8.37D-16 MaxDP=1.36D-15              OVMax= 0.00D+00

 SCF Done:  E(RM062X) =  -1.16356550546     A.U. after    1 cycles
             Convg  =    0.8366D-15             -V/T =  2.0159
 KE= 1.145336881772D+00 PE=-3.646360980646D+00 EE= 6.189819614722D-01
 Leave Link  502 at Fri Aug 07 16:13:44 2015, MaxMem=   33554432 cpu:       0.0
 (Enter C:\software\G09W\l801.exe)
 Range of M.O.s used for correlation:     1     4
 NBasis=     4 NAE=     1 NBE=     1 NFC=     0 NFV=     0
 NROrb=      4 NOA=     1 NOB=     1 NVA=     3 NVB=     3
 Leave Link  801 at Fri Aug 07 16:13:44 2015, MaxMem=   33554432 cpu:       0.0
 (Enter C:\software\G09W\l1101.exe)
 Using compressed storage, NAtomX=     2.
 Will process   3 centers per pass.
 Leave Link 1101 at Fri Aug 07 16:13:44 2015, MaxMem=   33554432 cpu:       0.0
 (Enter C:\software\G09W\l1102.exe)
 Symmetrizing basis deriv contribution to polar:
 IMax=3 JMax=2 DiffMx= 0.00D+00
 Leave Link 1102 at Fri Aug 07 16:13:44 2015, MaxMem=   33554432 cpu:       0.0
 (Enter C:\software\G09W\l1110.exe)
 Forming Gx(P) for the SCF density, NAtomX=     2.
 Integral derivatives from FoFDir/FoFCou, PRISM(SPDF).
 Do as many integral derivatives as possible in FoFDir.
 G2DrvN: MDV=      33554366.
 G2DrvN: will do     3 centers at a time, making    1 passes doing MaxLOS=1.
 Calling FoFCou, ICntrl=  3107 FMM=F I1Cent=   0 AccDes= 0.00D+00.
 FoFCou: FMM=F IPFlag=           0 FMFlag=      100000 FMFlg1=           0
         NFxFlg=           0 DoJE=F BraDBF=F KetDBF=F FulRan=T
         Omega=  0.000000  0.000000  1.000000  0.000000  0.000000 ICntrl=    3107 IOpCl=  0
         NMat0=    1 NMatS0=    1 NMatT0=    0 NMatD0=    1 NMtDS0=    0 NMtDT0=    0
         I1Cent=           0 NGrid=           0.
 Petite list used in FoFCou.
 FoFDir/FoFCou used for L=0 through L=1.
 End of G2Drv Frequency-dependent properties file   721 does not exist.
 End of G2Drv Frequency-dependent properties file   722 does not exist.
 Leave Link 1110 at Fri Aug 07 16:13:45 2015, MaxMem=   33554432 cpu:       0.0
 (Enter C:\software\G09W\l1002.exe)
 Minotr:  Closed shell wavefunction.
          IDoAtm=11
          Direct CPHF calculation.
          Differentiating once with respect to electric field.
                with respect to dipole field.
          Differentiating once with respect to nuclear coordinates.
          Using symmetry in CPHF.
          Requested convergence is 1.0D-08 RMS, and 1.0D-07 maximum.
          Secondary convergence is 1.0D-12 RMS, and 1.0D-12 maximum.
          NewPWx=T KeepS1=F KeepF1=F KeepIn=T MapXYZ=F SortEE=F KeepMc=T.
          MDV=      33554414 using IRadAn=       2.
 Generate precomputed XC quadrature information.
          Keep R1 ints in memory in canonical form, NReq=800559.
 Symmetry not used in FoFDir.
 MinBra= 0 MaxBra= 0 Meth= 1.
 IRaf=       0 NMat=   1 IRICut=       1 DoRegI=T DoRafI=F ISym2E= 0 JSym2E=0.
          Solving linear equations simultaneously, MaxMat=       0.
          There are     6 degrees of freedom in the 1st order CPHF.  IDoFFX=4.
      2 vectors produced by pass  0 Test12= 5.00D-17 1.67D-08 XBig12= 2.31D+00 1.52D+00.
 AX will form     2 AO Fock derivatives at one time.
      1 vectors produced by pass  1 Test12= 5.00D-17 1.67D-08 XBig12= 2.37D-03 4.85D-02.
 Inverted reduced A of dimension     3 with in-core refinement.
 FullF1:  Do perturbations    1 to     6.
 Isotropic polarizability for W=    0.000000        2.17 Bohr**3.
 End of Minotr Frequency-dependent properties file   721 does not exist.
 End of Minotr Frequency-dependent properties file   722 does not exist.
 Leave Link 1002 at Fri Aug 07 16:13:45 2015, MaxMem=   33554432 cpu:       0.0
 (Enter C:\software\G09W\l601.exe)
 Copying SCF densities to generalized density rwf, IOpCl= 0 IROHF=0.

 **********************************************************************

            Population analysis using the SCF density.

 **********************************************************************

 Orbital symmetries:
       Occupied  (SGG)
       Virtual   (SGU) (SGG) (SGU)
 The electronic state is 1-SGG.
 Alpha  occ. eigenvalues --   -0.49920
 Alpha virt. eigenvalues --    0.16537   0.63447   1.41233
          Condensed to atoms (all electrons):
              1          2
     1  H    0.596340   0.403660
     2  H    0.403660   0.596340
 Mulliken atomic charges:
              1
     1  H    0.000000
     2  H    0.000000
 Sum of Mulliken atomic charges =   0.00000
 Mulliken charges with hydrogens summed into heavy atoms:
              1
 Sum of Mulliken charges with hydrogens summed into heavy atoms =   0.00000
 APT atomic charges:
              1
     1  H    0.000000
     2  H    0.000000
 Sum of APT charges=   0.00000
 APT Atomic charges with hydrogens summed into heavy atoms:
              1
     1  H    0.000000
     2  H    0.000000
 Sum of APT charges=   0.00000
 Electronic spatial extent (au):  <R**2>=              5.1357
 Charge=              0.0000 electrons
 Dipole moment (field-independent basis, Debye):
    X=              0.0000    Y=              0.0000    Z=              0.0000  Tot=              0.0000
 Quadrupole moment (field-independent basis, Debye-Ang):
   XX=             -2.0079   YY=             -2.0079   ZZ=             -1.5892
   XY=              0.0000   XZ=              0.0000   YZ=              0.0000
 Traceless Quadrupole moment (field-independent basis, Debye-Ang):
   XX=             -0.1396   YY=             -0.1396   ZZ=              0.2791
   XY=              0.0000   XZ=              0.0000   YZ=              0.0000
 Octapole moment (field-independent basis, Debye-Ang**2):
  XXX=              0.0000  YYY=              0.0000  ZZZ=              0.0000  XYY=              0.0000
  XXY=              0.0000  XXZ=              0.0000  XZZ=              0.0000  YZZ=              0.0000
  YYZ=              0.0000  XYZ=              0.0000
 Hexadecapole moment (field-independent basis, Debye-Ang**3):
 XXXX=             -1.8397 YYYY=             -1.8397 ZZZZ=             -2.7819 XXXY=              0.0000
 XXXZ=              0.0000 YYYX=              0.0000 YYYZ=              0.0000 ZZZX=              0.0000
 ZZZY=              0.0000 XXYY=             -0.6132 XXZZ=             -0.7811 YYZZ=             -0.7811
 XXYZ=              0.0000 YYXZ=              0.0000 ZZXY=              0.0000
 N-N= 7.184766319463D-01 E-N=-3.646360980646D+00  KE= 1.145336881772D+00
 Symmetry AG   KE= 1.145336881772D+00
 Symmetry B1G  KE= 0.000000000000D+00
 Symmetry B2G  KE= 0.000000000000D+00
 Symmetry B3G  KE= 0.000000000000D+00
 Symmetry AU   KE= 0.000000000000D+00
 Symmetry B1U  KE= 1.585797417894D-32
 Symmetry B2U  KE= 0.000000000000D+00
 Symmetry B3U  KE= 0.000000000000D+00
  Exact polarizability:   0.000   0.000   0.000   0.000   0.000   6.521
 Approx polarizability:   0.000   0.000   0.000   0.000   0.000   6.209
 No NMR shielding tensors so no spin-rotation constants.
 Leave Link  601 at Fri Aug 07 16:13:45 2015, MaxMem=   33554432 cpu:       0.0
 (Enter C:\software\G09W\l701.exe)
 Compute integral second derivatives.
 ... and contract with generalized density number  0.
 Leave Link  701 at Fri Aug 07 16:13:45 2015, MaxMem=   33554432 cpu:       0.0
 (Enter C:\software\G09W\l702.exe)
 L702 exits ... SP integral derivatives will be done elsewhere.
 Leave Link  702 at Fri Aug 07 16:13:45 2015, MaxMem=   33554432 cpu:       0.0
 (Enter C:\software\G09W\l703.exe)
 Compute integral second derivatives, UseDBF=F ICtDFT=           0.
 Integral derivatives from FoFDir, PRISM(SPDF).
 Calling FoFJK, ICntrl=    100127 FMM=F ISym2X=1 I1Cent= 0 IOpClX= 0 NMat=1 NMatS=1 NMatT=0.
 FoFCou: FMM=F IPFlag=           0 FMFlag=      100000 FMFlg1=         800
         NFxFlg=           0 DoJE=F BraDBF=F KetDBF=F FulRan=T
         Omega=  0.000000  0.000000  1.000000  0.000000  0.000000 ICntrl=  100127 IOpCl=  0
         NMat0=    1 NMatS0=    1 NMatT0=    0 NMatD0=    1 NMtDS0=    0 NMtDT0=    0
         I1Cent=           0 NGrid=           0.
 Petite list used in FoFCou.
 Leave Link  703 at Fri Aug 07 16:13:45 2015, MaxMem=   33554432 cpu:       0.0
 (Enter C:\software\G09W\l716.exe)
 Dipole        =-2.46519033D-32 0.00000000D+00-2.77555756D-17
 Polarizability= 2.33398635D-32 0.00000000D+00 0.00000000D+00
                -3.90134333D-16 0.00000000D+00 6.52123769D+00
 Full mass-weighted force constant matrix:
 Low frequencies --- -895.5129 -895.5129   -0.0002    0.0001    0.0001 4522.9977
 Diagonal vibrational polarizability:
        0.0000000       0.0000000       0.0000000
 Harmonic frequencies (cm**-1), IR intensities (KM/Mole), Raman scattering
 activities (A**4/AMU), depolarization ratios for plane and unpolarized
 incident light, reduced masses (AMU), force constants (mDyne/A),
 and normal coordinates:
                     1
                    SGG
 Frequencies --  4522.9977
 Red. masses --     1.0078
 Frc consts  --    12.1475
 IR Inten    --     0.0000
  Atom  AN      X      Y      Z
     1   1     0.00   0.00   0.71
     2   1     0.00   0.00  -0.71

 -------------------
 - Thermochemistry -
 -------------------
 Temperature   298.150 Kelvin.  Pressure   1.00000 Atm.
 Atom     1 has atomic number  1 and mass   1.00783
 Atom     2 has atomic number  1 and mass   1.00783
 Molecular mass:     2.01565 amu.
 Principal axes and moments of inertia in atomic units:
                           1         2         3
     Eigenvalues --     0.00000   0.97618   0.97618
           X            0.00000   1.00000   0.00000
           Y            0.00000   0.00000   1.00000
           Z            1.00000   0.00000   0.00000
 This molecule is a prolate symmetric top.
 Rotational symmetry number  2.
 Rotational temperature (Kelvin)     88.72731
 Rotational constant (GHZ):        1848.779349
 Zero-point vibrational energy      27053.5 (Joules/Mol)
                                    6.46595 (Kcal/Mol)
 Vibrational temperatures:   6507.58
          (Kelvin)
 
 Zero-point correction=                           0.010304 (Hartree/Particle)
 Thermal correction to Energy=                    0.012665
 Thermal correction to Enthalpy=                  0.013609
 Thermal correction to Gibbs Free Energy=        -0.001167
 Sum of electronic and zero-point Energies=             -1.153261
 Sum of electronic and thermal Energies=                -1.150901
 Sum of electronic and thermal Enthalpies=              -1.149957
 Sum of electronic and thermal Free Energies=           -1.164733
 
                     E (Thermal)             CV                S
                      KCal/Mol        Cal/Mol-Kelvin    Cal/Mol-Kelvin
 Total                    7.947              4.968             31.099
 Electronic               0.000              0.000              0.000
 Translational            0.889              2.981             28.080
 Rotational               0.592              1.987              3.018
 Vibrational              6.466              0.000              0.000
                       Q            Log10(Q)             Ln(Q)
 Total Bot       0.344237D+01          0.536857          1.236159
 Total V=0       0.188984D+06          5.276425         12.149419
 Vib (Bot)       0.182151D-04         -4.739568        -10.913260
 Vib (V=0)       0.100000D+01          0.000000          0.000000
 Electronic      0.100000D+01          0.000000          0.000000
 Translational   0.112481D+06          5.051078         11.630537
 Rotational      0.168015D+01          0.225348          0.518882
 ***** Axes restored to original set *****
 -------------------------------------------------------------------
 Center     Atomic                   Forces (Hartrees/Bohr)
 Number     Number              X              Y              Z
 -------------------------------------------------------------------
      1        1           0.000000139    0.000000000    0.000000000
      2        1          -0.000000139    0.000000000    0.000000000
 -------------------------------------------------------------------
 Cartesian Forces:  Max     0.000000139 RMS     0.000000080
 Force constants in Cartesian coordinates: 
                1             2             3             4             5 
      1  0.390121D+00
      2  0.000000D+00 -0.152929D-01
      3  0.000000D+00  0.000000D+00 -0.152929D-01
      4 -0.390121D+00  0.000000D+00  0.000000D+00  0.390121D+00
      5  0.000000D+00  0.152929D-01  0.000000D+00  0.000000D+00 -0.152929D-01
      6  0.000000D+00  0.000000D+00  0.152929D-01  0.000000D+00  0.000000D+00
                6 
      6 -0.152929D-01
 Force constants in internal coordinates: 
                1 
      1  0.390121D+00
 Leave Link  716 at Fri Aug 07 16:13:45 2015, MaxMem=   33554432 cpu:       0.0
 (Enter C:\software\G09W\l103.exe)

 GradGradGradGradGradGradGradGradGradGradGradGradGradGradGradGradGradGrad
 Berny optimization.
 Internal  Forces:  Max     0.000000139 RMS     0.000000139
 Search for a local minimum.
 Step number   1 out of a maximum of    2
 All quantities printed in internal units (Hartrees-Bohrs-Radians)
 Second derivative matrix not updated -- analytic derivatives used.
 The second derivative matrix:
                          R1
           R1           0.39012
     Eigenvalues ---    0.39012
 Angle between quadratic step and forces=  90.00 degrees.
 Linear search not attempted -- first point.
 Iteration  1 RMS(Cart)=  0.00000025 RMS(Int)=  0.00000000
 ClnCor:  largest displacement from symmetrization is 0.00D+00 for atom     0.
 Variable       Old X    -DE/DX   Delta X   Delta X   Delta X     New X
                                 (Linear)    (Quad)   (Total)
    R1        1.39183   0.00000   0.00000   0.00000   0.00000   1.39183
         Item               Value     Threshold  Converged?
 Maximum Force            0.000000     0.000450     YES
 RMS     Force            0.000000     0.000300     YES
 Maximum Displacement     0.000000     0.001800     YES
 RMS     Displacement     0.000000     0.001200     YES
 Predicted change in Energy=-2.461968D-14
 Optimization completed.
    -- Stationary point found.
                           ----------------------------
                           !   Optimized Parameters   !
                           ! (Angstroms and Degrees)  !
 --------------------------                            --------------------------
 ! Name  Definition              Value          Derivative Info.                !
 --------------------------------------------------------------------------------
 ! R1    R(1,2)                  0.7365         -DE/DX =    0.0                 !
 --------------------------------------------------------------------------------
 GradGradGradGradGradGradGradGradGradGradGradGradGradGradGradGradGradGrad

 Leave Link  103 at Fri Aug 07 16:13:45 2015, MaxMem=   33554432 cpu:       0.0
 (Enter C:\software\G09W\l9999.exe)
 1|1|UNPC-CCE1|Freq|RM062X|6-31G(d)|H2|CCE|07-Aug-2015|0||#P Geom=AllCh
 eck Guess=TCheck SCRF=Check GenChk RM062X/6-31G(d) Freq||Title Card Re
 quired||0,1|H,-3.8326300599,-1.41943732,-0.05891992|H,-4.5691567401,-1
 .41943732,-0.05891992||Version=IA32W-G09RevA.02|State=1-SGG|HF=-1.1635
 655|RMSD=8.366e-016|RMSF=8.002e-008|ZeroPoint=0.0103041|Thermal=0.0126
 646|Dipole=0.,0.,0.|DipoleDeriv=0.,0.,0.,0.,0.,0.,0.,0.,0.,0.,0.,0.,0.
 ,0.,0.,0.,0.,0.|Polar=6.5212377,0.,0.,0.,0.,0.|PG=D*H [C*(H1.H1)]|NIma
 g=0||0.39012100,0.,-0.01529291,0.,0.,-0.01529291,-0.39012100,0.,0.,0.3
 9012100,0.,0.01529291,0.,0.,-0.01529291,0.,0.,0.01529291,0.,0.,-0.0152
 9291||-0.00000014,0.,0.,0.00000014,0.,0.|||@


 One man practicing sportsmanship is far better than 50 preaching it.
 -- Knute K. Rockne
 Job cpu time:  0 days  0 hours  0 minutes  2.0 seconds.
 File lengths (MBytes):  RWF=      5 Int=      0 D2E=      0 Chk=      1 Scr=      1
 Normal termination of Gaussian 09 at Fri Aug 07 16:13:46 2015.
