 Entering Gaussian System, Link 0=/share/apps/g09/g09
 Input=QOOH_1_1_opt_631gd.gjf
 Output=QOOH_1_1_opt_631gd.log
 Initial command:
 /share/apps/g09/l1.exe /state/partition1/Gau-22519.inp -scrdir=/state/partition1/
 Entering Link 1 = /share/apps/g09/l1.exe PID=     22520.
  
 Copyright (c) 1988,1990,1992,1993,1995,1998,2003,2009, Gaussian, Inc.
                  All Rights Reserved.
  
 This is part of the Gaussian(R) 09 program.  It is based on
 the Gaussian(R) 03 system (copyright 2003, Gaussian, Inc.),
 the Gaussian(R) 98 system (copyright 1998, Gaussian, Inc.),
 the Gaussian(R) 94 system (copyright 1995, Gaussian, Inc.),
 the Gaussian 92(TM) system (copyright 1992, Gaussian, Inc.),
 the Gaussian 90(TM) system (copyright 1990, Gaussian, Inc.),
 the Gaussian 88(TM) system (copyright 1988, Gaussian, Inc.),
 the Gaussian 86(TM) system (copyright 1986, Carnegie Mellon
 University), and the Gaussian 82(TM) system (copyright 1983,
 Carnegie Mellon University). Gaussian is a federally registered
 trademark of Gaussian, Inc.
  
 This software contains proprietary and confidential information,
 including trade secrets, belonging to Gaussian, Inc.
  
 This software is provided under written license and may be
 used, copied, transmitted, or stored only in accord with that
 written license.
  
 The following legend is applicable only to US Government
 contracts under FAR:
  
                    RESTRICTED RIGHTS LEGEND
  
 Use, reproduction and disclosure by the US Government is
 subject to restrictions as set forth in subparagraphs (a)
 and (c) of the Commercial Computer Software - Restricted
 Rights clause in FAR 52.227-19.
  
 Gaussian, Inc.
 340 Quinnipiac St., Bldg. 40, Wallingford CT 06492
  
  
 ---------------------------------------------------------------
 Warning -- This program may not be used in any manner that
 competes with the business of Gaussian, Inc. or will provide
 assistance to any competitor of Gaussian, Inc.  The licensee
 of this program is prohibited from giving any competitor of
 Gaussian, Inc. access to this program.  By using this program,
 the user acknowledges that Gaussian, Inc. is engaged in the
 business of creating and licensing software in the field of
 computational chemistry and represents and warrants to the
 licensee that it is not a competitor of Gaussian, Inc. and that
 it will not use this program in any manner prohibited above.
 ---------------------------------------------------------------
  

 Cite this work as:
 Gaussian 09, Revision A.01,
 M. J. Frisch, G. W. Trucks, H. B. Schlegel, G. E. Scuseria, 
 M. A. Robb, J. R. Cheeseman, G. Scalmani, V. Barone, B. Mennucci, 
 G. A. Petersson, H. Nakatsuji, M. Caricato, X. Li, H. P. Hratchian, 
 A. F. Izmaylov, J. Bloino, G. Zheng, J. L. Sonnenberg, M. Hada, 
 M. Ehara, K. Toyota, R. Fukuda, J. Hasegawa, M. Ishida, T. Nakajima, 
 Y. Honda, O. Kitao, H. Nakai, T. Vreven, J. A. Montgomery, Jr., 
 J. E. Peralta, F. Ogliaro, M. Bearpark, J. J. Heyd, E. Brothers, 
 K. N. Kudin, V. N. Staroverov, R. Kobayashi, J. Normand, 
 K. Raghavachari, A. Rendell, J. C. Burant, S. S. Iyengar, J. Tomasi, 
 M. Cossi, N. Rega, J. M. Millam, M. Klene, J. E. Knox, J. B. Cross, 
 V. Bakken, C. Adamo, J. Jaramillo, R. Gomperts, R. E. Stratmann, 
 O. Yazyev, A. J. Austin, R. Cammi, C. Pomelli, J. W. Ochterski, 
 R. L. Martin, K. Morokuma, V. G. Zakrzewski, G. A. Voth, 
 P. Salvador, J. J. Dannenberg, S. Dapprich, A. D. Daniels, 
 O. Farkas, J. B. Foresman, J. V. Ortiz, J. Cioslowski, 
 and D. J. Fox, Gaussian, Inc., Wallingford CT, 2009.
 
 ******************************************
 Gaussian 09:  EM64L-G09RevA.01  8-May-2009
                 6-Jun-2015 
 ******************************************
 %mem=28GB
 %nprocshared=12
 Will use up to   12 processors via shared memory.
 %chk=QOOH_1_1_opt_631gd.chk
 ------------------------
 #p ub3lyp/cbsb7 opt freq
 ------------------------
 1/14=-1,18=20,19=15,26=3,38=1/1,3;
 2/9=110,12=2,17=6,18=5,40=1/2;
 3/5=4,6=6,7=700,11=2,16=1,25=1,30=1,71=1,74=-5,116=2/1,2,3;
 4//1;
 5/5=2,38=5/2;
 6/7=2,8=2,9=2,10=2,28=1/1;
 7//1,2,3,16;
 1/14=-1,18=20,19=15/3(2);
 2/9=110/2;
 99//99;
 2/9=110/2;
 3/5=4,6=6,7=700,11=2,16=1,25=1,30=1,71=1,74=-5,116=2/1,2,3;
 4/5=5,16=3/1;
 5/5=2,38=5/2;
 7//1,2,3,16;
 1/14=-1,18=20,19=15/3(-5);
 2/9=110/2;
 6/7=2,8=2,9=2,10=2,19=2,28=1/1;
 99/9=1/99;
 Leave Link    1 at Sat Jun  6 17:49:58 2015, MaxMem= 3758096384 cpu:       0.5
 (Enter /share/apps/g09/l101.exe)
 -----------------------------
 using ub3lyp/6-31G(d) to scan
 -----------------------------
 Symbolic Z-matrix:
 Charge =  0 Multiplicity = 2
 O                     0.00047   0.00232   0.00264 
 H                     0.00319   0.00193   0.96979 
 O                     1.43807  -0.00185  -0.25246 
 C                     1.71754   1.0973   -1.11345 
 H                     2.81157   1.11741  -1.13316 
 H                     1.35737   2.02637  -0.65577 
 C                     1.14826   0.92241  -2.52566 
 H                     1.54655   0.00131  -2.96172 
 H                     0.06196   0.77174  -2.42564 
 C                     1.43263   2.09268  -3.40104 
 H                     1.3105    3.10393  -3.02866 
 H                     1.64971   1.96772  -4.45376 
 
 NAtoms=     12 NQM=     12 NQMF=      0 NMic=      0 NMicF=      0 NTot=     12.
                    Isotopes and Nuclear Properties:
 (Nuclear quadrupole moments (NQMom) in fm**2, nuclear magnetic moments (NMagM)
  in nuclear magnetons)

  Atom         1           2           3           4           5           6           7           8           9          10
 IAtWgt=          16           1          16          12           1           1          12           1           1          12
 AtmWgt=  15.9949146   1.0078250  15.9949146  12.0000000   1.0078250   1.0078250  12.0000000   1.0078250   1.0078250  12.0000000
 NucSpn=           0           1           0           0           1           1           0           1           1           0
 AtZEff=   0.0000000   0.0000000   0.0000000   0.0000000   0.0000000   0.0000000   0.0000000   0.0000000   0.0000000   0.0000000
 NQMom=    0.0000000   0.0000000   0.0000000   0.0000000   0.0000000   0.0000000   0.0000000   0.0000000   0.0000000   0.0000000
 NMagM=    0.0000000   2.7928460   0.0000000   0.0000000   2.7928460   2.7928460   0.0000000   2.7928460   2.7928460   0.0000000

  Atom        11          12
 IAtWgt=           1           1
 AtmWgt=   1.0078250   1.0078250
 NucSpn=           1           1
 AtZEff=   0.0000000   0.0000000
 NQMom=    0.0000000   0.0000000
 NMagM=    2.7928460   2.7928460
 Leave Link  101 at Sat Jun  6 17:49:58 2015, MaxMem= 3758096384 cpu:       0.6
 (Enter /share/apps/g09/l103.exe)

 GradGradGradGradGradGradGradGradGradGradGradGradGradGradGradGradGradGrad
 Berny optimization.
 Initialization pass.
                           ----------------------------
                           !    Initial Parameters    !
                           ! (Angstroms and Degrees)  !
 --------------------------                            --------------------------
 ! Name  Definition              Value          Derivative Info.                !
 --------------------------------------------------------------------------------
 ! R1    R(1,2)                  0.9672         estimate D2E/DX2                !
 ! R2    R(1,3)                  1.4601         estimate D2E/DX2                !
 ! R3    R(3,4)                  1.4239         estimate D2E/DX2                !
 ! R4    R(4,5)                  1.0944         estimate D2E/DX2                !
 ! R5    R(4,6)                  1.0965         estimate D2E/DX2                !
 ! R6    R(4,7)                  1.5326         estimate D2E/DX2                !
 ! R7    R(7,8)                  1.0942         estimate D2E/DX2                !
 ! R8    R(7,9)                  1.1013         estimate D2E/DX2                !
 ! R9    R(7,10)                 1.4889         estimate D2E/DX2                !
 ! R10   R(10,11)                1.0845         estimate D2E/DX2                !
 ! R11   R(10,12)                1.0821         estimate D2E/DX2                !
 ! A1    A(2,1,3)               99.901          estimate D2E/DX2                !
 ! A2    A(1,3,4)              107.2584         estimate D2E/DX2                !
 ! A3    A(3,4,5)              102.7843         estimate D2E/DX2                !
 ! A4    A(3,4,6)              109.7057         estimate D2E/DX2                !
 ! A5    A(3,4,7)              113.3387         estimate D2E/DX2                !
 ! A6    A(5,4,6)              108.6814         estimate D2E/DX2                !
 ! A7    A(5,4,7)              110.9048         estimate D2E/DX2                !
 ! A8    A(6,4,7)              111.0552         estimate D2E/DX2                !
 ! A9    A(4,7,8)              109.1515         estimate D2E/DX2                !
 ! A10   A(4,7,9)              107.3568         estimate D2E/DX2                !
 ! A11   A(4,7,10)             112.4027         estimate D2E/DX2                !
 ! A12   A(8,7,9)              106.2655         estimate D2E/DX2                !
 ! A13   A(8,7,10)             110.9678         estimate D2E/DX2                !
 ! A14   A(9,7,10)             110.4476         estimate D2E/DX2                !
 ! A15   A(7,10,11)            120.6321         estimate D2E/DX2                !
 ! A16   A(7,10,12)            121.3009         estimate D2E/DX2                !
 ! A17   A(11,10,12)           117.6648         estimate D2E/DX2                !
 ! D1    D(2,1,3,4)           -126.0336         estimate D2E/DX2                !
 ! D2    D(1,3,4,5)            171.7794         estimate D2E/DX2                !
 ! D3    D(1,3,4,6)             56.3024         estimate D2E/DX2                !
 ! D4    D(1,3,4,7)            -68.4589         estimate D2E/DX2                !
 ! D5    D(3,4,7,8)            -57.3955         estimate D2E/DX2                !
 ! D6    D(3,4,7,9)             57.388          estimate D2E/DX2                !
 ! D7    D(3,4,7,10)           179.0387         estimate D2E/DX2                !
 ! D8    D(5,4,7,8)             57.6149         estimate D2E/DX2                !
 ! D9    D(5,4,7,9)            172.3984         estimate D2E/DX2                !
 ! D10   D(5,4,7,10)           -65.9508         estimate D2E/DX2                !
 ! D11   D(6,4,7,8)            178.5755         estimate D2E/DX2                !
 ! D12   D(6,4,7,9)            -66.641          estimate D2E/DX2                !
 ! D13   D(6,4,7,10)            55.0097         estimate D2E/DX2                !
 ! D14   D(4,7,10,11)          -43.7002         estimate D2E/DX2                !
 ! D15   D(4,7,10,12)          143.749          estimate D2E/DX2                !
 ! D16   D(8,7,10,11)         -166.2469         estimate D2E/DX2                !
 ! D17   D(8,7,10,12)           21.2024         estimate D2E/DX2                !
 ! D18   D(9,7,10,11)           76.1721         estimate D2E/DX2                !
 ! D19   D(9,7,10,12)          -96.3786         estimate D2E/DX2                !
 --------------------------------------------------------------------------------
 Trust Radius=3.00D-01 FncErr=1.00D-07 GrdErr=1.00D-06
 Number of steps in this run=  57 maximum allowed number of steps= 100.
 GradGradGradGradGradGradGradGradGradGradGradGradGradGradGradGradGradGrad

 Leave Link  103 at Sat Jun  6 17:49:58 2015, MaxMem= 3758096384 cpu:       0.1
 (Enter /share/apps/g09/l202.exe)
                          Input orientation:                          
 ---------------------------------------------------------------------
 Center     Atomic      Atomic             Coordinates (Angstroms)
 Number     Number       Type             X           Y           Z
 ---------------------------------------------------------------------
      1          8           0        0.000474    0.002322    0.002640
      2          1           0        0.003191    0.001934    0.969788
      3          8           0        1.438074   -0.001854   -0.252455
      4          6           0        1.717540    1.097297   -1.113449
      5          1           0        2.811568    1.117412   -1.133163
      6          1           0        1.357365    2.026368   -0.655771
      7          6           0        1.148256    0.922408   -2.525655
      8          1           0        1.546548    0.001310   -2.961719
      9          1           0        0.061957    0.771735   -2.425635
     10          6           0        1.432630    2.092685   -3.401039
     11          1           0        1.310498    3.103930   -3.028662
     12          1           0        1.649714    1.967723   -4.453755
 ---------------------------------------------------------------------
                    Distance matrix (angstroms):
                    1          2          3          4          5
     1  O    0.000000
     2  H    0.967152   0.000000
     3  O    1.460063   1.884882   0.000000
     4  C    2.322271   2.911819   1.423919   0.000000
     5  H    3.230437   3.681532   1.978608   1.094390   0.000000
     6  H    2.524167   2.928235   2.069508   1.096525   1.780115
     7  C    2.925105   3.791644   2.470970   1.532644   2.177996
     8  H    3.343317   4.223588   2.711437   2.155581   2.487886
     9  H    2.547998   3.482089   2.686047   2.137470   3.057832
    10  C    4.243315   5.051600   3.781627   2.510984   2.827700
    11  H    4.530444   5.226761   4.167673   2.803623   3.129278
    12  H    5.142203   5.999182   4.644884   3.452519   3.619291
                    6          7          8          9         10
     6  H    0.000000
     7  C    2.181495   0.000000
     8  H    3.074743   1.094171   0.000000
     9  H    2.526777   1.101250   1.756403   0.000000
    10  C    2.747100   1.488863   2.140053   2.138940   0.000000
    11  H    2.606520   2.244633   3.112307   2.713232   1.084526
    12  H    3.809671   2.249825   2.470545   2.839829   1.082105
                   11         12
    11  H    0.000000
    12  H    1.853894   0.000000
 Stoichiometry    C3H7O2(2)
 Framework group  C1[X(C3H7O2)]
 Deg. of freedom    30
 Full point group                 C1      NOp   1
 Largest Abelian subgroup         C1      NOp   1
 Largest concise Abelian subgroup C1      NOp   1
                         Standard orientation:                         
 ---------------------------------------------------------------------
 Center     Atomic      Atomic             Coordinates (Angstroms)
 Number     Number       Type             X           Y           Z
 ---------------------------------------------------------------------
      1          8           0        1.841268   -0.715446    0.178892
      2          1           0        2.665889   -0.403498    0.576474
      3          8           0        1.310637    0.548745   -0.323141
      4          6           0       -0.005617    0.692205    0.200731
      5          1           0       -0.271677    1.713406   -0.089184
      6          1           0        0.023735    0.634207    1.295328
      7          6           0       -1.002746   -0.317848   -0.377648
      8          1           0       -1.025787   -0.216095   -1.466834
      9          1           0       -0.608043   -1.324789   -0.170208
     10          6           0       -2.366034   -0.164222    0.200762
     11          1           0       -2.500525   -0.014816    1.266496
     12          1           0       -3.252447   -0.315620   -0.401154
 ---------------------------------------------------------------------
 Rotational constants (GHZ):     13.8154910      2.5648641      2.3829740
 Leave Link  202 at Sat Jun  6 17:49:58 2015, MaxMem= 3758096384 cpu:       0.5
 (Enter /share/apps/g09/l301.exe)
 Standard basis: 6-311G(2d,d,p) (5D, 7F)
 Ernie: Thresh=  0.10000D-02 Tol=  0.10000D-05 Strict=F.
 There are   132 symmetry adapted basis functions of A   symmetry.
 Integral buffers will be    131072 words long.
 Raffenetti 2 integral format.
 Two-electron integral symmetry is turned on.
   132 basis functions,   216 primitive gaussians,   137 cartesian basis functions
    21 alpha electrons       20 beta electrons
       nuclear repulsion energy       179.8571847150 Hartrees.
 IExCor=  402 DFT=T Ex+Corr=B3LYP ExCW=0 ScaHFX=  0.200000
 ScaDFX=  0.800000  0.720000  1.000000  0.810000 ScalE2=  1.000000  1.000000
 IRadAn=      0 IRanWt=     -1 IRanGd=            0 ICorTp=0
 NAtoms=   12 NActive=   12 NUniq=   12 SFac= 7.50D-01 NAtFMM=   80 NAOKFM=F Big=F
 Leave Link  301 at Sat Jun  6 17:49:59 2015, MaxMem= 3758096384 cpu:       0.4
 (Enter /share/apps/g09/l302.exe)
 NPDir=0 NMtPBC=     1 NCelOv=     1 NCel=       1 NClECP=     1 NCelD=      1
         NCelK=      1 NCelE2=     1 NClLst=     1 CellRange=     0.0.
 One-electron integrals computed using PRISM.
 NBasis=   132 RedAO= T  NBF=   132
 NBsUse=   132 1.00D-06 NBFU=   132
 Precomputing XC quadrature grid using
 IXCGrd= 2 IRadAn=           0 IRanWt=          -1 IRanGd=           0 AccXCQ= 1.00D-10.
 NRdTot=     757 NPtTot=       96384 NUsed=      101852 NTot=      101884
 NSgBfM=   137   137   137   137   137 NAtAll=    12    12.
 Leave Link  302 at Sat Jun  6 17:49:59 2015, MaxMem= 3758096384 cpu:       3.5
 (Enter /share/apps/g09/l303.exe)
 DipDrv:  MaxL=1.
 Leave Link  303 at Sat Jun  6 17:49:59 2015, MaxMem= 3758096384 cpu:       1.5
 (Enter /share/apps/g09/l401.exe)
 Harris functional with IExCor=  402 diagonalized for initial guess.
 ExpMin= 1.03D-01 ExpMax= 8.59D+03 ExpMxC= 1.30D+03 IAcc=1 IRadAn=         1 AccDes= 0.00D+00
 HarFok:  IExCor=  402 AccDes= 0.00D+00 IRadAn=         1 IDoV= 1
 ScaDFX=  1.000000  1.000000  1.000000  1.000000
 FoFCou: FMM=F IPFlag=           0 FMFlag=      100000 FMFlg1=           0
         NFxFlg=           0 DoJE=T BraDBF=F KetDBF=T FulRan=T
         Omega=  0.000000  0.000000  1.000000  0.000000  0.000000 ICntrl=     500 IOpCl=  0
         NMat0=    1 NMatS0=    1 NMatT0=    0 NMatD0=    1 NMtDS0=    0 NMtDT0=    0
         I1Cent=           4 NGrid=           0.
 Petite list used in FoFCou.
 Harris En= -268.920034293886    
 Initial guess orbital symmetries:
 Alpha Orbitals:
       Occupied  (A) (A) (A) (A) (A) (A) (A) (A) (A) (A) (A) (A)
                 (A) (A) (A) (A) (A) (A) (A) (A) (A)
       Virtual   (A) (A) (A) (A) (A) (A) (A) (A) (A) (A) (A) (A)
                 (A) (A) (A) (A) (A) (A) (A) (A) (A) (A) (A) (A)
                 (A) (A) (A) (A) (A) (A) (A) (A) (A) (A) (A) (A)
                 (A) (A) (A) (A) (A) (A) (A) (A) (A) (A) (A) (A)
                 (A) (A) (A) (A) (A) (A) (A) (A) (A) (A) (A) (A)
                 (A) (A) (A) (A) (A) (A) (A) (A) (A) (A) (A) (A)
                 (A) (A) (A) (A) (A) (A) (A) (A) (A) (A) (A) (A)
                 (A) (A) (A) (A) (A) (A) (A) (A) (A) (A) (A) (A)
                 (A) (A) (A) (A) (A) (A) (A) (A) (A) (A) (A) (A)
                 (A) (A) (A)
 Beta  Orbitals:
       Occupied  (A) (A) (A) (A) (A) (A) (A) (A) (A) (A) (A) (A)
                 (A) (A) (A) (A) (A) (A) (A) (A)
       Virtual   (A) (A) (A) (A) (A) (A) (A) (A) (A) (A) (A) (A)
                 (A) (A) (A) (A) (A) (A) (A) (A) (A) (A) (A) (A)
                 (A) (A) (A) (A) (A) (A) (A) (A) (A) (A) (A) (A)
                 (A) (A) (A) (A) (A) (A) (A) (A) (A) (A) (A) (A)
                 (A) (A) (A) (A) (A) (A) (A) (A) (A) (A) (A) (A)
                 (A) (A) (A) (A) (A) (A) (A) (A) (A) (A) (A) (A)
                 (A) (A) (A) (A) (A) (A) (A) (A) (A) (A) (A) (A)
                 (A) (A) (A) (A) (A) (A) (A) (A) (A) (A) (A) (A)
                 (A) (A) (A) (A) (A) (A) (A) (A) (A) (A) (A) (A)
                 (A) (A) (A) (A)
 The electronic state of the initial guess is 2-A.
 Initial guess <Sx>= 0.0000 <Sy>= 0.0000 <Sz>= 0.5000 <S**2>= 0.7500 S= 0.5000
 Leave Link  401 at Sat Jun  6 17:50:00 2015, MaxMem= 3758096384 cpu:       5.5
 (Enter /share/apps/g09/l502.exe)
 UHF open shell SCF:
 Requested convergence on RMS density matrix=1.00D-08 within 128 cycles.
 Requested convergence on MAX density matrix=1.00D-06.
 Requested convergence on             energy=1.00D-06.
 No special actions if energy rises.
 Using DIIS extrapolation, IDIIS=  1040.
 Integral symmetry usage will be decided dynamically.
       101731 words used for storage of precomputed grid.
 Keep R1 and R2 ints in memory in canonical form, NReq=90861509.
 IEnd=      178859 IEndB=      178859 NGot=  3758096384 MDV=  3668584382
 LenX=  3668584382 LenY=  3668565172
 Symmetry not used in FoFDir.
 MinBra= 0 MaxBra= 2 Meth= 1.
 IRaf=       0 NMat=   1 IRICut=       1 DoRegI=T DoRafI=F ISym2E= 0 JSym2E=0.
 Integral accuracy reduced to 1.0D-05 until final iterations.

 Cycle   1  Pass 0  IDiag  1:
 E= -268.762068674996    
 DIIS: error= 3.24D-02 at cycle   1 NSaved=   1.
 NSaved= 1 IEnMin= 1 EnMin= -268.762068674996     IErMin= 1 ErrMin= 3.24D-02
 ErrMax= 3.24D-02 EMaxC= 1.00D-01 BMatC= 5.71D-01 BMatP= 5.71D-01
 IDIUse=3 WtCom= 6.76D-01 WtEn= 3.24D-01
 Coeff-Com:  0.100D+01
 Coeff-En:   0.100D+01
 Coeff:      0.100D+01
 Gap=     0.156 Goal=   None    Shift=    0.000
 Gap=     0.278 Goal=   None    Shift=    0.000
 GapD=    0.156 DampG=1.000 DampE=0.500 DampFc=0.5000 IDamp=-1.
 Damping current iteration by 5.00D-01
 RMSDP=4.31D-03 MaxDP=1.78D-01              OVMax= 1.59D-01

 Cycle   2  Pass 0  IDiag  1:
 E= -268.819277168364     Delta-E=       -0.057208493368 Rises=F Damp=T
 DIIS: error= 5.89D-03 at cycle   2 NSaved=   2.
 NSaved= 2 IEnMin= 2 EnMin= -268.819277168364     IErMin= 2 ErrMin= 5.89D-03
 ErrMax= 5.89D-03 EMaxC= 1.00D-01 BMatC= 3.91D-02 BMatP= 5.71D-01
 IDIUse=3 WtCom= 9.41D-01 WtEn= 5.89D-02
 Coeff-Com:  0.484D-01 0.952D+00
 Coeff-En:   0.106D+00 0.894D+00
 Coeff:      0.518D-01 0.948D+00
 Gap=     0.222 Goal=   None    Shift=    0.000
 Gap=     0.237 Goal=   None    Shift=    0.000
 RMSDP=9.80D-04 MaxDP=1.95D-02 DE=-5.72D-02 OVMax= 9.10D-02

 Cycle   3  Pass 0  IDiag  1:
 E= -268.885237875204     Delta-E=       -0.065960706840 Rises=F Damp=F
 DIIS: error= 7.97D-03 at cycle   3 NSaved=   3.
 NSaved= 3 IEnMin= 3 EnMin= -268.885237875204     IErMin= 2 ErrMin= 5.89D-03
 ErrMax= 7.97D-03 EMaxC= 1.00D-01 BMatC= 3.99D-02 BMatP= 3.91D-02
 IDIUse=3 WtCom= 9.20D-01 WtEn= 7.97D-02
 Coeff-Com: -0.297D-01 0.513D+00 0.517D+00
 Coeff-En:   0.000D+00 0.000D+00 0.100D+01
 Coeff:     -0.273D-01 0.472D+00 0.556D+00
 Gap=     0.218 Goal=   None    Shift=    0.000
 Gap=     0.209 Goal=   None    Shift=    0.000
 RMSDP=6.27D-04 MaxDP=1.54D-02 DE=-6.60D-02 OVMax= 2.78D-02

 Cycle   4  Pass 0  IDiag  1:
 E= -268.889540700512     Delta-E=       -0.004302825308 Rises=F Damp=F
 DIIS: error= 4.81D-03 at cycle   4 NSaved=   4.
 NSaved= 4 IEnMin= 4 EnMin= -268.889540700512     IErMin= 4 ErrMin= 4.81D-03
 ErrMax= 4.81D-03 EMaxC= 1.00D-01 BMatC= 1.48D-02 BMatP= 3.91D-02
 IDIUse=3 WtCom= 9.52D-01 WtEn= 4.81D-02
 Coeff-Com: -0.246D-01 0.145D+00 0.390D+00 0.490D+00
 Coeff-En:   0.000D+00 0.000D+00 0.307D+00 0.693D+00
 Coeff:     -0.234D-01 0.138D+00 0.386D+00 0.500D+00
 Gap=     0.218 Goal=   None    Shift=    0.000
 Gap=     0.205 Goal=   None    Shift=    0.000
 RMSDP=2.74D-04 MaxDP=5.78D-03 DE=-4.30D-03 OVMax= 1.09D-02

 Cycle   5  Pass 0  IDiag  1:
 E= -268.892113406366     Delta-E=       -0.002572705854 Rises=F Damp=F
 DIIS: error= 5.02D-04 at cycle   5 NSaved=   5.
 NSaved= 5 IEnMin= 5 EnMin= -268.892113406366     IErMin= 5 ErrMin= 5.02D-04
 ErrMax= 5.02D-04 EMaxC= 1.00D-01 BMatC= 2.06D-04 BMatP= 1.48D-02
 IDIUse=3 WtCom= 9.95D-01 WtEn= 5.02D-03
 Coeff-Com: -0.613D-02 0.945D-02 0.960D-01 0.181D+00 0.720D+00
 Coeff-En:   0.000D+00 0.000D+00 0.000D+00 0.000D+00 0.100D+01
 Coeff:     -0.610D-02 0.941D-02 0.955D-01 0.180D+00 0.721D+00
 Gap=     0.220 Goal=   None    Shift=    0.000
 Gap=     0.204 Goal=   None    Shift=    0.000
 RMSDP=4.74D-05 MaxDP=1.42D-03 DE=-2.57D-03 OVMax= 1.83D-03

 Cycle   6  Pass 0  IDiag  1:
 E= -268.892153372395     Delta-E=       -0.000039966029 Rises=F Damp=F
 DIIS: error= 1.81D-04 at cycle   6 NSaved=   6.
 NSaved= 6 IEnMin= 6 EnMin= -268.892153372395     IErMin= 6 ErrMin= 1.81D-04
 ErrMax= 1.81D-04 EMaxC= 1.00D-01 BMatC= 3.42D-05 BMatP= 2.06D-04
 IDIUse=3 WtCom= 9.98D-01 WtEn= 1.81D-03
 Coeff-Com: -0.101D-02-0.639D-02 0.170D-01 0.510D-01 0.353D+00 0.587D+00
 Coeff-En:   0.000D+00 0.000D+00 0.000D+00 0.000D+00 0.000D+00 0.100D+01
 Coeff:     -0.101D-02-0.638D-02 0.170D-01 0.509D-01 0.352D+00 0.587D+00
 Gap=     0.219 Goal=   None    Shift=    0.000
 Gap=     0.204 Goal=   None    Shift=    0.000
 RMSDP=1.80D-05 MaxDP=5.29D-04 DE=-4.00D-05 OVMax= 6.41D-04

 Cycle   7  Pass 0  IDiag  1:
 E= -268.892160921136     Delta-E=       -0.000007548741 Rises=F Damp=F
 DIIS: error= 4.99D-05 at cycle   7 NSaved=   7.
 NSaved= 7 IEnMin= 7 EnMin= -268.892160921136     IErMin= 7 ErrMin= 4.99D-05
 ErrMax= 4.99D-05 EMaxC= 1.00D-01 BMatC= 2.37D-06 BMatP= 3.42D-05
 IDIUse=1 WtCom= 1.00D+00 WtEn= 0.00D+00
 Coeff-Com:  0.861D-03-0.341D-02-0.141D-01-0.220D-01-0.568D-01 0.133D+00
 Coeff-Com:  0.963D+00
 Coeff:      0.861D-03-0.341D-02-0.141D-01-0.220D-01-0.568D-01 0.133D+00
 Coeff:      0.963D+00
 Gap=     0.220 Goal=   None    Shift=    0.000
 Gap=     0.204 Goal=   None    Shift=    0.000
 RMSDP=7.87D-06 MaxDP=2.84D-04 DE=-7.55D-06 OVMax= 2.95D-04

 Initial convergence to 1.0D-05 achieved.  Increase integral accuracy.
 Cycle   8  Pass 1  IDiag  1:
 E= -268.892176594774     Delta-E=       -0.000015673639 Rises=F Damp=F
 DIIS: error= 3.01D-05 at cycle   1 NSaved=   1.
 NSaved= 1 IEnMin= 1 EnMin= -268.892176594774     IErMin= 1 ErrMin= 3.01D-05
 ErrMax= 3.01D-05 EMaxC= 1.00D-01 BMatC= 6.00D-07 BMatP= 6.00D-07
 IDIUse=1 WtCom= 1.00D+00 WtEn= 0.00D+00
 Coeff-Com:  0.100D+01
 Coeff:      0.100D+01
 Gap=     0.220 Goal=   None    Shift=    0.000
 Gap=     0.204 Goal=   None    Shift=    0.000
 RMSDP=7.87D-06 MaxDP=2.84D-04 DE=-1.57D-05 OVMax= 1.52D-04

 Cycle   9  Pass 1  IDiag  1:
 E= -268.892176587696     Delta-E=        0.000000007078 Rises=F Damp=F
 DIIS: error= 3.37D-05 at cycle   2 NSaved=   2.
 NSaved= 2 IEnMin= 1 EnMin= -268.892176594774     IErMin= 1 ErrMin= 3.01D-05
 ErrMax= 3.37D-05 EMaxC= 1.00D-01 BMatC= 8.34D-07 BMatP= 6.00D-07
 IDIUse=1 WtCom= 1.00D+00 WtEn= 0.00D+00
 Coeff-Com:  0.545D+00 0.455D+00
 Coeff:      0.545D+00 0.455D+00
 Gap=     0.220 Goal=   None    Shift=    0.000
 Gap=     0.204 Goal=   None    Shift=    0.000
 RMSDP=2.42D-06 MaxDP=7.26D-05 DE= 7.08D-09 OVMax= 8.09D-05

 Cycle  10  Pass 1  IDiag  1:
 E= -268.892176756038     Delta-E=       -0.000000168341 Rises=F Damp=F
 DIIS: error= 4.59D-06 at cycle   3 NSaved=   3.
 NSaved= 3 IEnMin= 3 EnMin= -268.892176756038     IErMin= 3 ErrMin= 4.59D-06
 ErrMax= 4.59D-06 EMaxC= 1.00D-01 BMatC= 1.89D-08 BMatP= 6.00D-07
 IDIUse=1 WtCom= 1.00D+00 WtEn= 0.00D+00
 Coeff-Com:  0.535D-01 0.112D+00 0.835D+00
 Coeff:      0.535D-01 0.112D+00 0.835D+00
 Gap=     0.220 Goal=   None    Shift=    0.000
 Gap=     0.204 Goal=   None    Shift=    0.000
 RMSDP=5.82D-07 MaxDP=1.67D-05 DE=-1.68D-07 OVMax= 2.38D-05

 Cycle  11  Pass 1  IDiag  1:
 E= -268.892176759459     Delta-E=       -0.000000003421 Rises=F Damp=F
 DIIS: error= 4.04D-06 at cycle   4 NSaved=   4.
 NSaved= 4 IEnMin= 4 EnMin= -268.892176759459     IErMin= 4 ErrMin= 4.04D-06
 ErrMax= 4.04D-06 EMaxC= 1.00D-01 BMatC= 1.49D-08 BMatP= 1.89D-08
 IDIUse=1 WtCom= 1.00D+00 WtEn= 0.00D+00
 Coeff-Com: -0.795D-01-0.222D-01 0.546D+00 0.556D+00
 Coeff:     -0.795D-01-0.222D-01 0.546D+00 0.556D+00
 Gap=     0.220 Goal=   None    Shift=    0.000
 Gap=     0.204 Goal=   None    Shift=    0.000
 RMSDP=3.43D-07 MaxDP=9.50D-06 DE=-3.42D-09 OVMax= 1.37D-05

 Cycle  12  Pass 1  IDiag  1:
 E= -268.892176762229     Delta-E=       -0.000000002769 Rises=F Damp=F
 DIIS: error= 1.84D-06 at cycle   5 NSaved=   5.
 NSaved= 5 IEnMin= 5 EnMin= -268.892176762229     IErMin= 5 ErrMin= 1.84D-06
 ErrMax= 1.84D-06 EMaxC= 1.00D-01 BMatC= 2.44D-09 BMatP= 1.49D-08
 IDIUse=1 WtCom= 1.00D+00 WtEn= 0.00D+00
 Coeff-Com: -0.597D-01-0.385D-01 0.148D+00 0.333D+00 0.617D+00
 Coeff:     -0.597D-01-0.385D-01 0.148D+00 0.333D+00 0.617D+00
 Gap=     0.220 Goal=   None    Shift=    0.000
 Gap=     0.204 Goal=   None    Shift=    0.000
 RMSDP=1.61D-07 MaxDP=4.01D-06 DE=-2.77D-09 OVMax= 5.90D-06

 Cycle  13  Pass 1  IDiag  1:
 E= -268.892176762729     Delta-E=       -0.000000000501 Rises=F Damp=F
 DIIS: error= 5.70D-07 at cycle   6 NSaved=   6.
 NSaved= 6 IEnMin= 6 EnMin= -268.892176762729     IErMin= 6 ErrMin= 5.70D-07
 ErrMax= 5.70D-07 EMaxC= 1.00D-01 BMatC= 3.12D-10 BMatP= 2.44D-09
 IDIUse=1 WtCom= 1.00D+00 WtEn= 0.00D+00
 Coeff-Com: -0.142D-01-0.147D-01-0.340D-01 0.468D-01 0.311D+00 0.705D+00
 Coeff:     -0.142D-01-0.147D-01-0.340D-01 0.468D-01 0.311D+00 0.705D+00
 Gap=     0.220 Goal=   None    Shift=    0.000
 Gap=     0.204 Goal=   None    Shift=    0.000
 RMSDP=6.35D-08 MaxDP=2.08D-06 DE=-5.01D-10 OVMax= 2.59D-06

 Cycle  14  Pass 1  IDiag  1:
 E= -268.892176762803     Delta-E=       -0.000000000074 Rises=F Damp=F
 DIIS: error= 2.06D-07 at cycle   7 NSaved=   7.
 NSaved= 7 IEnMin= 7 EnMin= -268.892176762803     IErMin= 7 ErrMin= 2.06D-07
 ErrMax= 2.06D-07 EMaxC= 1.00D-01 BMatC= 2.30D-11 BMatP= 3.12D-10
 IDIUse=1 WtCom= 1.00D+00 WtEn= 0.00D+00
 Coeff-Com:  0.212D-02-0.550D-03-0.316D-01-0.266D-01 0.447D-01 0.277D+00
 Coeff-Com:  0.735D+00
 Coeff:      0.212D-02-0.550D-03-0.316D-01-0.266D-01 0.447D-01 0.277D+00
 Coeff:      0.735D+00
 Gap=     0.220 Goal=   None    Shift=    0.000
 Gap=     0.204 Goal=   None    Shift=    0.000
 RMSDP=2.01D-08 MaxDP=7.14D-07 DE=-7.37D-11 OVMax= 8.05D-07

 Cycle  15  Pass 1  IDiag  1:
 E= -268.892176762809     Delta-E=       -0.000000000006 Rises=F Damp=F
 DIIS: error= 6.78D-08 at cycle   8 NSaved=   8.
 NSaved= 8 IEnMin= 8 EnMin= -268.892176762809     IErMin= 8 ErrMin= 6.78D-08
 ErrMax= 6.78D-08 EMaxC= 1.00D-01 BMatC= 1.19D-12 BMatP= 2.30D-11
 IDIUse=1 WtCom= 1.00D+00 WtEn= 0.00D+00
 Coeff-Com:  0.128D-02 0.513D-03-0.858D-02-0.100D-01-0.720D-03 0.559D-01
 Coeff-Com:  0.230D+00 0.732D+00
 Coeff:      0.128D-02 0.513D-03-0.858D-02-0.100D-01-0.720D-03 0.559D-01
 Coeff:      0.230D+00 0.732D+00
 Gap=     0.220 Goal=   None    Shift=    0.000
 Gap=     0.204 Goal=   None    Shift=    0.000
 RMSDP=5.19D-09 MaxDP=1.52D-07 DE=-5.91D-12 OVMax= 2.41D-07

 SCF Done:  E(UB3LYP) =  -268.892176763     A.U. after   15 cycles
             Convg  =    0.5189D-08             -V/T =  2.0033
 <Sx>= 0.0000 <Sy>= 0.0000 <Sz>= 0.5000 <S**2>= 0.7538 S= 0.5019
 <L.S>= 0.000000000000E+00
 KE= 2.680058297558D+02 PE=-9.903591427160D+02 EE= 2.736039514824D+02
 Annihilation of the first spin contaminant:
 S**2 before annihilation     0.7538,   after     0.7500
 Leave Link  502 at Sat Jun  6 17:50:12 2015, MaxMem= 3758096384 cpu:     131.1
 (Enter /share/apps/g09/l601.exe)
 Copying SCF densities to generalized density rwf, IOpCl= 1 IROHF=0.

 **********************************************************************

            Population analysis using the SCF density.

 **********************************************************************

 Orbital symmetries:
 Alpha Orbitals:
       Occupied  (A) (A) (A) (A) (A) (A) (A) (A) (A) (A) (A) (A)
                 (A) (A) (A) (A) (A) (A) (A) (A) (A)
       Virtual   (A) (A) (A) (A) (A) (A) (A) (A) (A) (A) (A) (A)
                 (A) (A) (A) (A) (A) (A) (A) (A) (A) (A) (A) (A)
                 (A) (A) (A) (A) (A) (A) (A) (A) (A) (A) (A) (A)
                 (A) (A) (A) (A) (A) (A) (A) (A) (A) (A) (A) (A)
                 (A) (A) (A) (A) (A) (A) (A) (A) (A) (A) (A) (A)
                 (A) (A) (A) (A) (A) (A) (A) (A) (A) (A) (A) (A)
                 (A) (A) (A) (A) (A) (A) (A) (A) (A) (A) (A) (A)
                 (A) (A) (A) (A) (A) (A) (A) (A) (A) (A) (A) (A)
                 (A) (A) (A) (A) (A) (A) (A) (A) (A) (A) (A) (A)
                 (A) (A) (A)
 Beta  Orbitals:
       Occupied  (A) (A) (A) (A) (A) (A) (A) (A) (A) (A) (A) (A)
                 (A) (A) (A) (A) (A) (A) (A) (A)
       Virtual   (A) (A) (A) (A) (A) (A) (A) (A) (A) (A) (A) (A)
                 (A) (A) (A) (A) (A) (A) (A) (A) (A) (A) (A) (A)
                 (A) (A) (A) (A) (A) (A) (A) (A) (A) (A) (A) (A)
                 (A) (A) (A) (A) (A) (A) (A) (A) (A) (A) (A) (A)
                 (A) (A) (A) (A) (A) (A) (A) (A) (A) (A) (A) (A)
                 (A) (A) (A) (A) (A) (A) (A) (A) (A) (A) (A) (A)
                 (A) (A) (A) (A) (A) (A) (A) (A) (A) (A) (A) (A)
                 (A) (A) (A) (A) (A) (A) (A) (A) (A) (A) (A) (A)
                 (A) (A) (A) (A) (A) (A) (A) (A) (A) (A) (A) (A)
                 (A) (A) (A) (A)
 The electronic state is 2-A.
 Alpha  occ. eigenvalues --  -19.17438 -19.16841 -10.22331 -10.17790 -10.17308
 Alpha  occ. eigenvalues --   -1.11667  -0.91854  -0.78225  -0.66505  -0.59832
 Alpha  occ. eigenvalues --   -0.52821  -0.48315  -0.47189  -0.44648  -0.40780
 Alpha  occ. eigenvalues --   -0.39520  -0.37686  -0.34932  -0.31661  -0.26347
 Alpha  occ. eigenvalues --   -0.20906
 Alpha virt. eigenvalues --    0.01062   0.04811   0.05731   0.07942   0.08620
 Alpha virt. eigenvalues --    0.10465   0.13119   0.14890   0.17712   0.22378
 Alpha virt. eigenvalues --    0.24010   0.31051   0.33456   0.33641   0.38919
 Alpha virt. eigenvalues --    0.40183   0.42586   0.43545   0.47568   0.51062
 Alpha virt. eigenvalues --    0.55623   0.56526   0.58558   0.59320   0.60084
 Alpha virt. eigenvalues --    0.62120   0.63402   0.67088   0.74325   0.78191
 Alpha virt. eigenvalues --    0.82783   0.86066   0.87909   0.88502   0.92868
 Alpha virt. eigenvalues --    0.96274   1.10207   1.12599   1.14919   1.22367
 Alpha virt. eigenvalues --    1.32239   1.32751   1.35577   1.38650   1.42812
 Alpha virt. eigenvalues --    1.44717   1.47689   1.48776   1.50430   1.53414
 Alpha virt. eigenvalues --    1.54940   1.59029   1.66806   1.67293   1.68620
 Alpha virt. eigenvalues --    1.73761   1.74646   1.84571   1.87996   1.90361
 Alpha virt. eigenvalues --    1.93667   1.94353   1.99150   2.05472   2.10279
 Alpha virt. eigenvalues --    2.15998   2.22084   2.28408   2.35194   2.39765
 Alpha virt. eigenvalues --    2.42461   2.45525   2.47003   2.48518   2.53524
 Alpha virt. eigenvalues --    2.56319   2.59101   2.60228   2.65738   2.66952
 Alpha virt. eigenvalues --    2.67820   2.71512   2.76652   2.80457   2.85881
 Alpha virt. eigenvalues --    2.87545   3.01895   3.10549   3.13146   3.17796
 Alpha virt. eigenvalues --    3.28699   3.35566   3.60666   3.71817   3.73234
 Alpha virt. eigenvalues --    3.80130   3.84487   3.92191   4.08499   4.22892
 Alpha virt. eigenvalues --    4.67546   4.77390   4.89069   5.20181   5.43058
 Alpha virt. eigenvalues --    5.62145  23.77570  23.83864  23.88313  49.76609
 Alpha virt. eigenvalues --   49.82278
  Beta  occ. eigenvalues --  -19.17422 -19.16838 -10.22265 -10.17385 -10.16379
  Beta  occ. eigenvalues --   -1.11645  -0.91816  -0.77060  -0.64998  -0.58438
  Beta  occ. eigenvalues --   -0.52751  -0.48135  -0.46787  -0.44093  -0.40303
  Beta  occ. eigenvalues --   -0.38677  -0.37233  -0.34561  -0.31461  -0.26209
  Beta virt. eigenvalues --   -0.05783   0.01121   0.04850   0.06146   0.08096
  Beta virt. eigenvalues --    0.08756   0.10862   0.13262   0.15064   0.18010
  Beta virt. eigenvalues --    0.22635   0.24653   0.31492   0.34020   0.34464
  Beta virt. eigenvalues --    0.39392   0.41392   0.43484   0.46818   0.49456
  Beta virt. eigenvalues --    0.51648   0.55914   0.57138   0.58717   0.59514
  Beta virt. eigenvalues --    0.60599   0.62773   0.63940   0.68667   0.74779
  Beta virt. eigenvalues --    0.78718   0.82927   0.86636   0.88178   0.88749
  Beta virt. eigenvalues --    0.93382   0.96431   1.12489   1.12733   1.15287
  Beta virt. eigenvalues --    1.22676   1.32413   1.33700   1.35921   1.39778
  Beta virt. eigenvalues --    1.43782   1.45304   1.47815   1.49134   1.50543
  Beta virt. eigenvalues --    1.53718   1.55529   1.61480   1.67553   1.68045
  Beta virt. eigenvalues --    1.69281   1.74296   1.75314   1.85077   1.89160
  Beta virt. eigenvalues --    1.91227   1.93723   1.95914   1.99615   2.06754
  Beta virt. eigenvalues --    2.11001   2.16131   2.23009   2.28817   2.35478
  Beta virt. eigenvalues --    2.40133   2.42828   2.45842   2.47663   2.48812
  Beta virt. eigenvalues --    2.53898   2.56938   2.59535   2.60460   2.67033
  Beta virt. eigenvalues --    2.67444   2.68363   2.72084   2.78202   2.83913
  Beta virt. eigenvalues --    2.85990   2.87834   3.02242   3.10589   3.13311
  Beta virt. eigenvalues --    3.17898   3.28867   3.35808   3.60683   3.72678
  Beta virt. eigenvalues --    3.74389   3.80563   3.84564   3.92230   4.09213
  Beta virt. eigenvalues --    4.23676   4.67555   4.77396   4.89110   5.20207
  Beta virt. eigenvalues --    5.43084   5.62163  23.77832  23.84831  23.88680
  Beta virt. eigenvalues --   49.76613  49.82292
          Condensed to atoms (all electrons):
              1          2          3          4          5          6
     1  O    7.956504   0.286130   0.072440  -0.065447   0.005970   0.008556
     2  H    0.286130   0.466829  -0.023357   0.000625  -0.000937   0.003000
     3  O    0.072440  -0.023357   8.060221   0.234457  -0.019712  -0.032005
     4  C   -0.065447   0.000625   0.234457   4.800115   0.385734   0.387026
     5  H    0.005970  -0.000937  -0.019712   0.385734   0.570603  -0.028040
     6  H    0.008556   0.003000  -0.032005   0.387026  -0.028040   0.620733
     7  C   -0.008322   0.000438  -0.042227   0.357954  -0.037631  -0.066679
     8  H   -0.000901   0.000114   0.007809  -0.033388  -0.009019   0.010665
     9  H    0.015150  -0.000978  -0.006995  -0.041386   0.008755  -0.007637
    10  C   -0.000290  -0.000004   0.003840  -0.054686   0.003384   0.002290
    11  H   -0.000087   0.000004   0.000020  -0.004706  -0.000586   0.005433
    12  H   -0.000007   0.000002  -0.000185   0.004370   0.000002  -0.000477
              7          8          9         10         11         12
     1  O   -0.008322  -0.000901   0.015150  -0.000290  -0.000087  -0.000007
     2  H    0.000438   0.000114  -0.000978  -0.000004   0.000004   0.000002
     3  O   -0.042227   0.007809  -0.006995   0.003840   0.000020  -0.000185
     4  C    0.357954  -0.033388  -0.041386  -0.054686  -0.004706   0.004370
     5  H   -0.037631  -0.009019   0.008755   0.003384  -0.000586   0.000002
     6  H   -0.066679   0.010665  -0.007637   0.002290   0.005433  -0.000477
     7  C    4.977887   0.388802   0.405873   0.320683  -0.043337  -0.028117
     8  H    0.388802   0.585636  -0.033902  -0.032198   0.007095  -0.009464
     9  H    0.405873  -0.033902   0.561029  -0.044767  -0.001665   0.002492
    10  C    0.320683  -0.032198  -0.044767   5.258526   0.403613   0.401504
    11  H   -0.043337   0.007095  -0.001665   0.403613   0.558109  -0.036040
    12  H   -0.028117  -0.009464   0.002492   0.401504  -0.036040   0.545708
 Mulliken atomic charges:
              1
     1  O   -0.269695
     2  H    0.268134
     3  O   -0.254306
     4  C    0.029332
     5  H    0.121477
     6  H    0.097135
     7  C   -0.225324
     8  H    0.118752
     9  H    0.144032
    10  C   -0.261897
    11  H    0.112147
    12  H    0.120212
 Sum of Mulliken atomic charges =   0.00000
 Mulliken charges with hydrogens summed into heavy atoms:
              1
     1  O   -0.001561
     3  O   -0.254306
     4  C    0.247944
     7  C    0.037460
    10  C   -0.029538
 Sum of Mulliken charges with hydrogens summed into heavy atoms =   0.00000
          Atomic-Atomic Spin Densities.
              1          2          3          4          5          6
     1  O    0.001016  -0.000744  -0.000308   0.000883  -0.000105   0.000026
     2  H   -0.000744   0.001916  -0.000192  -0.000365   0.000086  -0.000017
     3  O   -0.000308  -0.000192   0.008600  -0.007780   0.001578   0.000013
     4  C    0.000883  -0.000365  -0.007780   0.047447  -0.008090   0.000436
     5  H   -0.000105   0.000086   0.001578  -0.008090   0.004494  -0.000061
     6  H    0.000026  -0.000017   0.000013   0.000436  -0.000061  -0.001476
     7  C   -0.000241   0.000041   0.000429   0.012943  -0.003642   0.001031
     8  H    0.000053  -0.000022  -0.000806   0.006276  -0.001356   0.000056
     9  H   -0.000753   0.000203   0.002121  -0.013831   0.001739  -0.000519
    10  C    0.000030  -0.000001   0.000614  -0.016489   0.009666  -0.000636
    11  H    0.000000  -0.000001  -0.000027   0.001112  -0.000051  -0.000175
    12  H    0.000000   0.000000   0.000000   0.000083  -0.000108   0.000055
              7          8          9         10         11         12
     1  O   -0.000241   0.000053  -0.000753   0.000030   0.000000   0.000000
     2  H    0.000041  -0.000022   0.000203  -0.000001  -0.000001   0.000000
     3  O    0.000429  -0.000806   0.002121   0.000614  -0.000027   0.000000
     4  C    0.012943   0.006276  -0.013831  -0.016489   0.001112   0.000083
     5  H   -0.003642  -0.001356   0.001739   0.009666  -0.000051  -0.000108
     6  H    0.001031   0.000056  -0.000519  -0.000636  -0.000175   0.000055
     7  C   -0.047705   0.004092   0.019359  -0.064862  -0.001069  -0.001886
     8  H    0.004092   0.012357  -0.007571  -0.006353  -0.000212   0.001092
     9  H    0.019359  -0.007571   0.083209  -0.025407  -0.000418  -0.000552
    10  C   -0.064862  -0.006353  -0.025407   1.180794   0.002216   0.002845
    11  H   -0.001069  -0.000212  -0.000418   0.002216  -0.052969   0.003850
    12  H   -0.001886   0.001092  -0.000552   0.002845   0.003850  -0.054242
 Mulliken atomic spin densities:
              1
     1  O   -0.000142
     2  H    0.000905
     3  O    0.004242
     4  C    0.022626
     5  H    0.004152
     6  H   -0.001266
     7  C   -0.081511
     8  H    0.007605
     9  H    0.057580
    10  C    1.082415
    11  H   -0.047743
    12  H   -0.048862
 Sum of Mulliken atomic spin densities =   1.00000
 Electronic spatial extent (au):  <R**2>=            530.7805
 Charge=              0.0000 electrons
 Dipole moment (field-independent basis, Debye):
    X=              0.0311    Y=              0.4852    Z=              1.1448  Tot=              1.2437
 Quadrupole moment (field-independent basis, Debye-Ang):
   XX=            -27.2100   YY=            -32.4414   ZZ=            -30.5033
   XY=             -0.1296   XZ=              3.4844   YZ=              0.2510
 Traceless Quadrupole moment (field-independent basis, Debye-Ang):
   XX=              2.8416   YY=             -2.3898   ZZ=             -0.4518
   XY=             -0.1296   XZ=              3.4844   YZ=              0.2510
 Octapole moment (field-independent basis, Debye-Ang**2):
  XXX=             36.0629  YYY=              1.3119  ZZZ=              0.7914  XYY=              4.9721
  XXY=             -3.3762  XXZ=              6.7887  XZZ=              4.5137  YZZ=             -0.1214
  YYZ=             -0.4874  XYZ=             -0.9658
 Hexadecapole moment (field-independent basis, Debye-Ang**3):
 XXXX=           -431.9616 YYYY=            -96.5399 ZZZZ=            -64.8683 XXXY=             -7.5046
 XXXZ=             29.5653 YYYX=             -4.1842 YYYZ=             -2.9096 ZZZX=              1.9190
 ZZZY=             -0.8646 XXYY=           -111.6946 XXZZ=            -89.8555 YYZZ=            -29.1678
 XXYZ=             -0.9766 YYXZ=              2.3516 ZZXY=             -1.8600
 N-N= 1.798571847150D+02 E-N=-1.479635381094D+03  KE= 4.013586987344D+02
                          Isotropic Fermi Contact Couplings
        Atom                 a.u.       MegaHertz       Gauss      10(-4) cm-1
     1  O(17)              0.00468      -2.83973      -1.01329      -0.94723
     2  H(1)               0.00045       2.02095       0.72113       0.67412
     3  O(17)              0.00033      -0.19862      -0.07087      -0.06625
     4  C(13)              0.03559      40.00664      14.27536      13.34478
     5  H(1)              -0.00053      -2.35136      -0.83902      -0.78433
     6  H(1)              -0.00047      -2.12003      -0.75648      -0.70717
     7  C(13)             -0.02913     -32.75254     -11.68692     -10.92507
     8  H(1)               0.00400      17.88160       6.38060       5.96466
     9  H(1)               0.03151     140.82382      50.24944      46.97377
    10  C(13)              0.06761      76.00420      27.12019      25.35227
    11  H(1)              -0.01335     -59.66391     -21.28956     -19.90174
    12  H(1)              -0.01388     -62.02936     -22.13362     -20.69077
 --------------------------------------------------------
       Center         ----  Spin Dipole Couplings  ----
                      3XX-RR        3YY-RR        3ZZ-RR
 --------------------------------------------------------
     1   Atom        0.007977     -0.005417     -0.002560
     2   Atom        0.002423     -0.001202     -0.001221
     3   Atom        0.022764     -0.004179     -0.018585
     4   Atom        0.015805     -0.005971     -0.009834
     5   Atom        0.004405      0.003532     -0.007937
     6   Atom        0.005910     -0.004971     -0.000939
     7   Atom        0.007962      0.008083     -0.016045
     8   Atom        0.001139     -0.007578      0.006440
     9   Atom        0.008976     -0.000190     -0.008785
    10   Atom       -0.577588      1.095845     -0.518257
    11   Atom       -0.071394     -0.000560      0.071954
    12   Atom        0.025133     -0.001121     -0.024012
 --------------------------------------------------------
                        XY            XZ            YZ
 --------------------------------------------------------
     1   Atom        0.002267      0.000122     -0.000071
     2   Atom       -0.000086      0.000526     -0.000010
     3   Atom        0.017404      0.007272      0.003144
     4   Atom        0.020767      0.015747      0.011925
     5   Atom        0.008344     -0.001600     -0.000592
     6   Atom        0.003434      0.006969      0.002492
     7   Atom       -0.008673     -0.009879     -0.003865
     8   Atom       -0.000849     -0.012641      0.001754
     9   Atom       -0.009686     -0.005410      0.000155
    10   Atom       -0.016555      0.005280     -0.303620
    11   Atom       -0.002944     -0.016614      0.010411
    12   Atom        0.016285      0.068710     -0.000712
 --------------------------------------------------------


 ---------------------------------------------------------------------------------
              Anisotropic Spin Dipole Couplings in Principal Axis System
 ---------------------------------------------------------------------------------

       Atom             a.u.   MegaHertz   Gauss  10(-4) cm-1        Axes

              Baa    -0.0058     0.419     0.150     0.140 -0.1627  0.9863  0.0277
     1 O(17)  Bbb    -0.0026     0.185     0.066     0.062 -0.0053 -0.0290  0.9996
              Bcc     0.0084    -0.604    -0.216    -0.202  0.9867  0.1624  0.0099
 
              Baa    -0.0013    -0.691    -0.247    -0.231 -0.1407 -0.0256  0.9897
     2 H(1)   Bbb    -0.0012    -0.643    -0.229    -0.214  0.0195  0.9994  0.0287
              Bcc     0.0025     1.334     0.476     0.445  0.9899 -0.0233  0.1401
 
              Baa    -0.0198     1.435     0.512     0.479 -0.1603 -0.0200  0.9869
     3 O(17)  Bbb    -0.0127     0.919     0.328     0.306 -0.4314  0.9007 -0.0519
              Bcc     0.0325    -2.354    -0.840    -0.785  0.8878  0.4341  0.1530
 
              Baa    -0.0202    -2.716    -0.969    -0.906 -0.1708  0.7662 -0.6195
     4 C(13)  Bbb    -0.0164    -2.205    -0.787    -0.736 -0.6014  0.4169  0.6815
              Bcc     0.0367     4.922     1.756     1.642  0.7805  0.4890  0.3896
 
              Baa    -0.0082    -4.363    -1.557    -1.455  0.1743 -0.0746  0.9819
     5 H(1)   Bbb    -0.0043    -2.278    -0.813    -0.760 -0.6660  0.7255  0.1734
              Bcc     0.0124     6.640     2.369     2.215  0.7253  0.6841 -0.0768
 
              Baa    -0.0062    -3.289    -1.173    -1.097 -0.0366  0.9201 -0.3900
     6 H(1)   Bbb    -0.0052    -2.766    -0.987    -0.923 -0.5723  0.3006  0.7630
              Bcc     0.0113     6.055     2.161     2.020  0.8192  0.2511  0.5156
 
              Baa    -0.0211    -2.837    -1.012    -0.946  0.3735  0.2297  0.8987
     7 C(13)  Bbb     0.0038     0.511     0.182     0.171  0.5439  0.7306 -0.4128
              Bcc     0.0173     2.325     0.830     0.776  0.7514 -0.6430 -0.1480
 
              Baa    -0.0093    -4.938    -1.762    -1.647  0.7326 -0.2786  0.6211
     8 H(1)   Bbb    -0.0076    -4.053    -1.446    -1.352  0.2639  0.9573  0.1181
              Bcc     0.0169     8.991     3.208     2.999 -0.6275  0.0774  0.7748
 
              Baa    -0.0112    -5.965    -2.129    -1.990  0.3899  0.3315  0.8591
     9 H(1)   Bbb    -0.0048    -2.569    -0.917    -0.857  0.3725  0.7964 -0.4764
              Bcc     0.0160     8.534     3.045     2.847  0.8421 -0.5058 -0.1870
 
              Baa    -0.5787   -77.658   -27.710   -25.904  0.9197 -0.0612 -0.3877
    10 C(13)  Bbb    -0.5725   -76.828   -27.414   -25.627  0.3924  0.1685  0.9042
              Bcc     1.1512   154.485    55.124    51.531 -0.0100  0.9838 -0.1790
 
              Baa    -0.0733   -39.129   -13.962   -13.052  0.9934  0.0242  0.1119
    11 H(1)   Bbb    -0.0020    -1.078    -0.385    -0.360 -0.0082  0.9900 -0.1412
              Bcc     0.0754    40.207    14.347    13.412 -0.1142  0.1393  0.9836
 
              Baa    -0.0738   -39.375   -14.050   -13.134 -0.5802  0.1379  0.8027
    12 H(1)   Bbb    -0.0019    -1.024    -0.366    -0.342 -0.0571  0.9763 -0.2089
              Bcc     0.0757    40.400    14.416    13.476  0.8125  0.1670  0.5586
 

 ---------------------------------------------------------------------------------

 No NMR shielding tensors so no spin-rotation constants.
 Leave Link  601 at Sat Jun  6 17:50:14 2015, MaxMem= 3758096384 cpu:       9.4
 (Enter /share/apps/g09/l701.exe)
 Compute integral first derivatives.
 ... and contract with generalized density number  0.
 Leave Link  701 at Sat Jun  6 17:50:14 2015, MaxMem= 3758096384 cpu:       5.6
 (Enter /share/apps/g09/l702.exe)
 L702 exits ... SP integral derivatives will be done elsewhere.
 Leave Link  702 at Sat Jun  6 17:50:15 2015, MaxMem= 3758096384 cpu:       0.1
 (Enter /share/apps/g09/l703.exe)
 Compute integral first derivatives, UseDBF=F ICtDFT=           0.
 Integral derivatives from FoFDir, PRISM(SPDF).
 Calling FoFJK, ICntrl=      2127 FMM=F ISym2X=0 I1Cent= 0 IOpClX= 1 NMat=1 NMatS=1 NMatT=0.
 FoFCou: FMM=F IPFlag=           0 FMFlag=      100000 FMFlg1=         800
         NFxFlg=           0 DoJE=F BraDBF=F KetDBF=F FulRan=T
         Omega=  0.000000  0.000000  1.000000  0.000000  0.000000 ICntrl=    2127 IOpCl=  1
         NMat0=    1 NMatS0=    1 NMatT0=    0 NMatD0=    1 NMtDS0=    0 NMtDT0=    0
         I1Cent=           0 NGrid=           0.
 Symmetry not used in FoFCou.
 Leave Link  703 at Sat Jun  6 17:50:17 2015, MaxMem= 3758096384 cpu:      25.2
 (Enter /share/apps/g09/l716.exe)
 Dipole        = 1.22196793D-02 1.90879269D-01 4.50387816D-01
 ***** Axes restored to original set *****
 -------------------------------------------------------------------
 Center     Atomic                   Forces (Hartrees/Bohr)
 Number     Number              X              Y              Z
 -------------------------------------------------------------------
      1        8          -0.000034161    0.000233280   -0.000517090
      2        1           0.001086100    0.000419803   -0.000791192
      3        8          -0.000329869    0.000066185    0.000228264
      4        6          -0.000560513   -0.001411405    0.001238220
      5        1           0.000019350    0.000164199   -0.000179270
      6        1          -0.000287348    0.000090373   -0.000053882
      7        6          -0.000237883    0.000822943   -0.000493479
      8        1           0.000032053   -0.000117720    0.000296550
      9        1           0.000130848   -0.000237674    0.000477089
     10        6           0.000286166    0.000015050   -0.000272939
     11        1          -0.000070098   -0.000106470    0.000016924
     12        1          -0.000034645    0.000061435    0.000050806
 -------------------------------------------------------------------
 Cartesian Forces:  Max     0.001411405 RMS     0.000472133
 Leave Link  716 at Sat Jun  6 17:50:17 2015, MaxMem= 3758096384 cpu:       0.2
 (Enter /share/apps/g09/l103.exe)

 GradGradGradGradGradGradGradGradGradGradGradGradGradGradGradGradGradGrad
 Berny optimization.
 Internal  Forces:  Max     0.002182618 RMS     0.000557814
 Search for a local minimum.
 Step number   1 out of a maximum of   57
 All quantities printed in internal units (Hartrees-Bohrs-Radians)
 RMS Force = .55781D-03 SwitMx=.10000D-02 MixMth= 2
 Mixed Optimization -- En-DIIS/RFO-DIIS
 Second derivative matrix not updated -- first step.
     Eigenvalues ---    0.00334   0.00500   0.00913   0.00952   0.01375
     Eigenvalues ---    0.04169   0.04673   0.05547   0.05572   0.09344
     Eigenvalues ---    0.11924   0.12858   0.14032   0.16000   0.16000
     Eigenvalues ---    0.16000   0.21925   0.22067   0.25000   0.29181
     Eigenvalues ---    0.33544   0.33574   0.34069   0.34310   0.34335
     Eigenvalues ---    0.35453   0.35741   0.36956   0.41876   0.53963
     Eigenvalues --- 1000.000001000.000001000.000001000.000001000.00000
     Eigenvalues --- 1000.000001000.000001000.000001000.000001000.00000
     Eigenvalues --- 1000.000001000.000001000.000001000.000001000.00000
     Eigenvalues --- 1000.000001000.00000
 RFO step:  Lambda=-1.77023169D-04 EMin= 3.34135981D-03
 Linear search not attempted -- first point.
 Iteration  1 RMS(Cart)=  0.03459850 RMS(Int)=  0.00241796
 Iteration  2 RMS(Cart)=  0.00229765 RMS(Int)=  0.00000459
 Iteration  3 RMS(Cart)=  0.00000445 RMS(Int)=  0.00000343
 Iteration  4 RMS(Cart)=  0.00000000 RMS(Int)=  0.00000343
 Variable       Old X    -DE/DX   Delta X   Delta X   Delta X     New X
                                 (Linear)    (Quad)   (Total)
    R1        1.82765  -0.00079   0.00000  -0.00146  -0.00146   1.82619
    R2        2.75912  -0.00126   0.00000  -0.00342  -0.00342   2.75570
    R3        2.69082  -0.00135   0.00000  -0.00322  -0.00322   2.68760
    R4        2.06810   0.00003   0.00000   0.00007   0.00007   2.06817
    R5        2.07213   0.00015   0.00000   0.00044   0.00044   2.07257
    R6        2.89628  -0.00016   0.00000  -0.00054  -0.00054   2.89573
    R7        2.06768  -0.00001   0.00000  -0.00002  -0.00002   2.06766
    R8        2.08106  -0.00005   0.00000  -0.00016  -0.00016   2.08090
    R9        2.81354   0.00013   0.00000   0.00039   0.00039   2.81394
   R10        2.04946  -0.00008   0.00000  -0.00024  -0.00024   2.04922
   R11        2.04488  -0.00006   0.00000  -0.00018  -0.00018   2.04470
    A1        1.74360  -0.00199   0.00000  -0.01241  -0.01241   1.73119
    A2        1.87201  -0.00218   0.00000  -0.00872  -0.00872   1.86329
    A3        1.79392   0.00027   0.00000   0.00358   0.00358   1.79750
    A4        1.91473   0.00005   0.00000  -0.00107  -0.00108   1.91365
    A5        1.97813  -0.00014   0.00000  -0.00074  -0.00074   1.97739
    A6        1.89685   0.00010   0.00000   0.00104   0.00104   1.89789
    A7        1.93565  -0.00006   0.00000   0.00033   0.00033   1.93598
    A8        1.93828  -0.00018   0.00000  -0.00261  -0.00261   1.93567
    A9        1.90505  -0.00033   0.00000  -0.00316  -0.00316   1.90189
   A10        1.87373  -0.00050   0.00000  -0.00398  -0.00399   1.86974
   A11        1.96180   0.00042   0.00000   0.00213   0.00214   1.96393
   A12        1.85468   0.00007   0.00000  -0.00060  -0.00061   1.85407
   A13        1.93675   0.00003   0.00000   0.00136   0.00136   1.93812
   A14        1.92768   0.00027   0.00000   0.00387   0.00387   1.93155
   A15        2.10543  -0.00014   0.00000  -0.00107  -0.00108   2.10435
   A16        2.11710   0.00012   0.00000   0.00057   0.00057   2.11767
   A17        2.05364   0.00001   0.00000  -0.00012  -0.00012   2.05352
    D1       -2.19970   0.00076   0.00000   0.14589   0.14589  -2.05381
    D2        2.99812   0.00007   0.00000  -0.00076  -0.00076   2.99735
    D3        0.98266  -0.00021   0.00000  -0.00331  -0.00331   0.97936
    D4       -1.19483   0.00010   0.00000   0.00150   0.00150  -1.19334
    D5       -1.00174   0.00002   0.00000   0.00030   0.00029  -1.00145
    D6        1.00161  -0.00033   0.00000  -0.00409  -0.00409   0.99752
    D7        3.12481  -0.00007   0.00000  -0.00063  -0.00063   3.12418
    D8        1.00557   0.00023   0.00000   0.00454   0.00453   1.01010
    D9        3.00892  -0.00012   0.00000   0.00015   0.00015   3.00907
   D10       -1.15106   0.00014   0.00000   0.00361   0.00361  -1.14745
   D11        3.11673   0.00020   0.00000   0.00432   0.00431   3.12104
   D12       -1.16310  -0.00015   0.00000  -0.00008  -0.00007  -1.16318
   D13        0.96010   0.00011   0.00000   0.00338   0.00338   0.96348
   D14       -0.76271  -0.00002   0.00000  -0.00420  -0.00420  -0.76691
   D15        2.50889   0.00004   0.00000   0.00151   0.00150   2.51040
   D16       -2.90156   0.00009   0.00000  -0.00263  -0.00263  -2.90419
   D17        0.37005   0.00015   0.00000   0.00307   0.00307   0.37313
   D18        1.32945  -0.00019   0.00000  -0.00516  -0.00516   1.32429
   D19       -1.68212  -0.00013   0.00000   0.00054   0.00054  -1.68158
         Item               Value     Threshold  Converged?
 Maximum Force            0.002183     0.000450     NO 
 RMS     Force            0.000558     0.000300     NO 
 Maximum Displacement     0.196097     0.001800     NO 
 RMS     Displacement     0.035244     0.001200     NO 
 Predicted change in Energy=-9.042376D-05
 GradGradGradGradGradGradGradGradGradGradGradGradGradGradGradGradGradGrad

 Leave Link  103 at Sat Jun  6 17:50:18 2015, MaxMem= 3758096384 cpu:       2.9
 (Enter /share/apps/g09/l202.exe)
                          Input orientation:                          
 ---------------------------------------------------------------------
 Center     Atomic      Atomic             Coordinates (Angstroms)
 Number     Number       Type             X           Y           Z
 ---------------------------------------------------------------------
      1          8           0        0.006631   -0.024231   -0.017332
      2          1           0        0.013131    0.105704    0.940250
      3          8           0        1.444252   -0.026924   -0.261754
      4          6           0        1.718046    1.081190   -1.110176
      5          1           0        2.811874    1.112192   -1.129055
      6          1           0        1.347397    2.002454   -0.644592
      7          6           0        1.150771    0.916579   -2.524112
      8          1           0        1.556240    0.001277   -2.965704
      9          1           0        0.066394    0.754714   -2.421684
     10          6           0        1.426651    2.095944   -3.390323
     11          1           0        1.293508    3.102724   -3.010073
     12          1           0        1.642920    1.981646   -4.444320
 ---------------------------------------------------------------------
                    Distance matrix (angstroms):
                    1          2          3          4          5
     1  O    0.000000
     2  H    0.966378   0.000000
     3  O    1.458253   1.873636   0.000000
     4  C    2.311970   2.839465   1.422217   0.000000
     5  H    3.224402   3.623259   1.979946   1.094429   0.000000
     6  H    2.509693   2.808852   2.067443   1.096757   1.781001
     7  C    2.911722   3.735445   2.468723   1.532355   2.178007
     8  H    3.330891   4.201020   2.706415   2.152993   2.486771
     9  H    2.528090   3.424420   2.678572   2.134150   3.055543
    10  C    4.229500   4.971213   3.780849   2.512709   2.828417
    11  H    4.515573   5.121186   4.167814   2.806499   3.131435
    12  H    5.128276   5.930343   4.644102   3.454415   3.621241
                    6          7          8          9         10
     6  H    0.000000
     7  C    2.179538   0.000000
     8  H    3.071789   1.094160   0.000000
     9  H    2.521087   1.101165   1.755923   0.000000
    10  C    2.748465   1.489072   2.141197   2.141836   0.000000
    11  H    2.609406   2.244051   3.112872   2.713884   1.084400
    12  H    3.811260   2.250284   2.472990   2.842860   1.082010
                   11         12
    11  H    0.000000
    12  H    1.853638   0.000000
 Stoichiometry    C3H7O2(2)
 Framework group  C1[X(C3H7O2)]
 Deg. of freedom    30
 Full point group                 C1      NOp   1
 Largest Abelian subgroup         C1      NOp   1
 Largest concise Abelian subgroup C1      NOp   1
                         Standard orientation:                         
 ---------------------------------------------------------------------
 Center     Atomic      Atomic             Coordinates (Angstroms)
 Number     Number       Type             X           Y           Z
 ---------------------------------------------------------------------
      1          8           0        1.831108   -0.722379    0.165979
      2          1           0        2.581590   -0.395886    0.679852
      3          8           0        1.314196    0.549626   -0.325249
      4          6           0        0.001818    0.690928    0.204279
      5          1           0       -0.265260    1.716079   -0.070513
      6          1           0        0.035571    0.616700    1.298001
      7          6           0       -0.999000   -0.310951   -0.381139
      8          1           0       -1.022731   -0.195635   -1.468946
      9          1           0       -0.600110   -1.318821   -0.187108
     10          6           0       -2.361151   -0.163516    0.202078
     11          1           0       -2.492278   -0.029986    1.270207
     12          1           0       -3.249216   -0.309194   -0.398643
 ---------------------------------------------------------------------
 Rotational constants (GHZ):     13.7381585      2.5803487      2.3976610
 Leave Link  202 at Sat Jun  6 17:50:18 2015, MaxMem= 3758096384 cpu:       0.3
 (Enter /share/apps/g09/l301.exe)
 Standard basis: 6-311G(2d,d,p) (5D, 7F)
 Ernie: Thresh=  0.10000D-02 Tol=  0.10000D-05 Strict=F.
 There are   132 symmetry adapted basis functions of A   symmetry.
 Integral buffers will be    131072 words long.
 Raffenetti 2 integral format.
 Two-electron integral symmetry is turned on.
   132 basis functions,   216 primitive gaussians,   137 cartesian basis functions
    21 alpha electrons       20 beta electrons
       nuclear repulsion energy       180.1488683024 Hartrees.
 IExCor=  402 DFT=T Ex+Corr=B3LYP ExCW=0 ScaHFX=  0.200000
 ScaDFX=  0.800000  0.720000  1.000000  0.810000 ScalE2=  1.000000  1.000000
 IRadAn=      0 IRanWt=     -1 IRanGd=            0 ICorTp=0
 NAtoms=   12 NActive=   12 NUniq=   12 SFac= 7.50D-01 NAtFMM=   80 NAOKFM=F Big=F
 Leave Link  301 at Sat Jun  6 17:50:18 2015, MaxMem= 3758096384 cpu:       0.4
 (Enter /share/apps/g09/l302.exe)
 NPDir=0 NMtPBC=     1 NCelOv=     1 NCel=       1 NClECP=     1 NCelD=      1
         NCelK=      1 NCelE2=     1 NClLst=     1 CellRange=     0.0.
 One-electron integrals computed using PRISM.
 NBasis=   132 RedAO= T  NBF=   132
 NBsUse=   132 1.00D-06 NBFU=   132
 Precomputing XC quadrature grid using
 IXCGrd= 2 IRadAn=           0 IRanWt=          -1 IRanGd=           0 AccXCQ= 1.00D-10.
 NRdTot=     757 NPtTot=       96384 NUsed=      101852 NTot=      101884
 NSgBfM=   137   137   137   137   137 NAtAll=    12    12.
 Leave Link  302 at Sat Jun  6 17:50:19 2015, MaxMem= 3758096384 cpu:       4.8
 (Enter /share/apps/g09/l303.exe)
 DipDrv:  MaxL=1.
 Leave Link  303 at Sat Jun  6 17:50:19 2015, MaxMem= 3758096384 cpu:       0.8
 (Enter /share/apps/g09/l401.exe)
 Initial guess read from the read-write file.
 B after Tr=     0.000000    0.000000    0.000000
         Rot=    1.000000    0.000000    0.000000    0.000000 Ang=   0.00 deg.
 Guess basis will be translated and rotated to current coordinates.
 Initial guess orbital symmetries:
 Alpha Orbitals:
       Occupied  (A) (A) (A) (A) (A) (A) (A) (A) (A) (A) (A) (A)
                 (A) (A) (A) (A) (A) (A) (A) (A) (A)
       Virtual   (A) (A) (A) (A) (A) (A) (A) (A) (A) (A) (A) (A)
                 (A) (A) (A) (A) (A) (A) (A) (A) (A) (A) (A) (A)
                 (A) (A) (A) (A) (A) (A) (A) (A) (A) (A) (A) (A)
                 (A) (A) (A) (A) (A) (A) (A) (A) (A) (A) (A) (A)
                 (A) (A) (A) (A) (A) (A) (A) (A) (A) (A) (A) (A)
                 (A) (A) (A) (A) (A) (A) (A) (A) (A) (A) (A) (A)
                 (A) (A) (A) (A) (A) (A) (A) (A) (A) (A) (A) (A)
                 (A) (A) (A) (A) (A) (A) (A) (A) (A) (A) (A) (A)
                 (A) (A) (A) (A) (A) (A) (A) (A) (A) (A) (A) (A)
                 (A) (A) (A)
 Beta  Orbitals:
       Occupied  (A) (A) (A) (A) (A) (A) (A) (A) (A) (A) (A) (A)
                 (A) (A) (A) (A) (A) (A) (A) (A)
       Virtual   (A) (A) (A) (A) (A) (A) (A) (A) (A) (A) (A) (A)
                 (A) (A) (A) (A) (A) (A) (A) (A) (A) (A) (A) (A)
                 (A) (A) (A) (A) (A) (A) (A) (A) (A) (A) (A) (A)
                 (A) (A) (A) (A) (A) (A) (A) (A) (A) (A) (A) (A)
                 (A) (A) (A) (A) (A) (A) (A) (A) (A) (A) (A) (A)
                 (A) (A) (A) (A) (A) (A) (A) (A) (A) (A) (A) (A)
                 (A) (A) (A) (A) (A) (A) (A) (A) (A) (A) (A) (A)
                 (A) (A) (A) (A) (A) (A) (A) (A) (A) (A) (A) (A)
                 (A) (A) (A) (A) (A) (A) (A) (A) (A) (A) (A) (A)
                 (A) (A) (A) (A)
 The electronic state of the initial guess is 2-A.
 Initial guess <Sx>= 0.0000 <Sy>= 0.0000 <Sz>= 0.5000 <S**2>= 0.7538 S= 0.5019
 Generating alternative initial guess.
 Harris functional with IExCor=  402 diagonalized for initial guess.
 ExpMin= 1.03D-01 ExpMax= 8.59D+03 ExpMxC= 1.30D+03 IAcc=1 IRadAn=         1 AccDes= 0.00D+00
 HarFok:  IExCor=  402 AccDes= 0.00D+00 IRadAn=         1 IDoV= 1
 ScaDFX=  1.000000  1.000000  1.000000  1.000000
 FoFCou: FMM=F IPFlag=           0 FMFlag=      100000 FMFlg1=           0
         NFxFlg=           0 DoJE=T BraDBF=F KetDBF=T FulRan=T
         Omega=  0.000000  0.000000  1.000000  0.000000  0.000000 ICntrl=     500 IOpCl=  0
         NMat0=    1 NMatS0=    1 NMatT0=    0 NMatD0=    1 NMtDS0=    0 NMtDT0=    0
         I1Cent=           4 NGrid=           0.
 Petite list used in FoFCou.
 Harris En= -268.920021359722    
 Leave Link  401 at Sat Jun  6 17:50:20 2015, MaxMem= 3758096384 cpu:      11.3
 (Enter /share/apps/g09/l502.exe)
 UHF open shell SCF:
 Requested convergence on RMS density matrix=1.00D-08 within 128 cycles.
 Requested convergence on MAX density matrix=1.00D-06.
 Requested convergence on             energy=1.00D-06.
 No special actions if energy rises.
 Using DIIS extrapolation, IDIIS=  1040.
 Integral symmetry usage will be decided dynamically.
       101731 words used for storage of precomputed grid.
 Keep R1 and R2 ints in memory in canonical form, NReq=90861509.
 IEnd=      178859 IEndB=      178859 NGot=  3758096384 MDV=  3668584382
 LenX=  3668584382 LenY=  3668565172
 Symmetry not used in FoFDir.
 MinBra= 0 MaxBra= 2 Meth= 1.
 IRaf=       0 NMat=   1 IRICut=       1 DoRegI=T DoRafI=F ISym2E= 0 JSym2E=0.
 Integral accuracy reduced to 1.0D-05 until final iterations.

 Cycle   1  Pass 0  IDiag  1:
 E= -268.889123314259    
 DIIS: error= 3.64D-03 at cycle   1 NSaved=   1.
 NSaved= 1 IEnMin= 1 EnMin= -268.889123314259     IErMin= 1 ErrMin= 3.64D-03
 ErrMax= 3.64D-03 EMaxC= 1.00D-01 BMatC= 9.58D-03 BMatP= 9.58D-03
 IDIUse=3 WtCom= 9.64D-01 WtEn= 3.64D-02
 Coeff-Com:  0.100D+01
 Coeff-En:   0.100D+01
 Coeff:      0.100D+01
 Gap=     0.222 Goal=   None    Shift=    0.000
 Gap=     0.212 Goal=   None    Shift=    0.000
 GapD=    0.212 DampG=1.000 DampE=1.000 DampFc=1.0000 IDamp=-1.
 RMSDP=5.13D-04 MaxDP=1.47D-02              OVMax= 2.38D-02

 Cycle   2  Pass 0  IDiag  1:
 E= -268.892175407403     Delta-E=       -0.003052093143 Rises=F Damp=F
 DIIS: error= 6.21D-04 at cycle   2 NSaved=   2.
 NSaved= 2 IEnMin= 2 EnMin= -268.892175407403     IErMin= 2 ErrMin= 6.21D-04
 ErrMax= 6.21D-04 EMaxC= 1.00D-01 BMatC= 2.21D-04 BMatP= 9.58D-03
 IDIUse=3 WtCom= 9.94D-01 WtEn= 6.21D-03
 Coeff-Com: -0.304D-01 0.103D+01
 Coeff-En:   0.000D+00 0.100D+01
 Coeff:     -0.302D-01 0.103D+01
 Gap=     0.220 Goal=   None    Shift=    0.000
 Gap=     0.210 Goal=   None    Shift=    0.000
 RMSDP=7.46D-05 MaxDP=2.11D-03 DE=-3.05D-03 OVMax= 3.37D-03

 Cycle   3  Pass 0  IDiag  1:
 E= -268.892181799942     Delta-E=       -0.000006392539 Rises=F Damp=F
 DIIS: error= 6.12D-04 at cycle   3 NSaved=   3.
 NSaved= 3 IEnMin= 3 EnMin= -268.892181799942     IErMin= 3 ErrMin= 6.12D-04
 ErrMax= 6.12D-04 EMaxC= 1.00D-01 BMatC= 2.60D-04 BMatP= 2.21D-04
 IDIUse=3 WtCom= 2.88D-01 WtEn= 7.12D-01
 Coeff-Com: -0.297D-01 0.556D+00 0.474D+00
 Coeff-En:   0.000D+00 0.449D+00 0.551D+00
 Coeff:     -0.855D-02 0.480D+00 0.529D+00
 Gap=     0.221 Goal=   None    Shift=    0.000
 Gap=     0.209 Goal=   None    Shift=    0.000
 RMSDP=5.03D-05 MaxDP=1.82D-03 DE=-6.39D-06 OVMax= 2.26D-03

 Cycle   4  Pass 0  IDiag  1:
 E= -268.892209054571     Delta-E=       -0.000027254629 Rises=F Damp=F
 DIIS: error= 3.77D-04 at cycle   4 NSaved=   4.
 NSaved= 4 IEnMin= 4 EnMin= -268.892209054571     IErMin= 4 ErrMin= 3.77D-04
 ErrMax= 3.77D-04 EMaxC= 1.00D-01 BMatC= 9.90D-05 BMatP= 2.21D-04
 IDIUse=3 WtCom= 9.96D-01 WtEn= 3.77D-03
 Coeff-Com: -0.987D-02 0.140D+00 0.376D+00 0.494D+00
 Coeff-En:   0.000D+00 0.000D+00 0.316D+00 0.684D+00
 Coeff:     -0.983D-02 0.139D+00 0.376D+00 0.495D+00
 Gap=     0.221 Goal=   None    Shift=    0.000
 Gap=     0.209 Goal=   None    Shift=    0.000
 RMSDP=2.15D-05 MaxDP=5.22D-04 DE=-2.73D-05 OVMax= 9.52D-04

 Cycle   5  Pass 0  IDiag  1:
 E= -268.892225561027     Delta-E=       -0.000016506456 Rises=F Damp=F
 DIIS: error= 5.14D-05 at cycle   5 NSaved=   5.
 NSaved= 5 IEnMin= 5 EnMin= -268.892225561027     IErMin= 5 ErrMin= 5.14D-05
 ErrMax= 5.14D-05 EMaxC= 1.00D-01 BMatC= 2.86D-06 BMatP= 9.90D-05
 IDIUse=1 WtCom= 1.00D+00 WtEn= 0.00D+00
 Coeff-Com: -0.303D-02 0.329D-01 0.169D+00 0.268D+00 0.534D+00
 Coeff:     -0.303D-02 0.329D-01 0.169D+00 0.268D+00 0.534D+00
 Gap=     0.221 Goal=   None    Shift=    0.000
 Gap=     0.209 Goal=   None    Shift=    0.000
 RMSDP=5.39D-06 MaxDP=1.42D-04 DE=-1.65D-05 OVMax= 1.85D-04

 Initial convergence to 1.0D-05 achieved.  Increase integral accuracy.
 Cycle   6  Pass 1  IDiag  1:
 E= -268.892242428647     Delta-E=       -0.000016867620 Rises=F Damp=F
 DIIS: error= 1.65D-05 at cycle   1 NSaved=   1.
 NSaved= 1 IEnMin= 1 EnMin= -268.892242428647     IErMin= 1 ErrMin= 1.65D-05
 ErrMax= 1.65D-05 EMaxC= 1.00D-01 BMatC= 2.05D-07 BMatP= 2.05D-07
 IDIUse=1 WtCom= 1.00D+00 WtEn= 0.00D+00
 Coeff-Com:  0.100D+01
 Coeff:      0.100D+01
 Gap=     0.221 Goal=   None    Shift=    0.000
 Gap=     0.209 Goal=   None    Shift=    0.000
 RMSDP=5.39D-06 MaxDP=1.42D-04 DE=-1.69D-05 OVMax= 9.11D-05

 Cycle   7  Pass 1  IDiag  1:
 E= -268.892242433103     Delta-E=       -0.000000004456 Rises=F Damp=F
 DIIS: error= 1.77D-05 at cycle   2 NSaved=   2.
 NSaved= 2 IEnMin= 2 EnMin= -268.892242433103     IErMin= 1 ErrMin= 1.65D-05
 ErrMax= 1.77D-05 EMaxC= 1.00D-01 BMatC= 2.58D-07 BMatP= 2.05D-07
 IDIUse=1 WtCom= 1.00D+00 WtEn= 0.00D+00
 Coeff-Com:  0.533D+00 0.467D+00
 Coeff:      0.533D+00 0.467D+00
 Gap=     0.221 Goal=   None    Shift=    0.000
 Gap=     0.209 Goal=   None    Shift=    0.000
 RMSDP=1.58D-06 MaxDP=4.16D-05 DE=-4.46D-09 OVMax= 5.30D-05

 Cycle   8  Pass 1  IDiag  1:
 E= -268.892242476039     Delta-E=       -0.000000042936 Rises=F Damp=F
 DIIS: error= 4.30D-06 at cycle   3 NSaved=   3.
 NSaved= 3 IEnMin= 3 EnMin= -268.892242476039     IErMin= 3 ErrMin= 4.30D-06
 ErrMax= 4.30D-06 EMaxC= 1.00D-01 BMatC= 1.69D-08 BMatP= 2.05D-07
 IDIUse=1 WtCom= 1.00D+00 WtEn= 0.00D+00
 Coeff-Com:  0.828D-01 0.211D+00 0.706D+00
 Coeff:      0.828D-01 0.211D+00 0.706D+00
 Gap=     0.221 Goal=   None    Shift=    0.000
 Gap=     0.209 Goal=   None    Shift=    0.000
 RMSDP=4.39D-07 MaxDP=9.16D-06 DE=-4.29D-08 OVMax= 1.78D-05

 Cycle   9  Pass 1  IDiag  1:
 E= -268.892242477778     Delta-E=       -0.000000001739 Rises=F Damp=F
 DIIS: error= 3.17D-06 at cycle   4 NSaved=   4.
 NSaved= 4 IEnMin= 4 EnMin= -268.892242477778     IErMin= 4 ErrMin= 3.17D-06
 ErrMax= 3.17D-06 EMaxC= 1.00D-01 BMatC= 8.51D-09 BMatP= 1.69D-08
 IDIUse=1 WtCom= 1.00D+00 WtEn= 0.00D+00
 Coeff-Com: -0.101D-01 0.873D-01 0.493D+00 0.430D+00
 Coeff:     -0.101D-01 0.873D-01 0.493D+00 0.430D+00
 Gap=     0.221 Goal=   None    Shift=    0.000
 Gap=     0.209 Goal=   None    Shift=    0.000
 RMSDP=2.04D-07 MaxDP=6.61D-06 DE=-1.74D-09 OVMax= 9.00D-06

 Cycle  10  Pass 1  IDiag  1:
 E= -268.892242479264     Delta-E=       -0.000000001486 Rises=F Damp=F
 DIIS: error= 3.97D-07 at cycle   5 NSaved=   5.
 NSaved= 5 IEnMin= 5 EnMin= -268.892242479264     IErMin= 5 ErrMin= 3.97D-07
 ErrMax= 3.97D-07 EMaxC= 1.00D-01 BMatC= 1.31D-10 BMatP= 8.51D-09
 IDIUse=1 WtCom= 1.00D+00 WtEn= 0.00D+00
 Coeff-Com: -0.146D-01 0.129D-02 0.751D-01 0.133D+00 0.805D+00
 Coeff:     -0.146D-01 0.129D-02 0.751D-01 0.133D+00 0.805D+00
 Gap=     0.221 Goal=   None    Shift=    0.000
 Gap=     0.209 Goal=   None    Shift=    0.000
 RMSDP=4.87D-08 MaxDP=1.49D-06 DE=-1.49D-09 OVMax= 3.76D-06

 Cycle  11  Pass 1  IDiag  1:
 E= -268.892242479303     Delta-E=       -0.000000000039 Rises=F Damp=F
 DIIS: error= 1.90D-07 at cycle   6 NSaved=   6.
 NSaved= 6 IEnMin= 6 EnMin= -268.892242479303     IErMin= 6 ErrMin= 1.90D-07
 ErrMax= 1.90D-07 EMaxC= 1.00D-01 BMatC= 1.05D-11 BMatP= 1.31D-10
 IDIUse=1 WtCom= 1.00D+00 WtEn= 0.00D+00
 Coeff-Com: -0.182D-02-0.678D-02-0.247D-01-0.831D-02 0.167D+00 0.874D+00
 Coeff:     -0.182D-02-0.678D-02-0.247D-01-0.831D-02 0.167D+00 0.874D+00
 Gap=     0.221 Goal=   None    Shift=    0.000
 Gap=     0.209 Goal=   None    Shift=    0.000
 RMSDP=2.00D-08 MaxDP=6.51D-07 DE=-3.91D-11 OVMax= 1.37D-06

 Cycle  12  Pass 1  IDiag  1:
 E= -268.892242479307     Delta-E=       -0.000000000003 Rises=F Damp=F
 DIIS: error= 8.59D-08 at cycle   7 NSaved=   7.
 NSaved= 7 IEnMin= 7 EnMin= -268.892242479307     IErMin= 7 ErrMin= 8.59D-08
 ErrMax= 8.59D-08 EMaxC= 1.00D-01 BMatC= 4.54D-12 BMatP= 1.05D-11
 IDIUse=1 WtCom= 1.00D+00 WtEn= 0.00D+00
 Coeff-Com:  0.146D-02-0.406D-02-0.266D-01-0.269D-01-0.478D-01 0.462D+00
 Coeff-Com:  0.642D+00
 Coeff:      0.146D-02-0.406D-02-0.266D-01-0.269D-01-0.478D-01 0.462D+00
 Coeff:      0.642D+00
 Gap=     0.221 Goal=   None    Shift=    0.000
 Gap=     0.209 Goal=   None    Shift=    0.000
 RMSDP=8.36D-09 MaxDP=2.19D-07 DE=-3.47D-12 OVMax= 5.85D-07

 SCF Done:  E(UB3LYP) =  -268.892242479     A.U. after   12 cycles
             Convg  =    0.8356D-08             -V/T =  2.0033
 <Sx>= 0.0000 <Sy>= 0.0000 <Sz>= 0.5000 <S**2>= 0.7538 S= 0.5019
 <L.S>= 0.000000000000E+00
 KE= 2.680172291980D+02 PE=-9.909237732851D+02 EE= 2.738654333054D+02
 Annihilation of the first spin contaminant:
 S**2 before annihilation     0.7538,   after     0.7500
 Leave Link  502 at Sat Jun  6 17:50:28 2015, MaxMem= 3758096384 cpu:      94.4
 (Enter /share/apps/g09/l701.exe)
 Compute integral first derivatives.
 ... and contract with generalized density number  0.
 Leave Link  701 at Sat Jun  6 17:50:29 2015, MaxMem= 3758096384 cpu:       6.4
 (Enter /share/apps/g09/l702.exe)
 L702 exits ... SP integral derivatives will be done elsewhere.
 Leave Link  702 at Sat Jun  6 17:50:29 2015, MaxMem= 3758096384 cpu:       0.2
 (Enter /share/apps/g09/l703.exe)
 Compute integral first derivatives, UseDBF=F ICtDFT=           0.
 Integral derivatives from FoFDir, PRISM(SPDF).
 Calling FoFJK, ICntrl=      2127 FMM=F ISym2X=0 I1Cent= 0 IOpClX= 1 NMat=1 NMatS=1 NMatT=0.
 FoFCou: FMM=F IPFlag=           0 FMFlag=      100000 FMFlg1=         800
         NFxFlg=           0 DoJE=F BraDBF=F KetDBF=F FulRan=T
         Omega=  0.000000  0.000000  1.000000  0.000000  0.000000 ICntrl=    2127 IOpCl=  1
         NMat0=    1 NMatS0=    1 NMatT0=    0 NMatD0=    1 NMtDS0=    0 NMtDT0=    0
         I1Cent=           0 NGrid=           0.
 Symmetry not used in FoFCou.
 Leave Link  703 at Sat Jun  6 17:50:32 2015, MaxMem= 3758096384 cpu:      27.9
 (Enter /share/apps/g09/l716.exe)
 Dipole        =-3.30694354D-02 1.93393128D-01 5.25618565D-01
 ***** Axes restored to original set *****
 -------------------------------------------------------------------
 Center     Atomic                   Forces (Hartrees/Bohr)
 Number     Number              X              Y              Z
 -------------------------------------------------------------------
      1        8           0.000907499   -0.000794879    0.001209817
      2        1          -0.001114890    0.000025436    0.000259829
      3        8          -0.001186927    0.000312038   -0.000990926
      4        6           0.001118381   -0.000209714   -0.000050045
      5        1           0.000106482    0.000310564   -0.000170073
      6        1           0.000092487    0.000257852   -0.000027681
      7        6          -0.000014177    0.000369970   -0.000430045
      8        1           0.000045016   -0.000050430    0.000000708
      9        1           0.000079582    0.000013600    0.000106179
     10        6          -0.000014354   -0.000251610    0.000047641
     11        1          -0.000027407    0.000020422    0.000022710
     12        1           0.000008308   -0.000003249    0.000021887
 -------------------------------------------------------------------
 Cartesian Forces:  Max     0.001209817 RMS     0.000489911
 Leave Link  716 at Sat Jun  6 17:50:32 2015, MaxMem= 3758096384 cpu:       0.2
 (Enter /share/apps/g09/l103.exe)

 GradGradGradGradGradGradGradGradGradGradGradGradGradGradGradGradGradGrad
 Berny optimization.
 Using GEDIIS/GDIIS optimizer.
 Internal  Forces:  Max     0.003054446 RMS     0.000564515
 Search for a local minimum.
 Step number   2 out of a maximum of   57
 All quantities printed in internal units (Hartrees-Bohrs-Radians)
 RMS Force = .56452D-03 SwitMx=.10000D-02 MixMth= 2
 Mixed Optimization -- En-DIIS/RFO-DIIS
 Swaping is turned off.
 Update second derivatives using D2CorX and points    1    2
 DE= -6.57D-05 DEPred=-9.04D-05 R= 7.27D-01
 SS=  1.41D+00  RLast= 1.48D-01 DXNew= 5.0454D-01 4.4263D-01
 Trust test= 7.27D-01 RLast= 1.48D-01 DXMaxT set to 4.43D-01
     Eigenvalues ---    0.00334   0.00401   0.00913   0.00955   0.01375
     Eigenvalues ---    0.04159   0.04669   0.05531   0.05586   0.09192
     Eigenvalues ---    0.11847   0.12854   0.14025   0.15990   0.16000
     Eigenvalues ---    0.17979   0.21815   0.22062   0.29156   0.33094
     Eigenvalues ---    0.33542   0.33957   0.34115   0.34325   0.34378
     Eigenvalues ---    0.35460   0.35740   0.38230   0.45598   0.54332
     Eigenvalues --- 1000.000001000.000001000.000001000.000001000.00000
     Eigenvalues --- 1000.000001000.000001000.000001000.000001000.00000
     Eigenvalues --- 1000.000001000.000001000.000001000.000001000.00000
     Eigenvalues --- 1000.000001000.00000
 En-DIIS/RFO-DIIS IScMMF=        0 using points:     2    1
 RFO step:  Lambda=-2.45947837D-05.
 DIIS coeffs:      0.77423      0.22577
 Iteration  1 RMS(Cart)=  0.00573313 RMS(Int)=  0.00010387
 Iteration  2 RMS(Cart)=  0.00010052 RMS(Int)=  0.00000075
 Iteration  3 RMS(Cart)=  0.00000002 RMS(Int)=  0.00000075
 Variable       Old X    -DE/DX   Delta X   Delta X   Delta X     New X
                                  (DIIS)     (GDIIS)  (Total)
    R1        1.82619   0.00025   0.00033  -0.00023   0.00010   1.82629
    R2        2.75570   0.00045   0.00077  -0.00046   0.00032   2.75602
    R3        2.68760   0.00091   0.00073   0.00038   0.00111   2.68871
    R4        2.06817   0.00012  -0.00002   0.00030   0.00028   2.06845
    R5        2.07257   0.00017  -0.00010   0.00057   0.00048   2.07305
    R6        2.89573   0.00017   0.00012   0.00024   0.00036   2.89609
[...]
     Eigenvalues ---    0.16280   0.17057   0.22924   0.26054   0.26954
     Eigenvalues ---    0.29638   0.31617   0.32400   0.33016   0.33670
     Eigenvalues ---    0.34426   0.35679   0.36266   0.40773   0.51020
     Eigenvalues --- 1000.000001000.000001000.000001000.000001000.00000
     Eigenvalues --- 1000.000001000.000001000.000001000.000001000.00000
     Eigenvalues --- 1000.000001000.000001000.000001000.000001000.00000
     Eigenvalues --- 1000.000001000.00000
 Angle between quadratic step and forces=  84.79 degrees.
 Linear search not attempted -- first point.
 Iteration  1 RMS(Cart)=  0.00010356 RMS(Int)=  0.00000001
 Iteration  2 RMS(Cart)=  0.00000001 RMS(Int)=  0.00000000
 Variable       Old X    -DE/DX   Delta X   Delta X   Delta X     New X
                                 (Linear)    (Quad)   (Total)
    R1        1.82706   0.00000   0.00000   0.00000   0.00000   1.82706
    R2        2.75151   0.00000   0.00000   0.00000   0.00000   2.75151
    R3        2.68983  -0.00001   0.00000  -0.00003  -0.00003   2.68981
    R4        2.06822   0.00000   0.00000   0.00000   0.00000   2.06822
    R5        2.07342   0.00000   0.00000   0.00000   0.00000   2.07343
    R6        2.89755   0.00000   0.00000   0.00000   0.00000   2.89755
    R7        2.06740   0.00000   0.00000   0.00000   0.00000   2.06740
    R8        2.08046   0.00000   0.00000   0.00001   0.00001   2.08046
    R9        2.81292   0.00000   0.00000  -0.00001  -0.00001   2.81291
   R10        2.04933   0.00000   0.00000   0.00000   0.00000   2.04933
   R11        2.04453   0.00000   0.00000   0.00000   0.00000   2.04454
    A1        1.74308   0.00000   0.00000   0.00000   0.00000   1.74307
    A2        1.87419   0.00000   0.00000   0.00000   0.00000   1.87420
    A3        1.79857   0.00000   0.00000   0.00000   0.00000   1.79857
    A4        1.91583   0.00000   0.00000   0.00001   0.00001   1.91584
    A5        1.97680   0.00000   0.00000   0.00001   0.00001   1.97682
    A6        1.89561   0.00000   0.00000   0.00000   0.00000   1.89561
    A7        1.93605   0.00000   0.00000  -0.00001  -0.00001   1.93604
    A8        1.93523   0.00000   0.00000  -0.00001  -0.00001   1.93521
    A9        1.90050   0.00000   0.00000   0.00001   0.00001   1.90051
   A10        1.86672   0.00000   0.00000   0.00001   0.00001   1.86673
   A11        1.96492   0.00000   0.00000   0.00000   0.00000   1.96491
   A12        1.85583   0.00000   0.00000  -0.00002  -0.00002   1.85581
   A13        1.93879   0.00000   0.00000   0.00000   0.00000   1.93879
   A14        1.93244   0.00000   0.00000   0.00001   0.00001   1.93245
   A15        2.10361   0.00000   0.00000   0.00001   0.00001   2.10362
   A16        2.11923   0.00000   0.00000  -0.00001  -0.00001   2.11923
   A17        2.05372   0.00000   0.00000  -0.00001  -0.00001   2.05370
    D1       -1.99840   0.00000   0.00000  -0.00006  -0.00006  -1.99846
    D2        2.99768   0.00000   0.00000   0.00003   0.00003   2.99772
    D3        0.98082   0.00000   0.00000   0.00003   0.00003   0.98085
    D4       -1.19255   0.00000   0.00000   0.00003   0.00003  -1.19252
    D5       -1.00206   0.00000   0.00000   0.00000   0.00000  -1.00206
    D6        0.99671   0.00000   0.00000  -0.00001  -0.00001   0.99670
    D7        3.12304   0.00000   0.00000   0.00000   0.00000   3.12304
    D8        1.01051   0.00000   0.00000   0.00001   0.00001   1.01052
    D9        3.00928   0.00000   0.00000   0.00000   0.00000   3.00928
   D10       -1.14757   0.00000   0.00000   0.00001   0.00001  -1.14757
   D11        3.11832   0.00000   0.00000  -0.00001  -0.00001   3.11831
   D12       -1.16610   0.00000   0.00000  -0.00003  -0.00003  -1.16612
   D13        0.96024   0.00000   0.00000  -0.00001  -0.00001   0.96022
   D14       -0.80377   0.00000   0.00000   0.00026   0.00026  -0.80351
   D15        2.46416   0.00000   0.00000   0.00033   0.00033   2.46449
   D16       -2.94044   0.00000   0.00000   0.00025   0.00025  -2.94019
   D17        0.32749   0.00000   0.00000   0.00033   0.00033   0.32782
   D18        1.28487   0.00000   0.00000   0.00027   0.00027   1.28514
   D19       -1.73039   0.00000   0.00000   0.00035   0.00035  -1.73005
         Item               Value     Threshold  Converged?
 Maximum Force            0.000005     0.000450     YES
 RMS     Force            0.000001     0.000300     YES
 Maximum Displacement     0.000470     0.001800     YES
 RMS     Displacement     0.000104     0.001200     YES
 Predicted change in Energy=-2.334558D-10
 Optimization completed.
    -- Stationary point found.
                           ----------------------------
                           !   Optimized Parameters   !
                           ! (Angstroms and Degrees)  !
 --------------------------                            --------------------------
 ! Name  Definition              Value          Derivative Info.                !
 --------------------------------------------------------------------------------
 ! R1    R(1,2)                  0.9668         -DE/DX =    0.0                 !
 ! R2    R(1,3)                  1.456          -DE/DX =    0.0                 !
 ! R3    R(3,4)                  1.4234         -DE/DX =    0.0                 !
 ! R4    R(4,5)                  1.0945         -DE/DX =    0.0                 !
 ! R5    R(4,6)                  1.0972         -DE/DX =    0.0                 !
 ! R6    R(4,7)                  1.5333         -DE/DX =    0.0                 !
 ! R7    R(7,8)                  1.094          -DE/DX =    0.0                 !
 ! R8    R(7,9)                  1.1009         -DE/DX =    0.0                 !
 ! R9    R(7,10)                 1.4885         -DE/DX =    0.0                 !
 ! R10   R(10,11)                1.0845         -DE/DX =    0.0                 !
 ! R11   R(10,12)                1.0819         -DE/DX =    0.0                 !
 ! A1    A(2,1,3)               99.8709         -DE/DX =    0.0                 !
 ! A2    A(1,3,4)              107.3833         -DE/DX =    0.0                 !
 ! A3    A(3,4,5)              103.0503         -DE/DX =    0.0                 !
 ! A4    A(3,4,6)              109.7691         -DE/DX =    0.0                 !
 ! A5    A(3,4,7)              113.2625         -DE/DX =    0.0                 !
 ! A6    A(5,4,6)              108.6107         -DE/DX =    0.0                 !
 ! A7    A(5,4,7)              110.9276         -DE/DX =    0.0                 !
 ! A8    A(6,4,7)              110.8803         -DE/DX =    0.0                 !
 ! A9    A(4,7,8)              108.8908         -DE/DX =    0.0                 !
 ! A10   A(4,7,9)              106.9552         -DE/DX =    0.0                 !
 ! A11   A(4,7,10)             112.5814         -DE/DX =    0.0                 !
 ! A12   A(8,7,9)              106.331          -DE/DX =    0.0                 !
 ! A13   A(8,7,10)             111.0844         -DE/DX =    0.0                 !
 ! A14   A(9,7,10)             110.7209         -DE/DX =    0.0                 !
 ! A15   A(7,10,11)            120.5278         -DE/DX =    0.0                 !
 ! A16   A(7,10,12)            121.4232         -DE/DX =    0.0                 !
 ! A17   A(11,10,12)           117.6693         -DE/DX =    0.0                 !
 ! D1    D(2,1,3,4)           -114.4999         -DE/DX =    0.0                 !
 ! D2    D(1,3,4,5)            171.7546         -DE/DX =    0.0                 !
 ! D3    D(1,3,4,6)             56.1966         -DE/DX =    0.0                 !
 ! D4    D(1,3,4,7)            -68.3281         -DE/DX =    0.0                 !
 ! D5    D(3,4,7,8)            -57.4138         -DE/DX =    0.0                 !
 ! D6    D(3,4,7,9)             57.1072         -DE/DX =    0.0                 !
 ! D7    D(3,4,7,10)           178.937          -DE/DX =    0.0                 !
 ! D8    D(5,4,7,8)             57.898          -DE/DX =    0.0                 !
 ! D9    D(5,4,7,9)            172.419          -DE/DX =    0.0                 !
 ! D10   D(5,4,7,10)           -65.7512         -DE/DX =    0.0                 !
 ! D11   D(6,4,7,8)            178.6666         -DE/DX =    0.0                 !
 ! D12   D(6,4,7,9)            -66.8124         -DE/DX =    0.0                 !
 ! D13   D(6,4,7,10)            55.0174         -DE/DX =    0.0                 !
 ! D14   D(4,7,10,11)          -46.0525         -DE/DX =    0.0                 !
 ! D15   D(4,7,10,12)          141.1859         -DE/DX =    0.0                 !
 ! D16   D(8,7,10,11)         -168.4746         -DE/DX =    0.0                 !
 ! D17   D(8,7,10,12)           18.7637         -DE/DX =    0.0                 !
 ! D18   D(9,7,10,11)           73.6174         -DE/DX =    0.0                 !
 ! D19   D(9,7,10,12)          -99.1443         -DE/DX =    0.0                 !
 --------------------------------------------------------------------------------
 GradGradGradGradGradGradGradGradGradGradGradGradGradGradGradGradGradGrad

 Leave Link  103 at Sat Jun  6 17:55:17 2015, MaxMem= 3758096384 cpu:       6.9
 (Enter /share/apps/g09/l9999.exe)
 1\1\GINC-COMPUTE-0-0\Freq\UB3LYP\6-311G(2d,d,p)\C3H7O2(2)\HETANJIN\06-
 Jun-2015\0\\#P Geom=AllCheck Guess=TCheck SCRF=Check GenChk UB3LYP/6-3
 11G(2d,d,p) Freq\\using ub3lyp/6-31G(d) to scan\\0,2\O,0.0110680443,-0
 .0424227534,-0.0104456341\H,0.0114084503,0.1345568982,0.9400593705\O,1
 .4444479102,-0.035182652,-0.2662044956\C,1.7199191423,1.0761216695,-1.
 1118895278\H,2.813779459,1.1049299968,-1.1336823744\H,1.3546095037,1.9
 985571441,-0.6433502164\C,1.1479437518,0.9176752642,-2.52567853\H,1.55
 06656442,0.0027576827,-2.970223049\H,0.0640175991,0.7581554252,-2.4174
 794138\C,1.4228865917,2.0985730033,-3.3891737111\H,1.2598690209,3.1037
 00622,-3.0160853192\H,1.6771998825,1.9858476992,-4.4347220991\\Version
 =EM64L-G09RevA.01\State=2-A\HF=-268.8922748\S2=0.753819\S2-1=0.\S2A=0.
 75001\RMSD=1.723e-09\RMSF=2.323e-06\ZeroPoint=0.0963529\Thermal=0.1034
 791\Dipole=0.0492716,0.5318864,0.2491857\DipoleDeriv=-0.3651689,-0.110
 7315,0.1736609,0.0339446,-0.3596466,0.097317,0.1643767,0.1604672,-0.21
 30411,0.2296269,-0.0209726,-0.0585421,-0.0135982,0.3264833,-0.0501047,
 -0.0469714,-0.0619846,0.2001732,-0.0658023,0.0365496,-0.071376,-0.0374
 209,-0.4088325,0.1781751,-0.0990802,0.1097765,-0.5117814,0.2817165,-0.
 019599,0.0388238,0.0574547,0.5208742,-0.1365486,-0.0731261,-0.196834,0
 .687239,-0.1158484,-0.0060305,-0.0374567,-0.0153984,0.0440309,0.034086
 2,0.029362,0.0362464,0.0049901,0.032944,0.0975982,0.0203742,0.0020989,
 -0.14506,-0.0512546,0.0376017,-0.0698385,-0.0744725,0.1062322,-0.04611
 07,-0.0217666,-0.0712356,0.0187022,0.0127155,-0.0091764,0.067936,-0.13
 38231,0.041453,0.0739558,0.0160095,0.0507003,-0.1029746,-0.0649796,0.0
 113918,-0.0398488,-0.0119495,-0.0877032,-0.0351483,-0.0001031,-0.02404
 9,0.0383057,0.0141768,0.0279791,0.0178125,0.0697016,-0.3114019,0.00835
 24,-0.1617725,-0.009004,0.150251,-0.0249053,-0.1339909,0.0122954,0.071
 6614,0.11964,0.0247414,0.0423575,0.0184174,-0.0995452,-0.0116927,0.038
 2664,-0.060537,0.009533,0.1343122,-0.0026048,0.059791,0.0080903,0.0174
 116,0.0030148,0.0533673,0.0245088,-0.0982306\Polar=40.4691804,2.972284
 3,41.3731696,-5.3077807,-5.2714812,49.0139285\PG=C01 [X(C3H7O2)]\NImag
 =0\\0.26518128,0.02123435,0.04626633,-0.02234661,0.07892661,0.56476461
 ,-0.03567566,-0.01048679,-0.05249095,0.06348322,-0.00618058,-0.0171513
 2,-0.09442572,0.00544497,0.01850619,-0.00089842,-0.09143987,-0.4953696
 2,0.00343650,0.08998913,0.49339445,-0.20694476,0.02865618,0.04047192,-
 0.02334304,0.00359575,-0.00356652,0.31129219,-0.00462740,-0.03324181,0
 .01624876,0.00319106,-0.00033911,0.00053941,-0.01086568,0.24061871,0.0
 1556368,0.00657296,-0.06266072,0.04796284,0.00195046,0.00392092,-0.062
 30835,-0.12894938,0.19549224,-0.03373996,-0.03704717,0.03435796,-0.005
 25965,-0.00205011,0.00036150,-0.07291275,0.02775394,-0.01532861,0.6069
 2457,-0.00894553,0.00088918,-0.00460221,0.00334003,0.00133157,0.001511
 49,-0.00888276,-0.16247141,0.07267743,-0.05046522,0.50860989,0.0060360
 8,0.00235254,-0.00277263,0.00113764,0.00259865,-0.00249260,0.01407169,
 0.06589667,-0.10962015,-0.01387452,0.05232695,0.44132199,0.00383675,-0
 .00225211,0.00047635,-0.00004303,-0.00025490,-0.00016869,-0.01348806,-
 0.00352077,0.00525071,-0.30509728,-0.00130320,0.00584602,0.33232015,-0
 .00387016,-0.00338961,0.00393807,-0.00095924,-0.00072170,-0.00022608,-
 0.02903526,-0.00254145,0.00476245,0.00621917,-0.05153778,-0.00160454,0
 .00728212,0.05328955,0.00417550,0.00487823,-0.00313109,0.00059584,0.00
 015568,0.00038514,0.02219607,0.00098706,-0.00287925,0.00105484,0.00083
 965,-0.04632554,-0.00846079,-0.00493423,0.05570538,0.00326124,-0.00094
 334,-0.00295709,0.00081923,-0.00026018,0.00053607,0.00125792,-0.009948
 35,0.00116962,-0.08392145,0.07534271,0.03803508,-0.00875215,0.02558052
 ,0.01278767,0.08133840,0.00127303,0.00534365,-0.00028880,-0.00048379,-
 0.00101792,-0.00002341,0.00683035,-0.03951081,0.00333607,0.06853755,-0
 .20901859,-0.09282350,0.00029845,0.00282907,-0.00008522,-0.07824911,0.
 24206517,-0.00221730,-0.00140029,0.00114528,-0.00020571,0.00002367,-0.
 00039555,-0.00596568,0.02842753,0.00718387,0.04147992,-0.09481532,-0.1
 0114194,-0.00011637,-0.00057342,0.00031356,-0.04052876,0.09346217,0.11
 027271,0.00327470,0.00134841,0.00068591,-0.00064824,-0.00005030,-0.000
 25176,0.00448009,-0.00216703,0.00774984,-0.09410083,-0.00122819,-0.041
 12418,-0.01046625,-0.00408550,-0.03052968,0.00495192,0.00236384,0.0108
 2563,0.49616263,0.00014721,0.00161152,-0.00023976,0.00029970,-0.000602
 66,-0.00058556,0.01007864,-0.00685994,0.04080295,-0.00921391,-0.081515
 66,-0.03594813,0.00076678,0.00108071,-0.00013997,-0.01024813,-0.002817
 86,-0.02511274,-0.02808303,0.54881376,-0.00054445,-0.00042894,-0.00117
 433,-0.00069176,-0.00002308,0.00043875,-0.00317251,0.01435022,-0.02874
 172,-0.03492428,-0.02396834,-0.14187372,-0.00103927,-0.00181200,-0.001
 34350,-0.00789601,-0.00356306,-0.01500126,-0.03888595,0.03167684,0.449
 26517,-0.00031192,-0.00012203,0.00057953,-0.00004396,-0.00014406,-0.00
 000878,0.00010615,0.00012541,0.00125728,0.00474747,-0.01276810,-0.0063
 0466,0.00081250,-0.00058446,0.00057052,0.00005300,-0.00039854,-0.00311
 194,-0.08496857,0.08439643,0.03927643,0.08943033,0.00002081,-0.0000632
 3,-0.00009310,-0.00006806,-0.00007078,0.00003958,-0.00009915,0.0019196
 6,-0.00001973,0.00127698,-0.00456444,-0.00135917,-0.00040639,0.0002144
 2,-0.00010123,-0.00065173,0.00071338,-0.00012409,0.08161532,-0.2228191
 5,-0.08722075,-0.08783731,0.24543185,0.00002618,0.00032245,-0.00022003
 ,-0.00004270,-0.00011769,0.00001209,0.00028041,0.00111423,0.00322271,0
 .01188174,-0.02777824,-0.01506952,-0.00007159,0.00048380,0.00137017,-0
 .00269743,-0.00009662,-0.00541149,0.03880539,-0.08613968,-0.09172706,-
 0.04282783,0.09425889,0.10060034,0.00077259,-0.00033168,0.00133220,0.0
 0046407,-0.00009918,0.00036106,-0.00047537,-0.00030777,0.00098519,-0.0
 1713193,-0.00136035,-0.00163404,0.00018272,-0.00083553,-0.00247787,0.0
 0084060,-0.00001264,-0.00013969,-0.27552515,-0.02251235,0.01833732,-0.
 01255782,-0.00060185,0.00137105,0.30650944,0.00035121,-0.00040051,0.00
 068527,-0.00016619,0.00002619,-0.00000959,0.00036913,-0.00006426,-0.00
 015605,-0.00509338,0.00049819,-0.00042720,-0.00036757,0.00061727,-0.00
 024228,-0.00039624,0.00006114,0.00035044,-0.03440843,-0.04829412,-0.00
 122750,0.02664857,0.00342720,-0.00287092,0.03541301,0.05291675,0.00111
 141,0.00069774,-0.00112761,0.00022128,-0.00027975,0.00001115,0.0005614
 4,-0.00077271,0.00328757,-0.03503793,-0.00468637,-0.00195183,-0.002051
 92,-0.00013437,-0.00581967,0.00066222,0.00022357,0.00125514,0.02986481
 ,0.00007178,-0.04079678,0.01307953,0.00123105,-0.00130222,-0.02501230,
 -0.00471982,0.05306198,0.00050826,-0.00004716,-0.00011176,0.00024150,0
 .00000588,0.00023370,-0.00003684,0.00033632,-0.00244029,0.00093163,0.0
 0669737,-0.00106535,0.00092748,0.00015254,0.00023085,0.00003980,-0.000
 27067,-0.00010572,-0.05000536,-0.02169151,0.02768991,0.00180095,0.0076
 2210,-0.00724318,-0.00204185,-0.02292108,0.01745104,0.09625876,0.00052
 242,0.00009554,-0.00002645,-0.00025777,0.00013090,0.00024606,-0.000872
 46,0.00258557,-0.00371842,0.00281288,0.00071563,0.01159315,-0.00047447
 ,0.00021733,-0.00147918,-0.00021737,0.00062170,-0.00181832,-0.01782398
 ,-0.17854438,0.05945437,-0.00798708,-0.02334513,0.01827141,-0.00819965
 ,-0.00799893,0.00733274,-0.01933379,0.55908270,-0.00086251,-0.00045355
 ,0.00048009,0.00015087,0.00011054,0.00004565,-0.00223018,0.00238363,-0
 .00783446,0.00871584,0.02521942,-0.02236987,0.00058484,0.00012977,0.00
 193471,0.00054933,0.00033108,0.00168001,0.02489147,0.06573386,-0.12960
 995,-0.00279568,-0.01007141,0.00918733,0.00683354,0.00810923,-0.005909
 96,-0.14047982,0.03401729,0.56447427,-0.00003578,-0.00001469,0.0000349
 1,0.00000209,-0.00000404,-0.00000773,-0.00020371,-0.00009112,-0.000015
 17,0.00051457,0.00038559,0.00094516,-0.00023117,0.00011057,-0.00011015
 ,0.00012101,-0.00002262,0.00003880,0.00305276,-0.00699455,-0.00431436,
 0.00089692,-0.00020267,0.00129921,0.00010317,0.00116041,-0.00011348,-0
 .02128910,0.04372736,0.02871490,0.01480811,-0.00000431,0.00002076,-0.0
 0002327,0.00006387,-0.00005166,0.00000659,-0.00018012,0.00048141,0.000
 49072,-0.00026016,0.00016681,-0.00206135,0.00008630,-0.00003956,0.0001
 1794,0.00004762,0.00036722,0.00117834,0.00615347,-0.01566524,-0.010252
 51,-0.00168105,-0.00231897,0.00312714,-0.00037065,0.00013061,-0.000020
 84,0.03996227,-0.29595776,-0.09192120,-0.04379305,0.31223696,0.0000023
 0,-0.00002864,0.00002630,-0.00002314,0.00003178,-0.00002325,0.00007506
 ,-0.00061774,-0.00020477,-0.00044753,0.00138203,0.00202484,-0.00010289
 ,-0.00007864,-0.00012918,0.00027083,-0.00040848,-0.00013945,-0.0036402
 9,0.01479927,0.00847166,0.00069986,0.00339449,-0.00156795,0.00036454,0
 .00017536,0.00027491,0.02682544,-0.09134816,-0.08803655,-0.02791595,0.
 09734285,0.08402696,-0.00012674,0.00000603,-0.00003237,0.00000349,-0.0
 0000324,-0.00002693,0.00026817,0.00012138,0.00015325,-0.00095438,-0.00
 081237,-0.00206894,-0.00000165,0.00002523,-0.00003279,-0.00000953,0.00
 013414,0.00004682,0.00379230,0.00305471,0.00616493,0.00003496,-0.00066
 805,-0.00078126,-0.00114047,-0.00058943,-0.00073609,-0.02733523,0.0081
 0392,0.07592741,0.00226112,-0.00002420,0.00389176,0.02320796,0.0000789
 5,0.00001949,-0.00009941,0.00008219,-0.00003971,-0.00004776,0.00040538
 ,-0.00057655,0.00225056,-0.00247057,-0.00310341,-0.00054408,0.00014577
 ,-0.00001825,0.00000355,-0.00005641,0.00036385,0.00040204,-0.00363458,
 0.00561303,0.02301475,0.00035221,0.00147520,-0.00057477,-0.00078136,-0
 .00091951,0.00105697,0.00948772,-0.05760318,-0.03358865,0.00573881,0.0
 0062940,-0.02464411,-0.00934811,0.05415963,-0.00004585,0.00000078,0.00
 003974,-0.00005071,-0.00001367,0.00007288,-0.00041335,0.00039232,-0.00
 116624,0.00176106,0.00189351,0.00027098,-0.00014638,0.00004918,-0.0000
 8073,0.00006847,-0.00006380,0.00023914,0.00160879,-0.00491886,-0.00790
 727,-0.00041427,0.00006548,0.00090564,-0.00032100,0.00033307,-0.000982
 67,0.07901519,-0.03252450,-0.32404125,0.00144385,0.00201559,-0.0047235
 2,-0.08250579,0.03277091,0.33737331\\-0.00000095,-0.00000260,-0.000001
 05,-0.00000029,-0.00000317,-0.00000092,0.00000205,-0.00000529,0.000001
 82,0.00000064,0.00000644,-0.00000533,-0.00000060,0.00000211,0.00000191
 ,-0.00000196,-0.00000139,0.00000121,-0.00000031,-0.00000219,0.00000231
 ,0.00000279,0.00000110,-0.00000024,0.00000148,-0.00000083,-0.00000080,
 -0.00000034,0.00000351,-0.00000157,-0.00000282,0.00000069,0.00000192,0
 .00000031,0.00000163,0.00000075\\\@


 AND ALL THIS SCIENCE I DON'T UNDERSTAND
 IT'S JUST MY JOB FIVE DAYS A WEEK

                           -- ELTON JOHN, "ROCKET MAN"
 Job cpu time:  0 days  0 hours 12 minutes 46.8 seconds.
 File lengths (MBytes):  RWF=     48 Int=      0 D2E=      0 Chk=      3 Scr=      1
 Normal termination of Gaussian 09 at Sat Jun  6 17:55:17 2015.
