 Entering Gaussian System, Link 0=/share/apps/g09/g09
 Input=RO2_1_1_opt_631gd.gjf
 Output=RO2_1_1_opt_631gd.log
 Initial command:
 /share/apps/g09/l1.exe /state/partition1/Gau-31807.inp -scrdir=/state/partition1/
 Entering Link 1 = /share/apps/g09/l1.exe PID=     31808.
  
 Copyright (c) 1988,1990,1992,1993,1995,1998,2003,2009, Gaussian, Inc.
                  All Rights Reserved.
  
 This is part of the Gaussian(R) 09 program.  It is based on
 the Gaussian(R) 03 system (copyright 2003, Gaussian, Inc.),
 the Gaussian(R) 98 system (copyright 1998, Gaussian, Inc.),
 the Gaussian(R) 94 system (copyright 1995, Gaussian, Inc.),
 the Gaussian 92(TM) system (copyright 1992, Gaussian, Inc.),
 the Gaussian 90(TM) system (copyright 1990, Gaussian, Inc.),
 the Gaussian 88(TM) system (copyright 1988, Gaussian, Inc.),
 the Gaussian 86(TM) system (copyright 1986, Carnegie Mellon
 University), and the Gaussian 82(TM) system (copyright 1983,
 Carnegie Mellon University). Gaussian is a federally registered
 trademark of Gaussian, Inc.
  
 This software contains proprietary and confidential information,
 including trade secrets, belonging to Gaussian, Inc.
  
 This software is provided under written license and may be
 used, copied, transmitted, or stored only in accord with that
 written license.
  
 The following legend is applicable only to US Government
 contracts under FAR:
  
                    RESTRICTED RIGHTS LEGEND
  
 Use, reproduction and disclosure by the US Government is
 subject to restrictions as set forth in subparagraphs (a)
 and (c) of the Commercial Computer Software - Restricted
 Rights clause in FAR 52.227-19.
  
 Gaussian, Inc.
 340 Quinnipiac St., Bldg. 40, Wallingford CT 06492
  
  
 ---------------------------------------------------------------
 Warning -- This program may not be used in any manner that
 competes with the business of Gaussian, Inc. or will provide
 assistance to any competitor of Gaussian, Inc.  The licensee
 of this program is prohibited from giving any competitor of
 Gaussian, Inc. access to this program.  By using this program,
 the user acknowledges that Gaussian, Inc. is engaged in the
 business of creating and licensing software in the field of
 computational chemistry and represents and warrants to the
 licensee that it is not a competitor of Gaussian, Inc. and that
 it will not use this program in any manner prohibited above.
 ---------------------------------------------------------------
  

 Cite this work as:
 Gaussian 09, Revision A.01,
 M. J. Frisch, G. W. Trucks, H. B. Schlegel, G. E. Scuseria, 
 M. A. Robb, J. R. Cheeseman, G. Scalmani, V. Barone, B. Mennucci, 
 G. A. Petersson, H. Nakatsuji, M. Caricato, X. Li, H. P. Hratchian, 
 A. F. Izmaylov, J. Bloino, G. Zheng, J. L. Sonnenberg, M. Hada, 
 M. Ehara, K. Toyota, R. Fukuda, J. Hasegawa, M. Ishida, T. Nakajima, 
 Y. Honda, O. Kitao, H. Nakai, T. Vreven, J. A. Montgomery, Jr., 
 J. E. Peralta, F. Ogliaro, M. Bearpark, J. J. Heyd, E. Brothers, 
 K. N. Kudin, V. N. Staroverov, R. Kobayashi, J. Normand, 
 K. Raghavachari, A. Rendell, J. C. Burant, S. S. Iyengar, J. Tomasi, 
 M. Cossi, N. Rega, J. M. Millam, M. Klene, J. E. Knox, J. B. Cross, 
 V. Bakken, C. Adamo, J. Jaramillo, R. Gomperts, R. E. Stratmann, 
 O. Yazyev, A. J. Austin, R. Cammi, C. Pomelli, J. W. Ochterski, 
 R. L. Martin, K. Morokuma, V. G. Zakrzewski, G. A. Voth, 
 P. Salvador, J. J. Dannenberg, S. Dapprich, A. D. Daniels, 
 O. Farkas, J. B. Foresman, J. V. Ortiz, J. Cioslowski, 
 and D. J. Fox, Gaussian, Inc., Wallingford CT, 2009.
 
 ******************************************
 Gaussian 09:  EM64L-G09RevA.01  8-May-2009
                 6-Jun-2015 
 ******************************************
 %mem=28GB
 %nprocshared=12
 Will use up to   12 processors via shared memory.
 %chk=RO2_1_1_opt_631gd.chk
 ------------------------
 #p ub3lyp/cbsb7 opt freq
 ------------------------
 1/14=-1,18=20,19=15,26=3,38=1/1,3;
 2/9=110,12=2,17=6,18=5,40=1/2;
 3/5=4,6=6,7=700,11=2,16=1,25=1,30=1,71=1,74=-5,116=2/1,2,3;
 4//1;
 5/5=2,38=5/2;
 6/7=2,8=2,9=2,10=2,28=1/1;
 7//1,2,3,16;
 1/14=-1,18=20,19=15/3(2);
 2/9=110/2;
 99//99;
 2/9=110/2;
 3/5=4,6=6,7=700,11=2,16=1,25=1,30=1,71=1,74=-5,116=2/1,2,3;
 4/5=5,16=3/1;
 5/5=2,38=5/2;
 7//1,2,3,16;
 1/14=-1,18=20,19=15/3(-5);
 2/9=110/2;
 6/7=2,8=2,9=2,10=2,19=2,28=1/1;
 99/9=1/99;
 Leave Link    1 at Sat Jun  6 17:50:13 2015, MaxMem= 3758096384 cpu:       0.3
 (Enter /share/apps/g09/l101.exe)
 -----------------------------
 using ub3lyp/6-31G(d) to scan
 -----------------------------
 Symbolic Z-matrix:
 Charge =  0 Multiplicity = 2
 C                     0.00488   0.00067  -0.00142 
 H                     0.00702   0.00143   1.09256 
 H                     1.04588  -0.00494  -0.33844 
 H                    -0.44399   0.93996  -0.33194 
 C                    -0.7742   -1.19507  -0.55858 
 H                    -1.81387  -1.161    -0.22132 
 H                    -0.78682  -1.16187  -1.65253 
 C                    -0.16906  -2.51726  -0.11202 
 H                     0.84546  -2.65632  -0.49235 
 H                    -0.17749  -2.63047   0.97417 
 O                    -0.90099  -3.65218  -0.6702 
 O                    -2.05081  -3.84672  -0.0554 
 
 NAtoms=     12 NQM=     12 NQMF=      0 NMic=      0 NMicF=      0 NTot=     12.
                    Isotopes and Nuclear Properties:
 (Nuclear quadrupole moments (NQMom) in fm**2, nuclear magnetic moments (NMagM)
  in nuclear magnetons)

  Atom         1           2           3           4           5           6           7           8           9          10
 IAtWgt=          12           1           1           1          12           1           1          12           1           1
 AtmWgt=  12.0000000   1.0078250   1.0078250   1.0078250  12.0000000   1.0078250   1.0078250  12.0000000   1.0078250   1.0078250
 NucSpn=           0           1           1           1           0           1           1           0           1           1
 AtZEff=   0.0000000   0.0000000   0.0000000   0.0000000   0.0000000   0.0000000   0.0000000   0.0000000   0.0000000   0.0000000
 NQMom=    0.0000000   0.0000000   0.0000000   0.0000000   0.0000000   0.0000000   0.0000000   0.0000000   0.0000000   0.0000000
 NMagM=    0.0000000   2.7928460   2.7928460   2.7928460   0.0000000   2.7928460   2.7928460   0.0000000   2.7928460   2.7928460

  Atom        11          12
 IAtWgt=          16          16
 AtmWgt=  15.9949146  15.9949146
 NucSpn=           0           0
 AtZEff=   0.0000000   0.0000000
 NQMom=    0.0000000   0.0000000
 NMagM=    0.0000000   0.0000000
 Leave Link  101 at Sat Jun  6 17:50:13 2015, MaxMem= 3758096384 cpu:       0.7
 (Enter /share/apps/g09/l103.exe)

 GradGradGradGradGradGradGradGradGradGradGradGradGradGradGradGradGradGrad
 Berny optimization.
 Initialization pass.
                           ----------------------------
                           !    Initial Parameters    !
                           ! (Angstroms and Degrees)  !
 --------------------------                            --------------------------
 ! Name  Definition              Value          Derivative Info.                !
 --------------------------------------------------------------------------------
 ! R1    R(1,2)                  1.094          estimate D2E/DX2                !
 ! R2    R(1,3)                  1.0942         estimate D2E/DX2                !
 ! R3    R(1,4)                  1.0922         estimate D2E/DX2                !
 ! R4    R(1,5)                  1.532          estimate D2E/DX2                !
 ! R5    R(5,6)                  1.0935         estimate D2E/DX2                !
 ! R6    R(5,7)                  1.0945         estimate D2E/DX2                !
 ! R7    R(5,8)                  1.5211         estimate D2E/DX2                !
 ! R8    R(8,9)                  1.0923         estimate D2E/DX2                !
 ! R9    R(8,10)                 1.0921         estimate D2E/DX2                !
 ! R10   R(8,11)                 1.4613         estimate D2E/DX2                !
 ! R11   R(11,12)                1.3183         estimate D2E/DX2                !
 ! A1    A(2,1,3)              107.8272         estimate D2E/DX2                !
 ! A2    A(2,1,4)              107.6269         estimate D2E/DX2                !
 ! A3    A(2,1,5)              111.4205         estimate D2E/DX2                !
 ! A4    A(3,1,4)              107.5881         estimate D2E/DX2                !
 ! A5    A(3,1,5)              111.5784         estimate D2E/DX2                !
 ! A6    A(4,1,5)              110.6195         estimate D2E/DX2                !
 ! A7    A(1,5,6)              110.3037         estimate D2E/DX2                !
 ! A8    A(1,5,7)              110.223          estimate D2E/DX2                !
 ! A9    A(1,5,8)              111.6754         estimate D2E/DX2                !
 ! A10   A(6,5,7)              107.2379         estimate D2E/DX2                !
 ! A11   A(6,5,8)              108.3467         estimate D2E/DX2                !
 ! A12   A(7,5,8)              108.9271         estimate D2E/DX2                !
 ! A13   A(5,8,9)              112.2049         estimate D2E/DX2                !
 ! A14   A(5,8,10)             112.2725         estimate D2E/DX2                !
 ! A15   A(5,8,11)             111.3267         estimate D2E/DX2                !
 ! A16   A(9,8,10)             109.8932         estimate D2E/DX2                !
 ! A17   A(9,8,11)             103.4931         estimate D2E/DX2                !
 ! A18   A(10,8,11)            107.1897         estimate D2E/DX2                !
 ! A19   A(8,11,12)            111.9221         estimate D2E/DX2                !
 ! D1    D(2,1,5,6)             60.2458         estimate D2E/DX2                !
 ! D2    D(2,1,5,7)            178.4768         estimate D2E/DX2                !
 ! D3    D(2,1,5,8)            -60.2988         estimate D2E/DX2                !
 ! D4    D(3,1,5,6)           -179.1701         estimate D2E/DX2                !
 ! D5    D(3,1,5,7)            -60.9391         estimate D2E/DX2                !
 ! D6    D(3,1,5,8)             60.2854         estimate D2E/DX2                !
 ! D7    D(4,1,5,6)            -59.4347         estimate D2E/DX2                !
 ! D8    D(4,1,5,7)             58.7964         estimate D2E/DX2                !
 ! D9    D(4,1,5,8)           -179.9792         estimate D2E/DX2                !
 ! D10   D(1,5,8,9)            -63.3518         estimate D2E/DX2                !
 ! D11   D(1,5,8,10)            61.0046         estimate D2E/DX2                !
 ! D12   D(1,5,8,11)          -178.8138         estimate D2E/DX2                !
 ! D13   D(6,5,8,9)            174.9665         estimate D2E/DX2                !
 ! D14   D(6,5,8,10)           -60.6771         estimate D2E/DX2                !
 ! D15   D(6,5,8,11)            59.5045         estimate D2E/DX2                !
 ! D16   D(7,5,8,9)             58.6218         estimate D2E/DX2                !
 ! D17   D(7,5,8,10)          -177.0219         estimate D2E/DX2                !
 ! D18   D(7,5,8,11)           -56.8402         estimate D2E/DX2                !
 ! D19   D(5,8,11,12)          -75.4168         estimate D2E/DX2                !
 ! D20   D(9,8,11,12)          163.8594         estimate D2E/DX2                !
 ! D21   D(10,8,11,12)          47.7225         estimate D2E/DX2                !
 --------------------------------------------------------------------------------
 Trust Radius=3.00D-01 FncErr=1.00D-07 GrdErr=1.00D-06
 Number of steps in this run=  61 maximum allowed number of steps= 100.
 GradGradGradGradGradGradGradGradGradGradGradGradGradGradGradGradGradGrad

 Leave Link  103 at Sat Jun  6 17:50:13 2015, MaxMem= 3758096384 cpu:       0.1
 (Enter /share/apps/g09/l202.exe)
                          Input orientation:                          
 ---------------------------------------------------------------------
 Center     Atomic      Atomic             Coordinates (Angstroms)
 Number     Number       Type             X           Y           Z
 ---------------------------------------------------------------------
      1          6           0        0.004876    0.000673   -0.001415
      2          1           0        0.007022    0.001433    1.092559
      3          1           0        1.045876   -0.004935   -0.338444
      4          1           0       -0.443986    0.939963   -0.331936
      5          6           0       -0.774199   -1.195065   -0.558577
      6          1           0       -1.813874   -1.161000   -0.221316
      7          1           0       -0.786822   -1.161873   -1.652528
      8          6           0       -0.169056   -2.517261   -0.112017
      9          1           0        0.845455   -2.656322   -0.492346
     10          1           0       -0.177492   -2.630467    0.974174
     11          8           0       -0.900994   -3.652177   -0.670198
     12          8           0       -2.050812   -3.846716   -0.055401
 ---------------------------------------------------------------------
                    Distance matrix (angstroms):
                    1          2          3          4          5
     1  C    0.000000
     2  H    1.093976   0.000000
     3  H    1.094213   1.768340   0.000000
     4  H    1.092239   1.764492   1.764246   0.000000
     5  C    1.532050   2.183613   2.185759   2.172269   0.000000
     6  H    2.169261   2.528474   3.086807   2.510553   1.093540
     7  H    2.168980   3.085283   2.534582   2.505836   1.094527
     8  C    2.526356   2.797468   2.799841   3.475104   1.521123
     9  H    2.829701   3.206019   2.663401   3.823827   2.182416
    10  H    2.812104   2.641015   3.180096   3.811156   2.183063
    11  O    3.822458   4.157003   4.147618   4.627205   2.462912
    12  O    4.362473   4.512288   4.942557   5.056744   2.985662
                    6          7          8          9         10
     6  H    0.000000
     7  H    1.761591   0.000000
     8  C    2.134670   2.142869   0.000000
     9  H    3.062920   2.498745   1.092346   0.000000
    10  H    2.503253   3.070442   1.092107   1.788231   0.000000
    11  O    2.690875   2.679482   1.461278   2.018277   2.066714
    12  O    2.701247   3.369995   2.304704   3.161696   2.459393
                   11         12
    11  O    0.000000
    12  O    1.318295   0.000000
 Stoichiometry    C3H7O2(2)
 Framework group  C1[X(C3H7O2)]
 Deg. of freedom    30
 Full point group                 C1      NOp   1
 Largest Abelian subgroup         C1      NOp   1
 Largest concise Abelian subgroup C1      NOp   1
                         Standard orientation:                         
 ---------------------------------------------------------------------
 Center     Atomic      Atomic             Coordinates (Angstroms)
 Number     Number       Type             X           Y           Z
 ---------------------------------------------------------------------
      1          6           0       -2.303202   -0.099780    0.158892
      2          1           0       -2.351733   -0.147861    1.250733
      3          1           0       -2.662740    0.886655   -0.149295
      4          1           0       -2.999270   -0.843017   -0.236172
      5          6           0       -0.883042   -0.366261   -0.350333
      6          1           0       -0.550470   -1.361787   -0.043490
      7          1           0       -0.862280   -0.340240   -1.444354
      8          6           0        0.107313    0.655956    0.186403
      9          1           0       -0.116564    1.668073   -0.158152
     10          1           0        0.168993    0.639685    1.276646
     11          8           0        1.453763    0.411356   -0.326020
     12          8           0        2.027194   -0.616480    0.267808
 ---------------------------------------------------------------------
 Rotational constants (GHZ):     15.3799801      2.4674502      2.3299033
 Leave Link  202 at Sat Jun  6 17:50:13 2015, MaxMem= 3758096384 cpu:       0.1
 (Enter /share/apps/g09/l301.exe)
 Standard basis: 6-311G(2d,d,p) (5D, 7F)
 Ernie: Thresh=  0.10000D-02 Tol=  0.10000D-05 Strict=F.
 There are   132 symmetry adapted basis functions of A   symmetry.
 Integral buffers will be    131072 words long.
 Raffenetti 2 integral format.
 Two-electron integral symmetry is turned on.
   132 basis functions,   216 primitive gaussians,   137 cartesian basis functions
    21 alpha electrons       20 beta electrons
       nuclear repulsion energy       180.0413884558 Hartrees.
 IExCor=  402 DFT=T Ex+Corr=B3LYP ExCW=0 ScaHFX=  0.200000
 ScaDFX=  0.800000  0.720000  1.000000  0.810000 ScalE2=  1.000000  1.000000
 IRadAn=      0 IRanWt=     -1 IRanGd=            0 ICorTp=0
 NAtoms=   12 NActive=   12 NUniq=   12 SFac= 7.50D-01 NAtFMM=   80 NAOKFM=F Big=F
 Leave Link  301 at Sat Jun  6 17:50:14 2015, MaxMem= 3758096384 cpu:       0.6
 (Enter /share/apps/g09/l302.exe)
 NPDir=0 NMtPBC=     1 NCelOv=     1 NCel=       1 NClECP=     1 NCelD=      1
         NCelK=      1 NCelE2=     1 NClLst=     1 CellRange=     0.0.
 One-electron integrals computed using PRISM.
 NBasis=   132 RedAO= T  NBF=   132
 NBsUse=   132 1.00D-06 NBFU=   132
 Precomputing XC quadrature grid using
 IXCGrd= 2 IRadAn=           0 IRanWt=          -1 IRanGd=           0 AccXCQ= 1.00D-10.
 NRdTot=     753 NPtTot=       95216 NUsed=      100656 NTot=      100688
 NSgBfM=   137   137   137   137   137 NAtAll=    12    12.
 Leave Link  302 at Sat Jun  6 17:50:14 2015, MaxMem= 3758096384 cpu:       2.6
 (Enter /share/apps/g09/l303.exe)
 DipDrv:  MaxL=1.
 Leave Link  303 at Sat Jun  6 17:50:14 2015, MaxMem= 3758096384 cpu:       0.3
 (Enter /share/apps/g09/l401.exe)
 Harris functional with IExCor=  402 diagonalized for initial guess.
 ExpMin= 1.03D-01 ExpMax= 8.59D+03 ExpMxC= 1.30D+03 IAcc=1 IRadAn=         1 AccDes= 0.00D+00
 HarFok:  IExCor=  402 AccDes= 0.00D+00 IRadAn=         1 IDoV= 1
 ScaDFX=  1.000000  1.000000  1.000000  1.000000
 FoFCou: FMM=F IPFlag=           0 FMFlag=      100000 FMFlg1=           0
         NFxFlg=           0 DoJE=T BraDBF=F KetDBF=T FulRan=T
         Omega=  0.000000  0.000000  1.000000  0.000000  0.000000 ICntrl=     500 IOpCl=  0
         NMat0=    1 NMatS0=    1 NMatT0=    0 NMatD0=    1 NMtDS0=    0 NMtDT0=    0
         I1Cent=           4 NGrid=           0.
 Petite list used in FoFCou.
 Harris En= -268.961831888660    
 Initial guess orbital symmetries:
 Alpha Orbitals:
       Occupied  (A) (A) (A) (A) (A) (A) (A) (A) (A) (A) (A) (A)
                 (A) (A) (A) (A) (A) (A) (A) (A) (A)
       Virtual   (A) (A) (A) (A) (A) (A) (A) (A) (A) (A) (A) (A)
                 (A) (A) (A) (A) (A) (A) (A) (A) (A) (A) (A) (A)
                 (A) (A) (A) (A) (A) (A) (A) (A) (A) (A) (A) (A)
                 (A) (A) (A) (A) (A) (A) (A) (A) (A) (A) (A) (A)
                 (A) (A) (A) (A) (A) (A) (A) (A) (A) (A) (A) (A)
                 (A) (A) (A) (A) (A) (A) (A) (A) (A) (A) (A) (A)
                 (A) (A) (A) (A) (A) (A) (A) (A) (A) (A) (A) (A)
                 (A) (A) (A) (A) (A) (A) (A) (A) (A) (A) (A) (A)
                 (A) (A) (A) (A) (A) (A) (A) (A) (A) (A) (A) (A)
                 (A) (A) (A)
 Beta  Orbitals:
       Occupied  (A) (A) (A) (A) (A) (A) (A) (A) (A) (A) (A) (A)
                 (A) (A) (A) (A) (A) (A) (A) (A)
       Virtual   (A) (A) (A) (A) (A) (A) (A) (A) (A) (A) (A) (A)
                 (A) (A) (A) (A) (A) (A) (A) (A) (A) (A) (A) (A)
                 (A) (A) (A) (A) (A) (A) (A) (A) (A) (A) (A) (A)
                 (A) (A) (A) (A) (A) (A) (A) (A) (A) (A) (A) (A)
                 (A) (A) (A) (A) (A) (A) (A) (A) (A) (A) (A) (A)
                 (A) (A) (A) (A) (A) (A) (A) (A) (A) (A) (A) (A)
                 (A) (A) (A) (A) (A) (A) (A) (A) (A) (A) (A) (A)
                 (A) (A) (A) (A) (A) (A) (A) (A) (A) (A) (A) (A)
                 (A) (A) (A) (A) (A) (A) (A) (A) (A) (A) (A) (A)
                 (A) (A) (A) (A)
 The electronic state of the initial guess is 2-A.
 Initial guess <Sx>= 0.0000 <Sy>= 0.0000 <Sz>= 0.5000 <S**2>= 0.7500 S= 0.5000
 Leave Link  401 at Sat Jun  6 17:50:15 2015, MaxMem= 3758096384 cpu:       3.6
 (Enter /share/apps/g09/l502.exe)
 UHF open shell SCF:
 Requested convergence on RMS density matrix=1.00D-08 within 128 cycles.
 Requested convergence on MAX density matrix=1.00D-06.
 Requested convergence on             energy=1.00D-06.
 No special actions if energy rises.
 Using DIIS extrapolation, IDIIS=  1040.
 Integral symmetry usage will be decided dynamically.
       100535 words used for storage of precomputed grid.
 Keep R1 and R2 ints in memory in canonical form, NReq=90860313.
 IEnd=      177663 IEndB=      177663 NGot=  3758096384 MDV=  3668585578
 LenX=  3668585578 LenY=  3668566368
 Symmetry not used in FoFDir.
 MinBra= 0 MaxBra= 2 Meth= 1.
 IRaf=       0 NMat=   1 IRICut=       1 DoRegI=T DoRafI=F ISym2E= 0 JSym2E=0.
 Integral accuracy reduced to 1.0D-05 until final iterations.

 Cycle   1  Pass 0  IDiag  1:
 E= -268.768069614129    
 DIIS: error= 3.43D-02 at cycle   1 NSaved=   1.
 NSaved= 1 IEnMin= 1 EnMin= -268.768069614129     IErMin= 1 ErrMin= 3.43D-02
 ErrMax= 3.43D-02 EMaxC= 1.00D-01 BMatC= 6.89D-01 BMatP= 6.89D-01
 IDIUse=3 WtCom= 6.57D-01 WtEn= 3.43D-01
 Coeff-Com:  0.100D+01
 Coeff-En:   0.100D+01
 Coeff:      0.100D+01
 Gap=     0.347 Goal=   None    Shift=    0.000
 Gap=     0.111 Goal=   None    Shift=    0.000
 GapD=    0.111 DampG=1.000 DampE=0.500 DampFc=0.5000 IDamp=-1.
 Damping current iteration by 5.00D-01
 RMSDP=4.62D-03 MaxDP=1.28D-01              OVMax= 2.09D-01

 Cycle   2  Pass 0  IDiag  1:
 E= -268.823298331929     Delta-E=       -0.055228717800 Rises=F Damp=T
 DIIS: error= 1.37D-02 at cycle   2 NSaved=   2.
 NSaved= 2 IEnMin= 2 EnMin= -268.823298331929     IErMin= 2 ErrMin= 1.37D-02
 ErrMax= 1.37D-02 EMaxC= 1.00D-01 BMatC= 1.01D-01 BMatP= 6.89D-01
 IDIUse=3 WtCom= 8.63D-01 WtEn= 1.37D-01
 Coeff-Com:  0.179D+00 0.821D+00
 Coeff-En:   0.268D+00 0.732D+00
 Coeff:      0.191D+00 0.809D+00
 Gap=     0.326 Goal=   None    Shift=    0.000
 Gap=     0.154 Goal=   None    Shift=    0.000
 RMSDP=1.19D-03 MaxDP=3.49D-02 DE=-5.52D-02 OVMax= 1.39D-01

 Cycle   3  Pass 0  IDiag  1:
 E= -268.909795654311     Delta-E=       -0.086497322382 Rises=F Damp=F
 DIIS: error= 2.05D-02 at cycle   3 NSaved=   3.
 NSaved= 3 IEnMin= 3 EnMin= -268.909795654311     IErMin= 2 ErrMin= 1.37D-02
 ErrMax= 2.05D-02 EMaxC= 1.00D-01 BMatC= 9.70D-02 BMatP= 1.01D-01
 IDIUse=3 WtCom= 7.95D-01 WtEn= 2.05D-01
 Coeff-Com:  0.381D-01 0.486D+00 0.476D+00
 Coeff-En:   0.000D+00 0.000D+00 0.100D+01
 Coeff:      0.303D-01 0.386D+00 0.584D+00
 Gap=     0.315 Goal=   None    Shift=    0.000
 Gap=     0.145 Goal=   None    Shift=    0.000
 RMSDP=1.05D-03 MaxDP=2.67D-02 DE=-8.65D-02 OVMax= 8.70D-02

 Cycle   4  Pass 0  IDiag  1:
 E= -268.915462337786     Delta-E=       -0.005666683474 Rises=F Damp=F
 DIIS: error= 1.48D-02 at cycle   4 NSaved=   4.
 NSaved= 4 IEnMin= 4 EnMin= -268.915462337786     IErMin= 2 ErrMin= 1.37D-02
 ErrMax= 1.48D-02 EMaxC= 1.00D-01 BMatC= 6.57D-02 BMatP= 9.70D-02
 IDIUse=3 WtCom= 8.52D-01 WtEn= 1.48D-01
 Coeff-Com:  0.109D-01 0.932D-01 0.440D+00 0.456D+00
 Coeff-En:   0.000D+00 0.000D+00 0.426D+00 0.574D+00
 Coeff:      0.929D-02 0.794D-01 0.438D+00 0.473D+00
 Gap=     0.317 Goal=   None    Shift=    0.000
 Gap=     0.152 Goal=   None    Shift=    0.000
 RMSDP=5.31D-04 MaxDP=1.51D-02 DE=-5.67D-03 OVMax= 3.43D-02

 Cycle   5  Pass 0  IDiag  1:
 E= -268.926817609030     Delta-E=       -0.011355271245 Rises=F Damp=F
 DIIS: error= 1.07D-03 at cycle   5 NSaved=   5.
 NSaved= 5 IEnMin= 5 EnMin= -268.926817609030     IErMin= 5 ErrMin= 1.07D-03
 ErrMax= 1.07D-03 EMaxC= 1.00D-01 BMatC= 5.45D-04 BMatP= 6.57D-02
 IDIUse=3 WtCom= 9.89D-01 WtEn= 1.07D-02
 Coeff-Com:  0.218D-02-0.954D-02 0.144D+00 0.180D+00 0.683D+00
 Coeff-En:   0.000D+00 0.000D+00 0.000D+00 0.000D+00 0.100D+01
 Coeff:      0.215D-02-0.944D-02 0.142D+00 0.178D+00 0.687D+00
 Gap=     0.310 Goal=   None    Shift=    0.000
 Gap=     0.152 Goal=   None    Shift=    0.000
 RMSDP=9.10D-05 MaxDP=3.13D-03 DE=-1.14D-02 OVMax= 7.42D-03

 Cycle   6  Pass 0  IDiag  1:
 E= -268.926927427730     Delta-E=       -0.000109818699 Rises=F Damp=F
 DIIS: error= 5.07D-04 at cycle   6 NSaved=   6.
 NSaved= 6 IEnMin= 6 EnMin= -268.926927427730     IErMin= 6 ErrMin= 5.07D-04
 ErrMax= 5.07D-04 EMaxC= 1.00D-01 BMatC= 1.18D-04 BMatP= 5.45D-04
 IDIUse=3 WtCom= 9.95D-01 WtEn= 5.07D-03
 Coeff-Com:  0.779D-03-0.152D-01 0.134D-01 0.149D-01 0.311D+00 0.676D+00
 Coeff-En:   0.000D+00 0.000D+00 0.000D+00 0.000D+00 0.000D+00 0.100D+01
 Coeff:      0.775D-03-0.151D-01 0.134D-01 0.148D-01 0.309D+00 0.677D+00
 Gap=     0.312 Goal=   None    Shift=    0.000
 Gap=     0.153 Goal=   None    Shift=    0.000
 RMSDP=3.54D-05 MaxDP=1.13D-03 DE=-1.10D-04 OVMax= 1.52D-03

 Cycle   7  Pass 0  IDiag  1:
 E= -268.926953395438     Delta-E=       -0.000025967709 Rises=F Damp=F
 DIIS: error= 1.90D-04 at cycle   7 NSaved=   7.
 NSaved= 7 IEnMin= 7 EnMin= -268.926953395438     IErMin= 7 ErrMin= 1.90D-04
 ErrMax= 1.90D-04 EMaxC= 1.00D-01 BMatC= 1.28D-05 BMatP= 1.18D-04
 IDIUse=3 WtCom= 9.98D-01 WtEn= 1.90D-03
 Coeff-Com:  0.277D-03-0.251D-02-0.140D-01-0.264D-01-0.255D-01 0.122D+00
 Coeff-Com:  0.946D+00
 Coeff-En:   0.000D+00 0.000D+00 0.000D+00 0.000D+00 0.000D+00 0.000D+00
 Coeff-En:   0.100D+01
 Coeff:      0.277D-03-0.251D-02-0.140D-01-0.264D-01-0.255D-01 0.122D+00
 Coeff:      0.946D+00
 Gap=     0.312 Goal=   None    Shift=    0.000
 Gap=     0.153 Goal=   None    Shift=    0.000
 RMSDP=1.70D-05 MaxDP=3.69D-04 DE=-2.60D-05 OVMax= 1.66D-03

 Cycle   8  Pass 0  IDiag  1:
 E= -268.926957596836     Delta-E=       -0.000004201398 Rises=F Damp=F
 DIIS: error= 1.04D-04 at cycle   8 NSaved=   8.
 NSaved= 8 IEnMin= 8 EnMin= -268.926957596836     IErMin= 8 ErrMin= 1.04D-04
 ErrMax= 1.04D-04 EMaxC= 1.00D-01 BMatC= 4.35D-06 BMatP= 1.28D-05
 IDIUse=3 WtCom= 9.99D-01 WtEn= 1.04D-03
 Coeff-Com:  0.161D-03 0.132D-02-0.826D-02-0.175D-01-0.638D-01-0.655D-01
 Coeff-Com:  0.477D+00 0.677D+00
 Coeff-En:   0.000D+00 0.000D+00 0.000D+00 0.000D+00 0.000D+00 0.000D+00
 Coeff-En:   0.000D+00 0.100D+01
 Coeff:      0.161D-03 0.132D-02-0.825D-02-0.175D-01-0.637D-01-0.654D-01
 Coeff:      0.477D+00 0.677D+00
 Gap=     0.312 Goal=   None    Shift=    0.000
 Gap=     0.153 Goal=   None    Shift=    0.000
 RMSDP=8.45D-06 MaxDP=2.16D-04 DE=-4.20D-06 OVMax= 7.40D-04

 Initial convergence to 1.0D-05 achieved.  Increase integral accuracy.
 Cycle   9  Pass 1  IDiag  1:
 E= -268.926953795533     Delta-E=        0.000003801303 Rises=F Damp=F
 DIIS: error= 3.86D-05 at cycle   1 NSaved=   1.
 NSaved= 1 IEnMin= 1 EnMin= -268.926953795533     IErMin= 1 ErrMin= 3.86D-05
 ErrMax= 3.86D-05 EMaxC= 1.00D-01 BMatC= 4.00D-07 BMatP= 4.00D-07
 IDIUse=1 WtCom= 1.00D+00 WtEn= 0.00D+00
 Coeff-Com:  0.100D+01
 Coeff:      0.100D+01
 Gap=     0.312 Goal=   None    Shift=    0.000
 Gap=     0.153 Goal=   None    Shift=    0.000
 RMSDP=8.45D-06 MaxDP=2.16D-04 DE= 3.80D-06 OVMax= 6.33D-04

 Cycle  10  Pass 1  IDiag  1:
 E= -268.926953855740     Delta-E=       -0.000000060207 Rises=F Damp=F
 DIIS: error= 6.47D-05 at cycle   2 NSaved=   2.
 NSaved= 2 IEnMin= 2 EnMin= -268.926953855740     IErMin= 1 ErrMin= 3.86D-05
 ErrMax= 6.47D-05 EMaxC= 1.00D-01 BMatC= 9.56D-07 BMatP= 4.00D-07
 IDIUse=1 WtCom= 1.00D+00 WtEn= 0.00D+00
 Coeff-Com:  0.630D+00 0.370D+00
 Coeff:      0.630D+00 0.370D+00
 Gap=     0.312 Goal=   None    Shift=    0.000
 Gap=     0.153 Goal=   None    Shift=    0.000
 RMSDP=2.38D-06 MaxDP=6.27D-05 DE=-6.02D-08 OVMax= 2.09D-04

 Cycle  11  Pass 1  IDiag  1:
 E= -268.926954038160     Delta-E=       -0.000000182420 Rises=F Damp=F
 DIIS: error= 2.06D-05 at cycle   3 NSaved=   3.
 NSaved= 3 IEnMin= 3 EnMin= -268.926954038160     IErMin= 3 ErrMin= 2.06D-05
 ErrMax= 2.06D-05 EMaxC= 1.00D-01 BMatC= 1.16D-07 BMatP= 4.00D-07
 IDIUse=1 WtCom= 1.00D+00 WtEn= 0.00D+00
 Coeff-Com: -0.546D-02 0.223D+00 0.782D+00
 Coeff:     -0.546D-02 0.223D+00 0.782D+00
 Gap=     0.312 Goal=   None    Shift=    0.000
 Gap=     0.153 Goal=   None    Shift=    0.000
 RMSDP=2.26D-06 MaxDP=5.98D-05 DE=-1.82D-07 OVMax= 4.09D-04

 Cycle  12  Pass 1  IDiag  1:
 E= -268.926954109876     Delta-E=       -0.000000071716 Rises=F Damp=F
 DIIS: error= 1.05D-05 at cycle   4 NSaved=   4.
 NSaved= 4 IEnMin= 4 EnMin= -268.926954109876     IErMin= 4 ErrMin= 1.05D-05
 ErrMax= 1.05D-05 EMaxC= 1.00D-01 BMatC= 2.73D-08 BMatP= 1.16D-07
 IDIUse=1 WtCom= 1.00D+00 WtEn= 0.00D+00
 Coeff-Com: -0.210D+00 0.281D-01 0.372D+00 0.810D+00
 Coeff:     -0.210D+00 0.281D-01 0.372D+00 0.810D+00
 Gap=     0.312 Goal=   None    Shift=    0.000
 Gap=     0.153 Goal=   None    Shift=    0.000
 RMSDP=2.10D-06 MaxDP=5.25D-05 DE=-7.17D-08 OVMax= 4.05D-04

 Cycle  13  Pass 1  IDiag  1:
 E= -268.926954155326     Delta-E=       -0.000000045450 Rises=F Damp=F
 DIIS: error= 7.51D-06 at cycle   5 NSaved=   5.
 NSaved= 5 IEnMin= 5 EnMin= -268.926954155326     IErMin= 5 ErrMin= 7.51D-06
 ErrMax= 7.51D-06 EMaxC= 1.00D-01 BMatC= 8.81D-09 BMatP= 2.73D-08
 IDIUse=1 WtCom= 1.00D+00 WtEn= 0.00D+00
 Coeff-Com: -0.327D-01-0.808D-01-0.320D+00 0.137D+00 0.130D+01
 Coeff:     -0.327D-01-0.808D-01-0.320D+00 0.137D+00 0.130D+01
 Gap=     0.312 Goal=   None    Shift=    0.000
 Gap=     0.153 Goal=   None    Shift=    0.000
 RMSDP=2.54D-06 MaxDP=7.05D-05 DE=-4.55D-08 OVMax= 5.05D-04

 Cycle  14  Pass 1  IDiag  1:
 E= -268.926954187663     Delta-E=       -0.000000032336 Rises=F Damp=F
 DIIS: error= 3.87D-06 at cycle   6 NSaved=   6.
 NSaved= 6 IEnMin= 6 EnMin= -268.926954187663     IErMin= 6 ErrMin= 3.87D-06
 ErrMax= 3.87D-06 EMaxC= 1.00D-01 BMatC= 3.55D-09 BMatP= 8.81D-09
 IDIUse=1 WtCom= 1.00D+00 WtEn= 0.00D+00
 Coeff-Com:  0.554D-01-0.551D-01-0.240D+00-0.196D+00 0.565D+00 0.871D+00
 Coeff:      0.554D-01-0.551D-01-0.240D+00-0.196D+00 0.565D+00 0.871D+00
 Gap=     0.312 Goal=   None    Shift=    0.000
 Gap=     0.153 Goal=   None    Shift=    0.000
 RMSDP=1.32D-06 MaxDP=3.87D-05 DE=-3.23D-08 OVMax= 2.61D-04

 Cycle  15  Pass 1  IDiag  1:
 E= -268.926954196499     Delta-E=       -0.000000008836 Rises=F Damp=F
 DIIS: error= 2.07D-06 at cycle   7 NSaved=   7.
 NSaved= 7 IEnMin= 7 EnMin= -268.926954196499     IErMin= 7 ErrMin= 2.07D-06
 ErrMax= 2.07D-06 EMaxC= 1.00D-01 BMatC= 1.22D-09 BMatP= 3.55D-09
 IDIUse=1 WtCom= 1.00D+00 WtEn= 0.00D+00
 Coeff-Com:  0.278D-01 0.510D-02 0.985D-01-0.127D+00-0.393D+00 0.194D+00
 Coeff-Com:  0.119D+01
 Coeff:      0.278D-01 0.510D-02 0.985D-01-0.127D+00-0.393D+00 0.194D+00
 Coeff:      0.119D+01
 Gap=     0.312 Goal=   None    Shift=    0.000
 Gap=     0.153 Goal=   None    Shift=    0.000
 RMSDP=9.78D-07 MaxDP=2.93D-05 DE=-8.84D-09 OVMax= 1.96D-04

 Cycle  16  Pass 1  IDiag  1:
 E= -268.926954199623     Delta-E=       -0.000000003125 Rises=F Damp=F
 DIIS: error= 6.69D-07 at cycle   8 NSaved=   8.
 NSaved= 8 IEnMin= 8 EnMin= -268.926954199623     IErMin= 8 ErrMin= 6.69D-07
 ErrMax= 6.69D-07 EMaxC= 1.00D-01 BMatC= 2.68D-10 BMatP= 1.22D-09
 IDIUse=1 WtCom= 1.00D+00 WtEn= 0.00D+00
 Coeff-Com: -0.658D-02 0.160D-01 0.125D+00 0.416D-02-0.334D+00-0.212D+00
 Coeff-Com:  0.509D+00 0.899D+00
 Coeff:     -0.658D-02 0.160D-01 0.125D+00 0.416D-02-0.334D+00-0.212D+00
 Coeff:      0.509D+00 0.899D+00
 Gap=     0.312 Goal=   None    Shift=    0.000
 Gap=     0.153 Goal=   None    Shift=    0.000
 RMSDP=4.07D-07 MaxDP=1.21D-05 DE=-3.12D-09 OVMax= 7.99D-05

 Cycle  17  Pass 1  IDiag  1:
 E= -268.926954200008     Delta-E=       -0.000000000384 Rises=F Damp=F
 DIIS: error= 2.67D-07 at cycle   9 NSaved=   9.
 NSaved= 9 IEnMin= 9 EnMin= -268.926954200008     IErMin= 9 ErrMin= 2.67D-07
 ErrMax= 2.67D-07 EMaxC= 1.00D-01 BMatC= 2.89D-11 BMatP= 2.68D-10
 IDIUse=1 WtCom= 1.00D+00 WtEn= 0.00D+00
 Coeff-Com: -0.434D-02 0.665D-02 0.466D-01 0.954D-02-0.114D+00-0.109D+00
 Coeff-Com:  0.127D+00 0.420D+00 0.618D+00
 Coeff:     -0.434D-02 0.665D-02 0.466D-01 0.954D-02-0.114D+00-0.109D+00
 Coeff:      0.127D+00 0.420D+00 0.618D+00
 Gap=     0.312 Goal=   None    Shift=    0.000
 Gap=     0.153 Goal=   None    Shift=    0.000
 RMSDP=4.11D-08 MaxDP=1.23D-06 DE=-3.84D-10 OVMax= 7.44D-06

 Cycle  18  Pass 1  IDiag  1:
 E= -268.926954200019     Delta-E=       -0.000000000011 Rises=F Damp=F
 DIIS: error= 5.49D-08 at cycle  10 NSaved=  10.
 NSaved=10 IEnMin=10 EnMin= -268.926954200019     IErMin=10 ErrMin= 5.49D-08
 ErrMax= 5.49D-08 EMaxC= 1.00D-01 BMatC= 1.35D-12 BMatP= 2.89D-11
 IDIUse=1 WtCom= 1.00D+00 WtEn= 0.00D+00
 Coeff-Com: -0.408D-03-0.364D-04-0.287D-02 0.213D-02 0.111D-01-0.516D-02
 Coeff-Com: -0.290D-01 0.137D-02 0.159D+00 0.864D+00
 Coeff:     -0.408D-03-0.364D-04-0.287D-02 0.213D-02 0.111D-01-0.516D-02
 Coeff:     -0.290D-01 0.137D-02 0.159D+00 0.864D+00
 Gap=     0.312 Goal=   None    Shift=    0.000
 Gap=     0.153 Goal=   None    Shift=    0.000
 RMSDP=9.58D-09 MaxDP=2.82D-07 DE=-1.12D-11 OVMax= 1.59D-06

 SCF Done:  E(UB3LYP) =  -268.926954200     A.U. after   18 cycles
             Convg  =    0.9579D-08             -V/T =  2.0034
 <Sx>= 0.0000 <Sy>= 0.0000 <Sz>= 0.5000 <S**2>= 0.7533 S= 0.5017
 <L.S>= 0.000000000000E+00
 KE= 2.680218252218D+02 PE=-9.901668320732D+02 EE= 2.731766641956D+02
 Annihilation of the first spin contaminant:
 S**2 before annihilation     0.7533,   after     0.7500
 Leave Link  502 at Sat Jun  6 17:50:29 2015, MaxMem= 3758096384 cpu:     164.0
 (Enter /share/apps/g09/l601.exe)
 Copying SCF densities to generalized density rwf, IOpCl= 1 IROHF=0.

 **********************************************************************

            Population analysis using the SCF density.

 **********************************************************************

 Orbital symmetries:
 Alpha Orbitals:
       Occupied  (A) (A) (A) (A) (A) (A) (A) (A) (A) (A) (A) (A)
                 (A) (A) (A) (A) (A) (A) (A) (A) (A)
       Virtual   (A) (A) (A) (A) (A) (A) (A) (A) (A) (A) (A) (A)
                 (A) (A) (A) (A) (A) (A) (A) (A) (A) (A) (A) (A)
                 (A) (A) (A) (A) (A) (A) (A) (A) (A) (A) (A) (A)
                 (A) (A) (A) (A) (A) (A) (A) (A) (A) (A) (A) (A)
                 (A) (A) (A) (A) (A) (A) (A) (A) (A) (A) (A) (A)
                 (A) (A) (A) (A) (A) (A) (A) (A) (A) (A) (A) (A)
                 (A) (A) (A) (A) (A) (A) (A) (A) (A) (A) (A) (A)
                 (A) (A) (A) (A) (A) (A) (A) (A) (A) (A) (A) (A)
                 (A) (A) (A) (A) (A) (A) (A) (A) (A) (A) (A) (A)
                 (A) (A) (A)
 Beta  Orbitals:
       Occupied  (A) (A) (A) (A) (A) (A) (A) (A) (A) (A) (A) (A)
                 (A) (A) (A) (A) (A) (A) (A) (A)
       Virtual   (A) (A) (A) (A) (A) (A) (A) (A) (A) (A) (A) (A)
                 (A) (A) (A) (A) (A) (A) (A) (A) (A) (A) (A) (A)
                 (A) (A) (A) (A) (A) (A) (A) (A) (A) (A) (A) (A)
                 (A) (A) (A) (A) (A) (A) (A) (A) (A) (A) (A) (A)
                 (A) (A) (A) (A) (A) (A) (A) (A) (A) (A) (A) (A)
                 (A) (A) (A) (A) (A) (A) (A) (A) (A) (A) (A) (A)
                 (A) (A) (A) (A) (A) (A) (A) (A) (A) (A) (A) (A)
                 (A) (A) (A) (A) (A) (A) (A) (A) (A) (A) (A) (A)
                 (A) (A) (A) (A) (A) (A) (A) (A) (A) (A) (A) (A)
                 (A) (A) (A) (A)
 The electronic state is 2-A.
 Alpha  occ. eigenvalues --  -19.23431 -19.18265 -10.23775 -10.18655 -10.17748
 Alpha  occ. eigenvalues --   -1.19124  -0.88362  -0.79160  -0.68534  -0.61461
 Alpha  occ. eigenvalues --   -0.52248  -0.51293  -0.49772  -0.45932  -0.43031
 Alpha  occ. eigenvalues --   -0.40053  -0.38830  -0.36976  -0.35505  -0.27983
 Alpha  occ. eigenvalues --   -0.27808
 Alpha virt. eigenvalues --    0.03398   0.05964   0.07020   0.08091   0.09926
 Alpha virt. eigenvalues --    0.11563   0.12693   0.13083   0.16217   0.19651
 Alpha virt. eigenvalues --    0.21687   0.28644   0.30124   0.31632   0.32511
 Alpha virt. eigenvalues --    0.37116   0.46880   0.48271   0.49055   0.52730
 Alpha virt. eigenvalues --    0.55272   0.55914   0.57437   0.57628   0.58779
 Alpha virt. eigenvalues --    0.59899   0.60407   0.68829   0.75715   0.76662
 Alpha virt. eigenvalues --    0.78276   0.82266   0.86129   0.88831   0.90654
 Alpha virt. eigenvalues --    0.94478   1.00827   1.14764   1.20150   1.21291
 Alpha virt. eigenvalues --    1.22898   1.32064   1.38200   1.41895   1.44075
 Alpha virt. eigenvalues --    1.45123   1.46758   1.48838   1.51337   1.52186
 Alpha virt. eigenvalues --    1.54342   1.61713   1.63834   1.67289   1.70445
 Alpha virt. eigenvalues --    1.72106   1.78741   1.84189   1.86653   1.93148
 Alpha virt. eigenvalues --    1.99040   2.03025   2.08518   2.10870   2.23479
 Alpha virt. eigenvalues --    2.23936   2.26294   2.34988   2.37449   2.40110
 Alpha virt. eigenvalues --    2.41353   2.43939   2.44952   2.51332   2.52761
 Alpha virt. eigenvalues --    2.54286   2.55400   2.63393   2.64717   2.66869
 Alpha virt. eigenvalues --    2.67355   2.70022   2.74073   2.76438   2.76594
 Alpha virt. eigenvalues --    2.82272   2.87346   2.98666   3.07822   3.25508
 Alpha virt. eigenvalues --    3.29912   3.36325   3.68001   3.77756   3.78059
 Alpha virt. eigenvalues --    3.80822   3.83158   3.87266   4.10227   4.24134
 Alpha virt. eigenvalues --    4.66088   4.69647   4.79214   4.86447   5.21241
 Alpha virt. eigenvalues --    5.90716  23.77007  23.84179  23.91673  49.68462
 Alpha virt. eigenvalues --   49.75183
  Beta  occ. eigenvalues --  -19.22440 -19.16318 -10.23813 -10.18621 -10.17748
  Beta  occ. eigenvalues --   -1.16435  -0.85664  -0.78344  -0.67766  -0.61033
  Beta  occ. eigenvalues --   -0.51061  -0.50595  -0.46161  -0.45217  -0.41371
  Beta  occ. eigenvalues --   -0.39265  -0.37982  -0.35573  -0.34897  -0.26190
  Beta virt. eigenvalues --   -0.10845   0.03464   0.06155   0.07071   0.08249
  Beta virt. eigenvalues --    0.10742   0.11670   0.12859   0.13106   0.17413
  Beta virt. eigenvalues --    0.19811   0.21862   0.28660   0.30175   0.31727
  Beta virt. eigenvalues --    0.32599   0.37403   0.47018   0.48425   0.49183
  Beta virt. eigenvalues --    0.52976   0.55290   0.55957   0.57467   0.57671
  Beta virt. eigenvalues --    0.58830   0.59978   0.60455   0.68971   0.76557
  Beta virt. eigenvalues --    0.77521   0.82177   0.82724   0.86881   0.90157
  Beta virt. eigenvalues --    0.91657   0.95171   1.01385   1.14959   1.20280
  Beta virt. eigenvalues --    1.21771   1.22993   1.33204   1.38243   1.42440
  Beta virt. eigenvalues --    1.44111   1.45137   1.47008   1.48917   1.51379
  Beta virt. eigenvalues --    1.52237   1.54493   1.61844   1.63912   1.67292
  Beta virt. eigenvalues --    1.70560   1.72128   1.78885   1.84284   1.86701
  Beta virt. eigenvalues --    1.93311   1.99119   2.03120   2.08569   2.10914
  Beta virt. eigenvalues --    2.23709   2.24044   2.26391   2.36744   2.38115
  Beta virt. eigenvalues --    2.40228   2.41470   2.44928   2.45287   2.51393
  Beta virt. eigenvalues --    2.53019   2.54418   2.55545   2.63663   2.65717
  Beta virt. eigenvalues --    2.67310   2.68027   2.71084   2.75741   2.76903
  Beta virt. eigenvalues --    2.79133   2.86466   2.91143   2.99276   3.09422
  Beta virt. eigenvalues --    3.26595   3.33736   3.37175   3.69319   3.77875
  Beta virt. eigenvalues --    3.78087   3.80890   3.83680   3.88108   4.10341
  Beta virt. eigenvalues --    4.24289   4.69451   4.74124   4.80767   4.92142
  Beta virt. eigenvalues --    5.22189   5.92116  23.76967  23.84211  23.91678
  Beta virt. eigenvalues --   49.70353  49.76228
          Condensed to atoms (all electrons):
              1          2          3          4          5          6
     1  C    4.877848   0.405000   0.403370   0.400394   0.342589  -0.032157
     2  H    0.405000   0.581255  -0.032634  -0.027479  -0.037220  -0.007267
     3  H    0.403370  -0.032634   0.587364  -0.028180  -0.036824   0.007841
     4  H    0.400394  -0.027479  -0.028180   0.565737  -0.026513  -0.004953
     5  C    0.342589  -0.037220  -0.036824  -0.026513   4.962555   0.401762
     6  H   -0.032157  -0.007267   0.007841  -0.004953   0.401762   0.564848
     7  H   -0.030835   0.008433  -0.007530  -0.005544   0.396391  -0.033400
     8  C   -0.056672  -0.005331  -0.005185   0.007054   0.359402  -0.040739
     9  H   -0.002710  -0.001044   0.004810  -0.000223  -0.035116   0.009138
    10  H    0.001234   0.004900  -0.001364  -0.000124  -0.047317  -0.006971
    11  O    0.003042   0.000005  -0.000013  -0.000189  -0.031467  -0.005067
    12  O   -0.000062  -0.000079  -0.000012   0.000004  -0.006748   0.014739
              7          8          9         10         11         12
     1  C   -0.030835  -0.056672  -0.002710   0.001234   0.003042  -0.000062
     2  H    0.008433  -0.005331  -0.001044   0.004900   0.000005  -0.000079
     3  H   -0.007530  -0.005185   0.004810  -0.001364  -0.000013  -0.000012
     4  H   -0.005544   0.007054  -0.000223  -0.000124  -0.000189   0.000004
     5  C    0.396391   0.359402  -0.035116  -0.047317  -0.031467  -0.006748
     6  H   -0.033400  -0.040739   0.009138  -0.006971  -0.005067   0.014739
     7  H    0.585128  -0.039312  -0.008128   0.009490   0.003942  -0.000140
     8  C   -0.039312   4.879146   0.377157   0.395759   0.185871  -0.065622
     9  H   -0.008128   0.377157   0.573171  -0.028115  -0.014958   0.006259
    10  H    0.009490   0.395759  -0.028115   0.564550  -0.026403   0.007857
    11  O    0.003942   0.185871  -0.014958  -0.026403   7.965936   0.053406
    12  O   -0.000140  -0.065622   0.006259   0.007857   0.053406   8.152059
 Mulliken atomic charges:
              1
     1  C   -0.311040
     2  H    0.111463
     3  H    0.108356
     4  H    0.120015
     5  C   -0.241496
     6  H    0.132225
     7  H    0.121505
     8  C    0.008473
     9  H    0.119760
    10  H    0.126504
    11  O   -0.134104
    12  O   -0.161661
 Sum of Mulliken atomic charges =   0.00000
 Mulliken charges with hydrogens summed into heavy atoms:
              1
     1  C    0.028793
     5  C    0.012234
     8  C    0.254737
    11  O   -0.134104
    12  O   -0.161661
 Sum of Mulliken charges with hydrogens summed into heavy atoms =   0.00000
          Atomic-Atomic Spin Densities.
              1          2          3          4          5          6
     1  C   -0.002889  -0.000381   0.000720   0.000430  -0.000844  -0.000746
     2  H   -0.000381  -0.000053  -0.000061   0.000181   0.000466   0.000067
     3  H    0.000720  -0.000061   0.000671  -0.000371  -0.001354  -0.000063
     4  H    0.000430   0.000181  -0.000371   0.000825  -0.000232   0.000267
     5  C   -0.000844   0.000466  -0.001354  -0.000232   0.040621   0.002725
     6  H   -0.000746   0.000067  -0.000063   0.000267   0.002725  -0.002533
     7  H    0.000111  -0.000054   0.000199  -0.000160  -0.001580  -0.000268
     8  C    0.001987  -0.000069   0.000292  -0.000230  -0.005186   0.001070
     9  H    0.000124   0.000002   0.000085  -0.000015  -0.001811  -0.000333
    10  H    0.001489  -0.000136   0.000285  -0.000153  -0.009640  -0.001021
    11  O    0.000098  -0.000013   0.000031  -0.000011  -0.011342  -0.001370
    12  O   -0.000135   0.000005  -0.000004   0.000010   0.003886   0.000358
              7          8          9         10         11         12
     1  C    0.000111   0.001987   0.000124   0.001489   0.000098  -0.000135
     2  H   -0.000054  -0.000069   0.000002  -0.000136  -0.000013   0.000005
     3  H    0.000199   0.000292   0.000085   0.000285   0.000031  -0.000004
     4  H   -0.000160  -0.000230  -0.000015  -0.000153  -0.000011   0.000010
     5  C   -0.001580  -0.005186  -0.001811  -0.009640  -0.011342   0.003886
     6  H   -0.000268   0.001070  -0.000333  -0.001021  -0.001370   0.000358
     7  H   -0.000714   0.000953   0.000095   0.000407   0.000991  -0.000663
     8  C    0.000953  -0.027677   0.003605  -0.000372   0.010989  -0.004711
     9  H    0.000095   0.003605  -0.001973   0.001002  -0.000716  -0.000216
    10  H    0.000407  -0.000372   0.001002   0.022094  -0.005571   0.002906
    11  O    0.000991   0.010989  -0.000716  -0.005571   0.435392  -0.132265
    12  O   -0.000663  -0.004711  -0.000216   0.002906  -0.132265   0.828753
 Mulliken atomic spin densities:
              1
     1  C   -0.000036
     2  H   -0.000046
     3  H    0.000430
     4  H    0.000541
     5  C    0.015710
     6  H   -0.001846
     7  H   -0.000681
     8  C   -0.019348
     9  H   -0.000151
    10  H    0.011290
    11  O    0.296213
    12  O    0.697923
 Sum of Mulliken atomic spin densities =   1.00000
 Electronic spatial extent (au):  <R**2>=            541.6871
 Charge=              0.0000 electrons
 Dipole moment (field-independent basis, Debye):
    X=             -2.7769    Y=              0.9192    Z=              0.1957  Tot=              2.9316
 Quadrupole moment (field-independent basis, Debye-Ang):
   XX=            -35.8709   YY=            -30.4464   ZZ=            -30.6900
   XY=              1.1720   XZ=              0.5094   YZ=              0.6033
 Traceless Quadrupole moment (field-independent basis, Debye-Ang):
   XX=             -3.5351   YY=              1.8894   ZZ=              1.6457
   XY=              1.1720   XZ=              0.5094   YZ=              0.6033
 Octapole moment (field-independent basis, Debye-Ang**2):
  XXX=              2.8742  YYY=              0.7132  ZZZ=              0.4654  XYY=              3.0273
  XXY=              1.0556  XXZ=             -0.1641  XZZ=              4.2037  YZZ=              0.0587
  YYZ=             -0.7555  XYZ=              1.0390
 Hexadecapole moment (field-independent basis, Debye-Ang**3):
 XXXX=           -546.6899 YYYY=            -90.2135 ZZZZ=            -62.0978 XXXY=              6.0844
 XXXZ=              4.3493 YYYX=             -3.0305 YYYZ=             -2.5895 ZZZX=              0.1437
 ZZZY=             -0.4546 XXYY=           -103.0713 XXZZ=            -98.4210 YYZZ=            -27.5082
 XXYZ=              1.4929 YYXZ=              1.3738 ZZXY=             -0.4645
 N-N= 1.800413884558D+02 E-N=-1.476478282141D+03  KE= 4.004033559602D+02
                          Isotropic Fermi Contact Couplings
        Atom                 a.u.       MegaHertz       Gauss      10(-4) cm-1
     1  C(13)             -0.00086      -0.96530      -0.34444      -0.32199
     2  H(1)               0.00001       0.02486       0.00887       0.00829
     3  H(1)               0.00013       0.59778       0.21330       0.19940
     4  H(1)               0.00031       1.38008       0.49245       0.46035
     5  C(13)              0.00645       7.24679       2.58583       2.41727
     6  H(1)              -0.00002      -0.08506      -0.03035      -0.02837
     7  H(1)              -0.00020      -0.90244      -0.32201      -0.30102
     8  C(13)             -0.01137     -12.78379      -4.56157      -4.26421
     9  H(1)               0.00045       2.02696       0.72327       0.67612
    10  H(1)               0.00303      13.52883       4.82742       4.51273
    11  O(17)              0.04185     -25.36649      -9.05140      -8.46135
    12  O(17)              0.04918     -29.81243     -10.63782      -9.94436
 --------------------------------------------------------
       Center         ----  Spin Dipole Couplings  ----
                      3XX-RR        3YY-RR        3ZZ-RR
 --------------------------------------------------------
     1   Atom        0.004840     -0.002528     -0.002312
     2   Atom        0.002939     -0.001800     -0.001139
     3   Atom        0.002762     -0.001175     -0.001587
     4   Atom        0.002478     -0.001202     -0.001276
     5   Atom        0.009770      0.007615     -0.017385
     6   Atom        0.010710     -0.002857     -0.007853
     7   Atom        0.005362     -0.005128     -0.000233
     8   Atom        0.016055     -0.004435     -0.011620
     9   Atom        0.005895      0.001413     -0.007308
    10   Atom        0.006599     -0.005323     -0.001277
    11   Atom       -0.422990      0.104974      0.318016
    12   Atom       -0.831665      0.242437      0.589227
 --------------------------------------------------------
                        XY            XZ            YZ
 --------------------------------------------------------
     1   Atom        0.000292     -0.001046     -0.000248
     2   Atom       -0.000060     -0.001407      0.000088
     3   Atom       -0.001151      0.000083      0.000008
     4   Atom        0.000505      0.000167      0.000153
     5   Atom        0.018449      0.003358      0.002489
     6   Atom        0.005773      0.001152     -0.000873
     7   Atom        0.001369      0.006065      0.001132
     8   Atom       -0.006726     -0.005736      0.000818
     9   Atom       -0.011343     -0.000022      0.000787
    10   Atom       -0.007668     -0.011513      0.004294
    11   Atom        0.569510      0.626127      1.056195
    12   Atom        1.125180      1.211948      1.943044
 --------------------------------------------------------


 ---------------------------------------------------------------------------------
              Anisotropic Spin Dipole Couplings in Principal Axis System
 ---------------------------------------------------------------------------------

       Atom             a.u.   MegaHertz   Gauss  10(-4) cm-1        Axes

              Baa    -0.0027    -0.364    -0.130    -0.121  0.0581  0.7711  0.6341
     1 C(13)  Bbb    -0.0023    -0.308    -0.110    -0.103  0.1374 -0.6353  0.7599
              Bcc     0.0050     0.671     0.240     0.224  0.9888  0.0430 -0.1429
 
              Baa    -0.0018    -0.971    -0.346    -0.324 -0.0637  0.9645 -0.2562
     2 H(1)   Bbb    -0.0016    -0.832    -0.297    -0.278  0.2911  0.2635  0.9197
              Bcc     0.0034     1.803     0.643     0.601  0.9546 -0.0160 -0.2976
 
              Baa    -0.0016    -0.852    -0.304    -0.284 -0.0841 -0.2490  0.9649
     3 H(1)   Bbb    -0.0015    -0.789    -0.282    -0.263  0.2479  0.9326  0.2622
              Bcc     0.0031     1.641     0.585     0.547  0.9651 -0.2613  0.0167
 
              Baa    -0.0014    -0.750    -0.268    -0.250  0.0576 -0.6844  0.7269
     4 H(1)   Bbb    -0.0011    -0.613    -0.219    -0.204 -0.1313  0.7166  0.6851
              Bcc     0.0026     1.363     0.487     0.455  0.9897  0.1349  0.0486
 
              Baa    -0.0178    -2.388    -0.852    -0.797 -0.1087 -0.0184  0.9939
     5 C(13)  Bbb    -0.0098    -1.309    -0.467    -0.437 -0.6799  0.7308 -0.0608
              Bcc     0.0276     3.698     1.319     1.233  0.7252  0.6824  0.0920
 
              Baa    -0.0083    -4.441    -1.585    -1.482 -0.1505  0.3089  0.9391
     6 H(1)   Bbb    -0.0045    -2.422    -0.864    -0.808 -0.3101  0.8872 -0.3415
              Bcc     0.0129     6.863     2.449     2.289  0.9387  0.3426  0.0377
 
              Baa    -0.0054    -2.869    -1.024    -0.957 -0.0096  0.9789 -0.2040
     7 H(1)   Bbb    -0.0041    -2.176    -0.776    -0.726 -0.5499  0.1653  0.8187
              Bcc     0.0095     5.045     1.800     1.683  0.8352  0.1201  0.5368
 
              Baa    -0.0128    -1.718    -0.613    -0.573  0.2111  0.0744  0.9746
     8 C(13)  Bbb    -0.0063    -0.850    -0.303    -0.284  0.2550  0.9584 -0.1283
              Bcc     0.0191     2.568     0.916     0.856  0.9436 -0.2756 -0.1833
 
              Baa    -0.0083    -4.416    -1.576    -1.473  0.5304  0.6637 -0.5274
     9 H(1)   Bbb    -0.0070    -3.709    -1.323    -1.237  0.3502  0.3950  0.8493
              Bcc     0.0152     8.125     2.899     2.710  0.7720 -0.6352 -0.0229
 
              Baa    -0.0101    -5.369    -1.916    -1.791  0.6367  0.4919  0.5939
    10 H(1)   Bbb    -0.0080    -4.284    -1.529    -1.429 -0.0552  0.7972 -0.6011
              Bcc     0.0181     9.653     3.445     3.220  0.7691 -0.3499 -0.5348
 
              Baa    -0.8501    61.515    21.950    20.519 -0.0277  0.7488 -0.6622
    11 O(17)  Bbb    -0.7730    55.936    19.959    18.658  0.9236 -0.2341 -0.3034
              Bcc     1.6232  -117.450   -41.909   -39.177  0.3822  0.6200  0.6852
 
              Baa    -1.5452   111.813    39.898    37.297 -0.6220  0.7217 -0.3038
    12 O(17)  Bbb    -1.5226   110.178    39.314    36.751  0.6787  0.3035 -0.6687
              Bcc     3.0679  -221.990   -79.212   -74.048  0.3904  0.6221  0.6786
 

 ---------------------------------------------------------------------------------

 No NMR shielding tensors so no spin-rotation constants.
 Leave Link  601 at Sat Jun  6 17:50:29 2015, MaxMem= 3758096384 cpu:       4.3
 (Enter /share/apps/g09/l701.exe)
 Compute integral first derivatives.
 ... and contract with generalized density number  0.
 Leave Link  701 at Sat Jun  6 17:50:29 2015, MaxMem= 3758096384 cpu:       2.8
 (Enter /share/apps/g09/l702.exe)
 L702 exits ... SP integral derivatives will be done elsewhere.
 Leave Link  702 at Sat Jun  6 17:50:30 2015, MaxMem= 3758096384 cpu:       0.2
 (Enter /share/apps/g09/l703.exe)
 Compute integral first derivatives, UseDBF=F ICtDFT=           0.
 Integral derivatives from FoFDir, PRISM(SPDF).
 Calling FoFJK, ICntrl=      2127 FMM=F ISym2X=0 I1Cent= 0 IOpClX= 1 NMat=1 NMatS=1 NMatT=0.
 FoFCou: FMM=F IPFlag=           0 FMFlag=      100000 FMFlg1=         800
         NFxFlg=           0 DoJE=F BraDBF=F KetDBF=F FulRan=T
         Omega=  0.000000  0.000000  1.000000  0.000000  0.000000 ICntrl=    2127 IOpCl=  1
         NMat0=    1 NMatS0=    1 NMatT0=    0 NMatD0=    1 NMtDS0=    0 NMtDT0=    0
         I1Cent=           0 NGrid=           0.
 Symmetry not used in FoFCou.
 Leave Link  703 at Sat Jun  6 17:50:31 2015, MaxMem= 3758096384 cpu:      18.3
 (Enter /share/apps/g09/l716.exe)
 Dipole        =-1.09251519D+00 3.61623150D-01 7.69811510D-02
 ***** Axes restored to original set *****
 -------------------------------------------------------------------
 Center     Atomic                   Forces (Hartrees/Bohr)
 Number     Number              X              Y              Z
 -------------------------------------------------------------------
      1        6          -0.000305176    0.000177873   -0.000145644
      2        1           0.000041634   -0.000032371   -0.000043168
      3        1          -0.000064833   -0.000047176    0.000041037
      4        1           0.000089761    0.000027508    0.000060628
      5        6           0.000318195    0.000276645    0.000320243
      6        1           0.000063338   -0.000436200    0.000004525
      7        1          -0.000033934   -0.000196041    0.000045420
      8        6          -0.000801635   -0.000721197   -0.000179772
      9        1           0.000001468    0.000120760    0.000049792
     10        1          -0.000153816    0.000061395   -0.000041831
     11        8           0.000541545   -0.000202696   -0.000467974
     12        8           0.000303453    0.000971499    0.000356744
 -------------------------------------------------------------------
 Cartesian Forces:  Max     0.000971499 RMS     0.000318213
 Leave Link  716 at Sat Jun  6 17:50:31 2015, MaxMem= 3758096384 cpu:       0.3
 (Enter /share/apps/g09/l103.exe)

 GradGradGradGradGradGradGradGradGradGradGradGradGradGradGradGradGradGrad
 Berny optimization.
 Internal  Forces:  Max     0.002567613 RMS     0.000428809
 Search for a local minimum.
 Step number   1 out of a maximum of   61
 All quantities printed in internal units (Hartrees-Bohrs-Radians)
 RMS Force = .42881D-03 SwitMx=.10000D-02 MixMth= 2
 Mixed Optimization -- En-DIIS/RFO-DIIS
 Second derivative matrix not updated -- first step.
     Eigenvalues ---    0.00342   0.00487   0.00881   0.03683   0.04894
     Eigenvalues ---    0.04961   0.05412   0.05417   0.05526   0.08188
     Eigenvalues ---    0.11731   0.12081   0.13815   0.16000   0.16000
     Eigenvalues ---    0.16000   0.21910   0.22061   0.25000   0.29235
     Eigenvalues ---    0.30259   0.34295   0.34330   0.34357   0.34407
     Eigenvalues ---    0.34543   0.34555   0.34570   0.36805   0.62358
     Eigenvalues --- 1000.000001000.000001000.000001000.000001000.00000
     Eigenvalues --- 1000.000001000.000001000.000001000.000001000.00000
     Eigenvalues --- 1000.000001000.000001000.000001000.000001000.00000
     Eigenvalues --- 1000.000001000.000001000.000001000.000001000.00000
     Eigenvalues --- 1000.00000
 RFO step:  Lambda=-5.43109796D-05 EMin= 3.41989487D-03
 Linear search not attempted -- first point.
 Iteration  1 RMS(Cart)=  0.00985310 RMS(Int)=  0.00010081
 Iteration  2 RMS(Cart)=  0.00008992 RMS(Int)=  0.00000313
 Iteration  3 RMS(Cart)=  0.00000001 RMS(Int)=  0.00000313
 Variable       Old X    -DE/DX   Delta X   Delta X   Delta X     New X
                                 (Linear)    (Quad)   (Total)
    R1        2.06732  -0.00004   0.00000  -0.00012  -0.00012   2.06719
    R2        2.06776  -0.00007   0.00000  -0.00020  -0.00020   2.06756
    R3        2.06403  -0.00004   0.00000  -0.00010  -0.00010   2.06393
    R4        2.89515  -0.00005   0.00000  -0.00016  -0.00016   2.89499
    R5        2.06649  -0.00007   0.00000  -0.00021  -0.00021   2.06628
    R6        2.06836  -0.00005   0.00000  -0.00015  -0.00015   2.06821
    R7        2.87451  -0.00034   0.00000  -0.00112  -0.00112   2.87339
    R8        2.06424  -0.00003   0.00000  -0.00010  -0.00010   2.06414
    R9        2.06378  -0.00005   0.00000  -0.00014  -0.00014   2.06364
   R10        2.76142  -0.00098   0.00000  -0.00265  -0.00265   2.75876
   R11        2.49122  -0.00023   0.00000  -0.00038  -0.00038   2.49084
    A1        1.88194   0.00000   0.00000  -0.00065  -0.00065   1.88129
    A2        1.87844  -0.00004   0.00000   0.00015   0.00015   1.87860
    A3        1.94465  -0.00003   0.00000  -0.00030  -0.00030   1.94435
    A4        1.87777  -0.00003   0.00000   0.00002   0.00002   1.87778
    A5        1.94741  -0.00009   0.00000  -0.00079  -0.00079   1.94662
    A6        1.93068   0.00019   0.00000   0.00156   0.00156   1.93224
    A7        1.92516   0.00009   0.00000   0.00155   0.00156   1.92672
    A8        1.92376  -0.00004   0.00000   0.00164   0.00164   1.92539
    A9        1.94910   0.00053   0.00000   0.00255   0.00255   1.95166
   A10        1.87165   0.00008   0.00000  -0.00030  -0.00031   1.87135
   A11        1.89101  -0.00047   0.00000  -0.00442  -0.00443   1.88658
   A12        1.90114  -0.00023   0.00000  -0.00126  -0.00127   1.89987
   A13        1.95835   0.00020   0.00000   0.00237   0.00238   1.96072
   A14        1.95952  -0.00010   0.00000  -0.00237  -0.00237   1.95715
   A15        1.94302  -0.00060   0.00000  -0.00305  -0.00305   1.93996
   A16        1.91800   0.00002   0.00000   0.00124   0.00124   1.91924
   A17        1.80630   0.00034   0.00000   0.00347   0.00347   1.80977
   A18        1.87081   0.00017   0.00000  -0.00137  -0.00139   1.86943
   A19        1.95341  -0.00257   0.00000  -0.01027  -0.01027   1.94314
    D1        1.05149  -0.00005   0.00000   0.00001   0.00001   1.05150
    D2        3.11501   0.00008   0.00000   0.00161   0.00161   3.11662
    D3       -1.05241   0.00012   0.00000   0.00285   0.00285  -1.04956
    D4       -3.12711  -0.00014   0.00000  -0.00157  -0.00157  -3.12868
    D5       -1.06359  -0.00001   0.00000   0.00003   0.00003  -1.06356
    D6        1.05218   0.00004   0.00000   0.00127   0.00127   1.05345
    D7       -1.03733  -0.00011   0.00000  -0.00103  -0.00103  -1.03836
    D8        1.02619   0.00002   0.00000   0.00058   0.00057   1.02676
    D9       -3.14123   0.00007   0.00000   0.00181   0.00182  -3.13941
   D10       -1.10570   0.00000   0.00000  -0.00367  -0.00367  -1.10937
   D11        1.06473   0.00010   0.00000  -0.00201  -0.00202   1.06271
   D12       -3.12089  -0.00017   0.00000  -0.00754  -0.00754  -3.12843
   D13        3.05374  -0.00013   0.00000  -0.00426  -0.00426   3.04949
   D14       -1.05902  -0.00003   0.00000  -0.00260  -0.00260  -1.06162
   D15        1.03855  -0.00030   0.00000  -0.00813  -0.00813   1.03042
   D16        1.02314   0.00015   0.00000  -0.00080  -0.00081   1.02234
   D17       -3.08961   0.00025   0.00000   0.00085   0.00085  -3.08877
   D18       -0.99205  -0.00002   0.00000  -0.00468  -0.00468  -0.99673
   D19       -1.31627   0.00035   0.00000   0.02306   0.02305  -1.29322
   D20        2.85989   0.00022   0.00000   0.01972   0.01972   2.87961
   D21        0.83291  -0.00004   0.00000   0.01730   0.01730   0.85021
         Item               Value     Threshold  Converged?
 Maximum Force            0.002568     0.000450     NO 
 RMS     Force            0.000429     0.000300     NO 
 Maximum Displacement     0.057174     0.001800     NO 
 RMS     Displacement     0.009857     0.001200     NO 
 Predicted change in Energy=-2.718257D-05
 GradGradGradGradGradGradGradGradGradGradGradGradGradGradGradGradGradGrad

 Leave Link  103 at Sat Jun  6 17:50:31 2015, MaxMem= 3758096384 cpu:       0.1
 (Enter /share/apps/g09/l202.exe)
                          Input orientation:                          
 ---------------------------------------------------------------------
 Center     Atomic      Atomic             Coordinates (Angstroms)
 Number     Number       Type             X           Y           Z
 ---------------------------------------------------------------------
      1          6           0        0.001556   -0.000036   -0.000889
      2          1           0        0.004736   -0.000951    1.093016
      3          1           0        1.042370   -0.001033   -0.338194
      4          1           0       -0.451043    0.938003   -0.329683
      5          6           0       -0.771455   -1.199287   -0.558706
      6          1           0       -1.811140   -1.172855   -0.221152
      7          1           0       -0.785034   -1.167156   -1.652597
      8          6           0       -0.163831   -2.520092   -0.113415
      9          1           0        0.850169   -2.660112   -0.494604
     10          1           0       -0.172510   -2.631572    0.972879
     11          8           0       -0.900601   -3.652195   -0.667263
     12          8           0       -2.057223   -3.816461   -0.056837
 ---------------------------------------------------------------------
                    Distance matrix (angstroms):
                    1          2          3          4          5
     1  C    0.000000
     2  H    1.093910   0.000000
     3  H    1.094107   1.767780   0.000000
     4  H    1.092185   1.764495   1.764127   0.000000
     5  C    1.531963   2.183271   2.185040   2.173275   0.000000
     6  H    2.170227   2.529388   3.086970   2.513436   1.093429
     7  H    2.170031   3.085801   2.535134   2.508654   1.094447
     8  C    2.527982   2.798207   2.801982   3.476734   1.520531
     9  H    2.835472   3.210363   2.670600   3.829723   2.183525
    10  H    2.811317   2.639321   3.180342   3.810001   2.180809
    11  O    3.820498   4.153289   4.149025   4.624498   2.458703
    12  O    4.336681   4.486865   4.923832   5.025852   2.958829
                    6          7          8          9         10
     6  H    0.000000
     7  H    1.761239   0.000000
     8  C    2.130794   2.141357   0.000000
     9  H    3.060927   2.498751   1.092294   0.000000
    10  H    2.497734   3.068032   1.092033   1.788908   0.000000
    11  O    2.678661   2.675754   1.459875   2.019712   2.064426
    12  O    2.660115   3.344209   2.295366   3.159385   2.452839
                   11         12
    11  O    0.000000
    12  O    1.318096   0.000000
 Stoichiometry    C3H7O2(2)
 Framework group  C1[X(C3H7O2)]
 Deg. of freedom    30
 Full point group                 C1      NOp   1
 Largest Abelian subgroup         C1      NOp   1
 Largest concise Abelian subgroup C1      NOp   1
                         Standard orientation:                         
 ---------------------------------------------------------------------
 Center     Atomic      Atomic             Coordinates (Angstroms)
 Number     Number       Type             X           Y           Z
 ---------------------------------------------------------------------
      1          6           0       -2.297624   -0.104139    0.156831
      2          1           0       -2.345983   -0.154957    1.248490
      3          1           0       -2.662291    0.881208   -0.148420
      4          1           0       -2.989929   -0.849800   -0.240123
      5          6           0       -0.875557   -0.359926   -0.352294
      6          1           0       -0.534963   -1.353478   -0.048259
      7          1           0       -0.852423   -0.330127   -1.446090
      8          6           0        0.110857    0.663283    0.188118
      9          1           0       -0.112823    1.676372   -0.153532
     10          1           0        0.169968    0.641985    1.278343
     11          8           0        1.457071    0.416615   -0.319915
     12          8           0        2.005727   -0.629929    0.264122
 ---------------------------------------------------------------------
 Rotational constants (GHZ):     15.2221630      2.4901483      2.3448784
 Leave Link  202 at Sat Jun  6 17:50:33 2015, MaxMem= 3758096384 cpu:       0.1
 (Enter /share/apps/g09/l301.exe)
 Standard basis: 6-311G(2d,d,p) (5D, 7F)
 Ernie: Thresh=  0.10000D-02 Tol=  0.10000D-05 Strict=F.
 There are   132 symmetry adapted basis functions of A   symmetry.
 Integral buffers will be    131072 words long.
 Raffenetti 2 integral format.
 Two-electron integral symmetry is turned on.
   132 basis functions,   216 primitive gaussians,   137 cartesian basis functions
    21 alpha electrons       20 beta electrons
       nuclear repulsion energy       180.3052543201 Hartrees.
 IExCor=  402 DFT=T Ex+Corr=B3LYP ExCW=0 ScaHFX=  0.200000
 ScaDFX=  0.800000  0.720000  1.000000  0.810000 ScalE2=  1.000000  1.000000
 IRadAn=      0 IRanWt=     -1 IRanGd=            0 ICorTp=0
 NAtoms=   12 NActive=   12 NUniq=   12 SFac= 7.50D-01 NAtFMM=   80 NAOKFM=F Big=F
 Leave Link  301 at Sat Jun  6 17:50:33 2015, MaxMem= 3758096384 cpu:       0.5
 (Enter /share/apps/g09/l302.exe)
 NPDir=0 NMtPBC=     1 NCelOv=     1 NCel=       1 NClECP=     1 NCelD=      1
         NCelK=      1 NCelE2=     1 NClLst=     1 CellRange=     0.0.
 One-electron integrals computed using PRISM.
 NBasis=   132 RedAO= T  NBF=   132
 NBsUse=   132 1.00D-06 NBFU=   132
 Precomputing XC quadrature grid using
 IXCGrd= 2 IRadAn=           0 IRanWt=          -1 IRanGd=           0 AccXCQ= 1.00D-10.
 NRdTot=     754 NPtTot=       95216 NUsed=      100663 NTot=      100695
 NSgBfM=   137   137   137   137   137 NAtAll=    12    12.
 Leave Link  302 at Sat Jun  6 17:50:33 2015, MaxMem= 3758096384 cpu:       2.7
 (Enter /share/apps/g09/l303.exe)
 DipDrv:  MaxL=1.
 Leave Link  303 at Sat Jun  6 17:50:33 2015, MaxMem= 3758096384 cpu:       0.3
 (Enter /share/apps/g09/l401.exe)
 Initial guess read from the read-write file.
 B after Tr=     0.000000    0.000000    0.000000
         Rot=    1.000000    0.000000    0.000000    0.000000 Ang=   0.00 deg.
 Guess basis will be translated and rotated to current coordinates.
 Initial guess orbital symmetries:
 Alpha Orbitals:
       Occupied  (A) (A) (A) (A) (A) (A) (A) (A) (A) (A) (A) (A)
                 (A) (A) (A) (A) (A) (A) (A) (A) (A)
       Virtual   (A) (A) (A) (A) (A) (A) (A) (A) (A) (A) (A) (A)
                 (A) (A) (A) (A) (A) (A) (A) (A) (A) (A) (A) (A)
                 (A) (A) (A) (A) (A) (A) (A) (A) (A) (A) (A) (A)
                 (A) (A) (A) (A) (A) (A) (A) (A) (A) (A) (A) (A)
                 (A) (A) (A) (A) (A) (A) (A) (A) (A) (A) (A) (A)
                 (A) (A) (A) (A) (A) (A) (A) (A) (A) (A) (A) (A)
                 (A) (A) (A) (A) (A) (A) (A) (A) (A) (A) (A) (A)
                 (A) (A) (A) (A) (A) (A) (A) (A) (A) (A) (A) (A)
                 (A) (A) (A) (A) (A) (A) (A) (A) (A) (A) (A) (A)
                 (A) (A) (A)
 Beta  Orbitals:
       Occupied  (A) (A) (A) (A) (A) (A) (A) (A) (A) (A) (A) (A)
                 (A) (A) (A) (A) (A) (A) (A) (A)
       Virtual   (A) (A) (A) (A) (A) (A) (A) (A) (A) (A) (A) (A)
                 (A) (A) (A) (A) (A) (A) (A) (A) (A) (A) (A) (A)
                 (A) (A) (A) (A) (A) (A) (A) (A) (A) (A) (A) (A)
                 (A) (A) (A) (A) (A) (A) (A) (A) (A) (A) (A) (A)
                 (A) (A) (A) (A) (A) (A) (A) (A) (A) (A) (A) (A)
                 (A) (A) (A) (A) (A) (A) (A) (A) (A) (A) (A) (A)
                 (A) (A) (A) (A) (A) (A) (A) (A) (A) (A) (A) (A)
                 (A) (A) (A) (A) (A) (A) (A) (A) (A) (A) (A) (A)
                 (A) (A) (A) (A) (A) (A) (A) (A) (A) (A) (A) (A)
                 (A) (A) (A) (A)
 The electronic state of the initial guess is 2-A.
 Initial guess <Sx>= 0.0000 <Sy>= 0.0000 <Sz>= 0.5000 <S**2>= 0.7533 S= 0.5017
 Generating alternative initial guess.
 Harris functional with IExCor=  402 diagonalized for initial guess.
 ExpMin= 1.03D-01 ExpMax= 8.59D+03 ExpMxC= 1.30D+03 IAcc=1 IRadAn=         1 AccDes= 0.00D+00
 HarFok:  IExCor=  402 AccDes= 0.00D+00 IRadAn=         1 IDoV= 1
 ScaDFX=  1.000000  1.000000  1.000000  1.000000
 FoFCou: FMM=F IPFlag=           0 FMFlag=      100000 FMFlg1=           0
         NFxFlg=           0 DoJE=T BraDBF=F KetDBF=T FulRan=T
         Omega=  0.000000  0.000000  1.000000  0.000000  0.000000 ICntrl=     500 IOpCl=  0
         NMat0=    1 NMatS0=    1 NMatT0=    0 NMatD0=    1 NMtDS0=    0 NMtDT0=    0
         I1Cent=           4 NGrid=           0.
 Petite list used in FoFCou.
 Harris En= -268.961884142392    
 Leave Link  401 at Sat Jun  6 17:50:34 2015, MaxMem= 3758096384 cpu:       4.4
 (Enter /share/apps/g09/l502.exe)
 UHF open shell SCF:
 Requested convergence on RMS density matrix=1.00D-08 within 128 cycles.
 Requested convergence on MAX density matrix=1.00D-06.
 Requested convergence on             energy=1.00D-06.
 No special actions if energy rises.
 Using DIIS extrapolation, IDIIS=  1040.
 Integral symmetry usage will be decided dynamically.
       100542 words used for storage of precomputed grid.
 Keep R1 and R2 ints in memory in canonical form, NReq=90860320.
 IEnd=      177670 IEndB=      177670 NGot=  3758096384 MDV=  3668585571
 LenX=  3668585571 LenY=  3668566361
 Symmetry not used in FoFDir.
 MinBra= 0 MaxBra= 2 Meth= 1.
 IRaf=       0 NMat=   1 IRICut=       1 DoRegI=T DoRafI=F ISym2E= 0 JSym2E=0.
 Integral accuracy reduced to 1.0D-05 until final iterations.

 Cycle   1  Pass 0  IDiag  1:
 E= -268.926527037236    
 DIIS: error= 1.87D-03 at cycle   1 NSaved=   1.
 NSaved= 1 IEnMin= 1 EnMin= -268.926527037236     IErMin= 1 ErrMin= 1.87D-03
 ErrMax= 1.87D-03 EMaxC= 1.00D-01 BMatC= 9.61D-04 BMatP= 9.61D-04
 IDIUse=3 WtCom= 9.81D-01 WtEn= 1.87D-02
 Coeff-Com:  0.100D+01
 Coeff-En:   0.100D+01
 Coeff:      0.100D+01
 Gap=     0.314 Goal=   None    Shift=    0.000
 Gap=     0.154 Goal=   None    Shift=    0.000
 GapD=    0.154 DampG=1.000 DampE=1.000 DampFc=1.0000 IDamp=-1.
 RMSDP=1.52D-04 MaxDP=3.31D-03              OVMax= 8.25D-03

 Cycle   2  Pass 0  IDiag  1:
 E= -268.926978423929     Delta-E=       -0.000451386693 Rises=F Damp=F
 DIIS: error= 2.53D-04 at cycle   2 NSaved=   2.
 NSaved= 2 IEnMin= 2 EnMin= -268.926978423929     IErMin= 2 ErrMin= 2.53D-04
 ErrMax= 2.53D-04 EMaxC= 1.00D-01 BMatC= 2.99D-05 BMatP= 9.61D-04
 IDIUse=3 WtCom= 9.97D-01 WtEn= 2.53D-03
 Coeff-Com: -0.785D-01 0.108D+01
 Coeff-En:   0.000D+00 0.100D+01
 Coeff:     -0.783D-01 0.108D+01
 Gap=     0.313 Goal=   None    Shift=    0.000
 Gap=     0.153 Goal=   None    Shift=    0.000
 RMSDP=3.05D-05 MaxDP=7.70D-04 DE=-4.51D-04 OVMax= 2.20D-03

 Cycle   3  Pass 0  IDiag  1:
 E= -268.926987577139     Delta-E=       -0.000009153210 Rises=F Damp=F
 DIIS: error= 2.99D-04 at cycle   3 NSaved=   3.
 NSaved= 3 IEnMin= 3 EnMin= -268.926987577139     IErMin= 2 ErrMin= 2.53D-04
 ErrMax= 2.99D-04 EMaxC= 1.00D-01 BMatC= 2.45D-05 BMatP= 2.99D-05
 IDIUse=3 WtCom= 9.97D-01 WtEn= 2.99D-03
 Coeff-Com: -0.502D-01 0.545D+00 0.506D+00
 Coeff-En:   0.000D+00 0.000D+00 0.100D+01
 Coeff:     -0.501D-01 0.543D+00 0.507D+00
 Gap=     0.313 Goal=   None    Shift=    0.000
 Gap=     0.154 Goal=   None    Shift=    0.000
 RMSDP=1.68D-05 MaxDP=4.89D-04 DE=-9.15D-06 OVMax= 1.32D-03

 Cycle   4  Pass 0  IDiag  1:
 E= -268.926990553250     Delta-E=       -0.000002976111 Rises=F Damp=F
 DIIS: error= 2.22D-04 at cycle   4 NSaved=   4.
 NSaved= 4 IEnMin= 4 EnMin= -268.926990553250     IErMin= 4 ErrMin= 2.22D-04
 ErrMax= 2.22D-04 EMaxC= 1.00D-01 BMatC= 1.15D-05 BMatP= 2.45D-05
 IDIUse=3 WtCom= 9.98D-01 WtEn= 2.22D-03
 Coeff-Com: -0.118D-01 0.885D-01 0.391D+00 0.532D+00
 Coeff-En:   0.000D+00 0.000D+00 0.303D+00 0.697D+00
 Coeff:     -0.117D-01 0.883D-01 0.391D+00 0.532D+00
 Gap=     0.313 Goal=   None    Shift=    0.000
 Gap=     0.153 Goal=   None    Shift=    0.000
 RMSDP=8.78D-06 MaxDP=2.70D-04 DE=-2.98D-06 OVMax= 8.82D-04

 Initial convergence to 1.0D-05 achieved.  Increase integral accuracy.
 Cycle   5  Pass 1  IDiag  1:
 E= -268.926978555607     Delta-E=        0.000011997643 Rises=F Damp=F
 DIIS: error= 3.38D-05 at cycle   1 NSaved=   1.
 NSaved= 1 IEnMin= 1 EnMin= -268.926978555607     IErMin= 1 ErrMin= 3.38D-05
 ErrMax= 3.38D-05 EMaxC= 1.00D-01 BMatC= 9.60D-07 BMatP= 9.60D-07
 IDIUse=1 WtCom= 1.00D+00 WtEn= 0.00D+00
 Coeff-Com:  0.100D+01
 Coeff:      0.100D+01
 Gap=     0.313 Goal=   None    Shift=    0.000
 Gap=     0.154 Goal=   None    Shift=    0.000
 RMSDP=8.78D-06 MaxDP=2.70D-04 DE= 1.20D-05 OVMax= 9.89D-04

 Cycle   6  Pass 1  IDiag  1:
 E= -268.926978702221     Delta-E=       -0.000000146614 Rises=F Damp=F
 DIIS: error= 6.89D-05 at cycle   2 NSaved=   2.
 NSaved= 2 IEnMin= 2 EnMin= -268.926978702221     IErMin= 1 ErrMin= 3.38D-05
 ErrMax= 6.89D-05 EMaxC= 1.00D-01 BMatC= 2.26D-06 BMatP= 9.60D-07
 IDIUse=1 WtCom= 1.00D+00 WtEn= 0.00D+00
 Coeff-Com:  0.624D+00 0.376D+00
 Coeff:      0.624D+00 0.376D+00
 Gap=     0.313 Goal=   None    Shift=    0.000
 Gap=     0.153 Goal=   None    Shift=    0.000
 RMSDP=3.72D-06 MaxDP=1.01D-04 DE=-1.47D-07 OVMax= 2.91D-04

 Cycle   7  Pass 1  IDiag  1:
 E= -268.926979131366     Delta-E=       -0.000000429145 Rises=F Damp=F
 DIIS: error= 2.43D-05 at cycle   3 NSaved=   3.
 NSaved= 3 IEnMin= 3 EnMin= -268.926979131366     IErMin= 3 ErrMin= 2.43D-05
 ErrMax= 2.43D-05 EMaxC= 1.00D-01 BMatC= 2.34D-07 BMatP= 9.60D-07
 IDIUse=1 WtCom= 1.00D+00 WtEn= 0.00D+00
 Coeff-Com:  0.217D+00 0.225D+00 0.558D+00
 Coeff:      0.217D+00 0.225D+00 0.558D+00
 Gap=     0.313 Goal=   None    Shift=    0.000
 Gap=     0.153 Goal=   None    Shift=    0.000
 RMSDP=2.51D-06 MaxDP=6.47D-05 DE=-4.29D-07 OVMax= 4.23D-04

 Cycle   8  Pass 1  IDiag  1:
 E= -268.926979254076     Delta-E=       -0.000000122710 Rises=F Damp=F
 DIIS: error= 1.85D-05 at cycle   4 NSaved=   4.
 NSaved= 4 IEnMin= 4 EnMin= -268.926979254076     IErMin= 4 ErrMin= 1.85D-05
 ErrMax= 1.85D-05 EMaxC= 1.00D-01 BMatC= 6.92D-08 BMatP= 2.34D-07
 IDIUse=1 WtCom= 1.00D+00 WtEn= 0.00D+00
 Coeff-Com: -0.293D+00-0.126D+00 0.288D+00 0.113D+01
 Coeff:     -0.293D+00-0.126D+00 0.288D+00 0.113D+01
 Gap=     0.313 Goal=   None    Shift=    0.000
 Gap=     0.153 Goal=   None    Shift=    0.000
 RMSDP=4.74D-06 MaxDP=1.51D-04 DE=-1.23D-07 OVMax= 9.34D-04

 Cycle   9  Pass 1  IDiag  1:
 E= -268.926979413184     Delta-E=       -0.000000159108 Rises=F Damp=F
 DIIS: error= 1.08D-05 at cycle   5 NSaved=   5.
 NSaved= 5 IEnMin= 5 EnMin= -268.926979413184     IErMin= 5 ErrMin= 1.08D-05
 ErrMax= 1.08D-05 EMaxC= 1.00D-01 BMatC= 1.90D-08 BMatP= 6.92D-08
 IDIUse=1 WtCom= 1.00D+00 WtEn= 0.00D+00
 Coeff-Com: -0.122D+00-0.844D-01-0.642D-01 0.276D+00 0.994D+00
 Coeff:     -0.122D+00-0.844D-01-0.642D-01 0.276D+00 0.994D+00
 Gap=     0.313 Goal=   None    Shift=    0.000
 Gap=     0.153 Goal=   None    Shift=    0.000
 RMSDP=2.92D-06 MaxDP=8.34D-05 DE=-1.59D-07 OVMax= 5.78D-04

 Cycle  10  Pass 1  IDiag  1:
 E= -268.926979471173     Delta-E=       -0.000000057989 Rises=F Damp=F
 DIIS: error= 6.91D-06 at cycle   6 NSaved=   6.
 NSaved= 6 IEnMin= 6 EnMin= -268.926979471173     IErMin= 6 ErrMin= 6.91D-06
 ErrMax= 6.91D-06 EMaxC= 1.00D-01 BMatC= 9.46D-09 BMatP= 1.90D-08
 IDIUse=1 WtCom= 1.00D+00 WtEn= 0.00D+00
 Coeff-Com:  0.107D+00 0.282D-01-0.203D+00-0.546D+00 0.539D+00 0.107D+01
 Coeff:      0.107D+00 0.282D-01-0.203D+00-0.546D+00 0.539D+00 0.107D+01
 Gap=     0.313 Goal=   None    Shift=    0.000
 Gap=     0.153 Goal=   None    Shift=    0.000
 RMSDP=3.04D-06 MaxDP=8.90D-05 DE=-5.80D-08 OVMax= 6.09D-04

 Cycle  11  Pass 1  IDiag  1:
 E= -268.926979504233     Delta-E=       -0.000000033060 Rises=F Damp=F
 DIIS: error= 2.43D-06 at cycle   7 NSaved=   7.
 NSaved= 7 IEnMin= 7 EnMin= -268.926979504233     IErMin= 7 ErrMin= 2.43D-06
 ErrMax= 2.43D-06 EMaxC= 1.00D-01 BMatC= 1.43D-09 BMatP= 9.46D-09
 IDIUse=1 WtCom= 1.00D+00 WtEn= 0.00D+00
 Coeff-Com:  0.456D-01 0.284D-01 0.147D-03-0.122D+00-0.248D+00 0.856D-01
 Coeff-Com:  0.121D+01
 Coeff:      0.456D-01 0.284D-01 0.147D-03-0.122D+00-0.248D+00 0.856D-01
 Coeff:      0.121D+01
 Gap=     0.313 Goal=   None    Shift=    0.000
 Gap=     0.153 Goal=   None    Shift=    0.000
 RMSDP=1.37D-06 MaxDP=3.79D-05 DE=-3.31D-08 OVMax= 2.72D-04

 Cycle  12  Pass 1  IDiag  1:
 E= -268.926979509431     Delta-E=       -0.000000005198 Rises=F Damp=F
 DIIS: error= 8.64D-07 at cycle   8 NSaved=   8.
 NSaved= 8 IEnMin= 8 EnMin= -268.926979509431     IErMin= 8 ErrMin= 8.64D-07
 ErrMax= 8.64D-07 EMaxC= 1.00D-01 BMatC= 4.80D-10 BMatP= 1.43D-09
 IDIUse=1 WtCom= 1.00D+00 WtEn= 0.00D+00
 Coeff-Com:  0.291D-02 0.904D-02 0.395D-01 0.429D-01-0.234D+00-0.171D+00
 Coeff-Com:  0.618D+00 0.692D+00
 Coeff:      0.291D-02 0.904D-02 0.395D-01 0.429D-01-0.234D+00-0.171D+00
 Coeff:      0.618D+00 0.692D+00
 Gap=     0.313 Goal=   None    Shift=    0.000
 Gap=     0.153 Goal=   None    Shift=    0.000
 RMSDP=3.73D-07 MaxDP=1.01D-05 DE=-5.20D-09 OVMax= 7.36D-05

 Cycle  13  Pass 1  IDiag  1:
 E= -268.926979509845     Delta-E=       -0.000000000414 Rises=F Damp=F
 DIIS: error= 2.47D-07 at cycle   9 NSaved=   9.
 NSaved= 9 IEnMin= 9 EnMin= -268.926979509845     IErMin= 9 ErrMin= 2.47D-07
 ErrMax= 2.47D-07 EMaxC= 1.00D-01 BMatC= 3.27D-11 BMatP= 4.80D-10
 IDIUse=1 WtCom= 1.00D+00 WtEn= 0.00D+00
 Coeff-Com: -0.401D-02 0.486D-03 0.161D-01 0.320D-01-0.700D-01-0.844D-01
 Coeff-Com:  0.126D+00 0.285D+00 0.698D+00
 Coeff:     -0.401D-02 0.486D-03 0.161D-01 0.320D-01-0.700D-01-0.844D-01
 Coeff:      0.126D+00 0.285D+00 0.698D+00
 Gap=     0.313 Goal=   None    Shift=    0.000
 Gap=     0.153 Goal=   None    Shift=    0.000
 RMSDP=6.82D-08 MaxDP=1.82D-06 DE=-4.14D-10 OVMax= 1.31D-05

 Cycle  14  Pass 1  IDiag  1:
 E= -268.926979509859     Delta-E=       -0.000000000014 Rises=F Damp=F
 DIIS: error= 2.78D-08 at cycle  10 NSaved=  10.
 NSaved=10 IEnMin=10 EnMin= -268.926979509859     IErMin=10 ErrMin= 2.78D-08
 ErrMax= 2.78D-08 EMaxC= 1.00D-01 BMatC= 3.76D-13 BMatP= 3.27D-11
 IDIUse=1 WtCom= 1.00D+00 WtEn= 0.00D+00
 Coeff-Com: -0.546D-03-0.230D-03 0.663D-03 0.237D-02-0.130D-02-0.467D-02
 Coeff-Com: -0.281D-02 0.132D-01 0.101D+00 0.893D+00
 Coeff:     -0.546D-03-0.230D-03 0.663D-03 0.237D-02-0.130D-02-0.467D-02
 Coeff:     -0.281D-02 0.132D-01 0.101D+00 0.893D+00
 Gap=     0.313 Goal=   None    Shift=    0.000
 Gap=     0.153 Goal=   None    Shift=    0.000
 RMSDP=3.47D-09 MaxDP=6.25D-08 DE=-1.42D-11 OVMax= 2.72D-07

 SCF Done:  E(UB3LYP) =  -268.926979510     A.U. after   14 cycles
             Convg  =    0.3467D-08             -V/T =  2.0034
 <Sx>= 0.0000 <Sy>= 0.0000 <Sz>= 0.5000 <S**2>= 0.7533 S= 0.5016
 <L.S>= 0.000000000000E+00
 KE= 2.680283334405D+02 PE=-9.906980192680D+02 EE= 2.734374519975D+02
 Annihilation of the first spin contaminant:
 S**2 before annihilation     0.7533,   after     0.7500
 Leave Link  502 at Sat Jun  6 17:50:45 2015, MaxMem= 3758096384 cpu:     135.9
 (Enter /share/apps/g09/l701.exe)
 Compute integral first derivatives.
 ... and contract with generalized density number  0.
 Leave Link  701 at Sat Jun  6 17:50:45 2015, MaxMem= 3758096384 cpu:       2.6
 (Enter /share/apps/g09/l702.exe)
[...]
     25  0.185355D-03  0.174605D-02 -0.862418D-03  0.450438D-03 -0.295220D-03
     26  0.190103D-02 -0.530734D-02  0.224343D-02 -0.756582D-03  0.116910D-02
     27 -0.128699D-02  0.191486D-02  0.600776D-03 -0.321976D-03 -0.738772D-03
     28  0.619251D-03 -0.930426D-03 -0.414040D-03 -0.177831D-03  0.242287D-02
     29  0.264851D-04  0.120171D-02 -0.784213D-03  0.274676D-02 -0.511243D-02
     30 -0.958423D-04 -0.151097D-03  0.592815D-03 -0.738267D-03  0.116487D-02
     31 -0.174234D-03  0.465592D-03  0.854119D-03  0.429725D-03  0.469111D-03
     32 -0.491194D-03  0.266468D-02 -0.966451D-03 -0.185218D-03  0.283284D-02
     33 -0.418499D-03 -0.240972D-03  0.223911D-03  0.428071D-03 -0.392892D-03
     34  0.943234D-03 -0.805440D-03 -0.159433D-03 -0.276980D-03 -0.668178D-03
     35 -0.135806D-02  0.299888D-03  0.214313D-03 -0.493089D-03 -0.199826D-03
     36 -0.872910D-04  0.312066D-03 -0.490599D-03  0.329863D-03 -0.180451D-03
               21            22            23            24            25 
     21  0.329927D+00
     22 -0.365061D-03  0.553711D+00
     23  0.146519D-02 -0.516915D-01  0.389622D+00
     24 -0.113168D-01 -0.752741D-01 -0.211861D-01  0.588824D+00
     25 -0.302223D-03 -0.268874D+00  0.315431D-01  0.854930D-01  0.296968D+00
     26  0.197547D-03  0.402540D-01 -0.527694D-01 -0.179753D-01 -0.313543D-01
     27  0.821164D-03  0.940062D-01 -0.123385D-01 -0.912194D-01 -0.943874D-01
     28 -0.121716D-02 -0.519384D-01  0.195939D-02  0.139539D-01  0.256838D-02
     29  0.116759D-02 -0.888055D-03 -0.488932D-01  0.368590D-01  0.710905D-03
     30  0.929324D-03  0.543055D-02  0.304773D-01 -0.307822D+00  0.182395D-03
     31  0.473287D-04 -0.608950D-01 -0.185359D-01 -0.139206D-01 -0.194327D-01
     32 -0.362281D-03 -0.548579D-02 -0.107324D+00 -0.638568D-01 -0.128321D-02
     33  0.136920D-02  0.214773D-02 -0.504844D-01 -0.995913D-01  0.825341D-02
     34  0.501279D-03 -0.548342D-01 -0.211914D-01  0.124336D-01 -0.238926D-02
     35  0.469952D-03 -0.373466D-01 -0.326641D-02  0.222820D-01 -0.387812D-02
     36 -0.140444D-03 -0.271704D-02  0.136836D-01  0.103838D-01 -0.306425D-02
               26            27            28            29            30 
     26  0.622885D-01
     27  0.149116D-01  0.880499D-01
     28 -0.224262D-02  0.285485D-01  0.505663D-01
     29  0.136867D-02 -0.367286D-02  0.274381D-02  0.612410D-01
     30  0.169442D-02 -0.788248D-02 -0.349599D-02 -0.284848D-01  0.333243D+00
     31 -0.281432D-01 -0.143759D-01 -0.763162D-02 -0.101130D-01 -0.377676D-02
     32 -0.597103D-03 -0.385063D-04 -0.762400D-02 -0.112527D-01 -0.955932D-02
     33  0.114295D-01  0.441059D-02 -0.217422D-01 -0.343484D-01 -0.148659D-01
     34 -0.708591D-02 -0.209485D-02  0.462328D-02  0.515615D-02  0.182472D-02
     35 -0.491214D-02 -0.170140D-02  0.103943D-02  0.248427D-02  0.260551D-02
     36 -0.226900D-02  0.811764D-03 -0.156679D-02 -0.818682D-04  0.300416D-02
               31            32            33            34            35 
     31  0.387372D+00
     32  0.870641D-01  0.202265D+00
     33 -0.138993D+00  0.916354D-01  0.215924D+00
     34 -0.304749D+00 -0.523500D-01  0.145038D+00  0.354090D+00
     35 -0.290546D-01 -0.403938D-01 -0.173467D-01  0.718628D-01  0.460110D-01
     36  0.166301D+00 -0.458353D-02 -0.111365D+00 -0.157920D+00 -0.688529D-02
               36 
     36  0.961604D-01
 Leave Link  716 at Sat Jun  6 17:52:03 2015, MaxMem= 3758096384 cpu:       0.4
 (Enter /share/apps/g09/l103.exe)

 GradGradGradGradGradGradGradGradGradGradGradGradGradGradGradGradGradGrad
 Berny optimization.
 Internal  Forces:  Max     0.000058940 RMS     0.000017448
 Search for a local minimum.
 Step number   1 out of a maximum of    2
 All quantities printed in internal units (Hartrees-Bohrs-Radians)
 Second derivative matrix not updated -- analytic derivatives used.
     Eigenvalues ---    0.00212   0.00275   0.00440   0.03479   0.03885
     Eigenvalues ---    0.04444   0.04533   0.04580   0.05646   0.06806
     Eigenvalues ---    0.09241   0.10198   0.12182   0.13269   0.13314
     Eigenvalues ---    0.16064   0.17321   0.22183   0.25104   0.28581
     Eigenvalues ---    0.30393   0.31055   0.32834   0.33106   0.33317
     Eigenvalues ---    0.33779   0.33976   0.34243   0.34394   0.48458
     Eigenvalues --- 1000.000001000.000001000.000001000.000001000.00000
     Eigenvalues --- 1000.000001000.000001000.000001000.000001000.00000
     Eigenvalues --- 1000.000001000.000001000.000001000.000001000.00000
     Eigenvalues --- 1000.000001000.000001000.000001000.000001000.00000
     Eigenvalues --- 1000.00000
 Angle between quadratic step and forces=  74.46 degrees.
 Linear search not attempted -- first point.
 Iteration  1 RMS(Cart)=  0.00074051 RMS(Int)=  0.00000046
 Iteration  2 RMS(Cart)=  0.00000059 RMS(Int)=  0.00000002
 Variable       Old X    -DE/DX   Delta X   Delta X   Delta X     New X
                                 (Linear)    (Quad)   (Total)
    R1        2.06729   0.00000   0.00000  -0.00001  -0.00001   2.06728
    R2        2.06766   0.00000   0.00000  -0.00001  -0.00001   2.06766
    R3        2.06381   0.00001   0.00000   0.00005   0.00005   2.06385
    R4        2.89387   0.00002   0.00000   0.00013   0.00013   2.89399
    R5        2.06612   0.00000   0.00000  -0.00002  -0.00002   2.06610
    R6        2.06839   0.00000   0.00000  -0.00001  -0.00001   2.06838
    R7        2.87453  -0.00005   0.00000  -0.00023  -0.00023   2.87430
    R8        2.06406   0.00001   0.00000   0.00003   0.00003   2.06409
    R9        2.06385   0.00001   0.00000   0.00006   0.00006   2.06391
   R10        2.75898  -0.00002   0.00000  -0.00003  -0.00003   2.75895
   R11        2.49184  -0.00005   0.00000  -0.00012  -0.00012   2.49172
    A1        1.88107  -0.00001   0.00000   0.00001   0.00001   1.88108
    A2        1.87865  -0.00001   0.00000  -0.00004  -0.00004   1.87861
    A3        1.94429   0.00001   0.00000   0.00005   0.00005   1.94434
    A4        1.87774   0.00000   0.00000  -0.00006  -0.00006   1.87768
    A5        1.94690   0.00001   0.00000   0.00007   0.00007   1.94697
    A6        1.93222  -0.00001   0.00000  -0.00003  -0.00003   1.93219
    A7        1.92757   0.00000   0.00000  -0.00012  -0.00012   1.92745
    A8        1.92544   0.00002   0.00000  -0.00001  -0.00001   1.92544
    A9        1.95305  -0.00006   0.00000  -0.00044  -0.00044   1.95261
   A10        1.87118  -0.00001   0.00000   0.00008   0.00008   1.87126
   A11        1.88463   0.00004   0.00000   0.00037   0.00037   1.88501
   A12        1.89957   0.00001   0.00000   0.00015   0.00015   1.89972
   A13        1.96053   0.00000   0.00000   0.00001   0.00001   1.96055
   A14        1.95713  -0.00001   0.00000  -0.00011  -0.00011   1.95702
   A15        1.94116   0.00004   0.00000   0.00045   0.00045   1.94161
   A16        1.91804   0.00000   0.00000  -0.00012  -0.00012   1.91792
   A17        1.80907  -0.00002   0.00000  -0.00017  -0.00017   1.80890
   A18        1.87035  -0.00002   0.00000  -0.00008  -0.00008   1.87027
   A19        1.94567   0.00001   0.00000   0.00007   0.00007   1.94574
    D1        1.05119   0.00000   0.00000  -0.00049  -0.00049   1.05070
    D2        3.11667   0.00000   0.00000  -0.00047  -0.00047   3.11620
    D3       -1.04891  -0.00001   0.00000  -0.00058  -0.00058  -1.04949
    D4       -3.12912   0.00001   0.00000  -0.00039  -0.00039  -3.12951
    D5       -1.06364   0.00001   0.00000  -0.00037  -0.00037  -1.06401
    D6        1.05397   0.00000   0.00000  -0.00049  -0.00049   1.05348
    D7       -1.03868   0.00000   0.00000  -0.00045  -0.00045  -1.03912
    D8        1.02680   0.00000   0.00000  -0.00042  -0.00042   1.02637
    D9       -3.13878  -0.00001   0.00000  -0.00054  -0.00054  -3.13932
   D10       -1.11369   0.00000   0.00000  -0.00103  -0.00103  -1.11472
   D11        1.05663  -0.00001   0.00000  -0.00126  -0.00126   1.05537
   D12       -3.13253  -0.00001   0.00000  -0.00112  -0.00112  -3.13364
   D13        3.04454   0.00001   0.00000  -0.00085  -0.00085   3.04368
   D14       -1.06834   0.00001   0.00000  -0.00108  -0.00108  -1.06941
   D15        1.02570   0.00001   0.00000  -0.00094  -0.00094   1.02476
   D16        1.01879  -0.00001   0.00000  -0.00123  -0.00123   1.01756
   D17       -3.09408  -0.00001   0.00000  -0.00145  -0.00145  -3.09553
   D18       -1.00005  -0.00001   0.00000  -0.00131  -0.00131  -1.00136
   D19       -1.27817   0.00001   0.00000   0.00205   0.00205  -1.27612
   D20        2.89469   0.00000   0.00000   0.00190   0.00190   2.89659
   D21        0.86658   0.00001   0.00000   0.00214   0.00214   0.86872
         Item               Value     Threshold  Converged?
 Maximum Force            0.000059     0.000450     YES
 RMS     Force            0.000017     0.000300     YES
 Maximum Displacement     0.002112     0.001800     NO 
 RMS     Displacement     0.000740     0.001200     YES
 Predicted change in Energy=-8.697665D-08
 GradGradGradGradGradGradGradGradGradGradGradGradGradGradGradGradGradGrad

 Leave Link  103 at Sat Jun  6 17:52:03 2015, MaxMem= 3758096384 cpu:       0.1
 (Enter /share/apps/g09/l9999.exe)
 1\1\GINC-COMPUTE-0-15\Freq\UB3LYP\6-311G(2d,d,p)\C3H7O2(2)\HETANJIN\06
 -Jun-2015\0\\#P Geom=AllCheck Guess=TCheck SCRF=Check GenChk UB3LYP/6-
 311G(2d,d,p) Freq\\using ub3lyp/6-31G(d) to scan\\0,2\C,0.000435797,0.
 0002635039,-0.000711016\H,0.0035813392,-0.0006174456,1.0932454085\H,1.
 0413852282,0.0012443362,-0.3377723887\H,-0.453782102,0.9374175007,-0.3
 295788538\C,-0.7701743263,-1.1999170995,-0.5582172429\H,-1.8099141191,
 -1.1762341313,-0.2209048383\H,-0.7837994809,-1.1679655107,-1.652211928
 5\C,-0.1620268856,-2.5211928951,-0.112980373\H,0.8505605226,-2.6624182
 787,-0.4973474419\H,-0.1656836254,-2.6304548878,0.9736762773\O,-0.9003
 652402,-3.6545616072,-0.6624298963\O,-2.0642231075,-3.8093104849,-0.06
 22127063\\Version=EM64L-G09RevA.01\State=2-A\HF=-268.9269837\S2=0.7533
 03\S2-1=0.\S2A=0.750007\RMSD=2.216e-09\RMSF=2.578e-05\ZeroPoint=0.0999
 687\Thermal=0.1061471\Dipole=0.741855,0.8632072,0.1068184\DipoleDeriv=
 0.1382157,0.0405123,-0.0235561,-0.0382968,0.0174627,-0.0076233,-0.0098
 345,0.0192588,0.1109199,0.051739,-0.0283123,0.0032039,-0.0162541,0.046
 6258,0.0250852,-0.0185879,-0.029141,-0.1601888,-0.1479513,-0.036901,0.
 0489441,0.0233113,0.0489927,-0.0256246,0.0709266,-0.0165755,0.0360271,
 0.022802,0.0648889,-0.0357891,0.0341404,-0.1347876,0.0366106,-0.040892
 9,0.0458206,0.0544593,0.0001703,0.0030219,-0.01684,0.0090965,0.0586696
 ,-0.003259,-0.0619637,-0.0027053,0.1242742,-0.0941185,0.0086057,0.0254
 706,-0.0279416,0.0143635,0.003281,0.0491096,-0.0002355,0.0434675,0.054
 9472,0.0042918,-0.0056893,0.0000095,0.0076312,-0.0179506,-0.0266252,0.
 0057827,-0.1511064,0.4056198,0.0624129,-0.0049071,0.0675375,0.4601081,
 0.003521,0.040294,0.0178769,0.3137285,-0.0990728,0.0166172,0.032965,0.
 0109687,0.0043948,-0.0152863,0.0644594,-0.0331506,0.0419772,0.0256444,
 -0.0234325,0.033765,-0.0314074,-0.0028102,0.0360207,-0.0559034,0.00858
 97,-0.1016619,-0.3659516,-0.0546971,0.1217742,-0.0243917,-0.2816786,0.
 0150137,0.0777293,-0.0070838,-0.2146969,0.0079557,-0.0570077,-0.179341
 1,-0.0067723,-0.2389722,-0.0497883,-0.0887115,-0.008437,-0.0971998\Pol
 ar=46.0684583,6.2862153,46.879102,-1.5197077,-0.3824868,37.4881717\PG=
 C01 [X(C3H7O2)]\NImag=0\\0.53588864,-0.04123979,0.50614918,-0.01761449
 ,-0.03051067,0.54767758,-0.04809333,0.00024048,0.00268762,0.04820938,0
 .00006398,-0.04754813,0.00429553,0.00255801,0.05050489,0.00203929,0.00
 346448,-0.30522245,-0.00061638,-0.00197612,0.33288186,-0.27866931,0.00
 286096,0.07723252,0.00101798,0.00026080,0.00024591,0.30461585,0.003260
 82,-0.04785070,-0.00134983,-0.00084085,-0.00112037,0.00056050,-0.00043
 418,0.05077339,0.07783329,-0.00093161,-0.07439472,0.03150388,-0.000916
 48,-0.00931580,-0.08437072,0.00302408,0.07605215,-0.09424791,0.0971305
 7,-0.03461026,-0.00043150,-0.00146227,0.00039470,-0.01278763,0.0262960
 3,-0.01049865,0.10024753,0.09595939,-0.23729673,0.06946887,-0.00046877
 ,0.00042734,0.00037602,0.00024617,0.00045180,-0.00055793,-0.10299062,0
 .25945296,-0.03457890,0.07024410,-0.07155216,-0.01455228,0.02809138,-0
 .00931724,0.00444009,-0.01010504,0.00287168,0.03928273,-0.07458558,0.0
 7434847,-0.10807418,-0.04369456,-0.02062571,-0.00049111,0.00084668,-0.
 00049224,-0.01563205,-0.02597329,-0.01335051,0.00748832,0.01082942,0.0
 0629319,0.55573333,-0.04268292,-0.14278486,-0.03075861,0.00046535,-0.0
 0034757,-0.00063964,-0.00047133,-0.00029616,0.00073714,-0.01698774,-0.
 02226393,-0.01233548,-0.00015792,0.44765752,-0.02044242,-0.03122229,-0
 .09430162,-0.01838622,-0.02774562,-0.01155524,0.00474651,0.00958990,0.
 00405774,0.00631372,0.00797270,0.00328479,-0.03062611,-0.00292780,0.57
 483796,-0.01440434,-0.00082254,0.00405463,0.00038761,0.00037375,-0.000
 31353,0.00007820,-0.00241489,-0.00143959,0.00073396,-0.00016493,0.0001
 6041,-0.27943848,0.00815156,0.07793702,0.30567639,-0.02690933,-0.00035
 185,0.00865767,0.00079515,0.00108199,0.00002863,-0.00277423,-0.0041257
 7,-0.00254323,0.00047970,0.00085744,0.00069880,0.00525430,-0.04638582,
 -0.00165840,-0.00775781,0.05535887,-0.01299356,0.00008674,0.00375178,-
 0.00015665,0.00072277,0.00062604,-0.00186665,-0.00225561,-0.00010459,0
 .00060059,0.00053397,0.00024747,0.07951183,-0.00157321,-0.07824132,-0.
 08393314,0.00254029,0.07971414,-0.00072462,-0.00025259,-0.01745705,-0.
 00104257,-0.00281784,-0.00144173,0.00045835,0.00086035,-0.00015087,0.0
 0053264,0.00042866,0.00064600,-0.05066362,0.00144694,0.00283229,0.0012
 3882,-0.00096327,0.03071037,0.05076054,-0.00023085,-0.00014800,-0.0284
 1554,-0.00330978,-0.00415450,-0.00189076,0.00024354,0.00109480,0.00077
 371,0.00082970,0.00084495,0.00024383,0.00070056,-0.04728450,0.00754565
 ,-0.00001805,-0.00031918,-0.00105363,-0.00067698,0.05545974,-0.0003061
 0,-0.00067297,-0.01053830,-0.00119708,-0.00176807,0.00098441,-0.000412
 32,0.00015367,0.00058744,0.00024323,-0.00039898,0.00044041,0.00148275,
 0.00911341,-0.30304181,0.00029472,0.00021607,-0.01002206,0.00123065,-0
 .00958113,0.32992745,0.00724631,-0.01545173,0.00618011,0.00028911,0.00
 014592,0.00011782,0.00011595,-0.00196740,0.00021567,-0.00198276,-0.004
 14168,-0.00142882,-0.10600726,0.04463997,-0.01702200,-0.01584578,0.031
 39971,-0.01129101,-0.00098490,0.00053328,-0.00036506,0.55371099,0.0052
 4063,-0.02984432,0.00323931,0.00066289,0.00128560,0.00102658,0.0013048
 2,0.00154340,0.00026983,-0.00164859,-0.00107403,-0.00127269,0.04911908
 ,-0.14012243,0.03482827,0.00257466,-0.00497464,0.00029160,0.00066286,-
 0.00418301,0.00146519,-0.05169154,0.38962195,0.00567507,-0.01067813,0.
 00320891,0.00021993,-0.00207925,0.00007547,0.00015946,0.00072820,0.000
 18066,-0.00139084,-0.00287774,-0.00098584,-0.01641013,0.03603359,-0.09
 483893,0.00512811,-0.00977468,0.00310163,-0.01606736,0.03252512,-0.011
 31679,-0.07527415,-0.02118612,0.58882385,0.00052838,-0.00023457,-0.000
 09719,-0.00000465,0.00001681,0.00000047,0.00046660,0.00058968,0.000181
 80,0.00030127,0.00008438,-0.00012064,-0.01076785,0.00235443,0.00472299
 ,0.00018536,0.00174605,-0.00086242,0.00045044,-0.00029522,-0.00030222,
 -0.26887411,0.03154314,0.08549304,0.29696817,0.00076001,0.00200162,-0.
 00006024,-0.00006152,-0.00005102,0.00003725,-0.00092410,-0.00037782,0.
 00006774,-0.00024899,0.00023873,0.00022044,0.02790216,-0.00305189,-0.0
 1049750,0.00190103,-0.00530734,0.00224343,-0.00075658,0.00116910,0.000
 19755,0.04025395,-0.05276935,-0.01797525,-0.03135428,0.06228854,0.0002
 1315,-0.00040582,0.00017589,0.00013345,0.00007246,-0.00002584,0.000096
 48,-0.00019543,0.00015781,-0.00011065,-0.00015275,-0.00012301,-0.01041
 994,0.00234512,0.00422283,-0.00128699,0.00191486,0.00060078,-0.0003219
 8,-0.00073877,0.00082116,0.09400620,-0.01233852,-0.09121938,-0.0943874
 0,0.01491162,0.08804990,0.00037073,-0.00054756,0.00027460,0.00027132,0
 .00002687,0.00016560,0.00001358,0.00011358,0.00014531,-0.00017933,-0.0
 0014558,0.00005911,0.00089430,0.00318424,-0.01471072,0.00061925,-0.000
 93043,-0.00041404,-0.00017783,0.00242287,-0.00121716,-0.05193840,0.001
 95939,0.01395386,0.00256838,-0.00224262,0.02854846,0.05056633,0.000194
 95,0.00197662,0.00077076,-0.00019267,-0.00032455,-0.00088816,-0.000001
 94,-0.00003293,-0.00008109,0.00009941,0.00025448,-0.00028681,-0.000482
 84,-0.00291098,0.02983086,0.00002649,0.00120171,-0.00078421,0.00274676
 ,-0.00511243,0.00116759,-0.00088806,-0.04889322,0.03685903,0.00071090,
 0.00136867,-0.00367286,0.00274381,0.06124103,0.00007092,-0.00021547,0.
 00046853,0.00020726,0.00061579,0.00040535,0.00001529,0.00003049,-0.000
 06600,0.00003421,0.00009872,0.00035514,0.00034152,0.00172360,-0.008361
 34,-0.00009584,-0.00015110,0.00059282,-0.00073827,0.00116487,0.0009293
 2,0.00543055,0.03047731,-0.30782213,0.00018240,0.00169442,-0.00788248,
 -0.00349599,-0.02848482,0.33324253,0.00016986,0.00170703,0.00015997,-0
 .00016387,-0.00011341,-0.00017739,0.00002858,0.00022327,-0.00004437,0.
 00008343,0.00036372,-0.00017500,0.00496298,-0.00433278,0.00410039,-0.0
 0017423,0.00046559,0.00085412,0.00042973,0.00046911,0.00004733,-0.0608
 9496,-0.01853595,-0.01392057,-0.01943272,-0.02814315,-0.01437594,-0.00
 763162,-0.01011296,-0.00377676,0.38737218,0.00604830,-0.00499812,0.004
 34429,0.00012401,0.00027849,0.00001649,-0.00027892,0.00015006,0.000286
 48,-0.00165086,-0.00196229,-0.00083979,-0.02388723,-0.04166374,-0.0160
 7596,-0.00049119,0.00266468,-0.00096645,-0.00018522,0.00283284,-0.0003
 6228,-0.00548579,-0.10732354,-0.06385680,-0.00128321,-0.00059710,-0.00
 003851,-0.00762400,-0.01125267,-0.00955932,0.08706409,0.20226514,0.000
 35411,0.00077699,0.00066499,0.00016600,0.00067224,0.00049698,-0.000249
 87,-0.00010886,-0.00004503,-0.00023639,0.00003786,0.00043669,0.0052520
 8,-0.00162982,0.00234133,-0.00041850,-0.00024097,0.00022391,0.00042807
 ,-0.00039289,0.00136920,0.00214773,-0.05048436,-0.09959128,0.00825341,
 0.01142954,0.00441059,-0.02174224,-0.03434842,-0.01486589,-0.13899253,
 0.09163538,0.21592355,0.00000978,0.00030430,-0.00018475,0.00005164,0.0
 0010068,0.00007749,0.00029389,0.00028687,-0.00002524,0.00024198,-0.000
 00015,-0.00002589,0.00199562,0.00439020,0.00053455,0.00094323,-0.00080
 544,-0.00015943,-0.00027698,-0.00066818,0.00050128,-0.05483419,-0.0211
 9138,0.01243359,-0.00238926,-0.00708591,-0.00209485,0.00462328,0.00515
 615,0.00182472,-0.30474934,-0.05234999,0.14503812,0.35409036,-0.000465
 18,0.00069527,0.00031848,0.00002769,-0.00003217,-0.00011528,-0.0000316
 0,-0.00020972,-0.00012863,0.00015365,0.00006926,-0.00007317,-0.0004563
 6,-0.00054565,0.00036018,-0.00135806,0.00029989,0.00021431,-0.00049309
 ,-0.00019983,0.00046995,-0.03734663,-0.00326641,0.02228203,-0.00387812
 ,-0.00491214,-0.00170140,0.00103943,0.00248427,0.00260551,-0.02905456,
 -0.04039376,-0.01734669,0.07186284,0.04601100,-0.00025034,0.00006464,0
 .00006157,-0.00000953,0.00001536,-0.00003354,-0.00003669,-0.00007208,0
 .00001866,-0.00002237,0.00008484,-0.00000640,-0.00095673,-0.00008829,0
 .00159562,-0.00008729,0.00031207,-0.00049060,0.00032986,-0.00018045,-0
 .00014044,-0.00271704,0.01368360,0.01038384,-0.00306425,-0.00226900,0.
 00081176,-0.00156679,-0.00008187,0.00300416,0.16630074,-0.00458353,-0.
 11136502,-0.15791957,-0.00688529,0.09616038\\-0.00002452,0.00003011,-0
 .00003153,0.00000561,-0.00001331,0.00000148,0.00000510,-0.00001017,-0.
 00000373,0.00001237,-0.00000996,0.00000838,0.00003186,0.00007079,0.000
 00332,0.00000410,-0.00002046,0.00000863,-0.00000710,0.00000285,-0.0000
 0240,0.00002276,-0.00006497,0.00005210,-0.00001334,0.00000591,0.000003
 45,-0.00000363,0.00000052,-0.00001270,0.00001057,0.00001183,-0.0000567
 3,-0.00004378,-0.00000314,0.00002974\\\@


 TRUTH, IN SCIENCE, CAN BE DEFINED AS THE WORKING HYPOTHESIS 
 BEST FITTED TO OPEN THE WAY TO THE NEXT BETTER ONE.

                              -- KONRAD LORENZ
 Job cpu time:  0 days  0 hours  9 minutes 38.3 seconds.
 File lengths (MBytes):  RWF=     48 Int=      0 D2E=      0 Chk=      3 Scr=      1
 Normal termination of Gaussian 09 at Sat Jun  6 17:52:03 2015.
