 Entering Gaussian System, Link 0=/share/apps/g09/g09
 Input=C3H7O2_1_relax.gjf
 Output=C3H7O2_1_relax.log
 Initial command:
 /share/apps/g09/l1.exe /state/partition1/Gau-27230.inp -scrdir=/state/partition1/
 Entering Link 1 = /share/apps/g09/l1.exe PID=     27231.
  
 Copyright (c) 1988,1990,1992,1993,1995,1998,2003,2009, Gaussian, Inc.
                  All Rights Reserved.
  
 This is part of the Gaussian(R) 09 program.  It is based on
 the Gaussian(R) 03 system (copyright 2003, Gaussian, Inc.),
 the Gaussian(R) 98 system (copyright 1998, Gaussian, Inc.),
 the Gaussian(R) 94 system (copyright 1995, Gaussian, Inc.),
 the Gaussian 92(TM) system (copyright 1992, Gaussian, Inc.),
 the Gaussian 90(TM) system (copyright 1990, Gaussian, Inc.),
 the Gaussian 88(TM) system (copyright 1988, Gaussian, Inc.),
 the Gaussian 86(TM) system (copyright 1986, Carnegie Mellon
 University), and the Gaussian 82(TM) system (copyright 1983,
 Carnegie Mellon University). Gaussian is a federally registered
 trademark of Gaussian, Inc.
  
 This software contains proprietary and confidential information,
 including trade secrets, belonging to Gaussian, Inc.
  
 This software is provided under written license and may be
 used, copied, transmitted, or stored only in accord with that
 written license.
  
 The following legend is applicable only to US Government
 contracts under FAR:
  
                    RESTRICTED RIGHTS LEGEND
  
 Use, reproduction and disclosure by the US Government is
 subject to restrictions as set forth in subparagraphs (a)
 and (c) of the Commercial Computer Software - Restricted
 Rights clause in FAR 52.227-19.
  
 Gaussian, Inc.
 340 Quinnipiac St., Bldg. 40, Wallingford CT 06492
  
  
 ---------------------------------------------------------------
 Warning -- This program may not be used in any manner that
 competes with the business of Gaussian, Inc. or will provide
 assistance to any competitor of Gaussian, Inc.  The licensee
 of this program is prohibited from giving any competitor of
 Gaussian, Inc. access to this program.  By using this program,
 the user acknowledges that Gaussian, Inc. is engaged in the
 business of creating and licensing software in the field of
 computational chemistry and represents and warrants to the
 licensee that it is not a competitor of Gaussian, Inc. and that
 it will not use this program in any manner prohibited above.
 ---------------------------------------------------------------
  

 Cite this work as:
 Gaussian 09, Revision A.01,
 M. J. Frisch, G. W. Trucks, H. B. Schlegel, G. E. Scuseria, 
 M. A. Robb, J. R. Cheeseman, G. Scalmani, V. Barone, B. Mennucci, 
 G. A. Petersson, H. Nakatsuji, M. Caricato, X. Li, H. P. Hratchian, 
 A. F. Izmaylov, J. Bloino, G. Zheng, J. L. Sonnenberg, M. Hada, 
 M. Ehara, K. Toyota, R. Fukuda, J. Hasegawa, M. Ishida, T. Nakajima, 
 Y. Honda, O. Kitao, H. Nakai, T. Vreven, J. A. Montgomery, Jr., 
 J. E. Peralta, F. Ogliaro, M. Bearpark, J. J. Heyd, E. Brothers, 
 K. N. Kudin, V. N. Staroverov, R. Kobayashi, J. Normand, 
 K. Raghavachari, A. Rendell, J. C. Burant, S. S. Iyengar, J. Tomasi, 
 M. Cossi, N. Rega, J. M. Millam, M. Klene, J. E. Knox, J. B. Cross, 
 V. Bakken, C. Adamo, J. Jaramillo, R. Gomperts, R. E. Stratmann, 
 O. Yazyev, A. J. Austin, R. Cammi, C. Pomelli, J. W. Ochterski, 
 R. L. Martin, K. Morokuma, V. G. Zakrzewski, G. A. Voth, 
 P. Salvador, J. J. Dannenberg, S. Dapprich, A. D. Daniels, 
 O. Farkas, J. B. Foresman, J. V. Ortiz, J. Cioslowski, 
 and D. J. Fox, Gaussian, Inc., Wallingford CT, 2009.
 
 ******************************************
 Gaussian 09:  EM64L-G09RevA.01  8-May-2009
                 1-Apr-2015 
 ******************************************
 %mem=28GB
 %nprocshared=12
 Will use up to   12 processors via shared memory.
 %chk=C3H7O2_1_relax.chk
 -----------------------------------
 #p ub3lyp/6-31g(d) opt=modredundant
 -----------------------------------
 1/14=-1,18=120,19=15,26=3,38=1/1,3;
 2/9=110,12=2,17=6,18=5,40=1/2;
 3/5=1,6=6,7=1,11=2,16=1,25=1,30=1,71=1,74=-5,116=2/1,2,3;
 4//1;
 5/5=2,38=5/2;
 6/7=2,8=2,9=2,10=2,28=1/1;
 7//1,2,3,16;
 1/14=-1,18=20,19=15/3(2);
 2/9=110/2;
 99//99;
 2/9=110/2;
 3/5=1,6=6,7=1,11=2,16=1,25=1,30=1,71=1,74=-5,116=2/1,2,3;
 4/5=5,16=3/1;
 5/5=2,38=5/2;
 7//1,2,3,16;
 1/14=-1,18=20,19=15/3(-5);
 2/9=110/2;
 6/7=2,8=2,9=2,10=2,19=2,28=1/1;
 99/9=1/99;
 Leave Link    1 at Wed Apr  1 22:05:49 2015, MaxMem= 3758096384 cpu:       0.4
 (Enter /share/apps/g09/l101.exe)
 ---------------------------------------------------
 C3H7O2_62_b3631gd using cbs-qb3 to calculate energy
 ---------------------------------------------------
 Symbolic Z-matrix:
 Charge =  0 Multiplicity = 2
 C                    -1.91251  -0.70694   0.1419 
 H                    -1.36418  -1.57081  -0.24664 
 H                    -2.93085  -0.74428  -0.25895 
 H                    -1.97692  -0.81241   1.23162 
 C                    -1.22189   0.60519  -0.24573 
 H                    -1.20279   0.71753  -1.33715 
 H                    -1.78803   1.46119   0.14433 
 C                     0.19903   0.7256    0.28261 
 H                     0.65656   1.69      0.04022 
 H                     0.2637    0.55801   1.36258 
 O                     1.00579  -0.30767  -0.36393 
 O                     2.23855  -0.32262   0.11285 
 
 NAtoms=     12 NQM=     12 NQMF=      0 NMic=      0 NMicF=      0 NTot=     12.
 The following ModRedundant input section has been read:
 D    5    8   11   12 S  36 10.000                                            
                    Isotopes and Nuclear Properties:
 (Nuclear quadrupole moments (NQMom) in fm**2, nuclear magnetic moments (NMagM)
  in nuclear magnetons)

  Atom         1           2           3           4           5           6           7           8           9          10
 IAtWgt=          12           1           1           1          12           1           1          12           1           1
 AtmWgt=  12.0000000   1.0078250   1.0078250   1.0078250  12.0000000   1.0078250   1.0078250  12.0000000   1.0078250   1.0078250
 NucSpn=           0           1           1           1           0           1           1           0           1           1
 AtZEff=   0.0000000   0.0000000   0.0000000   0.0000000   0.0000000   0.0000000   0.0000000   0.0000000   0.0000000   0.0000000
 NQMom=    0.0000000   0.0000000   0.0000000   0.0000000   0.0000000   0.0000000   0.0000000   0.0000000   0.0000000   0.0000000
 NMagM=    0.0000000   2.7928460   2.7928460   2.7928460   0.0000000   2.7928460   2.7928460   0.0000000   2.7928460   2.7928460

  Atom        11          12
 IAtWgt=          16          16
 AtmWgt=  15.9949146  15.9949146
 NucSpn=           0           0
 AtZEff=   0.0000000   0.0000000
 NQMom=    0.0000000   0.0000000
 NMagM=    0.0000000   0.0000000
 Leave Link  101 at Wed Apr  1 22:05:49 2015, MaxMem= 3758096384 cpu:       0.6
 (Enter /share/apps/g09/l103.exe)

 GradGradGradGradGradGradGradGradGradGradGradGradGradGradGradGradGradGrad
 Berny optimization.
 Initialization pass.
                           ----------------------------
                           !    Initial Parameters    !
                           ! (Angstroms and Degrees)  !
 --------------------------                            --------------------------
 ! Name  Definition              Value          Derivative Info.                !
 --------------------------------------------------------------------------------
 ! R1    R(1,2)                  1.0945         estimate D2E/DX2                !
 ! R2    R(1,3)                  1.095          estimate D2E/DX2                !
 ! R3    R(1,4)                  1.0967         estimate D2E/DX2                !
 ! R4    R(1,5)                  1.5326         estimate D2E/DX2                !
 ! R5    R(5,6)                  1.0974         estimate D2E/DX2                !
 ! R6    R(5,7)                  1.0979         estimate D2E/DX2                !
 ! R7    R(5,8)                  1.5207         estimate D2E/DX2                !
 ! R8    R(8,9)                  1.0946         estimate D2E/DX2                !
 ! R9    R(8,10)                 1.0948         estimate D2E/DX2                !
 ! R10   R(8,11)                 1.4617         estimate D2E/DX2                !
 ! R11   R(11,12)                1.3218         estimate D2E/DX2                !
 ! A1    A(2,1,3)              108.0016         estimate D2E/DX2                !
 ! A2    A(2,1,4)              107.8336         estimate D2E/DX2                !
 ! A3    A(2,1,5)              111.1126         estimate D2E/DX2                !
 ! A4    A(3,1,4)              107.8082         estimate D2E/DX2                !
 ! A5    A(3,1,5)              110.8343         estimate D2E/DX2                !
 ! A6    A(4,1,5)              111.1071         estimate D2E/DX2                !
 ! A7    A(1,5,6)              110.3065         estimate D2E/DX2                !
 ! A8    A(1,5,7)              110.1993         estimate D2E/DX2                !
 ! A9    A(1,5,8)              113.6378         estimate D2E/DX2                !
 ! A10   A(6,5,7)              106.4105         estimate D2E/DX2                !
 ! A11   A(6,5,8)              108.7338         estimate D2E/DX2                !
 ! A12   A(7,5,8)              107.2562         estimate D2E/DX2                !
 ! A13   A(5,8,9)              112.5432         estimate D2E/DX2                !
 ! A14   A(5,8,10)             112.6925         estimate D2E/DX2                !
 ! A15   A(5,8,11)             107.8226         estimate D2E/DX2                !
 ! A16   A(9,8,10)             109.1842         estimate D2E/DX2                !
 ! A17   A(9,8,11)             107.1076         estimate D2E/DX2                !
 ! A18   A(10,8,11)            107.1887         estimate D2E/DX2                !
 ! A19   A(8,11,12)            111.2968         estimate D2E/DX2                !
 ! D1    D(2,1,5,6)             62.3506         estimate D2E/DX2                !
 ! D2    D(2,1,5,7)            179.5522         estimate D2E/DX2                !
 ! D3    D(2,1,5,8)            -60.046          estimate D2E/DX2                !
 ! D4    D(3,1,5,6)            -57.7418         estimate D2E/DX2                !
 ! D5    D(3,1,5,7)             59.4599         estimate D2E/DX2                !
 ! D6    D(3,1,5,8)            179.8617         estimate D2E/DX2                !
 ! D7    D(4,1,5,6)           -177.5869         estimate D2E/DX2                !
 ! D8    D(4,1,5,7)            -60.3852         estimate D2E/DX2                !
 ! D9    D(4,1,5,8)             60.0166         estimate D2E/DX2                !
 ! D10   D(1,5,8,9)           -177.0048         estimate D2E/DX2                !
 ! D11   D(1,5,8,10)           -53.0029         estimate D2E/DX2                !
 ! D12   D(1,5,8,11)            65.0898         estimate D2E/DX2                !
 ! D13   D(6,5,8,9)             59.7344         estimate D2E/DX2                !
 ! D14   D(6,5,8,10)          -176.2637         estimate D2E/DX2                !
 ! D15   D(6,5,8,11)           -58.171          estimate D2E/DX2                !
 ! D16   D(7,5,8,9)            -54.9569         estimate D2E/DX2                !
 ! D17   D(7,5,8,10)            69.045          estimate D2E/DX2                !
 ! D18   D(7,5,8,11)          -172.8623         estimate D2E/DX2                !
 ! D19   D(5,8,11,12)         -175.8319         Scan                            !
 ! D20   D(9,8,11,12)           62.8156         estimate D2E/DX2                !
 ! D21   D(10,8,11,12)         -54.2559         estimate D2E/DX2                !
 --------------------------------------------------------------------------------
 Trust Radius=3.00D-01 FncErr=1.00D-07 GrdErr=1.00D-06
 Number of optimizations in scan=  37
 Number of steps in this run=  61 maximum allowed number of steps= 100.
 GradGradGradGradGradGradGradGradGradGradGradGradGradGradGradGradGradGrad

 Leave Link  103 at Wed Apr  1 22:05:49 2015, MaxMem= 3758096384 cpu:       0.1
 (Enter /share/apps/g09/l202.exe)
                          Input orientation:                          
 ---------------------------------------------------------------------
 Center     Atomic      Atomic             Coordinates (Angstroms)
 Number     Number       Type             X           Y           Z
 ---------------------------------------------------------------------
      1          6           0       -1.912510   -0.706941    0.141897
      2          1           0       -1.364177   -1.570810   -0.246643
      3          1           0       -2.930845   -0.744280   -0.258950
      4          1           0       -1.976923   -0.812414    1.231621
      5          6           0       -1.221890    0.605190   -0.245732
      6          1           0       -1.202786    0.717527   -1.337150
      7          1           0       -1.788028    1.461191    0.144328
      8          6           0        0.199030    0.725596    0.282605
      9          1           0        0.656561    1.689998    0.040224
     10          1           0        0.263700    0.558010    1.362582
     11          8           0        1.005791   -0.307666   -0.363931
     12          8           0        2.238550   -0.322621    0.112853
 ---------------------------------------------------------------------
                    Distance matrix (angstroms):
                    1          2          3          4          5
     1  C    0.000000
     2  H    1.094487   0.000000
     3  H    1.095025   1.771370   0.000000
     4  H    1.096710   1.770843   1.770992   0.000000
     5  C    1.532612   2.180647   2.177561   2.182258   0.000000
     6  H    2.172648   2.540027   2.507106   3.088461   1.097350
     7  H    2.171704   3.086347   2.516499   2.527285   1.097906
     8  C    2.555496   2.827932   3.499991   2.828582   1.520740
     9  H    3.515079   3.846888   4.345653   3.823183   2.187957
    10  H    2.797510   3.125934   3.811882   2.629754   2.189949
    11  O    2.988606   2.688129   3.962166   3.420108   2.410361
    12  O    4.168914   3.829733   5.199873   4.388821   3.600564
                    6          7          8          9         10
     6  H    0.000000
     7  H    1.757931   0.000000
     8  C    2.142139   2.123351   0.000000
     9  H    2.509986   2.457480   1.094602   0.000000
    10  H    3.076456   2.551366   1.094814   1.784480   0.000000
    11  O    2.622211   3.345535   1.461678   2.067840   2.069044
    12  O    3.876495   4.404124   2.299395   2.560976   2.497472
                   11         12
    11  O    0.000000
    12  O    1.321833   0.000000
 Stoichiometry    C3H7O2(2)
 Framework group  C1[X(C3H7O2)]
 Deg. of freedom    30
 Full point group                 C1      NOp   1
 Largest Abelian subgroup         C1      NOp   1
 Largest concise Abelian subgroup C1      NOp   1
                         Standard orientation:                         
 ---------------------------------------------------------------------
 Center     Atomic      Atomic             Coordinates (Angstroms)
 Number     Number       Type             X           Y           Z
 ---------------------------------------------------------------------
      1          6           0       -1.912510   -0.706941    0.141897
      2          1           0       -1.364177   -1.570810   -0.246643
      3          1           0       -2.930845   -0.744280   -0.258950
      4          1           0       -1.976923   -0.812414    1.231621
      5          6           0       -1.221890    0.605190   -0.245732
      6          1           0       -1.202786    0.717527   -1.337150
      7          1           0       -1.788029    1.461191    0.144328
      8          6           0        0.199030    0.725596    0.282605
      9          1           0        0.656560    1.689998    0.040224
     10          1           0        0.263700    0.558010    1.362582
     11          8           0        1.005791   -0.307666   -0.363931
     12          8           0        2.238550   -0.322621    0.112853
 ---------------------------------------------------------------------
 Rotational constants (GHZ):     12.9771295      2.7021042      2.4436979
 Leave Link  202 at Wed Apr  1 22:05:49 2015, MaxMem= 3758096384 cpu:       0.4
 (Enter /share/apps/g09/l301.exe)
 Standard basis: 6-31G(d) (6D, 7F)
 Ernie: Thresh=  0.10000D-02 Tol=  0.10000D-05 Strict=F.
 There are    89 symmetry adapted basis functions of A   symmetry.
 Integral buffers will be    131072 words long.
 Raffenetti 2 integral format.
 Two-electron integral symmetry is turned on.
    89 basis functions,   168 primitive gaussians,    89 cartesian basis functions
    21 alpha electrons       20 beta electrons
       nuclear repulsion energy       180.8136149813 Hartrees.
 IExCor=  402 DFT=T Ex+Corr=B3LYP ExCW=0 ScaHFX=  0.200000
 ScaDFX=  0.800000  0.720000  1.000000  0.810000 ScalE2=  1.000000  1.000000
 IRadAn=      0 IRanWt=     -1 IRanGd=            0 ICorTp=0
 NAtoms=   12 NActive=   12 NUniq=   12 SFac= 7.50D-01 NAtFMM=   80 NAOKFM=F Big=F
 Leave Link  301 at Wed Apr  1 22:05:49 2015, MaxMem= 3758096384 cpu:       0.4
 (Enter /share/apps/g09/l302.exe)
 NPDir=0 NMtPBC=     1 NCelOv=     1 NCel=       1 NClECP=     1 NCelD=      1
         NCelK=      1 NCelE2=     1 NClLst=     1 CellRange=     0.0.
 One-electron integrals computed using PRISM.
 NBasis=    89 RedAO= T  NBF=    89
 NBsUse=    89 1.00D-06 NBFU=    89
 Precomputing XC quadrature grid using
 IXCGrd= 2 IRadAn=           0 IRanWt=          -1 IRanGd=           0 AccXCQ= 1.00D-10.
 NRdTot=     742 NPtTot=       94340 NUsed=       99703 NTot=       99735
 NSgBfM=    89    89    89    89    89 NAtAll=    12    12.
 Leave Link  302 at Wed Apr  1 22:05:50 2015, MaxMem= 3758096384 cpu:       3.3
 (Enter /share/apps/g09/l303.exe)
 DipDrv:  MaxL=1.
 Leave Link  303 at Wed Apr  1 22:05:50 2015, MaxMem= 3758096384 cpu:       0.7
 (Enter /share/apps/g09/l401.exe)
 Harris functional with IExCor=  402 diagonalized for initial guess.
 ExpMin= 1.61D-01 ExpMax= 5.48D+03 ExpMxC= 8.25D+02 IAcc=1 IRadAn=         1 AccDes= 0.00D+00
 HarFok:  IExCor=  402 AccDes= 0.00D+00 IRadAn=         1 IDoV= 1
 ScaDFX=  1.000000  1.000000  1.000000  1.000000
 FoFCou: FMM=F IPFlag=           0 FMFlag=      100000 FMFlg1=           0
         NFxFlg=           0 DoJE=T BraDBF=F KetDBF=T FulRan=T
         Omega=  0.000000  0.000000  1.000000  0.000000  0.000000 ICntrl=     500 IOpCl=  0
         NMat0=    1 NMatS0=    1 NMatT0=    0 NMatD0=    1 NMtDS0=    0 NMtDT0=    0
         I1Cent=           4 NGrid=           0.
 Petite list used in FoFCou.
 Harris En= -268.874706447698    
 Initial guess orbital symmetries:
 Alpha Orbitals:
       Occupied  (A) (A) (A) (A) (A) (A) (A) (A) (A) (A) (A) (A)
                 (A) (A) (A) (A) (A) (A) (A) (A) (A)
       Virtual   (A) (A) (A) (A) (A) (A) (A) (A) (A) (A) (A) (A)
                 (A) (A) (A) (A) (A) (A) (A) (A) (A) (A) (A) (A)
                 (A) (A) (A) (A) (A) (A) (A) (A) (A) (A) (A) (A)
                 (A) (A) (A) (A) (A) (A) (A) (A) (A) (A) (A) (A)
                 (A) (A) (A) (A) (A) (A) (A) (A) (A) (A) (A) (A)
                 (A) (A) (A) (A) (A) (A) (A) (A)
 Beta  Orbitals:
       Occupied  (A) (A) (A) (A) (A) (A) (A) (A) (A) (A) (A) (A)
                 (A) (A) (A) (A) (A) (A) (A) (A)
       Virtual   (A) (A) (A) (A) (A) (A) (A) (A) (A) (A) (A) (A)
                 (A) (A) (A) (A) (A) (A) (A) (A) (A) (A) (A) (A)
                 (A) (A) (A) (A) (A) (A) (A) (A) (A) (A) (A) (A)
                 (A) (A) (A) (A) (A) (A) (A) (A) (A) (A) (A) (A)
                 (A) (A) (A) (A) (A) (A) (A) (A) (A) (A) (A) (A)
                 (A) (A) (A) (A) (A) (A) (A) (A) (A)
 The electronic state of the initial guess is 2-A.
 Initial guess <Sx>= 0.0000 <Sy>= 0.0000 <Sz>= 0.5000 <S**2>= 0.7500 S= 0.5000
 Leave Link  401 at Wed Apr  1 22:05:50 2015, MaxMem= 3758096384 cpu:       3.3
 (Enter /share/apps/g09/l502.exe)
 UHF open shell SCF:
 Requested convergence on RMS density matrix=1.00D-08 within 128 cycles.
 Requested convergence on MAX density matrix=1.00D-06.
 Requested convergence on             energy=1.00D-06.
 No special actions if energy rises.
 Using DIIS extrapolation, IDIIS=  1040.
 Integral symmetry usage will be decided dynamically.
        99582 words used for storage of precomputed grid.
 Keep R1 and R2 ints in memory in canonical form, NReq=17096775.
 IEnd=      143240 IEndB=      143240 NGot=  3758096384 MDV=  3741933737
 LenX=  3741933737 LenY=  3741925375
 Symmetry not used in FoFDir.
 MinBra= 0 MaxBra= 2 Meth= 1.
 IRaf=       0 NMat=   1 IRICut=       1 DoRegI=T DoRafI=F ISym2E= 0 JSym2E=0.
 Integral accuracy reduced to 1.0D-05 until final iterations.

 Cycle   1  Pass 0  IDiag  1:
 E= -268.701749208370    
 DIIS: error= 3.25D-02 at cycle   1 NSaved=   1.
 NSaved= 1 IEnMin= 1 EnMin= -268.701749208370     IErMin= 1 ErrMin= 3.25D-02
 ErrMax= 3.25D-02 EMaxC= 1.00D-01 BMatC= 5.69D-01 BMatP= 5.69D-01
 IDIUse=3 WtCom= 6.75D-01 WtEn= 3.25D-01
 Coeff-Com:  0.100D+01
 Coeff-En:   0.100D+01
 Coeff:      0.100D+01
 Gap=     0.371 Goal=   None    Shift=    0.000
 Gap=     0.105 Goal=   None    Shift=    0.000
 GapD=    0.105 DampG=1.000 DampE=0.500 DampFc=0.5000 IDamp=-1.
 Damping current iteration by 5.00D-01
 RMSDP=8.51D-03 MaxDP=1.38D-01              OVMax= 1.96D-01

 Cycle   2  Pass 0  IDiag  1:
 E= -268.756952145219     Delta-E=       -0.055202936849 Rises=F Damp=T
 DIIS: error= 9.45D-03 at cycle   2 NSaved=   2.
 NSaved= 2 IEnMin= 2 EnMin= -268.756952145219     IErMin= 2 ErrMin= 9.45D-03
 ErrMax= 9.45D-03 EMaxC= 1.00D-01 BMatC= 7.80D-02 BMatP= 5.69D-01
 IDIUse=3 WtCom= 9.06D-01 WtEn= 9.45D-02
 Coeff-Com:  0.181D+00 0.819D+00
 Coeff-En:   0.231D+00 0.769D+00
 Coeff:      0.186D+00 0.814D+00
 Gap=     0.359 Goal=   None    Shift=    0.000
 Gap=     0.152 Goal=   None    Shift=    0.000
 RMSDP=1.87D-03 MaxDP=5.08D-02 DE=-5.52D-02 OVMax= 1.53D-01

 Cycle   3  Pass 0  IDiag  1:
 E= -268.833591330677     Delta-E=       -0.076639185458 Rises=F Damp=F
 DIIS: error= 1.88D-02 at cycle   3 NSaved=   3.
 NSaved= 3 IEnMin= 3 EnMin= -268.833591330677     IErMin= 2 ErrMin= 9.45D-03
 ErrMax= 1.88D-02 EMaxC= 1.00D-01 BMatC= 7.81D-02 BMatP= 7.80D-02
 IDIUse=3 WtCom= 8.12D-01 WtEn= 1.88D-01
 Coeff-Com:  0.554D-01 0.489D+00 0.456D+00
 Coeff-En:   0.000D+00 0.000D+00 0.100D+01
 Coeff:      0.450D-01 0.397D+00 0.558D+00
 Gap=     0.348 Goal=   None    Shift=    0.000
 Gap=     0.143 Goal=   None    Shift=    0.000
 RMSDP=1.78D-03 MaxDP=4.70D-02 DE=-7.66D-02 OVMax= 9.02D-02

 Cycle   4  Pass 0  IDiag  1:
 E= -268.840077008038     Delta-E=       -0.006485677361 Rises=F Damp=F
 DIIS: error= 1.24D-02 at cycle   4 NSaved=   4.
 NSaved= 4 IEnMin= 4 EnMin= -268.840077008038     IErMin= 2 ErrMin= 9.45D-03
 ErrMax= 1.24D-02 EMaxC= 1.00D-01 BMatC= 4.68D-02 BMatP= 7.80D-02
 IDIUse=3 WtCom= 8.76D-01 WtEn= 1.24D-01
 Coeff-Com:  0.194D-01 0.489D-01 0.422D+00 0.510D+00
 Coeff-En:   0.000D+00 0.000D+00 0.396D+00 0.604D+00
 Coeff:      0.170D-01 0.429D-01 0.418D+00 0.522D+00
 Gap=     0.348 Goal=   None    Shift=    0.000
 Gap=     0.151 Goal=   None    Shift=    0.000
 RMSDP=8.49D-04 MaxDP=1.74D-02 DE=-6.49D-03 OVMax= 2.90D-02

 Cycle   5  Pass 0  IDiag  1:
 E= -268.848585196496     Delta-E=       -0.008508188458 Rises=F Damp=F
 DIIS: error= 9.73D-04 at cycle   5 NSaved=   5.
 NSaved= 5 IEnMin= 5 EnMin= -268.848585196496     IErMin= 5 ErrMin= 9.73D-04
 ErrMax= 9.73D-04 EMaxC= 1.00D-01 BMatC= 3.08D-04 BMatP= 4.68D-02
 IDIUse=3 WtCom= 9.90D-01 WtEn= 9.73D-03
 Coeff-Com:  0.467D-02-0.183D-01 0.126D+00 0.178D+00 0.710D+00
 Coeff-En:   0.000D+00 0.000D+00 0.000D+00 0.000D+00 0.100D+01
 Coeff:      0.462D-02-0.182D-01 0.124D+00 0.177D+00 0.713D+00
 Gap=     0.345 Goal=   None    Shift=    0.000
 Gap=     0.152 Goal=   None    Shift=    0.000
 RMSDP=1.29D-04 MaxDP=3.30D-03 DE=-8.51D-03 OVMax= 6.98D-03

 Cycle   6  Pass 0  IDiag  1:
 E= -268.848655938922     Delta-E=       -0.000070742426 Rises=F Damp=F
 DIIS: error= 4.59D-04 at cycle   6 NSaved=   6.
 NSaved= 6 IEnMin= 6 EnMin= -268.848655938922     IErMin= 6 ErrMin= 4.59D-04
 ErrMax= 4.59D-04 EMaxC= 1.00D-01 BMatC= 9.64D-05 BMatP= 3.08D-04
 IDIUse=3 WtCom= 9.95D-01 WtEn= 4.59D-03
 Coeff-Com:  0.897D-03-0.151D-01 0.776D-02 0.346D-02 0.302D+00 0.701D+00
 Coeff-En:   0.000D+00 0.000D+00 0.000D+00 0.000D+00 0.000D+00 0.100D+01
 Coeff:      0.893D-03-0.150D-01 0.773D-02 0.344D-02 0.301D+00 0.702D+00
 Gap=     0.346 Goal=   None    Shift=    0.000
 Gap=     0.152 Goal=   None    Shift=    0.000
 RMSDP=5.86D-05 MaxDP=1.36D-03 DE=-7.07D-05 OVMax= 1.54D-03

 Cycle   7  Pass 0  IDiag  1:
 E= -268.848677875506     Delta-E=       -0.000021936584 Rises=F Damp=F
 DIIS: error= 1.96D-04 at cycle   7 NSaved=   7.
 NSaved= 7 IEnMin= 7 EnMin= -268.848677875506     IErMin= 7 ErrMin= 1.96D-04
 ErrMax= 1.96D-04 EMaxC= 1.00D-01 BMatC= 1.54D-05 BMatP= 9.64D-05
 IDIUse=3 WtCom= 9.98D-01 WtEn= 1.96D-03
 Coeff-Com:  0.388D-04-0.130D-02-0.164D-01-0.378D-01-0.551D-01 0.168D+00
 Coeff-Com:  0.942D+00
 Coeff-En:   0.000D+00 0.000D+00 0.000D+00 0.000D+00 0.000D+00 0.000D+00
 Coeff-En:   0.100D+01
 Coeff:      0.387D-04-0.130D-02-0.164D-01-0.377D-01-0.550D-01 0.168D+00
 Coeff:      0.942D+00
 Gap=     0.346 Goal=   None    Shift=    0.000
 Gap=     0.153 Goal=   None    Shift=    0.000
 RMSDP=3.01D-05 MaxDP=6.81D-04 DE=-2.19D-05 OVMax= 1.66D-03

 Cycle   8  Pass 0  IDiag  1:
 E= -268.848682439344     Delta-E=       -0.000004563838 Rises=F Damp=F
 DIIS: error= 7.66D-05 at cycle   8 NSaved=   8.
 NSaved= 8 IEnMin= 8 EnMin= -268.848682439344     IErMin= 8 ErrMin= 7.66D-05
 ErrMax= 7.66D-05 EMaxC= 1.00D-01 BMatC= 2.68D-06 BMatP= 1.54D-05
 IDIUse=1 WtCom= 1.00D+00 WtEn= 0.00D+00
 Coeff-Com:  0.926D-04 0.146D-02-0.698D-02-0.183D-01-0.651D-01-0.381D-01
 Coeff-Com:  0.425D+00 0.702D+00
 Coeff:      0.926D-04 0.146D-02-0.698D-02-0.183D-01-0.651D-01-0.381D-01
 Coeff:      0.425D+00 0.702D+00
 Gap=     0.347 Goal=   None    Shift=    0.000
 Gap=     0.153 Goal=   None    Shift=    0.000
 RMSDP=1.17D-05 MaxDP=2.51D-04 DE=-4.56D-06 OVMax= 4.38D-04

 Cycle   9  Pass 0  IDiag  1:
 E= -268.848683216658     Delta-E=       -0.000000777314 Rises=F Damp=F
 DIIS: error= 2.20D-05 at cycle   9 NSaved=   9.
 NSaved= 9 IEnMin= 9 EnMin= -268.848683216658     IErMin= 9 ErrMin= 2.20D-05
 ErrMax= 2.20D-05 EMaxC= 1.00D-01 BMatC= 1.74D-07 BMatP= 2.68D-06
 IDIUse=1 WtCom= 1.00D+00 WtEn= 0.00D+00
 Coeff-Com:  0.696D-04 0.191D-03 0.145D-02 0.197D-02-0.156D-02-0.374D-01
 Coeff-Com: -0.666D-01 0.125D+00 0.977D+00
 Coeff:      0.696D-04 0.191D-03 0.145D-02 0.197D-02-0.156D-02-0.374D-01
 Coeff:     -0.666D-01 0.125D+00 0.977D+00
 Gap=     0.347 Goal=   None    Shift=    0.000
 Gap=     0.153 Goal=   None    Shift=    0.000
 RMSDP=4.14D-06 MaxDP=1.19D-04 DE=-7.77D-07 OVMax= 1.59D-04

 Initial convergence to 1.0D-05 achieved.  Increase integral accuracy.
 Cycle  10  Pass 1  IDiag  1:
 E= -268.848708519343     Delta-E=       -0.000025302685 Rises=F Damp=F
 DIIS: error= 1.04D-05 at cycle   1 NSaved=   1.
 NSaved= 1 IEnMin= 1 EnMin= -268.848708519343     IErMin= 1 ErrMin= 1.04D-05
 ErrMax= 1.04D-05 EMaxC= 1.00D-01 BMatC= 5.83D-08 BMatP= 5.83D-08
 IDIUse=1 WtCom= 1.00D+00 WtEn= 0.00D+00
 Coeff-Com:  0.100D+01
 Coeff:      0.100D+01
 Gap=     0.347 Goal=   None    Shift=    0.000
 Gap=     0.153 Goal=   None    Shift=    0.000
 RMSDP=4.14D-06 MaxDP=1.19D-04 DE=-2.53D-05 OVMax= 5.25D-05

 Cycle  11  Pass 1  IDiag  1:
 E= -268.848708539193     Delta-E=       -0.000000019851 Rises=F Damp=F
 DIIS: error= 3.33D-06 at cycle   2 NSaved=   2.
 NSaved= 2 IEnMin= 2 EnMin= -268.848708539193     IErMin= 2 ErrMin= 3.33D-06
 ErrMax= 3.33D-06 EMaxC= 1.00D-01 BMatC= 7.33D-09 BMatP= 5.83D-08
 IDIUse=1 WtCom= 1.00D+00 WtEn= 0.00D+00
 Coeff-Com:  0.143D+00 0.857D+00
 Coeff:      0.143D+00 0.857D+00
 Gap=     0.347 Goal=   None    Shift=    0.000
 Gap=     0.153 Goal=   None    Shift=    0.000
 RMSDP=8.69D-07 MaxDP=1.55D-05 DE=-1.99D-08 OVMax= 2.40D-05

 Cycle  12  Pass 1  IDiag  1:
 E= -268.848708540437     Delta-E=       -0.000000001244 Rises=F Damp=F
 DIIS: error= 2.44D-06 at cycle   3 NSaved=   3.
 NSaved= 3 IEnMin= 3 EnMin= -268.848708540437     IErMin= 3 ErrMin= 2.44D-06
 ErrMax= 2.44D-06 EMaxC= 1.00D-01 BMatC= 4.88D-09 BMatP= 7.33D-09
 IDIUse=1 WtCom= 1.00D+00 WtEn= 0.00D+00
 Coeff-Com: -0.293D-01 0.445D+00 0.585D+00
 Coeff:     -0.293D-01 0.445D+00 0.585D+00
 Gap=     0.347 Goal=   None    Shift=    0.000
 Gap=     0.153 Goal=   None    Shift=    0.000
 RMSDP=3.85D-07 MaxDP=7.92D-06 DE=-1.24D-09 OVMax= 1.66D-05

 Cycle  13  Pass 1  IDiag  1:
 E= -268.848708541742     Delta-E=       -0.000000001305 Rises=F Damp=F
 DIIS: error= 8.39D-07 at cycle   4 NSaved=   4.
 NSaved= 4 IEnMin= 4 EnMin= -268.848708541742     IErMin= 4 ErrMin= 8.39D-07
 ErrMax= 8.39D-07 EMaxC= 1.00D-01 BMatC= 1.98D-10 BMatP= 4.88D-09
 IDIUse=1 WtCom= 1.00D+00 WtEn= 0.00D+00
 Coeff-Com: -0.148D-01 0.312D-01 0.118D+00 0.865D+00
 Coeff:     -0.148D-01 0.312D-01 0.118D+00 0.865D+00
 Gap=     0.347 Goal=   None    Shift=    0.000
 Gap=     0.153 Goal=   None    Shift=    0.000
 RMSDP=2.14D-07 MaxDP=8.95D-06 DE=-1.30D-09 OVMax= 1.75D-05

 Cycle  14  Pass 1  IDiag  1:
 E= -268.848708541885     Delta-E=       -0.000000000142 Rises=F Damp=F
 DIIS: error= 8.72D-07 at cycle   5 NSaved=   5.
 NSaved= 5 IEnMin= 5 EnMin= -268.848708541885     IErMin= 4 ErrMin= 8.39D-07
 ErrMax= 8.72D-07 EMaxC= 1.00D-01 BMatC= 2.59D-10 BMatP= 1.98D-10
 IDIUse=1 WtCom= 1.00D+00 WtEn= 0.00D+00
 Coeff-Com: -0.487D-02-0.846D-01-0.524D-01 0.648D+00 0.494D+00
 Coeff:     -0.487D-02-0.846D-01-0.524D-01 0.648D+00 0.494D+00
 Gap=     0.347 Goal=   None    Shift=    0.000
 Gap=     0.153 Goal=   None    Shift=    0.000
 RMSDP=1.38D-07 MaxDP=5.06D-06 DE=-1.42D-10 OVMax= 1.17D-05

 Cycle  15  Pass 1  IDiag  1:
 E= -268.848708541984     Delta-E=       -0.000000000099 Rises=F Damp=F
 DIIS: error= 4.60D-07 at cycle   6 NSaved=   6.
 NSaved= 6 IEnMin= 6 EnMin= -268.848708541984     IErMin= 6 ErrMin= 4.60D-07
 ErrMax= 4.60D-07 EMaxC= 1.00D-01 BMatC= 4.65D-11 BMatP= 1.98D-10
 IDIUse=1 WtCom= 1.00D+00 WtEn= 0.00D+00
 Coeff-Com:  0.543D-02-0.887D-01-0.112D+00 0.449D-01 0.316D+00 0.834D+00
 Coeff:      0.543D-02-0.887D-01-0.112D+00 0.449D-01 0.316D+00 0.834D+00
 Gap=     0.347 Goal=   None    Shift=    0.000
 Gap=     0.153 Goal=   None    Shift=    0.000
 RMSDP=1.67D-07 MaxDP=6.96D-06 DE=-9.91D-11 OVMax= 1.65D-05

 Cycle  16  Pass 1  IDiag  1:
 E= -268.848708542052     Delta-E=       -0.000000000068 Rises=F Damp=F
 DIIS: error= 3.04D-07 at cycle   7 NSaved=   7.
 NSaved= 7 IEnMin= 7 EnMin= -268.848708542052     IErMin= 7 ErrMin= 3.04D-07
 ErrMax= 3.04D-07 EMaxC= 1.00D-01 BMatC= 1.04D-11 BMatP= 4.65D-11
 IDIUse=1 WtCom= 1.00D+00 WtEn= 0.00D+00
 Coeff-Com:  0.235D-02-0.160D-01-0.270D-01-0.668D-01 0.213D-03 0.276D+00
 Coeff-Com:  0.831D+00
 Coeff:      0.235D-02-0.160D-01-0.270D-01-0.668D-01 0.213D-03 0.276D+00
 Coeff:      0.831D+00
 Gap=     0.347 Goal=   None    Shift=    0.000
 Gap=     0.153 Goal=   None    Shift=    0.000
 RMSDP=9.12D-08 MaxDP=3.86D-06 DE=-6.83D-11 OVMax= 9.42D-06

 Cycle  17  Pass 1  IDiag  1:
 E= -268.848708542075     Delta-E=       -0.000000000023 Rises=F Damp=F
 DIIS: error= 2.07D-07 at cycle   8 NSaved=   8.
 NSaved= 8 IEnMin= 8 EnMin= -268.848708542075     IErMin= 8 ErrMin= 2.07D-07
 ErrMax= 2.07D-07 EMaxC= 1.00D-01 BMatC= 4.91D-12 BMatP= 1.04D-11
 IDIUse=1 WtCom= 1.00D+00 WtEn= 0.00D+00
 Coeff-Com: -0.282D-02 0.493D-01 0.618D-01-0.403D-01-0.205D+00-0.449D+00
 Coeff-Com:  0.279D+00 0.131D+01
 Coeff:     -0.282D-02 0.493D-01 0.618D-01-0.403D-01-0.205D+00-0.449D+00
 Coeff:      0.279D+00 0.131D+01
 Gap=     0.347 Goal=   None    Shift=    0.000
 Gap=     0.153 Goal=   None    Shift=    0.000
 RMSDP=1.37D-07 MaxDP=5.57D-06 DE=-2.33D-11 OVMax= 1.43D-05

 Cycle  18  Pass 1  IDiag  1:
 E= -268.848708542099     Delta-E=       -0.000000000023 Rises=F Damp=F
 DIIS: error= 1.03D-07 at cycle   9 NSaved=   9.
 NSaved= 9 IEnMin= 9 EnMin= -268.848708542099     IErMin= 9 ErrMin= 1.03D-07
 ErrMax= 1.03D-07 EMaxC= 1.00D-01 BMatC= 1.73D-12 BMatP= 4.91D-12
 IDIUse=1 WtCom= 1.00D+00 WtEn= 0.00D+00
 Coeff-Com: -0.193D-02 0.255D-01 0.362D-01 0.210D-01-0.539D-01-0.352D+00
 Coeff-Com: -0.298D+00 0.499D+00 0.112D+01
 Coeff:     -0.193D-02 0.255D-01 0.362D-01 0.210D-01-0.539D-01-0.352D+00
 Coeff:     -0.298D+00 0.499D+00 0.112D+01
 Gap=     0.347 Goal=   None    Shift=    0.000
 Gap=     0.153 Goal=   None    Shift=    0.000
 RMSDP=1.03D-07 MaxDP=4.21D-06 DE=-2.33D-11 OVMax= 1.07D-05

 Cycle  19  Pass 1  IDiag  1:
 E= -268.848708542106     Delta-E=       -0.000000000007 Rises=F Damp=F
 DIIS: error= 2.01D-08 at cycle  10 NSaved=  10.
 NSaved=10 IEnMin=10 EnMin= -268.848708542106     IErMin=10 ErrMin= 2.01D-08
 ErrMax= 2.01D-08 EMaxC= 1.00D-01 BMatC= 2.69D-13 BMatP= 1.73D-12
 IDIUse=1 WtCom= 1.00D+00 WtEn= 0.00D+00
 Coeff-Com: -0.346D-03 0.152D-02 0.399D-02 0.154D-01 0.211D-01-0.747D-01
 Coeff-Com: -0.151D+00-0.303D-01 0.418D+00 0.796D+00
 Coeff:     -0.346D-03 0.152D-02 0.399D-02 0.154D-01 0.211D-01-0.747D-01
 Coeff:     -0.151D+00-0.303D-01 0.418D+00 0.796D+00
 Gap=     0.347 Goal=   None    Shift=    0.000
 Gap=     0.153 Goal=   None    Shift=    0.000
 RMSDP=2.29D-08 MaxDP=9.23D-07 DE=-6.93D-12 OVMax= 2.38D-06

 Cycle  20  Pass 1  IDiag  1:
 E= -268.848708542106     Delta-E=        0.000000000000 Rises=F Damp=F
 DIIS: error= 7.38D-09 at cycle  11 NSaved=  11.
 NSaved=11 IEnMin=10 EnMin= -268.848708542106     IErMin=11 ErrMin= 7.38D-09
 ErrMax= 7.38D-09 EMaxC= 1.00D-01 BMatC= 3.89D-14 BMatP= 2.69D-13
 IDIUse=1 WtCom= 1.00D+00 WtEn= 0.00D+00
 Coeff-Com:  0.148D-03-0.303D-02-0.365D-02 0.106D-02 0.185D-01 0.201D-01
 Coeff-Com: -0.380D-02-0.782D-01-0.311D-01 0.253D+00 0.827D+00
 Coeff:      0.148D-03-0.303D-02-0.365D-02 0.106D-02 0.185D-01 0.201D-01
 Coeff:     -0.380D-02-0.782D-01-0.311D-01 0.253D+00 0.827D+00
 Gap=     0.347 Goal=   None    Shift=    0.000
 Gap=     0.153 Goal=   None    Shift=    0.000
 RMSDP=4.64D-09 MaxDP=1.88D-07 DE= 1.14D-13 OVMax= 4.61D-07

 SCF Done:  E(UB3LYP) =  -268.848708542     A.U. after   20 cycles
             Convg  =    0.4636D-08             -V/T =  2.0090
 <Sx>= 0.0000 <Sy>= 0.0000 <Sz>= 0.5000 <S**2>= 0.7528 S= 0.5014
 <L.S>= 0.000000000000E+00
 KE= 2.664489057339D+02 PE=-9.900852324116D+02 EE= 2.739740031543D+02
 Annihilation of the first spin contaminant:
 S**2 before annihilation     0.7528,   after     0.7500
 Leave Link  502 at Wed Apr  1 22:05:57 2015, MaxMem= 3758096384 cpu:      72.1
 (Enter /share/apps/g09/l601.exe)
 Copying SCF densities to generalized density rwf, IOpCl= 1 IROHF=0.

 **********************************************************************

            Population analysis using the SCF density.

 **********************************************************************

 Orbital symmetries:
 Alpha Orbitals:
       Occupied  (A) (A) (A) (A) (A) (A) (A) (A) (A) (A) (A) (A)
                 (A) (A) (A) (A) (A) (A) (A) (A) (A)
       Virtual   (A) (A) (A) (A) (A) (A) (A) (A) (A) (A) (A) (A)
                 (A) (A) (A) (A) (A) (A) (A) (A) (A) (A) (A) (A)
                 (A) (A) (A) (A) (A) (A) (A) (A) (A) (A) (A) (A)
                 (A) (A) (A) (A) (A) (A) (A) (A) (A) (A) (A) (A)
                 (A) (A) (A) (A) (A) (A) (A) (A) (A) (A) (A) (A)
                 (A) (A) (A) (A) (A) (A) (A) (A)
 Beta  Orbitals:
       Occupied  (A) (A) (A) (A) (A) (A) (A) (A) (A) (A) (A) (A)
                 (A) (A) (A) (A) (A) (A) (A) (A)
       Virtual   (A) (A) (A) (A) (A) (A) (A) (A) (A) (A) (A) (A)
                 (A) (A) (A) (A) (A) (A) (A) (A) (A) (A) (A) (A)
                 (A) (A) (A) (A) (A) (A) (A) (A) (A) (A) (A) (A)
                 (A) (A) (A) (A) (A) (A) (A) (A) (A) (A) (A) (A)
                 (A) (A) (A) (A) (A) (A) (A) (A) (A) (A) (A) (A)
                 (A) (A) (A) (A) (A) (A) (A) (A) (A)
 The electronic state is 2-A.
 Alpha  occ. eigenvalues --  -19.25910 -19.21072 -10.24930 -10.20367 -10.18581
 Alpha  occ. eigenvalues --   -1.17984  -0.87908  -0.77730  -0.68524  -0.60544
 Alpha  occ. eigenvalues --   -0.51820  -0.51470  -0.47246  -0.44705  -0.42990
 Alpha  occ. eigenvalues --   -0.40580  -0.36470  -0.35993  -0.35479  -0.27156
 Alpha  occ. eigenvalues --   -0.26997
 Alpha virt. eigenvalues --    0.07661   0.10482   0.12979   0.13182   0.14377
 Alpha virt. eigenvalues --    0.15230   0.17083   0.18074   0.19277   0.21724
 Alpha virt. eigenvalues --    0.25279   0.49513   0.50310   0.51877   0.53964
 Alpha virt. eigenvalues --    0.57612   0.63478   0.66845   0.68711   0.77121
 Alpha virt. eigenvalues --    0.78809   0.81657   0.82399   0.85569   0.87129
 Alpha virt. eigenvalues --    0.89266   0.90599   0.91963   0.93383   0.95762
 Alpha virt. eigenvalues --    0.96979   1.03611   1.05750   1.12067   1.24635
 Alpha virt. eigenvalues --    1.30331   1.39018   1.43125   1.49608   1.51312
 Alpha virt. eigenvalues --    1.60924   1.64071   1.71168   1.78366   1.84181
 Alpha virt. eigenvalues --    1.87541   1.92111   1.94161   2.00046   2.02258
 Alpha virt. eigenvalues --    2.09238   2.20893   2.24416   2.26025   2.31026
 Alpha virt. eigenvalues --    2.34279   2.36926   2.47986   2.52398   2.63009
 Alpha virt. eigenvalues --    2.67625   2.82015   3.01369   3.40861   3.77562
 Alpha virt. eigenvalues --    4.13647   4.30696   4.46312
  Beta  occ. eigenvalues --  -19.24974 -19.19200 -10.24972 -10.20369 -10.18580
  Beta  occ. eigenvalues --   -1.15310  -0.85336  -0.76707  -0.67883  -0.60285
  Beta  occ. eigenvalues --   -0.50481  -0.49125  -0.46441  -0.43836  -0.41279
  Beta  occ. eigenvalues --   -0.38261  -0.36098  -0.35559  -0.34254  -0.25244
  Beta virt. eigenvalues --   -0.09986   0.08086   0.10986   0.13096   0.13248
  Beta virt. eigenvalues --    0.14828   0.15526   0.17477   0.18646   0.19372
  Beta virt. eigenvalues --    0.21831   0.25349   0.49616   0.50385   0.52009
  Beta virt. eigenvalues --    0.54052   0.57783   0.63600   0.66953   0.68849
  Beta virt. eigenvalues --    0.77824   0.79781   0.82397   0.83491   0.85770
  Beta virt. eigenvalues --    0.87562   0.89446   0.90954   0.92948   0.94910
  Beta virt. eigenvalues --    0.97210   0.97885   1.04721   1.07821   1.12504
  Beta virt. eigenvalues --    1.25027   1.31386   1.39563   1.43403   1.50856
  Beta virt. eigenvalues --    1.53273   1.61322   1.64731   1.71344   1.81635
  Beta virt. eigenvalues --    1.85101   1.89709   1.92236   1.95234   2.00423
  Beta virt. eigenvalues --    2.02573   2.09508   2.21355   2.25443   2.27414
  Beta virt. eigenvalues --    2.31320   2.34653   2.37320   2.49252   2.54296
  Beta virt. eigenvalues --    2.63155   2.68244   2.82510   3.02570   3.43634
  Beta virt. eigenvalues --    3.78966   4.13648   4.30718   4.46319
          Condensed to atoms (all electrons):
              1          2          3          4          5          6
     1  C    5.063862   0.383269   0.375833   0.377093   0.367221  -0.039155
     2  H    0.383269   0.538898  -0.028579  -0.030131  -0.033674  -0.003319
     3  H    0.375833  -0.028579   0.561265  -0.029933  -0.028641  -0.002834
     4  H    0.377093  -0.030131  -0.029933   0.570420  -0.036034   0.004902
     5  C    0.367221  -0.033674  -0.028641  -0.036034   5.020933   0.375516
     6  H   -0.039155  -0.003319  -0.002834   0.004902   0.375516   0.573219
     7  H   -0.034738   0.004621  -0.003183  -0.004062   0.370676  -0.032471
     8  C   -0.042000  -0.007936   0.004060  -0.003773   0.343421  -0.037014
     9  H    0.004922   0.000144  -0.000125  -0.000038  -0.031009  -0.004204
    10  H   -0.007355   0.000063  -0.000019   0.004944  -0.031619   0.005571
    11  O   -0.000918   0.006390   0.000074  -0.000277  -0.032115   0.000132
    12  O   -0.000018  -0.000134   0.000001  -0.000011   0.004604  -0.000024
              7          8          9         10         11         12
     1  C   -0.034738  -0.042000   0.004922  -0.007355  -0.000918  -0.000018
     2  H    0.004621  -0.007936   0.000144   0.000063   0.006390  -0.000134
     3  H   -0.003183   0.004060  -0.000125  -0.000019   0.000074   0.000001
     4  H   -0.004062  -0.003773  -0.000038   0.004944  -0.000277  -0.000011
     5  C    0.370676   0.343421  -0.031009  -0.031619  -0.032115   0.004604
     6  H   -0.032471  -0.037014  -0.004204   0.005571   0.000132  -0.000024
     7  H    0.580027  -0.032802  -0.001074  -0.001101   0.002552  -0.000077
     8  C   -0.032802   4.966025   0.363115   0.358762   0.154786  -0.042821
     9  H   -0.001074   0.363115   0.571796  -0.039473  -0.030438   0.002360
    10  H   -0.001101   0.358762  -0.039473   0.574715  -0.031155   0.003813
    11  O    0.002552   0.154786  -0.030438  -0.031155   8.035906   0.072209
    12  O   -0.000077  -0.042821   0.002360   0.003813   0.072209   8.129394
 Mulliken atomic charges:
              1
     1  C   -0.448017
     2  H    0.170389
     3  H    0.152081
     4  H    0.146899
     5  C   -0.289280
     6  H    0.159682
     7  H    0.151632
     8  C   -0.023823
     9  H    0.164024
    10  H    0.162855
    11  O   -0.177146
    12  O   -0.169296
 Sum of Mulliken atomic charges =   0.00000
 Mulliken charges with hydrogens summed into heavy atoms:
              1
     1  C    0.021353
     5  C    0.022033
     8  C    0.303056
    11  O   -0.177146
    12  O   -0.169296
 Sum of Mulliken charges with hydrogens summed into heavy atoms =   0.00000
          Atomic-Atomic Spin Densities.
              1          2          3          4          5          6
     1  C    0.000480   0.000305  -0.000097   0.000095  -0.000319  -0.000023
     2  H    0.000305  -0.000363   0.000008   0.000028  -0.000022  -0.000018
     3  H   -0.000097   0.000008   0.000563  -0.000023  -0.000179  -0.000105
     4  H    0.000095   0.000028  -0.000023  -0.000098  -0.000041  -0.000006
     5  C   -0.000319  -0.000022  -0.000179  -0.000041  -0.002216  -0.000575
     6  H   -0.000023  -0.000018  -0.000105  -0.000006  -0.000575  -0.000039
     7  H    0.000033  -0.000023  -0.000007   0.000005   0.000325   0.000127
     8  C    0.000165   0.000122   0.000032   0.000001   0.003808   0.000541
     9  H    0.000274   0.000010   0.000009  -0.000004  -0.000115  -0.000595
    10  H   -0.000939  -0.000066  -0.000036   0.000020   0.001388   0.000222
    11  O    0.000792  -0.000063   0.000020  -0.000010  -0.002326   0.000306
    12  O   -0.000064  -0.000027   0.000000   0.000002   0.000034  -0.000038
              7          8          9         10         11         12
     1  C    0.000033   0.000165   0.000274  -0.000939   0.000792  -0.000064
     2  H   -0.000023   0.000122   0.000010  -0.000066  -0.000063  -0.000027
     3  H   -0.000007   0.000032   0.000009  -0.000036   0.000020   0.000000
     4  H    0.000005   0.000001  -0.000004   0.000020  -0.000010   0.000002
     5  C    0.000325   0.003808  -0.000115   0.001388  -0.002326   0.000034
     6  H    0.000127   0.000541  -0.000595   0.000222   0.000306  -0.000038
     7  H   -0.001560   0.000185  -0.000048   0.000038  -0.000041   0.000001
     8  C    0.000185  -0.030923  -0.000502  -0.002421   0.007625  -0.002332
     9  H   -0.000048  -0.000502   0.028581  -0.007937  -0.006682   0.003695
    10  H    0.000038  -0.002421  -0.007937   0.027605  -0.006263   0.003453
    11  O   -0.000041   0.007625  -0.006682  -0.006263   0.415779  -0.115814
    12  O    0.000001  -0.002332   0.003695   0.003453  -0.115814   0.810376
 Mulliken atomic spin densities:
              1
     1  C    0.000702
     2  H   -0.000109
     3  H    0.000184
     4  H   -0.000031
     5  C   -0.000238
     6  H   -0.000203
     7  H   -0.000966
     8  C   -0.023698
     9  H    0.016686
    10  H    0.015064
    11  O    0.293324
    12  O    0.699285
 Sum of Mulliken atomic spin densities =   1.00000
 Electronic spatial extent (au):  <R**2>=            519.2786
 Charge=              0.0000 electrons
 Dipole moment (field-independent basis, Debye):
    X=             -2.4866    Y=              1.4181    Z=              0.4424  Tot=              2.8965
 Quadrupole moment (field-independent basis, Debye-Ang):
   XX=            -34.7783   YY=            -29.7696   ZZ=            -30.1055
   XY=              1.1853   XZ=              0.1835   YZ=             -0.2524
 Traceless Quadrupole moment (field-independent basis, Debye-Ang):
   XX=             -3.2272   YY=              1.7815   ZZ=              1.4456
   XY=              1.1853   XZ=              0.1835   YZ=             -0.2524
 Octapole moment (field-independent basis, Debye-Ang**2):
  XXX=              0.2944  YYY=             -0.3034  ZZZ=             -0.1421  XYY=              4.2040
  XXY=              2.0506  XXZ=             -1.3531  XZZ=              3.7465  YZZ=             -0.3932
  YYZ=             -0.2770  XYZ=             -0.9403
 Hexadecapole moment (field-independent basis, Debye-Ang**3):
 XXXX=           -480.0618 YYYY=           -115.1035 ZZZZ=            -57.3225 XXXY=              0.2260
 XXXZ=              0.8990 YYYX=             -4.2415 YYYZ=              1.2752 ZZZX=             -0.4725
 ZZZY=             -0.4548 XXYY=            -97.9996 XXZZ=            -87.3487 YYZZ=            -30.1487
 XXYZ=             -0.6580 YYXZ=             -0.2651 ZZXY=             -1.5642
 N-N= 1.808136149813D+02 E-N=-1.476466594390D+03  KE= 3.980907601673D+02
                          Isotropic Fermi Contact Couplings
        Atom                 a.u.       MegaHertz       Gauss      10(-4) cm-1
     1  C(13)             -0.00017      -0.18887      -0.06739      -0.06300
     2  H(1)               0.00023       1.03148       0.36806       0.34407
     3  H(1)               0.00005       0.22762       0.08122       0.07593
     4  H(1)               0.00003       0.12962       0.04625       0.04324
     5  C(13)             -0.00086      -0.96754      -0.34524      -0.32274
     6  H(1)              -0.00010      -0.46305      -0.16523      -0.15446
     7  H(1)              -0.00041      -1.83140      -0.65349      -0.61089
     8  C(13)             -0.01055     -11.86225      -4.23275      -3.95682
     9  H(1)               0.00562      25.11312       8.96098       8.37683
    10  H(1)               0.00476      21.26453       7.58771       7.09308
    11  O(17)              0.06068     -36.78538     -13.12594     -12.27028
    12  O(17)              0.08129     -49.28042     -17.58448     -16.43818
 --------------------------------------------------------
       Center         ----  Spin Dipole Couplings  ----
                      3XX-RR        3YY-RR        3ZZ-RR
 --------------------------------------------------------
     1   Atom        0.006187     -0.003184     -0.003003
     2   Atom        0.006389     -0.002113     -0.004276
     3   Atom        0.002892     -0.001471     -0.001420
     4   Atom        0.003698     -0.002331     -0.001367
     5   Atom        0.006412     -0.002675     -0.003737
     6   Atom        0.005412     -0.002690     -0.002722
     7   Atom        0.003069     -0.000856     -0.002213
     8   Atom        0.006885      0.001306     -0.008191
     9   Atom       -0.002323      0.010902     -0.008579
    10   Atom        0.002895     -0.004364      0.001469
    11   Atom       -0.573263      0.248110      0.325153
    12   Atom       -1.091954      0.467503      0.624451
 --------------------------------------------------------
                        XY            XZ            YZ
 --------------------------------------------------------
     1   Atom        0.000086     -0.001236      0.000466
     2   Atom        0.004419      0.000471      0.000196
     3   Atom        0.000368      0.000190      0.000022
     4   Atom        0.000771     -0.002204     -0.000273
     5   Atom       -0.004531     -0.000271     -0.000287
     6   Atom       -0.003517      0.003762     -0.001544
     7   Atom       -0.002772     -0.000459      0.000101
     8   Atom       -0.013713     -0.005232      0.007773
     9   Atom       -0.010724     -0.000704      0.002954
    10   Atom       -0.007421     -0.010301      0.007890
    11   Atom        0.384890     -0.450853     -1.013810
    12   Atom        0.782590     -0.815032     -1.949507
 --------------------------------------------------------


 ---------------------------------------------------------------------------------
              Anisotropic Spin Dipole Couplings in Principal Axis System
 ---------------------------------------------------------------------------------

       Atom             a.u.   MegaHertz   Gauss  10(-4) cm-1        Axes

              Baa    -0.0036    -0.490    -0.175    -0.163 -0.0934  0.7139 -0.6939
     1 C(13)  Bbb    -0.0027    -0.363    -0.129    -0.121  0.0917  0.7002  0.7080
              Bcc     0.0064     0.852     0.304     0.284  0.9914  0.0026 -0.1309
 
              Baa    -0.0043    -2.292    -0.818    -0.765 -0.0422 -0.0045  0.9991
     2 H(1)   Bbb    -0.0040    -2.131    -0.760    -0.711 -0.3911  0.9203 -0.0124
              Bcc     0.0083     4.424     1.578     1.476  0.9194  0.3913  0.0406
 
              Baa    -0.0015    -0.802    -0.286    -0.267 -0.0795  0.9934 -0.0832
     3 H(1)   Bbb    -0.0014    -0.762    -0.272    -0.254 -0.0505  0.0793  0.9956
              Bcc     0.0029     1.564     0.558     0.522  0.9956  0.0834  0.0439
 
              Baa    -0.0024    -1.295    -0.462    -0.432 -0.1310  0.9912 -0.0174
     4 H(1)   Bbb    -0.0022    -1.169    -0.417    -0.390  0.3427  0.0617  0.9374
              Bcc     0.0046     2.464     0.879     0.822  0.9302  0.1169 -0.3478
 
              Baa    -0.0047    -0.630    -0.225    -0.210  0.3599  0.8603  0.3610
     5 C(13)  Bbb    -0.0036    -0.482    -0.172    -0.161 -0.1277 -0.3378  0.9325
              Bcc     0.0083     1.112     0.397     0.371  0.9242 -0.3817 -0.0117
 
              Baa    -0.0043    -2.285    -0.815    -0.762 -0.1573  0.4859  0.8597
     6 H(1)   Bbb    -0.0039    -2.108    -0.752    -0.703  0.4541  0.8087 -0.3740
              Bcc     0.0082     4.393     1.567     1.465  0.8770 -0.3315  0.3479
 
              Baa    -0.0024    -1.275    -0.455    -0.425  0.3915  0.6658  0.6351
     7 H(1)   Bbb    -0.0021    -1.144    -0.408    -0.382 -0.2458 -0.5895  0.7695
              Bcc     0.0045     2.419     0.863     0.807  0.8867 -0.4574 -0.0672
 
              Baa    -0.0131    -1.755    -0.626    -0.585 -0.2350 -0.6259  0.7437
     8 C(13)  Bbb    -0.0078    -1.047    -0.374    -0.349  0.6501  0.4676  0.5989
              Bcc     0.0209     2.802     1.000     0.935  0.7226 -0.6242 -0.2969
 
              Baa    -0.0095    -5.059    -1.805    -1.688 -0.4561 -0.3580  0.8148
     9 H(1)   Bbb    -0.0077    -4.128    -1.473    -1.377  0.7487  0.3406  0.5688
              Bcc     0.0172     9.187     3.278     3.065 -0.4811  0.8694  0.1127
 
              Baa    -0.0099    -5.268    -1.880    -1.757  0.0632  0.8452 -0.5306
    10 H(1)   Bbb    -0.0079    -4.222    -1.507    -1.408  0.7584  0.3050  0.5761
              Bcc     0.0178     9.490     3.386     3.166  0.6488 -0.4388 -0.6217
 
              Baa    -0.7712    55.803    19.912    18.614  0.7558  0.2957  0.5843
    11 O(17)  Bbb    -0.7012    50.738    18.105    16.924 -0.5929  0.6877  0.4189
              Bcc     1.4724  -106.541   -38.017   -35.538 -0.2779 -0.6630  0.6951
 
              Baa    -1.4181   102.610    36.614    34.227  0.9607 -0.1807  0.2109
    12 O(17)  Bbb    -1.4051   101.672    36.279    33.914 -0.0151  0.7241  0.6895
              Bcc     2.8232  -204.282   -72.893   -68.141 -0.2773 -0.6656  0.6929
 

 ---------------------------------------------------------------------------------

 No NMR shielding tensors so no spin-rotation constants.
 Leave Link  601 at Wed Apr  1 22:05:57 2015, MaxMem= 3758096384 cpu:       8.5
 (Enter /share/apps/g09/l701.exe)
 Compute integral first derivatives.
 ... and contract with generalized density number  0.
 Leave Link  701 at Wed Apr  1 22:05:58 2015, MaxMem= 3758096384 cpu:       4.3
 (Enter /share/apps/g09/l702.exe)
 L702 exits ... SP integral derivatives will be done elsewhere.
 Leave Link  702 at Wed Apr  1 22:05:58 2015, MaxMem= 3758096384 cpu:       0.2
 (Enter /share/apps/g09/l703.exe)
 Compute integral first derivatives, UseDBF=F ICtDFT=           0.
 Integral derivatives from FoFDir, PRISM(SPDF).
 Calling FoFJK, ICntrl=      2127 FMM=F ISym2X=0 I1Cent= 0 IOpClX= 1 NMat=1 NMatS=1 NMatT=0.
 FoFCou: FMM=F IPFlag=           0 FMFlag=      100000 FMFlg1=         800
         NFxFlg=           0 DoJE=F BraDBF=F KetDBF=F FulRan=T
         Omega=  0.000000  0.000000  1.000000  0.000000  0.000000 ICntrl=    2127 IOpCl=  1
         NMat0=    1 NMatS0=    1 NMatT0=    0 NMatD0=    1 NMtDS0=    0 NMtDT0=    0
         I1Cent=           0 NGrid=           0.
 Symmetry not used in FoFCou.
 Leave Link  703 at Wed Apr  1 22:05:59 2015, MaxMem= 3758096384 cpu:      12.1
 (Enter /share/apps/g09/l716.exe)
 Dipole        =-9.78300248D-01 5.57928618D-01 1.74037087D-01
 ***** Axes restored to original set *****
 -------------------------------------------------------------------
 Center     Atomic                   Forces (Hartrees/Bohr)
 Number     Number              X              Y              Z
 -------------------------------------------------------------------
      1        6          -0.000001513    0.000004110    0.000005114
      2        1          -0.000004877    0.000002319   -0.000002991
      3        1          -0.000000550    0.000007076   -0.000002109
      4        1          -0.000003186    0.000004368   -0.000002486
      5        6          -0.000004398    0.000004152    0.000001458
      6        1           0.000005220    0.000001390    0.000003270
      7        1           0.000002928    0.000003347   -0.000001336
      8        6          -0.000010139    0.000019825    0.000009867
      9        1           0.000003733   -0.000007663    0.000003421
     10        1           0.000002809   -0.000009315   -0.000004485
     11        8           0.000010593   -0.000020288   -0.000006670
     12        8          -0.000000619   -0.000009322   -0.000003052
 -------------------------------------------------------------------
 Cartesian Forces:  Max     0.000020288 RMS     0.000006934
 Leave Link  716 at Wed Apr  1 22:06:00 2015, MaxMem= 3758096384 cpu:       0.2
 (Enter /share/apps/g09/l103.exe)

 GradGradGradGradGradGradGradGradGradGradGradGradGradGradGradGradGradGrad
 Berny optimization.
 Internal  Forces:  Max     0.000021940 RMS     0.000003664
 Search for a local minimum.
 Step number   1 out of a maximum of   61 on scan point     1 out of    37
 All quantities printed in internal units (Hartrees-Bohrs-Radians)
 RMS Force = .36944D-05 SwitMx=.10000D-02 MixMth= 2
 Mixed Optimization -- En-DIIS/RFO-DIIS
 Second derivative matrix not updated -- first step.
     Eigenvalues ---    0.00335   0.00492   0.03475   0.04330   0.04827
     Eigenvalues ---    0.05439   0.05484   0.05513   0.08537   0.11361
     Eigenvalues ---    0.11607   0.12335   0.16000   0.16000   0.16000
     Eigenvalues ---    0.21922   0.21976   0.25000   0.29184   0.30295
     Eigenvalues ---    0.33915   0.33977   0.34049   0.34238   0.34262
     Eigenvalues ---    0.34286   0.34299   0.36755   0.614771000.00000
     Eigenvalues --- 1000.000001000.000001000.000001000.000001000.00000
     Eigenvalues --- 1000.000001000.000001000.000001000.000001000.00000
     Eigenvalues --- 1000.000001000.000001000.000001000.000001000.00000
     Eigenvalues --- 1000.000001000.000001000.000001000.000001000.00000
     Eigenvalues --- 1000.00000
 RFO step:  Lambda= 0.00000000D+00 EMin= 3.34551279D-03
 Linear search not attempted -- first point.
 Iteration  1 RMS(Cart)=  0.00014947 RMS(Int)=  0.00000001
 Iteration  2 RMS(Cart)=  0.00000001 RMS(Int)=  0.00000000
 Iteration  1 RMS(Cart)=  0.00000000 RMS(Int)=  0.00000000
 Variable       Old X    -DE/DX   Delta X   Delta X   Delta X     New X
                                 (Linear)    (Quad)   (Total)
    R1        2.06828   0.00000   0.00000   0.00000   0.00000   2.06828
    R2        2.06930   0.00000   0.00000   0.00000   0.00000   2.06929
    R3        2.07248   0.00000   0.00000  -0.00001  -0.00001   2.07248
    R4        2.89622   0.00000   0.00000  -0.00001  -0.00001   2.89621
    R5        2.07369   0.00000   0.00000  -0.00001  -0.00001   2.07368
    R6        2.07474   0.00000   0.00000   0.00000   0.00000   2.07474
    R7        2.87378   0.00000   0.00000   0.00000   0.00000   2.87378
    R8        2.06850   0.00000   0.00000  -0.00001  -0.00001   2.06849
    R9        2.06890   0.00000   0.00000  -0.00001  -0.00001   2.06889
   R10        2.76217   0.00002   0.00000   0.00006   0.00006   2.76223
   R11        2.49790   0.00000   0.00000   0.00000   0.00000   2.49790
    A1        1.88498   0.00000   0.00000  -0.00001  -0.00001   1.88497
    A2        1.88205   0.00000   0.00000   0.00002   0.00002   1.88207
    A3        1.93928   0.00000   0.00000  -0.00001  -0.00001   1.93927
    A4        1.88161   0.00000   0.00000   0.00001   0.00001   1.88162
    A5        1.93442   0.00000   0.00000  -0.00001  -0.00001   1.93441
    A6        1.93918   0.00000   0.00000   0.00000   0.00000   1.93919
    A7        1.92521   0.00000   0.00000   0.00000   0.00000   1.92521
    A8        1.92334   0.00000   0.00000   0.00001   0.00001   1.92335
    A9        1.98335   0.00000   0.00000  -0.00002  -0.00002   1.98333
   A10        1.85721   0.00000   0.00000   0.00001   0.00001   1.85722
   A11        1.89776   0.00000   0.00000  -0.00005  -0.00005   1.89772
   A12        1.87197   0.00000   0.00000   0.00005   0.00005   1.87202
   A13        1.96425   0.00000   0.00000   0.00002   0.00002   1.96427
   A14        1.96685   0.00000   0.00000   0.00000   0.00000   1.96686
   A15        1.88186   0.00000   0.00000  -0.00002  -0.00002   1.88184
   A16        1.90562   0.00000   0.00000   0.00002   0.00002   1.90564
   A17        1.86938   0.00000   0.00000   0.00000   0.00000   1.86938
   A18        1.87080   0.00000   0.00000  -0.00004  -0.00004   1.87076
   A19        1.94250   0.00000   0.00000   0.00002   0.00002   1.94251
    D1        1.08822   0.00000   0.00000   0.00010   0.00010   1.08832
    D2        3.13378   0.00000   0.00000   0.00012   0.00012   3.13389
    D3       -1.04800   0.00000   0.00000   0.00017   0.00017  -1.04783
    D4       -1.00778   0.00000   0.00000   0.00012   0.00012  -1.00766
    D5        1.03777   0.00000   0.00000   0.00014   0.00014   1.03791
    D6        3.13918   0.00000   0.00000   0.00020   0.00020   3.13937
    D7       -3.09948   0.00000   0.00000   0.00012   0.00012  -3.09936
    D8       -1.05392   0.00000   0.00000   0.00013   0.00013  -1.05379
    D9        1.04749   0.00000   0.00000   0.00019   0.00019   1.04768
   D10       -3.08932   0.00000   0.00000   0.00019   0.00019  -3.08913
   D11       -0.92508   0.00000   0.00000   0.00024   0.00024  -0.92483
   D12        1.13603   0.00000   0.00000   0.00018   0.00018   1.13622
   D13        1.04256   0.00000   0.00000   0.00024   0.00024   1.04280
   D14       -3.07638   0.00000   0.00000   0.00029   0.00029  -3.07609
   D15       -1.01528   0.00000   0.00000   0.00023   0.00023  -1.01504
   D16       -0.95918   0.00000   0.00000   0.00023   0.00023  -0.95895
   D17        1.20506   0.00000   0.00000   0.00028   0.00028   1.20534
   D18       -3.01702   0.00000   0.00000   0.00022   0.00022  -3.01679
   D19       -3.06885   0.00000   0.00000   0.00000   0.00000  -3.06885
   D20        1.09634   0.00000   0.00000  -0.00002  -0.00002   1.09632
   D21       -0.94694   0.00000   0.00000  -0.00003  -0.00003  -0.94697
         Item               Value     Threshold  Converged?
 Maximum Force            0.000022     0.000450     YES
 RMS     Force            0.000004     0.000300     YES
 Maximum Displacement     0.000434     0.001800     YES
 RMS     Displacement     0.000149     0.001200     YES
 Predicted change in Energy=-3.043634D-09
 Optimization completed.
    -- Stationary point found.
                           ----------------------------
                           !   Optimized Parameters   !
                           ! (Angstroms and Degrees)  !
 --------------------------                            --------------------------
 ! Name  Definition              Value          Derivative Info.                !
 --------------------------------------------------------------------------------
 ! R1    R(1,2)                  1.0945         -DE/DX =    0.0                 !
 ! R2    R(1,3)                  1.095          -DE/DX =    0.0                 !
 ! R3    R(1,4)                  1.0967         -DE/DX =    0.0                 !
 ! R4    R(1,5)                  1.5326         -DE/DX =    0.0                 !
 ! R5    R(5,6)                  1.0974         -DE/DX =    0.0                 !
 ! R6    R(5,7)                  1.0979         -DE/DX =    0.0                 !
 ! R7    R(5,8)                  1.5207         -DE/DX =    0.0                 !
 ! R8    R(8,9)                  1.0946         -DE/DX =    0.0                 !
 ! R9    R(8,10)                 1.0948         -DE/DX =    0.0                 !
 ! R10   R(8,11)                 1.4617         -DE/DX =    0.0                 !
 ! R11   R(11,12)                1.3218         -DE/DX =    0.0                 !
 ! A1    A(2,1,3)              108.0016         -DE/DX =    0.0                 !
 ! A2    A(2,1,4)              107.8336         -DE/DX =    0.0                 !
 ! A3    A(2,1,5)              111.1126         -DE/DX =    0.0                 !
 ! A4    A(3,1,4)              107.8082         -DE/DX =    0.0                 !
 ! A5    A(3,1,5)              110.8343         -DE/DX =    0.0                 !
 ! A6    A(4,1,5)              111.1071         -DE/DX =    0.0                 !
 ! A7    A(1,5,6)              110.3065         -DE/DX =    0.0                 !
 ! A8    A(1,5,7)              110.1993         -DE/DX =    0.0                 !
 ! A9    A(1,5,8)              113.6378         -DE/DX =    0.0                 !
 ! A10   A(6,5,7)              106.4105         -DE/DX =    0.0                 !
 ! A11   A(6,5,8)              108.7338         -DE/DX =    0.0                 !
 ! A12   A(7,5,8)              107.2562         -DE/DX =    0.0                 !
 ! A13   A(5,8,9)              112.5432         -DE/DX =    0.0                 !
 ! A14   A(5,8,10)             112.6925         -DE/DX =    0.0                 !
 ! A15   A(5,8,11)             107.8226         -DE/DX =    0.0                 !
 ! A16   A(9,8,10)             109.1842         -DE/DX =    0.0                 !
 ! A17   A(9,8,11)             107.1076         -DE/DX =    0.0                 !
 ! A18   A(10,8,11)            107.1887         -DE/DX =    0.0                 !
 ! A19   A(8,11,12)            111.2968         -DE/DX =    0.0                 !
 ! D1    D(2,1,5,6)             62.3506         -DE/DX =    0.0                 !
 ! D2    D(2,1,5,7)            179.5522         -DE/DX =    0.0                 !
 ! D3    D(2,1,5,8)            -60.046          -DE/DX =    0.0                 !
 ! D4    D(3,1,5,6)            -57.7418         -DE/DX =    0.0                 !
 ! D5    D(3,1,5,7)             59.4599         -DE/DX =    0.0                 !
 ! D6    D(3,1,5,8)            179.8617         -DE/DX =    0.0                 !
 ! D7    D(4,1,5,6)           -177.5869         -DE/DX =    0.0                 !
 ! D8    D(4,1,5,7)            -60.3852         -DE/DX =    0.0                 !
 ! D9    D(4,1,5,8)             60.0166         -DE/DX =    0.0                 !
 ! D10   D(1,5,8,9)           -177.0048         -DE/DX =    0.0                 !
 ! D11   D(1,5,8,10)           -53.0029         -DE/DX =    0.0                 !
 ! D12   D(1,5,8,11)            65.0898         -DE/DX =    0.0                 !
 ! D13   D(6,5,8,9)             59.7344         -DE/DX =    0.0                 !
 ! D14   D(6,5,8,10)          -176.2637         -DE/DX =    0.0                 !
 ! D15   D(6,5,8,11)           -58.171          -DE/DX =    0.0                 !
 ! D16   D(7,5,8,9)            -54.9569         -DE/DX =    0.0                 !
 ! D17   D(7,5,8,10)            69.045          -DE/DX =    0.0                 !
 ! D18   D(7,5,8,11)          -172.8623         -DE/DX =    0.0                 !
 ! D19   D(5,8,11,12)         -175.8319         -DE/DX =    0.0                 !
 ! D20   D(9,8,11,12)           62.8156         -DE/DX =    0.0                 !
 ! D21   D(10,8,11,12)         -54.2559         -DE/DX =    0.0                 !
 --------------------------------------------------------------------------------
 Iteration  1 RMS(Cart)=  0.02655146 RMS(Int)=  0.01718315
 Iteration  2 RMS(Cart)=  0.00103884 RMS(Int)=  0.01716148
 Iteration  3 RMS(Cart)=  0.00000564 RMS(Int)=  0.01716147
 Iteration  4 RMS(Cart)=  0.00000044 RMS(Int)=  0.01716147
 Iteration  1 RMS(Cart)=  0.01324664 RMS(Int)=  0.00846700
 Iteration  2 RMS(Cart)=  0.00657904 RMS(Int)=  0.00946604
 Iteration  3 RMS(Cart)=  0.00325658 RMS(Int)=  0.01056648
 Iteration  4 RMS(Cart)=  0.00160966 RMS(Int)=  0.01121363
 Iteration  5 RMS(Cart)=  0.00079510 RMS(Int)=  0.01155361
 Iteration  6 RMS(Cart)=  0.00039262 RMS(Int)=  0.01172593
 Iteration  7 RMS(Cart)=  0.00019385 RMS(Int)=  0.01181204
 Iteration  8 RMS(Cart)=  0.00009570 RMS(Int)=  0.01185479
 Iteration  9 RMS(Cart)=  0.00004725 RMS(Int)=  0.01187596
 Iteration 10 RMS(Cart)=  0.00002332 RMS(Int)=  0.01188642
 Iteration 11 RMS(Cart)=  0.00001151 RMS(Int)=  0.01189159
 Iteration 12 RMS(Cart)=  0.00000568 RMS(Int)=  0.01189414
 Iteration 13 RMS(Cart)=  0.00000281 RMS(Int)=  0.01189540
 Iteration 14 RMS(Cart)=  0.00000139 RMS(Int)=  0.01189602
 Iteration 15 RMS(Cart)=  0.00000068 RMS(Int)=  0.01189633
 GradGradGradGradGradGradGradGradGradGradGradGradGradGradGradGradGradGrad

 Leave Link  103 at Wed Apr  1 22:06:00 2015, MaxMem= 3758096384 cpu:       7.3
 (Enter /share/apps/g09/l202.exe)
                          Input orientation:                          
 ---------------------------------------------------------------------
 Center     Atomic      Atomic             Coordinates (Angstroms)
 Number     Number       Type             X           Y           Z
 ---------------------------------------------------------------------
      1          6           0       -1.886187   -0.710646    0.145907
      2          1           0       -1.331009   -1.561785   -0.260651
      3          1           0       -2.912941   -0.765184   -0.230863
      4          1           0       -1.922577   -0.823284    1.236239
      5          6           0       -1.229949    0.616522   -0.250307
      6          1           0       -1.239125    0.735224   -1.341208
      7          1           0       -1.802659    1.459456    0.158237
      8          6           0        0.200778    0.760954    0.244622
      9          1           0        0.699668    1.715356    0.047932
     10          1           0        0.213775    0.561729    1.321213
     11          8           0        1.001210   -0.278318   -0.400223
     12          8           0        2.175488   -0.417243    0.192806
 ---------------------------------------------------------------------
                    Distance matrix (angstroms):
                    1          2          3          4          5
     1  C    0.000000
     2  H    1.094508   0.000000
     3  H    1.095058   1.771431   0.000000
     4  H    1.096738   1.770880   1.771040   0.000000
     5  C    1.532648   2.180674   2.177602   2.182337   0.000000
     6  H    2.172726   2.540137   2.507140   3.088573   1.097377
     7  H    2.171744   3.086392   2.516575   2.527325   1.097926
     8  C    2.555538   2.827859   3.500061   2.828737   1.520788
     9  H    3.547074   3.867625   4.391099   3.838351   2.240492
    10  H    2.722155   3.065610   3.734433   2.547447   2.134718
    11  O    2.970224   2.665711   3.947949   3.394632   2.408586
    12  O    4.072529   3.716332   5.117877   4.248266   3.586367
                    6          7          8          9         10
     6  H    0.000000
     7  H    1.757958   0.000000
     8  C    2.142157   2.123470   0.000000
     9  H    2.578621   2.517795   1.094743   0.000000
    10  H    3.038010   2.494881   1.094946   1.785551   0.000000
    11  O    2.632835   3.345656   1.461712   2.065552   2.071008
    12  O    3.916753   4.398732   2.300068   2.597500   2.465767
                   11         12
    11  O    0.000000
    12  O    1.322842   0.000000
 Stoichiometry    C3H7O2(2)
 Framework group  C1[X(C3H7O2)]
 Deg. of freedom    30
 Full point group                 C1      NOp   1
 Largest Abelian subgroup         C1      NOp   1
 Largest concise Abelian subgroup C1      NOp   1
                         Standard orientation:                         
 ---------------------------------------------------------------------
 Center     Atomic      Atomic             Coordinates (Angstroms)
 Number     Number       Type             X           Y           Z
 ---------------------------------------------------------------------
      1          6           0       -1.861753   -0.746131    0.133215
      2          1           0       -1.295227   -1.568841   -0.314161
      3          1           0       -2.891449   -0.804810   -0.234799
      4          1           0       -1.883811   -0.904502    1.218235
      5          6           0       -1.235103    0.608712   -0.214230
      6          1           0       -1.258721    0.772285   -1.299091
      7          1           0       -1.818979    1.422806    0.234972
      8          6           0        0.198099    0.760087    0.271375
      9          1           0        0.676693    1.731258    0.109394
     10          1           0        0.226894    0.516742    1.338550
     11          8           0        1.010697   -0.235963   -0.424449
     12          8           0        2.193946   -0.376656    0.150041
 ---------------------------------------------------------------------
 Rotational constants (GHZ):     12.2974134      2.7746676      2.4890418
 Leave Link  202 at Wed Apr  1 22:06:00 2015, MaxMem= 3758096384 cpu:       0.3
 (Enter /share/apps/g09/l301.exe)
 Standard basis: 6-31G(d) (6D, 7F)
 Ernie: Thresh=  0.10000D-02 Tol=  0.10000D-05 Strict=F.
 There are    89 symmetry adapted basis functions of A   symmetry.
 Integral buffers will be    131072 words long.
 Raffenetti 2 integral format.
 Two-electron integral symmetry is turned on.
    89 basis functions,   168 primitive gaussians,    89 cartesian basis functions
    21 alpha electrons       20 beta electrons
       nuclear repulsion energy       181.1408372200 Hartrees.
 IExCor=  402 DFT=T Ex+Corr=B3LYP ExCW=0 ScaHFX=  0.200000
 ScaDFX=  0.800000  0.720000  1.000000  0.810000 ScalE2=  1.000000  1.000000
 IRadAn=      0 IRanWt=     -1 IRanGd=            0 ICorTp=0
 NAtoms=   12 NActive=   12 NUniq=   12 SFac= 7.50D-01 NAtFMM=   80 NAOKFM=F Big=F
 Leave Link  301 at Wed Apr  1 22:06:01 2015, MaxMem= 3758096384 cpu:       0.5
 (Enter /share/apps/g09/l302.exe)
 NPDir=0 NMtPBC=     1 NCelOv=     1 NCel=       1 NClECP=     1 NCelD=      1
         NCelK=      1 NCelE2=     1 NClLst=     1 CellRange=     0.0.
 One-electron integrals computed using PRISM.
 NBasis=    89 RedAO= T  NBF=    89
 NBsUse=    89 1.00D-06 NBFU=    89
 Precomputing XC quadrature grid using
 IXCGrd= 2 IRadAn=           0 IRanWt=          -1 IRanGd=           0 AccXCQ= 1.00D-10.
 NRdTot=     742 NPtTot=       94340 NUsed=       99703 NTot=       99735
 NSgBfM=    89    89    89    89    89 NAtAll=    12    12.
 Leave Link  302 at Wed Apr  1 22:06:01 2015, MaxMem= 3758096384 cpu:       3.8
 (Enter /share/apps/g09/l303.exe)
 DipDrv:  MaxL=1.
 Leave Link  303 at Wed Apr  1 22:06:01 2015, MaxMem= 3758096384 cpu:       0.7
 (Enter /share/apps/g09/l401.exe)
 Initial guess read from the read-write file.
 B after Tr=     0.000000    0.000000    0.000000
         Rot=    1.000000    0.000000    0.000000    0.000000 Ang=   0.00 deg.
 Guess basis will be translated and rotated to current coordinates.
 Initial guess orbital symmetries:
 Alpha Orbitals:
       Occupied  (A) (A) (A) (A) (A) (A) (A) (A) (A) (A) (A) (A)
                 (A) (A) (A) (A) (A) (A) (A) (A) (A)
       Virtual   (A) (A) (A) (A) (A) (A) (A) (A) (A) (A) (A) (A)
                 (A) (A) (A) (A) (A) (A) (A) (A) (A) (A) (A) (A)
                 (A) (A) (A) (A) (A) (A) (A) (A) (A) (A) (A) (A)
                 (A) (A) (A) (A) (A) (A) (A) (A) (A) (A) (A) (A)
                 (A) (A) (A) (A) (A) (A) (A) (A) (A) (A) (A) (A)
                 (A) (A) (A) (A) (A) (A) (A) (A)
 Beta  Orbitals:
       Occupied  (A) (A) (A) (A) (A) (A) (A) (A) (A) (A) (A) (A)
                 (A) (A) (A) (A) (A) (A) (A) (A)
       Virtual   (A) (A) (A) (A) (A) (A) (A) (A) (A) (A) (A) (A)
                 (A) (A) (A) (A) (A) (A) (A) (A) (A) (A) (A) (A)
                 (A) (A) (A) (A) (A) (A) (A) (A) (A) (A) (A) (A)
                 (A) (A) (A) (A) (A) (A) (A) (A) (A) (A) (A) (A)
                 (A) (A) (A) (A) (A) (A) (A) (A) (A) (A) (A) (A)
                 (A) (A) (A) (A) (A) (A) (A) (A) (A)
 The electronic state of the initial guess is 2-A.
 Initial guess <Sx>= 0.0000 <Sy>= 0.0000 <Sz>= 0.5000 <S**2>= 0.7529 S= 0.5014
 Generating alternative initial guess.
 Harris functional with IExCor=  402 diagonalized for initial guess.
 ExpMin= 1.61D-01 ExpMax= 5.48D+03 ExpMxC= 8.25D+02 IAcc=1 IRadAn=         1 AccDes= 0.00D+00
 HarFok:  IExCor=  402 AccDes= 0.00D+00 IRadAn=         1 IDoV= 1
 ScaDFX=  1.000000  1.000000  1.000000  1.000000
 FoFCou: FMM=F IPFlag=           0 FMFlag=      100000 FMFlg1=           0
         NFxFlg=           0 DoJE=T BraDBF=F KetDBF=T FulRan=T
         Omega=  0.000000  0.000000  1.000000  0.000000  0.000000 ICntrl=     500 IOpCl=  0
         NMat0=    1 NMatS0=    1 NMatT0=    0 NMatD0=    1 NMtDS0=    0 NMtDT0=    0
         I1Cent=           4 NGrid=           0.
 Petite list used in FoFCou.
 Harris En= -268.873425742698    
 Leave Link  401 at Wed Apr  1 22:06:02 2015, MaxMem= 3758096384 cpu:       8.0
 (Enter /share/apps/g09/l502.exe)
 UHF open shell SCF:
 Requested convergence on RMS density matrix=1.00D-08 within 128 cycles.
 Requested convergence on MAX density matrix=1.00D-06.
 Requested convergence on             energy=1.00D-06.
 No special actions if energy rises.
 Using DIIS extrapolation, IDIIS=  1040.
 Integral symmetry usage will be decided dynamically.
        99582 words used for storage of precomputed grid.
 Keep R1 and R2 ints in memory in canonical form, NReq=17096775.
 IEnd=      143240 IEndB=      143240 NGot=  3758096384 MDV=  3741933737
 LenX=  3741933737 LenY=  3741925375
 Symmetry not used in FoFDir.
 MinBra= 0 MaxBra= 2 Meth= 1.
 IRaf=       0 NMat=   1 IRICut=       1 DoRegI=T DoRafI=F ISym2E= 0 JSym2E=0.
 Integral accuracy reduced to 1.0D-05 until final iterations.

 Cycle   1  Pass 0  IDiag  1:
 E= -268.832342137050    
 DIIS: error= 7.24D-03 at cycle   1 NSaved=   1.
 NSaved= 1 IEnMin= 1 EnMin= -268.832342137050     IErMin= 1 ErrMin= 7.24D-03
 ErrMax= 7.24D-03 EMaxC= 1.00D-01 BMatC= 2.55D-02 BMatP= 2.55D-02
 IDIUse=3 WtCom= 9.28D-01 WtEn= 7.24D-02
 Coeff-Com:  0.100D+01
 Coeff-En:   0.100D+01
 Coeff:      0.100D+01
 Gap=     0.348 Goal=   None    Shift=    0.000
 Gap=     0.166 Goal=   None    Shift=    0.000
 GapD=    0.166 DampG=1.000 DampE=1.000 DampFc=1.0000 IDamp=-1.
 RMSDP=1.59D-03 MaxDP=2.84D-02              OVMax= 4.87D-02

 Cycle   2  Pass 0  IDiag  1:
 E= -268.847102916315     Delta-E=       -0.014760779265 Rises=F Damp=F
 DIIS: error= 1.26D-03 at cycle   2 NSaved=   2.
 NSaved= 2 IEnMin= 2 EnMin= -268.847102916315     IErMin= 2 ErrMin= 1.26D-03
 ErrMax= 1.26D-03 EMaxC= 1.00D-01 BMatC= 7.34D-04 BMatP= 2.55D-02
 IDIUse=3 WtCom= 9.87D-01 WtEn= 1.26D-02
 Coeff-Com: -0.943D-01 0.109D+01
 Coeff-En:   0.000D+00 0.100D+01
 Coeff:     -0.931D-01 0.109D+01
 Gap=     0.345 Goal=   None    Shift=    0.000
 Gap=     0.152 Goal=   None    Shift=    0.000
 RMSDP=3.22D-04 MaxDP=6.89D-03 DE=-1.48D-02 OVMax= 1.72D-02

 Cycle   3  Pass 0  IDiag  1:
 E= -268.847500150127     Delta-E=       -0.000397233812 Rises=F Damp=F
 DIIS: error= 8.75D-04 at cycle   3 NSaved=   3.
 NSaved= 3 IEnMin= 3 EnMin= -268.847500150127     IErMin= 3 ErrMin= 8.75D-04
 ErrMax= 8.75D-04 EMaxC= 1.00D-01 BMatC= 3.52D-04 BMatP= 7.34D-04
 IDIUse=3 WtCom= 9.91D-01 WtEn= 8.75D-03
 Coeff-Com: -0.483D-01 0.462D+00 0.587D+00
 Coeff-En:   0.000D+00 0.000D+00 0.100D+01
 Coeff:     -0.478D-01 0.458D+00 0.590D+00
 Gap=     0.345 Goal=   None    Shift=    0.000
 Gap=     0.153 Goal=   None    Shift=    0.000
 RMSDP=1.46D-04 MaxDP=4.51D-03 DE=-3.97D-04 OVMax= 7.94D-03

 Cycle   4  Pass 0  IDiag  1:
 E= -268.847552712656     Delta-E=       -0.000052562529 Rises=F Damp=F
 DIIS: error= 1.04D-03 at cycle   4 NSaved=   4.
 NSaved= 4 IEnMin= 4 EnMin= -268.847552712656     IErMin= 3 ErrMin= 8.75D-04
 ErrMax= 1.04D-03 EMaxC= 1.00D-01 BMatC= 2.99D-04 BMatP= 3.52D-04
 IDIUse=3 WtCom= 9.90D-01 WtEn= 1.04D-02
 Coeff-Com: -0.775D-02 0.423D-01 0.471D+00 0.494D+00
 Coeff-En:   0.000D+00 0.000D+00 0.304D+00 0.696D+00
 Coeff:     -0.767D-02 0.419D-01 0.470D+00 0.496D+00
 Gap=     0.344 Goal=   None    Shift=    0.000
 Gap=     0.152 Goal=   None    Shift=    0.000
 RMSDP=1.01D-04 MaxDP=3.86D-03 DE=-5.26D-05 OVMax= 7.19D-03

 Cycle   5  Pass 0  IDiag  1:
 E= -268.847630964476     Delta-E=       -0.000078251820 Rises=F Damp=F
 DIIS: error= 3.73D-04 at cycle   5 NSaved=   5.
 NSaved= 5 IEnMin= 5 EnMin= -268.847630964476     IErMin= 5 ErrMin= 3.73D-04
 ErrMax= 3.73D-04 EMaxC= 1.00D-01 BMatC= 2.23D-05 BMatP= 2.99D-04
 IDIUse=3 WtCom= 9.96D-01 WtEn= 3.73D-03
 Coeff-Com:  0.826D-02-0.989D-01 0.716D-01 0.211D+00 0.808D+00
 Coeff-En:   0.000D+00 0.000D+00 0.000D+00 0.000D+00 0.100D+01
 Coeff:      0.823D-02-0.986D-01 0.714D-01 0.210D+00 0.809D+00
 Gap=     0.345 Goal=   None    Shift=    0.000
 Gap=     0.152 Goal=   None    Shift=    0.000
 RMSDP=9.19D-05 MaxDP=3.73D-03 DE=-7.83D-05 OVMax= 8.98D-03

 Cycle   6  Pass 0  IDiag  1:
 E= -268.847659185937     Delta-E=       -0.000028221461 Rises=F Damp=F
 DIIS: error= 2.65D-04 at cycle   6 NSaved=   6.
 NSaved= 6 IEnMin= 6 EnMin= -268.847659185937     IErMin= 6 ErrMin= 2.65D-04
 ErrMax= 2.65D-04 EMaxC= 1.00D-01 BMatC= 7.05D-06 BMatP= 2.23D-05
 IDIUse=3 WtCom= 9.97D-01 WtEn= 2.65D-03
 Coeff-Com:  0.653D-02-0.659D-01-0.125D+00-0.771D-01 0.314D+00 0.948D+00
 Coeff-En:   0.000D+00 0.000D+00 0.000D+00 0.000D+00 0.000D+00 0.100D+01
 Coeff:      0.651D-02-0.657D-01-0.125D+00-0.769D-01 0.314D+00 0.948D+00
 Gap=     0.346 Goal=   None    Shift=    0.000
 Gap=     0.153 Goal=   None    Shift=    0.000
 RMSDP=9.39D-05 MaxDP=3.69D-03 DE=-2.82D-05 OVMax= 9.60D-03

 Cycle   7  Pass 0  IDiag  1:
 E= -268.847678343398     Delta-E=       -0.000019157461 Rises=F Damp=F
 DIIS: error= 1.43D-04 at cycle   7 NSaved=   7.
 NSaved= 7 IEnMin= 7 EnMin= -268.847678343398     IErMin= 7 ErrMin= 1.43D-04
 ErrMax= 1.43D-04 EMaxC= 1.00D-01 BMatC= 2.34D-06 BMatP= 7.05D-06
 IDIUse=3 WtCom= 9.99D-01 WtEn= 1.43D-03
 Coeff-Com: -0.110D-02 0.166D-01-0.296D-01-0.613D-01-0.193D+00 0.102D+00
 Coeff-Com:  0.117D+01
 Coeff-En:   0.000D+00 0.000D+00 0.000D+00 0.000D+00 0.000D+00 0.000D+00
 Coeff-En:   0.100D+01
 Coeff:     -0.109D-02 0.166D-01-0.296D-01-0.612D-01-0.193D+00 0.102D+00
 Coeff:      0.117D+01
 Gap=     0.346 Goal=   None    Shift=    0.000
 Gap=     0.153 Goal=   None    Shift=    0.000
 RMSDP=7.65D-05 MaxDP=3.03D-03 DE=-1.92D-05 OVMax= 8.00D-03

 Cycle   8  Pass 0  IDiag  1:
 E= -268.847688219814     Delta-E=       -0.000009876417 Rises=F Damp=F
 DIIS: error= 8.64D-05 at cycle   8 NSaved=   8.
 NSaved= 8 IEnMin= 8 EnMin= -268.847688219814     IErMin= 8 ErrMin= 8.64D-05
 ErrMax= 8.64D-05 EMaxC= 1.00D-01 BMatC= 1.19D-06 BMatP= 2.34D-06
 IDIUse=1 WtCom= 1.00D+00 WtEn= 0.00D+00
[...]

 **********************************************************************

            Population analysis using the SCF density.

 **********************************************************************

 Orbital symmetries:
 Alpha Orbitals:
       Occupied  (A) (A) (A) (A) (A) (A) (A) (A) (A) (A) (A) (A)
                 (A) (A) (A) (A) (A) (A) (A) (A) (A)
       Virtual   (A) (A) (A) (A) (A) (A) (A) (A) (A) (A) (A) (A)
                 (A) (A) (A) (A) (A) (A) (A) (A) (A) (A) (A) (A)
                 (A) (A) (A) (A) (A) (A) (A) (A) (A) (A) (A) (A)
                 (A) (A) (A) (A) (A) (A) (A) (A) (A) (A) (A) (A)
                 (A) (A) (A) (A) (A) (A) (A) (A) (A) (A) (A) (A)
                 (A) (A) (A) (A) (A) (A) (A) (A)
 Beta  Orbitals:
       Occupied  (A) (A) (A) (A) (A) (A) (A) (A) (A) (A) (A) (A)
                 (A) (A) (A) (A) (A) (A) (A) (A)
       Virtual   (A) (A) (A) (A) (A) (A) (A) (A) (A) (A) (A) (A)
                 (A) (A) (A) (A) (A) (A) (A) (A) (A) (A) (A) (A)
                 (A) (A) (A) (A) (A) (A) (A) (A) (A) (A) (A) (A)
                 (A) (A) (A) (A) (A) (A) (A) (A) (A) (A) (A) (A)
                 (A) (A) (A) (A) (A) (A) (A) (A) (A) (A) (A) (A)
                 (A) (A) (A) (A) (A) (A) (A) (A) (A)
 The electronic state is 2-A.
 Alpha  occ. eigenvalues --  -19.25911 -19.21072 -10.24930 -10.20365 -10.18581
 Alpha  occ. eigenvalues --   -1.17988  -0.87910  -0.77730  -0.68524  -0.60544
 Alpha  occ. eigenvalues --   -0.51822  -0.51471  -0.47248  -0.44704  -0.42991
 Alpha  occ. eigenvalues --   -0.40581  -0.36468  -0.35995  -0.35478  -0.27155
 Alpha  occ. eigenvalues --   -0.26996
 Alpha virt. eigenvalues --    0.07664   0.10481   0.12979   0.13183   0.14378
 Alpha virt. eigenvalues --    0.15230   0.17084   0.18076   0.19277   0.21724
 Alpha virt. eigenvalues --    0.25282   0.49512   0.50307   0.51876   0.53967
 Alpha virt. eigenvalues --    0.57616   0.63482   0.66846   0.68708   0.77124
 Alpha virt. eigenvalues --    0.78807   0.81655   0.82399   0.85569   0.87131
 Alpha virt. eigenvalues --    0.89267   0.90593   0.91962   0.93384   0.95762
 Alpha virt. eigenvalues --    0.96978   1.03614   1.05753   1.12065   1.24638
 Alpha virt. eigenvalues --    1.30329   1.39021   1.43124   1.49615   1.51314
 Alpha virt. eigenvalues --    1.60925   1.64079   1.71192   1.78367   1.84186
 Alpha virt. eigenvalues --    1.87537   1.92117   1.94160   2.00047   2.02262
 Alpha virt. eigenvalues --    2.09240   2.20889   2.24421   2.26032   2.31029
 Alpha virt. eigenvalues --    2.34281   2.36930   2.47997   2.52413   2.63013
 Alpha virt. eigenvalues --    2.67614   2.82024   3.01371   3.40861   3.77565
 Alpha virt. eigenvalues --    4.13650   4.30699   4.46317
  Beta  occ. eigenvalues --  -19.24974 -19.19199 -10.24972 -10.20367 -10.18580
  Beta  occ. eigenvalues --   -1.15315  -0.85338  -0.76706  -0.67883  -0.60286
  Beta  occ. eigenvalues --   -0.50483  -0.49126  -0.46442  -0.43835  -0.41280
  Beta  occ. eigenvalues --   -0.38262  -0.36098  -0.35559  -0.34255  -0.25243
  Beta virt. eigenvalues --   -0.09985   0.08088   0.10986   0.13096   0.13248
  Beta virt. eigenvalues --    0.14827   0.15528   0.17477   0.18650   0.19373
  Beta virt. eigenvalues --    0.21831   0.25353   0.49616   0.50383   0.52008
  Beta virt. eigenvalues --    0.54055   0.57786   0.63605   0.66954   0.68846
  Beta virt. eigenvalues --    0.77827   0.79778   0.82395   0.83490   0.85770
  Beta virt. eigenvalues --    0.87564   0.89447   0.90949   0.92948   0.94912
  Beta virt. eigenvalues --    0.97209   0.97884   1.04722   1.07825   1.12501
  Beta virt. eigenvalues --    1.25029   1.31384   1.39566   1.43403   1.50865
  Beta virt. eigenvalues --    1.53272   1.61325   1.64737   1.71368   1.81637
  Beta virt. eigenvalues --    1.85106   1.89704   1.92243   1.95234   2.00424
  Beta virt. eigenvalues --    2.02577   2.09510   2.21350   2.25444   2.27425
  Beta virt. eigenvalues --    2.31321   2.34657   2.37325   2.49266   2.54307
  Beta virt. eigenvalues --    2.63160   2.68234   2.82519   3.02572   3.43634
  Beta virt. eigenvalues --    3.78968   4.13651   4.30721   4.46324
          Condensed to atoms (all electrons):
              1          2          3          4          5          6
     1  C    5.063882   0.383267   0.375843   0.377081   0.367233  -0.039172
     2  H    0.383267   0.538907  -0.028564  -0.030146  -0.033680  -0.003320
     3  H    0.375843  -0.028564   0.561231  -0.029930  -0.028641  -0.002835
     4  H    0.377081  -0.030146  -0.029930   0.570476  -0.036043   0.004904
     5  C    0.367233  -0.033680  -0.028641  -0.036043   5.020941   0.375522
     6  H   -0.039172  -0.003320  -0.002835   0.004904   0.375522   0.573207
     7  H   -0.034746   0.004622  -0.003182  -0.004064   0.370676  -0.032465
     8  C   -0.041989  -0.007933   0.004060  -0.003777   0.343430  -0.037023
     9  H    0.004922   0.000144  -0.000125  -0.000038  -0.030999  -0.004198
    10  H   -0.007361   0.000063  -0.000019   0.004947  -0.031623   0.005572
    11  O   -0.000923   0.006393   0.000074  -0.000276  -0.032144   0.000134
    12  O   -0.000018  -0.000134   0.000001  -0.000011   0.004606  -0.000024
              7          8          9         10         11         12
     1  C   -0.034746  -0.041989   0.004922  -0.007361  -0.000923  -0.000018
     2  H    0.004622  -0.007933   0.000144   0.000063   0.006393  -0.000134
     3  H   -0.003182   0.004060  -0.000125  -0.000019   0.000074   0.000001
     4  H   -0.004064  -0.003777  -0.000038   0.004947  -0.000276  -0.000011
     5  C    0.370676   0.343430  -0.030999  -0.031623  -0.032144   0.004606
     6  H   -0.032465  -0.037023  -0.004198   0.005572   0.000134  -0.000024
     7  H    0.580037  -0.032801  -0.001077  -0.001094   0.002553  -0.000077
     8  C   -0.032801   4.966032   0.363113   0.358754   0.154782  -0.042821
     9  H   -0.001077   0.363113   0.571790  -0.039485  -0.030433   0.002361
    10  H   -0.001094   0.358754  -0.039485   0.574718  -0.031142   0.003811
    11  O    0.002553   0.154782  -0.030433  -0.031142   8.035914   0.072184
    12  O   -0.000077  -0.042821   0.002361   0.003811   0.072184   8.129428
 Mulliken atomic charges:
              1
     1  C   -0.448018
     2  H    0.170382
     3  H    0.152089
     4  H    0.146875
     5  C   -0.289278
     6  H    0.159696
     7  H    0.151619
     8  C   -0.023828
     9  H    0.164027
    10  H    0.162858
    11  O   -0.177116
    12  O   -0.169306
 Sum of Mulliken atomic charges =   0.00000
 Mulliken charges with hydrogens summed into heavy atoms:
              1
     1  C    0.021328
     5  C    0.022037
     8  C    0.303057
    11  O   -0.177116
    12  O   -0.169306
 Sum of Mulliken charges with hydrogens summed into heavy atoms =   0.00000
          Atomic-Atomic Spin Densities.
              1          2          3          4          5          6
     1  C    0.000481   0.000305  -0.000097   0.000096  -0.000318  -0.000023
     2  H    0.000305  -0.000364   0.000008   0.000028  -0.000022  -0.000018
     3  H   -0.000097   0.000008   0.000562  -0.000023  -0.000179  -0.000105
     4  H    0.000096   0.000028  -0.000023  -0.000099  -0.000041  -0.000007
     5  C   -0.000318  -0.000022  -0.000179  -0.000041  -0.002211  -0.000576
     6  H   -0.000023  -0.000018  -0.000105  -0.000007  -0.000576  -0.000040
     7  H    0.000033  -0.000023  -0.000007   0.000005   0.000325   0.000126
     8  C    0.000164   0.000122   0.000032   0.000001   0.003808   0.000542
     9  H    0.000274   0.000010   0.000009  -0.000004  -0.000114  -0.000595
    10  H   -0.000938  -0.000066  -0.000036   0.000019   0.001387   0.000222
    11  O    0.000791  -0.000062   0.000020  -0.000010  -0.002329   0.000307
    12  O   -0.000064  -0.000027   0.000000   0.000002   0.000034  -0.000038
              7          8          9         10         11         12
     1  C    0.000033   0.000164   0.000274  -0.000938   0.000791  -0.000064
     2  H   -0.000023   0.000122   0.000010  -0.000066  -0.000062  -0.000027
     3  H   -0.000007   0.000032   0.000009  -0.000036   0.000020   0.000000
     4  H    0.000005   0.000001  -0.000004   0.000019  -0.000010   0.000002
     5  C    0.000325   0.003808  -0.000114   0.001387  -0.002329   0.000034
     6  H    0.000126   0.000542  -0.000595   0.000222   0.000307  -0.000038
     7  H   -0.001561   0.000185  -0.000048   0.000038  -0.000041   0.000001
     8  C    0.000185  -0.030928  -0.000502  -0.002419   0.007625  -0.002331
     9  H   -0.000048  -0.000502   0.028583  -0.007937  -0.006681   0.003694
    10  H    0.000038  -0.002419  -0.007937   0.027602  -0.006261   0.003451
    11  O   -0.000041   0.007625  -0.006681  -0.006261   0.415797  -0.115832
    12  O    0.000001  -0.002331   0.003694   0.003451  -0.115832   0.810394
 Mulliken atomic spin densities:
              1
     1  C    0.000703
     2  H   -0.000109
     3  H    0.000184
     4  H   -0.000031
     5  C   -0.000237
     6  H   -0.000203
     7  H   -0.000967
     8  C   -0.023698
     9  H    0.016688
    10  H    0.015062
    11  O    0.293324
    12  O    0.699283
 Sum of Mulliken atomic spin densities =   1.00000
 Electronic spatial extent (au):  <R**2>=            519.2360
 Charge=              0.0000 electrons
 Dipole moment (field-independent basis, Debye):
    X=             -2.4862    Y=              1.4182    Z=              0.4426  Tot=              2.8963
 Quadrupole moment (field-independent basis, Debye-Ang):
   XX=            -34.7781   YY=            -29.7693   ZZ=            -30.1059
   XY=              1.1853   XZ=              0.1840   YZ=             -0.2519
 Traceless Quadrupole moment (field-independent basis, Debye-Ang):
   XX=             -3.2270   YY=              1.7818   ZZ=              1.4452
   XY=              1.1853   XZ=              0.1840   YZ=             -0.2519
 Octapole moment (field-independent basis, Debye-Ang**2):
  XXX=              0.2938  YYY=             -0.3033  ZZZ=             -0.1427  XYY=              4.2055
  XXY=              2.0523  XXZ=             -1.3547  XZZ=              3.7465  YZZ=             -0.3928
  YYZ=             -0.2758  XYZ=             -0.9400
 Hexadecapole moment (field-independent basis, Debye-Ang**3):
 XXXX=           -480.0049 YYYY=           -115.0881 ZZZZ=            -57.3335 XXXY=              0.2238
 XXXZ=              0.9032 YYYX=             -4.2420 YYYZ=              1.2747 ZZZX=             -0.4733
 ZZZY=             -0.4528 XXYY=            -97.9894 XXZZ=            -87.3438 YYZZ=            -30.1519
 XXYZ=             -0.6573 YYXZ=             -0.2642 ZZXY=             -1.5644
 N-N= 1.808200496661D+02 E-N=-1.476486000165D+03  KE= 3.980913102283D+02
                          Isotropic Fermi Contact Couplings
        Atom                 a.u.       MegaHertz       Gauss      10(-4) cm-1
     1  C(13)             -0.00017      -0.18826      -0.06718      -0.06280
     2  H(1)               0.00023       1.03243       0.36840       0.34438
     3  H(1)               0.00005       0.22735       0.08112       0.07583
     4  H(1)               0.00003       0.13074       0.04665       0.04361
     5  C(13)             -0.00086      -0.96767      -0.34529      -0.32278
     6  H(1)              -0.00010      -0.46350      -0.16539      -0.15461
     7  H(1)              -0.00041      -1.83262      -0.65392      -0.61129
     8  C(13)             -0.01055     -11.86287      -4.23297      -3.95703
     9  H(1)               0.00562      25.11838       8.96286       8.37859
    10  H(1)               0.00476      21.26519       7.58795       7.09330
    11  O(17)              0.06068     -36.78577     -13.12608     -12.27041
    12  O(17)              0.08130     -49.28402     -17.58576     -16.43938
 --------------------------------------------------------
       Center         ----  Spin Dipole Couplings  ----
                      3XX-RR        3YY-RR        3ZZ-RR
 --------------------------------------------------------
     1   Atom        0.006189     -0.003186     -0.003003
     2   Atom        0.006390     -0.002112     -0.004278
     3   Atom        0.002892     -0.001472     -0.001420
     4   Atom        0.003697     -0.002331     -0.001366
     5   Atom        0.006416     -0.002678     -0.003738
     6   Atom        0.005416     -0.002694     -0.002722
     7   Atom        0.003069     -0.000856     -0.002213
     8   Atom        0.006877      0.001305     -0.008182
     9   Atom       -0.002325      0.010901     -0.008576
    10   Atom        0.002893     -0.004365      0.001472
    11   Atom       -0.573163      0.248688      0.324476
    12   Atom       -1.091759      0.468537      0.623222
 --------------------------------------------------------
                        XY            XZ            YZ
 --------------------------------------------------------
     1   Atom        0.000085     -0.001238      0.000467
     2   Atom        0.004421      0.000468      0.000195
     3   Atom        0.000368      0.000190      0.000022
     4   Atom        0.000770     -0.002203     -0.000272
     5   Atom       -0.004534     -0.000271     -0.000288
     6   Atom       -0.003518      0.003767     -0.001546
     7   Atom       -0.002773     -0.000458      0.000101
     8   Atom       -0.013710     -0.005237      0.007780
     9   Atom       -0.010721     -0.000707      0.002959
    10   Atom       -0.007418     -0.010299      0.007887
    11   Atom        0.385149     -0.450846     -1.013781
    12   Atom        0.783055     -0.815047     -1.949454
 --------------------------------------------------------


 ---------------------------------------------------------------------------------
              Anisotropic Spin Dipole Couplings in Principal Axis System
 ---------------------------------------------------------------------------------

       Atom             a.u.   MegaHertz   Gauss  10(-4) cm-1        Axes

              Baa    -0.0037    -0.490    -0.175    -0.163 -0.0935  0.7141 -0.6938
     1 C(13)  Bbb    -0.0027    -0.363    -0.129    -0.121  0.0919  0.7001  0.7081
              Bcc     0.0064     0.852     0.304     0.284  0.9914  0.0024 -0.1310
 
              Baa    -0.0043    -2.293    -0.818    -0.765 -0.0422 -0.0036  0.9991
     2 H(1)   Bbb    -0.0040    -2.131    -0.760    -0.711 -0.3912  0.9202 -0.0132
              Bcc     0.0083     4.425     1.579     1.476  0.9194  0.3914  0.0403
 
              Baa    -0.0015    -0.802    -0.286    -0.268 -0.0795  0.9933 -0.0833
     3 H(1)   Bbb    -0.0014    -0.762    -0.272    -0.254 -0.0507  0.0795  0.9956
              Bcc     0.0029     1.564     0.558     0.522  0.9955  0.0834  0.0440
 
              Baa    -0.0024    -1.295    -0.462    -0.432 -0.1308  0.9913 -0.0171
     4 H(1)   Bbb    -0.0022    -1.168    -0.417    -0.390  0.3428  0.0614  0.9374
              Bcc     0.0046     2.464     0.879     0.822  0.9303  0.1167 -0.3478
 
              Baa    -0.0047    -0.630    -0.225    -0.210  0.3599  0.8603  0.3610
     5 C(13)  Bbb    -0.0036    -0.483    -0.172    -0.161 -0.1277 -0.3378  0.9325
              Bcc     0.0083     1.113     0.397     0.371  0.9242 -0.3817 -0.0117
 
              Baa    -0.0043    -2.287    -0.816    -0.763 -0.1570  0.4870  0.8592
     6 H(1)   Bbb    -0.0040    -2.109    -0.753    -0.704  0.4542  0.8081 -0.3750
              Bcc     0.0082     4.396     1.569     1.467  0.8770 -0.3314  0.3480
 
              Baa    -0.0024    -1.275    -0.455    -0.425  0.3915  0.6659  0.6351
     7 H(1)   Bbb    -0.0021    -1.144    -0.408    -0.382 -0.2459 -0.5894  0.7695
              Bcc     0.0045     2.419     0.863     0.807  0.8867 -0.4574 -0.0670
 
              Baa    -0.0131    -1.755    -0.626    -0.585 -0.2351 -0.6261  0.7434
     8 C(13)  Bbb    -0.0078    -1.047    -0.373    -0.349  0.6502  0.4672  0.5991
              Bcc     0.0209     2.802     1.000     0.935  0.7225 -0.6242 -0.2973
 
              Baa    -0.0095    -5.059    -1.805    -1.687 -0.4562 -0.3582  0.8146
     9 H(1)   Bbb    -0.0077    -4.128    -1.473    -1.377  0.7487  0.3404  0.5689
              Bcc     0.0172     9.187     3.278     3.064 -0.4811  0.8694  0.1129
 
              Baa    -0.0099    -5.266    -1.879    -1.757  0.0633  0.8454 -0.5304
    10 H(1)   Bbb    -0.0079    -4.221    -1.506    -1.408  0.7584  0.3047  0.5762
              Bcc     0.0178     9.487     3.385     3.165  0.6487 -0.4387 -0.6218
 
              Baa    -0.7712    55.803    19.912    18.614  0.7558  0.2955  0.5844
    11 O(17)  Bbb    -0.7012    50.738    18.105    16.925 -0.5929  0.6877  0.4191
              Bcc     1.4724  -106.541   -38.017   -35.538 -0.2780 -0.6632  0.6949
 
              Baa    -1.4181   102.611    36.614    34.227  0.9606 -0.1807  0.2110
    12 O(17)  Bbb    -1.4051   101.672    36.279    33.914 -0.0152  0.7240  0.6897
              Bcc     2.8232  -204.283   -72.893   -68.141 -0.2774 -0.6657  0.6927
 

 ---------------------------------------------------------------------------------

 No NMR shielding tensors so no spin-rotation constants.
 Leave Link  601 at Wed Apr  1 22:40:01 2015, MaxMem= 3758096384 cpu:       8.3
 (Enter /share/apps/g09/l9999.exe)
 1\1\GINC-COMPUTE-0-6\Scan\UB3LYP\6-31G(d)\C3H7O2(2)\HETANJIN\01-Apr-20
 15\0\\#p ub3lyp/6-31g(d) opt=modredundant\\C3H7O2_62_b3631gd using cbs
 -qb3 to calculate energy\\0,2\C,-1.8589163125,-0.7324602538,0.37672788
 61\H,-1.2991302746,-1.6256584355,0.0821779801\H,-2.9026937381,-0.87280
 74858,0.0769503073\H,-1.8304731398,-0.6641686357,1.4709663696\C,-1.270
 5045006,0.5261864669,-0.2701231788\H,-1.344571629,0.4625814988,-1.3631
 079807\H,-1.8475160999,1.4110838108,0.0289043963\C,0.1798517274,0.7844
 320401,0.1069358709\H,0.5658013323,1.7146973027,-0.3217993164\H,0.3393
 925953,0.7941650226,1.1900114004\O,0.9845460496,-0.3069597497,-0.43873
 58153\O,2.2506869898,-0.1983115814,-0.0752039196\\Version=EM64L-G09Rev
 A.01\State=2-A\HF=-268.8487085,-268.8486342,-268.8484589,-268.8482654,
 -268.8481259,-268.8481096,-268.8482401,-268.848486,-268.8487057,-268.8
 486843,-268.8482365,-268.847403,-268.846544,-268.8458858,-268.8454022,
 -268.8450831,-268.8449557,-268.845064,-268.8454108,-268.8459681,-268.8
 466747,-268.8474627,-268.8482568,-268.8489605,-268.8494146,-268.849474
 9,-268.8492057,-268.8487577,-268.8482725,-268.8479012,-268.8477147,-26
 8.8477165,-268.8478813,-268.8481478,-268.8484293,-268.8486362,-268.848
 7085\S2=0.752845,0.752875,0.752929,0.752999,0.753072,0.753139,0.753188
 ,0.753207,0.753189,0.753143,0.75309,0.753049,0.753038,0.753055,0.75308
 5,0.753118,0.753146,0.753168,0.75318,0.753182,0.753174,0.753154,0.7531
 22,0.753082,0.753048,0.753029,0.753028,0.753038,0.753052,0.753058,0.75
 3048,0.75302,0.752974,0.752921,0.752873,0.752845,0.752845\S2-1=0.,0.,0
 .,0.,0.,0.,0.,0.,0.,0.,0.,0.,0.,0.,0.,0.,0.,0.,0.,0.,0.,0.,0.,0.,0.,0.
 ,0.,0.,0.,0.,0.,0.,0.,0.,0.,0.,0.\S2A=0.750006,0.750006,0.750006,0.750
 006,0.750006,0.750006,0.750007,0.750007,0.750007,0.750006,0.750006,0.7
 50006,0.750006,0.750006,0.750006,0.750007,0.750007,0.750007,0.750007,0
 .750007,0.750007,0.750007,0.750007,0.750006,0.750006,0.750006,0.750006
 ,0.750006,0.750006,0.750006,0.750006,0.750006,0.750006,0.750006,0.7500
 06,0.750006,0.750006\RMSD=4.636e-09,4.933e-09,3.703e-09,9.174e-09,3.77
 7e-09,6.422e-09,2.019e-09,6.708e-09,6.603e-09,4.007e-09,4.381e-09,7.63
 7e-09,7.796e-09,6.713e-09,9.618e-09,8.960e-09,7.901e-09,5.245e-09,6.05
 4e-09,9.293e-09,2.661e-09,8.148e-09,1.852e-09,5.315e-09,7.654e-09,1.93
 0e-09,4.367e-09,4.598e-09,1.920e-09,3.760e-09,2.517e-09,2.923e-09,4.34
 8e-09,9.724e-09,4.420e-09,3.525e-09,8.136e-09\PG=C01 [X(C3H7O2)]\\@


 Age does not diminish the extreme disappointment of
 having a scoop of ice cream fall from the cone.
 -- Jim Fiebig
 Job cpu time:  0 days  5 hours 26 minutes 50.4 seconds.
 File lengths (MBytes):  RWF=     14 Int=      0 D2E=      0 Chk=      5 Scr=      1
 Normal termination of Gaussian 09 at Wed Apr  1 22:40:01 2015.
