 Entering Gaussian System, Link 0=/share/apps/g09/g09
 Input=QOOH_1d_5_opt.gjf
 Output=QOOH_1d_5_opt.log
 Initial command:
 /share/apps/g09/l1.exe /state/partition1/Gau-22607.inp -scrdir=/state/partition1/
 Entering Link 1 = /share/apps/g09/l1.exe PID=     22608.
  
 Copyright (c) 1988,1990,1992,1993,1995,1998,2003,2009, Gaussian, Inc.
                  All Rights Reserved.
  
 This is part of the Gaussian(R) 09 program.  It is based on
 the Gaussian(R) 03 system (copyright 2003, Gaussian, Inc.),
 the Gaussian(R) 98 system (copyright 1998, Gaussian, Inc.),
 the Gaussian(R) 94 system (copyright 1995, Gaussian, Inc.),
 the Gaussian 92(TM) system (copyright 1992, Gaussian, Inc.),
 the Gaussian 90(TM) system (copyright 1990, Gaussian, Inc.),
 the Gaussian 88(TM) system (copyright 1988, Gaussian, Inc.),
 the Gaussian 86(TM) system (copyright 1986, Carnegie Mellon
 University), and the Gaussian 82(TM) system (copyright 1983,
 Carnegie Mellon University). Gaussian is a federally registered
 trademark of Gaussian, Inc.
  
 This software contains proprietary and confidential information,
 including trade secrets, belonging to Gaussian, Inc.
  
 This software is provided under written license and may be
 used, copied, transmitted, or stored only in accord with that
 written license.
  
 The following legend is applicable only to US Government
 contracts under FAR:
  
                    RESTRICTED RIGHTS LEGEND
  
 Use, reproduction and disclosure by the US Government is
 subject to restrictions as set forth in subparagraphs (a)
 and (c) of the Commercial Computer Software - Restricted
 Rights clause in FAR 52.227-19.
  
 Gaussian, Inc.
 340 Quinnipiac St., Bldg. 40, Wallingford CT 06492
  
  
 ---------------------------------------------------------------
 Warning -- This program may not be used in any manner that
 competes with the business of Gaussian, Inc. or will provide
 assistance to any competitor of Gaussian, Inc.  The licensee
 of this program is prohibited from giving any competitor of
 Gaussian, Inc. access to this program.  By using this program,
 the user acknowledges that Gaussian, Inc. is engaged in the
 business of creating and licensing software in the field of
 computational chemistry and represents and warrants to the
 licensee that it is not a competitor of Gaussian, Inc. and that
 it will not use this program in any manner prohibited above.
 ---------------------------------------------------------------
  

 Cite this work as:
 Gaussian 09, Revision A.01,
 M. J. Frisch, G. W. Trucks, H. B. Schlegel, G. E. Scuseria, 
 M. A. Robb, J. R. Cheeseman, G. Scalmani, V. Barone, B. Mennucci, 
 G. A. Petersson, H. Nakatsuji, M. Caricato, X. Li, H. P. Hratchian, 
 A. F. Izmaylov, J. Bloino, G. Zheng, J. L. Sonnenberg, M. Hada, 
 M. Ehara, K. Toyota, R. Fukuda, J. Hasegawa, M. Ishida, T. Nakajima, 
 Y. Honda, O. Kitao, H. Nakai, T. Vreven, J. A. Montgomery, Jr., 
 J. E. Peralta, F. Ogliaro, M. Bearpark, J. J. Heyd, E. Brothers, 
 K. N. Kudin, V. N. Staroverov, R. Kobayashi, J. Normand, 
 K. Raghavachari, A. Rendell, J. C. Burant, S. S. Iyengar, J. Tomasi, 
 M. Cossi, N. Rega, J. M. Millam, M. Klene, J. E. Knox, J. B. Cross, 
 V. Bakken, C. Adamo, J. Jaramillo, R. Gomperts, R. E. Stratmann, 
 O. Yazyev, A. J. Austin, R. Cammi, C. Pomelli, J. W. Ochterski, 
 R. L. Martin, K. Morokuma, V. G. Zakrzewski, G. A. Voth, 
 P. Salvador, J. J. Dannenberg, S. Dapprich, A. D. Daniels, 
 O. Farkas, J. B. Foresman, J. V. Ortiz, J. Cioslowski, 
 and D. J. Fox, Gaussian, Inc., Wallingford CT, 2009.
 
 ******************************************
 Gaussian 09:  EM64L-G09RevA.01  8-May-2009
                 1-Jun-2015 
 ******************************************
 %mem=28GB
 %nprocshared=12
 Will use up to   12 processors via shared memory.
 %chk=QOOH_1d_5_opt.chk
 ------------------------
 #p opt freq ub3lyp/cbsb7
 ------------------------
 1/14=-1,18=20,19=15,26=3,38=1/1,3;
 2/9=110,12=2,17=6,18=5,40=1/2;
 3/5=4,6=6,7=700,11=2,16=1,25=1,30=1,71=1,74=-5,116=2/1,2,3;
 4//1;
 5/5=2,38=5/2;
 6/7=2,8=2,9=2,10=2,28=1/1;
 7//1,2,3,16;
 1/14=-1,18=20,19=15/3(2);
 2/9=110/2;
 99//99;
 2/9=110/2;
 3/5=4,6=6,7=700,11=2,16=1,25=1,30=1,71=1,74=-5,116=2/1,2,3;
 4/5=5,16=3/1;
 5/5=2,38=5/2;
 7//1,2,3,16;
 1/14=-1,18=20,19=15/3(-5);
 2/9=110/2;
 6/7=2,8=2,9=2,10=2,19=2,28=1/1;
 99/9=1/99;
 Leave Link    1 at Mon Jun  1 00:47:43 2015, MaxMem= 3758096384 cpu:       0.4
 (Enter /share/apps/g09/l101.exe)
 --------------------------------
 QOOH_1d_5_opt using cbsb7 to opt
 --------------------------------
 Symbolic Z-matrix:
 Charge =  0 Multiplicity = 2
 C                    -2.87649   2.14023  -0.24071 
 H                    -2.39886   2.89221  -0.87207 
 H                    -2.94617   2.55275   0.77151 
 H                    -3.89448   1.9839   -0.61029 
 C                    -2.06625   0.83173  -0.24777 
 H                    -2.03685   0.44203  -1.27193 
 C                    -0.66479   1.0387    0.23631 
 H                    -0.52127   1.69117   1.0961 
 C                     0.47778   0.18958  -0.21293 
 H                     0.43171   0.06156  -1.30478 
 H                     0.34927  -0.82637   0.1918 
 C                     1.85274   0.74658   0.18338 
 H                     1.9138    0.81321   1.27829 
 H                     1.93217   1.77508  -0.18878 
 C                     3.05918  -0.0579   -0.33525 
 H                     2.95508  -0.1432   -1.4259 
 C                     4.36813   0.69106  -0.04839 
 H                     4.52454   0.80363   1.03023 
 H                     5.23072   0.15361  -0.45336 
 H                     4.35947   1.69227  -0.48941 
 C                    -2.81988  -0.22556   0.5906 
 H                    -2.81045   0.04774   1.65163 
 H                    -3.86118  -0.31521   0.25405 
 C                     3.11311  -1.47875   0.24476 
 H                     3.98353  -2.02258  -0.13434 
 H                     3.19117  -1.44768   1.33742 
 H                     2.22449  -2.06094  -0.00923 
 O                    -2.21059  -1.5121    0.59235 
 O                    -2.33711  -2.05447  -0.7546 
 H                    -2.90637  -2.81453  -0.57293 
 
 NAtoms=     30 NQM=     30 NQMF=      0 NMic=      0 NMicF=      0 NTot=     30.
                    Isotopes and Nuclear Properties:
 (Nuclear quadrupole moments (NQMom) in fm**2, nuclear magnetic moments (NMagM)
  in nuclear magnetons)

  Atom         1           2           3           4           5           6           7           8           9          10
 IAtWgt=          12           1           1           1          12           1          12           1          12           1
 AtmWgt=  12.0000000   1.0078250   1.0078250   1.0078250  12.0000000   1.0078250  12.0000000   1.0078250  12.0000000   1.0078250
 NucSpn=           0           1           1           1           0           1           0           1           0           1
 AtZEff=   0.0000000   0.0000000   0.0000000   0.0000000   0.0000000   0.0000000   0.0000000   0.0000000   0.0000000   0.0000000
 NQMom=    0.0000000   0.0000000   0.0000000   0.0000000   0.0000000   0.0000000   0.0000000   0.0000000   0.0000000   0.0000000
 NMagM=    0.0000000   2.7928460   2.7928460   2.7928460   0.0000000   2.7928460   0.0000000   2.7928460   0.0000000   2.7928460

  Atom        11          12          13          14          15          16          17          18          19          20
 IAtWgt=           1          12           1           1          12           1          12           1           1           1
 AtmWgt=   1.0078250  12.0000000   1.0078250   1.0078250  12.0000000   1.0078250  12.0000000   1.0078250   1.0078250   1.0078250
 NucSpn=           1           0           1           1           0           1           0           1           1           1
 AtZEff=   0.0000000   0.0000000   0.0000000   0.0000000   0.0000000   0.0000000   0.0000000   0.0000000   0.0000000   0.0000000
 NQMom=    0.0000000   0.0000000   0.0000000   0.0000000   0.0000000   0.0000000   0.0000000   0.0000000   0.0000000   0.0000000
 NMagM=    2.7928460   0.0000000   2.7928460   2.7928460   0.0000000   2.7928460   0.0000000   2.7928460   2.7928460   2.7928460

  Atom        21          22          23          24          25          26          27          28          29          30
 IAtWgt=          12           1           1          12           1           1           1          16          16           1
 AtmWgt=  12.0000000   1.0078250   1.0078250  12.0000000   1.0078250   1.0078250   1.0078250  15.9949146  15.9949146   1.0078250
 NucSpn=           0           1           1           0           1           1           1           0           0           1
 AtZEff=   0.0000000   0.0000000   0.0000000   0.0000000   0.0000000   0.0000000   0.0000000   0.0000000   0.0000000   0.0000000
 NQMom=    0.0000000   0.0000000   0.0000000   0.0000000   0.0000000   0.0000000   0.0000000   0.0000000   0.0000000   0.0000000
 NMagM=    0.0000000   2.7928460   2.7928460   0.0000000   2.7928460   2.7928460   2.7928460   0.0000000   0.0000000   2.7928460
 Leave Link  101 at Mon Jun  1 00:47:43 2015, MaxMem= 3758096384 cpu:       0.6
 (Enter /share/apps/g09/l103.exe)

 GradGradGradGradGradGradGradGradGradGradGradGradGradGradGradGradGradGrad
 Berny optimization.
 Initialization pass.
                           ----------------------------
                           !    Initial Parameters    !
                           ! (Angstroms and Degrees)  !
 --------------------------                            --------------------------
 ! Name  Definition              Value          Derivative Info.                !
 --------------------------------------------------------------------------------
 ! R1    R(1,2)                  1.0919         estimate D2E/DX2                !
 ! R2    R(1,3)                  1.0953         estimate D2E/DX2                !
 ! R3    R(1,4)                  1.0942         estimate D2E/DX2                !
 ! R4    R(1,5)                  1.5391         estimate D2E/DX2                !
 ! R5    R(5,6)                  1.0962         estimate D2E/DX2                !
 ! R6    R(5,7)                  1.4971         estimate D2E/DX2                !
 ! R7    R(5,21)                 1.5455         estimate D2E/DX2                !
 ! R8    R(7,8)                  1.0888         estimate D2E/DX2                !
 ! R9    R(7,9)                  1.4927         estimate D2E/DX2                !
 ! R10   R(9,10)                 1.1003         estimate D2E/DX2                !
 ! R11   R(9,11)                 1.1011         estimate D2E/DX2                !
 ! R12   R(9,12)                 1.5355         estimate D2E/DX2                !
 ! R13   R(12,13)                1.0986         estimate D2E/DX2                !
 ! R14   R(12,14)                1.0966         estimate D2E/DX2                !
 ! R15   R(12,15)                1.54           estimate D2E/DX2                !
 ! R16   R(15,16)                1.0989         estimate D2E/DX2                !
 ! R17   R(15,17)                1.5351         estimate D2E/DX2                !
 ! R18   R(15,24)                1.5356         estimate D2E/DX2                !
 ! R19   R(17,18)                1.0957         estimate D2E/DX2                !
 ! R20   R(17,19)                1.094          estimate D2E/DX2                !
 ! R21   R(17,20)                1.0941         estimate D2E/DX2                !
 ! R22   R(21,22)                1.0957         estimate D2E/DX2                !
 ! R23   R(21,23)                1.098          estimate D2E/DX2                !
 ! R24   R(21,28)                1.4235         estimate D2E/DX2                !
 ! R25   R(24,25)                1.0941         estimate D2E/DX2                !
 ! R26   R(24,26)                1.0959         estimate D2E/DX2                !
 ! R27   R(24,27)                1.0923         estimate D2E/DX2                !
 ! R28   R(28,29)                1.4575         estimate D2E/DX2                !
 ! R29   R(29,30)                0.9668         estimate D2E/DX2                !
 ! A1    A(2,1,3)              107.6266         estimate D2E/DX2                !
 ! A2    A(2,1,4)              108.0627         estimate D2E/DX2                !
 ! A3    A(2,1,5)              110.6459         estimate D2E/DX2                !
 ! A4    A(3,1,4)              107.8641         estimate D2E/DX2                !
 ! A5    A(3,1,5)              110.974          estimate D2E/DX2                !
 ! A6    A(4,1,5)              111.5162         estimate D2E/DX2                !
 ! A7    A(1,5,6)              108.7019         estimate D2E/DX2                !
 ! A8    A(1,5,7)              111.9506         estimate D2E/DX2                !
 ! A9    A(1,5,21)             108.8092         estimate D2E/DX2                !
 ! A10   A(6,5,7)              109.0354         estimate D2E/DX2                !
 ! A11   A(6,5,21)             106.0619         estimate D2E/DX2                !
 ! A12   A(7,5,21)             112.0642         estimate D2E/DX2                !
 ! A13   A(5,7,8)              117.4886         estimate D2E/DX2                !
 ! A14   A(5,7,9)              122.7226         estimate D2E/DX2                !
 ! A15   A(8,7,9)              118.5297         estimate D2E/DX2                !
 ! A16   A(7,9,10)             109.4371         estimate D2E/DX2                !
 ! A17   A(7,9,11)             108.9584         estimate D2E/DX2                !
 ! A18   A(7,9,12)             113.6638         estimate D2E/DX2                !
 ! A19   A(10,9,11)            104.6256         estimate D2E/DX2                !
 ! A20   A(10,9,12)            109.622          estimate D2E/DX2                !
 ! A21   A(11,9,12)            110.1406         estimate D2E/DX2                !
 ! A22   A(9,12,13)            109.2069         estimate D2E/DX2                !
 ! A23   A(9,12,14)            108.5102         estimate D2E/DX2                !
 ! A24   A(9,12,15)            115.155          estimate D2E/DX2                !
 ! A25   A(13,12,14)           106.0995         estimate D2E/DX2                !
 ! A26   A(13,12,15)           108.8912         estimate D2E/DX2                !
 ! A27   A(14,12,15)           108.5963         estimate D2E/DX2                !
 ! A28   A(12,15,16)           107.4918         estimate D2E/DX2                !
 ! A29   A(12,15,17)           110.4983         estimate D2E/DX2                !
 ! A30   A(12,15,24)           112.5602         estimate D2E/DX2                !
 ! A31   A(16,15,17)           107.7046         estimate D2E/DX2                !
 ! A32   A(16,15,24)           107.8405         estimate D2E/DX2                !
 ! A33   A(17,15,24)           110.542          estimate D2E/DX2                !
 ! A34   A(15,17,18)           110.8424         estimate D2E/DX2                !
 ! A35   A(15,17,19)           111.3111         estimate D2E/DX2                !
 ! A36   A(15,17,20)           111.3704         estimate D2E/DX2                !
 ! A37   A(18,17,19)           107.5971         estimate D2E/DX2                !
 ! A38   A(18,17,20)           107.694          estimate D2E/DX2                !
 ! A39   A(19,17,20)           107.8535         estimate D2E/DX2                !
 ! A40   A(5,21,22)            110.5148         estimate D2E/DX2                !
 ! A41   A(5,21,23)            110.6109         estimate D2E/DX2                !
 ! A42   A(5,21,28)            114.2189         estimate D2E/DX2                !
 ! A43   A(22,21,23)           108.9864         estimate D2E/DX2                !
 ! A44   A(22,21,28)           102.7419         estimate D2E/DX2                !
 ! A45   A(23,21,28)           109.4201         estimate D2E/DX2                !
 ! A46   A(15,24,25)           110.9138         estimate D2E/DX2                !
 ! A47   A(15,24,26)           110.6621         estimate D2E/DX2                !
 ! A48   A(15,24,27)           112.1332         estimate D2E/DX2                !
 ! A49   A(25,24,26)           107.6315         estimate D2E/DX2                !
 ! A50   A(25,24,27)           107.5607         estimate D2E/DX2                !
 ! A51   A(26,24,27)           107.7529         estimate D2E/DX2                !
 ! A52   A(21,28,29)           107.3389         estimate D2E/DX2                !
 ! A53   A(28,29,30)            99.7876         estimate D2E/DX2                !
 ! D1    D(2,1,5,6)            -61.7033         estimate D2E/DX2                !
 ! D2    D(2,1,5,7)             58.8059         estimate D2E/DX2                !
 ! D3    D(2,1,5,21)          -176.783          estimate D2E/DX2                !
 ! D4    D(3,1,5,6)            178.8906         estimate D2E/DX2                !
 ! D5    D(3,1,5,7)            -60.6003         estimate D2E/DX2                !
 ! D6    D(3,1,5,21)            63.8109         estimate D2E/DX2                !
 ! D7    D(4,1,5,6)             58.6081         estimate D2E/DX2                !
 ! D8    D(4,1,5,7)            179.1173         estimate D2E/DX2                !
 ! D9    D(4,1,5,21)           -56.4716         estimate D2E/DX2                !
 ! D10   D(1,5,7,8)             41.5006         estimate D2E/DX2                !
 ! D11   D(1,5,7,9)           -151.5203         estimate D2E/DX2                !
 ! D12   D(6,5,7,8)            161.8156         estimate D2E/DX2                !
 ! D13   D(6,5,7,9)            -31.2054         estimate D2E/DX2                !
 ! D14   D(21,5,7,8)           -81.0772         estimate D2E/DX2                !
 ! D15   D(21,5,7,9)            85.9018         estimate D2E/DX2                !
 ! D16   D(1,5,21,22)          -68.4977         estimate D2E/DX2                !
 ! D17   D(1,5,21,23)           52.2897         estimate D2E/DX2                !
 ! D18   D(1,5,21,28)          176.2545         estimate D2E/DX2                !
 ! D19   D(6,5,21,22)          174.7227         estimate D2E/DX2                !
 ! D20   D(6,5,21,23)          -64.4899         estimate D2E/DX2                !
 ! D21   D(6,5,21,28)           59.4749         estimate D2E/DX2                !
 ! D22   D(7,5,21,22)           55.8462         estimate D2E/DX2                !
 ! D23   D(7,5,21,23)          176.6336         estimate D2E/DX2                !
 ! D24   D(7,5,21,28)          -59.4016         estimate D2E/DX2                !
 ! D25   D(5,7,9,10)            45.5025         estimate D2E/DX2                !
 ! D26   D(5,7,9,11)           -68.3474         estimate D2E/DX2                !
 ! D27   D(5,7,9,12)           168.4205         estimate D2E/DX2                !
 ! D28   D(8,7,9,10)          -147.6472         estimate D2E/DX2                !
 ! D29   D(8,7,9,11)            98.5029         estimate D2E/DX2                !
 ! D30   D(8,7,9,12)           -24.7292         estimate D2E/DX2                !
 ! D31   D(7,9,12,13)           60.6508         estimate D2E/DX2                !
 ! D32   D(7,9,12,14)          -54.5825         estimate D2E/DX2                !
 ! D33   D(7,9,12,15)         -176.5036         estimate D2E/DX2                !
 ! D34   D(10,9,12,13)        -176.5327         estimate D2E/DX2                !
 ! D35   D(10,9,12,14)          68.2341         estimate D2E/DX2                !
 ! D36   D(10,9,12,15)         -53.6871         estimate D2E/DX2                !
 ! D37   D(11,9,12,13)         -61.9326         estimate D2E/DX2                !
 ! D38   D(11,9,12,14)        -177.1658         estimate D2E/DX2                !
 ! D39   D(11,9,12,15)          60.913          estimate D2E/DX2                !
 ! D40   D(9,12,15,16)          54.8604         estimate D2E/DX2                !
 ! D41   D(9,12,15,17)         172.1328         estimate D2E/DX2                !
 ! D42   D(9,12,15,24)         -63.7443         estimate D2E/DX2                !
 ! D43   D(13,12,15,16)        177.8743         estimate D2E/DX2                !
 ! D44   D(13,12,15,17)        -64.8533         estimate D2E/DX2                !
 ! D45   D(13,12,15,24)         59.2696         estimate D2E/DX2                !
 ! D46   D(14,12,15,16)        -67.0143         estimate D2E/DX2                !
 ! D47   D(14,12,15,17)         50.2581         estimate D2E/DX2                !
 ! D48   D(14,12,15,24)        174.3811         estimate D2E/DX2                !
 ! D49   D(12,15,17,18)         62.9606         estimate D2E/DX2                !
 ! D50   D(12,15,17,19)       -177.3201         estimate D2E/DX2                !
 ! D51   D(12,15,17,20)        -56.9201         estimate D2E/DX2                !
 ! D52   D(16,15,17,18)       -179.8982         estimate D2E/DX2                !
 ! D53   D(16,15,17,19)        -60.1789         estimate D2E/DX2                !
 ! D54   D(16,15,17,20)         60.221          estimate D2E/DX2                !
 ! D55   D(24,15,17,18)        -62.3135         estimate D2E/DX2                !
 ! D56   D(24,15,17,19)         57.4058         estimate D2E/DX2                !
 ! D57   D(24,15,17,20)        177.8057         estimate D2E/DX2                !
 ! D58   D(12,15,24,25)       -179.5274         estimate D2E/DX2                !
 ! D59   D(12,15,24,26)        -60.1436         estimate D2E/DX2                !
 ! D60   D(12,15,24,27)         60.1998         estimate D2E/DX2                !
 ! D61   D(16,15,24,25)         62.0725         estimate D2E/DX2                !
 ! D62   D(16,15,24,26)       -178.5437         estimate D2E/DX2                !
 ! D63   D(16,15,24,27)        -58.2004         estimate D2E/DX2                !
 ! D64   D(17,15,24,25)        -55.4286         estimate D2E/DX2                !
 ! D65   D(17,15,24,26)         63.9552         estimate D2E/DX2                !
 ! D66   D(17,15,24,27)       -175.7015         estimate D2E/DX2                !
 ! D67   D(5,21,28,29)         -67.9611         estimate D2E/DX2                !
 ! D68   D(22,21,28,29)        172.3237         estimate D2E/DX2                !
 ! D69   D(23,21,28,29)         56.64           estimate D2E/DX2                !
 ! D70   D(21,28,29,30)       -115.7083         estimate D2E/DX2                !
 --------------------------------------------------------------------------------
 Trust Radius=3.00D-01 FncErr=1.00D-07 GrdErr=1.00D-06
 Number of steps in this run= 162 maximum allowed number of steps= 180.
 GradGradGradGradGradGradGradGradGradGradGradGradGradGradGradGradGradGrad

 Leave Link  103 at Mon Jun  1 00:47:43 2015, MaxMem= 3758096384 cpu:       0.1
 (Enter /share/apps/g09/l202.exe)
                          Input orientation:                          
 ---------------------------------------------------------------------
 Center     Atomic      Atomic             Coordinates (Angstroms)
 Number     Number       Type             X           Y           Z
 ---------------------------------------------------------------------
      1          6           0       -2.876487    2.140226   -0.240714
      2          1           0       -2.398858    2.892214   -0.872066
      3          1           0       -2.946170    2.552749    0.771506
      4          1           0       -3.894480    1.983898   -0.610291
      5          6           0       -2.066245    0.831733   -0.247767
      6          1           0       -2.036854    0.442030   -1.271932
      7          6           0       -0.664793    1.038703    0.236313
      8          1           0       -0.521268    1.691173    1.096103
      9          6           0        0.477781    0.189579   -0.212927
     10          1           0        0.431706    0.061557   -1.304776
     11          1           0        0.349268   -0.826368    0.191804
     12          6           0        1.852743    0.746578    0.183377
     13          1           0        1.913800    0.813208    1.278294
     14          1           0        1.932172    1.775080   -0.188781
     15          6           0        3.059181   -0.057904   -0.335254
     16          1           0        2.955078   -0.143203   -1.425901
     17          6           0        4.368133    0.691057   -0.048385
     18          1           0        4.524540    0.803625    1.030226
     19          1           0        5.230716    0.153605   -0.453364
     20          1           0        4.359472    1.692266   -0.489409
     21          6           0       -2.819876   -0.225560    0.590605
     22          1           0       -2.810446    0.047738    1.651626
     23          1           0       -3.861176   -0.315207    0.254048
     24          6           0        3.113110   -1.478755    0.244756
     25          1           0        3.983531   -2.022580   -0.134344
     26          1           0        3.191175   -1.447679    1.337425
     27          1           0        2.224495   -2.060936   -0.009234
     28          8           0       -2.210595   -1.512104    0.592345
     29          8           0       -2.337107   -2.054469   -0.754598
     30          1           0       -2.906366   -2.814528   -0.572933
 ---------------------------------------------------------------------
                    Distance matrix (angstroms):
                    1          2          3          4          5
     1  C    0.000000
     2  H    1.091888   0.000000
     3  H    1.095272   1.765253   0.000000
     4  H    1.094228   1.769308   1.769815   0.000000
     5  C    1.539057   2.178522   2.185196   2.191198   0.000000
     6  H    2.156911   2.508852   3.075326   2.503178   1.096196
     7  C    2.516446   2.769655   2.789884   3.470016   1.497076
     8  H    2.745139   2.973471   2.593806   3.791573   2.220716
     9  C    3.880323   4.001718   4.275175   4.742799   2.624051
    10  H    4.049349   4.026406   4.682631   4.784724   2.819609
    11  H    4.403777   4.744667   4.755460   5.152703   2.962638
    12  C    4.948508   4.877891   5.161174   5.932238   3.943552
    13  H    5.197617   5.248365   5.186728   6.218793   4.262624
    14  H    4.822783   4.524675   5.032410   5.845610   4.108616
    15  C    6.330314   6.227483   6.641135   7.252448   5.202797
    16  H    6.373843   6.179411   6.849926   7.218464   5.249018
    17  C    7.390643   7.163498   7.591913   8.382001   6.439003
    18  H    7.627384   7.477590   7.677101   8.658189   6.713605
    19  H    8.349768   8.117000   8.609162   9.308265   7.331287
    20  H    7.254076   6.874687   7.463427   8.259987   6.487584
    21  C    2.508235   3.469463   2.787055   2.734708   1.545541
    22  H    2.822024   3.824848   2.658591   3.168613   2.185447
    23  H    2.691385   3.700548   3.054532   2.456435   2.188393
    24  C    7.014840   7.122812   7.296942   7.863039   5.692684
    25  H    8.024969   8.089148   8.353141   8.851071   6.690274
    26  H    7.223580   7.413837   7.347836   8.110229   5.945504
    27  H    6.612365   6.830341   6.973623   7.359606   5.180240
    28  O    3.804854   4.645207   4.134754   4.062490   2.494032
    29  O    4.260338   4.948463   4.891463   4.330663   2.942857
    30  H    4.965969   5.737067   5.533241   4.899250   3.755896
                    6          7          8          9         10
     6  H    0.000000
     7  C    2.124470   0.000000
     8  H    3.076516   1.088832   0.000000
     9  C    2.740184   1.492750   2.228552   0.000000
    10  H    2.497924   2.128868   3.054182   1.100294   0.000000
    11  H    3.073261   2.123391   2.813113   1.101123   1.742113
    12  C    4.164090   2.534981   2.713164   1.535522   2.168687
    13  H    4.716895   2.790289   2.594913   2.162130   3.071455
    14  H    4.324744   2.732615   2.770801   2.151663   2.536337
    15  C    5.205466   3.923929   4.234108   2.596120   2.803189
    16  H    5.028478   4.154915   4.670163   2.778318   2.534562
    17  C    6.525560   5.052945   5.120188   3.925990   4.179742
    18  H    6.962943   5.254972   5.123696   4.277703   4.770135
    19  H    7.319209   6.001340   6.152259   4.759149   4.874821
    20  H    6.564177   5.118306   5.131810   4.171575   4.330287
    21  C    2.127873   2.523543   3.035292   3.419436   3.774611
    22  H    3.049771   2.754805   2.872250   3.782739   4.387716
    23  H    2.496031   3.471347   3.986176   4.393110   4.582654
    24  C    5.701920   4.539847   4.897136   3.152423   3.458835
    25  H    6.604048   5.578150   5.966505   4.146096   4.281239
    26  H    6.141012   4.718371   4.867532   3.527990   4.107760
    27  H    5.100818   4.244530   4.779049   2.856102   3.065534
    28  O    2.706354   3.003810   3.656307   3.282004   3.613479
    29  O    2.567157   3.653252   4.555459   3.640433   3.527972
    30  H    3.442356   4.530664   5.364300   4.539461   4.466563
                   11         12         13         14         15
    11  H    0.000000
    12  C    2.175929   0.000000
    13  H    2.513251   1.098640   0.000000
    14  H    3.068870   1.096643   1.754379   0.000000
    15  C    2.865651   1.540020   2.162007   2.156718   0.000000
    16  H    3.142281   2.143975   3.051501   2.501322   1.098920
    17  C    4.302504   2.526654   2.792624   2.669966   1.535120
    18  H    4.559904   2.803374   2.622516   3.024908   2.180377
    19  H    5.020471   3.488232   3.799427   3.685048   2.185006
    20  H    4.784277   2.762364   3.143060   2.447247   2.185776
    21  C    3.250152   4.790017   4.894859   5.214592   5.953876
    22  H    3.588723   4.938569   4.800398   5.372452   6.197691
    23  H    4.241815   5.812164   5.972667   6.174810   6.950167
    24  C    2.840288   2.558202   2.785613   3.488554   1.535622
    25  H    3.839944   3.508481   3.784314   4.316626   2.180536
    26  H    3.126485   2.817444   2.597459   3.781609   2.178704
    27  H    2.254119   2.838562   3.164643   3.851325   2.194340
    28  O    2.680217   4.666864   4.784165   5.345863   5.544878
    29  O    3.101696   5.126452   5.516016   5.763015   5.769059
    30  H    3.890599   5.991878   6.310429   6.680084   6.575958
                   16         17         18         19         20
    16  H    0.000000
    17  C    2.142490   0.000000
    18  H    3.064678   1.095690   0.000000
    19  H    2.492480   1.094035   1.766989   0.000000
    20  H    2.493649   1.094073   1.768112   1.768571   0.000000
    21  C    6.117448   7.274336   7.429195   8.126849   7.509163
    22  H    6.538264   7.405126   7.399968   8.312790   7.661346
    23  H    7.022331   8.296117   8.495555   9.131414   8.494806
    24  C    2.144707   2.523707   2.796132   2.763372   3.485368
    25  H    2.501578   2.742104   3.104247   2.528444   3.750664
    26  H    3.064860   2.807115   2.634503   3.151312   3.815953
    27  H    2.493672   3.488579   3.817905   3.760161   4.344562
    28  O    5.712389   6.967360   7.135571   7.696831   7.389449
    29  O    5.666640   7.279896   7.644377   7.889124   7.678054
    30  H    6.497697   8.092133   8.418997   8.662345   8.550472
                   21         22         23         24         25
    21  C    0.000000
    22  H    1.095695   0.000000
    23  H    1.098003   1.785773   0.000000
    24  C    6.073750   6.276781   7.070686   0.000000
    25  H    7.073979   7.323526   8.037749   1.094119   0.000000
    26  H    6.179324   6.193097   7.224393   1.095894   1.767609
    27  H    5.401305   5.705751   6.336582   1.092284   1.763897
    28  O    1.423524   1.978637   2.066742   5.335144   6.257465
    29  O    2.321109   3.230053   2.522933   5.570908   6.351078
    30  H    2.839727   3.626352   2.800386   6.219888   6.949117
                   26         27         28         29         30
    26  H    0.000000
    27  H    1.767496   0.000000
    28  O    5.453294   4.509228   0.000000
    29  O    5.941940   4.622101   1.457540   0.000000
    30  H    6.534352   5.216454   1.881031   0.966823   0.000000
 Stoichiometry    C9H19O2(2)
 Framework group  C1[X(C9H19O2)]
 Deg. of freedom    84
 Full point group                 C1      NOp   1
 Largest Abelian subgroup         C1      NOp   1
 Largest concise Abelian subgroup C1      NOp   1
                         Standard orientation:                         
 ---------------------------------------------------------------------
 Center     Atomic      Atomic             Coordinates (Angstroms)
 Number     Number       Type             X           Y           Z
 ---------------------------------------------------------------------
      1          6           0        2.876487   -2.140226   -0.240714
      2          1           0        2.398858   -2.892214   -0.872066
      3          1           0        2.946170   -2.552749    0.771506
      4          1           0        3.894480   -1.983898   -0.610291
      5          6           0        2.066245   -0.831733   -0.247767
      6          1           0        2.036854   -0.442030   -1.271932
      7          6           0        0.664793   -1.038703    0.236313
      8          1           0        0.521268   -1.691173    1.096103
      9          6           0       -0.477780   -0.189579   -0.212927
     10          1           0       -0.431706   -0.061557   -1.304776
     11          1           0       -0.349268    0.826368    0.191804
     12          6           0       -1.852743   -0.746578    0.183377
     13          1           0       -1.913800   -0.813208    1.278294
     14          1           0       -1.932172   -1.775080   -0.188781
     15          6           0       -3.059181    0.057904   -0.335254
     16          1           0       -2.955078    0.143203   -1.425901
     17          6           0       -4.368133   -0.691057   -0.048385
     18          1           0       -4.524540   -0.803625    1.030226
     19          1           0       -5.230716   -0.153605   -0.453364
     20          1           0       -4.359472   -1.692266   -0.489409
     21          6           0        2.819876    0.225560    0.590605
     22          1           0        2.810446   -0.047738    1.651626
     23          1           0        3.861176    0.315207    0.254048
     24          6           0       -3.113110    1.478755    0.244756
     25          1           0       -3.983531    2.022580   -0.134344
     26          1           0       -3.191175    1.447679    1.337425
     27          1           0       -2.224495    2.060936   -0.009234
     28          8           0        2.210595    1.512104    0.592345
     29          8           0        2.337107    2.054469   -0.754598
     30          1           0        2.906366    2.814528   -0.572933
 ---------------------------------------------------------------------
 Rotational constants (GHZ):      1.6358127      0.4434963      0.3696237
 Leave Link  202 at Mon Jun  1 00:47:43 2015, MaxMem= 3758096384 cpu:       0.3
 (Enter /share/apps/g09/l301.exe)
 Standard basis: 6-311G(2d,d,p) (5D, 7F)
 Ernie: Thresh=  0.10000D-02 Tol=  0.10000D-05 Strict=F.
 There are   312 symmetry adapted basis functions of A   symmetry.
 Integral buffers will be    131072 words long.
 Raffenetti 2 integral format.
 Two-electron integral symmetry is turned on.
   312 basis functions,   504 primitive gaussians,   323 cartesian basis functions
    45 alpha electrons       44 beta electrons
       nuclear repulsion energy       643.1486649066 Hartrees.
 IExCor=  402 DFT=T Ex+Corr=B3LYP ExCW=0 ScaHFX=  0.200000
 ScaDFX=  0.800000  0.720000  1.000000  0.810000 ScalE2=  1.000000  1.000000
 IRadAn=      0 IRanWt=     -1 IRanGd=            0 ICorTp=0
 NAtoms=   30 NActive=   30 NUniq=   30 SFac= 7.50D-01 NAtFMM=   80 NAOKFM=F Big=F
 Leave Link  301 at Mon Jun  1 00:47:43 2015, MaxMem= 3758096384 cpu:       0.4
 (Enter /share/apps/g09/l302.exe)
 NPDir=0 NMtPBC=     1 NCelOv=     1 NCel=       1 NClECP=     1 NCelD=      1
         NCelK=      1 NCelE2=     1 NClLst=     1 CellRange=     0.0.
 One-electron integrals computed using PRISM.
 NBasis=   312 RedAO= T  NBF=   312
 NBsUse=   312 1.00D-06 NBFU=   312
 Precomputing XC quadrature grid using
 IXCGrd= 2 IRadAn=           0 IRanWt=          -1 IRanGd=           0 AccXCQ= 1.00D-10.
 NRdTot=    1914 NPtTot=      243552 NUsed=      257353 NTot=      257385
 NSgBfM=   323   323   323   323   323 NAtAll=    30    30.
 Leave Link  302 at Mon Jun  1 00:47:44 2015, MaxMem= 3758096384 cpu:       7.4
 (Enter /share/apps/g09/l303.exe)
 DipDrv:  MaxL=1.
 Leave Link  303 at Mon Jun  1 00:47:44 2015, MaxMem= 3758096384 cpu:       0.6
 (Enter /share/apps/g09/l401.exe)
 Harris functional with IExCor=  402 diagonalized for initial guess.
 ExpMin= 1.03D-01 ExpMax= 8.59D+03 ExpMxC= 1.30D+03 IAcc=1 IRadAn=         1 AccDes= 0.00D+00
 HarFok:  IExCor=  402 AccDes= 0.00D+00 IRadAn=         1 IDoV= 1
 ScaDFX=  1.000000  1.000000  1.000000  1.000000
 FoFCou: FMM=F IPFlag=           0 FMFlag=      100000 FMFlg1=           0
         NFxFlg=           0 DoJE=T BraDBF=F KetDBF=T FulRan=T
         Omega=  0.000000  0.000000  1.000000  0.000000  0.000000 ICntrl=     500 IOpCl=  0
         NMat0=    1 NMatS0=    1 NMatT0=    0 NMatD0=    1 NMtDS0=    0 NMtDT0=    0
         I1Cent=           4 NGrid=           0.
 Petite list used in FoFCou.
 Harris En= -504.955690074441    
 Initial guess orbital symmetries:
 Alpha Orbitals:
       Occupied  (A) (A) (A) (A) (A) (A) (A) (A) (A) (A) (A) (A)
                 (A) (A) (A) (A) (A) (A) (A) (A) (A) (A) (A) (A)
                 (A) (A) (A) (A) (A) (A) (A) (A) (A) (A) (A) (A)
                 (A) (A) (A) (A) (A) (A) (A) (A) (A)
       Virtual   (A) (A) (A) (A) (A) (A) (A) (A) (A) (A) (A) (A)
                 (A) (A) (A) (A) (A) (A) (A) (A) (A) (A) (A) (A)
                 (A) (A) (A) (A) (A) (A) (A) (A) (A) (A) (A) (A)
                 (A) (A) (A) (A) (A) (A) (A) (A) (A) (A) (A) (A)
                 (A) (A) (A) (A) (A) (A) (A) (A) (A) (A) (A) (A)
                 (A) (A) (A) (A) (A) (A) (A) (A) (A) (A) (A) (A)
                 (A) (A) (A) (A) (A) (A) (A) (A) (A) (A) (A) (A)
                 (A) (A) (A) (A) (A) (A) (A) (A) (A) (A) (A) (A)
                 (A) (A) (A) (A) (A) (A) (A) (A) (A) (A) (A) (A)
                 (A) (A) (A) (A) (A) (A) (A) (A) (A) (A) (A) (A)
                 (A) (A) (A) (A) (A) (A) (A) (A) (A) (A) (A) (A)
                 (A) (A) (A) (A) (A) (A) (A) (A) (A) (A) (A) (A)
                 (A) (A) (A) (A) (A) (A) (A) (A) (A) (A) (A) (A)
                 (A) (A) (A) (A) (A) (A) (A) (A) (A) (A) (A) (A)
                 (A) (A) (A) (A) (A) (A) (A) (A) (A) (A) (A) (A)
                 (A) (A) (A) (A) (A) (A) (A) (A) (A) (A) (A) (A)
                 (A) (A) (A) (A) (A) (A) (A) (A) (A) (A) (A) (A)
                 (A) (A) (A) (A) (A) (A) (A) (A) (A) (A) (A) (A)
                 (A) (A) (A) (A) (A) (A) (A) (A) (A) (A) (A) (A)
                 (A) (A) (A) (A) (A) (A) (A) (A) (A) (A) (A) (A)
                 (A) (A) (A) (A) (A) (A) (A) (A) (A) (A) (A) (A)
                 (A) (A) (A) (A) (A) (A) (A) (A) (A) (A) (A) (A)
                 (A) (A) (A)
 Beta  Orbitals:
       Occupied  (A) (A) (A) (A) (A) (A) (A) (A) (A) (A) (A) (A)
                 (A) (A) (A) (A) (A) (A) (A) (A) (A) (A) (A) (A)
                 (A) (A) (A) (A) (A) (A) (A) (A) (A) (A) (A) (A)
                 (A) (A) (A) (A) (A) (A) (A) (A)
       Virtual   (A) (A) (A) (A) (A) (A) (A) (A) (A) (A) (A) (A)
                 (A) (A) (A) (A) (A) (A) (A) (A) (A) (A) (A) (A)
                 (A) (A) (A) (A) (A) (A) (A) (A) (A) (A) (A) (A)
                 (A) (A) (A) (A) (A) (A) (A) (A) (A) (A) (A) (A)
                 (A) (A) (A) (A) (A) (A) (A) (A) (A) (A) (A) (A)
                 (A) (A) (A) (A) (A) (A) (A) (A) (A) (A) (A) (A)
                 (A) (A) (A) (A) (A) (A) (A) (A) (A) (A) (A) (A)
                 (A) (A) (A) (A) (A) (A) (A) (A) (A) (A) (A) (A)
                 (A) (A) (A) (A) (A) (A) (A) (A) (A) (A) (A) (A)
                 (A) (A) (A) (A) (A) (A) (A) (A) (A) (A) (A) (A)
                 (A) (A) (A) (A) (A) (A) (A) (A) (A) (A) (A) (A)
                 (A) (A) (A) (A) (A) (A) (A) (A) (A) (A) (A) (A)
                 (A) (A) (A) (A) (A) (A) (A) (A) (A) (A) (A) (A)
                 (A) (A) (A) (A) (A) (A) (A) (A) (A) (A) (A) (A)
                 (A) (A) (A) (A) (A) (A) (A) (A) (A) (A) (A) (A)
                 (A) (A) (A) (A) (A) (A) (A) (A) (A) (A) (A) (A)
                 (A) (A) (A) (A) (A) (A) (A) (A) (A) (A) (A) (A)
                 (A) (A) (A) (A) (A) (A) (A) (A) (A) (A) (A) (A)
                 (A) (A) (A) (A) (A) (A) (A) (A) (A) (A) (A) (A)
                 (A) (A) (A) (A) (A) (A) (A) (A) (A) (A) (A) (A)
                 (A) (A) (A) (A) (A) (A) (A) (A) (A) (A) (A) (A)
                 (A) (A) (A) (A) (A) (A) (A) (A) (A) (A) (A) (A)
                 (A) (A) (A) (A)
 The electronic state of the initial guess is 2-A.
 Initial guess <Sx>= 0.0000 <Sy>= 0.0000 <Sz>= 0.5000 <S**2>= 0.7500 S= 0.5000
 Leave Link  401 at Mon Jun  1 00:47:45 2015, MaxMem= 3758096384 cpu:      13.5
 (Enter /share/apps/g09/l502.exe)
 UHF open shell SCF:
 Requested convergence on RMS density matrix=1.00D-08 within 128 cycles.
 Requested convergence on MAX density matrix=1.00D-06.
 Requested convergence on             energy=1.00D-06.
 No special actions if energy rises.
 Using DIIS extrapolation, IDIIS=  1040.
 Integral symmetry usage will be decided dynamically.
       257070 words used for storage of precomputed grid.
 Keep R1 and R2 ints in memory in canonical form, NReq=2755663093.
 IEnd=      594520 IEndB=      594520 NGot=  3758096384 MDV=  1019560527
 LenX=  1019560527 LenY=  1019455757
 Symmetry not used in FoFDir.
 MinBra= 0 MaxBra= 2 Meth= 1.
 IRaf=       0 NMat=   1 IRICut=       1 DoRegI=T DoRafI=F ISym2E= 0 JSym2E=0.
 Integral accuracy reduced to 1.0D-05 until final iterations.

 Cycle   1  Pass 0  IDiag  1:
 E= -504.439437975356    
 DIIS: error= 4.07D-02 at cycle   1 NSaved=   1.
 NSaved= 1 IEnMin= 1 EnMin= -504.439437975356     IErMin= 1 ErrMin= 4.07D-02
 ErrMax= 4.07D-02 EMaxC= 1.00D-01 BMatC= 1.63D+00 BMatP= 1.63D+00
 IDIUse=3 WtCom= 5.93D-01 WtEn= 4.07D-01
 Coeff-Com:  0.100D+01
 Coeff-En:   0.100D+01
 Coeff:      0.100D+01
 Gap=     0.123 Goal=   None    Shift=    0.000
 Gap=     0.306 Goal=   None    Shift=    0.000
 GapD=    0.123 DampG=1.000 DampE=0.500 DampFc=0.5000 IDamp=-1.
 Damping current iteration by 5.00D-01
 RMSDP=3.57D-03 MaxDP=1.28D-01              OVMax= 1.97D-01

 Cycle   2  Pass 0  IDiag  1:
 E= -504.611525497493     Delta-E=       -0.172087522137 Rises=F Damp=T
 DIIS: error= 4.82D-03 at cycle   2 NSaved=   2.
 NSaved= 2 IEnMin= 2 EnMin= -504.611525497493     IErMin= 2 ErrMin= 4.82D-03
 ErrMax= 4.82D-03 EMaxC= 1.00D-01 BMatC= 8.36D-02 BMatP= 1.63D+00
 IDIUse=3 WtCom= 9.52D-01 WtEn= 4.82D-02
 Coeff-Com:  0.693D-01 0.931D+00
 Coeff-En:   0.155D+00 0.845D+00
 Coeff:      0.734D-01 0.927D+00
 Gap=     0.199 Goal=   None    Shift=    0.000
 Gap=     0.338 Goal=   None    Shift=    0.000
 RMSDP=7.97D-04 MaxDP=2.22D-02 DE=-1.72D-01 OVMax= 1.16D-01

 Cycle   3  Pass 0  IDiag  1:
 E= -504.835523313026     Delta-E=       -0.223997815533 Rises=F Damp=F
 DIIS: error= 6.36D-03 at cycle   3 NSaved=   3.
 NSaved= 3 IEnMin= 3 EnMin= -504.835523313026     IErMin= 2 ErrMin= 4.82D-03
 ErrMax= 6.36D-03 EMaxC= 1.00D-01 BMatC= 4.32D-02 BMatP= 8.36D-02
 IDIUse=3 WtCom= 9.36D-01 WtEn= 6.36D-02
 Coeff-Com: -0.114D-01 0.397D+00 0.615D+00
 Coeff-En:   0.000D+00 0.000D+00 0.100D+01
 Coeff:     -0.107D-01 0.371D+00 0.639D+00
 Gap=     0.190 Goal=   None    Shift=    0.000
 Gap=     0.232 Goal=   None    Shift=    0.000
 RMSDP=3.48D-04 MaxDP=1.64D-02 DE=-2.24D-01 OVMax= 2.99D-02

 Cycle   4  Pass 0  IDiag  1:
 E= -504.839063243604     Delta-E=       -0.003539930578 Rises=F Damp=F
 DIIS: error= 5.60D-03 at cycle   4 NSaved=   4.
 NSaved= 4 IEnMin= 4 EnMin= -504.839063243604     IErMin= 2 ErrMin= 4.82D-03
 ErrMax= 5.60D-03 EMaxC= 1.00D-01 BMatC= 2.74D-02 BMatP= 4.32D-02
 IDIUse=3 WtCom= 9.44D-01 WtEn= 5.60D-02
 Coeff-Com: -0.184D-01 0.122D+00 0.452D+00 0.445D+00
 Coeff-En:   0.000D+00 0.000D+00 0.381D+00 0.619D+00
 Coeff:     -0.174D-01 0.115D+00 0.448D+00 0.455D+00
 Gap=     0.190 Goal=   None    Shift=    0.000
 Gap=     0.228 Goal=   None    Shift=    0.000
 RMSDP=1.66D-04 MaxDP=8.43D-03 DE=-3.54D-03 OVMax= 1.48D-02

 Cycle   5  Pass 0  IDiag  1:
 E= -504.843707571546     Delta-E=       -0.004644327942 Rises=F Damp=F
 DIIS: error= 6.51D-04 at cycle   5 NSaved=   5.
 NSaved= 5 IEnMin= 5 EnMin= -504.843707571546     IErMin= 5 ErrMin= 6.51D-04
 ErrMax= 6.51D-04 EMaxC= 1.00D-01 BMatC= 8.17D-04 BMatP= 2.74D-02
 IDIUse=3 WtCom= 9.93D-01 WtEn= 6.51D-03
 Coeff-Com: -0.692D-02 0.206D-01 0.154D+00 0.219D+00 0.614D+00
 Coeff-En:   0.000D+00 0.000D+00 0.000D+00 0.000D+00 0.100D+01
 Coeff:     -0.687D-02 0.205D-01 0.153D+00 0.217D+00 0.616D+00
 Gap=     0.192 Goal=   None    Shift=    0.000
 Gap=     0.225 Goal=   None    Shift=    0.000
 RMSDP=4.01D-05 MaxDP=1.94D-03 DE=-4.64D-03 OVMax= 2.28D-03

 Cycle   6  Pass 0  IDiag  1:
 E= -504.843856409125     Delta-E=       -0.000148837579 Rises=F Damp=F
 DIIS: error= 2.35D-04 at cycle   6 NSaved=   6.
 NSaved= 6 IEnMin= 6 EnMin= -504.843856409125     IErMin= 6 ErrMin= 2.35D-04
 ErrMax= 2.35D-04 EMaxC= 1.00D-01 BMatC= 9.24D-05 BMatP= 8.17D-04
 IDIUse=3 WtCom= 9.98D-01 WtEn= 2.35D-03
 Coeff-Com: -0.149D-02-0.251D-02 0.331D-01 0.664D-01 0.315D+00 0.589D+00
 Coeff-En:   0.000D+00 0.000D+00 0.000D+00 0.000D+00 0.930D-02 0.991D+00
 Coeff:     -0.149D-02-0.250D-02 0.330D-01 0.663D-01 0.314D+00 0.590D+00
 Gap=     0.192 Goal=   None    Shift=    0.000
 Gap=     0.226 Goal=   None    Shift=    0.000
 RMSDP=1.24D-05 MaxDP=8.93D-04 DE=-1.49D-04 OVMax= 8.50D-04

 Cycle   7  Pass 0  IDiag  1:
 E= -504.843877658752     Delta-E=       -0.000021249627 Rises=F Damp=F
 DIIS: error= 3.88D-05 at cycle   7 NSaved=   7.
 NSaved= 7 IEnMin= 7 EnMin= -504.843877658752     IErMin= 7 ErrMin= 3.88D-05
 ErrMax= 3.88D-05 EMaxC= 1.00D-01 BMatC= 2.84D-06 BMatP= 9.24D-05
 IDIUse=1 WtCom= 1.00D+00 WtEn= 0.00D+00
 Coeff-Com:  0.554D-03-0.243D-02-0.997D-02-0.120D-01-0.195D-01 0.848D-01
 Coeff-Com:  0.959D+00
 Coeff:      0.554D-03-0.243D-02-0.997D-02-0.120D-01-0.195D-01 0.848D-01
 Coeff:      0.959D+00
 Gap=     0.192 Goal=   None    Shift=    0.000
 Gap=     0.226 Goal=   None    Shift=    0.000
 RMSDP=4.27D-06 MaxDP=3.45D-04 DE=-2.12D-05 OVMax= 4.63D-04

 Initial convergence to 1.0D-05 achieved.  Increase integral accuracy.
 Cycle   8  Pass 1  IDiag  1:
 E= -504.843842713857     Delta-E=        0.000034944894 Rises=F Damp=F
 DIIS: error= 2.28D-05 at cycle   1 NSaved=   1.
 NSaved= 1 IEnMin= 1 EnMin= -504.843842713857     IErMin= 1 ErrMin= 2.28D-05
 ErrMax= 2.28D-05 EMaxC= 1.00D-01 BMatC= 1.17D-06 BMatP= 1.17D-06
 IDIUse=1 WtCom= 1.00D+00 WtEn= 0.00D+00
 Coeff-Com:  0.100D+01
 Coeff:      0.100D+01
 Gap=     0.192 Goal=   None    Shift=    0.000
 Gap=     0.226 Goal=   None    Shift=    0.000
 RMSDP=4.27D-06 MaxDP=3.45D-04 DE= 3.49D-05 OVMax= 2.46D-04

 Cycle   9  Pass 1  IDiag  1:
 E= -504.843842825070     Delta-E=       -0.000000111213 Rises=F Damp=F
 DIIS: error= 2.21D-05 at cycle   2 NSaved=   2.
 NSaved= 2 IEnMin= 2 EnMin= -504.843842825070     IErMin= 2 ErrMin= 2.21D-05
 ErrMax= 2.21D-05 EMaxC= 1.00D-01 BMatC= 1.11D-06 BMatP= 1.17D-06
 IDIUse=1 WtCom= 1.00D+00 WtEn= 0.00D+00
 Coeff-Com:  0.492D+00 0.508D+00
 Coeff:      0.492D+00 0.508D+00
 Gap=     0.192 Goal=   None    Shift=    0.000
 Gap=     0.226 Goal=   None    Shift=    0.000
 RMSDP=1.60D-06 MaxDP=8.59D-05 DE=-1.11D-07 OVMax= 1.19D-04

 Cycle  10  Pass 1  IDiag  1:
 E= -504.843843088536     Delta-E=       -0.000000263467 Rises=F Damp=F
 DIIS: error= 6.89D-06 at cycle   3 NSaved=   3.
 NSaved= 3 IEnMin= 3 EnMin= -504.843843088536     IErMin= 3 ErrMin= 6.89D-06
 ErrMax= 6.89D-06 EMaxC= 1.00D-01 BMatC= 5.59D-08 BMatP= 1.11D-06
 IDIUse=1 WtCom= 1.00D+00 WtEn= 0.00D+00
 Coeff-Com: -0.191D-01 0.149D+00 0.870D+00
 Coeff:     -0.191D-01 0.149D+00 0.870D+00
 Gap=     0.192 Goal=   None    Shift=    0.000
 Gap=     0.226 Goal=   None    Shift=    0.000
 RMSDP=4.74D-07 MaxDP=3.25D-05 DE=-2.63D-07 OVMax= 3.92D-05

 Cycle  11  Pass 1  IDiag  1:
 E= -504.843843104529     Delta-E=       -0.000000015993 Rises=F Damp=F
 DIIS: error= 2.47D-06 at cycle   4 NSaved=   4.
 NSaved= 4 IEnMin= 4 EnMin= -504.843843104529     IErMin= 4 ErrMin= 2.47D-06
 ErrMax= 2.47D-06 EMaxC= 1.00D-01 BMatC= 9.53D-09 BMatP= 5.59D-08
 IDIUse=1 WtCom= 1.00D+00 WtEn= 0.00D+00
 Coeff-Com: -0.505D-01 0.187D-01 0.364D+00 0.668D+00
 Coeff:     -0.505D-01 0.187D-01 0.364D+00 0.668D+00
 Gap=     0.192 Goal=   None    Shift=    0.000
 Gap=     0.226 Goal=   None    Shift=    0.000
 RMSDP=1.86D-07 MaxDP=1.08D-05 DE=-1.60D-08 OVMax= 1.39D-05

 Cycle  12  Pass 1  IDiag  1:
 E= -504.843843107226     Delta-E=       -0.000000002697 Rises=F Damp=F
 DIIS: error= 1.02D-06 at cycle   5 NSaved=   5.
 NSaved= 5 IEnMin= 5 EnMin= -504.843843107226     IErMin= 5 ErrMin= 1.02D-06
 ErrMax= 1.02D-06 EMaxC= 1.00D-01 BMatC= 1.59D-09 BMatP= 9.53D-09
 IDIUse=1 WtCom= 1.00D+00 WtEn= 0.00D+00
 Coeff-Com: -0.143D-01-0.206D-01-0.286D-01 0.246D+00 0.817D+00
 Coeff:     -0.143D-01-0.206D-01-0.286D-01 0.246D+00 0.817D+00
 Gap=     0.192 Goal=   None    Shift=    0.000
 Gap=     0.226 Goal=   None    Shift=    0.000
 RMSDP=8.10D-08 MaxDP=4.25D-06 DE=-2.70D-09 OVMax= 6.73D-06

 Cycle  13  Pass 1  IDiag  1:
 E= -504.843843107561     Delta-E=       -0.000000000335 Rises=F Damp=F
 DIIS: error= 1.13D-06 at cycle   6 NSaved=   6.
 NSaved= 6 IEnMin= 6 EnMin= -504.843843107561     IErMin= 5 ErrMin= 1.02D-06
 ErrMax= 1.13D-06 EMaxC= 1.00D-01 BMatC= 1.19D-09 BMatP= 1.59D-09
 IDIUse=1 WtCom= 1.00D+00 WtEn= 0.00D+00
 Coeff-Com:  0.184D-02-0.196D-01-0.110D+00 0.135D-01 0.592D+00 0.523D+00
 Coeff:      0.184D-02-0.196D-01-0.110D+00 0.135D-01 0.592D+00 0.523D+00
 Gap=     0.192 Goal=   None    Shift=    0.000
 Gap=     0.226 Goal=   None    Shift=    0.000
 RMSDP=4.31D-08 MaxDP=2.05D-06 DE=-3.35D-10 OVMax= 3.70D-06

 Cycle  14  Pass 1  IDiag  1:
 E= -504.843843107783     Delta-E=       -0.000000000223 Rises=F Damp=F
 DIIS: error= 2.84D-07 at cycle   7 NSaved=   7.
 NSaved= 7 IEnMin= 7 EnMin= -504.843843107783     IErMin= 7 ErrMin= 2.84D-07
 ErrMax= 2.84D-07 EMaxC= 1.00D-01 BMatC= 9.11D-11 BMatP= 1.19D-09
 IDIUse=1 WtCom= 1.00D+00 WtEn= 0.00D+00
 Coeff-Com:  0.263D-02-0.878D-02-0.590D-01-0.214D-01 0.244D+00 0.299D+00
 Coeff-Com:  0.543D+00
 Coeff:      0.263D-02-0.878D-02-0.590D-01-0.214D-01 0.244D+00 0.299D+00
 Coeff:      0.543D+00
 Gap=     0.192 Goal=   None    Shift=    0.000
 Gap=     0.226 Goal=   None    Shift=    0.000
 RMSDP=1.40D-08 MaxDP=6.18D-07 DE=-2.23D-10 OVMax= 9.91D-07

 Cycle  15  Pass 1  IDiag  1:
 E= -504.843843107800     Delta-E=       -0.000000000017 Rises=F Damp=F
 DIIS: error= 5.44D-08 at cycle   8 NSaved=   8.
 NSaved= 8 IEnMin= 8 EnMin= -504.843843107800     IErMin= 8 ErrMin= 5.44D-08
 ErrMax= 5.44D-08 EMaxC= 1.00D-01 BMatC= 5.04D-12 BMatP= 9.11D-11
 IDIUse=1 WtCom= 1.00D+00 WtEn= 0.00D+00
 Coeff-Com:  0.795D-03-0.117D-02-0.103D-01-0.104D-01 0.276D-01 0.562D-01
 Coeff-Com:  0.215D+00 0.722D+00
 Coeff:      0.795D-03-0.117D-02-0.103D-01-0.104D-01 0.276D-01 0.562D-01
 Coeff:      0.215D+00 0.722D+00
 Gap=     0.192 Goal=   None    Shift=    0.000
 Gap=     0.226 Goal=   None    Shift=    0.000
 RMSDP=4.65D-09 MaxDP=1.81D-07 DE=-1.73D-11 OVMax= 3.48D-07

 SCF Done:  E(UB3LYP) =  -504.843843108     A.U. after   15 cycles
             Convg  =    0.4654D-08             -V/T =  2.0042
 <Sx>= 0.0000 <Sy>= 0.0000 <Sz>= 0.5000 <S**2>= 0.7540 S= 0.5020
 <L.S>= 0.000000000000E+00
 KE= 5.027301563806D+02 PE=-2.463057535581D+03 EE= 8.123348711856D+02
 Annihilation of the first spin contaminant:
 S**2 before annihilation     0.7540,   after     0.7500
 Leave Link  502 at Mon Jun  1 00:50:23 2015, MaxMem= 3758096384 cpu:    1756.0
 (Enter /share/apps/g09/l601.exe)
 Copying SCF densities to generalized density rwf, IOpCl= 1 IROHF=0.

 **********************************************************************

            Population analysis using the SCF density.

 **********************************************************************

 Orbital symmetries:
 Alpha Orbitals:
       Occupied  (A) (A) (A) (A) (A) (A) (A) (A) (A) (A) (A) (A)
                 (A) (A) (A) (A) (A) (A) (A) (A) (A) (A) (A) (A)
                 (A) (A) (A) (A) (A) (A) (A) (A) (A) (A) (A) (A)
                 (A) (A) (A) (A) (A) (A) (A) (A) (A)
       Virtual   (A) (A) (A) (A) (A) (A) (A) (A) (A) (A) (A) (A)
                 (A) (A) (A) (A) (A) (A) (A) (A) (A) (A) (A) (A)
                 (A) (A) (A) (A) (A) (A) (A) (A) (A) (A) (A) (A)
                 (A) (A) (A) (A) (A) (A) (A) (A) (A) (A) (A) (A)
                 (A) (A) (A) (A) (A) (A) (A) (A) (A) (A) (A) (A)
                 (A) (A) (A) (A) (A) (A) (A) (A) (A) (A) (A) (A)
                 (A) (A) (A) (A) (A) (A) (A) (A) (A) (A) (A) (A)
                 (A) (A) (A) (A) (A) (A) (A) (A) (A) (A) (A) (A)
                 (A) (A) (A) (A) (A) (A) (A) (A) (A) (A) (A) (A)
                 (A) (A) (A) (A) (A) (A) (A) (A) (A) (A) (A) (A)
                 (A) (A) (A) (A) (A) (A) (A) (A) (A) (A) (A) (A)
                 (A) (A) (A) (A) (A) (A) (A) (A) (A) (A) (A) (A)
                 (A) (A) (A) (A) (A) (A) (A) (A) (A) (A) (A) (A)
                 (A) (A) (A) (A) (A) (A) (A) (A) (A) (A) (A) (A)
                 (A) (A) (A) (A) (A) (A) (A) (A) (A) (A) (A) (A)
                 (A) (A) (A) (A) (A) (A) (A) (A) (A) (A) (A) (A)
                 (A) (A) (A) (A) (A) (A) (A) (A) (A) (A) (A) (A)
                 (A) (A) (A) (A) (A) (A) (A) (A) (A) (A) (A) (A)
                 (A) (A) (A) (A) (A) (A) (A) (A) (A) (A) (A) (A)
                 (A) (A) (A) (A) (A) (A) (A) (A) (A) (A) (A) (A)
                 (A) (A) (A) (A) (A) (A) (A) (A) (A) (A) (A) (A)
                 (A) (A) (A) (A) (A) (A) (A) (A) (A) (A) (A) (A)
                 (A) (A) (A)
 Beta  Orbitals:
       Occupied  (A) (A) (A) (A) (A) (A) (A) (A) (A) (A) (A) (A)
                 (A) (A) (A) (A) (A) (A) (A) (A) (A) (A) (A) (A)
                 (A) (A) (A) (A) (A) (A) (A) (A) (A) (A) (A) (A)
                 (A) (A) (A) (A) (A) (A) (A) (A)
       Virtual   (A) (A) (A) (A) (A) (A) (A) (A) (A) (A) (A) (A)
                 (A) (A) (A) (A) (A) (A) (A) (A) (A) (A) (A) (A)
                 (A) (A) (A) (A) (A) (A) (A) (A) (A) (A) (A) (A)
                 (A) (A) (A) (A) (A) (A) (A) (A) (A) (A) (A) (A)
                 (A) (A) (A) (A) (A) (A) (A) (A) (A) (A) (A) (A)
                 (A) (A) (A) (A) (A) (A) (A) (A) (A) (A) (A) (A)
                 (A) (A) (A) (A) (A) (A) (A) (A) (A) (A) (A) (A)
                 (A) (A) (A) (A) (A) (A) (A) (A) (A) (A) (A) (A)
                 (A) (A) (A) (A) (A) (A) (A) (A) (A) (A) (A) (A)
                 (A) (A) (A) (A) (A) (A) (A) (A) (A) (A) (A) (A)
                 (A) (A) (A) (A) (A) (A) (A) (A) (A) (A) (A) (A)
                 (A) (A) (A) (A) (A) (A) (A) (A) (A) (A) (A) (A)
                 (A) (A) (A) (A) (A) (A) (A) (A) (A) (A) (A) (A)
                 (A) (A) (A) (A) (A) (A) (A) (A) (A) (A) (A) (A)
                 (A) (A) (A) (A) (A) (A) (A) (A) (A) (A) (A) (A)
                 (A) (A) (A) (A) (A) (A) (A) (A) (A) (A) (A) (A)
                 (A) (A) (A) (A) (A) (A) (A) (A) (A) (A) (A) (A)
                 (A) (A) (A) (A) (A) (A) (A) (A) (A) (A) (A) (A)
                 (A) (A) (A) (A) (A) (A) (A) (A) (A) (A) (A) (A)
                 (A) (A) (A) (A) (A) (A) (A) (A) (A) (A) (A) (A)
                 (A) (A) (A) (A) (A) (A) (A) (A) (A) (A) (A) (A)
                 (A) (A) (A) (A) (A) (A) (A) (A) (A) (A) (A) (A)
                 (A) (A) (A) (A)
 The electronic state is 2-A.
 Alpha  occ. eigenvalues --  -19.17632 -19.17032 -10.22188 -10.17530 -10.16703
 Alpha  occ. eigenvalues --  -10.16583 -10.16270 -10.15749 -10.15610 -10.15106
 Alpha  occ. eigenvalues --  -10.14947  -1.11956  -0.91939  -0.81577  -0.79793
 Alpha  occ. eigenvalues --   -0.74648  -0.67824  -0.67375  -0.66525  -0.60321
 Alpha  occ. eigenvalues --   -0.56841  -0.55326  -0.51532  -0.48392  -0.48172
 Alpha  occ. eigenvalues --   -0.46265  -0.44198  -0.43770  -0.42493  -0.42022
 Alpha  occ. eigenvalues --   -0.40657  -0.39108  -0.38100  -0.37864  -0.36979
 Alpha  occ. eigenvalues --   -0.36118  -0.35118  -0.34449  -0.33427  -0.31787
 Alpha  occ. eigenvalues --   -0.31622  -0.30949  -0.30749  -0.27024  -0.18200
 Alpha virt. eigenvalues --    0.01000   0.04440   0.04898   0.05192   0.06366
 Alpha virt. eigenvalues --    0.08164   0.08415   0.08462   0.10103   0.10692
 Alpha virt. eigenvalues --    0.11413   0.11863   0.12044   0.12935   0.13904
 Alpha virt. eigenvalues --    0.14690   0.15292   0.15643   0.16699   0.17469
 Alpha virt. eigenvalues --    0.18429   0.19588   0.21089   0.21717   0.23227
 Alpha virt. eigenvalues --    0.24376   0.24479   0.25890   0.27102   0.29622
 Alpha virt. eigenvalues --    0.30324   0.32360   0.33822   0.35166   0.35941
 Alpha virt. eigenvalues --    0.37065   0.37932   0.38682   0.39468   0.40624
 Alpha virt. eigenvalues --    0.41724   0.43133   0.46397   0.46739   0.48913
 Alpha virt. eigenvalues --    0.50449   0.51128   0.51669   0.53743   0.54691
 Alpha virt. eigenvalues --    0.55509   0.56990   0.57534   0.57807   0.58272
 Alpha virt. eigenvalues --    0.58641   0.58837   0.59356   0.59684   0.59917
 Alpha virt. eigenvalues --    0.60569   0.61161   0.61550   0.62308   0.63049
 Alpha virt. eigenvalues --    0.63349   0.64079   0.64560   0.65502   0.66092
 Alpha virt. eigenvalues --    0.67187   0.67992   0.69535   0.71138   0.75688
 Alpha virt. eigenvalues --    0.76900   0.79995   0.81810   0.86313   0.86934
 Alpha virt. eigenvalues --    0.88521   0.90026   0.92357   0.93794   0.95913
 Alpha virt. eigenvalues --    0.97380   0.99383   1.01129   1.04395   1.07568
 Alpha virt. eigenvalues --    1.09307   1.10850   1.14596   1.15863   1.17495
 Alpha virt. eigenvalues --    1.20855   1.21651   1.22782   1.23682   1.25247
 Alpha virt. eigenvalues --    1.29020   1.32041   1.35890   1.37521   1.38562
 Alpha virt. eigenvalues --    1.40387   1.41689   1.43285   1.44123   1.45451
 Alpha virt. eigenvalues --    1.46138   1.46655   1.47295   1.48540   1.49634
 Alpha virt. eigenvalues --    1.50481   1.51253   1.51961   1.52585   1.53771
 Alpha virt. eigenvalues --    1.54599   1.54975   1.56317   1.58116   1.58275
 Alpha virt. eigenvalues --    1.59430   1.60873   1.61146   1.62137   1.64466
 Alpha virt. eigenvalues --    1.65804   1.68034   1.68557   1.69374   1.70383
 Alpha virt. eigenvalues --    1.71329   1.72790   1.74749   1.75896   1.77560
 Alpha virt. eigenvalues --    1.77787   1.79085   1.79475   1.79974   1.82104
 Alpha virt. eigenvalues --    1.86087   1.88960   1.89719   1.91080   1.93109
 Alpha virt. eigenvalues --    1.93580   1.93773   1.98969   2.00139   2.02111
 Alpha virt. eigenvalues --    2.03493   2.03692   2.06038   2.06568   2.09410
 Alpha virt. eigenvalues --    2.10508   2.13450   2.15524   2.16073   2.19421
 Alpha virt. eigenvalues --    2.22171   2.22445   2.26460   2.27886   2.29351
 Alpha virt. eigenvalues --    2.30392   2.32643   2.33427   2.36749   2.37643
 Alpha virt. eigenvalues --    2.38408   2.40721   2.41510   2.43811   2.45418
 Alpha virt. eigenvalues --    2.45967   2.46739   2.47636   2.48147   2.49556
 Alpha virt. eigenvalues --    2.50541   2.51544   2.51885   2.52487   2.54922
 Alpha virt. eigenvalues --    2.55999   2.56392   2.57148   2.58002   2.59278
 Alpha virt. eigenvalues --    2.60625   2.61935   2.65090   2.65392   2.65556
 Alpha virt. eigenvalues --    2.69518   2.70191   2.70799   2.72411   2.74081
 Alpha virt. eigenvalues --    2.75045   2.76641   2.78329   2.79632   2.81148
 Alpha virt. eigenvalues --    2.85596   2.87551   2.87919   2.89156   2.90743
 Alpha virt. eigenvalues --    2.91740   2.94657   2.97058   3.03516   3.04529
 Alpha virt. eigenvalues --    3.07750   3.11491   3.12526   3.14921   3.19267
 Alpha virt. eigenvalues --    3.24580   3.31943   3.36972   3.45346   3.49712
 Alpha virt. eigenvalues --    3.60647   3.74677   3.77960   3.78419   3.78740
 Alpha virt. eigenvalues --    3.79403   3.79706   3.80975   3.82865   3.85025
 Alpha virt. eigenvalues --    3.85271   3.91876   3.95916   3.98479   4.07648
 Alpha virt. eigenvalues --    4.18002   4.24495   4.30082   4.30640   4.43329
 Alpha virt. eigenvalues --    4.68052   4.80884   4.92491   5.22915   5.43325
 Alpha virt. eigenvalues --    5.63080  23.75826  23.80982  23.82777  23.86610
 Alpha virt. eigenvalues --   23.88309  23.91037  23.94098  23.94935  23.95196
 Alpha virt. eigenvalues --   49.76804  49.83417
  Beta  occ. eigenvalues --  -19.17633 -19.17029 -10.22056 -10.17613 -10.16704
  Beta  occ. eigenvalues --  -10.16223 -10.15824 -10.15592 -10.15196 -10.15105
  Beta  occ. eigenvalues --  -10.14943  -1.11949  -0.91896  -0.81042  -0.79379
  Beta  occ. eigenvalues --   -0.74204  -0.67816  -0.67069  -0.65656  -0.60106
  Beta  occ. eigenvalues --   -0.55787  -0.55280  -0.51215  -0.48173  -0.47866
  Beta  occ. eigenvalues --   -0.46122  -0.43946  -0.43469  -0.42212  -0.41892
  Beta  occ. eigenvalues --   -0.40263  -0.38875  -0.37968  -0.37701  -0.36836
  Beta  occ. eigenvalues --   -0.35763  -0.35016  -0.34145  -0.33131  -0.31620
  Beta  occ. eigenvalues --   -0.31535  -0.30732  -0.30586  -0.26789
  Beta virt. eigenvalues --   -0.04204   0.01017   0.04503   0.04983   0.05272
  Beta virt. eigenvalues --    0.06464   0.08261   0.08465   0.08514   0.10235
  Beta virt. eigenvalues --    0.10818   0.11546   0.11905   0.12225   0.12982
  Beta virt. eigenvalues --    0.14060   0.14847   0.15352   0.15791   0.16862
  Beta virt. eigenvalues --    0.17537   0.18560   0.19825   0.21502   0.21841
  Beta virt. eigenvalues --    0.23332   0.24514   0.24741   0.26176   0.27623
  Beta virt. eigenvalues --    0.29714   0.30396   0.32475   0.34152   0.35398
  Beta virt. eigenvalues --    0.36190   0.37152   0.38255   0.39559   0.40604
  Beta virt. eigenvalues --    0.40967   0.42038   0.43548   0.46486   0.46910
  Beta virt. eigenvalues --    0.49292   0.50823   0.51699   0.52325   0.53924
  Beta virt. eigenvalues --    0.55560   0.56189   0.57156   0.57693   0.58408
  Beta virt. eigenvalues --    0.58540   0.58663   0.59125   0.59407   0.59965
  Beta virt. eigenvalues --    0.60064   0.60737   0.61251   0.61659   0.62525
  Beta virt. eigenvalues --    0.63222   0.63416   0.64493   0.65006   0.65671
  Beta virt. eigenvalues --    0.66252   0.67469   0.68546   0.70008   0.71320
  Beta virt. eigenvalues --    0.75889   0.77238   0.80171   0.82312   0.86370
  Beta virt. eigenvalues --    0.87331   0.88670   0.90350   0.92735   0.93992
  Beta virt. eigenvalues --    0.96069   0.97617   0.99489   1.01308   1.04679
  Beta virt. eigenvalues --    1.07729   1.09420   1.11078   1.14778   1.16002
  Beta virt. eigenvalues --    1.17617   1.21078   1.21823   1.23182   1.24089
  Beta virt. eigenvalues --    1.26089   1.29273   1.32325   1.36253   1.37656
  Beta virt. eigenvalues --    1.38685   1.40577   1.41987   1.43622   1.44686
  Beta virt. eigenvalues --    1.45747   1.46222   1.47052   1.47322   1.48784
  Beta virt. eigenvalues --    1.49851   1.50732   1.51304   1.52139   1.52859
  Beta virt. eigenvalues --    1.53853   1.54702   1.55316   1.56615   1.58247
  Beta virt. eigenvalues --    1.58903   1.59585   1.60987   1.61422   1.62544
  Beta virt. eigenvalues --    1.65246   1.66181   1.68173   1.69150   1.69901
  Beta virt. eigenvalues --    1.70554   1.71873   1.72950   1.75037   1.76128
  Beta virt. eigenvalues --    1.77707   1.78211   1.79187   1.79786   1.80324
  Beta virt. eigenvalues --    1.82356   1.86535   1.89694   1.89850   1.91899
  Beta virt. eigenvalues --    1.93191   1.93723   1.94184   1.99120   2.00306
  Beta virt. eigenvalues --    2.02493   2.03681   2.04185   2.06353   2.07009
  Beta virt. eigenvalues --    2.09789   2.10599   2.13894   2.15670   2.16241
  Beta virt. eigenvalues --    2.19541   2.22519   2.22953   2.26918   2.28192
  Beta virt. eigenvalues --    2.29509   2.30748   2.33008   2.33603   2.36803
  Beta virt. eigenvalues --    2.37897   2.38597   2.40860   2.41659   2.43907
  Beta virt. eigenvalues --    2.45549   2.46098   2.46901   2.47749   2.48320
  Beta virt. eigenvalues --    2.49698   2.50738   2.51579   2.52083   2.52647
  Beta virt. eigenvalues --    2.55016   2.56277   2.56566   2.57232   2.58109
  Beta virt. eigenvalues --    2.59418   2.60784   2.62195   2.65332   2.65547
  Beta virt. eigenvalues --    2.65820   2.69534   2.70517   2.71065   2.72565
  Beta virt. eigenvalues --    2.74256   2.75345   2.76795   2.78543   2.80011
  Beta virt. eigenvalues --    2.81297   2.86508   2.88029   2.88474   2.89346
  Beta virt. eigenvalues --    2.91083   2.93122   2.95957   2.97749   3.03812
  Beta virt. eigenvalues --    3.04864   3.07843   3.11523   3.12583   3.15024
  Beta virt. eigenvalues --    3.19370   3.24689   3.32022   3.37220   3.45580
  Beta virt. eigenvalues --    3.50091   3.60680   3.74719   3.78009   3.78429
  Beta virt. eigenvalues --    3.78958   3.79431   3.79788   3.81026   3.82959
  Beta virt. eigenvalues --    3.85106   3.85327   3.91999   3.96474   3.98755
  Beta virt. eigenvalues --    4.08024   4.18378   4.24711   4.30092   4.31139
  Beta virt. eigenvalues --    4.43933   4.68062   4.80887   4.92501   5.22927
  Beta virt. eigenvalues --    5.43335   5.63085  23.76352  23.81155  23.82803
  Beta virt. eigenvalues --   23.87118  23.88320  23.91409  23.94116  23.94935
  Beta virt. eigenvalues --   23.95207  49.76806  49.83417
          Condensed to atoms (all electrons):
              1          2          3          4          5          6
     1  C    4.882677   0.399815   0.400938   0.400921   0.349385  -0.035393
     2  H    0.399815   0.570750  -0.030599  -0.025786  -0.031320  -0.006995
     3  H    0.400938  -0.030599   0.596178  -0.032226  -0.037005   0.008360
     4  H    0.400921  -0.025786  -0.032226   0.588843  -0.036498  -0.007182
     5  C    0.349385  -0.031320  -0.037005  -0.036498   5.159665   0.414186
     6  H   -0.035393  -0.006995   0.008360  -0.007182   0.414186   0.574743
     7  C   -0.064865   0.002733  -0.007977   0.009426   0.328176  -0.050450
     8  H   -0.006550  -0.000319   0.004527  -0.000181  -0.045454   0.007276
     9  C    0.006250  -0.000121   0.000052  -0.000356  -0.051940  -0.003855
    10  H    0.000151  -0.000134   0.000000  -0.000039  -0.005221   0.005116
    11  H    0.000040   0.000079  -0.000017   0.000055  -0.003699  -0.000933
    12  C   -0.000212  -0.000092  -0.000009   0.000013   0.005503   0.000075
    13  H   -0.000001  -0.000009  -0.000011  -0.000001   0.000142   0.000029
    14  H   -0.000048   0.000102   0.000001   0.000005  -0.000205  -0.000086
    15  C    0.000004   0.000000   0.000000   0.000000  -0.000221   0.000005
    16  H    0.000000   0.000000   0.000000   0.000000  -0.000006  -0.000015
    17  C    0.000000   0.000000   0.000000   0.000000   0.000003   0.000001
    18  H    0.000000   0.000000   0.000000   0.000000   0.000000   0.000000
    19  H    0.000000   0.000000   0.000000   0.000000   0.000000   0.000000
    20  H    0.000000   0.000000   0.000000   0.000000   0.000000   0.000001
    21  C   -0.053693   0.008104  -0.006223  -0.003027   0.333404  -0.049495
    22  H   -0.002839  -0.000587   0.005111  -0.001078  -0.037384   0.009251
    23  H    0.001396  -0.000512  -0.000979   0.004535  -0.065299  -0.005228
    24  C    0.000000   0.000000   0.000000   0.000000   0.000004   0.000002
    25  H    0.000000   0.000000   0.000000   0.000000   0.000000   0.000000
    26  H    0.000000   0.000000   0.000000   0.000000   0.000000  -0.000001
    27  H   -0.000001   0.000000   0.000000   0.000000   0.000038   0.000000
    28  O    0.003354  -0.000198  -0.000027   0.000037  -0.049897  -0.007899
    29  O   -0.000373  -0.000010  -0.000005  -0.000142  -0.011766   0.016114
    30  H   -0.000020   0.000004   0.000003   0.000004   0.000287  -0.000964
              7          8          9         10         11         12
     1  C   -0.064865  -0.006550   0.006250   0.000151   0.000040  -0.000212
     2  H    0.002733  -0.000319  -0.000121  -0.000134   0.000079  -0.000092
     3  H   -0.007977   0.004527   0.000052   0.000000  -0.000017  -0.000009
     4  H    0.009426  -0.000181  -0.000356  -0.000039   0.000055   0.000013
     5  C    0.328176  -0.045454  -0.051940  -0.005221  -0.003699   0.005503
     6  H   -0.050450   0.007276  -0.003855   0.005116  -0.000933   0.000075
     7  C    5.371978   0.401401   0.355662  -0.047819  -0.039758  -0.053877
     8  H    0.401401   0.580782  -0.043710   0.007069   0.001448  -0.006633
     9  C    0.355662  -0.043710   4.878494   0.404852   0.394789   0.362846
    10  H   -0.047819   0.007069   0.404852   0.606377  -0.038463  -0.041032
    11  H   -0.039758   0.001448   0.394789  -0.038463   0.574750  -0.033805
    12  C   -0.053877  -0.006633   0.362846  -0.041032  -0.033805   4.979276
    13  H   -0.004914   0.003755  -0.041555   0.009550  -0.008963   0.400614
    14  H    0.002523   0.000577  -0.041752  -0.008508   0.009347   0.406677
    15  C    0.005972   0.000233  -0.053210  -0.002639  -0.005787   0.371139
    16  H   -0.000121   0.000027  -0.007214   0.006127  -0.000693  -0.047735
    17  C   -0.000278  -0.000019   0.007505   0.000076  -0.000072  -0.066866
    18  H   -0.000004  -0.000007  -0.000074   0.000012   0.000036  -0.006899
    19  H    0.000015   0.000001  -0.000391  -0.000014   0.000018   0.008552
    20  H   -0.000064   0.000007   0.000080   0.000054  -0.000027  -0.005729
    21  C   -0.081104  -0.000754  -0.001161  -0.000569  -0.000248  -0.000297
    22  H   -0.003077   0.003325  -0.000002   0.000081  -0.000588  -0.000009
    23  H    0.011305  -0.000301  -0.000404  -0.000028   0.000449   0.000028
    24  C    0.000026  -0.000021  -0.005383  -0.000969   0.001484  -0.067062
    25  H    0.000012   0.000000   0.000103  -0.000148   0.000012   0.008234
    26  H   -0.000095  -0.000006  -0.000622   0.000062   0.000611  -0.006753
    27  H   -0.000158   0.000015   0.002406   0.000266   0.001330  -0.005884
    28  O    0.003441  -0.000314  -0.002260  -0.000275   0.013834   0.000056
    29  O   -0.001488  -0.000038   0.001915   0.000376  -0.000634   0.000018
    30  H    0.000134   0.000011  -0.000105   0.000010   0.000283  -0.000003
             13         14         15         16         17         18
     1  C   -0.000001  -0.000048   0.000004   0.000000   0.000000   0.000000
     2  H   -0.000009   0.000102   0.000000   0.000000   0.000000   0.000000
     3  H   -0.000011   0.000001   0.000000   0.000000   0.000000   0.000000
     4  H   -0.000001   0.000005   0.000000   0.000000   0.000000   0.000000
     5  C    0.000142  -0.000205  -0.000221  -0.000006   0.000003   0.000000
     6  H    0.000029  -0.000086   0.000005  -0.000015   0.000001   0.000000
     7  C   -0.004914   0.002523   0.005972  -0.000121  -0.000278  -0.000004
     8  H    0.003755   0.000577   0.000233   0.000027  -0.000019  -0.000007
     9  C   -0.041555  -0.041752  -0.053210  -0.007214   0.007505  -0.000074
    10  H    0.009550  -0.008508  -0.002639   0.006127   0.000076   0.000012
    11  H   -0.008963   0.009347  -0.005787  -0.000693  -0.000072   0.000036
    12  C    0.400614   0.406677   0.371139  -0.047735  -0.066866  -0.006899
    13  H    0.613221  -0.038656  -0.038716   0.010247  -0.004583   0.004870
    14  H   -0.038656   0.606679  -0.039913  -0.006462  -0.007420  -0.000530
    15  C   -0.038716  -0.039913   5.031941   0.409702   0.376416  -0.038207
    16  H    0.010247  -0.006462   0.409702   0.624480  -0.041642   0.009739
    17  C   -0.004583  -0.007420   0.376416  -0.041642   4.868352   0.401408
    18  H    0.004870  -0.000530  -0.038207   0.009739   0.401408   0.597727
    19  H   -0.000334   0.000212  -0.032323  -0.007005   0.401306  -0.031684
    20  H   -0.000439   0.004403  -0.033261  -0.006261   0.402081  -0.031500
    21  C   -0.000055   0.000049   0.000001   0.000000   0.000000   0.000000
    22  H    0.000019  -0.000012   0.000001   0.000000   0.000000   0.000000
    23  H    0.000002  -0.000004   0.000000   0.000000   0.000000   0.000000
    24  C   -0.009230   0.008921   0.359784  -0.047739  -0.066565  -0.006499
    25  H   -0.000249  -0.000398  -0.032444  -0.006529  -0.006508  -0.000621
    26  H    0.005480  -0.000057  -0.039700   0.009760  -0.005206   0.005154
    27  H   -0.000321  -0.000023  -0.031699  -0.005927   0.007689  -0.000146
    28  O    0.000014  -0.000006   0.000011   0.000003   0.000000   0.000000
    29  O   -0.000001  -0.000001  -0.000001  -0.000003   0.000000   0.000000
    30  H    0.000000   0.000000   0.000000   0.000000   0.000000   0.000000
             19         20         21         22         23         24
     1  C    0.000000   0.000000  -0.053693  -0.002839   0.001396   0.000000
     2  H    0.000000   0.000000   0.008104  -0.000587  -0.000512   0.000000
     3  H    0.000000   0.000000  -0.006223   0.005111  -0.000979   0.000000
     4  H    0.000000   0.000000  -0.003027  -0.001078   0.004535   0.000000
     5  C    0.000000   0.000000   0.333404  -0.037384  -0.065299   0.000004
     6  H    0.000000   0.000001  -0.049495   0.009251  -0.005228   0.000002
     7  C    0.000015  -0.000064  -0.081104  -0.003077   0.011305   0.000026
     8  H    0.000001   0.000007  -0.000754   0.003325  -0.000301  -0.000021
     9  C   -0.000391   0.000080  -0.001161  -0.000002  -0.000404  -0.005383
    10  H   -0.000014   0.000054  -0.000569   0.000081  -0.000028  -0.000969
    11  H    0.000018  -0.000027  -0.000248  -0.000588   0.000449   0.001484
    12  C    0.008552  -0.005729  -0.000297  -0.000009   0.000028  -0.067062
    13  H   -0.000334  -0.000439  -0.000055   0.000019   0.000002  -0.009230
    14  H    0.000212   0.004403   0.000049  -0.000012  -0.000004   0.008921
    15  C   -0.032323  -0.033261   0.000001   0.000001   0.000000   0.359784
    16  H   -0.007005  -0.006261   0.000000   0.000000   0.000000  -0.047739
    17  C    0.401306   0.402081   0.000000   0.000000   0.000000  -0.066565
    18  H   -0.031684  -0.031500   0.000000   0.000000   0.000000  -0.006499
    19  H    0.589971  -0.028552   0.000000   0.000000   0.000000  -0.005150
    20  H   -0.028552   0.589927   0.000000   0.000000   0.000000   0.008585
    21  C    0.000000   0.000000   4.844397   0.377646   0.384543   0.000001
    22  H    0.000000   0.000000   0.377646   0.576950  -0.024424   0.000000
    23  H    0.000000   0.000000   0.384543  -0.024424   0.620778   0.000000
    24  C   -0.005150   0.008585   0.000001   0.000000   0.000000   4.892455
    25  H    0.004193   0.000020   0.000000   0.000000   0.000000   0.401420
    26  H   -0.000650  -0.000199   0.000000   0.000000   0.000000   0.399784
    27  H    0.000007  -0.000522   0.000015  -0.000002  -0.000004   0.405217
    28  O    0.000000   0.000000   0.239541  -0.019962  -0.031698  -0.000010
    29  O    0.000000   0.000000  -0.062275   0.006420   0.006656  -0.000003
    30  H    0.000000   0.000000   0.000151  -0.001004   0.003855   0.000000
             25         26         27         28         29         30
     1  C    0.000000   0.000000  -0.000001   0.003354  -0.000373  -0.000020
     2  H    0.000000   0.000000   0.000000  -0.000198  -0.000010   0.000004
     3  H    0.000000   0.000000   0.000000  -0.000027  -0.000005   0.000003
     4  H    0.000000   0.000000   0.000000   0.000037  -0.000142   0.000004
     5  C    0.000000   0.000000   0.000038  -0.049897  -0.011766   0.000287
     6  H    0.000000  -0.000001   0.000000  -0.007899   0.016114  -0.000964
     7  C    0.000012  -0.000095  -0.000158   0.003441  -0.001488   0.000134
     8  H    0.000000  -0.000006   0.000015  -0.000314  -0.000038   0.000011
     9  C    0.000103  -0.000622   0.002406  -0.002260   0.001915  -0.000105
    10  H   -0.000148   0.000062   0.000266  -0.000275   0.000376   0.000010
    11  H    0.000012   0.000611   0.001330   0.013834  -0.000634   0.000283
    12  C    0.008234  -0.006753  -0.005884   0.000056   0.000018  -0.000003
    13  H   -0.000249   0.005480  -0.000321   0.000014  -0.000001   0.000000
    14  H   -0.000398  -0.000057  -0.000023  -0.000006  -0.000001   0.000000
    15  C   -0.032444  -0.039700  -0.031699   0.000011  -0.000001   0.000000
    16  H   -0.006529   0.009760  -0.005927   0.000003  -0.000003   0.000000
    17  C   -0.006508  -0.005206   0.007689   0.000000   0.000000   0.000000
    18  H   -0.000621   0.005154  -0.000146   0.000000   0.000000   0.000000
    19  H    0.004193  -0.000650   0.000007   0.000000   0.000000   0.000000
    20  H    0.000020  -0.000199  -0.000522   0.000000   0.000000   0.000000
    21  C    0.000000   0.000000   0.000015   0.239541  -0.062275   0.000151
    22  H    0.000000   0.000000  -0.000002  -0.019962   0.006420  -0.001004
    23  H    0.000000   0.000000  -0.000004  -0.031698   0.006656   0.003855
    24  C    0.401420   0.399784   0.405217  -0.000010  -0.000003   0.000000
    25  H    0.591102  -0.031525  -0.027743   0.000000   0.000000   0.000000
    26  H   -0.031525   0.596784  -0.030565   0.000000  -0.000001   0.000000
    27  H   -0.027743  -0.030565   0.575958  -0.000164   0.000076  -0.000007
    28  O    0.000000   0.000000  -0.000164   8.055835   0.072748  -0.025576
    29  O    0.000000  -0.000001   0.000076   0.072748   7.954900   0.284787
    30  H    0.000000   0.000000  -0.000007  -0.025576   0.284787   0.470509
 Mulliken atomic charges:
              1
     1  C   -0.280936
     2  H    0.115094
     3  H    0.099909
     4  H    0.102677
     5  C   -0.214877
     6  H    0.133337
     7  C   -0.136756
     8  H    0.093850
     9  C   -0.160837
    10  H    0.105681
    11  H    0.135122
    12  C   -0.200133
    13  H    0.100096
    14  H    0.104588
    15  C   -0.207089
    16  H    0.107268
    17  C   -0.265679
    18  H    0.097224
    19  H    0.101828
    20  H    0.101396
    21  C    0.071048
    22  H    0.112163
    23  H    0.095333
    24  C   -0.269052
    25  H    0.101072
    26  H    0.097744
    27  H    0.110148
    28  O   -0.250588
    29  O   -0.267273
    30  H    0.267641
 Sum of Mulliken atomic charges =   0.00000
 Mulliken charges with hydrogens summed into heavy atoms:
              1
     1  C    0.036744
     5  C   -0.081540
     7  C   -0.042906
     9  C    0.079966
    12  C    0.004552
    15  C   -0.099821
    17  C    0.034768
    21  C    0.278545
    24  C    0.039912
    28  O   -0.250588
    29  O    0.000367
 Sum of Mulliken charges with hydrogens summed into heavy atoms =   0.00000
          Atomic-Atomic Spin Densities.
              1          2          3          4          5          6
     1  C    0.025472  -0.004800   0.000474  -0.003701   0.013234   0.005411
     2  H   -0.004800   0.001668  -0.000472   0.002305  -0.002533  -0.001533
     3  H    0.000474  -0.000472  -0.000513  -0.000627   0.001617   0.000186
     4  H   -0.003701   0.002305  -0.000627   0.005243  -0.001155  -0.001256
     5  C    0.013234  -0.002533   0.001617  -0.001155  -0.065433   0.005956
     6  H    0.005411  -0.001533   0.000186  -0.001256   0.005956   0.016200
     7  C   -0.017720   0.008695  -0.000919   0.001160  -0.036184  -0.009617
     8  H    0.001180  -0.000266   0.000049  -0.000130   0.002429  -0.000017
     9  C    0.000556  -0.000388   0.000058  -0.000047  -0.000608   0.001947
    10  H    0.000496  -0.000305   0.000017  -0.000054   0.001373   0.002793
    11  H   -0.000257   0.000119  -0.000022   0.000034   0.000157  -0.001874
    12  C    0.000029  -0.000051   0.000003  -0.000002   0.000424   0.000190
    13  H    0.000015  -0.000016   0.000003  -0.000001   0.000063   0.000039
    14  H   -0.000081   0.000115  -0.000008   0.000006  -0.000233  -0.000156
    15  C    0.000000   0.000000   0.000000   0.000000   0.000001   0.000000
    16  H    0.000000   0.000000   0.000000   0.000000   0.000003   0.000003
    17  C    0.000000   0.000000   0.000000   0.000000   0.000000   0.000000
[...]
 536,-0.02177997,0.00528989,-0.00121320,0.00094321,0.00088016,0.0019877
 6,-0.00010922,-0.00057656,0.00157409,-0.15916496,0.03576992,-0.0000925
 7,-0.00061997,0.00074574,-0.00571494,-0.02381018,0.00752955,0.00139477
 ,0.00092486,0.00047879,0.00164594,0.00126954,-0.00002602,-0.00175983,-
 0.00072721,-0.00058912,-0.00002926,0.00007430,0.00003693,-0.00000855,-
 0.00001308,-0.00000075,0.00002924,0.00000418,0.00000628,0.00920122,0.4
 7589574,0.00003572,0.00003959,0.00003084,-0.00001238,0.00000040,-0.000
 00815,-0.00000507,-0.00000666,-0.00000808,0.00003585,-0.00001477,0.000
 00182,-0.00000718,-0.00005642,-0.00010996,0.00000802,0.00000316,0.0000
 0362,0.00004535,0.00003592,0.00016280,0.00000921,-0.00003444,0.0000056
 0,0.00015208,-0.00007374,-0.00027308,0.00010657,-0.00002647,0.00012902
 ,-0.00017662,-0.00020830,0.00043534,-0.00107281,-0.01006419,0.00468998
 ,0.00030148,-0.00140254,0.00082890,0.00250843,-0.00263777,-0.00039294,
 -0.00143189,0.03800467,-0.09530381,-0.00095380,0.03277284,-0.01373988,
 0.00133084,-0.00464218,0.00280463,-0.00039161,-0.00135404,0.00073616,0
 .00018958,0.00033831,-0.00013589,-0.00151989,-0.00193457,0.00033916,-0
 .00001046,-0.00000575,0.00010622,-0.00000244,-0.00001269,-0.00001151,0
 .00004561,0.00002136,-0.00000805,-0.00313566,0.04092223,0.53916164,-0.
 00003264,-0.00004237,-0.00001984,0.00001467,0.00000078,0.00000243,0.00
 000707,0.00000270,0.00000690,-0.00004082,0.00001522,-0.00000424,0.0000
 3548,0.00001210,0.00011140,-0.00000413,-0.00000054,-0.00000867,0.00006
 870,0.00013533,-0.00006554,-0.00006129,0.00002521,0.00002005,-0.000000
 42,-0.00012278,0.00032351,0.00000578,0.00002886,-0.00010809,0.00031573
 ,0.00036208,-0.00019947,0.00081210,-0.00040233,-0.00084113,0.00001880,
 -0.00010509,0.00007822,-0.00000504,0.00011729,0.00010619,-0.00164113,-
 0.00014529,0.00007114,0.00000682,0.00026374,-0.00047257,0.00070882,-0.
 00099640,-0.00007683,-0.00001856,-0.00001367,-0.00004120,0.00055282,0.
 00006432,0.00008500,0.00018705,0.00002186,-0.00019463,0.00002833,0.000
 03609,-0.00006914,0.00001542,0.00000132,0.00000285,-0.00005222,-0.0000
 3068,0.00000157,-0.21105774,0.10046851,0.07338000,0.22846889,0.0000235
 0,0.00002308,0.00000840,-0.00000991,0.00000539,-0.00000522,-0.00000516
 ,-0.00000281,-0.00000258,0.00002266,-0.00000834,0.00000302,0.00000613,
 -0.00003042,-0.00004141,0.00000565,-0.00000137,0.00000790,0.00019301,0
 .00023590,-0.00000943,-0.00005361,0.00000345,0.00004225,-0.00075744,-0
 .00019304,-0.00004205,0.00008457,0.00000493,0.00004057,0.00018007,0.00
 028451,-0.00013045,-0.00169977,-0.00537856,0.00372186,-0.00031058,0.00
 023209,0.00005414,0.00169293,-0.00117246,-0.00044315,0.02452643,-0.015
 36449,-0.01244655,-0.00013627,0.00117913,0.00028436,0.00157516,0.00114
 894,-0.00085887,-0.00009254,-0.00008519,-0.00000558,-0.00119764,-0.000
 10181,0.00033350,-0.00013259,0.00051212,0.00021669,0.00000731,-0.00007
 590,0.00003710,-0.00000565,0.00000134,-0.00000339,0.00002178,0.0000240
 1,-0.00000706,0.09911151,-0.10650194,-0.04462645,-0.11038200,0.1177357
 2,-0.00000420,-0.00000092,-0.00000258,0.00000006,-0.00000180,0.0000020
 7,-0.00000007,0.00000092,-0.00000063,0.00000038,0.00000103,0.00000077,
 -0.00000111,0.00000536,-0.00000014,-0.00000180,-0.00000029,0.00000001,
 0.00001323,-0.00000916,0.00000044,-0.00001101,0.00000818,-0.00000601,0
 .00006711,0.00014145,0.00013048,0.00001949,-0.00004599,0.00000763,0.00
 001096,-0.00006295,-0.00011400,0.00034645,0.00216398,-0.00078524,-0.00
 014848,0.00033008,0.00040068,-0.00043803,0.00042866,0.00057459,-0.0113
 9371,0.00697261,0.00424926,-0.00033815,-0.00067686,0.00052838,-0.00024
 919,-0.00043124,0.00017795,0.00017823,-0.00005390,-0.00006837,0.000027
 27,-0.00013768,0.00024613,-0.00025334,-0.00006120,-0.00009915,-0.00001
 271,0.00001563,-0.00001594,-0.00000486,0.00000235,0.00000288,0.0000023
 2,-0.00000226,0.00000567,0.07346959,-0.04539059,-0.07977307,-0.0810990
 1,0.04751784,0.08292129,-0.00000019,0.00000423,0.00000285,-0.00000211,
 -0.00000303,0.00000087,-0.00000237,0.00000265,0.00000057,0.00000597,-0
 .00000070,0.,-0.00001179,0.00000551,-0.00001043,0.00000768,-0.00000279
 ,0.00000925,0.00001642,-0.00000724,0.00002145,-0.00001985,0.00003988,0
 .00001743,-0.00018543,0.00010276,0.00006607,0.00009716,-0.00012664,0.0
 0015562,-0.00005879,-0.00008591,-0.00013717,0.00030179,-0.00027296,-0.
 00121428,0.00008897,0.00021429,0.00019115,-0.00001371,-0.00004500,0.00
 018760,-0.00127747,0.00019264,-0.00169013,0.00065549,0.00038543,-0.000
 11337,0.00017944,0.00011209,0.00107426,0.00023518,-0.00016605,-0.00012
 385,0.00000588,-0.00000229,0.00012115,-0.00008696,0.00008407,-0.000171
 32,-0.00000703,0.00001136,-0.00000912,-0.00001126,0.00000861,0.0000070
 5,0.00001117,0.00000025,0.00000494,-0.04878202,-0.00132334,-0.01864503
 ,0.00255296,0.00059646,0.02656584,0.04755475,-0.00000363,-0.00000559,0
 .00000084,0.00000152,0.00000045,0.00000147,0.00000180,0.00000175,0.000
 00032,-0.00000509,0.00000111,-0.00000137,0.00000964,-0.00000324,0.0000
 0014,-0.00000461,-0.00000265,0.00000135,0.00005491,0.00002672,-0.00000
 908,0.00001045,-0.00000475,0.00000253,0.00006816,-0.00000294,-0.000085
 11,-0.00016029,-0.00007511,-0.00005705,0.00005261,0.00000065,-0.000061
 43,-0.00068109,0.00194758,0.00115036,0.00020860,-0.00010304,-0.0009186
 7,-0.00030429,0.00027780,-0.00033659,0.00233199,0.00018654,0.03229415,
 0.00019303,-0.00569297,0.00268173,0.00090693,0.00164497,0.00071401,-0.
 00029284,0.00001714,-0.00073709,-0.00008827,-0.00010228,-0.00009521,0.
 00019839,0.00021694,-0.00036448,0.00000383,0.00000289,-0.00001003,0.00
 000109,0.00000613,0.00000205,-0.00000594,-0.00000354,-0.00000016,-0.00
 127230,-0.04695999,-0.01316843,-0.00231068,-0.00142473,-0.01548462,0.0
 0094742,0.05133006,-0.00001405,-0.00001334,-0.00000837,0.00000329,-0.0
 0000637,0.00000088,-0.00000055,0.00000495,0.00000784,-0.00001022,0.000
 00630,-0.00000221,-0.00000645,0.00002757,0.00001675,0.00000914,0.00000
 143,0.00000961,-0.00000843,-0.00004867,-0.00001586,-0.00002876,0.00004
 493,0.00001877,-0.00016411,0.00020061,0.00007433,0.00014127,-0.0000645
 5,0.00013078,-0.00006807,-0.00000290,-0.00018681,0.00055776,-0.0009665
 3,0.00058309,-0.00066662,0.00063651,0.00068147,0.00003410,0.00003411,0
 .00040291,-0.00130690,0.00022939,-0.01515692,0.00006848,0.00300326,0.0
 0054497,-0.00033483,-0.00082552,0.00054350,0.00063942,0.00050845,0.000
 50636,-0.00003395,0.00002605,-0.00003826,0.00005414,0.00008560,0.00042
 691,0.00000286,0.00003490,-0.00003975,-0.00000536,0.00000870,0.0000113
 4,-0.00000844,-0.00001091,0.00000541,-0.01858846,-0.01275956,-0.297530
 24,-0.00095094,-0.00077174,-0.01079191,0.02104956,0.01128123,0.3266195
 0,0.00001528,0.00000609,0.00000213,-0.00000225,0.00000317,-0.00000320,
 -0.00000246,-0.00000018,0.00000201,0.00000752,-0.00000440,0.00000199,0
 .00002006,-0.00004492,-0.00001690,-0.00000026,-0.00000019,0.00000278,0
 .00018913,0.00015358,-0.00000774,-0.00003642,-0.00000296,0.00002854,-0
 .00098859,0.00079887,0.00003137,0.00005166,-0.00011740,-0.00000819,-0.
 00095141,0.00139118,-0.00017123,-0.00004452,-0.00017224,0.00039503,-0.
 00002613,0.00005584,0.00002657,0.00010381,-0.00016140,-0.00009265,0.00
 213327,0.00148696,0.00114215,0.00031169,-0.00042317,0.00050680,0.00069
 526,-0.00011244,0.00064337,0.00000656,0.00015775,-0.00001539,0.0004097
 7,0.00015638,-0.00017969,0.00010578,-0.00005597,-0.00022317,-0.0000004
 4,-0.00002590,0.00001579,-0.00000658,0.00000509,0.00000039,0.00000720,
 0.00000147,-0.00000186,-0.22217942,-0.11290757,-0.05084660,-0.02078998
 ,-0.01326183,-0.00676080,-0.00126630,0.00015412,-0.00035566,0.24219611
 ,-0.00003371,-0.00004392,-0.00002244,0.00001275,0.00000395,-0.00000291
 ,0.00000458,0.00000293,0.00001144,-0.00003984,0.00001703,-0.00000445,0
 .00005829,-0.00000155,0.00012924,0.00000343,-0.00000224,-0.00000090,0.
 00034377,0.00037592,-0.00012029,-0.00014249,0.00006596,0.00008379,-0.0
 0019369,-0.00058055,0.00034213,0.00007096,-0.00008922,0.00004598,0.001
 50555,0.00023371,-0.00035572,-0.00097493,0.00075189,-0.00039835,0.0000
 8132,-0.00008254,0.00001286,0.00000257,0.00018619,0.00012874,-0.025251
 04,-0.01395952,-0.00891729,0.00025646,0.00137045,0.00014017,0.00202715
 ,-0.00547785,0.00326039,0.00030822,0.00017585,-0.00006143,-0.00004674,
 0.00024461,0.00017729,-0.00178023,-0.00107863,-0.00020565,0.00003022,-
 0.00000848,-0.00007627,0.00001790,0.00000576,0.00000445,-0.00005567,-0
 .00002325,-0.00000064,-0.11133993,-0.11928427,-0.03186693,0.01301802,0
 .00888457,0.00478686,-0.00066205,-0.00127543,-0.00063548,0.12288371,0.
 12959019,-0.00000019,-0.00000635,-0.00001237,0.00000261,0.00000645,-0.
 00000029,0.00000171,-0.00000274,0.00000029,-0.00000830,0.00000171,0.00
 000173,0.00000800,0.00000609,0.00004186,-0.00000898,0.00000156,-0.0000
 1018,0.00002673,0.00010806,-0.00012356,-0.00000176,-0.00002361,0.00000
 092,-0.00026151,-0.00024108,0.00042965,-0.00002685,0.00015255,-0.00025
 980,0.00015323,0.00031227,0.00014195,-0.00028243,-0.00065858,0.0001546
 8,-0.00010190,-0.00005080,-0.00000034,0.00013426,-0.00002927,-0.000065
 46,0.01231187,0.00640387,0.00239186,0.00037484,-0.00066660,0.00052210,
 -0.00041191,0.00246929,-0.00076086,0.00021850,0.00033012,0.00034850,-0
 .00035102,-0.00006370,-0.00006665,0.00055389,0.00069562,0.00056484,0.0
 0001741,-0.00005877,-0.00001346,0.00001145,-0.00000626,-0.00000663,-0.
 00001897,0.00000591,-0.00000598,-0.05077881,-0.03258086,-0.06210290,0.
 00995294,0.00713512,0.00239764,-0.02738816,-0.01681413,-0.00685082,0.0
 5588120,0.03351973,0.06330764,-0.00068536,-0.00170076,0.00069453,0.000
 54483,-0.00038261,0.00022804,-0.00006952,-0.00001326,0.00010908,0.0005
 7733,-0.00051481,0.00047791,0.01149481,-0.00301549,-0.00167746,0.00022
 922,0.00035644,-0.00028002,0.00010518,0.00112596,-0.00072899,0.0001759
 4,-0.00019046,-0.00000399,-0.00162765,0.00037220,-0.00021964,0.0000683
 9,-0.00006974,0.00012433,0.00035867,-0.00191562,0.00048668,0.00035850,
 -0.00086164,0.00054419,-0.00004017,0.00003033,-0.00008019,-0.00044610,
 -0.00020050,-0.00008196,0.00010725,-0.00006565,-0.00008819,0.00000564,
 0.00000833,0.00000515,-0.00002079,0.00004153,0.00003397,0.00000287,-0.
 00000357,-0.00001759,-0.00005096,0.00001469,0.00000335,0.00000810,-0.0
 0001610,0.00000027,-0.09642709,0.05297138,-0.03014908,-0.00032428,0.00
 020633,0.00088013,-0.01791120,0.04152635,-0.00126562,0.00004576,0.0000
 5977,0.00005608,-0.00007085,0.00000545,0.00001183,0.00001265,-0.000010
 31,-0.00000883,-0.00000549,-0.00007335,-0.00002380,0.13100986,-0.00690
 439,-0.00400712,0.00605619,0.00189689,-0.00252418,-0.00027984,-0.00004
 112,0.00008076,-0.00051568,0.00020602,0.00050630,-0.00007586,0.0150160
 5,-0.04173742,-0.00009687,0.00083152,0.00227175,-0.00115829,0.00373077
 ,0.00237435,0.00061833,-0.00027672,-0.00028651,-0.00003087,-0.00089979
 ,-0.00091795,-0.00041870,0.00000675,-0.00000010,0.00000966,-0.00036698
 ,-0.00030229,0.00030739,-0.00013765,0.00027192,0.00030039,-0.00001350,
 -0.00003389,-0.00004622,0.00003951,0.00003921,-0.00002936,-0.00000209,
 -0.00020049,-0.00008775,-0.00000152,0.00001378,-0.00001038,-0.00006288
 ,0.00010328,0.00003280,0.00000477,-0.00001483,-0.00001334,-0.00007037,
 -0.00000116,0.00000753,0.00003150,0.00002874,-0.00001171,0.06508698,-0
 .16660392,0.04648388,0.00692075,-0.01447591,-0.00594256,0.01476318,-0.
 01350356,-0.00191716,-0.00010971,-0.00001182,0.00002672,-0.00003023,0.
 00004628,-0.00001397,-0.00002150,-0.00001552,-0.00003991,0.00002459,-0
 .00001753,0.00004256,-0.08386255,0.32809126,0.00302724,0.00275994,-0.0
 0317321,-0.00047594,0.00158106,0.00042880,0.00001154,0.00025639,0.0002
 7093,0.00028204,-0.00036349,0.00008501,-0.01176664,0.01673887,0.003201
 84,-0.00075699,-0.00078148,-0.00025914,-0.00106150,-0.00091991,0.00018
 919,0.00004652,0.00007040,0.00003535,0.00033886,0.00026642,0.00037663,
 0.00005495,0.00001712,-0.00009904,0.00001489,0.00010283,0.00014273,0.0
 0004524,-0.00004627,-0.00020497,-0.00001311,0.00000222,0.00001211,0.00
 000495,-0.00001305,0.00001124,-0.00000588,0.00007494,0.00002569,-0.000
 00011,-0.00000239,0.00000535,0.00002214,-0.00003930,-0.00001173,-0.000
 00196,0.00000515,0.00000573,0.00002421,0.00000080,-0.00000268,-0.00001
 291,-0.00001358,0.00000425,-0.01307074,0.00576809,-0.07950262,0.014909
 14,-0.03282064,-0.00466071,-0.00702859,0.01192473,-0.00012596,0.000057
 96,0.00000408,-0.00001287,0.00000895,-0.00001751,0.00000247,0.00000378
 ,0.00000290,0.00001249,-0.00002230,0.00000911,-0.00001240,0.05630009,0
 .04566521,0.28705647,-0.00010349,-0.00022559,0.00025693,0.00002471,-0.
 00005838,0.00002695,-0.00003267,0.00000326,0.00006457,0.00003395,-0.00
 003690,-0.00001096,0.00057565,-0.00161840,-0.00144336,-0.00001950,0.00
 002426,-0.00032532,-0.00018230,-0.00006095,0.00003012,0.00006767,0.000
 03166,0.00000818,0.00007046,0.00016591,-0.00004700,-0.00008259,0.00001
 556,-0.00002877,-0.00009942,-0.00012442,-0.00005278,0.00007978,-0.0000
 5115,-0.00002983,-0.00000084,0.00002081,-0.00000126,-0.00003046,-0.000
 04253,0.00001545,-0.00000707,0.00005358,-0.00002822,0.00000618,0.00000
 028,0.00000388,0.00002300,-0.00002885,0.00001036,-0.00000041,0.0000045
 5,-0.00000418,0.00000035,0.00000821,-0.00000037,-0.00001282,-0.0000277
 3,0.00000449,-0.00067799,0.00574742,0.01708511,0.00019609,0.00361004,0
 .00095537,0.00372527,-0.00212112,0.00266697,0.00013001,0.00006193,0.00
 002946,-0.00002876,-0.00001564,0.00000902,0.00000177,-0.00000873,0.000
 00194,0.00001661,-0.00002827,-0.00001033,-0.02891506,-0.01866573,-0.03
 880935,0.20190165,0.00014254,0.00060521,-0.00061599,-0.00007730,0.0001
 2118,0.00020410,0.00003996,0.00007845,0.00003649,0.00000144,0.00004574
 ,-0.00000145,-0.00121152,0.00043327,0.00121368,-0.00028681,-0.00194078
 ,-0.00080925,0.00025806,-0.00083958,-0.00025623,-0.00018220,0.00016631
 ,-0.00005493,0.00011778,-0.00023125,0.00020048,-0.00006100,-0.00003885
 ,0.00002387,-0.00024370,0.00008912,-0.00030952,0.00000892,0.00025248,-
 0.00003423,0.00001437,-0.00001513,0.00002312,0.00007643,0.00005516,0.0
 0000444,0.00004558,-0.00012214,-0.00001309,-0.00000448,0.00000513,0.00
 001595,-0.00003981,0.00007235,-0.00000179,0.00000897,-0.00000915,0.000
 00572,-0.00004172,-0.00000246,0.00000643,0.00002487,0.00002683,-0.0000
 0911,-0.00395403,-0.01527469,-0.05144671,0.00285560,-0.00770394,0.0010
 6240,-0.00165780,0.00343371,0.00204548,-0.00015866,-0.00003485,-0.0000
 2253,-0.00002387,0.00003146,0.00000007,0.00002187,0.00000950,0.0000109
 4,0.00004309,-0.00001877,0.00000789,-0.00009994,-0.08170612,-0.0517555
 9,0.24274671,0.41512307,-0.00008192,0.00049698,0.00004930,-0.00007483,
 -0.00005440,0.00003577,0.00003835,0.00024774,-0.00001429,0.00006150,-0
 .00001232,-0.00004509,0.00039692,0.00217085,0.00288282,-0.00079160,-0.
 00054027,0.00122874,0.00008356,-0.00058146,0.00002673,0.00003765,0.000
 18985,0.00000239,0.00039650,0.00000476,-0.00003949,-0.00008118,-0.0001
 2123,0.00017440,-0.00027831,0.00007622,-0.00040782,-0.00003320,0.00017
 391,-0.00001369,0.00004512,0.00001933,0.00005185,0.00005707,0.00002764
 ,0.00001557,0.00000860,-0.00004161,-0.00003513,-0.00001354,-0.00000469
 ,0.00003476,-0.00001378,0.00002399,0.00000362,0.00000929,-0.00000027,0
 .00000936,-0.00002123,0.00000282,0.00000267,0.00000833,0.00000200,-0.0
 0000395,0.00626743,-0.01374444,-0.01846009,0.00116319,-0.00263845,0.00
 449539,0.00021030,0.00214970,0.00224415,-0.00007093,-0.00000947,-0.000
 01111,-0.00002544,0.00001137,0.00000962,0.00002998,0.00001435,0.000029
 70,0.00002995,-0.00000368,-0.00003181,-0.00229272,-0.04324175,-0.19016
 062,-0.06497562,-0.00510573,0.25697899,0.00021264,0.00012421,-0.000131
 01,-0.00004078,0.00006724,-0.00001381,-0.00000924,-0.00002130,-0.00001
 680,-0.00006230,0.00002167,-0.00001241,-0.00052463,0.00038568,0.000100
 43,-0.00003883,-0.00019071,0.00005215,-0.00016283,0.00001266,0.0000853
 1,0.00000677,-0.00000448,-0.00001121,-0.00003510,-0.00006757,0.0001032
 8,0.00003609,0.00004883,-0.00008100,0.00000325,-0.00001386,0.00002483,
 0.00003811,0.00000797,-0.00003326,-0.00001922,-0.00001617,-0.00000849,
 -0.00000062,0.00002054,-0.00000503,0.00002928,-0.00004492,0.00002454,0
 .00000140,0.00000302,-0.00000575,-0.00001611,0.00002709,-0.00001021,0.
 00000020,-0.00000410,0.00000340,-0.00000547,-0.00000563,0.00000128,0.0
 0001009,0.00002013,-0.00000357,0.00223115,0.00058776,0.00155450,-0.000
 51427,0.00066092,0.00018491,-0.00091522,0.00026619,-0.00006206,-0.0000
 7561,-0.00001727,-0.00002285,0.00000414,0.00000800,-0.00000535,-0.0000
 0200,0.00000355,-0.00000136,0.00003055,-0.00000298,0.00002626,0.001489
 53,0.00290743,-0.00212649,-0.17665979,-0.23836335,0.05991055,0.1749888
 2,0.00013524,-0.00001308,-0.00030119,-0.00000381,0.00012221,0.00000872
 ,0.00001102,-0.00006666,0.00006998,0.00003157,-0.00006391,0.00003731,0
 .00006732,0.00044131,-0.00003444,0.00002458,0.00008488,-0.00027998,-0.
 00003908,0.00016681,-0.00021250,0.00000840,-0.00005617,0.00005325,0.00
 004616,-0.00005141,0.00015431,0.00000041,0.00000685,-0.00003629,-0.000
 11479,0.00001294,-0.00002720,-0.00002475,-0.00002336,-0.00006470,-0.00
 000042,-0.00000008,0.00000348,0.00001727,0.00000428,0.00000511,-0.0000
 2818,0.00006306,0.00002727,0.00000049,-0.00000379,-0.00000550,0.000019
 94,-0.00003635,-0.00000782,-0.00000404,0.00000476,0.00000195,0.0000288
 8,-0.00000161,-0.00000432,-0.00001148,-0.00000868,0.00000416,-0.001345
 24,-0.00362269,-0.00175792,0.00035952,-0.00003375,0.00004639,0.0003134
 4,-0.00051663,-0.00024274,0.00003917,-0.00001186,-0.00000633,0.0000325
 1,-0.00001186,-0.00000158,-0.00001004,0.00000154,0.00000055,-0.0000313
 1,0.00003475,0.00000397,-0.00372239,-0.00746733,0.00152294,-0.22937980
 ,-0.31261127,0.06048825,0.23357943,0.32365710,0.00013683,-0.00011100,0
 .00032687,0.00002647,0.00000251,0.00002818,-0.00009291,0.00012772,0.00
 005468,-0.00005370,0.00001008,-0.00000610,0.00006047,0.00031556,-0.001
 10110,0.00001532,-0.00008442,0.00060017,-0.00005282,-0.00006903,0.0000
 1925,0.00004301,0.00005151,0.00006425,0.00010401,-0.00005285,0.0000250
 9,-0.00007988,-0.00007441,0.00009454,-0.00002401,0.00002170,-0.0001744
 7,-0.00006670,0.00003624,0.00000483,0.00002768,0.00000782,0.00001524,0
 .00003194,0.00002652,0.00000202,-0.00001142,0.00001370,0.00003177,-0.0
 0000436,0.00000112,-0.00000983,0.00000396,-0.00000893,-0.00000857,-0.0
 0000201,-0.00000016,0.00000022,0.00001638,-0.00000459,-0.00000098,-0.0
 0000166,0.00000753,0.00000049,-0.00314010,-0.00001607,-0.00523517,0.00
 059646,-0.00101483,0.00016914,0.00042733,0.00030145,0.00086786,-0.0000
 1481,-0.00001029,-0.00001417,0.00002560,-0.00000267,-0.00000091,-0.000
 00654,-0.00000397,-0.00000548,-0.00000470,0.00002024,0.00001986,-0.023
 03757,-0.04562044,-0.01364031,0.08459853,0.10557509,-0.05905274,-0.059
 52081,-0.05944513,0.07692536\\-0.00000049,-0.00000056,-0.00000064,-0.0
 0000147,-0.00000227,-0.00000270,-0.00000018,-0.00000012,-0.00000167,-0
 .00000119,-0.00000202,-0.00000055,-0.00000153,-0.00000487,0.00000178,-
 0.00000037,-0.00000263,0.00000048,-0.00000048,0.00000045,-0.00000032,0
 .00000068,0.00000082,-0.00000150,-0.00000152,0.00000085,-0.00000097,-0
 .00000056,-0.00000189,0.00000018,0.00000043,0.00000062,0.00000176,0.00
 000047,0.00000074,-0.00000105,0.00000034,0.00000238,-0.00000164,-0.000
 00060,-0.00000005,-0.00000315,-0.00000027,0.00000011,-0.00000118,-0.00
 000040,-0.00000118,-0.00000096,-0.00000050,0.00000106,-0.00000307,0.00
 000022,0.00000261,-0.00000312,-0.00000035,0.00000080,-0.00000258,-0.00
 000072,0.00000047,-0.00000430,0.00000215,0.00000428,0.00000104,0.00000
 023,0.00000096,0.00000209,-0.00000081,-0.00000080,0.00000327,0.0000009
 1,0.00000092,0.00000083,0.00000065,0.00000088,0.00000126,0.00000121,0.
 00000267,0.00000090,0.00000120,0.00000035,0.00000232,0.00000215,-0.000
 00151,-0.00000293,0.00000062,-0.00000062,0.00001210,0.00000017,-0.0000
 0247,0.00000432\\\@


 SIGN SEEN IN A RESTAURANT-
 WE RESERVE THE RIGHT TO SERVE REFUSE TO ANYONE.
 Job cpu time:  0 days  2 hours 34 minutes 27.1 seconds.
 File lengths (MBytes):  RWF=    555 Int=      0 D2E=      0 Chk=     10 Scr=      1
 Normal termination of Gaussian 09 at Mon Jun  1 01:24:27 2015.
