 Entering Gaussian System, Link 0=g09
 Initial command:
 /usr/caen/gaussian-09revc/g09/l1.exe /scratch/avioli_flux/hetanjin/scratch/Gau-20372.inp -scrdir=/scratch/avioli_flux/hetanjin/scratch/
 Entering Link 1 = /usr/caen/gaussian-09revc/g09/l1.exe PID=     20373.
  
 Copyright (c) 1988,1990,1992,1993,1995,1998,2003,2009,2011,
            Gaussian, Inc.  All Rights Reserved.
  
 This is part of the Gaussian(R) 09 program.  It is based on
 the Gaussian(R) 03 system (copyright 2003, Gaussian, Inc.),
 the Gaussian(R) 98 system (copyright 1998, Gaussian, Inc.),
 the Gaussian(R) 94 system (copyright 1995, Gaussian, Inc.),
 the Gaussian 92(TM) system (copyright 1992, Gaussian, Inc.),
 the Gaussian 90(TM) system (copyright 1990, Gaussian, Inc.),
 the Gaussian 88(TM) system (copyright 1988, Gaussian, Inc.),
 the Gaussian 86(TM) system (copyright 1986, Carnegie Mellon
 University), and the Gaussian 82(TM) system (copyright 1983,
 Carnegie Mellon University). Gaussian is a federally registered
 trademark of Gaussian, Inc.
  
 This software contains proprietary and confidential information,
 including trade secrets, belonging to Gaussian, Inc.
  
 This software is provided under written license and may be
 used, copied, transmitted, or stored only in accord with that
 written license.
  
 The following legend is applicable only to US Government
 contracts under FAR:
  
                    RESTRICTED RIGHTS LEGEND
  
 Use, reproduction and disclosure by the US Government is
 subject to restrictions as set forth in subparagraphs (a)
 and (c) of the Commercial Computer Software - Restricted
 Rights clause in FAR 52.227-19.
  
 Gaussian, Inc.
 340 Quinnipiac St., Bldg. 40, Wallingford CT 06492
  
  
 ---------------------------------------------------------------
 Warning -- This program may not be used in any manner that
 competes with the business of Gaussian, Inc. or will provide
 assistance to any competitor of Gaussian, Inc.  The licensee
 of this program is prohibited from giving any competitor of
 Gaussian, Inc. access to this program.  By using this program,
 the user acknowledges that Gaussian, Inc. is engaged in the
 business of creating and licensing software in the field of
 computational chemistry and represents and warrants to the
 licensee that it is not a competitor of Gaussian, Inc. and that
 it will not use this program in any manner prohibited above.
 ---------------------------------------------------------------
  

 Cite this work as:
 Gaussian 09, Revision C.01,
 M. J. Frisch, G. W. Trucks, H. B. Schlegel, G. E. Scuseria, 
 M. A. Robb, J. R. Cheeseman, G. Scalmani, V. Barone, B. Mennucci, 
 G. A. Petersson, H. Nakatsuji, M. Caricato, X. Li, H. P. Hratchian, 
 A. F. Izmaylov, J. Bloino, G. Zheng, J. L. Sonnenberg, M. Hada, 
 M. Ehara, K. Toyota, R. Fukuda, J. Hasegawa, M. Ishida, T. Nakajima, 
 Y. Honda, O. Kitao, H. Nakai, T. Vreven, J. A. Montgomery, Jr., 
 J. E. Peralta, F. Ogliaro, M. Bearpark, J. J. Heyd, E. Brothers, 
 K. N. Kudin, V. N. Staroverov, T. Keith, R. Kobayashi, J. Normand, 
 K. Raghavachari, A. Rendell, J. C. Burant, S. S. Iyengar, J. Tomasi, 
 M. Cossi, N. Rega, J. M. Millam, M. Klene, J. E. Knox, J. B. Cross, 
 V. Bakken, C. Adamo, J. Jaramillo, R. Gomperts, R. E. Stratmann, 
 O. Yazyev, A. J. Austin, R. Cammi, C. Pomelli, J. W. Ochterski, 
 R. L. Martin, K. Morokuma, V. G. Zakrzewski, G. A. Voth, 
 P. Salvador, J. J. Dannenberg, S. Dapprich, A. D. Daniels, 
 O. Farkas, J. B. Foresman, J. V. Ortiz, J. Cioslowski, 
 and D. J. Fox, Gaussian, Inc., Wallingford CT, 2010.
 
 ******************************************
 Gaussian 09:  EM64L-G09RevC.01 23-Sep-2011
                14-Feb-2014 
 ******************************************
 %mem=30GB
 %nprocshared=8
 Will use up to    8 processors via shared memory.
 %chk=TS_1_1b.chk
 ----------------------------------------------
 #p opt=(calcfc,qst3) freq ub3lyp/6-311++g(d,p)
 ----------------------------------------------
 1/5=1,10=4,14=-1,18=20,26=3,27=203,38=1/1,3;
 2/9=110,12=2,17=6,18=5,40=1/2;
 3/5=4,6=6,7=1111,11=2,16=1,25=1,30=1,71=2,74=-5,116=2/1,2,3;
 4//1;
 5/5=2,38=5/2;
 8/6=4,10=90,11=11/1;
 11/6=1,8=1,9=11,15=111,16=1/1,2,10;
 10/6=1,7=6,13=1/2;
 6/7=2,8=2,9=2,10=2,28=1/1;
 7/10=1,18=20,25=1/1,2,3,16;
 1/5=1,10=4,14=-1,18=20,27=203/3(2);
 2/9=110/2;
 99//99;
 2/9=110/2;
 3/5=4,6=6,7=1111,11=2,16=1,25=1,30=1,71=1,74=-5,116=2/1,2,3;
 4/5=5,16=3/1;
 5/5=2,38=5/2;
 7//1,2,3,16;
 1/5=1,14=-1,18=20,27=203/3(-5);
 2/9=110/2;
 6/7=2,8=2,9=2,10=2,19=2,28=1/1;
 99/9=1/99;
 Leave Link    1 at Fri Feb 14 00:11:48 2014, MaxMem= 4026531840 cpu:       0.7
 (Enter /usr/caen/gaussian-09revc/g09/l101.exe)
 --------------------------------------------------------
 TS_1_1b using B3LYP/6-311++g(d,p) to find TS | reactants
 --------------------------------------------------------
 Charge =  0 Multiplicity = 2
 Symbolic Z-Matrix:
 C                    -3.17301  -1.66954  -0.19397 
 H                    -2.87617  -2.71161  -0.33638 
 H                    -3.39945  -1.24766  -1.17651 
 H                    -4.09526  -1.66148   0.39469 
 C                    -2.05413  -0.87986   0.50238 
 H                    -1.87109  -1.34161   1.4836 
 C                    -0.73961  -0.93993  -0.29882 
 H                    -0.55589  -1.99184  -0.54858 
 H                    -0.8744   -0.42299  -1.25598 
 C                     0.49652  -0.37953   0.41648 
 H                     0.59872  -0.86202   1.39833 
 H                     0.35867   0.68881   0.60351 
 C                     1.78599  -0.59801  -0.38576 
 H                     1.69941  -0.08941  -1.35556 
 H                     1.88007  -1.66787  -0.61185 
 C                     3.08034  -0.13145   0.30742 
 H                     3.12047  -0.61431   1.29398 
 C                     4.31064  -0.59099  -0.48791 
 H                     4.31678  -0.14434  -1.48839 
 H                     5.23878  -0.29712   0.0113 
 H                     4.3251   -1.67831  -0.60927 
 C                    -2.50965   0.54486   0.83292 
 H                    -3.43268   0.53048   1.41751 
 H                    -1.74913   1.12829   1.35099 
 C                     3.11823   1.38842   0.52354 
 H                     4.04969   1.68942   1.01217 
 H                     3.05973   1.91767  -0.43412 
 H                     2.29233   1.73843   1.1474 
 O                    -2.87034   1.29134  -0.37199 
 O                    -1.87685   2.03035  -0.82733 
 
 --------
 products
 --------
 Charge =  0 Multiplicity = 2
 Symbolic Z-Matrix:
 C                    -3.11827  -1.73729  -0.22453 
 H                    -3.05757  -2.81611  -0.3064 
 H                    -2.1515    2.72059  -0.88844 
 H                    -3.87268  -1.2197   -0.80351 
 C                    -2.0435   -0.97707   0.48194 
 H                    -1.82139  -1.48858   1.43268 
 C                    -0.71799  -0.991    -0.33528 
 H                    -0.51111  -2.03419  -0.60114 
 H                    -0.87325  -0.45516  -1.27534 
 C                     0.49958  -0.41586   0.40026 
 H                     0.60631  -0.91341   1.37428 
 H                     0.33472   0.64509   0.60594 
 C                     1.79912  -0.59074  -0.39648 
 H                     1.70629  -0.07165  -1.36021 
 H                     1.92136  -1.65456  -0.63654 
 C                     3.07736  -0.10194   0.31168 
 H                     3.12073  -0.59333   1.29379 
 C                     4.32471  -0.52417  -0.47774 
 H                     4.32818  -0.06785  -1.4739 
 H                     5.24189  -0.21373   0.03182 
 H                     4.36542  -1.60953  -0.60956 
 C                    -2.53181   0.42242   0.88959 
 H                    -3.40538   0.32143   1.54213 
 H                    -1.76338   0.98713   1.42534 
 C                     3.07845   1.41614   0.54361 
 H                     3.99796   1.7341    1.0442 
 H                     3.01715   1.95319  -0.40975 
 H                     2.23841   1.73967   1.163 
 O                    -3.04324   1.22008  -0.17892 
 O                    -1.91029   1.78412  -0.90942 
 
 ------------
 intermediate
 ------------
 Charge =  0 Multiplicity = 2
 Symbolic Z-Matrix:
 C                     2.94091  -1.35619   0.7675 
 H                     2.68548  -1.90219   1.67191 
 H                     3.07248   0.92797   1.2608 
 H                     3.99418  -1.27937   0.51123 
 C                     1.89006  -1.05265  -0.25476 
 H                     1.89942  -1.86533  -1.01076 
 C                     0.48103  -1.01654   0.3774 
 H                     0.35737  -1.92217   0.9874 
 H                     0.42804  -0.16797   1.07183 
 C                    -0.68491  -0.9279   -0.61689 
 H                    -0.60784  -1.75573  -1.33521 
 H                    -0.59244  -0.00985  -1.20982 
 C                    -2.07586  -0.95265   0.06821 
 H                    -1.95119  -0.99802   1.16043 
 H                    -2.60431  -1.87441  -0.20793 
 C                    -2.97733   0.25428  -0.26429 
 H                    -3.01354   0.35041  -1.36088 
 C                    -4.41053   0.01956   0.23355 
 H                    -4.43081  -0.10577   1.32425 
 H                    -5.06155   0.86654  -0.01372 
 H                    -4.84758  -0.88185  -0.21285 
 C                     2.21821   0.22789  -1.057 
 H                     3.2251    0.17613  -1.48893 
 H                     1.49763   0.36687  -1.87057 
 C                    -2.41248   1.56279   0.31016 
 H                    -3.02368   2.42205   0.00961 
 H                    -2.40416   1.52955   1.40781 
 H                    -1.38599   1.7548   -0.02257 
 O                     2.09203   1.42303  -0.29168 
 O                     3.27659   1.55408   0.53477 
 
 NAtoms=     30 NQM=        0 NQMF=       0 NMMI=     30 NMMIF=      0
                NMic=       0 NMicF=      0.
                    Isotopes and Nuclear Properties:
 (Nuclear quadrupole moments (NQMom) in fm**2, nuclear magnetic moments (NMagM)
  in nuclear magnetons)

  Atom         1           2           3           4           5           6           7           8           9          10
 IAtWgt=          12           1           1           1          12           1          12           1           1          12
 AtmWgt=  12.0000000   1.0078250   1.0078250   1.0078250  12.0000000   1.0078250  12.0000000   1.0078250   1.0078250  12.0000000
 NucSpn=           0           1           1           1           0           1           0           1           1           0
 AtZEff=   0.0000000   0.0000000   0.0000000   0.0000000   0.0000000   0.0000000   0.0000000   0.0000000   0.0000000   0.0000000
 NQMom=    0.0000000   0.0000000   0.0000000   0.0000000   0.0000000   0.0000000   0.0000000   0.0000000   0.0000000   0.0000000
 NMagM=    0.0000000   2.7928460   2.7928460   2.7928460   0.0000000   2.7928460   0.0000000   2.7928460   2.7928460   0.0000000

  Atom        11          12          13          14          15          16          17          18          19          20
 IAtWgt=           1           1          12           1           1          12           1          12           1           1
 AtmWgt=   1.0078250   1.0078250  12.0000000   1.0078250   1.0078250  12.0000000   1.0078250  12.0000000   1.0078250   1.0078250
 NucSpn=           1           1           0           1           1           0           1           0           1           1
 AtZEff=   0.0000000   0.0000000   0.0000000   0.0000000   0.0000000   0.0000000   0.0000000   0.0000000   0.0000000   0.0000000
 NQMom=    0.0000000   0.0000000   0.0000000   0.0000000   0.0000000   0.0000000   0.0000000   0.0000000   0.0000000   0.0000000
 NMagM=    2.7928460   2.7928460   0.0000000   2.7928460   2.7928460   0.0000000   2.7928460   0.0000000   2.7928460   2.7928460

  Atom        21          22          23          24          25          26          27          28          29          30
 IAtWgt=           1          12           1           1          12           1           1           1          16          16
 AtmWgt=   1.0078250  12.0000000   1.0078250   1.0078250  12.0000000   1.0078250   1.0078250   1.0078250  15.9949146  15.9949146
 NucSpn=           1           0           1           1           0           1           1           1           0           0
 AtZEff=   0.0000000   0.0000000   0.0000000   0.0000000   0.0000000   0.0000000   0.0000000   0.0000000   0.0000000   0.0000000
 NQMom=    0.0000000   0.0000000   0.0000000   0.0000000   0.0000000   0.0000000   0.0000000   0.0000000   0.0000000   0.0000000
 NMagM=    2.7928460   0.0000000   2.7928460   2.7928460   0.0000000   2.7928460   2.7928460   2.7928460   0.0000000   0.0000000
 Leave Link  101 at Fri Feb 14 00:11:48 2014, MaxMem= 4026531840 cpu:       3.8
 (Enter /usr/caen/gaussian-09revc/g09/l103.exe)

 GradGradGradGradGradGradGradGradGradGradGradGradGradGradGradGradGradGrad
 Berny optimization.
 Initialization pass.
                           ----------------------------
                           !    Initial Parameters    !
                           ! (Angstroms and Degrees)  !
 --------------------------                            --------------------------
 ! Name  Definition        TS        Reactant  Product Derivative Info.         !
 --------------------------------------------------------------------------------
 ! R1    R(1,2)             1.0869    1.0928    1.0836 calculate D2E/DX2 analyti!
 ! R2    R(1,3)             2.3405    1.093     4.6096 calculate D2E/DX2 analyti!
 ! R3    R(1,4)             1.0867    1.0941    1.0827 calculate D2E/DX2 analyti!
 ! R4    R(1,5)             1.4971    1.5364    1.494  calculate D2E/DX2 analyti!
 ! R5    R(3,30)            0.9802    3.6312    0.9673 calculate D2E/DX2 analyti!
 ! R6    R(5,6)             1.11      1.0998    1.1022 calculate D2E/DX2 analyti!
 ! R7    R(5,7)             1.5448    1.5406    1.5572 calculate D2E/DX2 analyti!
 ! R8    R(5,22)            1.5463    1.5319    1.5373 calculate D2E/DX2 analyti!
 ! R9    R(7,8)             1.0989    1.0966    1.0962 calculate D2E/DX2 analyti!
 ! R10   R(7,9)             1.0978    1.0962    1.0931 calculate D2E/DX2 analyti!
 ! R11   R(7,10)            1.5349    1.5342    1.5344 calculate D2E/DX2 analyti!
 ! R12   R(10,11)           1.0987    1.0988    1.0989 calculate D2E/DX2 analyti!
 ! R13   R(10,12)           1.0968    1.0933    1.0932 calculate D2E/DX2 analyti!
 ! R14   R(10,13)           1.5507    1.5343    1.5343 calculate D2E/DX2 analyti!
 ! R15   R(13,14)           1.1003    1.0985    1.0986 calculate D2E/DX2 analyti!
 ! R16   R(13,15)           1.0978    1.0975    1.0974 calculate D2E/DX2 analyti!
 ! R17   R(13,16)           1.5427    1.5406    1.5409 calculate D2E/DX2 analyti!
 ! R18   R(16,17)           1.1014    1.0991    1.099  calculate D2E/DX2 analyti!
 ! R19   R(16,18)           1.5353    1.5354    1.5354 calculate D2E/DX2 analyti!
 ! R20   R(16,25)           1.5366    1.5356    1.5357 calculate D2E/DX2 analyti!
 ! R21   R(18,19)           1.0981    1.0957    1.0957 calculate D2E/DX2 analyti!
 ! R22   R(18,20)           1.0965    1.0941    1.0942 calculate D2E/DX2 analyti!
 ! R23   R(18,21)           1.0967    1.0942    1.0941 calculate D2E/DX2 analyti!
 ! R24   R(22,23)           1.0968    1.0927    1.095  calculate D2E/DX2 analyti!
 ! R25   R(22,24)           1.0956    1.0896    1.0938 calculate D2E/DX2 analyti!
 ! R26   R(22,29)           1.4248    1.4626    1.4281 calculate D2E/DX2 analyti!
 ! R27   R(25,26)           1.0965    1.0941    1.0942 calculate D2E/DX2 analyti!
 ! R28   R(25,27)           1.0982    1.0957    1.0959 calculate D2E/DX2 analyti!
 ! R29   R(25,28)           1.096     1.0926    1.0927 calculate D2E/DX2 analyti!
 ! R30   R(29,30)           1.4503    1.3193    1.4613 calculate D2E/DX2 analyti!
 ! A1    A(2,1,3)         109.1525  107.889   160.0816 calculate D2E/DX2 analyti!
 ! A2    A(2,1,4)         117.3563  107.8235  118.3308 calculate D2E/DX2 analyti!
 ! A3    A(2,1,5)         120.3358  110.5706  120.1333 calculate D2E/DX2 analyti!
 ! A4    A(3,1,4)          85.7695  107.8292   66.846  calculate D2E/DX2 analyti!
 ! A5    A(3,1,5)          89.1695  111.0956   54.9101 calculate D2E/DX2 analyti!
 ! A6    A(4,1,5)         120.3277  111.4829  120.7208 calculate D2E/DX2 analyti!
 ! A7    A(1,5,6)         108.1008  108.047   108.4629 calculate D2E/DX2 analyti!
 ! A8    A(1,5,7)         111.4409  111.447   111.077  calculate D2E/DX2 analyti!
 ! A9    A(1,5,22)        111.9124  111.0565  111.1072 calculate D2E/DX2 analyti!
 ! A10   A(6,5,7)         107.6698  107.7947  106.0809 calculate D2E/DX2 analyti!
 ! A11   A(6,5,22)        104.547   104.3275  104.9368 calculate D2E/DX2 analyti!
 ! A12   A(7,5,22)        112.7385  113.7158  114.6884 calculate D2E/DX2 analyti!
 ! A13   A(5,7,8)         108.0919  107.3842  107.2422 calculate D2E/DX2 analyti!
 ! A14   A(5,7,9)         108.7212  109.3173  109.0271 calculate D2E/DX2 analyti!
 ! A15   A(5,7,10)        115.4124  115.5165  114.8677 calculate D2E/DX2 analyti!
 ! A16   A(8,7,9)         106.288   105.9079  106.5418 calculate D2E/DX2 analyti!
 ! A17   A(8,7,10)        108.7666  108.7583  108.8569 calculate D2E/DX2 analyti!
 ! A18   A(9,7,10)        109.176   109.5077  109.9513 calculate D2E/DX2 analyti!
 ! A19   A(7,10,11)       109.0691  109.3402  109.4051 calculate D2E/DX2 analyti!
 ! A20   A(7,10,12)       109.5417  109.5788  109.5296 calculate D2E/DX2 analyti!
 ! A21   A(7,10,13)       113.2193  112.418   112.3614 calculate D2E/DX2 analyti!
 ! A22   A(11,10,12)      105.7422  106.7351  106.6958 calculate D2E/DX2 analyti!
 ! A23   A(11,10,13)      109.8602  109.0585  109.05   calculate D2E/DX2 analyti!
 ! A24   A(12,10,13)      109.1369  109.5459  109.6357 calculate D2E/DX2 analyti!
 ! A25   A(10,13,14)      109.7299  109.2351  109.2757 calculate D2E/DX2 analyti!
 ! A26   A(10,13,15)      109.515   108.5757  108.5672 calculate D2E/DX2 analyti!
 ! A27   A(10,13,16)      114.6102  115.322   115.3282 calculate D2E/DX2 analyti!
 ! A28   A(14,13,15)      105.6423  106.035   105.996  calculate D2E/DX2 analyti!
 ! A29   A(14,13,16)      108.2058  108.8586  108.8678 calculate D2E/DX2 analyti!
 ! A30   A(15,13,16)      108.7474  108.4131  108.3998 calculate D2E/DX2 analyti!
 ! A31   A(13,16,17)      107.5828  107.5475  107.5532 calculate D2E/DX2 analyti!
 ! A32   A(13,16,18)      110.855   110.4572  110.5125 calculate D2E/DX2 analyti!
 ! A33   A(13,16,25)      111.7672  112.568   112.5555 calculate D2E/DX2 analyti!
 ! A34   A(17,16,18)      107.7892  107.7108  107.7246 calculate D2E/DX2 analyti!
 ! A35   A(17,16,25)      108.0572  107.9135  107.8776 calculate D2E/DX2 analyti!
 ! A36   A(18,16,25)      110.6171  110.4481  110.4214 calculate D2E/DX2 analyti!
 ! A37   A(16,18,19)      110.9029  110.8232  110.8233 calculate D2E/DX2 analyti!
 ! A38   A(16,18,20)      111.2862  111.2857  111.3172 calculate D2E/DX2 analyti!
 ! A39   A(16,18,21)      111.4495  111.4368  111.4065 calculate D2E/DX2 analyti!
 ! A40   A(19,18,20)      107.5293  107.6012  107.6123 calculate D2E/DX2 analyti!
 ! A41   A(19,18,21)      107.6464  107.6829  107.6666 calculate D2E/DX2 analyti!
 ! A42   A(20,18,21)      107.8469  107.8372  107.8409 calculate D2E/DX2 analyti!
 ! A43   A(5,22,23)       111.1028  110.7561  109.1154 calculate D2E/DX2 analyti!
 ! A44   A(5,22,24)       110.5313  113.1446  112.1317 calculate D2E/DX2 analyti!
 ! A45   A(5,22,29)       113.4025  111.7315  115.0766 calculate D2E/DX2 analyti!
 ! A46   A(23,22,24)      108.5001  110.0172  108.4319 calculate D2E/DX2 analyti!
 ! A47   A(23,22,29)      109.4149  103.8362  102.22   calculate D2E/DX2 analyti!
 ! A48   A(24,22,29)      103.5449  106.8911  109.2498 calculate D2E/DX2 analyti!
 ! A49   A(16,25,26)      111.0973  110.8643  110.9133 calculate D2E/DX2 analyti!
 ! A50   A(16,25,27)      110.528   110.7158  110.6705 calculate D2E/DX2 analyti!
 ! A51   A(16,25,28)      112.3315  112.2569  112.1941 calculate D2E/DX2 analyti!
 ! A52   A(26,25,27)      107.573   107.6319  107.6135 calculate D2E/DX2 analyti!
 ! A53   A(26,25,28)      107.5515  107.4823  107.4988 calculate D2E/DX2 analyti!
 ! A54   A(27,25,28)      107.5557  107.6948  107.7593 calculate D2E/DX2 analyti!
 ! A55   A(22,29,30)      108.0321  112.614   108.1778 calculate D2E/DX2 analyti!
 ! A56   A(3,30,29)       101.203    37.9773   99.7596 calculate D2E/DX2 analyti!
 ! D1    D(2,1,5,6)       -93.075   -60.5151  -46.2652 calculate D2E/DX2 analyti!
 ! D2    D(2,1,5,7)        25.053    57.7356   69.9434 calculate D2E/DX2 analyti!
 ! D3    D(2,1,5,22)      152.3231 -174.3645 -161.1101 calculate D2E/DX2 analyti!
 ! D4    D(3,1,5,6)       155.1051  179.7201  156.6985 calculate D2E/DX2 analyti!
 ! D5    D(3,1,5,7)       -86.7668  -62.0293  -87.0929 calculate D2E/DX2 analyti!
 ! D6    D(3,1,5,22)       40.5032   65.8707   41.8536 calculate D2E/DX2 analyti!
 ! D7    D(4,1,5,6)        70.4962   59.4215  144.2455 calculate D2E/DX2 analyti!
 ! D8    D(4,1,5,7)      -171.3758  177.6722  -99.5459 calculate D2E/DX2 analyti!
 ! D9    D(4,1,5,22)      -44.1057  -54.4279   29.4006 calculate D2E/DX2 analyti!
 ! D10   D(1,5,7,8)       -48.9839  -48.9358  -50.2595 calculate D2E/DX2 analyti!
 ! D11   D(1,5,7,9)        65.993    65.5262   64.7248 calculate D2E/DX2 analyti!
 ! D12   D(1,5,7,10)     -170.9835 -170.4581 -171.3806 calculate D2E/DX2 analyti!
 ! D13   D(6,5,7,8)        69.403    69.4663   67.4067 calculate D2E/DX2 analyti!
 ! D14   D(6,5,7,9)      -175.6202 -176.0717 -177.609  calculate D2E/DX2 analyti!
 ! D15   D(6,5,7,10)      -52.5967  -52.056   -53.7144 calculate D2E/DX2 analyti!
 ! D16   D(22,5,7,8)     -175.8045 -175.3913 -177.268  calculate D2E/DX2 analyti!
 ! D17   D(22,5,7,9)      -60.8276  -60.9293  -62.2837 calculate D2E/DX2 analyti!
 ! D18   D(22,5,7,10)      62.1959   63.0864   61.6109 calculate D2E/DX2 analyti!
 ! D19   D(1,5,22,23)      53.1251   54.4954   58.7749 calculate D2E/DX2 analyti!
 ! D20   D(1,5,22,24)     173.637   178.5582  178.9207 calculate D2E/DX2 analyti!
 ! D21   D(1,5,22,29)     -70.6036  -60.7421  -55.3991 calculate D2E/DX2 analyti!
 ! D22   D(6,5,22,23)     -63.6414  -61.6692  -58.2458 calculate D2E/DX2 analyti!
 ! D23   D(6,5,22,24)      56.8705   62.3937   61.9    calculate D2E/DX2 analyti!
 ! D24   D(6,5,22,29)     172.6298 -176.9066 -172.4198 calculate D2E/DX2 analyti!
 ! D25   D(7,5,22,23)     179.6943 -178.8443 -174.232  calculate D2E/DX2 analyti!
 ! D26   D(7,5,22,24)     -59.7939  -54.7814  -54.0863 calculate D2E/DX2 analyti!
 ! D27   D(7,5,22,29)      55.9655   65.9183   71.5939 calculate D2E/DX2 analyti!
 ! D28   D(5,7,10,11)      55.0256   53.1327   52.7366 calculate D2E/DX2 analyti!
 ! D29   D(5,7,10,12)     -60.2708  -63.5294  -63.8872 calculate D2E/DX2 analyti!
 ! D30   D(5,7,10,13)     177.6702  174.4077  174.0086 calculate D2E/DX2 analyti!
 ! D31   D(8,7,10,11)     -66.6118  -67.6478  -67.4974 calculate D2E/DX2 analyti!
 ! D32   D(8,7,10,12)     178.0918  175.69    175.8788 calculate D2E/DX2 analyti!
 ! D33   D(8,7,10,13)      56.0328   53.6272   53.7746 calculate D2E/DX2 analyti!
 ! D34   D(9,7,10,11)     177.8077  177.0488  176.1399 calculate D2E/DX2 analyti!
 ! D35   D(9,7,10,12)      62.5113   60.3867   59.516  calculate D2E/DX2 analyti!
 ! D36   D(9,7,10,13)     -59.5477  -61.6762  -62.5881 calculate D2E/DX2 analyti!
 ! D37   D(7,10,13,14)      1.8141   60.3611   60.0306 calculate D2E/DX2 analyti!
 ! D38   D(7,10,13,15)   -113.7177  -54.8463  -55.1476 calculate D2E/DX2 analyti!
 ! D39   D(7,10,13,16)    123.776  -176.6939 -176.9756 calculate D2E/DX2 analyti!
 ! D40   D(11,10,13,14)   124.0186 -178.2029 -178.4943 calculate D2E/DX2 analyti!
 ! D41   D(11,10,13,15)     8.4867   66.5897   66.3275 calculate D2E/DX2 analyti!
 ! D42   D(11,10,13,16)  -114.0195  -55.2579  -55.5005 calculate D2E/DX2 analyti!
 ! D43   D(12,10,13,14)  -120.4707  -61.7204  -62.0133 calculate D2E/DX2 analyti!
 ! D44   D(12,10,13,15)   123.9975 -176.9278 -177.1916 calculate D2E/DX2 analyti!
 ! D45   D(12,10,13,16)     1.4912   61.2246   60.9805 calculate D2E/DX2 analyti!
 ! D46   D(10,13,16,17)    51.6646   54.1274   53.8247 calculate D2E/DX2 analyti!
 ! D47   D(10,13,16,18)   169.2894  171.4173  171.1649 calculate D2E/DX2 analyti!
 ! D48   D(10,13,16,25)   -66.8028  -64.6078  -64.8626 calculate D2E/DX2 analyti!
 ! D49   D(14,13,16,17)   174.4528  177.2722  177.0348 calculate D2E/DX2 analyti!
 ! D50   D(14,13,16,18)   -67.9224  -65.4379  -65.625  calculate D2E/DX2 analyti!
 ! D51   D(14,13,16,25)    55.9854   58.537    58.3475 calculate D2E/DX2 analyti!
 ! D52   D(15,13,16,17)   -71.2562  -67.8076  -68.0933 calculate D2E/DX2 analyti!
 ! D53   D(15,13,16,18)    46.3686   49.4823   49.2469 calculate D2E/DX2 analyti!
 ! D54   D(15,13,16,25)   170.2764  173.4572  173.2194 calculate D2E/DX2 analyti!
 ! D55   D(13,16,18,19)    61.272    62.3109   62.2462 calculate D2E/DX2 analyti!
 ! D56   D(13,16,18,20)  -179.0703 -177.9942 -178.024  calculate D2E/DX2 analyti!
 ! D57   D(13,16,18,21)   -58.6418  -57.5871  -57.6112 calculate D2E/DX2 analyti!
 ! D58   D(17,16,18,19)   178.7708  179.5     179.4807 calculate D2E/DX2 analyti!
 ! D59   D(17,16,18,20)   -61.5716  -60.8051  -60.7894 calculate D2E/DX2 analyti!
 ! D60   D(17,16,18,21)    58.8569   59.602    59.6233 calculate D2E/DX2 analyti!
 ! D61   D(25,16,18,19)   -63.2911  -62.876   -62.9452 calculate D2E/DX2 analyti!
 ! D62   D(25,16,18,20)    56.3665   56.8189   56.7847 calculate D2E/DX2 analyti!
 ! D63   D(25,16,18,21)   176.795   177.2261  177.1974 calculate D2E/DX2 analyti!
 ! D64   D(13,16,25,26)   176.0959 -179.715  -179.816  calculate D2E/DX2 analyti!
 ! D65   D(13,16,25,27)   -64.5623  -60.3279  -60.4497 calculate D2E/DX2 analyti!
 ! D66   D(13,16,25,28)    55.5707   60.0625   59.9489 calculate D2E/DX2 analyti!
 ! D67   D(17,16,25,26)    57.9114   61.7643   61.6868 calculate D2E/DX2 analyti!
 ! D68   D(17,16,25,27)   177.2532 -178.8486 -178.9468 calculate D2E/DX2 analyti!
 ! D69   D(17,16,25,28)   -62.6137  -58.4582  -58.5483 calculate D2E/DX2 analyti!
 ! D70   D(18,16,25,26)   -59.8626  -55.735   -55.7931 calculate D2E/DX2 analyti!
 ! D71   D(18,16,25,27)    59.4792   63.6521   63.5733 calculate D2E/DX2 analyti!
 ! D72   D(18,16,25,28)   179.6122 -175.9575 -176.0282 calculate D2E/DX2 analyti!
 ! D73   D(5,22,29,30)     78.7379  -95.3673  -79.3074 calculate D2E/DX2 analyti!
 ! D74   D(23,22,29,30)   -45.9081  145.2215  162.5755 calculate D2E/DX2 analyti!
 ! D75   D(24,22,29,30)  -161.4372   28.9123   47.8484 calculate D2E/DX2 analyti!
 ! D76   D(22,29,30,3)    -78.8963   92.5212 -126.8045 calculate D2E/DX2 analyti!
 --------------------------------------------------------------------------------
 Trust Radius=3.00D-01 FncErr=1.00D-07 GrdErr=1.00D-06
 Number of steps in this run=    172 maximum allowed number of steps=    180.
 Search for a saddle point of order  1.
 GradGradGradGradGradGradGradGradGradGradGradGradGradGradGradGradGradGrad

 Leave Link  103 at Fri Feb 14 00:11:49 2014, MaxMem= 4026531840 cpu:       0.1
 (Enter /usr/caen/gaussian-09revc/g09/l202.exe)
                          Input orientation:                          
 ---------------------------------------------------------------------
 Center     Atomic      Atomic             Coordinates (Angstroms)
 Number     Number       Type             X           Y           Z
 ---------------------------------------------------------------------
      1          6           0        2.940910   -1.356189    0.767499
      2          1           0        2.685479   -1.902189    1.671913
      3          1           0        3.072477    0.927970    1.260800
      4          1           0        3.994179   -1.279367    0.511225
      5          6           0        1.890057   -1.052651   -0.254764
      6          1           0        1.899422   -1.865328   -1.010759
      7          6           0        0.481027   -1.016544    0.377401
      8          1           0        0.357374   -1.922165    0.987397
      9          1           0        0.428041   -0.167974    1.071829
     10          6           0       -0.684913   -0.927899   -0.616889
     11          1           0       -0.607840   -1.755728   -1.335211
     12          1           0       -0.592435   -0.009851   -1.209815
     13          6           0       -2.075863   -0.952649    0.068206
     14          1           0       -1.951187   -0.998015    1.160430
     15          1           0       -2.604312   -1.874406   -0.207933
     16          6           0       -2.977333    0.254279   -0.264288
     17          1           0       -3.013540    0.350409   -1.360883
     18          6           0       -4.410533    0.019555    0.233553
     19          1           0       -4.430808   -0.105766    1.324251
     20          1           0       -5.061554    0.866537   -0.013724
     21          1           0       -4.847578   -0.881848   -0.212850
     22          6           0        2.218209    0.227888   -1.056997
     23          1           0        3.225099    0.176134   -1.488930
     24          1           0        1.497634    0.366870   -1.870568
     25          6           0       -2.412483    1.562792    0.310161
     26          1           0       -3.023681    2.422053    0.009612
     27          1           0       -2.404159    1.529553    1.407814
     28          1           0       -1.385993    1.754804   -0.022565
     29          8           0        2.092025    1.423027   -0.291684
     30          8           0        3.276590    1.554075    0.534767
 ---------------------------------------------------------------------
                    Distance matrix (angstroms):
                    1          2          3          4          5
     1  C    0.000000
     2  H    1.086888   0.000000
     3  H    2.340521   2.885928   0.000000
     4  H    1.086717   1.856825   2.506738   0.000000
     5  C    1.497147   2.250888   2.760056   2.250660   0.000000
     6  H    2.122763   2.795706   3.786628   2.654768   1.109982
     7  C    2.513675   2.705501   3.358146   3.525510   1.544766
     8  H    2.653930   2.426733   3.945859   3.723745   2.155954
     9  H    2.796244   2.909232   2.868771   3.777143   2.163329
    10  C    3.904684   4.188961   4.592161   4.825979   2.603299
    11  H    4.144231   4.462084   5.242732   4.981448   2.810902
    12  H    4.266957   4.757102   4.518299   5.060699   2.856978
    13  C    5.081325   5.113109   5.609315   6.094950   3.980305
    14  H    4.920904   4.751612   5.381142   5.987320   4.094010
    15  H    5.654158   5.613954   6.498955   6.664184   4.569117
    16  C    6.219630   6.361342   6.275345   7.180214   5.039806
    17  H    6.549654   6.837461   6.651797   7.434318   5.218941
    18  C    7.498099   7.491019   7.607621   8.509024   6.409798
    19  H    7.497717   7.347758   7.574426   8.545101   6.583556
    20  H    8.342077   8.397841   8.233507   9.321308   7.215697
    21  H    7.864263   7.832010   8.256776   8.880257   6.739930
    22  C    2.521980   3.493210   2.567503   2.808061   1.546299
    23  H    2.742307   3.821197   2.854744   2.590480   2.194405
    24  H    3.465743   4.371359   3.549708   3.823058   2.186289
    25  C    6.114607   6.312660   5.602812   7.011677   5.066708
    26  H    7.101116   7.352334   6.400070   7.949999   6.023976
    27  H    6.107968   6.144186   5.511539   7.045043   5.279416
    28  H    5.387445   5.729026   4.712604   6.199788   4.320674
    29  O    3.092978   3.907040   1.901729   3.400851   2.484177
    30  O    2.938789   3.686228   0.980201   2.922992   3.056281
                    6          7          8          9         10
     6  H    0.000000
     7  C    2.158533   0.000000
     8  H    2.524633   1.098879   0.000000
     9  H    3.063192   1.097774   1.757643   0.000000
    10  C    2.777174   1.534890   2.156075   2.160537   0.000000
    11  H    2.530542   2.159876   2.520684   3.063960   1.098739
    12  H    3.113161   2.164487   3.063792   2.504451   1.096780
    13  C    4.219009   2.576309   2.775881   2.809361   1.550713
    14  H    4.504829   2.555219   2.492679   2.521417   2.183398
    15  H    4.574738   3.255435   3.194163   3.707407   2.178810
    16  C    5.369608   3.739921   4.174194   3.682401   2.603279
    17  H    5.400859   4.135479   4.694899   4.246326   2.758641
    18  C    6.701987   5.002155   5.203027   4.914232   3.937152
    19  H    6.972814   5.084502   5.132199   4.865799   4.298332
    20  H    7.544028   5.866786   6.176073   5.690720   4.768521
    21  H    6.864831   5.362888   5.441909   5.476511   4.182481
    22  C    2.117857   2.573696   3.502140   2.809503   3.155575
    23  H    2.480652   3.526415   4.331155   3.807812   4.155423
    24  H    2.425575   2.828549   3.835080   3.176128   2.830486
    25  C    5.664747   3.876841   4.502853   3.412370   3.169773
    26  H    6.607551   4.923636   5.591049   4.444202   4.133342
    27  H    5.991287   3.983549   4.440402   3.319012   3.618605
    28  H    4.987568   3.365428   4.192786   2.861030   2.835777
    29  O    3.371564   2.999083   3.979368   2.675686   3.652943
    30  O    3.997194   3.801055   4.561901   3.371664   4.814563
                   11         12         13         14         15
    11  H    0.000000
    12  H    1.750442   0.000000
    13  C    2.183943   2.173192   0.000000
    14  H    2.933758   2.905295   1.100252   0.000000
    15  H    2.295809   2.920271   1.097792   1.751300   0.000000
    16  C    3.286564   2.579055   1.542685   2.156626   2.161856
    17  H    3.197478   2.452419   2.149301   3.050223   2.539008
    18  C    4.480304   4.081917   2.534404   2.818321   2.654135
    19  H    4.940668   4.600413   2.800112   2.640353   2.968461
    20  H    5.334620   4.708685   3.497213   3.811768   3.686262
    21  H    4.471995   4.456519   2.786828   3.207565   2.453047
    22  C    3.463912   2.824817   4.593343   4.878902   5.328908
    23  H    4.295014   3.832240   5.639062   5.932257   6.310919
    24  H    3.037277   2.224163   4.274325   4.790013   4.961213
    25  C    4.120262   2.845366   2.549372   2.737423   3.481314
    26  H    5.009859   3.648577   3.505768   3.764504   4.322355
    27  H    4.641554   3.536112   2.839657   2.579725   3.773279
    28  H    3.827845   2.270089   2.795436   3.049087   3.832731
    29  O    4.299151   3.178432   4.810888   4.931292   5.738960
    30  O    5.435109   4.523139   5.928752   5.851006   6.847707
                   16         17         18         19         20
    16  C    0.000000
    17  H    1.101396   0.000000
    18  C    1.535253   2.145526   0.000000
    19  H    2.183043   3.070291   1.098061   0.000000
    20  H    2.186691   2.505112   1.096518   1.770139   0.000000
    21  H    2.188892   2.490007   1.096728   1.771632   1.772650
    22  C    5.255734   5.241999   6.756415   7.070438   7.381818
    23  H    6.322659   6.242386   7.829070   8.161272   8.445206
    24  H    4.755853   4.539905   6.281273   6.751050   6.835238
    25  C    1.536637   2.150240   2.525798   2.808220   2.758124
    26  H    2.185501   2.483962   2.783075   3.177759   2.563806
    27  H    2.179628   3.070409   2.772097   2.605486   3.085791
    28  H    2.200538   2.532258   3.496359   3.813992   3.781381
    29  O    5.202414   5.325457   6.672995   6.891720   7.180573
    30  O    6.437353   6.678925   7.844574   7.923531   8.384402
                   21         22         23         24         25
    21  H    0.000000
    22  C    7.202044   0.000000
    23  H    8.241106   1.096846   0.000000
    24  H    6.676005   1.095647   1.779372   0.000000
    25  C    3.489913   5.009431   6.077983   4.634094   0.000000
    26  H    3.780457   5.781819   6.807131   5.310475   1.096459
    27  H    3.796275   5.397769   6.473903   5.227199   1.098188
    28  H    4.355538   4.048678   5.089656   3.695508   1.096019
    29  O    7.312780   1.424775   2.066881   1.990388   4.546685
    30  O    8.514385   2.326511   2.448821   3.218661   5.693512
                   26         27         28         29         30
    26  H    0.000000
    27  H    1.770687   0.000000
    28  H    1.768694   1.770137   0.000000
    29  O    5.221042   4.807839   3.504156   0.000000
    30  O    6.381425   5.747497   4.700063   1.450307   0.000000
 Stoichiometry    C9H19O2(2)
 Framework group  C1[X(C9H19O2)]
 Deg. of freedom    84
 Full point group                 C1      NOp   1
 Largest Abelian subgroup         C1      NOp   1
 Largest concise Abelian subgroup C1      NOp   1
                         Standard orientation:                         
 ---------------------------------------------------------------------
 Center     Atomic      Atomic             Coordinates (Angstroms)
 Number     Number       Type             X           Y           Z
 ---------------------------------------------------------------------
      1          6           0       -2.940910   -1.356189   -0.767499
      2          1           0       -2.685479   -1.902189   -1.671913
      3          1           0       -3.072477    0.927970   -1.260800
      4          1           0       -3.994179   -1.279367   -0.511225
      5          6           0       -1.890057   -1.052651    0.254764
      6          1           0       -1.899422   -1.865328    1.010759
      7          6           0       -0.481027   -1.016544   -0.377401
      8          1           0       -0.357374   -1.922165   -0.987397
      9          1           0       -0.428041   -0.167974   -1.071829
     10          6           0        0.684913   -0.927899    0.616889
     11          1           0        0.607840   -1.755728    1.335211
     12          1           0        0.592435   -0.009851    1.209815
     13          6           0        2.075863   -0.952649   -0.068206
     14          1           0        1.951187   -0.998015   -1.160430
     15          1           0        2.604312   -1.874406    0.207933
     16          6           0        2.977333    0.254279    0.264288
     17          1           0        3.013540    0.350409    1.360883
     18          6           0        4.410533    0.019555   -0.233553
     19          1           0        4.430808   -0.105766   -1.324251
     20          1           0        5.061554    0.866537    0.013724
     21          1           0        4.847578   -0.881848    0.212850
     22          6           0       -2.218209    0.227888    1.056997
     23          1           0       -3.225099    0.176134    1.488930
     24          1           0       -1.497634    0.366870    1.870568
     25          6           0        2.412483    1.562792   -0.310161
     26          1           0        3.023681    2.422053   -0.009612
     27          1           0        2.404159    1.529553   -1.407814
     28          1           0        1.385993    1.754804    0.022565
     29          8           0       -2.092025    1.423027    0.291684
     30          8           0       -3.276590    1.554075   -0.534767
 ---------------------------------------------------------------------
 Rotational constants (GHZ):      1.9091602      0.4460589      0.3956129
 Leave Link  202 at Fri Feb 14 00:11:49 2014, MaxMem= 4026531840 cpu:       0.4
 (Enter /usr/caen/gaussian-09revc/g09/l301.exe)
 Standard basis: 6-311++G(d,p) (5D, 7F)
 Ernie: Thresh=  0.10000D-02 Tol=  0.10000D-05 Strict=F.
 There are   375 symmetry adapted basis functions of A   symmetry.
 Integral buffers will be    131072 words long.
 Raffenetti 2 integral format.
 Two-electron integral symmetry is turned on.
   375 basis functions,   567 primitive gaussians,   386 cartesian basis functions
    45 alpha electrons       44 beta electrons
       nuclear repulsion energy       653.4221435396 Hartrees.
 IExCor=  402 DFT=T Ex+Corr=B3LYP ExCW=0 ScaHFX=  0.200000
 ScaDFX=  0.800000  0.720000  1.000000  0.810000 ScalE2=  1.000000  1.000000
 IRadAn=      0 IRanWt=     -1 IRanGd=            0 ICorTp=0
 NAtoms=   30 NActive=   30 NUniq=   30 SFac= 1.00D+00 NAtFMM=   60 NAOKFM=F Big=F
 Leave Link  301 at Fri Feb 14 00:11:49 2014, MaxMem= 4026531840 cpu:       0.4
 (Enter /usr/caen/gaussian-09revc/g09/l302.exe)
 NPDir=0 NMtPBC=     1 NCelOv=     1 NCel=       1 NClECP=     1 NCelD=      1
         NCelK=      1 NCelE2=     1 NClLst=     1 CellRange=     0.0.
 One-electron integrals computed using PRISM.
 NBasis=   375 RedAO= T  NBF=   375
 NBsUse=   375 1.00D-06 NBFU=   375
 Precomputing XC quadrature grid using
 IXCGrd= 2 IRadAn=           0 IRanWt=          -1 IRanGd=           0 AccXCQ= 0.00D+00.
 NRdTot=    1959 NPtTot=      249684 NUsed=      263800 NTot=      263832
 NSgBfM=   386   386   386   386   386 NAtAll=    30    30.
 Leave Link  302 at Fri Feb 14 00:11:50 2014, MaxMem= 4026531840 cpu:       4.2
 (Enter /usr/caen/gaussian-09revc/g09/l303.exe)
 DipDrv:  MaxL=1.
 Leave Link  303 at Fri Feb 14 00:11:50 2014, MaxMem= 4026531840 cpu:       1.5
 (Enter /usr/caen/gaussian-09revc/g09/l401.exe)
 Harris functional with IExCor=  402 diagonalized for initial guess.
 ExpMin= 3.60D-02 ExpMax= 8.59D+03 ExpMxC= 1.30D+03 IAcc=3 IRadAn=         5 AccDes= 0.00D+00
 HarFok:  IExCor=  402 AccDes= 0.00D+00 IRadAn=         5 IDoV= 1
 ScaDFX=  1.000000  1.000000  1.000000  1.000000
 FoFCou: FMM=F IPFlag=           0 FMFlag=      100000 FMFlg1=           0
         NFxFlg=           0 DoJE=T BraDBF=F KetDBF=T FulRan=T
         Omega=  0.000000  0.000000  1.000000  0.000000  0.000000 ICntrl=     500 IOpCl=  0
         NMat0=    1 NMatS0=    1 NMatT0=    0 NMatD0=    1 NMtDS0=    0 NMtDT0=    0
         I1Cent=           4 NGrid=           0.
 Petite list used in FoFCou.
 Harris En= -504.883246910006    
 Initial guess orbital symmetries:
 Alpha Orbitals:
       Occupied  (A) (A) (A) (A) (A) (A) (A) (A) (A) (A) (A) (A)
                 (A) (A) (A) (A) (A) (A) (A) (A) (A) (A) (A) (A)
                 (A) (A) (A) (A) (A) (A) (A) (A) (A) (A) (A) (A)
                 (A) (A) (A) (A) (A) (A) (A) (A) (A)
       Virtual   (A) (A) (A) (A) (A) (A) (A) (A) (A) (A) (A) (A)
                 (A) (A) (A) (A) (A) (A) (A) (A) (A) (A) (A) (A)
                 (A) (A) (A) (A) (A) (A) (A) (A) (A) (A) (A) (A)
                 (A) (A) (A) (A) (A) (A) (A) (A) (A) (A) (A) (A)
                 (A) (A) (A) (A) (A) (A) (A) (A) (A) (A) (A) (A)
                 (A) (A) (A) (A) (A) (A) (A) (A) (A) (A) (A) (A)
                 (A) (A) (A) (A) (A) (A) (A) (A) (A) (A) (A) (A)
                 (A) (A) (A) (A) (A) (A) (A) (A) (A) (A) (A) (A)
                 (A) (A) (A) (A) (A) (A) (A) (A) (A) (A) (A) (A)
                 (A) (A) (A) (A) (A) (A) (A) (A) (A) (A) (A) (A)
                 (A) (A) (A) (A) (A) (A) (A) (A) (A) (A) (A) (A)
                 (A) (A) (A) (A) (A) (A) (A) (A) (A) (A) (A) (A)
                 (A) (A) (A) (A) (A) (A) (A) (A) (A) (A) (A) (A)
                 (A) (A) (A) (A) (A) (A) (A) (A) (A) (A) (A) (A)
                 (A) (A) (A) (A) (A) (A) (A) (A) (A) (A) (A) (A)
                 (A) (A) (A) (A) (A) (A) (A) (A) (A) (A) (A) (A)
                 (A) (A) (A) (A) (A) (A) (A) (A) (A) (A) (A) (A)
                 (A) (A) (A) (A) (A) (A) (A) (A) (A) (A) (A) (A)
                 (A) (A) (A) (A) (A) (A) (A) (A) (A) (A) (A) (A)
                 (A) (A) (A) (A) (A) (A) (A) (A) (A) (A) (A) (A)
                 (A) (A) (A) (A) (A) (A) (A) (A) (A) (A) (A) (A)
                 (A) (A) (A) (A) (A) (A) (A) (A) (A) (A) (A) (A)
                 (A) (A) (A) (A) (A) (A) (A) (A) (A) (A) (A) (A)
                 (A) (A) (A) (A) (A) (A) (A) (A) (A) (A) (A) (A)
                 (A) (A) (A) (A) (A) (A) (A) (A) (A) (A) (A) (A)
                 (A) (A) (A) (A) (A) (A) (A) (A) (A) (A) (A) (A)
                 (A) (A) (A) (A) (A) (A) (A) (A) (A) (A) (A) (A)
                 (A) (A) (A) (A) (A) (A)
 Beta  Orbitals:
       Occupied  (A) (A) (A) (A) (A) (A) (A) (A) (A) (A) (A) (A)
                 (A) (A) (A) (A) (A) (A) (A) (A) (A) (A) (A) (A)
                 (A) (A) (A) (A) (A) (A) (A) (A) (A) (A) (A) (A)
                 (A) (A) (A) (A) (A) (A) (A) (A)
       Virtual   (A) (A) (A) (A) (A) (A) (A) (A) (A) (A) (A) (A)
                 (A) (A) (A) (A) (A) (A) (A) (A) (A) (A) (A) (A)
                 (A) (A) (A) (A) (A) (A) (A) (A) (A) (A) (A) (A)
                 (A) (A) (A) (A) (A) (A) (A) (A) (A) (A) (A) (A)
                 (A) (A) (A) (A) (A) (A) (A) (A) (A) (A) (A) (A)
                 (A) (A) (A) (A) (A) (A) (A) (A) (A) (A) (A) (A)
                 (A) (A) (A) (A) (A) (A) (A) (A) (A) (A) (A) (A)
                 (A) (A) (A) (A) (A) (A) (A) (A) (A) (A) (A) (A)
                 (A) (A) (A) (A) (A) (A) (A) (A) (A) (A) (A) (A)
                 (A) (A) (A) (A) (A) (A) (A) (A) (A) (A) (A) (A)
                 (A) (A) (A) (A) (A) (A) (A) (A) (A) (A) (A) (A)
                 (A) (A) (A) (A) (A) (A) (A) (A) (A) (A) (A) (A)
                 (A) (A) (A) (A) (A) (A) (A) (A) (A) (A) (A) (A)
                 (A) (A) (A) (A) (A) (A) (A) (A) (A) (A) (A) (A)
                 (A) (A) (A) (A) (A) (A) (A) (A) (A) (A) (A) (A)
                 (A) (A) (A) (A) (A) (A) (A) (A) (A) (A) (A) (A)
                 (A) (A) (A) (A) (A) (A) (A) (A) (A) (A) (A) (A)
                 (A) (A) (A) (A) (A) (A) (A) (A) (A) (A) (A) (A)
                 (A) (A) (A) (A) (A) (A) (A) (A) (A) (A) (A) (A)
                 (A) (A) (A) (A) (A) (A) (A) (A) (A) (A) (A) (A)
                 (A) (A) (A) (A) (A) (A) (A) (A) (A) (A) (A) (A)
                 (A) (A) (A) (A) (A) (A) (A) (A) (A) (A) (A) (A)
                 (A) (A) (A) (A) (A) (A) (A) (A) (A) (A) (A) (A)
                 (A) (A) (A) (A) (A) (A) (A) (A) (A) (A) (A) (A)
                 (A) (A) (A) (A) (A) (A) (A) (A) (A) (A) (A) (A)
                 (A) (A) (A) (A) (A) (A) (A) (A) (A) (A) (A) (A)
                 (A) (A) (A) (A) (A) (A) (A) (A) (A) (A) (A) (A)
                 (A) (A) (A) (A) (A) (A) (A)
 The electronic state of the initial guess is 2-A.
 Initial guess <Sx>= 0.0000 <Sy>= 0.0000 <Sz>= 0.5000 <S**2>= 0.7500 S= 0.5000
 Leave Link  401 at Fri Feb 14 00:11:55 2014, MaxMem= 4026531840 cpu:      35.0
 (Enter /usr/caen/gaussian-09revc/g09/l502.exe)
 UHF open shell SCF:
 Requested convergence on RMS density matrix=1.00D-08 within 128 cycles.
 Requested convergence on MAX density matrix=1.00D-06.
 Requested convergence on             energy=1.00D-06.
 No special actions if energy rises.
 Using DIIS extrapolation, IDIIS=  1040.
 Integral symmetry usage will be decided dynamically.
       263517 words used for storage of precomputed grid.
 IEnd=      734651 IEndB=      734651 NGot=  4026531840 MDV=  4025963212
 LenX=  4025963212 LenY=  4025813775
 Fock matrices will be formed incrementally for  20 cycles.

 Cycle   1  Pass 1  IDiag  1:
 FoFCou: FMM=F IPFlag=           0 FMFlag=      100000 FMFlg1=           0
         NFxFlg=           0 DoJE=F BraDBF=F KetDBF=F FulRan=T
         Omega=  0.000000  0.000000  1.000000  0.000000  0.000000 ICntrl=       0 IOpCl=  1
         NMat0=    1 NMatS0=    1 NMatT0=    0 NMatD0=    1 NMtDS0=    0 NMtDT0=    0
         I1Cent=           0 NGrid=           0.
 Symmetry not used in FoFCou.
 E= -504.490962857124    
 DIIS: error= 2.42D-02 at cycle   1 NSaved=   1.
 NSaved= 1 IEnMin= 1 EnMin= -504.490962857124     IErMin= 1 ErrMin= 2.42D-02
 ErrMax= 2.42D-02 EMaxC= 1.00D-01 BMatC= 1.40D+00 BMatP= 1.40D+00
 IDIUse=3 WtCom= 7.58D-01 WtEn= 2.42D-01
 Coeff-Com:  0.100D+01
 Coeff-En:   0.100D+01
 Coeff:      0.100D+01
 Gap=     0.175 Goal=   None    Shift=    0.000
 Gap=     0.257 Goal=   None    Shift=    0.000
 GapD=    0.175 DampG=1.000 DampE=0.500 DampFc=0.5000 IDamp=-1.
 Damping current iteration by 5.00D-01
 RMSDP=1.43D-02 MaxDP=1.02D+00              OVMax= 1.95D-01

 Cycle   2  Pass 1  IDiag  1:
 RMSU=  5.17D-03    CP:  1.01D+00
 E= -504.635726467670     Delta-E=       -0.144763610546 Rises=F Damp=T
 DIIS: error= 3.72D-03 at cycle   2 NSaved=   2.
 NSaved= 2 IEnMin= 2 EnMin= -504.635726467670     IErMin= 2 ErrMin= 3.72D-03
 ErrMax= 3.72D-03 EMaxC= 1.00D-01 BMatC= 8.81D-02 BMatP= 1.40D+00
 IDIUse=3 WtCom= 9.63D-01 WtEn= 3.72D-02
 Coeff-Com:  0.698D-01 0.930D+00
 Coeff-En:   0.164D+00 0.836D+00
 Coeff:      0.734D-01 0.927D+00
 Gap=     0.211 Goal=   None    Shift=    0.000
 Gap=     0.250 Goal=   None    Shift=    0.000
 RMSDP=5.18D-03 MaxDP=8.24D-01 DE=-1.45D-01 OVMax= 1.21D-01

 Cycle   3  Pass 1  IDiag  1:
 RMSU=  3.52D-03    CP:  1.09D+00  1.01D+00
 E= -504.831410310211     Delta-E=       -0.195683842541 Rises=F Damp=F
 DIIS: error= 5.42D-03 at cycle   3 NSaved=   3.
 NSaved= 3 IEnMin= 3 EnMin= -504.831410310211     IErMin= 2 ErrMin= 3.72D-03
 ErrMax= 5.42D-03 EMaxC= 1.00D-01 BMatC= 4.00D-02 BMatP= 8.81D-02
 IDIUse=3 WtCom= 9.46D-01 WtEn= 5.42D-02
 Coeff-Com: -0.258D-01 0.379D+00 0.647D+00
 Coeff-En:   0.000D+00 0.000D+00 0.100D+01
 Coeff:     -0.244D-01 0.358D+00 0.666D+00
 Gap=     0.213 Goal=   None    Shift=    0.000
 Gap=     0.198 Goal=   None    Shift=    0.000
 RMSDP=3.03D-03 MaxDP=4.97D-01 DE=-1.96D-01 OVMax= 2.20D-02

 Cycle   4  Pass 1  IDiag  1:
 RMSU=  1.04D-03    CP:  1.01D+00  1.04D+00  6.51D-01
 E= -504.836228003237     Delta-E=       -0.004817693027 Rises=F Damp=F
 DIIS: error= 4.67D-03 at cycle   4 NSaved=   4.
 NSaved= 4 IEnMin= 4 EnMin= -504.836228003237     IErMin= 2 ErrMin= 3.72D-03
 ErrMax= 4.67D-03 EMaxC= 1.00D-01 BMatC= 2.04D-02 BMatP= 4.00D-02
 IDIUse=3 WtCom= 9.53D-01 WtEn= 4.67D-02
 Coeff-Com: -0.246D-01 0.140D+00 0.443D+00 0.441D+00
 Coeff-En:   0.000D+00 0.000D+00 0.302D+00 0.698D+00
 Coeff:     -0.234D-01 0.133D+00 0.437D+00 0.453D+00
 Gap=     0.211 Goal=   None    Shift=    0.000
 Gap=     0.194 Goal=   None    Shift=    0.000
 RMSDP=1.19D-03 MaxDP=1.21D-01 DE=-4.82D-03 OVMax= 1.16D-02

 Cycle   5  Pass 1  IDiag  1:
 RMSU=  5.13D-04    CP:  9.86D-01  9.80D-01  7.12D-01  7.37D-01
 E= -504.839589749868     Delta-E=       -0.003361746631 Rises=F Damp=F
 DIIS: error= 1.15D-03 at cycle   5 NSaved=   5.
 NSaved= 5 IEnMin= 5 EnMin= -504.839589749868     IErMin= 5 ErrMin= 1.15D-03
 ErrMax= 1.15D-03 EMaxC= 1.00D-01 BMatC= 1.49D-03 BMatP= 2.04D-02
 IDIUse=3 WtCom= 9.88D-01 WtEn= 1.15D-02
 Coeff-Com: -0.104D-01 0.290D-01 0.160D+00 0.262D+00 0.560D+00
 Coeff-En:   0.000D+00 0.000D+00 0.000D+00 0.217D-01 0.978D+00
 Coeff:     -0.103D-01 0.287D-01 0.158D+00 0.259D+00 0.565D+00
 Gap=     0.211 Goal=   None    Shift=    0.000
 Gap=     0.193 Goal=   None    Shift=    0.000
 RMSDP=5.91D-04 MaxDP=6.86D-02 DE=-3.36D-03 OVMax= 3.33D-03

 Cycle   6  Pass 1  IDiag  1:
 RMSU=  7.73D-05    CP:  1.00D+00  1.01D+00  7.23D-01  7.42D-01  5.89D-01
 E= -504.839855826121     Delta-E=       -0.000266076253 Rises=F Damp=F
 DIIS: error= 2.12D-04 at cycle   6 NSaved=   6.
 NSaved= 6 IEnMin= 6 EnMin= -504.839855826121     IErMin= 6 ErrMin= 2.12D-04
 ErrMax= 2.12D-04 EMaxC= 1.00D-01 BMatC= 1.02D-04 BMatP= 1.49D-03
 IDIUse=3 WtCom= 9.98D-01 WtEn= 2.12D-03
 Coeff-Com: -0.265D-02 0.629D-04 0.355D-01 0.852D-01 0.283D+00 0.599D+00
 Coeff-En:   0.000D+00 0.000D+00 0.000D+00 0.000D+00 0.000D+00 0.100D+01
 Coeff:     -0.265D-02 0.627D-04 0.354D-01 0.851D-01 0.282D+00 0.600D+00
 Gap=     0.211 Goal=   None    Shift=    0.000
 Gap=     0.193 Goal=   None    Shift=    0.000
 RMSDP=8.18D-05 MaxDP=1.14D-02 DE=-2.66D-04 OVMax= 1.40D-03

 Cycle   7  Pass 1  IDiag  1:
 RMSU=  3.42D-05    CP:  1.00D+00  1.01D+00  7.33D-01  7.32D-01  6.40D-01
                    CP:  6.78D-01
 E= -504.839879396596     Delta-E=       -0.000023570474 Rises=F Damp=F
 DIIS: error= 3.91D-05 at cycle   7 NSaved=   7.
 NSaved= 7 IEnMin= 7 EnMin= -504.839879396596     IErMin= 7 ErrMin= 3.91D-05
 ErrMax= 3.91D-05 EMaxC= 1.00D-01 BMatC= 4.24D-06 BMatP= 1.02D-04
 IDIUse=1 WtCom= 1.00D+00 WtEn= 0.00D+00
 Coeff-Com:  0.514D-03-0.280D-02-0.799D-02-0.813D-02 0.311D-02 0.139D+00
 Coeff-Com:  0.877D+00
 Coeff:      0.514D-03-0.280D-02-0.799D-02-0.813D-02 0.311D-02 0.139D+00
 Coeff:      0.877D+00
 Gap=     0.212 Goal=   None    Shift=    0.000
 Gap=     0.193 Goal=   None    Shift=    0.000
 RMSDP=3.24D-05 MaxDP=5.15D-03 DE=-2.36D-05 OVMax= 6.09D-04

 Cycle   8  Pass 1  IDiag  1:
 RMSU=  1.53D-05    CP:  1.00D+00  1.01D+00  7.30D-01  7.40D-01  6.42D-01
                    CP:  6.45D-01  9.93D-01
 E= -504.839881004922     Delta-E=       -0.000001608327 Rises=F Damp=F
 DIIS: error= 1.81D-05 at cycle   8 NSaved=   8.
 NSaved= 8 IEnMin= 8 EnMin= -504.839881004922     IErMin= 8 ErrMin= 1.81D-05
 ErrMax= 1.81D-05 EMaxC= 1.00D-01 BMatC= 9.73D-07 BMatP= 4.24D-06
 IDIUse=1 WtCom= 1.00D+00 WtEn= 0.00D+00
 Coeff-Com:  0.619D-03-0.106D-02-0.881D-02-0.175D-01-0.468D-01-0.492D-01
 Coeff-Com:  0.338D+00 0.784D+00
 Coeff:      0.619D-03-0.106D-02-0.881D-02-0.175D-01-0.468D-01-0.492D-01
 Coeff:      0.338D+00 0.784D+00
 Gap=     0.212 Goal=   None    Shift=    0.000
 Gap=     0.193 Goal=   None    Shift=    0.000
 RMSDP=1.34D-05 MaxDP=2.65D-03 DE=-1.61D-06 OVMax= 2.13D-04

 Cycle   9  Pass 1  IDiag  1:
 RMSU=  3.36D-06    CP:  1.00D+00  1.01D+00  7.31D-01  7.37D-01  6.41D-01
                    CP:  6.77D-01  1.12D+00  8.05D-01
 E= -504.839881351175     Delta-E=       -0.000000346252 Rises=F Damp=F
 DIIS: error= 7.16D-06 at cycle   9 NSaved=   9.
 NSaved= 9 IEnMin= 9 EnMin= -504.839881351175     IErMin= 9 ErrMin= 7.16D-06
 ErrMax= 7.16D-06 EMaxC= 1.00D-01 BMatC= 1.09D-07 BMatP= 9.73D-07
 IDIUse=1 WtCom= 1.00D+00 WtEn= 0.00D+00
 Coeff-Com:  0.157D-03-0.103D-03-0.254D-02-0.580D-02-0.179D-01-0.317D-01
 Coeff-Com:  0.370D-01 0.291D+00 0.730D+00
 Coeff:      0.157D-03-0.103D-03-0.254D-02-0.580D-02-0.179D-01-0.317D-01
 Coeff:      0.370D-01 0.291D+00 0.730D+00
 Gap=     0.212 Goal=   None    Shift=    0.000
 Gap=     0.193 Goal=   None    Shift=    0.000
 RMSDP=5.24D-06 MaxDP=7.17D-04 DE=-3.46D-07 OVMax= 5.28D-05

 Cycle  10  Pass 1  IDiag  1:
 RMSU=  1.37D-06    CP:  1.00D+00  1.01D+00  7.31D-01  7.37D-01  6.40D-01
                    CP:  6.77D-01  1.15D+00  8.42D-01  1.09D+00
 E= -504.839881377469     Delta-E=       -0.000000026294 Rises=F Damp=F
 DIIS: error= 3.19D-06 at cycle  10 NSaved=  10.
 NSaved=10 IEnMin=10 EnMin= -504.839881377469     IErMin=10 ErrMin= 3.19D-06
 ErrMax= 3.19D-06 EMaxC= 1.00D-01 BMatC= 2.79D-08 BMatP= 1.09D-07
 IDIUse=1 WtCom= 1.00D+00 WtEn= 0.00D+00
 Coeff-Com: -0.335D-04 0.150D-03 0.275D-03 0.200D-03-0.520D-03-0.633D-02
 Coeff-Com: -0.405D-01 0.955D-02 0.371D+00 0.666D+00
 Coeff:     -0.335D-04 0.150D-03 0.275D-03 0.200D-03-0.520D-03-0.633D-02
 Coeff:     -0.405D-01 0.955D-02 0.371D+00 0.666D+00
 Gap=     0.212 Goal=   None    Shift=    0.000
 Gap=     0.193 Goal=   None    Shift=    0.000
 RMSDP=3.01D-06 MaxDP=4.34D-04 DE=-2.63D-08 OVMax= 1.52D-05

 Cycle  11  Pass 1  IDiag  1:
 RMSU=  5.92D-07    CP:  1.00D+00  1.01D+00  7.31D-01  7.37D-01  6.41D-01
                    CP:  6.74D-01  1.14D+00  8.51D-01  1.10D+00  6.26D-01
 E= -504.839881384404     Delta-E=       -0.000000006935 Rises=F Damp=F
 DIIS: error= 7.44D-07 at cycle  11 NSaved=  11.
 NSaved=11 IEnMin=11 EnMin= -504.839881384404     IErMin=11 ErrMin= 7.44D-07
 ErrMax= 7.44D-07 EMaxC= 1.00D-01 BMatC= 1.17D-09 BMatP= 2.79D-08
 IDIUse=1 WtCom= 1.00D+00 WtEn= 0.00D+00
 Coeff-Com: -0.216D-04 0.483D-04 0.300D-03 0.569D-03 0.144D-02 0.117D-02
 Coeff-Com: -0.137D-01-0.241D-01 0.293D-01 0.182D+00 0.823D+00
 Coeff:     -0.216D-04 0.483D-04 0.300D-03 0.569D-03 0.144D-02 0.117D-02
 Coeff:     -0.137D-01-0.241D-01 0.293D-01 0.182D+00 0.823D+00
 Gap=     0.212 Goal=   None    Shift=    0.000
 Gap=     0.193 Goal=   None    Shift=    0.000
 RMSDP=3.44D-07 MaxDP=3.20D-05 DE=-6.94D-09 OVMax= 9.88D-06

 Cycle  12  Pass 1  IDiag  1:
 RMSU=  1.56D-07    CP:  1.00D+00  1.01D+00  7.31D-01  7.37D-01  6.41D-01
                    CP:  6.75D-01  1.14D+00  8.52D-01  1.12D+00  6.37D-01
                    CP:  1.03D+00
 E= -504.839881384770     Delta-E=       -0.000000000366 Rises=F Damp=F
 DIIS: error= 3.42D-07 at cycle  12 NSaved=  12.
 NSaved=12 IEnMin=12 EnMin= -504.839881384770     IErMin=12 ErrMin= 3.42D-07
 ErrMax= 3.42D-07 EMaxC= 1.00D-01 BMatC= 3.60D-10 BMatP= 1.17D-09
 IDIUse=1 WtCom= 1.00D+00 WtEn= 0.00D+00
 Coeff-Com: -0.595D-05 0.726D-05 0.117D-03 0.256D-03 0.738D-03 0.114D-02
 Coeff-Com: -0.241D-02-0.120D-01-0.254D-01 0.150D-01 0.394D+00 0.629D+00
 Coeff:     -0.595D-05 0.726D-05 0.117D-03 0.256D-03 0.738D-03 0.114D-02
 Coeff:     -0.241D-02-0.120D-01-0.254D-01 0.150D-01 0.394D+00 0.629D+00
 Gap=     0.212 Goal=   None    Shift=    0.000
 Gap=     0.193 Goal=   None    Shift=    0.000
 RMSDP=3.02D-07 MaxDP=5.10D-05 DE=-3.66D-10 OVMax= 3.35D-06

 Cycle  13  Pass 1  IDiag  1:
 RMSU=  5.68D-08    CP:  1.00D+00  1.01D+00  7.31D-01  7.37D-01  6.41D-01
                    CP:  6.75D-01  1.14D+00  8.49D-01  1.12D+00  6.34D-01
                    CP:  1.09D+00  7.90D-01
 E= -504.839881384868     Delta-E=       -0.000000000098 Rises=F Damp=F
 DIIS: error= 1.62D-07 at cycle  13 NSaved=  13.
 NSaved=13 IEnMin=13 EnMin= -504.839881384868     IErMin=13 ErrMin= 1.62D-07
 ErrMax= 1.62D-07 EMaxC= 1.00D-01 BMatC= 5.61D-11 BMatP= 3.60D-10
 IDIUse=1 WtCom= 1.00D+00 WtEn= 0.00D+00
 Coeff-Com:  0.304D-05-0.952D-05-0.236D-04-0.285D-04-0.376D-04 0.180D-03
 Coeff-Com:  0.224D-02 0.734D-03-0.179D-01-0.362D-01-0.212D-01 0.270D+00
 Coeff-Com:  0.802D+00
 Coeff:      0.304D-05-0.952D-05-0.236D-04-0.285D-04-0.376D-04 0.180D-03
 Coeff:      0.224D-02 0.734D-03-0.179D-01-0.362D-01-0.212D-01 0.270D+00
 Coeff:      0.802D+00
 Gap=     0.212 Goal=   None    Shift=    0.000
 Gap=     0.193 Goal=   None    Shift=    0.000
 RMSDP=9.84D-08 MaxDP=1.41D-05 DE=-9.80D-11 OVMax= 1.90D-06

 Cycle  14  Pass 1  IDiag  1:
 RMSU=  2.40D-08    CP:  1.00D+00  1.01D+00  7.31D-01  7.37D-01  6.41D-01
                    CP:  6.75D-01  1.14D+00  8.49D-01  1.12D+00  6.41D-01
                    CP:  1.09D+00  8.82D-01  8.97D-01
 E= -504.839881384890     Delta-E=       -0.000000000023 Rises=F Damp=F
 DIIS: error= 7.80D-08 at cycle  14 NSaved=  14.
 NSaved=14 IEnMin=14 EnMin= -504.839881384890     IErMin=14 ErrMin= 7.80D-08
 ErrMax= 7.80D-08 EMaxC= 1.00D-01 BMatC= 5.45D-12 BMatP= 5.61D-11
 IDIUse=1 WtCom= 1.00D+00 WtEn= 0.00D+00
 Coeff-Com:  0.967D-06-0.194D-05-0.168D-04-0.328D-04-0.856D-04-0.101D-03
 Coeff-Com:  0.558D-03 0.151D-02 0.727D-03-0.725D-02-0.521D-01-0.449D-01
 Coeff-Com:  0.115D+00 0.987D+00
 Coeff:      0.967D-06-0.194D-05-0.168D-04-0.328D-04-0.856D-04-0.101D-03
 Coeff:      0.558D-03 0.151D-02 0.727D-03-0.725D-02-0.521D-01-0.449D-01
 Coeff:      0.115D+00 0.987D+00
 Gap=     0.212 Goal=   None    Shift=    0.000
 Gap=     0.193 Goal=   None    Shift=    0.000
 RMSDP=4.97D-08 MaxDP=8.98D-06 DE=-2.25D-11 OVMax= 9.14D-07

 Cycle  15  Pass 1  IDiag  1:
 RMSU=  1.24D-08    CP:  1.00D+00  1.01D+00  7.31D-01  7.37D-01  6.41D-01
                    CP:  6.75D-01  1.14D+00  8.49D-01  1.12D+00  6.35D-01
                    CP:  1.10D+00  9.07D-01  9.73D-01  1.10D+00
 E= -504.839881384901     Delta-E=       -0.000000000010 Rises=F Damp=F
 DIIS: error= 4.50D-08 at cycle  15 NSaved=  15.
 NSaved=15 IEnMin=15 EnMin= -504.839881384901     IErMin=15 ErrMin= 4.50D-08
 ErrMax= 4.50D-08 EMaxC= 1.00D-01 BMatC= 2.11D-12 BMatP= 5.45D-12
 IDIUse=1 WtCom= 1.00D+00 WtEn= 0.00D+00
 Coeff-Com: -0.325D-06 0.132D-05-0.196D-05-0.809D-05-0.284D-04-0.825D-04
 Coeff-Com: -0.252D-03 0.477D-03 0.429D-02 0.491D-02-0.185D-01-0.802D-01
 Coeff-Com: -0.130D+00 0.436D+00 0.783D+00
 Coeff:     -0.325D-06 0.132D-05-0.196D-05-0.809D-05-0.284D-04-0.825D-04
 Coeff:     -0.252D-03 0.477D-03 0.429D-02 0.491D-02-0.185D-01-0.802D-01
 Coeff:     -0.130D+00 0.436D+00 0.783D+00
 Gap=     0.212 Goal=   None    Shift=    0.000
 Gap=     0.193 Goal=   None    Shift=    0.000
 RMSDP=1.51D-08 MaxDP=1.99D-06 DE=-1.02D-11 OVMax= 4.91D-07

 Cycle  16  Pass 1  IDiag  1:
 RMSU=  4.65D-09    CP:  1.00D+00  1.01D+00  7.31D-01  7.37D-01  6.41D-01
                    CP:  6.75D-01  1.14D+00  8.49D-01  1.12D+00  6.36D-01
                    CP:  1.09D+00  9.06D-01  1.01D+00  1.29D+00  1.07D+00
 E= -504.839881384898     Delta-E=        0.000000000003 Rises=F Damp=F
 DIIS: error= 2.39D-08 at cycle  16 NSaved=  16.
 NSaved=16 IEnMin=15 EnMin= -504.839881384901     IErMin=16 ErrMin= 2.39D-08
 ErrMax= 2.39D-08 EMaxC= 1.00D-01 BMatC= 3.45D-13 BMatP= 2.11D-12
 IDIUse=1 WtCom= 1.00D+00 WtEn= 0.00D+00
 Coeff-Com: -0.285D-06 0.842D-06 0.253D-05 0.299D-05 0.556D-05-0.105D-04
 Coeff-Com: -0.199D-03-0.157D-03 0.135D-02 0.345D-02 0.499D-02-0.173D-01
 Coeff-Com: -0.709D-01-0.771D-01 0.281D+00 0.874D+00
 Coeff:     -0.285D-06 0.842D-06 0.253D-05 0.299D-05 0.556D-05-0.105D-04
 Coeff:     -0.199D-03-0.157D-03 0.135D-02 0.345D-02 0.499D-02-0.173D-01
 Coeff:     -0.709D-01-0.771D-01 0.281D+00 0.874D+00
 Gap=     0.212 Goal=   None    Shift=    0.000
 Gap=     0.193 Goal=   None    Shift=    0.000
 RMSDP=9.44D-09 MaxDP=1.49D-06 DE= 3.18D-12 OVMax= 2.59D-07

 Cycle  17  Pass 1  IDiag  1:
 RMSU=  2.22D-09    CP:  1.00D+00  1.01D+00  7.31D-01  7.37D-01  6.41D-01
                    CP:  6.75D-01  1.14D+00  8.49D-01  1.12D+00  6.37D-01
                    CP:  1.09D+00  9.04D-01  1.01D+00  1.37D+00  1.20D+00
                    CP:  1.09D+00
 E= -504.839881384898     Delta-E=       -0.000000000001 Rises=F Damp=F
 DIIS: error= 7.02D-09 at cycle  17 NSaved=  17.
 NSaved=17 IEnMin=15 EnMin= -504.839881384901     IErMin=17 ErrMin= 7.02D-09
 ErrMax= 7.02D-09 EMaxC= 1.00D-01 BMatC= 3.44D-14 BMatP= 3.45D-13
 IDIUse=1 WtCom= 1.00D+00 WtEn= 0.00D+00
 Coeff-Com: -0.133D-07 0.212D-07 0.854D-06 0.186D-05 0.441D-05 0.833D-05
 Coeff-Com: -0.129D-04-0.930D-04-0.237D-03 0.148D-03 0.334D-02 0.656D-02
 Coeff-Com:  0.119D-02-0.784D-01-0.395D-01 0.210D+00 0.897D+00
 Coeff:     -0.133D-07 0.212D-07 0.854D-06 0.186D-05 0.441D-05 0.833D-05
 Coeff:     -0.129D-04-0.930D-04-0.237D-03 0.148D-03 0.334D-02 0.656D-02
 Coeff:      0.119D-02-0.784D-01-0.395D-01 0.210D+00 0.897D+00
 Gap=     0.212 Goal=   None    Shift=    0.000
 Gap=     0.193 Goal=   None    Shift=    0.000
 RMSDP=3.48D-09 MaxDP=6.10D-07 DE=-6.82D-13 OVMax= 8.48D-08

 SCF Done:  E(UB3LYP) =  -504.839881385     A.U. after   17 cycles
             Convg  =    0.3476D-08             -V/T =  2.0046
 <Sx>= 0.0000 <Sy>= 0.0000 <Sz>= 0.5000 <S**2>= 0.7539 S= 0.5020
 <L.S>= 0.000000000000E+00
 KE= 5.025190609473D+02 PE=-2.482550129387D+03 EE= 8.217690435155D+02
 Annihilation of the first spin contaminant:
 S**2 before annihilation     0.7539,   after     0.7500
 Leave Link  502 at Fri Feb 14 00:18:14 2014, MaxMem= 4026531840 cpu:    3028.1
 (Enter /usr/caen/gaussian-09revc/g09/l801.exe)
 Range of M.O.s used for correlation:     1   375
 NBasis=   375 NAE=    45 NBE=    44 NFC=     0 NFV=     0
 NROrb=    375 NOA=    45 NOB=    44 NVA=   330 NVB=   331

 **** Warning!!: The largest alpha MO coefficient is  0.14790825D+03


 **** Warning!!: The largest beta MO coefficient is  0.14641528D+03

 Leave Link  801 at Fri Feb 14 00:18:15 2014, MaxMem= 4026531840 cpu:       0.3
 (Enter /usr/caen/gaussian-09revc/g09/l1101.exe)
 Using compressed storage, NAtomX=    30.
 Will process  31 centers per pass.
 Leave Link 1101 at Fri Feb 14 00:18:16 2014, MaxMem= 4026531840 cpu:       6.6
 (Enter /usr/caen/gaussian-09revc/g09/l1102.exe)
 Symmetrizing basis deriv contribution to polar:
 IMax=3 JMax=2 DiffMx= 0.00D+00
 Leave Link 1102 at Fri Feb 14 00:18:16 2014, MaxMem= 4026531840 cpu:       1.2
 (Enter /usr/caen/gaussian-09revc/g09/l1110.exe)
 Forming Gx(P) for the SCF density, NAtomX=    30.
 Integral derivatives from FoFDir/FoFCou, PRISM(SPDF).
 Do as many integral derivatives as possible in FoFDir.
 G2DrvN: MDV=    4026531496.
 G2DrvN: will do    31 centers at a time, making    1 passes doing MaxLOS=2.
 Calling FoFCou, ICntrl=  3107 FMM=F I1Cent=   0 AccDes= 0.00D+00.
 FoFCou: FMM=F IPFlag=           0 FMFlag=      100000 FMFlg1=           0
         NFxFlg=           0 DoJE=F BraDBF=F KetDBF=F FulRan=T
         Omega=  0.000000  0.000000  1.000000  0.000000  0.000000 ICntrl=    3107 IOpCl=  1
         NMat0=    1 NMatS0=    1 NMatT0=    0 NMatD0=    1 NMtDS0=    0 NMtDT0=    0
         I1Cent=           0 NGrid=           0.
 Symmetry not used in FoFCou.
 FoFDir/FoFCou used for L=0 through L=2.
 End of G2Drv Frequency-dependent properties file   721 does not exist.
 End of G2Drv Frequency-dependent properties file   722 does not exist.
 Leave Link 1110 at Fri Feb 14 00:24:12 2014, MaxMem= 4026531840 cpu:    2848.6
 (Enter /usr/caen/gaussian-09revc/g09/l1002.exe)
 Minotr:  UHF open shell wavefunction.
          IDoAtm=111111111111111111111111111111
          Direct CPHF calculation.
          Differentiating once with respect to nuclear coordinates.
          Requested convergence is 1.0D-06 RMS, and 1.0D-05 maximum.
          Secondary convergence is 1.0D-12 RMS, and 1.0D-12 maximum.
          NewPWx=T KeepS1=F KeepF1=F KeepIn=T MapXYZ=F SortEE=F KeepMc=T.
          MDV=    4026531536 using IRadAn=       2.
 Generate precomputed XC quadrature information.
          Solving linear equations simultaneously, MaxMat=       0.
 Integrals replicated using symmetry in FoFDir.
 MinBra= 0 MaxBra= 2 Meth= 1.
 IRaf=       0 NMat=  93 IRICut=     232 DoRegI=T DoRafI=T ISym2E= 2 JSym2E=2.
          There are    93 degrees of freedom in the 1st order CPHF.  IDoFFX=5.
     87 vectors produced by pass  0 Test12= 3.16D-10 1.08D-07 XBig12= 3.83D-01 9.90D-02.
 AX will form    87 AO Fock derivatives at one time.
     87 vectors produced by pass  1 Test12= 3.16D-10 1.08D-07 XBig12= 3.18D-02 2.76D-02.
     87 vectors produced by pass  2 Test12= 3.16D-10 1.08D-07 XBig12= 1.92D-04 1.48D-03.
     87 vectors produced by pass  3 Test12= 3.16D-10 1.08D-07 XBig12= 1.11D-06 1.21D-04.
     61 vectors produced by pass  4 Test12= 3.16D-10 1.08D-07 XBig12= 9.74D-09 9.25D-06.
     13 vectors produced by pass  5 Test12= 3.16D-10 1.08D-07 XBig12= 4.12D-11 4.86D-07.
      4 vectors produced by pass  6 Test12= 3.16D-10 1.08D-07 XBig12= 9.66D-12 3.76D-07.
 Inverted reduced A of dimension   426 with in-core refinement.
 End of Minotr Frequency-dependent properties file   721 does not exist.
 End of Minotr Frequency-dependent properties file   722 does not exist.
 Leave Link 1002 at Fri Feb 14 00:49:32 2014, MaxMem= 4026531840 cpu:   12146.0
 (Enter /usr/caen/gaussian-09revc/g09/l601.exe)
 Copying SCF densities to generalized density rwf, IOpCl= 1 IROHF=0.

 **********************************************************************

            Population analysis using the SCF density.

 **********************************************************************

 Orbital symmetries:
 Alpha Orbitals:
       Occupied  (A) (A) (A) (A) (A) (A) (A) (A) (A) (A) (A) (A)
                 (A) (A) (A) (A) (A) (A) (A) (A) (A) (A) (A) (A)
                 (A) (A) (A) (A) (A) (A) (A) (A) (A) (A) (A) (A)
                 (A) (A) (A) (A) (A) (A) (A) (A) (A)
       Virtual   (A) (A) (A) (A) (A) (A) (A) (A) (A) (A) (A) (A)
                 (A) (A) (A) (A) (A) (A) (A) (A) (A) (A) (A) (A)
                 (A) (A) (A) (A) (A) (A) (A) (A) (A) (A) (A) (A)
                 (A) (A) (A) (A) (A) (A) (A) (A) (A) (A) (A) (A)
                 (A) (A) (A) (A) (A) (A) (A) (A) (A) (A) (A) (A)
                 (A) (A) (A) (A) (A) (A) (A) (A) (A) (A) (A) (A)
                 (A) (A) (A) (A) (A) (A) (A) (A) (A) (A) (A) (A)
                 (A) (A) (A) (A) (A) (A) (A) (A) (A) (A) (A) (A)
                 (A) (A) (A) (A) (A) (A) (A) (A) (A) (A) (A) (A)
                 (A) (A) (A) (A) (A) (A) (A) (A) (A) (A) (A) (A)
                 (A) (A) (A) (A) (A) (A) (A) (A) (A) (A) (A) (A)
                 (A) (A) (A) (A) (A) (A) (A) (A) (A) (A) (A) (A)
                 (A) (A) (A) (A) (A) (A) (A) (A) (A) (A) (A) (A)
                 (A) (A) (A) (A) (A) (A) (A) (A) (A) (A) (A) (A)
                 (A) (A) (A) (A) (A) (A) (A) (A) (A) (A) (A) (A)
                 (A) (A) (A) (A) (A) (A) (A) (A) (A) (A) (A) (A)
                 (A) (A) (A) (A) (A) (A) (A) (A) (A) (A) (A) (A)
                 (A) (A) (A) (A) (A) (A) (A) (A) (A) (A) (A) (A)
                 (A) (A) (A) (A) (A) (A) (A) (A) (A) (A) (A) (A)
                 (A) (A) (A) (A) (A) (A) (A) (A) (A) (A) (A) (A)
                 (A) (A) (A) (A) (A) (A) (A) (A) (A) (A) (A) (A)
                 (A) (A) (A) (A) (A) (A) (A) (A) (A) (A) (A) (A)
                 (A) (A) (A) (A) (A) (A) (A) (A) (A) (A) (A) (A)
                 (A) (A) (A) (A) (A) (A) (A) (A) (A) (A) (A) (A)
                 (A) (A) (A) (A) (A) (A) (A) (A) (A) (A) (A) (A)
                 (A) (A) (A) (A) (A) (A) (A) (A) (A) (A) (A) (A)
                 (A) (A) (A) (A) (A) (A) (A) (A) (A) (A) (A) (A)
                 (A) (A) (A) (A) (A) (A)
 Beta  Orbitals:
       Occupied  (A) (A) (A) (A) (A) (A) (A) (A) (A) (A) (A) (A)
                 (A) (A) (A) (A) (A) (A) (A) (A) (A) (A) (A) (A)
                 (A) (A) (A) (A) (A) (A) (A) (A) (A) (A) (A) (A)
                 (A) (A) (A) (A) (A) (A) (A) (A)
       Virtual   (A) (A) (A) (A) (A) (A) (A) (A) (A) (A) (A) (A)
                 (A) (A) (A) (A) (A) (A) (A) (A) (A) (A) (A) (A)
                 (A) (A) (A) (A) (A) (A) (A) (A) (A) (A) (A) (A)
                 (A) (A) (A) (A) (A) (A) (A) (A) (A) (A) (A) (A)
                 (A) (A) (A) (A) (A) (A) (A) (A) (A) (A) (A) (A)
                 (A) (A) (A) (A) (A) (A) (A) (A) (A) (A) (A) (A)
                 (A) (A) (A) (A) (A) (A) (A) (A) (A) (A) (A) (A)
                 (A) (A) (A) (A) (A) (A) (A) (A) (A) (A) (A) (A)
                 (A) (A) (A) (A) (A) (A) (A) (A) (A) (A) (A) (A)
                 (A) (A) (A) (A) (A) (A) (A) (A) (A) (A) (A) (A)
                 (A) (A) (A) (A) (A) (A) (A) (A) (A) (A) (A) (A)
                 (A) (A) (A) (A) (A) (A) (A) (A) (A) (A) (A) (A)
                 (A) (A) (A) (A) (A) (A) (A) (A) (A) (A) (A) (A)
                 (A) (A) (A) (A) (A) (A) (A) (A) (A) (A) (A) (A)
                 (A) (A) (A) (A) (A) (A) (A) (A) (A) (A) (A) (A)
                 (A) (A) (A) (A) (A) (A) (A) (A) (A) (A) (A) (A)
                 (A) (A) (A) (A) (A) (A) (A) (A) (A) (A) (A) (A)
                 (A) (A) (A) (A) (A) (A) (A) (A) (A) (A) (A) (A)
                 (A) (A) (A) (A) (A) (A) (A) (A) (A) (A) (A) (A)
                 (A) (A) (A) (A) (A) (A) (A) (A) (A) (A) (A) (A)
                 (A) (A) (A) (A) (A) (A) (A) (A) (A) (A) (A) (A)
                 (A) (A) (A) (A) (A) (A) (A) (A) (A) (A) (A) (A)
                 (A) (A) (A) (A) (A) (A) (A) (A) (A) (A) (A) (A)
                 (A) (A) (A) (A) (A) (A) (A) (A) (A) (A) (A) (A)
                 (A) (A) (A) (A) (A) (A) (A) (A) (A) (A) (A) (A)
                 (A) (A) (A) (A) (A) (A) (A) (A) (A) (A) (A) (A)
                 (A) (A) (A) (A) (A) (A) (A) (A) (A) (A) (A) (A)
                 (A) (A) (A) (A) (A) (A) (A)
 The electronic state is 2-A.
 Alpha  occ. eigenvalues --  -19.18526 -19.17961 -10.22974 -10.19653 -10.19389
 Alpha  occ. eigenvalues --  -10.17536 -10.17524 -10.17151 -10.16700 -10.15816
 Alpha  occ. eigenvalues --  -10.15588  -1.12698  -0.92042  -0.82844  -0.80753
 Alpha  occ. eigenvalues --   -0.75376  -0.68332  -0.68185  -0.67978  -0.61085
 Alpha  occ. eigenvalues --   -0.58033  -0.56150  -0.53573  -0.49709  -0.48185
 Alpha  occ. eigenvalues --   -0.46410  -0.45913  -0.44697  -0.43764  -0.43340
 Alpha  occ. eigenvalues --   -0.41881  -0.39856  -0.38892  -0.38333  -0.37690
 Alpha  occ. eigenvalues --   -0.37195  -0.35482  -0.34777  -0.34368  -0.32397
 Alpha  occ. eigenvalues --   -0.32060  -0.31441  -0.30894  -0.28353  -0.22396
 Alpha virt. eigenvalues --   -0.01231  -0.00662  -0.00224   0.00155   0.00855
 Alpha virt. eigenvalues --    0.01608   0.02006   0.02634   0.03151   0.03743
 Alpha virt. eigenvalues --    0.03898   0.04245   0.05112   0.05226   0.06295
 Alpha virt. eigenvalues --    0.06654   0.07281   0.07750   0.08268   0.08712
 Alpha virt. eigenvalues --    0.09040   0.09316   0.09701   0.10344   0.10467
 Alpha virt. eigenvalues --    0.10755   0.11441   0.11694   0.12103   0.12512
 Alpha virt. eigenvalues --    0.12722   0.12931   0.13272   0.13356   0.13938
 Alpha virt. eigenvalues --    0.14216   0.14286   0.14474   0.14821   0.14975
 Alpha virt. eigenvalues --    0.15805   0.16096   0.16402   0.16781   0.17105
 Alpha virt. eigenvalues --    0.17438   0.17919   0.18391   0.18562   0.18736
 Alpha virt. eigenvalues --    0.19117   0.19296   0.19794   0.20193   0.20797
 Alpha virt. eigenvalues --    0.21187   0.21559   0.21880   0.22817   0.23109
 Alpha virt. eigenvalues --    0.23497   0.24183   0.25088   0.25659   0.26220
 Alpha virt. eigenvalues --    0.26627   0.26857   0.27431   0.27811   0.28126
 Alpha virt. eigenvalues --    0.28452   0.29277   0.29589   0.30215   0.30575
 Alpha virt. eigenvalues --    0.31003   0.31934   0.32044   0.32859   0.33269
 Alpha virt. eigenvalues --    0.34040   0.34442   0.34980   0.35771   0.36332
 Alpha virt. eigenvalues --    0.37776   0.38300   0.38747   0.40085   0.40678
 Alpha virt. eigenvalues --    0.41774   0.42974   0.45152   0.46495   0.48842
 Alpha virt. eigenvalues --    0.49982   0.50812   0.50961   0.52447   0.53009
 Alpha virt. eigenvalues --    0.53287   0.54045   0.54688   0.55219   0.55730
 Alpha virt. eigenvalues --    0.57652   0.58850   0.60148   0.60764   0.61206
 Alpha virt. eigenvalues --    0.63131   0.63373   0.64263   0.65307   0.65742
 Alpha virt. eigenvalues --    0.66119   0.67626   0.68221   0.69032   0.69894
 Alpha virt. eigenvalues --    0.70234   0.70544   0.71492   0.72528   0.73322
 Alpha virt. eigenvalues --    0.73867   0.74616   0.75812   0.76097   0.76659
 Alpha virt. eigenvalues --    0.77141   0.78272   0.78564   0.80356   0.81127
 Alpha virt. eigenvalues --    0.81668   0.82800   0.85505   0.90859   0.90963
 Alpha virt. eigenvalues --    0.92571   0.97032   0.99179   1.01202   1.02448
 Alpha virt. eigenvalues --    1.02572   1.04751   1.05499   1.07529   1.08804
 Alpha virt. eigenvalues --    1.10017   1.12005   1.13236   1.16322   1.16539
 Alpha virt. eigenvalues --    1.17472   1.19151   1.20491   1.22532   1.24885
 Alpha virt. eigenvalues --    1.27764   1.29341   1.34658   1.37774   1.38874
 Alpha virt. eigenvalues --    1.41012   1.43929   1.45248   1.46018   1.46896
 Alpha virt. eigenvalues --    1.47454   1.48326   1.49180   1.50450   1.51048
 Alpha virt. eigenvalues --    1.53606   1.54702   1.55547   1.57454   1.57815
 Alpha virt. eigenvalues --    1.59946   1.60038   1.60598   1.61632   1.62325
 Alpha virt. eigenvalues --    1.63207   1.63742   1.64557   1.65351   1.66386
 Alpha virt. eigenvalues --    1.67969   1.68629   1.69545   1.70733   1.71604
 Alpha virt. eigenvalues --    1.72756   1.73596   1.74744   1.75883   1.77415
 Alpha virt. eigenvalues --    1.78437   1.79639   1.80594   1.80887   1.82924
 Alpha virt. eigenvalues --    1.84030   1.85377   1.86693   1.88881   1.91855
 Alpha virt. eigenvalues --    1.94649   1.96812   1.99075   2.00189   2.00972
 Alpha virt. eigenvalues --    2.02238   2.03578   2.05633   2.07939   2.10134
 Alpha virt. eigenvalues --    2.12159   2.13590   2.15116   2.16389   2.17922
 Alpha virt. eigenvalues --    2.19134   2.20071   2.22706   2.27025   2.28076
 Alpha virt. eigenvalues --    2.29634   2.30201   2.33217   2.34475   2.37648
 Alpha virt. eigenvalues --    2.38502   2.42712   2.44231   2.46105   2.48812
 Alpha virt. eigenvalues --    2.49486   2.50941   2.52358   2.52729   2.52918
 Alpha virt. eigenvalues --    2.53932   2.54454   2.55292   2.55940   2.57047
 Alpha virt. eigenvalues --    2.59001   2.60097   2.61513   2.63325   2.63898
 Alpha virt. eigenvalues --    2.65332   2.66511   2.68197   2.70294   2.70567
 Alpha virt. eigenvalues --    2.71843   2.73134   2.74859   2.76306   2.76732
 Alpha virt. eigenvalues --    2.77534   2.79778   2.80767   2.82663   2.83681
 Alpha virt. eigenvalues --    2.83991   2.87453   2.91378   2.91883   2.93168
 Alpha virt. eigenvalues --    2.93781   2.95751   2.96780   2.99447   3.00256
 Alpha virt. eigenvalues --    3.03504   3.05973   3.10857   3.12778   3.15775
 Alpha virt. eigenvalues --    3.18298   3.20711   3.23080   3.28515   3.31461
 Alpha virt. eigenvalues --    3.36117   3.46780   3.51660   3.68686   3.70250
 Alpha virt. eigenvalues --    3.74460   3.77973   3.78540   3.82032   3.82802
 Alpha virt. eigenvalues --    3.83430   3.84702   3.85197   3.87873   3.92200
 Alpha virt. eigenvalues --    4.01239   4.03254   4.12626   4.21063   4.25225
 Alpha virt. eigenvalues --    4.30184   4.36329   4.40243   4.88841   5.02844
 Alpha virt. eigenvalues --    5.08374   5.40801   5.45421   5.68983  23.81596
 Alpha virt. eigenvalues --   23.82687  23.86561  23.87771  23.88851  23.92026
 Alpha virt. eigenvalues --   23.93485  23.97231  23.98603  49.85216  49.88986
  Beta  occ. eigenvalues --  -19.18511 -19.17850 -10.22920 -10.19723 -10.18053
  Beta  occ. eigenvalues --  -10.17524 -10.17516 -10.17151 -10.16700 -10.15816
  Beta  occ. eigenvalues --  -10.15588  -1.12569  -0.91873  -0.82536  -0.80406
  Beta  occ. eigenvalues --   -0.74951  -0.68322  -0.67956  -0.66435  -0.60509
  Beta  occ. eigenvalues --   -0.57481  -0.56108  -0.53429  -0.49322  -0.48072
  Beta  occ. eigenvalues --   -0.46150  -0.45797  -0.44390  -0.43441  -0.43138
  Beta  occ. eigenvalues --   -0.41532  -0.39685  -0.38724  -0.38217  -0.37437
  Beta  occ. eigenvalues --   -0.37005  -0.35269  -0.34690  -0.34253  -0.32390
  Beta  occ. eigenvalues --   -0.32005  -0.31307  -0.30365  -0.28116
  Beta virt. eigenvalues --   -0.08778  -0.01155  -0.00480  -0.00165   0.00262
  Beta virt. eigenvalues --    0.00881   0.01683   0.02078   0.02692   0.03176
  Beta virt. eigenvalues --    0.03854   0.03901   0.04313   0.05128   0.05303
  Beta virt. eigenvalues --    0.06399   0.06672   0.07323   0.07819   0.08277
  Beta virt. eigenvalues --    0.08763   0.09067   0.09474   0.09783   0.10416
  Beta virt. eigenvalues --    0.10654   0.10811   0.11537   0.11775   0.12175
  Beta virt. eigenvalues --    0.12615   0.12739   0.13045   0.13432   0.13539
  Beta virt. eigenvalues --    0.14237   0.14358   0.14377   0.14594   0.14860
  Beta virt. eigenvalues --    0.15004   0.15866   0.16174   0.16472   0.16923
  Beta virt. eigenvalues --    0.17168   0.17501   0.17934   0.18479   0.18596
  Beta virt. eigenvalues --    0.18879   0.19167   0.19426   0.19847   0.20241
  Beta virt. eigenvalues --    0.20813   0.21220   0.21594   0.22021   0.22863
  Beta virt. eigenvalues --    0.23190   0.23521   0.24352   0.25199   0.25708
  Beta virt. eigenvalues --    0.26243   0.26759   0.27020   0.27530   0.27907
  Beta virt. eigenvalues --    0.28231   0.28572   0.29363   0.29693   0.30366
  Beta virt. eigenvalues --    0.30863   0.31142   0.31953   0.32202   0.33041
  Beta virt. eigenvalues --    0.33327   0.34066   0.34523   0.35014   0.35911
  Beta virt. eigenvalues --    0.36410   0.37786   0.38357   0.38879   0.40091
  Beta virt. eigenvalues --    0.40744   0.41855   0.43154   0.45159   0.46581
  Beta virt. eigenvalues --    0.48973   0.50159   0.51013   0.51200   0.52653
  Beta virt. eigenvalues --    0.53297   0.53400   0.54079   0.55508   0.55578
  Beta virt. eigenvalues --    0.56497   0.57683   0.59131   0.60302   0.61266
  Beta virt. eigenvalues --    0.62361   0.63407   0.63659   0.64566   0.65385
  Beta virt. eigenvalues --    0.65838   0.66493   0.67675   0.68420   0.69098
  Beta virt. eigenvalues --    0.70150   0.70467   0.70863   0.71623   0.72683
  Beta virt. eigenvalues --    0.73582   0.73954   0.74854   0.76047   0.76341
  Beta virt. eigenvalues --    0.76901   0.77191   0.78487   0.78729   0.80373
  Beta virt. eigenvalues --    0.81295   0.81820   0.82852   0.85647   0.90999
  Beta virt. eigenvalues --    0.92175   0.92820   0.97366   0.99352   1.01532
  Beta virt. eigenvalues --    1.02499   1.03159   1.05229   1.05539   1.07657
  Beta virt. eigenvalues --    1.08993   1.10432   1.12641   1.13666   1.16494
  Beta virt. eigenvalues --    1.16586   1.17780   1.19245   1.20617   1.22585
  Beta virt. eigenvalues --    1.25082   1.27972   1.29552   1.35144   1.37858
  Beta virt. eigenvalues --    1.39243   1.41240   1.44052   1.45267   1.46023
[...]
 00005660,-0.00000927,-0.00000971,0.00000171,0.00002017,-0.00002510,0.0
 0003193,-0.00000227,-0.00000198,-0.00001118,0.00003342,-0.00000617,0.0
 0000193,-0.00000949,0.00000264,-0.00000085,0.12244702,-0.15093135,0.05
 561245,-0.00070914,0.00093433,-0.00009862,-0.12540513,0.15904244,-0.00
 088407,-0.00014774,0.00003509,0.00010338,0.00008381,0.00037001,0.00038
 015,-0.00013517,0.00010900,-0.00008787,0.00033209,-0.00011671,-0.00130
 801,0.00361521,-0.00001445,0.00031545,0.00024478,0.00008146,-0.0007045
 2,0.00026442,-0.00001355,-0.00001714,-0.00017085,0.00002203,-0.0000325
 4,0.00002664,-0.00010702,0.00002159,0.00057680,0.00008771,-0.00011424,
 -0.00023347,-0.00007740,0.00044658,-0.00026664,0.00033855,0.00005143,-
 0.00025966,-0.00005221,0.00002330,0.00002264,-0.00002546,-0.00011186,-
 0.00003179,0.00005507,0.00004384,-0.00000034,0.00005082,-0.00000863,-0
 .00000955,-0.00001198,-0.00001397,0.00001129,-0.00002079,0.00000625,0.
 00000093,0.00000136,-0.00002192,0.00000390,-0.00000105,0.00000471,-0.0
 0000337,0.00000134,-0.05414378,0.04820594,-0.07796170,0.01290115,-0.01
 185430,0.00923339,0.07328046,-0.05712453,0.08822405,-0.00000146,0.0000
 0483,0.00006102,0.00001727,-0.00001757,0.00000209,-0.00000302,-0.00003
 700,-0.00001491,-0.00002612,0.00000883,-0.00000062,0.00001212,-0.00013
 077,-0.00005864,-0.00001995,0.00002947,0.00002814,-0.00006045,0.000213
 44,0.00012116,-0.00002549,-0.00026667,0.00006984,0.00007119,-0.0000081
 4,0.00002045,0.00060233,0.00075242,-0.00056592,-0.00005794,0.00023318,
 0.00023039,-0.00079209,0.00037550,-0.00028302,0.00065985,0.02939951,-0
 .00619086,0.00096145,-0.00019736,0.00085011,-0.00487192,0.00249857,-0.
 00273074,-0.07785665,-0.00168966,-0.00005166,-0.00018957,-0.00191301,0
 .00034430,-0.00300443,-0.02964811,0.00659578,0.00099043,0.00033216,-0.
 00074598,0.00069745,-0.00090237,0.00009276,-0.00462545,-0.00222987,0.0
 0331270,-0.00011391,0.00013761,-0.00003266,-0.00003079,-0.00003682,0.0
 0001569,0.00001427,0.00000288,-0.00001917,0.56811794,-0.00003685,0.000
 00849,0.00005241,0.00000108,-0.00000399,-0.00000242,-0.00000648,-0.000
 01997,-0.00000434,-0.00001767,0.00000821,-0.00000746,-0.00007414,0.000
 07968,-0.00012229,-0.00000082,0.00000845,0.00000517,-0.00053071,-0.000
 28326,0.00038831,0.00013860,-0.00004467,0.00005154,0.00000400,0.000012
 23,0.00000105,0.00026480,0.00083394,-0.00038156,0.00004352,-0.00005890
 ,-0.00007295,0.00012961,-0.00053772,0.00006396,0.00561090,-0.01448384,
 0.00519571,-0.00131498,0.00132821,-0.00106325,0.00069816,0.00103567,-0
 .00034845,-0.00382974,-0.17331462,0.01638674,-0.00081981,-0.02018844,0
 .00360688,-0.00587875,-0.01373397,0.00576434,0.00124501,0.00108154,-0.
 00086291,0.00121832,0.00066293,-0.00067694,-0.00009584,0.00100199,0.00
 014389,-0.00001970,0.00006695,-0.00001399,0.00000449,-0.00001573,0.000
 00342,-0.00001434,-0.00002038,0.00001044,0.00180422,0.45571631,0.00001
 295,0.00001034,0.00001772,0.00000739,0.00000191,-0.00000123,0.00000190
 ,-0.00001972,0.00001147,-0.00001700,0.00000630,0.00000312,0.00003246,-
 0.00010027,-0.00005913,0.00000209,-0.00001676,0.00000164,0.00039956,0.
 00054318,0.00003984,-0.00015533,0.00002671,-0.00012992,-0.00002504,-0.
 00001922,-0.00005144,-0.00060526,-0.00084310,0.00002932,-0.00012200,0.
 00011341,0.00012445,0.00037785,0.00077564,0.00029768,-0.00181619,0.017
 53113,-0.00463548,0.00047630,0.00126527,0.00041788,-0.00265064,0.00156
 355,-0.00106789,0.00129168,0.01356679,-0.08089474,-0.00077684,-0.02854
 704,0.00578616,0.00335818,0.02128719,-0.00515617,-0.00045356,0.0009754
 3,0.00060679,-0.00116974,-0.00068576,0.00056754,0.00277944,0.00177759,
 -0.00182649,0.00008022,-0.00003850,0.00013852,-0.00003421,-0.00000203,
 -0.00002153,0.00005117,0.00004543,-0.00002035,-0.00235747,0.01348081,0
 .55748874,-0.00001260,-0.00000126,0.00003447,0.00001052,-0.00000291,-0
 .00000060,0.00000978,-0.00000967,0.00000364,-0.00002440,0.00001342,0.0
 0000245,0.00003260,-0.00000146,-0.00009292,-0.00000256,-0.00000520,0.0
 0001221,0.00015454,0.00018722,0.00002926,-0.00011730,0.00005186,-0.000
 05289,-0.00000858,-0.00001160,-0.00000623,-0.00010787,-0.00036081,-0.0
 0017710,0.00000557,0.00009815,0.00004361,0.00036091,0.00031170,-0.0000
 6261,0.00080848,-0.00024929,0.00090801,0.00003948,-0.00014122,0.000068
 20,0.00005665,0.00003416,-0.00005761,0.00020812,-0.00073117,0.00107794
 ,0.00009634,0.00060685,0.00023362,0.00076047,-0.00083909,0.00052405,-0
 .00004165,0.00004088,0.00001109,0.00051071,-0.00004999,-0.00014037,0.0
 0024018,0.00010085,0.00010961,0.00006333,-0.00000995,0.00003906,-0.000
 03665,-0.00000147,-0.00000417,0.00003270,0.00003475,-0.00003508,-0.231
 64751,0.06057970,-0.10032273,0.25124812,0.00000659,-0.00000602,-0.0000
 4471,-0.00000753,0.00000607,0.00000277,0.00000143,0.00002428,0.0000053
 1,0.00001892,-0.00000811,0.00000247,0.00001841,0.00002984,0.00007146,0
 .00000450,-0.00000456,-0.00000902,0.00017154,0.00006126,-0.00013763,-0
 .00004713,0.00010008,-0.00003855,-0.00001255,-0.00001078,0.00001025,-0
 .00066634,-0.00019107,0.00033943,0.00004776,0.00000768,-0.00005589,0.0
 0015287,0.00024800,-0.00011970,-0.00212342,-0.00646205,0.00034624,-0.0
 0015224,0.00012978,0.00013939,0.00173170,-0.00078939,0.00103485,0.0282
 0878,-0.00918034,0.01617229,0.00010177,0.00099833,-0.00070631,0.001519
 92,0.00144448,-0.00023925,-0.00018085,-0.00003104,0.00000530,-0.001000
 12,0.00003392,0.00001283,-0.00002417,0.00024455,-0.00045655,0.00002080
 ,-0.00006370,-0.00001311,0.00001391,0.00001991,-0.00000266,-0.00000645
 ,-0.00001058,0.00000051,0.05931298,-0.06519579,0.03181745,-0.06592609,
 0.07263366,-0.00000448,-0.00000300,0.00001307,0.00000307,-0.00000083,-
 0.00000103,0.00000304,-0.00000240,-0.00000007,-0.00000655,0.00000525,0
 .00000043,-0.00001249,0.00000536,-0.00002872,-0.00000300,0.00000253,0.
 00000515,-0.00014971,-0.00015303,0.00005395,0.00007763,-0.00004207,0.0
 0004399,0.00002214,-0.00000470,0.00001847,0.00038873,0.00016185,0.0000
 3702,-0.00005389,0.00002659,0.00001183,-0.00018407,-0.00026183,-0.0000
 6073,0.00073180,0.00171250,0.00032270,0.00033712,-0.00014283,0.0004824
 3,-0.00055164,0.00043047,0.00010403,-0.00446605,0.00091513,-0.00387574
 ,0.00043826,0.00012464,0.00043990,-0.00080515,-0.00029881,-0.00005479,
 -0.00010396,0.00005008,-0.00010607,0.00057213,0.00032631,0.00012263,0.
 00025578,-0.00021655,0.00010388,-0.00001110,0.00001913,-0.00001248,-0.
 00000544,-0.00000534,0.00000435,-0.00000274,0.00000194,-0.00000269,-0.
 09955402,0.03232398,-0.10065039,0.11003599,-0.03702217,0.10575347,0.00
 000440,0.00000714,0.00000093,-0.00000358,-0.00000131,-0.00000054,-0.00
 000787,-0.00001293,-0.00000612,0.00000387,-0.00000482,-0.00000179,-0.0
 0000401,-0.00000624,0.00001739,0.00000429,-0.00000332,-0.00001011,0.00
 001217,-0.00000256,-0.00001817,0.00001075,0.00000057,-0.00000081,-0.00
 002781,0.00001719,-0.00003385,-0.00014610,0.00001770,-0.00004885,0.000
 05428,-0.00016858,-0.00005582,-0.00003288,-0.00003931,0.00016164,0.000
 38042,0.00061437,0.00108386,0.00019047,-0.00005750,-0.00013954,-0.0000
 3375,-0.00010844,-0.00006540,-0.00100441,0.00014085,-0.00038671,0.0006
 6490,0.00002062,0.00009738,0.00009857,-0.00035472,-0.00095147,0.000164
 29,-0.00010762,0.00028969,-0.00000795,-0.00005749,-0.00012787,-0.00006
 236,0.00018652,0.00017082,-0.00000791,0.00002117,0.00000684,0.00001313
 ,-0.00000421,-0.00000117,-0.00000540,-0.00000023,0.00002607,-0.0489494
 7,-0.01107107,-0.01738005,-0.00170863,-0.01498487,-0.02377013,0.047660
 00,0.00000298,-0.00000320,-0.00001214,-0.00000002,-0.00000035,-0.00000
 069,0.00000432,0.00000850,0.00000046,0.00000181,-0.00000061,0.00000247
 ,0.00000869,-0.00000622,0.00001402,-0.00000684,-0.00000041,0.00000760,
 0.00004933,0.00003457,-0.00002816,-0.00000536,0.00000271,-0.00000757,0
 .00003948,-0.00001240,0.00002708,0.00018335,-0.00004926,0.00011932,-0.
 00019651,0.00007896,0.00014059,0.00004436,-0.00000144,-0.00007149,-0.0
 0098296,0.00142085,-0.00167750,0.00070893,0.00024202,0.00121903,-0.000
 20213,0.00049645,0.00032029,-0.00260478,-0.01950261,-0.02929262,-0.000
 21877,-0.00638396,0.00190945,0.00085815,0.00124459,-0.00127255,-0.0004
 9772,0.00033642,0.00104875,-0.00004158,-0.00002699,0.00010478,0.000206
 15,0.00036377,0.00034174,0.00000116,-0.00002158,-0.00000513,-0.0000032
 2,0.00000445,0.00000057,0.00000285,0.00000413,-0.00000413,-0.01103206,
 -0.11211702,-0.11081357,-0.00009742,0.00450005,0.00813827,0.01215620,0
 .12559565,-0.00000261,-0.00001386,-0.00003177,-0.00000217,0.00000322,0
 .00000175,0.00000802,0.00003289,0.00000547,0.00001078,-0.00000167,0.00
 000206,-0.00000801,0.00000127,0.00002043,-0.00000093,0.00000721,0.0000
 0863,-0.00003064,-0.00000451,-0.00003479,0.00000709,-0.00000041,0.0000
 1002,0.00002416,-0.00001684,0.00003631,0.00011673,-0.00015068,0.000089
 88,-0.00002460,0.00013208,0.00002025,0.00005240,-0.00010095,-0.0001870
 5,0.00003893,0.00037939,0.00098103,0.00050975,-0.00043146,0.00030441,0
 .00015973,-0.00006588,0.00020890,0.00074831,0.00283107,0.00466663,0.00
 003396,0.00160842,0.00125569,-0.00012838,0.00031310,0.00099008,-0.0003
 8276,-0.00026833,0.00019213,0.00005643,-0.00003612,-0.00009575,-0.0001
 1733,-0.00009028,0.00021542,-0.00001190,-0.00004816,-0.00003197,0.0000
 0046,0.00001105,0.00000212,-0.00000856,-0.00002063,-0.00001897,-0.0176
 1435,-0.11106907,-0.23180847,-0.00053502,-0.00674875,-0.01238520,0.019
 52301,0.12278758,0.25157972,0.00001058,-0.00000541,-0.00002061,-0.0000
 0227,0.00000450,0.00000150,0.00000133,0.00001117,0.00000668,0.00000913
 ,-0.00000507,0.00000233,0.00003207,-0.00001342,0.00004836,0.00000267,-
 0.00000856,-0.00000766,0.00016739,0.00017634,-0.00012513,-0.00006765,0
 .00005686,-0.00004339,-0.00001237,-0.00000142,-0.00001342,-0.00091087,
 0.00035467,-0.00022690,0.00003021,-0.00010044,0.00003736,-0.00087378,0
 .00138337,-0.00050948,-0.00009055,-0.00035374,-0.00020089,-0.00001957,
 0.00002932,-0.00004070,0.00011108,-0.00007944,0.00012526,0.00009132,0.
 00015484,-0.00106913,0.00018516,-0.00050188,-0.00021638,0.00060948,-0.
 00100866,-0.00039431,-0.00000973,0.00013556,-0.00000540,0.00049910,0.0
 0020059,-0.00001396,0.00005277,0.00001101,0.00036087,0.00000187,-0.000
 01467,0.00000074,0.00001907,-0.00000206,0.00000136,-0.00002018,-0.0000
 0442,0.00001307,-0.19985955,-0.04804314,0.11907717,-0.02085653,-0.0062
 1948,0.01683199,0.00272215,0.00162688,-0.00243900,0.21816852,-0.000008
 58,0.00000165,0.00003070,0.00000727,-0.00000404,-0.00000057,0.00000271
 ,-0.00002084,0.00000045,-0.00001859,0.00000725,0.00000186,0.00006611,-
 0.00000464,-0.00004502,0.00000546,-0.00001376,-0.00000202,0.00029809,0
 .00020199,-0.00010593,-0.00015041,0.00008598,-0.00005942,-0.00006605,0
 .00000773,-0.00005654,0.00020536,-0.00032204,0.00017942,0.00008863,-0.
 00016664,-0.00010559,0.00097112,0.00007311,0.00030267,-0.00056398,0.00
 121250,-0.00016825,0.00012302,-0.00006391,-0.00000208,-0.00009398,0.00
 005065,-0.00020079,-0.02619830,-0.00560329,0.01947825,-0.00006816,0.00
 127203,-0.00070867,0.00140008,-0.00672722,0.00050820,0.00016784,0.0000
 7206,0.00020915,0.00008643,0.00006464,-0.00030422,-0.00170715,-0.00065
 283,0.00129879,0.00004798,0.00000777,0.00003872,-0.00002095,-0.0000022
 4,-0.00000439,0.00002627,0.00005400,-0.00000666,-0.04694975,-0.0618101
 9,0.03630976,0.00639350,0.00144656,-0.00608067,0.01380664,0.00378633,-
 0.00906667,0.05220714,0.06706976,0.00001058,0.00000833,-0.00000245,-0.
 00000630,-0.00000417,-0.00000205,-0.00001315,-0.00001853,-0.00001707,0
 .00001346,-0.00000931,-0.00000361,-0.00003869,0.00000597,0.00007252,-0
 .00000065,0.00000886,-0.00001124,-0.00033637,-0.00041290,0.00001743,0.
 00017239,-0.00012714,0.00010474,0.00001399,0.00003582,-0.00000369,0.00
 052727,0.00083745,0.00016072,-0.00003729,-0.00016100,-0.00008726,-0.00
 077195,-0.00040685,0.00013137,0.00076043,-0.00004801,-0.00019632,0.000
 03042,0.00005657,-0.00000752,-0.00013438,-0.00002345,0.00005840,0.0031
 2252,0.00003999,-0.00415917,-0.00038630,0.00026305,0.00063973,-0.00069
 692,0.00166492,0.00061872,-0.00031168,-0.00016499,0.00045344,0.0002586
 5,-0.00009970,0.00003974,0.00056799,0.00015290,0.00016713,-0.00008607,
 0.00007916,-0.00006336,0.00003370,-0.00001240,0.00001154,-0.00003260,-
 0.00002089,0.00005312,0.11844161,0.03716051,-0.13912041,-0.01163215,-0
 .00437810,0.00965296,0.02163827,0.00698815,-0.01604300,-0.13116368,-0.
 04140471,0.14751917,-0.01133187,-0.01140360,-0.01686619,0.00223100,0.0
 0242686,0.00359908,0.01006448,0.04020814,0.00648554,0.00146922,0.00160
 933,0.00081617,-0.00544316,-0.00870336,-0.01952222,0.00013377,-0.00610
 135,0.00073401,0.00071265,0.00002476,0.00047090,-0.00027685,-0.0004566
 4,-0.00018348,0.00018568,-0.00036911,-0.00107392,0.00007686,-0.0002232
 0,-0.00036558,-0.00008471,0.00015438,-0.00013279,0.00019308,-0.0002815
 8,0.00005155,0.00016158,-0.00013480,0.00008443,0.00002466,-0.00000162,
 -0.00002753,-0.00009352,-0.00006173,0.00003784,0.00004951,-0.00001565,
 0.00000469,-0.00000704,-0.00000222,-0.00001820,-0.00000133,0.00001606,
 -0.00000937,0.00000466,0.00000030,0.00000284,-0.00002599,0.00000749,-0
 .00000555,0.00000036,-0.00001962,0.00000641,-0.07621905,-0.00997363,-0
 .01573250,0.00911000,0.01219685,0.01701953,-0.01121893,-0.01070286,-0.
 02730264,0.00001301,0.00001863,-0.00000747,-0.00003849,-0.00000058,-0.
 00000827,0.00001945,-0.00000987,-0.00001182,-0.00000290,-0.00002265,0.
 00003900,0.25365944,0.00436569,0.01095283,0.00182464,-0.00062603,-0.00
 027124,-0.00112490,0.01952116,-0.04156587,0.00257382,-0.00223926,-0.00
 234850,-0.00127525,-0.00868066,-0.03308941,-0.02983370,-0.00222883,-0.
 00593390,0.00016702,0.00005083,0.00220211,-0.00060311,0.00058161,0.000
 46961,-0.00028492,-0.00050667,-0.00043295,-0.00000447,0.00012971,-0.00
 087136,0.00018327,0.00000893,0.00006612,0.00004907,-0.00020469,0.00057
 562,-0.00011130,-0.00013396,0.00035514,-0.00029679,-0.00003496,-0.0000
 1086,0.00006971,0.00011596,0.00006448,-0.00005683,-0.00000427,-0.00010
 704,0.00014155,0.00001087,0.00002368,0.00001472,-0.00004917,0.00005550
 ,-0.00006532,0.00000240,-0.00000023,0.00002401,-0.00005743,-0.00000141
 ,0.00000304,0.00002399,0.00001871,-0.00000757,0.01731654,-0.09064834,-
 0.05084443,0.00046507,-0.00154965,-0.01013029,0.00477793,0.00826787,0.
 01782505,-0.00007316,-0.00002909,-0.00002360,-0.00002106,0.00003986,-0
 .00001090,-0.00001170,0.00001282,0.00004702,0.00002160,-0.00003349,-0.
 00002105,-0.08715689,0.22614557,-0.01110563,-0.00528780,-0.00930272,0.
 00083106,0.00126472,0.00196852,0.00299037,0.02016493,0.00227424,0.0010
 6047,0.00163434,0.00061891,-0.00969680,-0.02155451,-0.01012247,0.00013
 874,-0.00174361,0.00150380,0.00201858,-0.00021391,0.00053756,-0.000427
 57,0.00037975,0.00074415,-0.00061037,0.00070137,0.00115589,0.00011023,
 0.00012271,0.00000406,0.00019412,0.00003581,0.00014229,0.00004006,0.00
 002252,-0.00005764,0.00000485,-0.00000185,0.00000963,-0.00003281,0.000
 01652,0.00003421,-0.00000022,-0.00001584,-0.00000630,-0.00000901,0.000
 00641,-0.00001455,0.00001389,0.00000717,0.00001417,0.00000518,-0.00000
 664,-0.00000075,-0.00000457,0.00000662,0.00000669,0.00000556,-0.000000
 89,0.00000215,-0.00000417,-0.00000658,-0.00000098,0.00759347,-0.070889
 60,-0.16352707,-0.00997587,-0.01809692,-0.03977401,-0.00635940,-0.0039
 7705,-0.01407389,0.00002288,-0.00000281,-0.00002094,0.00000627,-0.0000
 0212,0.00000303,-0.00000688,0.00000548,0.00001160,-0.00001433,-0.00000
 566,0.00000137,0.08221630,0.08326644,0.27724340,-0.00510935,-0.0188784
 2,-0.00035098,-0.00193273,-0.00185532,-0.00261641,-0.04484995,-0.01814
 924,-0.00877633,0.00029064,-0.00029475,-0.00080736,0.00250391,-0.00141
 054,0.00236351,-0.00053955,0.00280790,0.00004838,-0.00052886,0.0004042
 9,-0.00092198,0.00052899,0.00020707,-0.00013067,-0.00049114,-0.0001431
 6,0.00034466,-0.00032438,0.00038043,0.00050553,0.00012246,-0.00007376,
 0.00010607,-0.00004924,-0.00005492,0.00000001,0.00001924,0.00002610,-0
 .00021809,-0.00003631,0.00002488,0.00005331,-0.00000957,-0.00000206,0.
 00001022,0.00001640,-0.00003940,0.00013233,0.00000644,0.00000885,0.000
 00511,-0.00003680,0.00002680,-0.00005609,0.00000625,0.00000328,0.00001
 705,-0.00004553,0.00000238,0.00000064,0.00001555,0.00000596,-0.0000010
 0,-0.02906158,0.01562070,-0.02691338,0.00381181,-0.00116076,0.00291732
 ,0.00142556,-0.00332073,-0.00281198,-0.00002152,-0.00000698,-0.0000548
 2,-0.00003572,0.00001994,-0.00000496,-0.00000100,0.00000459,0.00002833
 ,0.00001205,-0.00003509,0.00001787,-0.17336555,0.05463647,-0.05900442,
 0.24767950,-0.06777430,-0.10136086,-0.06414384,0.00252884,0.00350818,0
 .00557787,0.01464177,0.05027823,0.02762829,0.00556660,0.00612234,0.003
 98720,-0.00064476,0.01413621,-0.00298907,0.00119837,-0.00465876,0.0006
 6082,0.00079105,-0.00101655,0.00093796,-0.00057693,-0.00042095,0.00019
 962,0.00027052,0.00049434,-0.00038729,0.00027117,-0.00013761,-0.000428
 04,-0.00007635,0.00004691,-0.00008889,0.00020641,-0.00020024,0.0001004
 1,0.00008217,-0.00016485,0.00018056,0.00002648,-0.00000139,-0.00004029
 ,-0.00005269,-0.00002554,0.00000424,0.00002317,0.00003466,-0.00007334,
 -0.00000596,-0.00000612,-0.00000573,0.00002441,-0.00001512,0.00002843,
 -0.00000137,0.00000094,-0.00000813,0.00002135,0.00000185,-0.00000240,-
 0.00000956,-0.00001286,0.00000254,-0.00474469,-0.00679291,0.01318390,-
 0.00084893,0.00085467,-0.00225727,-0.00116972,0.00158878,-0.00097623,0
 .00002671,0.00001297,0.00001169,0.00000663,-0.00001485,0.00000112,0.00
 000794,-0.00000625,-0.00002002,-0.00001201,0.00001111,0.00001150,0.078
 97819,-0.07235660,0.01417100,-0.02875451,0.11010028,-0.00382196,-0.009
 58645,0.00271271,-0.00115017,-0.00145303,-0.00036563,-0.01098619,-0.00
 677319,-0.01607285,-0.00069411,0.00029842,0.00026797,0.00202282,0.0003
 4946,0.00014996,-0.00038093,0.00119478,0.00042408,-0.00020172,-0.00007
 885,-0.00112416,0.00005222,0.00007973,0.00018704,-0.00027896,-0.000009
 70,0.00043698,-0.00041656,0.00028906,0.00036284,0.00012874,0.00001943,
 0.00010331,0.00002593,-0.00027199,-0.00009272,0.00004952,-0.00012338,-
 0.00019926,-0.00006349,0.00004215,0.00008495,-0.00005070,-0.00001275,0
 .00004148,0.00000117,-0.00001737,0.00010090,0.00001733,0.00001325,0.00
 001769,-0.00002526,0.00001276,-0.00004786,-0.00000172,0.00000946,0.000
 01827,-0.00002875,0.00000122,0.00000481,0.00000572,-0.00000023,-0.0000
 0091,-0.04605213,0.02439249,-0.02086296,-0.00025468,0.00259223,0.00630
 659,-0.00369164,-0.00418908,-0.00614479,0.00001110,-0.00001070,-0.0000
 6630,-0.00002001,0.00001399,0.00000463,-0.00001063,0.00000994,0.000034
 46,-0.00000233,-0.00003008,0.00001506,-0.03030075,-0.01149494,-0.04937
 436,0.09611815,0.00473338,0.08307808\\0.00000046,0.00000205,0.00000681
 ,-0.00000211,-0.00000257,-0.00000581,-0.00000176,-0.00001006,-0.000001
 47,0.00000200,0.00000353,-0.00000273,0.00000029,-0.00000199,-0.0000044
 2,0.00000058,0.00000463,-0.00000219,0.00000013,-0.00000048,-0.00000028
 ,0.00000109,-0.00000025,-0.00000299,-0.00000005,-0.00000148,-0.0000002
 7,0.00000038,0.00000136,0.00000064,0.00000060,0.00000128,-0.00000058,0
 .00000017,0.00000043,0.00000078,-0.00000087,-0.00000036,0.00000023,0.0
 0000048,-0.00000338,0.00000036,0.00000048,-0.00000182,-0.00000259,-0.0
 0000023,-0.00000076,0.00000013,0.00000107,0.00000088,-0.00000086,-0.00
 000056,-0.00000209,-0.00000120,-0.00000055,-0.00000384,0.00000006,-0.0
 0000033,-0.00000293,-0.00000014,0.00000086,-0.00000281,-0.00000142,-0.
 00000142,0.00000305,-0.00000058,0.00000068,0.00000330,0.00000235,-0.00
 000038,0.00000278,0.00000193,-0.00000075,-0.00000066,0.00000318,-0.000
 00150,-0.00000035,0.00000392,-0.00000031,-0.00000170,0.00000293,-0.000
 00203,0.00000004,0.00000185,-0.00000157,-0.00000008,0.00000719,0.00000
 518,0.00001430,-0.00000483\\\@


 IT IS IMPOSSIBLE TO MEDITATE ON TIME AND THE MYSTERY 
 OF NATURE WITHOUT AN OVERWHELMING EMOTION AT THE
 LIMITATIONS OF HUMAN INTELLIGENCE.

                                         -- ALFRED NORTH WHITEHEAD
 Job cpu time:  0 days  5 hours 55 minutes 55.5 seconds.
 File lengths (MBytes):  RWF=    713 Int=      0 D2E=      0 Chk=     14 Scr=      1
 Normal termination of Gaussian 09 at Fri Feb 14 04:56:24 2014.
