 Entering Gaussian System, Link 0=g09
 Input=C_1_opt_B3LD3.gjf
 Output=C_1_opt_B3LD3.log
 Initial command:
 /HOME/tsinghua_xqyou_1/softwares/gaussian/g09D01/g09/l1.exe "/WORK/tsinghua_xqyou_1/scratch/Gau-41874.inp" -scrdir="/WORK/tsinghua_xqyou_1/scratch/"
 Entering Link 1 = /HOME/tsinghua_xqyou_1/softwares/gaussian/g09D01/g09/l1.exe PID=     41877.
  
 Copyright (c) 1988,1990,1992,1993,1995,1998,2003,2009,2013,
            Gaussian, Inc.  All Rights Reserved.
  
 This is part of the Gaussian(R) 09 program.  It is based on
 the Gaussian(R) 03 system (copyright 2003, Gaussian, Inc.),
 the Gaussian(R) 98 system (copyright 1998, Gaussian, Inc.),
 the Gaussian(R) 94 system (copyright 1995, Gaussian, Inc.),
 the Gaussian 92(TM) system (copyright 1992, Gaussian, Inc.),
 the Gaussian 90(TM) system (copyright 1990, Gaussian, Inc.),
 the Gaussian 88(TM) system (copyright 1988, Gaussian, Inc.),
 the Gaussian 86(TM) system (copyright 1986, Carnegie Mellon
 University), and the Gaussian 82(TM) system (copyright 1983,
 Carnegie Mellon University). Gaussian is a federally registered
 trademark of Gaussian, Inc.
  
 This software contains proprietary and confidential information,
 including trade secrets, belonging to Gaussian, Inc.
  
 This software is provided under written license and may be
 used, copied, transmitted, or stored only in accord with that
 written license.
  
 The following legend is applicable only to US Government
 contracts under FAR:
  
                    RESTRICTED RIGHTS LEGEND
  
 Use, reproduction and disclosure by the US Government is
 subject to restrictions as set forth in subparagraphs (a)
 and (c) of the Commercial Computer Software - Restricted
 Rights clause in FAR 52.227-19.
  
 Gaussian, Inc.
 340 Quinnipiac St., Bldg. 40, Wallingford CT 06492
  
  
 ---------------------------------------------------------------
 Warning -- This program may not be used in any manner that
 competes with the business of Gaussian, Inc. or will provide
 assistance to any competitor of Gaussian, Inc.  The licensee
 of this program is prohibited from giving any competitor of
 Gaussian, Inc. access to this program.  By using this program,
 the user acknowledges that Gaussian, Inc. is engaged in the
 business of creating and licensing software in the field of
 computational chemistry and represents and warrants to the
 licensee that it is not a competitor of Gaussian, Inc. and that
 it will not use this program in any manner prohibited above.
 ---------------------------------------------------------------
  

 Cite this work as:
 Gaussian 09, Revision D.01,
 M. J. Frisch, G. W. Trucks, H. B. Schlegel, G. E. Scuseria, 
 M. A. Robb, J. R. Cheeseman, G. Scalmani, V. Barone, B. Mennucci, 
 G. A. Petersson, H. Nakatsuji, M. Caricato, X. Li, H. P. Hratchian, 
 A. F. Izmaylov, J. Bloino, G. Zheng, J. L. Sonnenberg, M. Hada, 
 M. Ehara, K. Toyota, R. Fukuda, J. Hasegawa, M. Ishida, T. Nakajima, 
 Y. Honda, O. Kitao, H. Nakai, T. Vreven, J. A. Montgomery, Jr., 
 J. E. Peralta, F. Ogliaro, M. Bearpark, J. J. Heyd, E. Brothers, 
 K. N. Kudin, V. N. Staroverov, T. Keith, R. Kobayashi, J. Normand, 
 K. Raghavachari, A. Rendell, J. C. Burant, S. S. Iyengar, J. Tomasi, 
 M. Cossi, N. Rega, J. M. Millam, M. Klene, J. E. Knox, J. B. Cross, 
 V. Bakken, C. Adamo, J. Jaramillo, R. Gomperts, R. E. Stratmann, 
 O. Yazyev, A. J. Austin, R. Cammi, C. Pomelli, J. W. Ochterski, 
 R. L. Martin, K. Morokuma, V. G. Zakrzewski, G. A. Voth, 
 P. Salvador, J. J. Dannenberg, S. Dapprich, A. D. Daniels, 
 O. Farkas, J. B. Foresman, J. V. Ortiz, J. Cioslowski, 
 and D. J. Fox, Gaussian, Inc., Wallingford CT, 2013.
 
 ******************************************
 Gaussian 09:  ES64L-G09RevD.01 24-Apr-2013
                13-Apr-2016 
 ******************************************
 -----------------------------------------
 #p M062X/def2TZVP EmpiricalDispersion=GD3
 -----------------------------------------
 1/38=1/1;
 2/12=2,17=6,18=5,40=1/2;
 3/5=44,7=101,11=2,16=1,25=1,30=1,74=-55,124=31/1,2,3;
 4//1;
 5/5=2,38=5/2;
 6/7=2,8=2,9=2,10=2,28=1/1;
 99/5=1,9=1/99;
 Leave Link    1 at Wed Apr 13 15:15:43 2016, MaxMem=           0 cpu:         0.1
 (Enter /HOME/tsinghua_xqyou_1/softwares/gaussian/g09D01/g09/l101.exe)
 -------------------
 Title Card Required
 -------------------
 Symbolic Z-matrix:
 Charge =  0 Multiplicity = 3
 C                     0.        0.        0. 
 
 NAtoms=      1 NQM=        1 NQMF=       0 NMMI=      0 NMMIF=      0
                NMic=       0 NMicF=      0.
                    Isotopes and Nuclear Properties:
 (Nuclear quadrupole moments (NQMom) in fm**2, nuclear magnetic moments (NMagM)
  in nuclear magnetons)

  Atom         1
 IAtWgt=          12
 AtmWgt=  12.0000000
 NucSpn=           0
 AtZEff=   0.0000000
 NQMom=    0.0000000
 NMagM=    0.0000000
 AtZNuc=   6.0000000
 Leave Link  101 at Wed Apr 13 15:15:44 2016, MaxMem=    33554432 cpu:         0.2
 (Enter /HOME/tsinghua_xqyou_1/softwares/gaussian/g09D01/g09/l202.exe)
                          Input orientation:                          
 ---------------------------------------------------------------------
 Center     Atomic      Atomic             Coordinates (Angstroms)
 Number     Number       Type             X           Y           Z
 ---------------------------------------------------------------------
      1          6           0        0.000000    0.000000    0.000000
 ---------------------------------------------------------------------
 Stoichiometry    C(3)
 Framework group  OH[O(C)]
 Deg. of freedom     0
 Full point group                 OH      NOp  48
 Largest Abelian subgroup         D2H     NOp   8
 Largest concise Abelian subgroup C1      NOp   1
                         Standard orientation:                         
 ---------------------------------------------------------------------
 Center     Atomic      Atomic             Coordinates (Angstroms)
 Number     Number       Type             X           Y           Z
 ---------------------------------------------------------------------
      1          6           0        0.000000    0.000000    0.000000
 ---------------------------------------------------------------------
 Leave Link  202 at Wed Apr 13 15:15:45 2016, MaxMem=    33554432 cpu:         0.0
 (Enter /HOME/tsinghua_xqyou_1/softwares/gaussian/g09D01/g09/l301.exe)
 Standard basis: def2TZVP (5D, 7F)
 Ernie: Thresh=  0.10000D-02 Tol=  0.10000D-05 Strict=F.
 There are    11 symmetry adapted cartesian basis functions of AG  symmetry.
 There are     2 symmetry adapted cartesian basis functions of B1G symmetry.
 There are     2 symmetry adapted cartesian basis functions of B2G symmetry.
 There are     2 symmetry adapted cartesian basis functions of B3G symmetry.
 There are     1 symmetry adapted cartesian basis functions of AU  symmetry.
 There are     6 symmetry adapted cartesian basis functions of B1U symmetry.
 There are     6 symmetry adapted cartesian basis functions of B2U symmetry.
 There are     6 symmetry adapted cartesian basis functions of B3U symmetry.
 There are     9 symmetry adapted basis functions of AG  symmetry.
 There are     2 symmetry adapted basis functions of B1G symmetry.
 There are     2 symmetry adapted basis functions of B2G symmetry.
 There are     2 symmetry adapted basis functions of B3G symmetry.
 There are     1 symmetry adapted basis functions of AU  symmetry.
 There are     5 symmetry adapted basis functions of B1U symmetry.
 There are     5 symmetry adapted basis functions of B2U symmetry.
 There are     5 symmetry adapted basis functions of B3U symmetry.
    31 basis functions,    51 primitive gaussians,    36 cartesian basis functions
     4 alpha electrons        2 beta electrons
       nuclear repulsion energy         0.0000000000 Hartrees.
 IExCor= 4336 DFT=T Ex+Corr=M062X ExCW=0 ScaHFX=  0.540000
 ScaDFX=  1.000000  1.000000  1.000000  1.000000 ScalE2=  1.000000  1.000000
 IRadAn=      0 IRanWt=     -1 IRanGd=            0 ICorTp=0 IEmpDi=131
 NAtoms=    1 NActive=    1 NUniq=    1 SFac= 1.00D+00 NAtFMM=   60 NAOKFM=F Big=F
 Integral buffers will be    131072 words long.
 Raffenetti 2 integral format.
 Two-electron integral symmetry is turned on.
 R6Disp:  Grimme-D3 Dispersion energy=        0.0000000000 Hartrees.
 Nuclear repulsion after empirical dispersion term =        0.0000000000 Hartrees.
 Leave Link  301 at Wed Apr 13 15:15:48 2016, MaxMem=    33554432 cpu:         0.1
 (Enter /HOME/tsinghua_xqyou_1/softwares/gaussian/g09D01/g09/l302.exe)
 NPDir=0 NMtPBC=     1 NCelOv=     1 NCel=       1 NClECP=     1 NCelD=      1
         NCelK=      1 NCelE2=     1 NClLst=     1 CellRange=     0.0.
 One-electron integrals computed using PRISM.
   1 Symmetry operations used in ECPInt.
 ECPInt:  NShTT=      66 NPrTT=     232 LenC2=      67 LenP2D=     232.
 LDataN:  DoStor=T MaxTD1= 6 Len=  172
 NBasis=    31 RedAO= T EigKep=  8.09D-02  NBF=     9     2     2     2     1     5     5     5
 NBsUse=    31 1.00D-06 EigRej= -1.00D+00 NBFU=     9     2     2     2     1     5     5     5
 Precomputing XC quadrature grid using
 IXCGrd= 4 IRadAn=           0 IRanWt=          -1 IRanGd=           0 AccXCQ= 0.00D+00.
 Generated NRdTot=       0 NPtTot=           0 NUsed=           0 NTot=          32
 NSgBfM=    36    36    36    36    36 MxSgAt=     1 MxSgA2=     1.
 Leave Link  302 at Wed Apr 13 15:15:49 2016, MaxMem=    33554432 cpu:         0.3
 (Enter /HOME/tsinghua_xqyou_1/softwares/gaussian/g09D01/g09/l303.exe)
 DipDrv:  MaxL=1.
 Leave Link  303 at Wed Apr 13 15:15:50 2016, MaxMem=    33554432 cpu:         0.1
 (Enter /HOME/tsinghua_xqyou_1/softwares/gaussian/g09D01/g09/l401.exe)
 ExpMin= 9.52D-02 ExpMax= 1.36D+04 ExpMxC= 4.63D+02 IAcc=2 IRadAn=         4 AccDes= 0.00D+00
 Harris functional with IExCor= 1009 and IRadAn=       4 diagonalized for initial guess.
 HarFok:  IExCor= 1009 AccDes= 0.00D+00 IRadAn=         4 IDoV= 1 UseB2=F ITyADJ=14
 ICtDFT=  3500011 ScaDFX=  1.000000  1.000000  1.000000  1.000000
 FoFCou: FMM=F IPFlag=           0 FMFlag=      100000 FMFlg1=           0
         NFxFlg=           0 DoJE=T BraDBF=F KetDBF=T FulRan=T
         wScrn=  0.000000 ICntrl=     500 IOpCl=  0 I1Cent=   200000004 NGrid=           0
         NMat0=    1 NMatS0=      1 NMatT0=    0 NMatD0=    1 NMtDS0=    0 NMtDT0=    0
 Petite list used in FoFCou.
 Harris En= -37.7381885772371    
 JPrj=0 DoOrth=F DoCkMO=F.
 Initial guess orbital symmetries:
 Alpha Orbitals:
       Occupied  (A1G) (A1G) (T1U) (T1U)
       Virtual   (T1U) (A1G) (T1U) (T1U) (T1U) (EG) (T2G) (T2G)
                 (T2G) (EG) (A1G) (T1U) (T1U) (T1U) (?A) (?A) (?A)
                 (A2U) (?A) (?A) (?A) (EG) (T2G) (T2G) (T2G) (EG)
                 (A1G)
 Beta  Orbitals:
       Occupied  (A1G) (A1G)
       Virtual   (T1U) (T1U) (T1U) (A1G) (T1U) (T1U) (T1U) (EG)
                 (T2G) (T2G) (T2G) (EG) (A1G) (T1U) (T1U) (T1U)
                 (?A) (?A) (?A) (A2U) (?A) (?A) (?A) (EG) (T2G)
                 (T2G) (T2G) (EG) (A1G)
 Initial guess <Sx>= 0.0000 <Sy>= 0.0000 <Sz>= 1.0000 <S**2>= 2.0000 S= 1.0000
 Leave Link  401 at Wed Apr 13 15:15:50 2016, MaxMem=    33554432 cpu:         0.3
 (Enter /HOME/tsinghua_xqyou_1/softwares/gaussian/g09D01/g09/l502.exe)
 UHF open shell SCF:
 Using DIIS extrapolation, IDIIS=  1040.
 Integral symmetry usage will be decided dynamically.
 Keep R1 and R2 ints in memory in symmetry-blocked form, NReq=2099364.
 IVT=       23459 IEndB=       23459 NGot=    33554432 MDV=    33493193
 LenX=    33493193 LenY=    33491456
 Requested convergence on RMS density matrix=1.00D-08 within 128 cycles.
 Requested convergence on MAX density matrix=1.00D-06.
 Requested convergence on             energy=1.00D-06.
 No special actions if energy rises.
 FoFCou: FMM=F IPFlag=           0 FMFlag=           0 FMFlg1=           0
         NFxFlg=           0 DoJE=F BraDBF=F KetDBF=F FulRan=T
         wScrn=  0.000000 ICntrl=     600 IOpCl=  0 I1Cent=           0 NGrid=           0
         NMat0=    1 NMatS0=    496 NMatT0=    0 NMatD0=    1 NMtDS0=    0 NMtDT0=    0
 Petite list used in FoFCou.
 Integral accuracy reduced to 1.0D-05 until final iterations.

 Cycle   1  Pass 0  IDiag  1:
 Density matrix breaks symmetry, PCut= 1.00D-04
 Density has only Abelian symmetry.
 E= -37.8345799570377    
 DIIS: error= 2.14D-02 at cycle   1 NSaved=   1.
 NSaved= 1 IEnMin= 1 EnMin= -37.8345799570377     IErMin= 1 ErrMin= 2.14D-02
 ErrMax= 2.14D-02  0.00D+00 EMaxC= 1.00D-01 BMatC= 2.68D-02 BMatP= 2.68D-02
 IDIUse=3 WtCom= 7.86D-01 WtEn= 2.14D-01
 Coeff-Com:  0.100D+01
 Coeff-En:   0.100D+01
 Coeff:      0.100D+01
 Gap=     0.217 Goal=   None    Shift=    0.000
 Gap=     0.487 Goal=   None    Shift=    0.000
 GapD=    0.217 DampG=1.000 DampE=0.500 DampFc=0.5000 IDamp=-1.
 Damping current iteration by 5.00D-01
 RMSDP=3.48D-03 MaxDP=4.65D-02              OVMax= 6.37D-02

 Cycle   2  Pass 0  IDiag  1:
 Density matrix breaks symmetry, PCut= 1.00D-04
 Density has only Abelian symmetry.
 E= -37.8382072574071     Delta-E=       -0.003627300369 Rises=F Damp=T
 DIIS: error= 9.85D-03 at cycle   2 NSaved=   2.
 NSaved= 2 IEnMin= 2 EnMin= -37.8382072574071     IErMin= 2 ErrMin= 9.85D-03
 ErrMax= 9.85D-03  0.00D+00 EMaxC= 1.00D-01 BMatC= 5.71D-03 BMatP= 2.68D-02
 IDIUse=3 WtCom= 9.02D-01 WtEn= 9.85D-02
 Coeff-Com: -0.686D+00 0.169D+01
 Coeff-En:   0.000D+00 0.100D+01
 Coeff:     -0.619D+00 0.162D+01
 Gap=     0.226 Goal=   None    Shift=    0.000
 Gap=     0.475 Goal=   None    Shift=    0.000
 RMSDP=1.76D-03 MaxDP=2.30D-02 DE=-3.63D-03 OVMax= 1.83D-02

 Cycle   3  Pass 0  IDiag  1:
 Density matrix breaks symmetry, PCut= 1.00D-04
 Density has only Abelian symmetry.
 E= -37.8419520745076     Delta-E=       -0.003744817101 Rises=F Damp=F
 DIIS: error= 1.48D-03 at cycle   3 NSaved=   3.
 NSaved= 3 IEnMin= 3 EnMin= -37.8419520745076     IErMin= 3 ErrMin= 1.48D-03
 ErrMax= 1.48D-03  0.00D+00 EMaxC= 1.00D-01 BMatC= 7.79D-05 BMatP= 5.71D-03
 IDIUse=3 WtCom= 9.85D-01 WtEn= 1.48D-02
 Coeff-Com: -0.662D-02-0.423D-01 0.105D+01
 Coeff-En:   0.000D+00 0.000D+00 0.100D+01
 Coeff:     -0.652D-02-0.417D-01 0.105D+01
 Gap=     0.226 Goal=   None    Shift=    0.000
 Gap=     0.472 Goal=   None    Shift=    0.000
 RMSDP=2.65D-04 MaxDP=4.22D-03 DE=-3.74D-03 OVMax= 4.62D-03

 Cycle   4  Pass 0  IDiag  1:
 Density matrix breaks symmetry, PCut= 1.00D-04
 Density has only Abelian symmetry.
 E= -37.8420027233344     Delta-E=       -0.000050648827 Rises=F Damp=F
 DIIS: error= 5.00D-04 at cycle   4 NSaved=   4.
 NSaved= 4 IEnMin= 4 EnMin= -37.8420027233344     IErMin= 4 ErrMin= 5.00D-04
 ErrMax= 5.00D-04  0.00D+00 EMaxC= 1.00D-01 BMatC= 6.38D-06 BMatP= 7.79D-05
 IDIUse=3 WtCom= 9.95D-01 WtEn= 5.00D-03
 Coeff-Com:  0.404D-01-0.703D-01-0.314D+00 0.134D+01
 Coeff-En:   0.000D+00 0.000D+00 0.000D+00 0.100D+01
 Coeff:      0.402D-01-0.700D-01-0.313D+00 0.134D+01
 Gap=     0.227 Goal=   None    Shift=    0.000
 Gap=     0.471 Goal=   None    Shift=    0.000
 RMSDP=9.91D-05 MaxDP=2.35D-03 DE=-5.06D-05 OVMax= 1.87D-03

 Cycle   5  Pass 0  IDiag  1:
 Density matrix breaks symmetry, PCut= 1.00D-04
 Density has only Abelian symmetry.
 E= -37.8420062443956     Delta-E=       -0.000003521061 Rises=F Damp=F
 DIIS: error= 1.18D-05 at cycle   5 NSaved=   5.
 NSaved= 5 IEnMin= 5 EnMin= -37.8420062443956     IErMin= 5 ErrMin= 1.18D-05
 ErrMax= 1.18D-05  0.00D+00 EMaxC= 1.00D-01 BMatC= 1.18D-08 BMatP= 6.38D-06
 IDIUse=1 WtCom= 1.00D+00 WtEn= 0.00D+00
 Coeff-Com: -0.629D-02 0.113D-01 0.447D-01-0.203D+00 0.115D+01
 Coeff:     -0.629D-02 0.113D-01 0.447D-01-0.203D+00 0.115D+01
 Gap=     0.227 Goal=   None    Shift=    0.000
 Gap=     0.471 Goal=   None    Shift=    0.000
 RMSDP=2.19D-06 MaxDP=4.42D-05 DE=-3.52D-06 OVMax= 4.01D-05

 Initial convergence to 1.0D-05 achieved.  Increase integral accuracy.
 Cycle   6  Pass 1  IDiag  1:
 Density matrix breaks symmetry, PCut= 1.00D-04
 Density has only Abelian symmetry.
 E= -37.8425014452865     Delta-E=       -0.000495200891 Rises=F Damp=F
 DIIS: error= 1.71D-03 at cycle   1 NSaved=   1.
 NSaved= 1 IEnMin= 1 EnMin= -37.8425014452865     IErMin= 1 ErrMin= 1.71D-03
 ErrMax= 1.71D-03  0.00D+00 EMaxC= 1.00D-01 BMatC= 6.66D-05 BMatP= 6.66D-05
 IDIUse=3 WtCom= 9.83D-01 WtEn= 1.71D-02
 Coeff-Com:  0.100D+01
 Coeff-En:   0.100D+01
 Coeff:      0.100D+01
 Gap=     0.227 Goal=   None    Shift=    0.000
 Gap=     0.472 Goal=   None    Shift=    0.000
 RMSDP=2.19D-06 MaxDP=4.42D-05 DE=-4.95D-04 OVMax= 2.02D-03

 Cycle   7  Pass 1  IDiag  1:
 Density matrix breaks symmetry, PCut= 1.00D-04
 Density has only Abelian symmetry.
 E= -37.8425103741649     Delta-E=       -0.000008928878 Rises=F Damp=F
 DIIS: error= 1.61D-04 at cycle   2 NSaved=   2.
 NSaved= 2 IEnMin= 2 EnMin= -37.8425103741649     IErMin= 2 ErrMin= 1.61D-04
 ErrMax= 1.61D-04  0.00D+00 EMaxC= 1.00D-01 BMatC= 1.21D-06 BMatP= 6.66D-05
 IDIUse=3 WtCom= 9.98D-01 WtEn= 1.61D-03
 Coeff-Com: -0.730D-01 0.107D+01
 Coeff-En:   0.000D+00 0.100D+01
 Coeff:     -0.729D-01 0.107D+01
 Gap=     0.227 Goal=   None    Shift=    0.000
 Gap=     0.471 Goal=   None    Shift=    0.000
 RMSDP=2.70D-05 MaxDP=5.62D-04 DE=-8.93D-06 OVMax= 3.77D-04

 Cycle   8  Pass 1  IDiag  1:
 Density matrix breaks symmetry, PCut= 1.00D-04
 Density has only Abelian symmetry.
 E= -37.8425108667479     Delta-E=       -0.000000492583 Rises=F Damp=F
 DIIS: error= 6.03D-05 at cycle   3 NSaved=   3.
 NSaved= 3 IEnMin= 3 EnMin= -37.8425108667479     IErMin= 3 ErrMin= 6.03D-05
 ErrMax= 6.03D-05  0.00D+00 EMaxC= 1.00D-01 BMatC= 7.62D-08 BMatP= 1.21D-06
 IDIUse=1 WtCom= 1.00D+00 WtEn= 0.00D+00
 Coeff-Com: -0.197D-01 0.214D-01 0.998D+00
 Coeff:     -0.197D-01 0.214D-01 0.998D+00
 Gap=     0.227 Goal=   None    Shift=    0.000
 Gap=     0.471 Goal=   None    Shift=    0.000
 RMSDP=7.61D-06 MaxDP=1.85D-04 DE=-4.93D-07 OVMax= 1.62D-04

 Cycle   9  Pass 1  IDiag  1:
 Density matrix breaks symmetry, PCut= 1.00D-04
 Density has only Abelian symmetry.
 E= -37.8425108965331     Delta-E=       -0.000000029785 Rises=F Damp=F
 DIIS: error= 1.09D-05 at cycle   4 NSaved=   4.
 NSaved= 4 IEnMin= 4 EnMin= -37.8425108965331     IErMin= 4 ErrMin= 1.09D-05
 ErrMax= 1.09D-05  0.00D+00 EMaxC= 1.00D-01 BMatC= 3.41D-09 BMatP= 7.62D-08
 IDIUse=1 WtCom= 1.00D+00 WtEn= 0.00D+00
 Coeff-Com:  0.304D-02-0.628D-01 0.511D-01 0.101D+01
 Coeff:      0.304D-02-0.628D-01 0.511D-01 0.101D+01
 Gap=     0.227 Goal=   None    Shift=    0.000
 Gap=     0.471 Goal=   None    Shift=    0.000
 RMSDP=1.71D-06 MaxDP=2.34D-05 DE=-2.98D-08 OVMax= 3.16D-05

 Cycle  10  Pass 1  IDiag  1:
 Density matrix breaks symmetry, PCut= 1.00D-04
 Density has only Abelian symmetry.
 E= -37.8425108983401     Delta-E=       -0.000000001807 Rises=F Damp=F
 DIIS: error= 1.03D-06 at cycle   5 NSaved=   5.
 NSaved= 5 IEnMin= 5 EnMin= -37.8425108983401     IErMin= 5 ErrMin= 1.03D-06
 ErrMax= 1.03D-06  0.00D+00 EMaxC= 1.00D-01 BMatC= 3.40D-11 BMatP= 3.41D-09
 IDIUse=1 WtCom= 1.00D+00 WtEn= 0.00D+00
 Coeff-Com: -0.409D-04 0.544D-02-0.268D-01-0.574D-01 0.108D+01
 Coeff:     -0.409D-04 0.544D-02-0.268D-01-0.574D-01 0.108D+01
 Gap=     0.227 Goal=   None    Shift=    0.000
 Gap=     0.471 Goal=   None    Shift=    0.000
 RMSDP=1.92D-07 MaxDP=3.39D-06 DE=-1.81D-09 OVMax= 3.23D-06

 Cycle  11  Pass 1  IDiag  1:
 Density matrix breaks symmetry, PCut= 1.00D-04
 Density has only Abelian symmetry.
 E= -37.8425108983531     Delta-E=       -0.000000000013 Rises=F Damp=F
 DIIS: error= 4.49D-08 at cycle   6 NSaved=   6.
 NSaved= 6 IEnMin= 6 EnMin= -37.8425108983531     IErMin= 6 ErrMin= 4.49D-08
 ErrMax= 4.49D-08  0.00D+00 EMaxC= 1.00D-01 BMatC= 9.58D-14 BMatP= 3.40D-11
 IDIUse=1 WtCom= 1.00D+00 WtEn= 0.00D+00
 Coeff-Com: -0.213D-04 0.157D-03 0.181D-02-0.496D-02-0.883D-01 0.109D+01
 Coeff:     -0.213D-04 0.157D-03 0.181D-02-0.496D-02-0.883D-01 0.109D+01
 Gap=     0.227 Goal=   None    Shift=    0.000
 Gap=     0.471 Goal=   None    Shift=    0.000
 RMSDP=8.67D-09 MaxDP=1.39D-07 DE=-1.30D-11 OVMax= 1.58D-07

 Density matrix breaks symmetry, PCut= 1.00D-04
 Density has only Abelian symmetry.
 SCF Done:  E(UM062X) =  -37.8425108984     A.U. after   11 cycles
            NFock= 11  Conv=0.87D-08     -V/T= 2.0033
 <Sx>= 0.0000 <Sy>= 0.0000 <Sz>= 1.0000 <S**2>= 2.0036 S= 1.0012
 <L.S>= 0.000000000000E+00
 KE= 3.771841233982D+01 PE=-8.819299315471D+01 EE= 1.263206991653D+01
 Annihilation of the first spin contaminant:
 S**2 before annihilation     2.0036,   after     2.0000
 Leave Link  502 at Wed Apr 13 15:15:52 2016, MaxMem=    33554432 cpu:         0.9
 (Enter /HOME/tsinghua_xqyou_1/softwares/gaussian/g09D01/g09/l601.exe)
 Copying SCF densities to generalized density rwf, IOpCl= 1 IROHF=0.

 **********************************************************************

            Population analysis using the SCF density.

 **********************************************************************

 Orbital symmetries:
 Alpha Orbitals:
       Occupied  (A1G) (?A) (?B) (?B)
       Virtual   (?B) (?A) (?B) (?B) (?B) (?A) (T2G) (T2G) (T2G)
                 (?A) (A1G) (?B) (?B) (?B) (?C) (?C) (A2U) (?C)
                 (?C) (?C) (?C) (EG) (T2G) (EG) (T2G) (T2G) (A1G)
 Beta  Orbitals:
       Occupied  (A1G) (?A)
       Virtual   (?B) (?B) (?B) (A1G) (?B) (?B) (?B) (?A) (T2G)
                 (T2G) (?A) (T2G) (?A) (?B) (?B) (?B) (?B) (?B)
                 (?B) (?B) (A2U) (?B) (?B) (?A) (T2G) (T2G) (?A)
                 (T2G) (A1G)
 Unable to determine electronic state:  an orbital has unidentified symmetry.
 Alpha  occ. eigenvalues --  -10.66150  -0.66879  -0.32396  -0.32396
 Alpha virt. eigenvalues --   -0.09725   0.19745   0.28275   0.28275   0.28645
 Alpha virt. eigenvalues --    0.70468   0.70468   0.70536   0.70536   0.71211
 Alpha virt. eigenvalues --    1.24001   1.41048   1.41048   1.42109   2.64309
 Alpha virt. eigenvalues --    2.64309   2.65277   2.65292   2.65604   2.65837
 Alpha virt. eigenvalues --    2.65837   2.89329   2.89343   2.89877   2.90848
 Alpha virt. eigenvalues --    2.90848  21.29673
  Beta  occ. eigenvalues --  -10.64177  -0.53933
  Beta virt. eigenvalues --   -0.06794  -0.04114  -0.04114   0.14104   0.25784
  Beta virt. eigenvalues --    0.25784   0.26201   0.70458   0.71089   0.71089
  Beta virt. eigenvalues --    0.72201   0.72201   1.25450   1.40906   1.46326
  Beta virt. eigenvalues --    1.46326   2.61805   2.62202   2.62202   2.62888
  Beta virt. eigenvalues --    2.62888   2.64586   2.64586   2.94225   2.95529
  Beta virt. eigenvalues --    2.95529   3.00052   3.00052  21.30411
          Condensed to atoms (all electrons):
               1
     1  C    6.000000
          Atomic-Atomic Spin Densities.
               1
     1  C    2.000000
 Mulliken charges and spin densities:
               1          2
     1  C    0.000000   2.000000
 Sum of Mulliken charges =   0.00000   2.00000
 Mulliken charges and spin densities with hydrogens summed into heavy atoms:
               1          2
     1  C    0.000000   2.000000
 Electronic spatial extent (au):  <R**2>=             13.9061
 Charge=              0.0000 electrons
 Dipole moment (field-independent basis, Debye):
    X=              0.0000    Y=              0.0000    Z=              0.0000  Tot=              0.0000
 Quadrupole moment (field-independent basis, Debye-Ang):
   XX=             -4.9297   YY=             -6.8872   ZZ=             -6.8872
   XY=              0.0000   XZ=              0.0000   YZ=              0.0000
 Traceless Quadrupole moment (field-independent basis, Debye-Ang):
   XX=              1.3050   YY=             -0.6525   ZZ=             -0.6525
   XY=              0.0000   XZ=              0.0000   YZ=              0.0000
 Octapole moment (field-independent basis, Debye-Ang**2):
  XXX=              0.0000  YYY=              0.0000  ZZZ=              0.0000  XYY=              0.0000
  XXY=              0.0000  XXZ=              0.0000  XZZ=              0.0000  YZZ=              0.0000
  YYZ=              0.0000  XYZ=              0.0000
 Hexadecapole moment (field-independent basis, Debye-Ang**3):
 XXXX=             -5.0465 YYYY=             -9.2034 ZZZZ=             -9.2034 XXXY=              0.0000
 XXXZ=              0.0000 YYYX=              0.0000 YYYZ=              0.0000 ZZZX=              0.0000
 ZZZY=              0.0000 XXYY=             -2.3769 XXZZ=             -2.3769 YYZZ=             -3.0678
 XXYZ=              0.0000 YYXZ=              0.0000 ZZXY=              0.0000
 N-N= 0.000000000000D+00 E-N=-8.819299352950D+01  KE= 3.771841233982D+01
 Symmetry AG   KE= 3.515235891606D+01
 Symmetry B1G  KE= 4.256922363910D-36
 Symmetry B2G  KE= 4.256922363910D-36
 Symmetry B3G  KE= 1.488596987465D-52
 Symmetry AU   KE= 6.145567304808D-37
 Symmetry B1U  KE= 1.283026711881D+00
 Symmetry B2U  KE= 1.283026711881D+00
 Symmetry B3U  KE= 4.812418273115D-33
                          Isotropic Fermi Contact Couplings
        Atom                 a.u.       MegaHertz       Gauss      10(-4) cm-1
     1  C(13)              0.17084      96.02743      34.26497      32.03130
 --------------------------------------------------------
       Center         ----  Spin Dipole Couplings  ----
                      3XX-RR        3YY-RR        3ZZ-RR
 --------------------------------------------------------
     1   Atom       -1.410783      0.705391      0.705391
 --------------------------------------------------------
                        XY            XZ            YZ
 --------------------------------------------------------
     1   Atom        0.000000      0.000000      0.000000
 --------------------------------------------------------


 ---------------------------------------------------------------------------------
              Anisotropic Spin Dipole Couplings in Principal Axis System
 ---------------------------------------------------------------------------------

       Atom             a.u.   MegaHertz   Gauss  10(-4) cm-1        Axes

              Baa    -1.4108  -189.314   -67.552   -63.148  1.0000  0.0000  0.0000
     1 C(13)  Bbb     0.7054    94.657    33.776    31.574  0.0000  0.0000  1.0000
              Bcc     0.7054    94.657    33.776    31.574  0.0000  1.0000  0.0000
 

 ---------------------------------------------------------------------------------

 No NMR shielding tensors so no spin-rotation constants.
 Leave Link  601 at Wed Apr 13 15:16:03 2016, MaxMem=    33554432 cpu:         0.5
 (Enter /HOME/tsinghua_xqyou_1/softwares/gaussian/g09D01/g09/l9999.exe)
 1\1\GINC-LN1\SP\UM062X\def2TZVP\C1(3)\TSINGHUA_XQYOU_1\13-Apr-2016\0\\
 #p M062X/def2TZVP EmpiricalDispersion=GD3\\Title Card Required\\0,3\C,
 0,0.,0.,0.\\Version=ES64L-G09RevD.01\HF=-37.8425109\S2=2.003566\S2-1=0
 .\S2A=2.\RMSD=8.674e-09\Dipole=0.,0.,0.\Quadrupole=-0.4851252,-0.48512
 52,0.9702504,0.,0.,0.\PG=OH [O(C1)]\\@


 WORK FAITHFULLY FOR EIGHT HOURS A DAY AND DON'T WORRY.
 IN TIME YOU MAY BECOME BOSS AND WORK TWELVE HOURS A DAY
 AND HAVE ALL THE WORRY.
 Job cpu time:       0 days  0 hours  0 minutes  3.0 seconds.
 File lengths (MBytes):  RWF=      5 Int=      0 D2E=      0 Chk=      1 Scr=      1
 Normal termination of Gaussian 09 at Wed Apr 13 15:16:04 2016.
