 Entering Gaussian System, Link 0=/home/hetanjin/apps/g09D01/g09/g09
 Input=C4H10_2_3_opt_M06.gjf
 Output=C4H10_2_3_opt_M06.log
 Initial command:
 /home/hetanjin/apps/g09D01/g09/l1.exe "/state/partition1/Gau-25118.inp" -scrdir="/state/partition1/"
 Entering Link 1 = /home/hetanjin/apps/g09D01/g09/l1.exe PID=     25120.
  
 Copyright (c) 1988,1990,1992,1993,1995,1998,2003,2009,2013,
            Gaussian, Inc.  All Rights Reserved.
  
 This is part of the Gaussian(R) 09 program.  It is based on
 the Gaussian(R) 03 system (copyright 2003, Gaussian, Inc.),
 the Gaussian(R) 98 system (copyright 1998, Gaussian, Inc.),
 the Gaussian(R) 94 system (copyright 1995, Gaussian, Inc.),
 the Gaussian 92(TM) system (copyright 1992, Gaussian, Inc.),
 the Gaussian 90(TM) system (copyright 1990, Gaussian, Inc.),
 the Gaussian 88(TM) system (copyright 1988, Gaussian, Inc.),
 the Gaussian 86(TM) system (copyright 1986, Carnegie Mellon
 University), and the Gaussian 82(TM) system (copyright 1983,
 Carnegie Mellon University). Gaussian is a federally registered
 trademark of Gaussian, Inc.
  
 This software contains proprietary and confidential information,
 including trade secrets, belonging to Gaussian, Inc.
  
 This software is provided under written license and may be
 used, copied, transmitted, or stored only in accord with that
 written license.
  
 The following legend is applicable only to US Government
 contracts under FAR:
  
                    RESTRICTED RIGHTS LEGEND
  
 Use, reproduction and disclosure by the US Government is
 subject to restrictions as set forth in subparagraphs (a)
 and (c) of the Commercial Computer Software - Restricted
 Rights clause in FAR 52.227-19.
  
 Gaussian, Inc.
 340 Quinnipiac St., Bldg. 40, Wallingford CT 06492
  
  
 ---------------------------------------------------------------
 Warning -- This program may not be used in any manner that
 competes with the business of Gaussian, Inc. or will provide
 assistance to any competitor of Gaussian, Inc.  The licensee
 of this program is prohibited from giving any competitor of
 Gaussian, Inc. access to this program.  By using this program,
 the user acknowledges that Gaussian, Inc. is engaged in the
 business of creating and licensing software in the field of
 computational chemistry and represents and warrants to the
 licensee that it is not a competitor of Gaussian, Inc. and that
 it will not use this program in any manner prohibited above.
 ---------------------------------------------------------------
  

 Cite this work as:
 Gaussian 09, Revision D.01,
 M. J. Frisch, G. W. Trucks, H. B. Schlegel, G. E. Scuseria, 
 M. A. Robb, J. R. Cheeseman, G. Scalmani, V. Barone, B. Mennucci, 
 G. A. Petersson, H. Nakatsuji, M. Caricato, X. Li, H. P. Hratchian, 
 A. F. Izmaylov, J. Bloino, G. Zheng, J. L. Sonnenberg, M. Hada, 
 M. Ehara, K. Toyota, R. Fukuda, J. Hasegawa, M. Ishida, T. Nakajima, 
 Y. Honda, O. Kitao, H. Nakai, T. Vreven, J. A. Montgomery, Jr., 
 J. E. Peralta, F. Ogliaro, M. Bearpark, J. J. Heyd, E. Brothers, 
 K. N. Kudin, V. N. Staroverov, T. Keith, R. Kobayashi, J. Normand, 
 K. Raghavachari, A. Rendell, J. C. Burant, S. S. Iyengar, J. Tomasi, 
 M. Cossi, N. Rega, J. M. Millam, M. Klene, J. E. Knox, J. B. Cross, 
 V. Bakken, C. Adamo, J. Jaramillo, R. Gomperts, R. E. Stratmann, 
 O. Yazyev, A. J. Austin, R. Cammi, C. Pomelli, J. W. Ochterski, 
 R. L. Martin, K. Morokuma, V. G. Zakrzewski, G. A. Voth, 
 P. Salvador, J. J. Dannenberg, S. Dapprich, A. D. Daniels, 
 O. Farkas, J. B. Foresman, J. V. Ortiz, J. Cioslowski, 
 and D. J. Fox, Gaussian, Inc., Wallingford CT, 2013.
 
 ******************************************
 Gaussian 09:  ES64L-G09RevD.01 24-Apr-2013
                 5-Oct-2015 
 ******************************************
 %mem=6GB
 %nprocshared=4
 Will use up to    4 processors via shared memory.
 -----------------
 #p M062X/def2TZVP
 -----------------
 1/38=1/1;
 2/12=2,17=6,18=5,40=1/2;
 3/5=44,7=101,11=2,16=1,25=1,30=1,74=-55/1,2,3;
 4//1;
 5/5=2,38=5/2;
 6/7=2,8=2,9=2,10=2,28=1/1;
 99/5=1,9=1/99;
 Leave Link    1 at Mon Oct  5 16:15:47 2015, MaxMem=   805306368 cpu:         0.1
 (Enter /home/hetanjin/apps/g09D01/g09/l101.exe)
 ---------------------------------------------
 using B3LYP/6-31G(d) to do opt and freq calc.
 ---------------------------------------------
 Symbolic Z-matrix:
 Charge =  0 Multiplicity = 1
 C                    -0.43514   1.39571   0.09587 
 H                    -0.45265   1.45164   1.19241 
 H                    -1.44061   1.64326  -0.2653 
 H                     0.25158   2.17079  -0.26518 
 C                     0.        0.       -0.37299 
 H                     0.00001   0.00001  -1.47354 
 C                    -0.99116  -1.0747    0.09587 
 H                    -2.00574  -0.86751  -0.26521 
 H                    -0.70281  -2.06924  -0.26528 
 H                    -1.03086  -1.11781   1.19242 
 C                     1.4263   -0.32102   0.09587 
 H                     1.75421  -1.30322  -0.2653 
 H                     2.1434    0.42604  -0.26518 
 H                     1.48346  -0.33396   1.19241 
 
 NAtoms=     14 NQM=       14 NQMF=       0 NMMI=      0 NMMIF=      0
                NMic=       0 NMicF=      0.
                    Isotopes and Nuclear Properties:
 (Nuclear quadrupole moments (NQMom) in fm**2, nuclear magnetic moments (NMagM)
  in nuclear magnetons)

  Atom         1           2           3           4           5           6           7           8           9          10
 IAtWgt=          12           1           1           1          12           1          12           1           1           1
 AtmWgt=  12.0000000   1.0078250   1.0078250   1.0078250  12.0000000   1.0078250  12.0000000   1.0078250   1.0078250   1.0078250
 NucSpn=           0           1           1           1           0           1           0           1           1           1
 AtZEff=   0.0000000   0.0000000   0.0000000   0.0000000   0.0000000   0.0000000   0.0000000   0.0000000   0.0000000   0.0000000
 NQMom=    0.0000000   0.0000000   0.0000000   0.0000000   0.0000000   0.0000000   0.0000000   0.0000000   0.0000000   0.0000000
 NMagM=    0.0000000   2.7928460   2.7928460   2.7928460   0.0000000   2.7928460   0.0000000   2.7928460   2.7928460   2.7928460
 AtZNuc=   6.0000000   1.0000000   1.0000000   1.0000000   6.0000000   1.0000000   6.0000000   1.0000000   1.0000000   1.0000000

  Atom        11          12          13          14
 IAtWgt=          12           1           1           1
 AtmWgt=  12.0000000   1.0078250   1.0078250   1.0078250
 NucSpn=           0           1           1           1
 AtZEff=   0.0000000   0.0000000   0.0000000   0.0000000
 NQMom=    0.0000000   0.0000000   0.0000000   0.0000000
 NMagM=    0.0000000   2.7928460   2.7928460   2.7928460
 AtZNuc=   6.0000000   1.0000000   1.0000000   1.0000000
 Leave Link  101 at Mon Oct  5 16:15:47 2015, MaxMem=   805306368 cpu:         0.3
 (Enter /home/hetanjin/apps/g09D01/g09/l202.exe)
                          Input orientation:                          
 ---------------------------------------------------------------------
 Center     Atomic      Atomic             Coordinates (Angstroms)
 Number     Number       Type             X           Y           Z
 ---------------------------------------------------------------------
      1          6           0       -0.435141    1.395712    0.095871
      2          1           0       -0.452653    1.451638    1.192414
      3          1           0       -1.440607    1.643255   -0.265301
      4          1           0        0.251581    2.170788   -0.265179
      5          6           0        0.000000    0.000000   -0.372986
      6          1           0        0.000006    0.000005   -1.473541
      7          6           0       -0.991158   -1.074698    0.095871
      8          1           0       -2.005741   -0.867509   -0.265213
      9          1           0       -0.702812   -2.069239   -0.265282
     10          1           0       -1.030861   -1.117806    1.192417
     11          6           0        1.426301   -0.321015    0.095869
     12          1           0        1.754214   -1.303216   -0.265295
     13          1           0        2.143399    0.426043   -0.265184
     14          1           0        1.483461   -0.333955    1.192414
 ---------------------------------------------------------------------
                    Distance matrix (angstroms):
                    1          2          3          4          5
     1  C    0.000000
     2  H    1.098108   0.000000
     3  H    1.096670   1.771356   0.000000
     4  H    1.096671   1.771355   1.772510   0.000000
     5  C    1.535313   2.182344   2.187974   2.187975   0.000000
     6  H    2.144855   3.069113   2.497094   2.497144   1.100555
     7  C    2.532209   2.806202   2.778438   3.493986   1.535317
     8  H    2.778369   3.148841   2.573580   3.785070   2.187963
     9  H    3.493990   3.818905   3.785096   4.346113   2.187989
    10  H    2.806255   2.633698   3.149014   3.818913   2.182350
    11  C    2.532216   2.806275   3.493989   2.778382   1.535321
    12  H    3.493985   3.818952   4.346099   3.785051   2.187975
    13  H    2.778397   3.148956   3.785063   2.573540   2.187988
    14  H    2.806277   2.633796   3.818961   3.148943   2.182352
                    6          7          8          9         10
     6  H    0.000000
     7  C    2.144865   0.000000
     8  H    2.497130   1.096671   0.000000
     9  H    2.497121   1.096671   1.772506   0.000000
    10  H    3.069124   1.098111   1.771362   1.771363   0.000000
    11  C    2.144859   2.532222   3.493987   2.778460   2.806232
    12  H    2.497096   2.778440   3.785116   2.573668   3.148959
    13  H    2.497152   3.493999   4.346106   3.785149   3.818900
    14  H    3.069118   2.806216   3.818886   3.148949   2.633674
                   11         12         13         14
    11  C    0.000000
    12  H    1.096670   0.000000
    13  H    1.096670   1.772513   0.000000
    14  H    1.098110   1.771352   1.771357   0.000000
 Stoichiometry    C4H10
 Framework group  C1[X(C4H10)]
 Deg. of freedom    36
 Full point group                 C1      NOp   1
 Largest Abelian subgroup         C1      NOp   1
 Largest concise Abelian subgroup C1      NOp   1
                         Standard orientation:                         
 ---------------------------------------------------------------------
 Center     Atomic      Atomic             Coordinates (Angstroms)
 Number     Number       Type             X           Y           Z
 ---------------------------------------------------------------------
      1          6           0        0.456576    1.388848   -0.095871
      2          1           0        0.474946    1.444498   -1.192414
      3          1           0        1.465733    1.620883    0.265301
      4          1           0       -0.218133    2.174404    0.265179
      5          6           0        0.000000    0.000000    0.372986
      6          1           0       -0.000006    0.000005    1.473541
      7          6           0        0.974496   -1.089829   -0.095871
      8          1           0        1.992149   -0.898283    0.265213
      9          1           0        0.670874   -2.079813    0.265282
     10          1           0        1.013531   -1.133543   -1.192417
     11          6           0       -1.431074   -0.299020   -0.095869
     12          1           0       -1.774068   -1.276056    0.265295
     13          1           0       -2.136586    0.458989    0.265184
     14          1           0       -1.488426   -0.311078   -1.192414
 ---------------------------------------------------------------------
 Rotational constants (GHZ):      7.7375259      7.7374537      4.4797467
 Leave Link  202 at Mon Oct  5 16:15:47 2015, MaxMem=   805306368 cpu:         0.0
 (Enter /home/hetanjin/apps/g09D01/g09/l301.exe)
 Standard basis: def2TZVP (5D, 7F)
 Ernie: Thresh=  0.10000D-02 Tol=  0.10000D-05 Strict=F.
 There are   204 symmetry adapted cartesian basis functions of A   symmetry.
 There are   184 symmetry adapted basis functions of A   symmetry.
   184 basis functions,   284 primitive gaussians,   204 cartesian basis functions
    17 alpha electrons       17 beta electrons
       nuclear repulsion energy       134.0743593001 Hartrees.
 IExCor= 4336 DFT=T Ex+Corr=M062X ExCW=0 ScaHFX=  0.540000
 ScaDFX=  1.000000  1.000000  1.000000  1.000000 ScalE2=  1.000000  1.000000
 IRadAn=      0 IRanWt=     -1 IRanGd=            0 ICorTp=0 IEmpDi=  4
 NAtoms=   14 NActive=   14 NUniq=   14 SFac= 1.00D+00 NAtFMM=   60 NAOKFM=F Big=F
 Integral buffers will be    131072 words long.
 Raffenetti 2 integral format.
 Two-electron integral symmetry is turned on.
 Leave Link  301 at Mon Oct  5 16:15:47 2015, MaxMem=   805306368 cpu:         0.2
 (Enter /home/hetanjin/apps/g09D01/g09/l302.exe)
 NPDir=0 NMtPBC=     1 NCelOv=     1 NCel=       1 NClECP=     1 NCelD=      1
         NCelK=      1 NCelE2=     1 NClLst=     1 CellRange=     0.0.
 One-electron integrals computed using PRISM.
   1 Symmetry operations used in ECPInt.
 ECPInt:  NShTT=    3570 NPrTT=    9988 LenC2=    3565 LenP2D=    8677.
 LDataN:  DoStor=T MaxTD1= 6 Len=  172
 NBasis=   184 RedAO= T EigKep=  2.92D-04  NBF=   184
 NBsUse=   184 1.00D-06 EigRej= -1.00D+00 NBFU=   184
 Precomputing XC quadrature grid using
 IXCGrd= 4 IRadAn=           0 IRanWt=          -1 IRanGd=           0 AccXCQ= 0.00D+00.
 Generated NRdTot=       0 NPtTot=           0 NUsed=           0 NTot=          32
 NSgBfM=   204   204   204   204   204 MxSgAt=    14 MxSgA2=    14.
 Leave Link  302 at Mon Oct  5 16:15:47 2015, MaxMem=   805306368 cpu:         1.1
 (Enter /home/hetanjin/apps/g09D01/g09/l303.exe)
 DipDrv:  MaxL=1.
 Leave Link  303 at Mon Oct  5 16:15:47 2015, MaxMem=   805306368 cpu:         0.1
 (Enter /home/hetanjin/apps/g09D01/g09/l401.exe)
 ExpMin= 9.52D-02 ExpMax= 1.36D+04 ExpMxC= 4.63D+02 IAcc=2 IRadAn=         4 AccDes= 0.00D+00
 Harris functional with IExCor= 1009 and IRadAn=       4 diagonalized for initial guess.
 HarFok:  IExCor= 1009 AccDes= 0.00D+00 IRadAn=         4 IDoV= 1 UseB2=F ITyADJ=14
 ICtDFT=  3500011 ScaDFX=  1.000000  1.000000  1.000000  1.000000
 FoFCou: FMM=F IPFlag=           0 FMFlag=      100000 FMFlg1=           0
         NFxFlg=           0 DoJE=T BraDBF=F KetDBF=T FulRan=T
         wScrn=  0.000000 ICntrl=     500 IOpCl=  0 I1Cent=   200000004 NGrid=           0
         NMat0=    1 NMatS0=      1 NMatT0=    0 NMatD0=    1 NMtDS0=    0 NMtDT0=    0
 Petite list used in FoFCou.
 Harris En= -158.442346239029    
 JPrj=0 DoOrth=F DoCkMO=F.
 Leave Link  401 at Mon Oct  5 16:15:49 2015, MaxMem=   805306368 cpu:         4.8
 (Enter /home/hetanjin/apps/g09D01/g09/l502.exe)
 Closed shell SCF:
 Using DIIS extrapolation, IDIIS=  1040.
 Integral symmetry usage will be decided dynamically.
 Keep R1 ints in memory in canonical form, NReq=149302312.
 IVT=      146142 IEndB=      146142 NGot=   805306368 MDV=   660311517
 LenX=   660311517 LenY=   660269460
 Requested convergence on RMS density matrix=1.00D-08 within 128 cycles.
 Requested convergence on MAX density matrix=1.00D-06.
 Requested convergence on             energy=1.00D-06.
 No special actions if energy rises.
 FoFCou: FMM=F IPFlag=           0 FMFlag=           0 FMFlg1=           0
         NFxFlg=           0 DoJE=F BraDBF=F KetDBF=F FulRan=T
         wScrn=  0.000000 ICntrl=     600 IOpCl=  0 I1Cent=           0 NGrid=           0
         NMat0=    1 NMatS0=  17020 NMatT0=    0 NMatD0=    1 NMtDS0=    0 NMtDT0=    0
 Symmetry not used in FoFCou.
 Integral accuracy reduced to 1.0D-05 until final iterations.

 Cycle   1  Pass 0  IDiag  1:
 E= -158.198280696997    
 DIIS: error= 4.59D-02 at cycle   1 NSaved=   1.
 NSaved= 1 IEnMin= 1 EnMin= -158.198280696997     IErMin= 1 ErrMin= 4.59D-02
 ErrMax= 4.59D-02  0.00D+00 EMaxC= 1.00D-01 BMatC= 2.28D-01 BMatP= 2.28D-01
 IDIUse=3 WtCom= 5.41D-01 WtEn= 4.59D-01
 Coeff-Com:  0.100D+01
 Coeff-En:   0.100D+01
 Coeff:      0.100D+01
 Gap=     0.379 Goal=   None    Shift=    0.000
 GapD=    0.379 DampG=1.000 DampE=0.500 DampFc=0.5000 IDamp=-1.
 Damping current iteration by 5.00D-01
 RMSDP=3.80D-03 MaxDP=6.68D-02              OVMax= 1.62D-01

 Cycle   2  Pass 0  IDiag  1:
 E= -158.311104959062     Delta-E=       -0.112824262066 Rises=F Damp=T
 DIIS: error= 6.59D-03 at cycle   2 NSaved=   2.
 NSaved= 2 IEnMin= 2 EnMin= -158.311104959062     IErMin= 2 ErrMin= 6.59D-03
 ErrMax= 6.59D-03  0.00D+00 EMaxC= 1.00D-01 BMatC= 9.59D-03 BMatP= 2.28D-01
 IDIUse=3 WtCom= 9.34D-01 WtEn= 6.59D-02
 Coeff-Com: -0.721D-01 0.107D+01
 Coeff-En:   0.000D+00 0.100D+01
 Coeff:     -0.674D-01 0.107D+01
 Gap=     0.463 Goal=   None    Shift=    0.000
 RMSDP=9.54D-04 MaxDP=1.97D-02 DE=-1.13D-01 OVMax= 9.19D-02

 Cycle   3  Pass 0  IDiag  1:
 E= -158.419127599976     Delta-E=       -0.108022640914 Rises=F Damp=F
 DIIS: error= 3.63D-03 at cycle   3 NSaved=   3.
 NSaved= 3 IEnMin= 3 EnMin= -158.419127599976     IErMin= 3 ErrMin= 3.63D-03
 ErrMax= 3.63D-03  0.00D+00 EMaxC= 1.00D-01 BMatC= 1.30D-03 BMatP= 9.59D-03
 IDIUse=3 WtCom= 9.64D-01 WtEn= 3.63D-02
 Coeff-Com: -0.437D-01 0.238D+00 0.806D+00
 Coeff-En:   0.000D+00 0.000D+00 0.100D+01
 Coeff:     -0.421D-01 0.229D+00 0.813D+00
 Gap=     0.440 Goal=   None    Shift=    0.000
 RMSDP=1.98D-04 MaxDP=6.79D-03 DE=-1.08D-01 OVMax= 1.08D-02

 Cycle   4  Pass 0  IDiag  1:
 E= -158.420159349254     Delta-E=       -0.001031749278 Rises=F Damp=F
 DIIS: error= 1.42D-03 at cycle   4 NSaved=   4.
 NSaved= 4 IEnMin= 4 EnMin= -158.420159349254     IErMin= 4 ErrMin= 1.42D-03
 ErrMax= 1.42D-03  0.00D+00 EMaxC= 1.00D-01 BMatC= 2.78D-04 BMatP= 1.30D-03
 IDIUse=3 WtCom= 9.86D-01 WtEn= 1.42D-02
 Coeff-Com: -0.130D-01 0.392D-01 0.342D+00 0.632D+00
 Coeff-En:   0.000D+00 0.000D+00 0.626D-01 0.937D+00
 Coeff:     -0.128D-01 0.386D-01 0.338D+00 0.637D+00
 Gap=     0.443 Goal=   None    Shift=    0.000
 RMSDP=6.49D-05 MaxDP=2.21D-03 DE=-1.03D-03 OVMax= 3.93D-03

 Cycle   5  Pass 0  IDiag  1:
 E= -158.420412118635     Delta-E=       -0.000252769381 Rises=F Damp=F
 DIIS: error= 1.78D-04 at cycle   5 NSaved=   5.
 NSaved= 5 IEnMin= 5 EnMin= -158.420412118635     IErMin= 5 ErrMin= 1.78D-04
 ErrMax= 1.78D-04  0.00D+00 EMaxC= 1.00D-01 BMatC= 6.46D-06 BMatP= 2.78D-04
 IDIUse=3 WtCom= 9.98D-01 WtEn= 1.78D-03
 Coeff-Com: -0.723D-03-0.835D-03 0.506D-01 0.179D+00 0.772D+00
 Coeff-En:   0.000D+00 0.000D+00 0.000D+00 0.000D+00 0.100D+01
 Coeff:     -0.722D-03-0.833D-03 0.505D-01 0.179D+00 0.772D+00
 Gap=     0.443 Goal=   None    Shift=    0.000
 RMSDP=1.23D-05 MaxDP=3.45D-04 DE=-2.53D-04 OVMax= 6.05D-04

 Cycle   6  Pass 0  IDiag  1:
 E= -158.420418074409     Delta-E=       -0.000005955774 Rises=F Damp=F
 DIIS: error= 4.77D-05 at cycle   6 NSaved=   6.
 NSaved= 6 IEnMin= 6 EnMin= -158.420418074409     IErMin= 6 ErrMin= 4.77D-05
 ErrMax= 4.77D-05  0.00D+00 EMaxC= 1.00D-01 BMatC= 1.96D-07 BMatP= 6.46D-06
 IDIUse=1 WtCom= 1.00D+00 WtEn= 0.00D+00
 Coeff-Com:  0.811D-03-0.250D-02-0.139D-01-0.103D-01 0.110D+00 0.916D+00
 Coeff:      0.811D-03-0.250D-02-0.139D-01-0.103D-01 0.110D+00 0.916D+00
 Gap=     0.443 Goal=   None    Shift=    0.000
 RMSDP=4.14D-06 MaxDP=7.66D-05 DE=-5.96D-06 OVMax= 1.66D-04

 Initial convergence to 1.0D-05 achieved.  Increase integral accuracy.
 Cycle   7  Pass 1  IDiag  1:
 E= -158.420339240733     Delta-E=        0.000078833676 Rises=F Damp=F
 DIIS: error= 3.11D-04 at cycle   1 NSaved=   1.
 NSaved= 1 IEnMin= 1 EnMin= -158.420339240733     IErMin= 1 ErrMin= 3.11D-04
 ErrMax= 3.11D-04  0.00D+00 EMaxC= 1.00D-01 BMatC= 1.36D-05 BMatP= 1.36D-05
 IDIUse=3 WtCom= 9.97D-01 WtEn= 3.11D-03
 Coeff-Com:  0.100D+01
 Coeff-En:   0.100D+01
 Coeff:      0.100D+01
 Gap=     0.443 Goal=   None    Shift=    0.000
 RMSDP=4.14D-06 MaxDP=7.66D-05 DE= 7.88D-05 OVMax= 4.57D-04

 Cycle   8  Pass 1  IDiag  1:
 E= -158.420345638443     Delta-E=       -0.000006397710 Rises=F Damp=F
 DIIS: error= 7.21D-05 at cycle   2 NSaved=   2.
 NSaved= 2 IEnMin= 2 EnMin= -158.420345638443     IErMin= 2 ErrMin= 7.21D-05
 ErrMax= 7.21D-05  0.00D+00 EMaxC= 1.00D-01 BMatC= 7.46D-07 BMatP= 1.36D-05
 IDIUse=1 WtCom= 1.00D+00 WtEn= 0.00D+00
 Coeff-Com:  0.873D-01 0.913D+00
 Coeff:      0.873D-01 0.913D+00
 Gap=     0.443 Goal=   None    Shift=    0.000
 RMSDP=5.64D-06 MaxDP=1.17D-04 DE=-6.40D-06 OVMax= 2.76D-04

 Cycle   9  Pass 1  IDiag  1:
 E= -158.420345976796     Delta-E=       -0.000000338353 Rises=F Damp=F
 DIIS: error= 5.68D-05 at cycle   3 NSaved=   3.
 NSaved= 3 IEnMin= 3 EnMin= -158.420345976796     IErMin= 3 ErrMin= 5.68D-05
 ErrMax= 5.68D-05  0.00D+00 EMaxC= 1.00D-01 BMatC= 4.18D-07 BMatP= 7.46D-07
 IDIUse=1 WtCom= 1.00D+00 WtEn= 0.00D+00
 Coeff-Com: -0.199D-01 0.420D+00 0.600D+00
 Coeff:     -0.199D-01 0.420D+00 0.600D+00
 Gap=     0.443 Goal=   None    Shift=    0.000
 RMSDP=2.67D-06 MaxDP=5.86D-05 DE=-3.38D-07 OVMax= 1.37D-04

 Cycle  10  Pass 1  IDiag  1:
 E= -158.420346394350     Delta-E=       -0.000000417554 Rises=F Damp=F
 DIIS: error= 5.73D-06 at cycle   4 NSaved=   4.
 NSaved= 4 IEnMin= 4 EnMin= -158.420346394350     IErMin= 4 ErrMin= 5.73D-06
 ErrMax= 5.73D-06  0.00D+00 EMaxC= 1.00D-01 BMatC= 2.72D-09 BMatP= 4.18D-07
 IDIUse=1 WtCom= 1.00D+00 WtEn= 0.00D+00
 Coeff-Com: -0.493D-02 0.314D-01 0.895D-01 0.884D+00
 Coeff:     -0.493D-02 0.314D-01 0.895D-01 0.884D+00
 Gap=     0.443 Goal=   None    Shift=    0.000
 RMSDP=3.10D-07 MaxDP=8.43D-06 DE=-4.18D-07 OVMax= 1.84D-05

 Cycle  11  Pass 1  IDiag  1:
 E= -158.420346396884     Delta-E=       -0.000000002534 Rises=F Damp=F
 DIIS: error= 2.51D-06 at cycle   5 NSaved=   5.
 NSaved= 5 IEnMin= 5 EnMin= -158.420346396884     IErMin= 5 ErrMin= 2.51D-06
 ErrMax= 2.51D-06  0.00D+00 EMaxC= 1.00D-01 BMatC= 7.02D-10 BMatP= 2.72D-09
 IDIUse=1 WtCom= 1.00D+00 WtEn= 0.00D+00
 Coeff-Com: -0.428D-03-0.204D-01-0.109D-01 0.360D+00 0.672D+00
 Coeff:     -0.428D-03-0.204D-01-0.109D-01 0.360D+00 0.672D+00
 Gap=     0.443 Goal=   None    Shift=    0.000
 RMSDP=1.15D-07 MaxDP=3.66D-06 DE=-2.53D-09 OVMax= 6.64D-06

 Cycle  12  Pass 1  IDiag  1:
 E= -158.420346397538     Delta-E=       -0.000000000655 Rises=F Damp=F
 DIIS: error= 3.14D-07 at cycle   6 NSaved=   6.
 NSaved= 6 IEnMin= 6 EnMin= -158.420346397538     IErMin= 6 ErrMin= 3.14D-07
 ErrMax= 3.14D-07  0.00D+00 EMaxC= 1.00D-01 BMatC= 2.00D-11 BMatP= 7.02D-10
 IDIUse=1 WtCom= 1.00D+00 WtEn= 0.00D+00
 Coeff-Com:  0.296D-03-0.799D-02-0.112D-01 0.202D-01 0.161D+00 0.837D+00
 Coeff:      0.296D-03-0.799D-02-0.112D-01 0.202D-01 0.161D+00 0.837D+00
 Gap=     0.443 Goal=   None    Shift=    0.000
 RMSDP=2.89D-08 MaxDP=5.94D-07 DE=-6.55D-10 OVMax= 1.32D-06

 Cycle  13  Pass 1  IDiag  1:
 E= -158.420346397561     Delta-E=       -0.000000000022 Rises=F Damp=F
 DIIS: error= 5.42D-08 at cycle   7 NSaved=   7.
 NSaved= 7 IEnMin= 7 EnMin= -158.420346397561     IErMin= 7 ErrMin= 5.42D-08
 ErrMax= 5.42D-08  0.00D+00 EMaxC= 1.00D-01 BMatC= 3.49D-13 BMatP= 2.00D-11
 IDIUse=1 WtCom= 1.00D+00 WtEn= 0.00D+00
 Coeff-Com:  0.485D-04-0.277D-03-0.125D-02-0.101D-01-0.163D-02 0.108D+00
 Coeff-Com:  0.906D+00
 Coeff:      0.485D-04-0.277D-03-0.125D-02-0.101D-01-0.163D-02 0.108D+00
 Coeff:      0.906D+00
 Gap=     0.443 Goal=   None    Shift=    0.000
 RMSDP=5.69D-09 MaxDP=1.03D-07 DE=-2.23D-11 OVMax= 2.63D-07

 SCF Done:  E(RM062X) =  -158.420346398     A.U. after   13 cycles
            NFock= 13  Conv=0.57D-08     -V/T= 2.0064
 KE= 1.574180324004D+02 PE=-6.340524193565D+02 EE= 1.841396812584D+02
 Leave Link  502 at Mon Oct  5 16:16:18 2015, MaxMem=   805306368 cpu:       103.3
 (Enter /home/hetanjin/apps/g09D01/g09/l601.exe)
 Copying SCF densities to generalized density rwf, IOpCl= 0 IROHF=0.

 **********************************************************************

            Population analysis using the SCF density.

 **********************************************************************

 Orbital symmetries:
       Occupied  (A) (A) (A) (A) (A) (A) (A) (A) (A) (A) (A) (A)
                 (A) (A) (A) (A) (A)
       Virtual   (A) (A) (A) (A) (A) (A) (A) (A) (A) (A) (A) (A)
                 (A) (A) (A) (A) (A) (A) (A) (A) (A) (A) (A) (A)
                 (A) (A) (A) (A) (A) (A) (A) (A) (A) (A) (A) (A)
                 (A) (A) (A) (A) (A) (A) (A) (A) (A) (A) (A) (A)
                 (A) (A) (A) (A) (A) (A) (A) (A) (A) (A) (A) (A)
                 (A) (A) (A) (A) (A) (A) (A) (A) (A) (A) (A) (A)
                 (A) (A) (A) (A) (A) (A) (A) (A) (A) (A) (A) (A)
                 (A) (A) (A) (A) (A) (A) (A) (A) (A) (A) (A) (A)
                 (A) (A) (A) (A) (A) (A) (A) (A) (A) (A) (A) (A)
                 (A) (A) (A) (A) (A) (A) (A) (A) (A) (A) (A) (A)
                 (A) (A) (A) (A) (A) (A) (A) (A) (A) (A) (A) (A)
                 (A) (A) (A) (A) (A) (A) (A) (A) (A) (A) (A) (A)
                 (A) (A) (A) (A) (A) (A) (A) (A) (A) (A) (A) (A)
                 (A) (A) (A) (A) (A) (A) (A) (A) (A) (A) (A)
 The electronic state is 1-A.
 Alpha  occ. eigenvalues --  -10.53716 -10.52007 -10.52006 -10.52005  -0.89823
 Alpha  occ. eigenvalues --   -0.76983  -0.76983  -0.63753  -0.53054  -0.49560
 Alpha  occ. eigenvalues --   -0.49559  -0.44478  -0.44478  -0.42320  -0.38365
 Alpha  occ. eigenvalues --   -0.38364  -0.37834
 Alpha virt. eigenvalues --    0.06455   0.11225   0.11800   0.11801   0.13304
 Alpha virt. eigenvalues --    0.13925   0.13925   0.17398   0.18776   0.18776
 Alpha virt. eigenvalues --    0.20402   0.20402   0.20595   0.24674   0.24674
 Alpha virt. eigenvalues --    0.29013   0.30605   0.30605   0.34755   0.35104
 Alpha virt. eigenvalues --    0.35105   0.40361   0.40445   0.45128   0.45129
 Alpha virt. eigenvalues --    0.45166   0.46075   0.48884   0.48885   0.51473
 Alpha virt. eigenvalues --    0.51474   0.52965   0.53243   0.54790   0.54792
 Alpha virt. eigenvalues --    0.63267   0.65702   0.68169   0.68170   0.73741
 Alpha virt. eigenvalues --    0.73741   0.85334   0.85336   0.85871   0.92499
 Alpha virt. eigenvalues --    0.96822   0.96824   1.02191   1.02192   1.04975
 Alpha virt. eigenvalues --    1.11424   1.11425   1.13553   1.15321   1.21076
 Alpha virt. eigenvalues --    1.21722   1.21726   1.31302   1.31303   1.45548
 Alpha virt. eigenvalues --    1.56792   1.56795   1.57989   1.57990   1.59107
 Alpha virt. eigenvalues --    1.59144   1.62818   1.62820   1.63844   1.67571
 Alpha virt. eigenvalues --    1.67573   1.70277   1.75415   1.77297   1.77299
 Alpha virt. eigenvalues --    1.81926   1.81929   1.93172   1.96548   1.96550
 Alpha virt. eigenvalues --    2.05063   2.07648   2.07650   2.09946   2.12128
 Alpha virt. eigenvalues --    2.12131   2.18232   2.29441   2.29445   2.30598
 Alpha virt. eigenvalues --    2.37519   2.37522   2.37923   2.40485   2.40488
 Alpha virt. eigenvalues --    2.41478   2.44275   2.44277   2.50014   2.53854
 Alpha virt. eigenvalues --    2.55578   2.55580   2.60923   2.60924   2.62429
 Alpha virt. eigenvalues --    2.63923   2.66421   2.66427   2.70091   2.80104
 Alpha virt. eigenvalues --    2.80110   2.81241   2.82738   2.89244   2.89247
 Alpha virt. eigenvalues --    3.05771   3.05779   3.06842   3.08532   3.08537
 Alpha virt. eigenvalues --    3.14070   3.18542   3.20826   3.20828   3.27576
 Alpha virt. eigenvalues --    3.27589   3.33012   3.35052   3.35059   3.36530
 Alpha virt. eigenvalues --    3.40208   3.40212   3.44839   3.52212   3.52219
 Alpha virt. eigenvalues --    3.56972   3.56977   3.62396   3.64477   3.64483
 Alpha virt. eigenvalues --    3.65206   3.71865   3.91556   3.91563   3.95976
 Alpha virt. eigenvalues --    4.00140   4.00149   4.08134   4.08144   4.08171
 Alpha virt. eigenvalues --    4.30351   4.33487   4.33497   4.36533   4.38751
 Alpha virt. eigenvalues --    4.38753   4.50737   4.50743   4.62150   4.72457
 Alpha virt. eigenvalues --    4.79667   4.79676   4.81038  22.42660  22.45443
 Alpha virt. eigenvalues --   22.45446  22.65673
          Condensed to atoms (all electrons):
               1          2          3          4          5          6
     1  C    5.118636   0.399705   0.410903   0.410849   0.291000  -0.062476
     2  H    0.399705   0.545128  -0.027659  -0.027650  -0.019941   0.009803
     3  H    0.410903  -0.027659   0.537836  -0.020972  -0.043023  -0.005636
     4  H    0.410849  -0.027650  -0.020972   0.537928  -0.043011  -0.005636
     5  C    0.291000  -0.019941  -0.043023  -0.043011   5.091569   0.453530
     6  H   -0.062476   0.009803  -0.005636  -0.005636   0.453530   0.622227
     7  C   -0.068358  -0.013163  -0.004446   0.012202   0.291109  -0.062551
     8  H   -0.004450  -0.000086   0.002361  -0.000167  -0.043024  -0.005632
     9  H    0.012202  -0.000162  -0.000167  -0.000456  -0.043023  -0.005631
    10  H   -0.013139   0.005137  -0.000086  -0.000162  -0.019963   0.009802
    11  C   -0.068309  -0.013166   0.012202  -0.004435   0.291270  -0.062550
    12  H    0.012200  -0.000162  -0.000456  -0.000166  -0.043033  -0.005635
    13  H   -0.004440  -0.000087  -0.000167   0.002361  -0.043047  -0.005633
    14  H   -0.013134   0.005137  -0.000162  -0.000088  -0.019975   0.009804
               7          8          9         10         11         12
     1  C   -0.068358  -0.004450   0.012202  -0.013139  -0.068309   0.012200
     2  H   -0.013163  -0.000086  -0.000162   0.005137  -0.013166  -0.000162
     3  H   -0.004446   0.002361  -0.000167  -0.000086   0.012202  -0.000456
     4  H    0.012202  -0.000167  -0.000456  -0.000162  -0.004435  -0.000166
     5  C    0.291109  -0.043024  -0.043023  -0.019963   0.291270  -0.043033
     6  H   -0.062551  -0.005632  -0.005631   0.009802  -0.062550  -0.005635
     7  C    5.118757   0.410910   0.410861   0.399681  -0.068300  -0.004438
     8  H    0.410910   0.537844  -0.020978  -0.027659   0.012201  -0.000167
     9  H    0.410861  -0.020978   0.537892  -0.027653  -0.004442   0.002361
    10  H    0.399681  -0.027659  -0.027653   0.545162  -0.013156  -0.000087
    11  C   -0.068300   0.012201  -0.004442  -0.013156   5.118657   0.410866
    12  H   -0.004438  -0.000167   0.002361  -0.000087   0.410866   0.537900
    13  H    0.012201  -0.000456  -0.000167  -0.000162   0.410905  -0.020976
    14  H   -0.013147  -0.000162  -0.000087   0.005138   0.399680  -0.027654
              13         14
     1  C   -0.004440  -0.013134
     2  H   -0.000087   0.005137
     3  H   -0.000167  -0.000162
     4  H    0.002361  -0.000088
     5  C   -0.043047  -0.019975
     6  H   -0.005633   0.009804
     7  C    0.012201  -0.013147
     8  H   -0.000456  -0.000162
     9  H   -0.000167  -0.000087
    10  H   -0.000162   0.005138
    11  C    0.410905   0.399680
    12  H   -0.020976  -0.027654
    13  H    0.537897  -0.027653
    14  H   -0.027653   0.545121
 Mulliken charges:
               1
     1  C   -0.421191
     2  H    0.137167
     3  H    0.139472
     4  H    0.139404
     5  C   -0.100439
     6  H    0.116214
     7  C   -0.421317
     8  H    0.139466
     9  H    0.139448
    10  H    0.137147
    11  C   -0.421423
    12  H    0.139447
    13  H    0.139422
    14  H    0.137182
 Sum of Mulliken charges =   0.00000
 Mulliken charges with hydrogens summed into heavy atoms:
               1
     1  C   -0.005148
     5  C    0.015776
     7  C   -0.005256
    11  C   -0.005372
 Electronic spatial extent (au):  <R**2>=            356.9005
 Charge=              0.0000 electrons
 Dipole moment (field-independent basis, Debye):
    X=              0.0001    Y=              0.0000    Z=              0.1372  Tot=              0.1372
 Quadrupole moment (field-independent basis, Debye-Ang):
   XX=            -29.0435   YY=            -29.0436   ZZ=            -28.4674
   XY=              0.0001   XZ=              0.0003   YZ=              0.0000
 Traceless Quadrupole moment (field-independent basis, Debye-Ang):
   XX=             -0.1920   YY=             -0.1921   ZZ=              0.3841
   XY=              0.0001   XZ=              0.0003   YZ=              0.0000
 Octapole moment (field-independent basis, Debye-Ang**2):
  XXX=              1.5872  YYY=             -1.1277  ZZZ=             -0.8546  XYY=             -1.5870
  XXY=              1.1282  XXZ=              1.4583  XZZ=              0.0000  YZZ=             -0.0002
  YYZ=              1.4582  XYZ=              0.0001
 Hexadecapole moment (field-independent basis, Debye-Ang**3):
 XXXX=           -220.4197 YYYY=           -220.4183 ZZZZ=            -66.4780 XXXY=             -0.0001
 XXXZ=              0.9364 YYYX=             -0.0008 YYYZ=             -0.6655 ZZZX=              0.0001
 ZZZY=              0.0003 XXYY=            -73.4733 XXZZ=            -49.0913 YYZZ=            -49.0907
 XXYZ=              0.6652 YYXZ=             -0.9353 ZZXY=              0.0005
 N-N= 1.340743593001D+02 E-N=-6.340524225412D+02  KE= 1.574180324004D+02
 No NMR shielding tensors so no spin-rotation constants.
 Leave Link  601 at Mon Oct  5 16:16:19 2015, MaxMem=   805306368 cpu:         0.7
 (Enter /home/hetanjin/apps/g09D01/g09/l9999.exe)
 1\1\GINC-COMPUTE-0-7\SP\RM062X\def2TZVP\C4H10\HETANJIN\05-Oct-2015\0\\
 #p M062X/def2TZVP\\using B3LYP/6-31G(d) to do opt and freq calc.\\0,1\
 C,0,-0.435141,1.395712,0.095871\H,0,-0.452653,1.451638,1.192414\H,0,-1
 .440607,1.643255,-0.265301\H,0,0.251581,2.170788,-0.265179\C,0,0.,0.,-
 0.372986\H,0,0.000006,0.000005,-1.473541\C,0,-0.991158,-1.074698,0.095
 871\H,0,-2.005741,-0.867509,-0.265213\H,0,-0.702812,-2.069239,-0.26528
 2\H,0,-1.030861,-1.117806,1.192417\C,0,1.426301,-0.321015,0.095869\H,0
 ,1.754214,-1.303216,-0.265295\H,0,2.143399,0.426043,-0.265184\H,0,1.48
 3461,-0.333955,1.192414\\Version=ES64L-G09RevD.01\State=1-A\HF=-158.42
 03464\RMSD=5.690e-09\Dipole=-0.000047,0.0000189,-0.0539764\Quadrupole=
 -0.1427578,-0.1428167,0.2855746,-0.0000464,0.0002033,-0.0000011\PG=C01
  [X(C4H10)]\\@


 I WOULD TAKE COUNSEL OF MYSELF.
 I WOULD STOP AND LOOK WITHIN
 AND LOOKING WITHIN, LOOK BACK, ALSO
 THAT I MAY LOOK AHEAD WITH CLEARER UNDERSTANDING
 OF THE WAY I HAVE BEEN MOVING, AND IN WHAT DIRECTION.
 I NEED TO KNOW IF I AM GOING FORWARD OR RETREATING,
 WHETHER I HAVE BEEN WASTING, OR ENJOYING
 THE PRECIOUS MOMENTS OF LIFE.  THERE HAVE BEEN FRICTIONS,
 ANNOYANCES AND SOMETIMES WRATH,
 BUT WERE THEY BECAUSE I WAS RIGHT AND OTHERS WRONG.....
 HAVE I HAD MY THOUGHTS TOO SHARPLY FOCUSED
 ON THAT WHICH PLEASED ME, SERVED MY SELF-ESTEEM,
 UNDERGIRDED MY SECURITY,
 OF WHICH I DID NOT INQUIRE WHETHER IT SERVED OR HAMPERED OTHERS.....
 HAVE I BEEN TRYING TO STOP THE CLOCK
 TO HOLD THE WORLD
 IN PERPETUATION OF WHAT WAS AN IS ALREADY SLIPPING AWAY.....
 HAVE I BEEN CRITICAL OF OTHERS FOR WHAT REALLY NEEDED CHANGING IN ME...
 LET ME INDEED TAKE COUNSEL OF MYSELF
 AND SET MY DIRECTIONS STRAIGHT.

                          R.T. WESTON AS ADAPTED BY D. OSBORN 1967
 Job cpu time:       0 days  0 hours  1 minutes 51.1 seconds.
 File lengths (MBytes):  RWF=     15 Int=      0 D2E=      0 Chk=      2 Scr=      1
 Normal termination of Gaussian 09 at Mon Oct  5 16:16:19 2015.
