 Entering Gaussian System, Link 0=/home/hetanjin/apps/g09D01/g09/g09
 Input=C4H10_1_3_opt_M06.gjf
 Output=C4H10_1_3_opt_M06.log
 Initial command:
 /home/hetanjin/apps/g09D01/g09/l1.exe "/state/partition1/Gau-21797.inp" -scrdir="/state/partition1/"
 Entering Link 1 = /home/hetanjin/apps/g09D01/g09/l1.exe PID=     21798.
  
 Copyright (c) 1988,1990,1992,1993,1995,1998,2003,2009,2013,
            Gaussian, Inc.  All Rights Reserved.
  
 This is part of the Gaussian(R) 09 program.  It is based on
 the Gaussian(R) 03 system (copyright 2003, Gaussian, Inc.),
 the Gaussian(R) 98 system (copyright 1998, Gaussian, Inc.),
 the Gaussian(R) 94 system (copyright 1995, Gaussian, Inc.),
 the Gaussian 92(TM) system (copyright 1992, Gaussian, Inc.),
 the Gaussian 90(TM) system (copyright 1990, Gaussian, Inc.),
 the Gaussian 88(TM) system (copyright 1988, Gaussian, Inc.),
 the Gaussian 86(TM) system (copyright 1986, Carnegie Mellon
 University), and the Gaussian 82(TM) system (copyright 1983,
 Carnegie Mellon University). Gaussian is a federally registered
 trademark of Gaussian, Inc.
  
 This software contains proprietary and confidential information,
 including trade secrets, belonging to Gaussian, Inc.
  
 This software is provided under written license and may be
 used, copied, transmitted, or stored only in accord with that
 written license.
  
 The following legend is applicable only to US Government
 contracts under FAR:
  
                    RESTRICTED RIGHTS LEGEND
  
 Use, reproduction and disclosure by the US Government is
 subject to restrictions as set forth in subparagraphs (a)
 and (c) of the Commercial Computer Software - Restricted
 Rights clause in FAR 52.227-19.
  
 Gaussian, Inc.
 340 Quinnipiac St., Bldg. 40, Wallingford CT 06492
  
  
 ---------------------------------------------------------------
 Warning -- This program may not be used in any manner that
 competes with the business of Gaussian, Inc. or will provide
 assistance to any competitor of Gaussian, Inc.  The licensee
 of this program is prohibited from giving any competitor of
 Gaussian, Inc. access to this program.  By using this program,
 the user acknowledges that Gaussian, Inc. is engaged in the
 business of creating and licensing software in the field of
 computational chemistry and represents and warrants to the
 licensee that it is not a competitor of Gaussian, Inc. and that
 it will not use this program in any manner prohibited above.
 ---------------------------------------------------------------
  

 Cite this work as:
 Gaussian 09, Revision D.01,
 M. J. Frisch, G. W. Trucks, H. B. Schlegel, G. E. Scuseria, 
 M. A. Robb, J. R. Cheeseman, G. Scalmani, V. Barone, B. Mennucci, 
 G. A. Petersson, H. Nakatsuji, M. Caricato, X. Li, H. P. Hratchian, 
 A. F. Izmaylov, J. Bloino, G. Zheng, J. L. Sonnenberg, M. Hada, 
 M. Ehara, K. Toyota, R. Fukuda, J. Hasegawa, M. Ishida, T. Nakajima, 
 Y. Honda, O. Kitao, H. Nakai, T. Vreven, J. A. Montgomery, Jr., 
 J. E. Peralta, F. Ogliaro, M. Bearpark, J. J. Heyd, E. Brothers, 
 K. N. Kudin, V. N. Staroverov, T. Keith, R. Kobayashi, J. Normand, 
 K. Raghavachari, A. Rendell, J. C. Burant, S. S. Iyengar, J. Tomasi, 
 M. Cossi, N. Rega, J. M. Millam, M. Klene, J. E. Knox, J. B. Cross, 
 V. Bakken, C. Adamo, J. Jaramillo, R. Gomperts, R. E. Stratmann, 
 O. Yazyev, A. J. Austin, R. Cammi, C. Pomelli, J. W. Ochterski, 
 R. L. Martin, K. Morokuma, V. G. Zakrzewski, G. A. Voth, 
 P. Salvador, J. J. Dannenberg, S. Dapprich, A. D. Daniels, 
 O. Farkas, J. B. Foresman, J. V. Ortiz, J. Cioslowski, 
 and D. J. Fox, Gaussian, Inc., Wallingford CT, 2013.
 
 ******************************************
 Gaussian 09:  ES64L-G09RevD.01 24-Apr-2013
                 5-Oct-2015 
 ******************************************
 %mem=6GB
 %nprocshared=4
 Will use up to    4 processors via shared memory.
 -----------------
 #p M062X/def2TZVP
 -----------------
 1/38=1/1;
 2/12=2,17=6,18=5,40=1/2;
 3/5=44,7=101,11=2,16=1,25=1,30=1,74=-55/1,2,3;
 4//1;
 5/5=2,38=5/2;
 6/7=2,8=2,9=2,10=2,28=1/1;
 99/5=1,9=1/99;
 Leave Link    1 at Mon Oct  5 16:15:17 2015, MaxMem=   805306368 cpu:         0.1
 (Enter /home/hetanjin/apps/g09D01/g09/l101.exe)
 ---------------------------------------------
 using B3LYP/6-31G(d) to do opt and freq calc.
 ---------------------------------------------
 Symbolic Z-matrix:
 Charge =  0 Multiplicity = 1
 C                     0.70451   1.83534   0. 
 H                     0.19066   2.23162   0.88463 
 H                     0.19066   2.23162  -0.88463 
 H                     1.72431   2.23699   0. 
 C                     0.70451   0.30336   0. 
 H                     1.25524  -0.06362  -0.87806 
 H                     1.25524  -0.06362   0.87806 
 C                    -0.70451  -0.30336   0. 
 H                    -1.25524   0.06362  -0.87806 
 H                    -1.25524   0.06362   0.87806 
 C                    -0.70451  -1.83534   0. 
 H                    -0.19066  -2.23162   0.88463 
 H                    -1.72431  -2.23699   0. 
 H                    -0.19066  -2.23162  -0.88463 
 
 NAtoms=     14 NQM=       14 NQMF=       0 NMMI=      0 NMMIF=      0
                NMic=       0 NMicF=      0.
                    Isotopes and Nuclear Properties:
 (Nuclear quadrupole moments (NQMom) in fm**2, nuclear magnetic moments (NMagM)
  in nuclear magnetons)

  Atom         1           2           3           4           5           6           7           8           9          10
 IAtWgt=          12           1           1           1          12           1           1          12           1           1
 AtmWgt=  12.0000000   1.0078250   1.0078250   1.0078250  12.0000000   1.0078250   1.0078250  12.0000000   1.0078250   1.0078250
 NucSpn=           0           1           1           1           0           1           1           0           1           1
 AtZEff=   0.0000000   0.0000000   0.0000000   0.0000000   0.0000000   0.0000000   0.0000000   0.0000000   0.0000000   0.0000000
 NQMom=    0.0000000   0.0000000   0.0000000   0.0000000   0.0000000   0.0000000   0.0000000   0.0000000   0.0000000   0.0000000
 NMagM=    0.0000000   2.7928460   2.7928460   2.7928460   0.0000000   2.7928460   2.7928460   0.0000000   2.7928460   2.7928460
 AtZNuc=   6.0000000   1.0000000   1.0000000   1.0000000   6.0000000   1.0000000   1.0000000   6.0000000   1.0000000   1.0000000

  Atom        11          12          13          14
 IAtWgt=          12           1           1           1
 AtmWgt=  12.0000000   1.0078250   1.0078250   1.0078250
 NucSpn=           0           1           1           1
 AtZEff=   0.0000000   0.0000000   0.0000000   0.0000000
 NQMom=    0.0000000   0.0000000   0.0000000   0.0000000
 NMagM=    0.0000000   2.7928460   2.7928460   2.7928460
 AtZNuc=   6.0000000   1.0000000   1.0000000   1.0000000
 Leave Link  101 at Mon Oct  5 16:15:17 2015, MaxMem=   805306368 cpu:         0.2
 (Enter /home/hetanjin/apps/g09D01/g09/l202.exe)
                          Input orientation:                          
 ---------------------------------------------------------------------
 Center     Atomic      Atomic             Coordinates (Angstroms)
 Number     Number       Type             X           Y           Z
 ---------------------------------------------------------------------
      1          6           0        0.704505    1.835338    0.000000
      2          1           0        0.190658    2.231621    0.884626
      3          1           0        0.190658    2.231621   -0.884626
      4          1           0        1.724309    2.236988    0.000000
      5          6           0        0.704505    0.303360    0.000000
      6          1           0        1.255244   -0.063623   -0.878056
      7          1           0        1.255244   -0.063623    0.878056
      8          6           0       -0.704505   -0.303360    0.000000
      9          1           0       -1.255244    0.063623   -0.878056
     10          1           0       -1.255244    0.063623    0.878056
     11          6           0       -0.704505   -1.835338    0.000000
     12          1           0       -0.190658   -2.231621    0.884626
     13          1           0       -1.724309   -2.236988    0.000000
     14          1           0       -0.190658   -2.231621   -0.884626
 ---------------------------------------------------------------------
                    Distance matrix (angstroms):
                    1          2          3          4          5
     1  C    0.000000
     2  H    1.097106   0.000000
     3  H    1.097106   1.769252   0.000000
     4  H    1.096049   1.770502   1.770502   0.000000
     5  C    1.531978   2.182840   2.182840   2.186074   0.000000
     6  H    2.163411   3.083591   2.530125   2.506754   1.099533
     7  H    2.163411   2.530125   3.083591   2.506754   1.099533
     8  C    2.561121   2.830196   2.830196   3.514613   1.534086
     9  H    2.783985   3.146092   2.605934   3.791073   2.160804
    10  H    2.783985   2.605934   3.146092   3.791073   2.160804
    11  C    3.931815   4.257233   4.257233   4.741622   2.561121
    12  H    4.257233   4.479501   4.816242   4.941470   2.830196
    13  H    4.741622   4.941470   4.941470   5.648843   3.514613
    14  H    4.257233   4.816242   4.479501   4.941470   2.830196
                    6          7          8          9         10
     6  H    0.000000
     7  H    1.756112   0.000000
     8  C    2.160804   2.160804   0.000000
     9  H    2.513711   3.066377   1.099533   0.000000
    10  H    3.066377   2.513711   1.099533   1.756112   0.000000
    11  C    2.783985   2.783985   1.531978   2.163411   2.163411
    12  H    3.146092   2.605934   2.182840   3.083591   2.530125
    13  H    3.791073   3.791073   2.186074   2.506754   2.506754
    14  H    2.605934   3.146092   2.182840   2.530125   3.083591
                   11         12         13         14
    11  C    0.000000
    12  H    1.097106   0.000000
    13  H    1.096049   1.770502   0.000000
    14  H    1.097106   1.769252   1.770502   0.000000
 Stoichiometry    C4H10
 Framework group  C2H[SGH(C4H2),X(H8)]
 Deg. of freedom    11
 Full point group                 C2H     NOp   4
 Largest Abelian subgroup         C2H     NOp   4
 Largest concise Abelian subgroup C2H     NOp   4
                         Standard orientation:                         
 ---------------------------------------------------------------------
 Center     Atomic      Atomic             Coordinates (Angstroms)
 Number     Number       Type             X           Y           Z
 ---------------------------------------------------------------------
      1          6           0        0.704505    1.835338    0.000000
      2          1           0        0.190658    2.231621    0.884626
      3          1           0        0.190658    2.231621   -0.884626
      4          1           0        1.724309    2.236988    0.000000
      5          6           0        0.704505    0.303360    0.000000
      6          1           0        1.255244   -0.063623   -0.878056
      7          1           0        1.255244   -0.063623    0.878056
      8          6           0       -0.704505   -0.303360    0.000000
      9          1           0       -1.255244    0.063623   -0.878056
     10          1           0       -1.255244    0.063623    0.878056
     11          6           0       -0.704505   -1.835338    0.000000
     12          1           0       -0.190658   -2.231621    0.884626
     13          1           0       -1.724309   -2.236988    0.000000
     14          1           0       -0.190658   -2.231621   -0.884626
 ---------------------------------------------------------------------
 Rotational constants (GHZ):     23.4076847      3.5974761      3.3794165
 Leave Link  202 at Mon Oct  5 16:15:17 2015, MaxMem=   805306368 cpu:         0.1
 (Enter /home/hetanjin/apps/g09D01/g09/l301.exe)
 Standard basis: def2TZVP (5D, 7F)
 Ernie: Thresh=  0.10000D-02 Tol=  0.10000D-05 Strict=F.
 There are    67 symmetry adapted cartesian basis functions of AG  symmetry.
 There are    35 symmetry adapted cartesian basis functions of BG  symmetry.
 There are    35 symmetry adapted cartesian basis functions of AU  symmetry.
 There are    67 symmetry adapted cartesian basis functions of BU  symmetry.
 There are    59 symmetry adapted basis functions of AG  symmetry.
 There are    33 symmetry adapted basis functions of BG  symmetry.
 There are    33 symmetry adapted basis functions of AU  symmetry.
 There are    59 symmetry adapted basis functions of BU  symmetry.
   184 basis functions,   284 primitive gaussians,   204 cartesian basis functions
    17 alpha electrons       17 beta electrons
       nuclear repulsion energy       130.1316333414 Hartrees.
 IExCor= 4336 DFT=T Ex+Corr=M062X ExCW=0 ScaHFX=  0.540000
 ScaDFX=  1.000000  1.000000  1.000000  1.000000 ScalE2=  1.000000  1.000000
 IRadAn=      0 IRanWt=     -1 IRanGd=            0 ICorTp=0 IEmpDi=  4
 NAtoms=   14 NActive=   14 NUniq=    5 SFac= 4.00D+00 NAtFMM=   60 NAOKFM=F Big=F
 Integral buffers will be    131072 words long.
 Raffenetti 2 integral format.
 Two-electron integral symmetry is turned on.
 Leave Link  301 at Mon Oct  5 16:15:17 2015, MaxMem=   805306368 cpu:         0.2
 (Enter /home/hetanjin/apps/g09D01/g09/l302.exe)
 NPDir=0 NMtPBC=     1 NCelOv=     1 NCel=       1 NClECP=     1 NCelD=      1
         NCelK=      1 NCelE2=     1 NClLst=     1 CellRange=     0.0.
 One-electron integrals computed using PRISM.
 One-electron integral symmetry used in STVInt
   4 Symmetry operations used in ECPInt.
 ECPInt:  NShTT=    3570 NPrTT=    9988 LenC2=    3551 LenP2D=    8507.
 LDataN:  DoStor=T MaxTD1= 6 Len=  172
 NBasis=   184 RedAO= T EigKep=  2.54D-04  NBF=    59    33    33    59
 NBsUse=   184 1.00D-06 EigRej= -1.00D+00 NBFU=    59    33    33    59
 Precomputing XC quadrature grid using
 IXCGrd= 4 IRadAn=           0 IRanWt=          -1 IRanGd=           0 AccXCQ= 0.00D+00.
 Generated NRdTot=       0 NPtTot=           0 NUsed=           0 NTot=          32
 NSgBfM=   204   204   204   204   204 MxSgAt=    14 MxSgA2=    14.
 Leave Link  302 at Mon Oct  5 16:15:18 2015, MaxMem=   805306368 cpu:         1.2
 (Enter /home/hetanjin/apps/g09D01/g09/l303.exe)
 DipDrv:  MaxL=1.
 Leave Link  303 at Mon Oct  5 16:15:18 2015, MaxMem=   805306368 cpu:         0.3
 (Enter /home/hetanjin/apps/g09D01/g09/l401.exe)
 ExpMin= 9.52D-02 ExpMax= 1.36D+04 ExpMxC= 4.63D+02 IAcc=2 IRadAn=         4 AccDes= 0.00D+00
 Harris functional with IExCor= 1009 and IRadAn=       4 diagonalized for initial guess.
 HarFok:  IExCor= 1009 AccDes= 0.00D+00 IRadAn=         4 IDoV= 1 UseB2=F ITyADJ=14
 ICtDFT=  3500011 ScaDFX=  1.000000  1.000000  1.000000  1.000000
 FoFCou: FMM=F IPFlag=           0 FMFlag=      100000 FMFlg1=           0
         NFxFlg=           0 DoJE=T BraDBF=F KetDBF=T FulRan=T
         wScrn=  0.000000 ICntrl=     500 IOpCl=  0 I1Cent=   200000004 NGrid=           0
         NMat0=    1 NMatS0=      1 NMatT0=    0 NMatD0=    1 NMtDS0=    0 NMtDT0=    0
 Petite list used in FoFCou.
 Harris En= -158.440466138800    
 JPrj=0 DoOrth=F DoCkMO=F.
 Initial guess orbital symmetries:
       Occupied  (BU) (AG) (AG) (BU) (AG) (BU) (AG) (BU) (AU) (AG)
                 (BU) (BG) (BU) (AG) (AU) (AG) (BG)
       Virtual   (AG) (BU) (AU) (BU) (AG) (BU) (AG) (BG) (BG) (AU)
                 (BU) (BU) (AG) (AG) (BU) (BG) (AG) (AU) (AU) (BU)
                 (AG) (BU) (BG) (AG) (AU) (BU) (AG) (BU) (BU) (AG)
                 (BU) (BG) (AG) (AU) (BG) (AG) (BU) (AG) (AU) (BU)
                 (BU) (AG) (BG) (AG) (AU) (BU) (BG) (BU) (AG) (AG)
                 (BG) (AU) (AG) (BU) (BG) (AU) (BU) (BU) (AG) (AG)
                 (AU) (BG) (BU) (AU) (BG) (AG) (BU) (AU) (BU) (BG)
                 (AG) (BU) (AG) (AU) (AG) (BG) (AU) (AG) (BU) (AG)
                 (BG) (BU) (AU) (BU) (AG) (BU) (AG) (BU) (BU) (BG)
                 (AU) (BG) (AG) (BU) (AG) (BU) (AG) (AU) (BG) (AU)
                 (AG) (BG) (BU) (AU) (AG) (BG) (AG) (BU) (BG) (AU)
                 (BU) (AG) (BU) (AG) (BU) (AU) (BG) (AG) (BU) (AG)
                 (BU) (BG) (AU) (AG) (BU) (AG) (AU) (BU) (BG) (AG)
                 (AU) (BG) (BU) (AU) (BU) (AG) (BG) (AU) (BG) (BU)
                 (AG) (AU) (AG) (AU) (BG) (BU) (BG) (AG) (BU) (AG)
                 (AU) (BU) (AG) (BU) (BG) (BU) (AU) (BG) (AG) (AG)
                 (BU) (BU) (AG) (AG) (BU) (AG) (BU)
 The electronic state of the initial guess is 1-AG.
 Leave Link  401 at Mon Oct  5 16:15:18 2015, MaxMem=   805306368 cpu:         2.4
 (Enter /home/hetanjin/apps/g09D01/g09/l502.exe)
 Closed shell SCF:
 Using DIIS extrapolation, IDIIS=  1040.
 Integral symmetry usage will be decided dynamically.
 Keep R1 ints in memory in symmetry-blocked form, NReq=181514322.
 IVT=      146958 IEndB=      146958 NGot=   805306368 MDV=   768640941
 LenX=   768640941 LenY=   768598884
 Requested convergence on RMS density matrix=1.00D-08 within 128 cycles.
 Requested convergence on MAX density matrix=1.00D-06.
 Requested convergence on             energy=1.00D-06.
 No special actions if energy rises.
 FoFCou: FMM=F IPFlag=           0 FMFlag=           0 FMFlg1=           0
         NFxFlg=           0 DoJE=F BraDBF=F KetDBF=F FulRan=T
         wScrn=  0.000000 ICntrl=     600 IOpCl=  0 I1Cent=           0 NGrid=           0
         NMat0=    1 NMatS0=  17020 NMatT0=    0 NMatD0=    1 NMtDS0=    0 NMtDT0=    0
 Petite list used in FoFCou.
 Integral accuracy reduced to 1.0D-05 until final iterations.

 Cycle   1  Pass 0  IDiag  1:
 E= -158.202903683259    
 DIIS: error= 4.76D-02 at cycle   1 NSaved=   1.
 NSaved= 1 IEnMin= 1 EnMin= -158.202903683259     IErMin= 1 ErrMin= 4.76D-02
 ErrMax= 4.76D-02  0.00D+00 EMaxC= 1.00D-01 BMatC= 2.20D-01 BMatP= 2.20D-01
 IDIUse=3 WtCom= 5.24D-01 WtEn= 4.76D-01
 Coeff-Com:  0.100D+01
 Coeff-En:   0.100D+01
 Coeff:      0.100D+01
 Gap=     0.371 Goal=   None    Shift=    0.000
 GapD=    0.371 DampG=1.000 DampE=0.500 DampFc=0.5000 IDamp=-1.
 Damping current iteration by 5.00D-01
 RMSDP=3.64D-03 MaxDP=6.72D-02              OVMax= 1.67D-01

 Cycle   2  Pass 0  IDiag  1:
 E= -158.312790234017     Delta-E=       -0.109886550758 Rises=F Damp=T
 DIIS: error= 6.37D-03 at cycle   2 NSaved=   2.
 NSaved= 2 IEnMin= 2 EnMin= -158.312790234017     IErMin= 2 ErrMin= 6.37D-03
 ErrMax= 6.37D-03  0.00D+00 EMaxC= 1.00D-01 BMatC= 9.47D-03 BMatP= 2.20D-01
 IDIUse=3 WtCom= 9.36D-01 WtEn= 6.37D-02
 Coeff-Com: -0.806D-01 0.108D+01
 Coeff-En:   0.000D+00 0.100D+01
 Coeff:     -0.754D-01 0.108D+01
 Gap=     0.452 Goal=   None    Shift=    0.000
 RMSDP=8.96D-04 MaxDP=1.83D-02 DE=-1.10D-01 OVMax= 8.77D-02

 Cycle   3  Pass 0  IDiag  1:
 E= -158.417363318208     Delta-E=       -0.104573084191 Rises=F Damp=F
 DIIS: error= 3.45D-03 at cycle   3 NSaved=   3.
 NSaved= 3 IEnMin= 3 EnMin= -158.417363318208     IErMin= 3 ErrMin= 3.45D-03
 ErrMax= 3.45D-03  0.00D+00 EMaxC= 1.00D-01 BMatC= 8.55D-04 BMatP= 9.47D-03
 IDIUse=3 WtCom= 9.66D-01 WtEn= 3.45D-02
 Coeff-Com: -0.434D-01 0.194D+00 0.850D+00
 Coeff-En:   0.000D+00 0.000D+00 0.100D+01
 Coeff:     -0.419D-01 0.187D+00 0.855D+00
 Gap=     0.447 Goal=   None    Shift=    0.000
 RMSDP=1.50D-04 MaxDP=4.60D-03 DE=-1.05D-01 OVMax= 8.69D-03

 Cycle   4  Pass 0  IDiag  1:
 E= -158.418066575720     Delta-E=       -0.000703257512 Rises=F Damp=F
 DIIS: error= 1.17D-03 at cycle   4 NSaved=   4.
 NSaved= 4 IEnMin= 4 EnMin= -158.418066575720     IErMin= 4 ErrMin= 1.17D-03
 ErrMax= 1.17D-03  0.00D+00 EMaxC= 1.00D-01 BMatC= 1.60D-04 BMatP= 8.55D-04
 IDIUse=3 WtCom= 9.88D-01 WtEn= 1.17D-02
 Coeff-Com: -0.129D-01 0.383D-01 0.339D+00 0.635D+00
 Coeff-En:   0.000D+00 0.000D+00 0.000D+00 0.100D+01
 Coeff:     -0.128D-01 0.379D-01 0.335D+00 0.640D+00
 Gap=     0.448 Goal=   None    Shift=    0.000
 RMSDP=5.04D-05 MaxDP=1.16D-03 DE=-7.03D-04 OVMax= 3.27D-03

 Cycle   5  Pass 0  IDiag  1:
 E= -158.418215554242     Delta-E=       -0.000148978522 Rises=F Damp=F
 DIIS: error= 2.01D-04 at cycle   5 NSaved=   5.
 NSaved= 5 IEnMin= 5 EnMin= -158.418215554242     IErMin= 5 ErrMin= 2.01D-04
 ErrMax= 2.01D-04  0.00D+00 EMaxC= 1.00D-01 BMatC= 6.75D-06 BMatP= 1.60D-04
 IDIUse=3 WtCom= 9.98D-01 WtEn= 2.01D-03
 Coeff-Com: -0.141D-03-0.233D-02 0.364D-01 0.196D+00 0.770D+00
 Coeff-En:   0.000D+00 0.000D+00 0.000D+00 0.000D+00 0.100D+01
 Coeff:     -0.141D-03-0.233D-02 0.363D-01 0.196D+00 0.770D+00
 Gap=     0.448 Goal=   None    Shift=    0.000
 RMSDP=1.05D-05 MaxDP=2.21D-04 DE=-1.49D-04 OVMax= 6.05D-04

 Cycle   6  Pass 0  IDiag  1:
 E= -158.418222026177     Delta-E=       -0.000006471935 Rises=F Damp=F
 DIIS: error= 2.61D-05 at cycle   6 NSaved=   6.
 NSaved= 6 IEnMin= 6 EnMin= -158.418222026177     IErMin= 6 ErrMin= 2.61D-05
 ErrMax= 2.61D-05  0.00D+00 EMaxC= 1.00D-01 BMatC= 7.62D-08 BMatP= 6.75D-06
 IDIUse=1 WtCom= 1.00D+00 WtEn= 0.00D+00
 Coeff-Com:  0.781D-03-0.201D-02-0.176D-01-0.297D-01-0.786D-02 0.106D+01
 Coeff:      0.781D-03-0.201D-02-0.176D-01-0.297D-01-0.786D-02 0.106D+01
 Gap=     0.448 Goal=   None    Shift=    0.000
 RMSDP=3.14D-06 MaxDP=5.35D-05 DE=-6.47D-06 OVMax= 1.23D-04

 Initial convergence to 1.0D-05 achieved.  Increase integral accuracy.
 Cycle   7  Pass 1  IDiag  1:
 E= -158.418251628738     Delta-E=       -0.000029602561 Rises=F Damp=F
 DIIS: error= 2.66D-04 at cycle   1 NSaved=   1.
 NSaved= 1 IEnMin= 1 EnMin= -158.418251628738     IErMin= 1 ErrMin= 2.66D-04
 ErrMax= 2.66D-04  0.00D+00 EMaxC= 1.00D-01 BMatC= 9.69D-06 BMatP= 9.69D-06
 IDIUse=3 WtCom= 9.97D-01 WtEn= 2.66D-03
 Coeff-Com:  0.100D+01
 Coeff-En:   0.100D+01
 Coeff:      0.100D+01
 Gap=     0.448 Goal=   None    Shift=    0.000
 RMSDP=3.14D-06 MaxDP=5.35D-05 DE=-2.96D-05 OVMax= 4.86D-04

 Cycle   8  Pass 1  IDiag  1:
 E= -158.418255887332     Delta-E=       -0.000004258594 Rises=F Damp=F
 DIIS: error= 7.63D-05 at cycle   2 NSaved=   2.
 NSaved= 2 IEnMin= 2 EnMin= -158.418255887332     IErMin= 2 ErrMin= 7.63D-05
 ErrMax= 7.63D-05  0.00D+00 EMaxC= 1.00D-01 BMatC= 7.86D-07 BMatP= 9.69D-06
 IDIUse=1 WtCom= 1.00D+00 WtEn= 0.00D+00
 Coeff-Com:  0.142D+00 0.858D+00
 Coeff:      0.142D+00 0.858D+00
 Gap=     0.447 Goal=   None    Shift=    0.000
 RMSDP=5.49D-06 MaxDP=1.14D-04 DE=-4.26D-06 OVMax= 2.70D-04

 Cycle   9  Pass 1  IDiag  1:
 E= -158.418256355580     Delta-E=       -0.000000468248 Rises=F Damp=F
 DIIS: error= 5.30D-05 at cycle   3 NSaved=   3.
 NSaved= 3 IEnMin= 3 EnMin= -158.418256355580     IErMin= 3 ErrMin= 5.30D-05
 ErrMax= 5.30D-05  0.00D+00 EMaxC= 1.00D-01 BMatC= 3.21D-07 BMatP= 7.86D-07
 IDIUse=1 WtCom= 1.00D+00 WtEn= 0.00D+00
 Coeff-Com: -0.110D-01 0.381D+00 0.630D+00
 Coeff:     -0.110D-01 0.381D+00 0.630D+00
 Gap=     0.448 Goal=   None    Shift=    0.000
 RMSDP=2.18D-06 MaxDP=4.40D-05 DE=-4.68D-07 OVMax= 1.17D-04

 Cycle  10  Pass 1  IDiag  1:
 E= -158.418256676887     Delta-E=       -0.000000321307 Rises=F Damp=F
 DIIS: error= 5.07D-06 at cycle   4 NSaved=   4.
 NSaved= 4 IEnMin= 4 EnMin= -158.418256676887     IErMin= 4 ErrMin= 5.07D-06
 ErrMax= 5.07D-06  0.00D+00 EMaxC= 1.00D-01 BMatC= 1.87D-09 BMatP= 3.21D-07
 IDIUse=1 WtCom= 1.00D+00 WtEn= 0.00D+00
 Coeff-Com: -0.460D-02 0.338D-01 0.966D-01 0.874D+00
 Coeff:     -0.460D-02 0.338D-01 0.966D-01 0.874D+00
 Gap=     0.448 Goal=   None    Shift=    0.000
 RMSDP=2.46D-07 MaxDP=5.17D-06 DE=-3.21D-07 OVMax= 1.46D-05

 Cycle  11  Pass 1  IDiag  1:
 E= -158.418256678771     Delta-E=       -0.000000001884 Rises=F Damp=F
 DIIS: error= 1.72D-06 at cycle   5 NSaved=   5.
 NSaved= 5 IEnMin= 5 EnMin= -158.418256678771     IErMin= 5 ErrMin= 1.72D-06
 ErrMax= 1.72D-06  0.00D+00 EMaxC= 1.00D-01 BMatC= 3.94D-10 BMatP= 1.87D-09
 IDIUse=1 WtCom= 1.00D+00 WtEn= 0.00D+00
 Coeff-Com: -0.908D-03-0.122D-01-0.552D-02 0.323D+00 0.695D+00
 Coeff:     -0.908D-03-0.122D-01-0.552D-02 0.323D+00 0.695D+00
 Gap=     0.448 Goal=   None    Shift=    0.000
 RMSDP=8.73D-08 MaxDP=1.72D-06 DE=-1.88D-09 OVMax= 5.37D-06

 Cycle  12  Pass 1  IDiag  1:
 E= -158.418256679149     Delta-E=       -0.000000000378 Rises=F Damp=F
 DIIS: error= 3.29D-07 at cycle   6 NSaved=   6.
 NSaved= 6 IEnMin= 6 EnMin= -158.418256679149     IErMin= 6 ErrMin= 3.29D-07
 ErrMax= 3.29D-07  0.00D+00 EMaxC= 1.00D-01 BMatC= 2.10D-11 BMatP= 3.94D-10
 IDIUse=1 WtCom= 1.00D+00 WtEn= 0.00D+00
 Coeff-Com:  0.138D-03-0.694D-02-0.111D-01 0.242D-01 0.209D+00 0.785D+00
 Coeff:      0.138D-03-0.694D-02-0.111D-01 0.242D-01 0.209D+00 0.785D+00
 Gap=     0.448 Goal=   None    Shift=    0.000
 RMSDP=2.41D-08 MaxDP=4.72D-07 DE=-3.78D-10 OVMax= 1.18D-06

 Cycle  13  Pass 1  IDiag  1:
 E= -158.418256679173     Delta-E=       -0.000000000025 Rises=F Damp=F
 DIIS: error= 5.88D-08 at cycle   7 NSaved=   7.
 NSaved= 7 IEnMin= 7 EnMin= -158.418256679173     IErMin= 7 ErrMin= 5.88D-08
 ErrMax= 5.88D-08  0.00D+00 EMaxC= 1.00D-01 BMatC= 2.87D-13 BMatP= 2.10D-11
 IDIUse=1 WtCom= 1.00D+00 WtEn= 0.00D+00
 Coeff-Com:  0.579D-04-0.255D-03-0.126D-02-0.122D-01-0.919D-02 0.707D-01
 Coeff-Com:  0.952D+00
 Coeff:      0.579D-04-0.255D-03-0.126D-02-0.122D-01-0.919D-02 0.707D-01
 Coeff:      0.952D+00
 Gap=     0.448 Goal=   None    Shift=    0.000
 RMSDP=5.97D-09 MaxDP=1.15D-07 DE=-2.49D-11 OVMax= 2.53D-07

 SCF Done:  E(RM062X) =  -158.418256679     A.U. after   13 cycles
            NFock= 13  Conv=0.60D-08     -V/T= 2.0063
 KE= 1.574188896819D+02 PE=-6.261818598356D+02 EE= 1.802130801331D+02
 Leave Link  502 at Mon Oct  5 16:15:29 2015, MaxMem=   805306368 cpu:        42.3
 (Enter /home/hetanjin/apps/g09D01/g09/l601.exe)
 Copying SCF densities to generalized density rwf, IOpCl= 0 IROHF=0.

 **********************************************************************

            Population analysis using the SCF density.

 **********************************************************************

 Orbital symmetries:
       Occupied  (AG) (BU) (AG) (BU) (AG) (BU) (AG) (BU) (AU) (AG)
                 (BU) (BG) (BU) (AU) (AG) (BG) (AG)
       Virtual   (AG) (BU) (BU) (AU) (AG) (AG) (BG) (BU) (AU) (BG)
                 (BU) (AG) (BU) (AG) (BG) (AG) (AU) (BU) (AU) (BU)
                 (AG) (BG) (BU) (AG) (AU) (BU) (AG) (BU) (BU) (BG)
                 (AG) (AG) (AU) (BU) (BG) (BU) (AG) (AG) (BU) (AU)
                 (BU) (AG) (BG) (AG) (AU) (BU) (BG) (BU) (AG) (AG)
                 (BG) (AU) (BU) (BG) (AG) (AU) (BU) (BU) (AG) (AG)
                 (BU) (AU) (BG) (AU) (BG) (BU) (AG) (AU) (BU) (BG)
                 (AG) (BU) (AU) (AG) (AG) (BG) (AU) (AG) (BU) (AG)
                 (BG) (BU) (AU) (BU) (AG) (BU) (AG) (BU) (BU) (BG)
                 (AU) (BG) (AG) (BU) (BU) (AG) (AG) (AU) (BG) (AU)
                 (AG) (BG) (BU) (AU) (AG) (BG) (AG) (BG) (BU) (AU)
                 (BU) (AG) (BU) (AG) (BU) (AU) (BG) (AG) (BU) (BU)
                 (AG) (BG) (AG) (AU) (BU) (AG) (AU) (BU) (AG) (BG)
                 (BG) (AU) (BU) (AU) (AG) (BU) (BG) (AU) (BG) (BU)
                 (AG) (AU) (AG) (AU) (BG) (BU) (BG) (AG) (BU) (AG)
                 (AU) (BU) (AG) (BU) (BG) (BU) (AU) (BG) (AG) (AG)
                 (BU) (BU) (AG) (AG) (BU) (AG) (BU)
 The electronic state is 1-AG.
 Alpha  occ. eigenvalues --  -10.52776 -10.52741 -10.52093 -10.52093  -0.88966
 Alpha  occ. eigenvalues --   -0.81482  -0.71452  -0.65548  -0.53692  -0.49100
 Alpha  occ. eigenvalues --   -0.48269  -0.47502  -0.42897  -0.41009  -0.39008
 Alpha  occ. eigenvalues --   -0.37969  -0.37834
 Alpha virt. eigenvalues --    0.06917   0.09034   0.11376   0.11582   0.14077
 Alpha virt. eigenvalues --    0.14574   0.15654   0.16538   0.17623   0.18004
 Alpha virt. eigenvalues --    0.19621   0.20422   0.23404   0.25529   0.26954
 Alpha virt. eigenvalues --    0.27813   0.28838   0.29971   0.32535   0.35343
 Alpha virt. eigenvalues --    0.38945   0.41098   0.41174   0.41515   0.45357
 Alpha virt. eigenvalues --    0.47125   0.47820   0.48169   0.50055   0.51100
 Alpha virt. eigenvalues --    0.51435   0.52324   0.53400   0.54013   0.56434
 Alpha virt. eigenvalues --    0.62677   0.62681   0.64540   0.69089   0.73549
 Alpha virt. eigenvalues --    0.74829   0.84954   0.86201   0.87684   0.88938
 Alpha virt. eigenvalues --    0.92699   0.99044   1.01997   1.03528   1.05398
 Alpha virt. eigenvalues --    1.06233   1.11765   1.15129   1.16885   1.17167
 Alpha virt. eigenvalues --    1.18842   1.23199   1.24978   1.30654   1.49123
 Alpha virt. eigenvalues --    1.54290   1.55700   1.57506   1.57944   1.59107
 Alpha virt. eigenvalues --    1.59593   1.60501   1.63498   1.65196   1.65837
 Alpha virt. eigenvalues --    1.66303   1.70400   1.79273   1.79709   1.83153
 Alpha virt. eigenvalues --    1.85813   1.88607   1.89419   1.93757   1.93827
 Alpha virt. eigenvalues --    1.96044   1.97114   2.03777   2.08803   2.10118
 Alpha virt. eigenvalues --    2.14747   2.28066   2.29015   2.30286   2.33460
 Alpha virt. eigenvalues --    2.34703   2.35975   2.37799   2.41278   2.42843
 Alpha virt. eigenvalues --    2.43043   2.43885   2.49304   2.53503   2.54244
 Alpha virt. eigenvalues --    2.56664   2.58964   2.60524   2.62710   2.63835
 Alpha virt. eigenvalues --    2.65123   2.68172   2.68461   2.68494   2.71878
 Alpha virt. eigenvalues --    2.74080   2.77794   2.80198   2.91103   2.94041
 Alpha virt. eigenvalues --    3.04225   3.06894   3.08128   3.10819   3.11826
 Alpha virt. eigenvalues --    3.14284   3.18998   3.19076   3.20634   3.22649
 Alpha virt. eigenvalues --    3.27508   3.30296   3.32343   3.33808   3.34741
 Alpha virt. eigenvalues --    3.38808   3.39038   3.42342   3.44397   3.49474
 Alpha virt. eigenvalues --    3.51216   3.54282   3.57921   3.64964   3.69819
 Alpha virt. eigenvalues --    3.70800   3.79158   3.83775   3.87326   3.87521
 Alpha virt. eigenvalues --    3.93065   3.94834   4.01762   4.07548   4.13667
 Alpha virt. eigenvalues --    4.27708   4.28905   4.29599   4.38283   4.42919
 Alpha virt. eigenvalues --    4.48036   4.49449   4.54650   4.59101   4.64911
 Alpha virt. eigenvalues --    4.68088   4.80134   4.94855  22.37613  22.43472
 Alpha virt. eigenvalues --   22.48812  22.55225
          Condensed to atoms (all electrons):
               1          2          3          4          5          6
     1  C    5.035311   0.413686   0.413686   0.418006   0.272510  -0.038386
     2  H    0.413686   0.550513  -0.032323  -0.024697  -0.040774   0.007850
     3  H    0.413686  -0.032323   0.550513  -0.024697  -0.040774  -0.006241
     4  H    0.418006  -0.024697  -0.024697   0.537224  -0.046840  -0.004678
     5  C    0.272510  -0.040774  -0.040774  -0.046840   5.133564   0.419143
     6  H   -0.038386   0.007850  -0.006241  -0.004678   0.419143   0.577865
     7  H   -0.038386  -0.006241   0.007850  -0.004678   0.419143  -0.036285
     8  C   -0.056183  -0.006210  -0.006210   0.011204   0.273267  -0.045968
     9  H   -0.004026   0.000016   0.003167  -0.000183  -0.045968  -0.006922
    10  H   -0.004026   0.003167   0.000016  -0.000183  -0.045968   0.008677
    11  C    0.011487  -0.000235  -0.000235  -0.000652  -0.056183  -0.004026
    12  H   -0.000235   0.000093  -0.000029   0.000003  -0.006210   0.000016
    13  H   -0.000652   0.000003   0.000003   0.000017   0.011204  -0.000183
    14  H   -0.000235  -0.000029   0.000093   0.000003  -0.006210   0.003167
               7          8          9         10         11         12
     1  C   -0.038386  -0.056183  -0.004026  -0.004026   0.011487  -0.000235
     2  H   -0.006241  -0.006210   0.000016   0.003167  -0.000235   0.000093
     3  H    0.007850  -0.006210   0.003167   0.000016  -0.000235  -0.000029
     4  H   -0.004678   0.011204  -0.000183  -0.000183  -0.000652   0.000003
     5  C    0.419143   0.273267  -0.045968  -0.045968  -0.056183  -0.006210
     6  H   -0.036285  -0.045968  -0.006922   0.008677  -0.004026   0.000016
     7  H    0.577865  -0.045968   0.008677  -0.006922  -0.004026   0.003167
     8  C   -0.045968   5.133564   0.419143   0.419143   0.272510  -0.040774
     9  H    0.008677   0.419143   0.577865  -0.036285  -0.038386   0.007850
    10  H   -0.006922   0.419143  -0.036285   0.577865  -0.038386  -0.006241
    11  C   -0.004026   0.272510  -0.038386  -0.038386   5.035311   0.413686
    12  H    0.003167  -0.040774   0.007850  -0.006241   0.413686   0.550513
    13  H   -0.000183  -0.046840  -0.004678  -0.004678   0.418006  -0.024697
    14  H    0.000016  -0.040774  -0.006241   0.007850   0.413686  -0.032323
              13         14
     1  C   -0.000652  -0.000235
     2  H    0.000003  -0.000029
     3  H    0.000003   0.000093
     4  H    0.000017   0.000003
     5  C    0.011204  -0.006210
     6  H   -0.000183   0.003167
     7  H   -0.000183   0.000016
     8  C   -0.046840  -0.040774
     9  H   -0.004678  -0.006241
    10  H   -0.004678   0.007850
    11  C    0.418006   0.413686
    12  H   -0.024697  -0.032323
    13  H    0.537224  -0.024697
    14  H   -0.024697   0.550513
 Mulliken charges:
               1
     1  C   -0.422555
     2  H    0.135182
     3  H    0.135182
     4  H    0.140152
     5  C   -0.239904
     6  H    0.125971
     7  H    0.125971
     8  C   -0.239904
     9  H    0.125971
    10  H    0.125971
    11  C   -0.422555
    12  H    0.135182
    13  H    0.140152
    14  H    0.135182
 Sum of Mulliken charges =   0.00000
 Mulliken charges with hydrogens summed into heavy atoms:
               1
     1  C   -0.012039
     5  C    0.012039
     8  C    0.012039
    11  C   -0.012039
 Electronic spatial extent (au):  <R**2>=            428.4331
 Charge=              0.0000 electrons
 Dipole moment (field-independent basis, Debye):
    X=              0.0000    Y=              0.0000    Z=              0.0000  Tot=              0.0000
 Quadrupole moment (field-independent basis, Debye-Ang):
   XX=            -28.6363   YY=            -29.5949   ZZ=            -28.1407
   XY=              0.0402   XZ=              0.0000   YZ=              0.0000
 Traceless Quadrupole moment (field-independent basis, Debye-Ang):
   XX=              0.1543   YY=             -0.8043   ZZ=              0.6499
   XY=              0.0402   XZ=              0.0000   YZ=              0.0000
 Octapole moment (field-independent basis, Debye-Ang**2):
  XXX=              0.0000  YYY=              0.0000  ZZZ=              0.0000  XYY=              0.0000
  XXY=              0.0000  XXZ=              0.0000  XZZ=              0.0000  YZZ=              0.0000
  YYZ=              0.0000  XYZ=              0.0000
 Hexadecapole moment (field-independent basis, Debye-Ang**3):
 XXXX=           -150.5053 YYYY=           -409.8652 ZZZZ=            -59.5307 XXXY=            -64.0954
 XXXZ=              0.0000 YYYX=            -70.3958 YYYZ=              0.0000 ZZZX=              0.0000
 ZZZY=              0.0000 XXYY=            -89.6702 XXZZ=            -35.4105 YYZZ=            -74.2163
 XXYZ=              0.0000 YYXZ=              0.0000 ZZXY=            -25.4836
 N-N= 1.301316333414D+02 E-N=-6.261818614106D+02  KE= 1.574188896819D+02
 Symmetry AG   KE= 7.625144234485D+01
 Symmetry BG   KE= 4.013723177383D+00
 Symmetry AU   KE= 3.825781701007D+00
 Symmetry BU   KE= 7.332794245866D+01
 No NMR shielding tensors so no spin-rotation constants.
 Leave Link  601 at Mon Oct  5 16:15:30 2015, MaxMem=   805306368 cpu:         1.3
 (Enter /home/hetanjin/apps/g09D01/g09/l9999.exe)
 1\1\GINC-COMPUTE-0-0\SP\RM062X\def2TZVP\C4H10\HETANJIN\05-Oct-2015\0\\
 #p M062X/def2TZVP\\using B3LYP/6-31G(d) to do opt and freq calc.\\0,1\
 C,0,0.704505,1.835338,0.\H,0,0.190658,2.231621,0.884626\H,0,0.190658,2
 .231621,-0.884626\H,0,1.724309,2.236988,0.\C,0,0.704505,0.30336,0.\H,0
 ,1.255244,-0.063623,-0.878056\H,0,1.255244,-0.063623,0.878056\C,0,-0.7
 04505,-0.30336,0.\H,0,-1.255244,0.063623,-0.878056\H,0,-1.255244,0.063
 623,0.878056\C,0,-0.704505,-1.835338,0.\H,0,-0.190658,-2.231621,0.8846
 26\H,0,-1.724309,-2.236988,0.\H,0,-0.190658,-2.231621,-0.884626\\Versi
 on=ES64L-G09RevD.01\State=1-AG\HF=-158.4182567\RMSD=5.969e-09\Dipole=0
 .,0.,0.\Quadrupole=0.1147372,-0.5979549,0.4832177,0.0299182,0.,0.\PG=C
 02H [SGH(C4H2),X(H8)]\\@


 HEAVEN'S NET CASTS WIDE.
 THOUGH ITS MESHES ARE COARSE, NOTHING SLIPS THROUGH.

                                          -- LAO-TSU
 Job cpu time:       0 days  0 hours  0 minutes 48.9 seconds.
 File lengths (MBytes):  RWF=     16 Int=      0 D2E=      0 Chk=      2 Scr=      1
 Normal termination of Gaussian 09 at Mon Oct  5 16:15:30 2015.
