 Entering Gaussian System, Link 0=/share/apps/g09/g09
 Input=C5H10_8_1_opt_631gd.gjf
 Output=C5H10_8_1_opt_631gd.log
 Initial command:
 /share/apps/g09/l1.exe /state/partition1/Gau-7140.inp -scrdir=/state/partition1/
 Entering Link 1 = /share/apps/g09/l1.exe PID=      7141.
  
 Copyright (c) 1988,1990,1992,1993,1995,1998,2003,2009, Gaussian, Inc.
                  All Rights Reserved.
  
 This is part of the Gaussian(R) 09 program.  It is based on
 the Gaussian(R) 03 system (copyright 2003, Gaussian, Inc.),
 the Gaussian(R) 98 system (copyright 1998, Gaussian, Inc.),
 the Gaussian(R) 94 system (copyright 1995, Gaussian, Inc.),
 the Gaussian 92(TM) system (copyright 1992, Gaussian, Inc.),
 the Gaussian 90(TM) system (copyright 1990, Gaussian, Inc.),
 the Gaussian 88(TM) system (copyright 1988, Gaussian, Inc.),
 the Gaussian 86(TM) system (copyright 1986, Carnegie Mellon
 University), and the Gaussian 82(TM) system (copyright 1983,
 Carnegie Mellon University). Gaussian is a federally registered
 trademark of Gaussian, Inc.
  
 This software contains proprietary and confidential information,
 including trade secrets, belonging to Gaussian, Inc.
  
 This software is provided under written license and may be
 used, copied, transmitted, or stored only in accord with that
 written license.
  
 The following legend is applicable only to US Government
 contracts under FAR:
  
                    RESTRICTED RIGHTS LEGEND
  
 Use, reproduction and disclosure by the US Government is
 subject to restrictions as set forth in subparagraphs (a)
 and (c) of the Commercial Computer Software - Restricted
 Rights clause in FAR 52.227-19.
  
 Gaussian, Inc.
 340 Quinnipiac St., Bldg. 40, Wallingford CT 06492
  
  
 ---------------------------------------------------------------
 Warning -- This program may not be used in any manner that
 competes with the business of Gaussian, Inc. or will provide
 assistance to any competitor of Gaussian, Inc.  The licensee
 of this program is prohibited from giving any competitor of
 Gaussian, Inc. access to this program.  By using this program,
 the user acknowledges that Gaussian, Inc. is engaged in the
 business of creating and licensing software in the field of
 computational chemistry and represents and warrants to the
 licensee that it is not a competitor of Gaussian, Inc. and that
 it will not use this program in any manner prohibited above.
 ---------------------------------------------------------------
  

 Cite this work as:
 Gaussian 09, Revision A.01,
 M. J. Frisch, G. W. Trucks, H. B. Schlegel, G. E. Scuseria, 
 M. A. Robb, J. R. Cheeseman, G. Scalmani, V. Barone, B. Mennucci, 
 G. A. Petersson, H. Nakatsuji, M. Caricato, X. Li, H. P. Hratchian, 
 A. F. Izmaylov, J. Bloino, G. Zheng, J. L. Sonnenberg, M. Hada, 
 M. Ehara, K. Toyota, R. Fukuda, J. Hasegawa, M. Ishida, T. Nakajima, 
 Y. Honda, O. Kitao, H. Nakai, T. Vreven, J. A. Montgomery, Jr., 
 J. E. Peralta, F. Ogliaro, M. Bearpark, J. J. Heyd, E. Brothers, 
 K. N. Kudin, V. N. Staroverov, R. Kobayashi, J. Normand, 
 K. Raghavachari, A. Rendell, J. C. Burant, S. S. Iyengar, J. Tomasi, 
 M. Cossi, N. Rega, J. M. Millam, M. Klene, J. E. Knox, J. B. Cross, 
 V. Bakken, C. Adamo, J. Jaramillo, R. Gomperts, R. E. Stratmann, 
 O. Yazyev, A. J. Austin, R. Cammi, C. Pomelli, J. W. Ochterski, 
 R. L. Martin, K. Morokuma, V. G. Zakrzewski, G. A. Voth, 
 P. Salvador, J. J. Dannenberg, S. Dapprich, A. D. Daniels, 
 O. Farkas, J. B. Foresman, J. V. Ortiz, J. Cioslowski, 
 and D. J. Fox, Gaussian, Inc., Wallingford CT, 2009.
 
 ******************************************
 Gaussian 09:  EM64L-G09RevA.01  8-May-2009
                 6-Jun-2015 
 ******************************************
 %mem=28GB
 %nprocshared=12
 Will use up to   12 processors via shared memory.
 %chk=C5H10_8_1_opt_631gd.chk
 ---------------------------
 #p ub3lyp/6-31G(d) opt freq
 ---------------------------
 1/14=-1,18=20,19=15,26=3,38=1/1,3;
 2/9=110,12=2,17=6,18=5,40=1/2;
 3/5=1,6=6,7=1,11=2,16=1,25=1,30=1,71=1,74=-5,116=2/1,2,3;
 4//1;
 5/5=2,38=5/2;
 6/7=2,8=2,9=2,10=2,28=1/1;
 7//1,2,3,16;
 1/14=-1,18=20,19=15/3(2);
 2/9=110/2;
 99//99;
 2/9=110/2;
 3/5=1,6=6,7=1,11=2,16=1,25=1,30=1,71=1,74=-5,116=2/1,2,3;
 4/5=5,16=3/1;
 5/5=2,38=5/2;
 7//1,2,3,16;
 1/14=-1,18=20,19=15/3(-5);
 2/9=110/2;
 6/7=2,8=2,9=2,10=2,19=2,28=1/1;
 99/9=1/99;
 Leave Link    1 at Sat Jun  6 00:35:13 2015, MaxMem= 3758096384 cpu:       0.5
 (Enter /share/apps/g09/l101.exe)
 -----------------------------
 using ub3lyp/6-31G(d) to scan
 -----------------------------
 Symbolic Z-matrix:
 Charge =  0 Multiplicity = 1
 C                    -0.61306   1.17834   0. 
 C                     0.93019   1.17834   0. 
 C                     0.93013   2.72153   0. 
 C                    -0.6131    2.72153  -0.00027 
 H                    -1.06605   0.72523  -0.90642 
 H                    -1.06572   0.72538   0.90664 
 H                     1.3831    0.72553  -0.90662 
 H                     1.38307   0.72529   0.90653 
 H                     1.38305   3.17429  -0.90666 
 H                    -1.0658    3.17406  -0.90724 
 H                    -1.06637   3.17479   0.90596 
 C                     1.55825   3.35022   1.2577 
 H                     2.61286   3.16942   1.25811 
 H                     1.37717   4.40478   1.25772 
 H                     1.12114   2.91326   2.13115 
 
 NAtoms=     15 NQM=     15 NQMF=      0 NMic=      0 NMicF=      0 NTot=     15.
                    Isotopes and Nuclear Properties:
 (Nuclear quadrupole moments (NQMom) in fm**2, nuclear magnetic moments (NMagM)
  in nuclear magnetons)

  Atom         1           2           3           4           5           6           7           8           9          10
 IAtWgt=          12          12          12          12           1           1           1           1           1           1
 AtmWgt=  12.0000000  12.0000000  12.0000000  12.0000000   1.0078250   1.0078250   1.0078250   1.0078250   1.0078250   1.0078250
 NucSpn=           0           0           0           0           1           1           1           1           1           1
 AtZEff=   0.0000000   0.0000000   0.0000000   0.0000000   0.0000000   0.0000000   0.0000000   0.0000000   0.0000000   0.0000000
 NQMom=    0.0000000   0.0000000   0.0000000   0.0000000   0.0000000   0.0000000   0.0000000   0.0000000   0.0000000   0.0000000
 NMagM=    0.0000000   0.0000000   0.0000000   0.0000000   2.7928460   2.7928460   2.7928460   2.7928460   2.7928460   2.7928460

  Atom        11          12          13          14          15
 IAtWgt=           1          12           1           1           1
 AtmWgt=   1.0078250  12.0000000   1.0078250   1.0078250   1.0078250
 NucSpn=           1           0           1           1           1
 AtZEff=   0.0000000   0.0000000   0.0000000   0.0000000   0.0000000
 NQMom=    0.0000000   0.0000000   0.0000000   0.0000000   0.0000000
 NMagM=    2.7928460   0.0000000   2.7928460   2.7928460   2.7928460
 Leave Link  101 at Sat Jun  6 00:35:13 2015, MaxMem= 3758096384 cpu:       0.6
 (Enter /share/apps/g09/l103.exe)

 GradGradGradGradGradGradGradGradGradGradGradGradGradGradGradGradGradGrad
 Berny optimization.
 Initialization pass.
                           ----------------------------
                           !    Initial Parameters    !
                           ! (Angstroms and Degrees)  !
 --------------------------                            --------------------------
 ! Name  Definition              Value          Derivative Info.                !
 --------------------------------------------------------------------------------
 ! R1    R(1,2)                  1.5432         estimate D2E/DX2                !
 ! R2    R(1,4)                  1.5432         estimate D2E/DX2                !
 ! R3    R(1,5)                  1.11           estimate D2E/DX2                !
 ! R4    R(1,6)                  1.11           estimate D2E/DX2                !
 ! R5    R(2,3)                  1.5432         estimate D2E/DX2                !
 ! R6    R(2,7)                  1.11           estimate D2E/DX2                !
 ! R7    R(2,8)                  1.11           estimate D2E/DX2                !
 ! R8    R(3,4)                  1.5432         estimate D2E/DX2                !
 ! R9    R(3,9)                  1.11           estimate D2E/DX2                !
 ! R10   R(3,12)                 1.54           estimate D2E/DX2                !
 ! R11   R(4,10)                 1.1101         estimate D2E/DX2                !
 ! R12   R(4,11)                 1.11           estimate D2E/DX2                !
 ! R13   R(12,13)                1.07           estimate D2E/DX2                !
 ! R14   R(12,14)                1.07           estimate D2E/DX2                !
 ! R15   R(12,15)                1.07           estimate D2E/DX2                !
 ! A1    A(2,1,4)               90.0016         estimate D2E/DX2                !
 ! A2    A(2,1,5)              114.0856         estimate D2E/DX2                !
 ! A3    A(2,1,6)              114.0671         estimate D2E/DX2                !
 ! A4    A(4,1,5)              114.0826         estimate D2E/DX2                !
 ! A5    A(4,1,6)              114.0925         estimate D2E/DX2                !
 ! A6    A(5,1,6)              109.5109         estimate D2E/DX2                !
 ! A7    A(1,2,3)               89.9977         estimate D2E/DX2                !
 ! A8    A(1,2,7)              114.0807         estimate D2E/DX2                !
 ! A9    A(1,2,8)              114.0787         estimate D2E/DX2                !
 ! A10   A(3,2,7)              114.0763         estimate D2E/DX2                !
 ! A11   A(3,2,8)              114.0896         estimate D2E/DX2                !
 ! A12   A(7,2,8)              109.5156         estimate D2E/DX2                !
 ! A13   A(2,3,4)               90.0022         estimate D2E/DX2                !
 ! A14   A(2,3,9)              114.0706         estimate D2E/DX2                !
 ! A15   A(2,3,12)             114.093          estimate D2E/DX2                !
 ! A16   A(4,3,9)              114.0724         estimate D2E/DX2                !
 ! A17   A(4,3,12)             114.0802         estimate D2E/DX2                !
 ! A18   A(9,3,12)             109.5196         estimate D2E/DX2                !
 ! A19   A(1,4,3)               89.9985         estimate D2E/DX2                !
 ! A20   A(1,4,10)             114.067          estimate D2E/DX2                !
 ! A21   A(1,4,11)             114.0921         estimate D2E/DX2                !
 ! A22   A(3,4,10)             114.0758         estimate D2E/DX2                !
 ! A23   A(3,4,11)             114.0918         estimate D2E/DX2                !
 ! A24   A(10,4,11)            109.5139         estimate D2E/DX2                !
 ! A25   A(3,12,13)            109.4712         estimate D2E/DX2                !
 ! A26   A(3,12,14)            109.4712         estimate D2E/DX2                !
 ! A27   A(3,12,15)            109.4712         estimate D2E/DX2                !
 ! A28   A(13,12,14)           109.4713         estimate D2E/DX2                !
 ! A29   A(13,12,15)           109.4712         estimate D2E/DX2                !
 ! A30   A(14,12,15)           109.4712         estimate D2E/DX2                !
 ! D1    D(4,1,2,3)              0.01           estimate D2E/DX2                !
 ! D2    D(4,1,2,7)           -116.53           estimate D2E/DX2                !
 ! D3    D(4,1,2,8)            116.5645         estimate D2E/DX2                !
 ! D4    D(5,1,2,3)            116.5601         estimate D2E/DX2                !
 ! D5    D(5,1,2,7)              0.0201         estimate D2E/DX2                !
 ! D6    D(5,1,2,8)           -126.8854         estimate D2E/DX2                !
 ! D7    D(6,1,2,3)           -116.547          estimate D2E/DX2                !
 ! D8    D(6,1,2,7)            126.9129         estimate D2E/DX2                !
 ! D9    D(6,1,2,8)              0.0074         estimate D2E/DX2                !
 ! D10   D(2,1,4,3)             -0.01           estimate D2E/DX2                !
 ! D11   D(2,1,4,10)           116.5268         estimate D2E/DX2                !
 ! D12   D(2,1,4,11)          -116.5703         estimate D2E/DX2                !
 ! D13   D(5,1,4,3)           -116.5628         estimate D2E/DX2                !
 ! D14   D(5,1,4,10)            -0.026          estimate D2E/DX2                !
 ! D15   D(5,1,4,11)           126.877          estimate D2E/DX2                !
 ! D16   D(6,1,4,3)            116.5243         estimate D2E/DX2                !
 ! D17   D(6,1,4,10)          -126.9389         estimate D2E/DX2                !
 ! D18   D(6,1,4,11)            -0.036          estimate D2E/DX2                !
 ! D19   D(1,2,3,4)             -0.01           estimate D2E/DX2                !
 ! D20   D(1,2,3,9)           -116.5456         estimate D2E/DX2                !
 ! D21   D(1,2,3,12)           116.5393         estimate D2E/DX2                !
 ! D22   D(7,2,3,4)            116.5339         estimate D2E/DX2                !
 ! D23   D(7,2,3,9)             -0.0017         estimate D2E/DX2                !
 ! D24   D(7,2,3,12)          -126.9168         estimate D2E/DX2                !
 ! D25   D(8,2,3,4)           -116.5547         estimate D2E/DX2                !
 ! D26   D(8,2,3,9)            126.9097         estimate D2E/DX2                !
 ! D27   D(8,2,3,12)            -0.0054         estimate D2E/DX2                !
 ! D28   D(2,3,4,1)              0.01           estimate D2E/DX2                !
 ! D29   D(2,3,4,10)          -116.5189         estimate D2E/DX2                !
 ! D30   D(2,3,4,11)           116.5706         estimate D2E/DX2                !
 ! D31   D(9,3,4,1)            116.544          estimate D2E/DX2                !
 ! D32   D(9,3,4,10)             0.0151         estimate D2E/DX2                !
 ! D33   D(9,3,4,11)          -126.8954         estimate D2E/DX2                !
 ! D34   D(12,3,4,1)          -116.5508         estimate D2E/DX2                !
 ! D35   D(12,3,4,10)          126.9203         estimate D2E/DX2                !
 ! D36   D(12,3,4,11)            0.0098         estimate D2E/DX2                !
 ! D37   D(2,3,12,13)           69.2391         estimate D2E/DX2                !
 ! D38   D(2,3,12,14)         -170.7609         estimate D2E/DX2                !
 ! D39   D(2,3,12,15)          -50.7609         estimate D2E/DX2                !
 ! D40   D(4,3,12,13)          170.7696         estimate D2E/DX2                !
 ! D41   D(4,3,12,14)          -69.2303         estimate D2E/DX2                !
 ! D42   D(4,3,12,15)           50.7697         estimate D2E/DX2                !
 ! D43   D(9,3,12,13)          -59.9997         estimate D2E/DX2                !
 ! D44   D(9,3,12,14)           60.0003         estimate D2E/DX2                !
 ! D45   D(9,3,12,15)         -179.9997         estimate D2E/DX2                !
 --------------------------------------------------------------------------------
 Trust Radius=3.00D-01 FncErr=1.00D-07 GrdErr=1.00D-06
 Number of steps in this run= 100 maximum allowed number of steps= 100.
 GradGradGradGradGradGradGradGradGradGradGradGradGradGradGradGradGradGrad

 Leave Link  103 at Sat Jun  6 00:35:13 2015, MaxMem= 3758096384 cpu:       0.1
 (Enter /share/apps/g09/l202.exe)
                          Input orientation:                          
 ---------------------------------------------------------------------
 Center     Atomic      Atomic             Coordinates (Angstroms)
 Number     Number       Type             X           Y           Z
 ---------------------------------------------------------------------
      1          6           0       -0.613057    1.178344    0.000000
      2          6           0        0.930190    1.178344    0.000000
      3          6           0        0.930129    2.721534    0.000000
      4          6           0       -0.613100    2.721531   -0.000270
      5          1           0       -1.066051    0.725231   -0.906420
      6          1           0       -1.065718    0.725379    0.906643
      7          1           0        1.383098    0.725531   -0.906615
      8          1           0        1.383070    0.725289    0.906530
      9          1           0        1.383055    3.174288   -0.906656
     10          1           0       -1.065799    3.174060   -0.907235
     11          1           0       -1.066370    3.174794    0.905959
     12          6           0        1.558250    3.350217    1.257705
     13          1           0        2.612864    3.169418    1.258107
     14          1           0        1.377170    4.404783    1.257719
     15          1           0        1.121137    2.913262    2.131148
 ---------------------------------------------------------------------
                    Distance matrix (angstroms):
                    1          2          3          4          5
     1  C    0.000000
     2  C    1.543247   0.000000
     3  C    2.182397   1.543190   0.000000
     4  C    1.543187   2.182469   1.543229   0.000000
     5  H    1.110005   2.238724   2.965056   2.238635   0.000000
     6  H    1.109991   2.238488   2.964800   2.238745   1.813063
     7  H    2.238666   1.110007   2.238562   2.964841   2.449149
     8  H    2.238656   1.110025   2.238738   2.965124   3.047127
     9  H    2.964841   2.238505   1.110024   2.238562   3.463524
    10  H    2.238511   2.964782   2.238657   1.110092   2.448829
    11  H    2.238765   2.965270   2.238798   1.110023   3.047142
    12  C    3.318649   2.587144   1.540000   2.586988   4.296620
    13  H    3.994218   2.894582   2.148263   3.491556   4.918704
    14  H    3.994092   3.491642   2.148263   2.894314   4.918530
    15  H    3.249486   2.754667   2.148263   2.754502   4.335676
                    6          7          8          9         10
     6  H    0.000000
     7  H    3.047065   0.000000
     8  H    2.448788   1.813145   0.000000
     9  H    3.909181   2.448757   3.047169   0.000000
    10  H    3.047325   3.463003   3.909371   2.448854   0.000000
    11  H    2.449415   3.909502   3.464077   3.047172   1.813194
    12  C    3.728033   3.406455   2.654102   2.178555   3.406410
    13  H    4.430443   3.488686   2.758581   2.489710   4.268641
    14  H    4.430460   4.268639   3.696221   2.489714   3.488525
    15  H    3.326947   3.752705   2.521016   3.060227   3.752662
                   11         12         13         14         15
    11  H    0.000000
    12  C    2.653890   0.000000
    13  H    3.696053   1.070000   0.000000
    14  H    2.758169   1.070000   1.747303   0.000000
    15  H    2.520848   1.070000   1.747303   1.747303   0.000000
 Stoichiometry    C5H10
 Framework group  C1[X(C5H10)]
 Deg. of freedom    39
 Full point group                 C1      NOp   1
 Largest Abelian subgroup         C1      NOp   1
 Largest concise Abelian subgroup C1      NOp   1
                         Standard orientation:                         
 ---------------------------------------------------------------------
 Center     Atomic      Atomic             Coordinates (Angstroms)
 Number     Number       Type             X           Y           Z
 ---------------------------------------------------------------------
      1          6           0        1.500165    0.000127   -0.324954
      2          6           0        0.494458   -1.091237    0.098233
      3          6           0       -0.511527   -0.000118    0.521186
      4          6           0        0.494276    1.091231    0.098252
      5          1           0        2.442193    0.000250    0.262154
      6          1           0        1.738935   -0.000149   -1.408961
      7          1           0        0.846005   -1.731545    0.934018
      8          1           0        0.143204   -1.731964   -0.737378
      9          1           0       -0.750326   -0.000179    1.605219
     10          1           0        0.845923    1.731458    0.934169
     11          1           0        0.142821    1.732113   -0.737154
     12          6           0       -1.818335   -0.000008   -0.293585
     13          1           0       -2.387900   -0.873648   -0.054316
     14          1           0       -2.387819    0.873655   -0.054210
     15          1           0       -1.587263    0.000044   -1.338337
 ---------------------------------------------------------------------
 Rotational constants (GHZ):      8.8166292      4.3591000      3.5333678
 Leave Link  202 at Sat Jun  6 00:35:13 2015, MaxMem= 3758096384 cpu:       0.3
 (Enter /share/apps/g09/l301.exe)
 Standard basis: 6-31G(d) (6D, 7F)
 Ernie: Thresh=  0.10000D-02 Tol=  0.10000D-05 Strict=F.
 There are    95 symmetry adapted basis functions of A   symmetry.
 Integral buffers will be    131072 words long.
 Raffenetti 2 integral format.
 Two-electron integral symmetry is turned on.
    95 basis functions,   180 primitive gaussians,    95 cartesian basis functions
    20 alpha electrons       20 beta electrons
       nuclear repulsion energy       184.8183477066 Hartrees.
 IExCor=  402 DFT=T Ex+Corr=B3LYP ExCW=0 ScaHFX=  0.200000
 ScaDFX=  0.800000  0.720000  1.000000  0.810000 ScalE2=  1.000000  1.000000
 IRadAn=      0 IRanWt=     -1 IRanGd=            0 ICorTp=0
 NAtoms=   15 NActive=   15 NUniq=   15 SFac= 7.50D-01 NAtFMM=   80 NAOKFM=F Big=F
 Leave Link  301 at Sat Jun  6 00:35:13 2015, MaxMem= 3758096384 cpu:       0.4
 (Enter /share/apps/g09/l302.exe)
 NPDir=0 NMtPBC=     1 NCelOv=     1 NCel=       1 NClECP=     1 NCelD=      1
         NCelK=      1 NCelE2=     1 NClLst=     1 CellRange=     0.0.
 One-electron integrals computed using PRISM.
 NBasis=    95 RedAO= T  NBF=    95
 NBsUse=    95 1.00D-06 NBFU=    95
 Precomputing XC quadrature grid using
 IXCGrd= 2 IRadAn=           0 IRanWt=          -1 IRanGd=           0 AccXCQ= 1.00D-10.
 NRdTot=     928 NPtTot=      117384 NUsed=      124088 NTot=      124120
 NSgBfM=    95    95    95    95    95 NAtAll=    15    15.
 Leave Link  302 at Sat Jun  6 00:35:14 2015, MaxMem= 3758096384 cpu:       5.1
 (Enter /share/apps/g09/l303.exe)
 DipDrv:  MaxL=1.
 Leave Link  303 at Sat Jun  6 00:35:14 2015, MaxMem= 3758096384 cpu:       0.8
 (Enter /share/apps/g09/l401.exe)
 Harris functional with IExCor=  402 diagonalized for initial guess.
 ExpMin= 1.61D-01 ExpMax= 3.05D+03 ExpMxC= 4.57D+02 IAcc=1 IRadAn=         1 AccDes= 0.00D+00
 HarFok:  IExCor=  402 AccDes= 0.00D+00 IRadAn=         1 IDoV= 1
 ScaDFX=  1.000000  1.000000  1.000000  1.000000
 FoFCou: FMM=F IPFlag=           0 FMFlag=      100000 FMFlg1=           0
         NFxFlg=           0 DoJE=T BraDBF=F KetDBF=T FulRan=T
         Omega=  0.000000  0.000000  1.000000  0.000000  0.000000 ICntrl=     500 IOpCl=  0
         NMat0=    1 NMatS0=    1 NMatT0=    0 NMatD0=    1 NMtDS0=    0 NMtDT0=    0
         I1Cent=           4 NGrid=           0.
 Petite list used in FoFCou.
 Harris En= -196.592528873462    
 Initial guess orbital symmetries:
 Alpha Orbitals:
       Occupied  (A) (A) (A) (A) (A) (A) (A) (A) (A) (A) (A) (A)
                 (A) (A) (A) (A) (A) (A) (A) (A)
       Virtual   (A) (A) (A) (A) (A) (A) (A) (A) (A) (A) (A) (A)
                 (A) (A) (A) (A) (A) (A) (A) (A) (A) (A) (A) (A)
                 (A) (A) (A) (A) (A) (A) (A) (A) (A) (A) (A) (A)
                 (A) (A) (A) (A) (A) (A) (A) (A) (A) (A) (A) (A)
                 (A) (A) (A) (A) (A) (A) (A) (A) (A) (A) (A) (A)
                 (A) (A) (A) (A) (A) (A) (A) (A) (A) (A) (A) (A)
                 (A) (A) (A)
 Beta  Orbitals:
       Occupied  (A) (A) (A) (A) (A) (A) (A) (A) (A) (A) (A) (A)
                 (A) (A) (A) (A) (A) (A) (A) (A)
       Virtual   (A) (A) (A) (A) (A) (A) (A) (A) (A) (A) (A) (A)
                 (A) (A) (A) (A) (A) (A) (A) (A) (A) (A) (A) (A)
                 (A) (A) (A) (A) (A) (A) (A) (A) (A) (A) (A) (A)
                 (A) (A) (A) (A) (A) (A) (A) (A) (A) (A) (A) (A)
                 (A) (A) (A) (A) (A) (A) (A) (A) (A) (A) (A) (A)
                 (A) (A) (A) (A) (A) (A) (A) (A) (A) (A) (A) (A)
                 (A) (A) (A)
 The electronic state of the initial guess is 1-A.
 Initial guess <Sx>= 0.0000 <Sy>= 0.0000 <Sz>= 0.0000 <S**2>= 0.0000 S= 0.0000
 Leave Link  401 at Sat Jun  6 00:35:15 2015, MaxMem= 3758096384 cpu:      11.4
 (Enter /share/apps/g09/l502.exe)
 UHF open shell SCF:
 Requested convergence on RMS density matrix=1.00D-08 within 128 cycles.
 Requested convergence on MAX density matrix=1.00D-06.
 Requested convergence on             energy=1.00D-06.
 No special actions if energy rises.
 Using DIIS extrapolation, IDIIS=  1040.
 Integral symmetry usage will be decided dynamically.
       123940 words used for storage of precomputed grid.
 Keep R1 and R2 ints in memory in canonical form, NReq=21883219.
 IEnd=      171036 IEndB=      171036 NGot=  3758096384 MDV=  3737152921
 LenX=  3737152921 LenY=  3737143455
 Symmetry not used in FoFDir.
 MinBra= 0 MaxBra= 2 Meth= 1.
 IRaf=       0 NMat=   1 IRICut=       1 DoRegI=T DoRafI=F ISym2E= 0 JSym2E=0.
 Integral accuracy reduced to 1.0D-05 until final iterations.

 Cycle   1  Pass 0  IDiag  1:
 E= -196.310097914676    
 DIIS: error= 3.89D-02 at cycle   1 NSaved=   1.
 NSaved= 1 IEnMin= 1 EnMin= -196.310097914676     IErMin= 1 ErrMin= 3.89D-02
 ErrMax= 3.89D-02 EMaxC= 1.00D-01 BMatC= 7.57D-01 BMatP= 7.57D-01
 IDIUse=3 WtCom= 6.11D-01 WtEn= 3.89D-01
 Coeff-Com:  0.100D+01
 Coeff-En:   0.100D+01
 Coeff:      0.100D+01
 Gap=     0.363 Goal=   None    Shift=    0.000
 Gap=     0.363 Goal=   None    Shift=    0.000
 GapD=    0.363 DampG=1.000 DampE=0.500 DampFc=0.5000 IDamp=-1.
 Damping current iteration by 5.00D-01
 RMSDP=1.15D-02 MaxDP=1.53D-01              OVMax= 1.78D-01

 Cycle   2  Pass 0  IDiag  1:
 E= -196.400060826178     Delta-E=       -0.089962911502 Rises=F Damp=T
 DIIS: error= 8.35D-03 at cycle   2 NSaved=   2.
 NSaved= 2 IEnMin= 2 EnMin= -196.400060826178     IErMin= 2 ErrMin= 8.35D-03
 ErrMax= 8.35D-03 EMaxC= 1.00D-01 BMatC= 3.86D-02 BMatP= 7.57D-01
 IDIUse=3 WtCom= 9.17D-01 WtEn= 8.35D-02
 Coeff-Com:  0.106D+00 0.894D+00
 Coeff-En:   0.173D+00 0.827D+00
 Coeff:      0.111D+00 0.889D+00
 Gap=     0.373 Goal=   None    Shift=    0.000
 Gap=     0.373 Goal=   None    Shift=    0.000
 RMSDP=2.09D-03 MaxDP=2.74D-02 DE=-9.00D-02 OVMax= 1.06D-01

 Cycle   3  Pass 0  IDiag  1:
 E= -196.522918115633     Delta-E=       -0.122857289456 Rises=F Damp=F
 DIIS: error= 3.50D-03 at cycle   3 NSaved=   3.
 NSaved= 3 IEnMin= 3 EnMin= -196.522918115633     IErMin= 3 ErrMin= 3.50D-03
 ErrMax= 3.50D-03 EMaxC= 1.00D-01 BMatC= 6.29D-03 BMatP= 3.86D-02
 IDIUse=3 WtCom= 9.65D-01 WtEn= 3.50D-02
 Coeff-Com:  0.135D-01 0.250D+00 0.737D+00
 Coeff-En:   0.000D+00 0.000D+00 0.100D+01
 Coeff:      0.131D-01 0.241D+00 0.746D+00
 Gap=     0.368 Goal=   None    Shift=    0.000
 Gap=     0.368 Goal=   None    Shift=    0.000
 RMSDP=6.14D-04 MaxDP=9.72D-03 DE=-1.23D-01 OVMax= 1.22D-02

 Cycle   4  Pass 0  IDiag  1:
 E= -196.523959771563     Delta-E=       -0.001041655930 Rises=F Damp=F
 DIIS: error= 1.75D-03 at cycle   4 NSaved=   4.
 NSaved= 4 IEnMin= 4 EnMin= -196.523959771563     IErMin= 4 ErrMin= 1.75D-03
 ErrMax= 1.75D-03 EMaxC= 1.00D-01 BMatC= 1.79D-03 BMatP= 6.29D-03
 IDIUse=3 WtCom= 9.82D-01 WtEn= 1.75D-02
 Coeff-Com: -0.137D-02 0.409D-01 0.357D+00 0.604D+00
 Coeff-En:   0.000D+00 0.000D+00 0.195D+00 0.805D+00
 Coeff:     -0.134D-02 0.402D-01 0.354D+00 0.607D+00
 Gap=     0.369 Goal=   None    Shift=    0.000
 Gap=     0.369 Goal=   None    Shift=    0.000
 RMSDP=2.19D-04 MaxDP=4.79D-03 DE=-1.04D-03 OVMax= 5.22D-03

 Cycle   5  Pass 0  IDiag  1:
 E= -196.524367699274     Delta-E=       -0.000407927711 Rises=F Damp=F
 DIIS: error= 2.97D-04 at cycle   5 NSaved=   5.
 NSaved= 5 IEnMin= 5 EnMin= -196.524367699274     IErMin= 5 ErrMin= 2.97D-04
 ErrMax= 2.97D-04 EMaxC= 1.00D-01 BMatC= 7.16D-05 BMatP= 1.79D-03
 IDIUse=3 WtCom= 9.97D-01 WtEn= 2.97D-03
 Coeff-Com: -0.100D-02 0.110D-02 0.911D-01 0.245D+00 0.663D+00
 Coeff-En:   0.000D+00 0.000D+00 0.000D+00 0.000D+00 0.100D+01
 Coeff:     -0.998D-03 0.109D-02 0.908D-01 0.245D+00 0.664D+00
 Gap=     0.369 Goal=   None    Shift=    0.000
 Gap=     0.369 Goal=   None    Shift=    0.000
 RMSDP=5.00D-05 MaxDP=8.37D-04 DE=-4.08D-04 OVMax= 8.93D-04

 Cycle   6  Pass 0  IDiag  1:
 E= -196.524384904673     Delta-E=       -0.000017205399 Rises=F Damp=F
 DIIS: error= 5.21D-05 at cycle   6 NSaved=   6.
 NSaved= 6 IEnMin= 6 EnMin= -196.524384904673     IErMin= 6 ErrMin= 5.21D-05
 ErrMax= 5.21D-05 EMaxC= 1.00D-01 BMatC= 8.02D-07 BMatP= 7.16D-05
 IDIUse=1 WtCom= 1.00D+00 WtEn= 0.00D+00
 Coeff-Com: -0.247D-03-0.381D-03 0.239D-01 0.714D-01 0.226D+00 0.679D+00
 Coeff:     -0.247D-03-0.381D-03 0.239D-01 0.714D-01 0.226D+00 0.679D+00
 Gap=     0.369 Goal=   None    Shift=    0.000
 Gap=     0.369 Goal=   None    Shift=    0.000
 RMSDP=9.24D-06 MaxDP=8.38D-05 DE=-1.72D-05 OVMax= 1.14D-04

 Initial convergence to 1.0D-05 achieved.  Increase integral accuracy.
 Cycle   7  Pass 1  IDiag  1:
 E= -196.524397048302     Delta-E=       -0.000012143628 Rises=F Damp=F
 DIIS: error= 2.08D-05 at cycle   1 NSaved=   1.
 NSaved= 1 IEnMin= 1 EnMin= -196.524397048302     IErMin= 1 ErrMin= 2.08D-05
 ErrMax= 2.08D-05 EMaxC= 1.00D-01 BMatC= 2.47D-07 BMatP= 2.47D-07
 IDIUse=1 WtCom= 1.00D+00 WtEn= 0.00D+00
 Coeff-Com:  0.100D+01
 Coeff:      0.100D+01
 Gap=     0.369 Goal=   None    Shift=    0.000
 Gap=     0.369 Goal=   None    Shift=    0.000
 RMSDP=9.24D-06 MaxDP=8.38D-05 DE=-1.21D-05 OVMax= 9.26D-05

 Cycle   8  Pass 1  IDiag  1:
 E= -196.524397129168     Delta-E=       -0.000000080866 Rises=F Damp=F
 DIIS: error= 4.44D-06 at cycle   2 NSaved=   2.
 NSaved= 2 IEnMin= 2 EnMin= -196.524397129168     IErMin= 2 ErrMin= 4.44D-06
 ErrMax= 4.44D-06 EMaxC= 1.00D-01 BMatC= 1.15D-08 BMatP= 2.47D-07
 IDIUse=1 WtCom= 1.00D+00 WtEn= 0.00D+00
 Coeff-Com:  0.484D-01 0.952D+00
 Coeff:      0.484D-01 0.952D+00
 Gap=     0.369 Goal=   None    Shift=    0.000
 Gap=     0.369 Goal=   None    Shift=    0.000
 RMSDP=1.19D-06 MaxDP=1.61D-05 DE=-8.09D-08 OVMax= 2.16D-05

 Cycle   9  Pass 1  IDiag  1:
 E= -196.524397129906     Delta-E=       -0.000000000738 Rises=F Damp=F
 DIIS: error= 3.63D-06 at cycle   3 NSaved=   3.
 NSaved= 3 IEnMin= 3 EnMin= -196.524397129906     IErMin= 3 ErrMin= 3.63D-06
 ErrMax= 3.63D-06 EMaxC= 1.00D-01 BMatC= 9.26D-09 BMatP= 1.15D-08
 IDIUse=1 WtCom= 1.00D+00 WtEn= 0.00D+00
 Coeff-Com: -0.161D-01 0.475D+00 0.542D+00
 Coeff:     -0.161D-01 0.475D+00 0.542D+00
 Gap=     0.369 Goal=   None    Shift=    0.000
 Gap=     0.369 Goal=   None    Shift=    0.000
 RMSDP=5.50D-07 MaxDP=9.99D-06 DE=-7.38D-10 OVMax= 1.05D-05

 Cycle  10  Pass 1  IDiag  1:
 E= -196.524397132074     Delta-E=       -0.000000002169 Rises=F Damp=F
 DIIS: error= 6.39D-07 at cycle   4 NSaved=   4.
 NSaved= 4 IEnMin= 4 EnMin= -196.524397132074     IErMin= 4 ErrMin= 6.39D-07
 ErrMax= 6.39D-07 EMaxC= 1.00D-01 BMatC= 2.74D-10 BMatP= 9.26D-09
 IDIUse=1 WtCom= 1.00D+00 WtEn= 0.00D+00
 Coeff-Com: -0.932D-02 0.145D+00 0.224D+00 0.640D+00
 Coeff:     -0.932D-02 0.145D+00 0.224D+00 0.640D+00
 Gap=     0.369 Goal=   None    Shift=    0.000
 Gap=     0.369 Goal=   None    Shift=    0.000
 RMSDP=1.02D-07 MaxDP=1.86D-06 DE=-2.17D-09 OVMax= 1.70D-06

 Cycle  11  Pass 1  IDiag  1:
 E= -196.524397132138     Delta-E=       -0.000000000064 Rises=F Damp=F
 DIIS: error= 1.10D-07 at cycle   5 NSaved=   5.
 NSaved= 5 IEnMin= 5 EnMin= -196.524397132138     IErMin= 5 ErrMin= 1.10D-07
 ErrMax= 1.10D-07 EMaxC= 1.00D-01 BMatC= 7.34D-12 BMatP= 2.74D-10
 IDIUse=1 WtCom= 1.00D+00 WtEn= 0.00D+00
 Coeff-Com: -0.220D-02 0.282D-01 0.502D-01 0.208D+00 0.716D+00
 Coeff:     -0.220D-02 0.282D-01 0.502D-01 0.208D+00 0.716D+00
 Gap=     0.369 Goal=   None    Shift=    0.000
 Gap=     0.369 Goal=   None    Shift=    0.000
 RMSDP=2.60D-08 MaxDP=3.26D-07 DE=-6.41D-11 OVMax= 4.15D-07

 Cycle  12  Pass 1  IDiag  1:
 E= -196.524397132141     Delta-E=       -0.000000000002 Rises=F Damp=F
 DIIS: error= 4.59D-08 at cycle   6 NSaved=   6.
 NSaved= 6 IEnMin= 6 EnMin= -196.524397132141     IErMin= 6 ErrMin= 4.59D-08
 ErrMax= 4.59D-08 EMaxC= 1.00D-01 BMatC= 1.48D-12 BMatP= 7.34D-12
 IDIUse=1 WtCom= 1.00D+00 WtEn= 0.00D+00
 Coeff-Com: -0.160D-03-0.164D-02 0.836D-03 0.339D-01 0.340D+00 0.627D+00
 Coeff:     -0.160D-03-0.164D-02 0.836D-03 0.339D-01 0.340D+00 0.627D+00
 Gap=     0.369 Goal=   None    Shift=    0.000
 Gap=     0.369 Goal=   None    Shift=    0.000
 RMSDP=7.57D-09 MaxDP=1.07D-07 DE=-2.16D-12 OVMax= 1.55D-07

 SCF Done:  E(UB3LYP) =  -196.524397132     A.U. after   12 cycles
             Convg  =    0.7572D-08             -V/T =  2.0099
 <Sx>= 0.0000 <Sy>= 0.0000 <Sz>= 0.0000 <S**2>= 0.0000 S= 0.0000
 <L.S>= 0.000000000000E+00
 KE= 1.946032481293D+02 PE=-8.235532962672D+02 EE= 2.476073032992D+02
 Annihilation of the first spin contaminant:
 S**2 before annihilation     0.0000,   after     0.0000
 Leave Link  502 at Sat Jun  6 00:35:23 2015, MaxMem= 3758096384 cpu:      83.4
 (Enter /share/apps/g09/l601.exe)
 Copying SCF densities to generalized density rwf, IOpCl= 1 IROHF=0.

 **********************************************************************

            Population analysis using the SCF density.

 **********************************************************************

 Orbital symmetries:
 Alpha Orbitals:
       Occupied  (A) (A) (A) (A) (A) (A) (A) (A) (A) (A) (A) (A)
                 (A) (A) (A) (A) (A) (A) (A) (A)
       Virtual   (A) (A) (A) (A) (A) (A) (A) (A) (A) (A) (A) (A)
                 (A) (A) (A) (A) (A) (A) (A) (A) (A) (A) (A) (A)
                 (A) (A) (A) (A) (A) (A) (A) (A) (A) (A) (A) (A)
                 (A) (A) (A) (A) (A) (A) (A) (A) (A) (A) (A) (A)
                 (A) (A) (A) (A) (A) (A) (A) (A) (A) (A) (A) (A)
                 (A) (A) (A) (A) (A) (A) (A) (A) (A) (A) (A) (A)
                 (A) (A) (A)
 Beta  Orbitals:
       Occupied  (A) (A) (A) (A) (A) (A) (A) (A) (A) (A) (A) (A)
                 (A) (A) (A) (A) (A) (A) (A) (A)
       Virtual   (A) (A) (A) (A) (A) (A) (A) (A) (A) (A) (A) (A)
                 (A) (A) (A) (A) (A) (A) (A) (A) (A) (A) (A) (A)
                 (A) (A) (A) (A) (A) (A) (A) (A) (A) (A) (A) (A)
                 (A) (A) (A) (A) (A) (A) (A) (A) (A) (A) (A) (A)
                 (A) (A) (A) (A) (A) (A) (A) (A) (A) (A) (A) (A)
                 (A) (A) (A) (A) (A) (A) (A) (A) (A) (A) (A) (A)
                 (A) (A) (A)
 The electronic state is 1-A.
 Alpha  occ. eigenvalues --  -10.17900 -10.17504 -10.17238 -10.17237 -10.16154
 Alpha  occ. eigenvalues --   -0.83646  -0.71697  -0.64901  -0.61120  -0.51847
 Alpha  occ. eigenvalues --   -0.47932  -0.45223  -0.41687  -0.39778  -0.37762
 Alpha  occ. eigenvalues --   -0.35930  -0.33216  -0.30098  -0.28897  -0.28375
 Alpha virt. eigenvalues --    0.08544   0.09575   0.12384   0.14407   0.16656
 Alpha virt. eigenvalues --    0.18000   0.18117   0.18470   0.19318   0.19662
 Alpha virt. eigenvalues --    0.20188   0.23226   0.27196   0.29023   0.39353
 Alpha virt. eigenvalues --    0.50531   0.51253   0.53138   0.57030   0.57914
 Alpha virt. eigenvalues --    0.60348   0.60656   0.65635   0.65646   0.68853
 Alpha virt. eigenvalues --    0.74057   0.75503   0.78409   0.83207   0.84037
 Alpha virt. eigenvalues --    0.84819   0.86227   0.86606   0.90197   0.92862
 Alpha virt. eigenvalues --    0.93364   0.94460   0.95576   0.97775   1.00419
 Alpha virt. eigenvalues --    1.22681   1.28140   1.31663   1.37906   1.47721
 Alpha virt. eigenvalues --    1.66722   1.69193   1.76197   1.82852   1.89463
 Alpha virt. eigenvalues --    1.95529   1.95635   1.97694   2.00487   2.01364
 Alpha virt. eigenvalues --    2.05050   2.06594   2.13422   2.17576   2.18474
 Alpha virt. eigenvalues --    2.28534   2.32732   2.42261   2.42846   2.46755
 Alpha virt. eigenvalues --    2.54438   2.61545   2.66880   2.74954   2.87495
 Alpha virt. eigenvalues --    4.10575   4.26642   4.33446   4.45117   4.77818
  Beta  occ. eigenvalues --  -10.17900 -10.17504 -10.17238 -10.17237 -10.16154
  Beta  occ. eigenvalues --   -0.83646  -0.71697  -0.64901  -0.61120  -0.51847
  Beta  occ. eigenvalues --   -0.47932  -0.45223  -0.41687  -0.39778  -0.37762
  Beta  occ. eigenvalues --   -0.35930  -0.33216  -0.30098  -0.28897  -0.28375
  Beta virt. eigenvalues --    0.08544   0.09575   0.12384   0.14407   0.16656
  Beta virt. eigenvalues --    0.18000   0.18117   0.18470   0.19318   0.19662
  Beta virt. eigenvalues --    0.20188   0.23226   0.27196   0.29023   0.39353
  Beta virt. eigenvalues --    0.50531   0.51253   0.53138   0.57030   0.57914
  Beta virt. eigenvalues --    0.60348   0.60656   0.65635   0.65646   0.68853
  Beta virt. eigenvalues --    0.74057   0.75503   0.78409   0.83207   0.84037
  Beta virt. eigenvalues --    0.84819   0.86227   0.86606   0.90197   0.92862
  Beta virt. eigenvalues --    0.93364   0.94460   0.95576   0.97775   1.00419
  Beta virt. eigenvalues --    1.22681   1.28140   1.31663   1.37906   1.47721
  Beta virt. eigenvalues --    1.66722   1.69193   1.76197   1.82852   1.89463
  Beta virt. eigenvalues --    1.95529   1.95635   1.97694   2.00487   2.01364
  Beta virt. eigenvalues --    2.05050   2.06594   2.13422   2.17576   2.18474
  Beta virt. eigenvalues --    2.28534   2.32732   2.42261   2.42846   2.46755
  Beta virt. eigenvalues --    2.54438   2.61545   2.66880   2.74954   2.87495
  Beta virt. eigenvalues --    4.10575   4.26642   4.33446   4.45117   4.77818
          Condensed to atoms (all electrons):
              1          2          3          4          5          6
     1  C    5.058356   0.360530  -0.141685   0.360512   0.367515   0.367507
     2  C    0.360530   5.094319   0.387338  -0.172310  -0.028632  -0.029345
     3  C   -0.141685   0.387338   4.903318   0.387348   0.006358   0.006881
     4  C    0.360512  -0.172310   0.387348   5.094326  -0.028637  -0.029322
     5  H    0.367515  -0.028632   0.006358  -0.028637   0.593017  -0.032380
     6  H    0.367507  -0.029345   0.006881  -0.029322  -0.032380   0.595066
     7  H   -0.029491   0.360843  -0.027780   0.009269  -0.008802   0.003536
     8  H   -0.029516   0.363768  -0.035444   0.008737   0.003564  -0.008807
     9  H    0.010268  -0.037182   0.367462  -0.037175  -0.000419  -0.000438
    10  H   -0.029498   0.009268  -0.027779   0.360833  -0.008808   0.003535
    11  H   -0.029508   0.008738  -0.035444   0.363764   0.003563  -0.008800
    12  C    0.004464  -0.040290   0.380800  -0.040308  -0.000287   0.000045
    13  H   -0.000374  -0.004326  -0.029883   0.005277   0.000014   0.000017
    14  H   -0.000374   0.005276  -0.029878  -0.004330   0.000014   0.000017
    15  H    0.002100  -0.005336  -0.038903  -0.005336  -0.000039  -0.000299
              7          8          9         10         11         12
     1  C   -0.029491  -0.029516   0.010268  -0.029498  -0.029508   0.004464
     2  C    0.360843   0.363768  -0.037182   0.009268   0.008738  -0.040290
     3  C   -0.027780  -0.035444   0.367462  -0.027779  -0.035444   0.380800
     4  C    0.009269   0.008737  -0.037175   0.360833   0.363764  -0.040308
     5  H   -0.008802   0.003564  -0.000419  -0.008808   0.003563  -0.000287
     6  H    0.003536  -0.008807  -0.000438   0.003535  -0.008800   0.000045
     7  H    0.599466  -0.032597  -0.008098  -0.000349  -0.000461   0.004009
     8  H   -0.032597   0.600859   0.003931  -0.000461  -0.000255  -0.009755
     9  H   -0.008098   0.003931   0.629506  -0.008098   0.003930  -0.042231
    10  H   -0.000349  -0.000461  -0.008098   0.599505  -0.032596   0.004010
    11  H   -0.000461  -0.000255   0.003930  -0.032596   0.600843  -0.009754
    12  C    0.004009  -0.009755  -0.042231   0.004010  -0.009754   5.074219
    13  H    0.000139   0.002208  -0.002987  -0.000188   0.000188   0.372045
    14  H   -0.000188   0.000187  -0.002987   0.000140   0.002209   0.372052
    15  H   -0.000056   0.003718   0.005771  -0.000056   0.003718   0.380054
             13         14         15
     1  C   -0.000374  -0.000374   0.002100
     2  C   -0.004326   0.005276  -0.005336
     3  C   -0.029883  -0.029878  -0.038903
     4  C    0.005277  -0.004330  -0.005336
     5  H    0.000014   0.000014  -0.000039
     6  H    0.000017   0.000017  -0.000299
     7  H    0.000139  -0.000188  -0.000056
     8  H    0.002208   0.000187   0.003718
     9  H   -0.002987  -0.002987   0.005771
    10  H   -0.000188   0.000140  -0.000056
    11  H    0.000188   0.002209   0.003718
    12  C    0.372045   0.372052   0.380054
    13  H    0.574510  -0.029958  -0.031817
    14  H   -0.029958   0.574496  -0.031818
    15  H   -0.031817  -0.031818   0.577011
 Mulliken atomic charges:
              1
     1  C   -0.270805
     2  C   -0.272658
     3  C   -0.072708
     4  C   -0.272649
     5  H    0.133958
     6  H    0.132788
     7  H    0.130561
     8  H    0.129862
     9  H    0.118749
    10  H    0.130543
    11  H    0.129866
    12  C   -0.449073
    13  H    0.145135
    14  H    0.145143
    15  H    0.141289
 Sum of Mulliken atomic charges =   0.00000
 Mulliken charges with hydrogens summed into heavy atoms:
              1
     1  C   -0.004059
     2  C   -0.012235
     3  C    0.046041
     4  C   -0.012240
    12  C   -0.017506
 Sum of Mulliken charges with hydrogens summed into heavy atoms =   0.00000
          Atomic-Atomic Spin Densities.
              1          2          3          4          5          6
     1  C    0.000000   0.000000   0.000000   0.000000   0.000000   0.000000
     2  C    0.000000   0.000000   0.000000   0.000000   0.000000   0.000000
     3  C    0.000000   0.000000   0.000000   0.000000   0.000000   0.000000
     4  C    0.000000   0.000000   0.000000   0.000000   0.000000   0.000000
     5  H    0.000000   0.000000   0.000000   0.000000   0.000000   0.000000
     6  H    0.000000   0.000000   0.000000   0.000000   0.000000   0.000000
     7  H    0.000000   0.000000   0.000000   0.000000   0.000000   0.000000
     8  H    0.000000   0.000000   0.000000   0.000000   0.000000   0.000000
     9  H    0.000000   0.000000   0.000000   0.000000   0.000000   0.000000
    10  H    0.000000   0.000000   0.000000   0.000000   0.000000   0.000000
    11  H    0.000000   0.000000   0.000000   0.000000   0.000000   0.000000
    12  C    0.000000   0.000000   0.000000   0.000000   0.000000   0.000000
    13  H    0.000000   0.000000   0.000000   0.000000   0.000000   0.000000
    14  H    0.000000   0.000000   0.000000   0.000000   0.000000   0.000000
    15  H    0.000000   0.000000   0.000000   0.000000   0.000000   0.000000
              7          8          9         10         11         12
     1  C    0.000000   0.000000   0.000000   0.000000   0.000000   0.000000
     2  C    0.000000   0.000000   0.000000   0.000000   0.000000   0.000000
     3  C    0.000000   0.000000   0.000000   0.000000   0.000000   0.000000
     4  C    0.000000   0.000000   0.000000   0.000000   0.000000   0.000000
     5  H    0.000000   0.000000   0.000000   0.000000   0.000000   0.000000
     6  H    0.000000   0.000000   0.000000   0.000000   0.000000   0.000000
     7  H    0.000000   0.000000   0.000000   0.000000   0.000000   0.000000
     8  H    0.000000   0.000000   0.000000   0.000000   0.000000   0.000000
     9  H    0.000000   0.000000   0.000000   0.000000   0.000000   0.000000
    10  H    0.000000   0.000000   0.000000   0.000000   0.000000   0.000000
    11  H    0.000000   0.000000   0.000000   0.000000   0.000000   0.000000
    12  C    0.000000   0.000000   0.000000   0.000000   0.000000   0.000000
    13  H    0.000000   0.000000   0.000000   0.000000   0.000000   0.000000
    14  H    0.000000   0.000000   0.000000   0.000000   0.000000   0.000000
    15  H    0.000000   0.000000   0.000000   0.000000   0.000000   0.000000
             13         14         15
     1  C    0.000000   0.000000   0.000000
     2  C    0.000000   0.000000   0.000000
     3  C    0.000000   0.000000   0.000000
     4  C    0.000000   0.000000   0.000000
     5  H    0.000000   0.000000   0.000000
     6  H    0.000000   0.000000   0.000000
     7  H    0.000000   0.000000   0.000000
     8  H    0.000000   0.000000   0.000000
     9  H    0.000000   0.000000   0.000000
    10  H    0.000000   0.000000   0.000000
    11  H    0.000000   0.000000   0.000000
    12  C    0.000000   0.000000   0.000000
    13  H    0.000000   0.000000   0.000000
    14  H    0.000000   0.000000   0.000000
    15  H    0.000000   0.000000   0.000000
 Mulliken atomic spin densities:
              1
     1  C    0.000000
     2  C    0.000000
     3  C    0.000000
     4  C    0.000000
     5  H    0.000000
     6  H    0.000000
     7  H    0.000000
     8  H    0.000000
     9  H    0.000000
    10  H    0.000000
    11  H    0.000000
    12  C    0.000000
    13  H    0.000000
    14  H    0.000000
    15  H    0.000000
 Sum of Mulliken atomic spin densities =   0.00000
 Electronic spatial extent (au):  <R**2>=            441.0998
 Charge=              0.0000 electrons
 Dipole moment (field-independent basis, Debye):
    X=             -0.0361    Y=             -0.0001    Z=              0.0790  Tot=              0.0869
 Quadrupole moment (field-independent basis, Debye-Ang):
   XX=            -33.7683   YY=            -33.6885   ZZ=            -32.2666
   XY=             -0.0003   XZ=              0.2479   YZ=              0.0001
 Traceless Quadrupole moment (field-independent basis, Debye-Ang):
   XX=             -0.5272   YY=             -0.4473   ZZ=              0.9745
   XY=             -0.0003   XZ=              0.2479   YZ=              0.0001
 Octapole moment (field-independent basis, Debye-Ang**2):
  XXX=              0.2429  YYY=             -0.0003  ZZZ=             -0.2408  XYY=             -1.2646
  XXY=              0.0001  XXZ=              1.9388  XZZ=              0.6763  YZZ=             -0.0010
  YYZ=              0.2482  XYZ=              0.0009
 Hexadecapole moment (field-independent basis, Debye-Ang**3):
 XXXX=           -348.7669 YYYY=           -173.6560 ZZZZ=            -87.5983 XXXY=             -0.0004
 XXXZ=              0.3077 YYYX=             -0.0014 YYYZ=             -0.0016 ZZZX=             -0.5943
 ZZZY=              0.0005 XXYY=            -85.5299 XXZZ=            -72.5294 YYZZ=            -42.1329
 XXYZ=              0.0013 YYXZ=              1.1335 ZZXY=             -0.0011
 N-N= 1.848183477066D+02 E-N=-1.235329958568D+03  KE= 2.919048721939D+02
                          Isotropic Fermi Contact Couplings
        Atom                 a.u.       MegaHertz       Gauss      10(-4) cm-1
     1  C(13)              0.00000       0.00000       0.00000       0.00000
     2  C(13)              0.00000       0.00000       0.00000       0.00000
     3  C(13)              0.00000       0.00000       0.00000       0.00000
     4  C(13)              0.00000       0.00000       0.00000       0.00000
     5  H(1)               0.00000       0.00000       0.00000       0.00000
     6  H(1)               0.00000       0.00000       0.00000       0.00000
     7  H(1)               0.00000       0.00000       0.00000       0.00000
     8  H(1)               0.00000       0.00000       0.00000       0.00000
     9  H(1)               0.00000       0.00000       0.00000       0.00000
    10  H(1)               0.00000       0.00000       0.00000       0.00000
    11  H(1)               0.00000       0.00000       0.00000       0.00000
    12  C(13)              0.00000       0.00000       0.00000       0.00000
    13  H(1)               0.00000       0.00000       0.00000       0.00000
    14  H(1)               0.00000       0.00000       0.00000       0.00000
    15  H(1)               0.00000       0.00000       0.00000       0.00000
 --------------------------------------------------------
       Center         ----  Spin Dipole Couplings  ----
                      3XX-RR        3YY-RR        3ZZ-RR
 --------------------------------------------------------
     1   Atom        0.000000      0.000000      0.000000
     2   Atom        0.000000      0.000000      0.000000
     3   Atom        0.000000      0.000000      0.000000
     4   Atom        0.000000      0.000000      0.000000
     5   Atom        0.000000      0.000000      0.000000
     6   Atom        0.000000      0.000000      0.000000
     7   Atom        0.000000      0.000000      0.000000
     8   Atom        0.000000      0.000000      0.000000
     9   Atom        0.000000      0.000000      0.000000
    10   Atom        0.000000      0.000000      0.000000
    11   Atom        0.000000      0.000000      0.000000
    12   Atom        0.000000      0.000000      0.000000
    13   Atom        0.000000      0.000000      0.000000
    14   Atom        0.000000      0.000000      0.000000
    15   Atom        0.000000      0.000000      0.000000
 --------------------------------------------------------
                        XY            XZ            YZ
 --------------------------------------------------------
     1   Atom        0.000000      0.000000      0.000000
     2   Atom        0.000000      0.000000      0.000000
     3   Atom        0.000000      0.000000      0.000000
     4   Atom        0.000000      0.000000      0.000000
     5   Atom        0.000000      0.000000      0.000000
     6   Atom        0.000000      0.000000      0.000000
     7   Atom        0.000000      0.000000      0.000000
     8   Atom        0.000000      0.000000      0.000000
     9   Atom        0.000000      0.000000      0.000000
    10   Atom        0.000000      0.000000      0.000000
    11   Atom        0.000000      0.000000      0.000000
    12   Atom        0.000000      0.000000      0.000000
    13   Atom        0.000000      0.000000      0.000000
    14   Atom        0.000000      0.000000      0.000000
    15   Atom        0.000000      0.000000      0.000000
 --------------------------------------------------------


 ---------------------------------------------------------------------------------
              Anisotropic Spin Dipole Couplings in Principal Axis System
 ---------------------------------------------------------------------------------

       Atom             a.u.   MegaHertz   Gauss  10(-4) cm-1        Axes

              Baa     0.0000     0.000     0.000     0.000  1.0000  0.0000  0.0000
     1 C(13)  Bbb     0.0000     0.000     0.000     0.000  0.0000  1.0000  0.0000
              Bcc     0.0000     0.000     0.000     0.000  0.0000  0.0000  1.0000
 
              Baa     0.0000     0.000     0.000     0.000  1.0000  0.0000  0.0000
     2 C(13)  Bbb     0.0000     0.000     0.000     0.000  0.0000  1.0000  0.0000
              Bcc     0.0000     0.000     0.000     0.000  0.0000  0.0000  1.0000
 
              Baa     0.0000     0.000     0.000     0.000  1.0000  0.0000  0.0000
     3 C(13)  Bbb     0.0000     0.000     0.000     0.000  0.0000  1.0000  0.0000
              Bcc     0.0000     0.000     0.000     0.000  0.0000  0.0000  1.0000
 
              Baa     0.0000     0.000     0.000     0.000  1.0000  0.0000  0.0000
     4 C(13)  Bbb     0.0000     0.000     0.000     0.000  0.0000  1.0000  0.0000
              Bcc     0.0000     0.000     0.000     0.000  0.0000  0.0000  1.0000
 
              Baa     0.0000     0.000     0.000     0.000  1.0000  0.0000  0.0000
     5 H(1)   Bbb     0.0000     0.000     0.000     0.000  0.0000  1.0000  0.0000
              Bcc     0.0000     0.000     0.000     0.000  0.0000  0.0000  1.0000
 
              Baa     0.0000     0.000     0.000     0.000  1.0000  0.0000  0.0000
     6 H(1)   Bbb     0.0000     0.000     0.000     0.000  0.0000  1.0000  0.0000
              Bcc     0.0000     0.000     0.000     0.000  0.0000  0.0000  1.0000
 
              Baa     0.0000     0.000     0.000     0.000  1.0000  0.0000  0.0000
     7 H(1)   Bbb     0.0000     0.000     0.000     0.000  0.0000  1.0000  0.0000
              Bcc     0.0000     0.000     0.000     0.000  0.0000  0.0000  1.0000
 
              Baa     0.0000     0.000     0.000     0.000  1.0000  0.0000  0.0000
     8 H(1)   Bbb     0.0000     0.000     0.000     0.000  0.0000  1.0000  0.0000
              Bcc     0.0000     0.000     0.000     0.000  0.0000  0.0000  1.0000
 
              Baa     0.0000     0.000     0.000     0.000  1.0000  0.0000  0.0000
     9 H(1)   Bbb     0.0000     0.000     0.000     0.000  0.0000  1.0000  0.0000
              Bcc     0.0000     0.000     0.000     0.000  0.0000  0.0000  1.0000
 
              Baa     0.0000     0.000     0.000     0.000  1.0000  0.0000  0.0000
    10 H(1)   Bbb     0.0000     0.000     0.000     0.000  0.0000  1.0000  0.0000
              Bcc     0.0000     0.000     0.000     0.000  0.0000  0.0000  1.0000
 
              Baa     0.0000     0.000     0.000     0.000  1.0000  0.0000  0.0000
    11 H(1)   Bbb     0.0000     0.000     0.000     0.000  0.0000  1.0000  0.0000
              Bcc     0.0000     0.000     0.000     0.000  0.0000  0.0000  1.0000
 
              Baa     0.0000     0.000     0.000     0.000  1.0000  0.0000  0.0000
    12 C(13)  Bbb     0.0000     0.000     0.000     0.000  0.0000  1.0000  0.0000
              Bcc     0.0000     0.000     0.000     0.000  0.0000  0.0000  1.0000
 
              Baa     0.0000     0.000     0.000     0.000  1.0000  0.0000  0.0000
    13 H(1)   Bbb     0.0000     0.000     0.000     0.000  0.0000  1.0000  0.0000
              Bcc     0.0000     0.000     0.000     0.000  0.0000  0.0000  1.0000
 
              Baa     0.0000     0.000     0.000     0.000  1.0000  0.0000  0.0000
    14 H(1)   Bbb     0.0000     0.000     0.000     0.000  0.0000  1.0000  0.0000
              Bcc     0.0000     0.000     0.000     0.000  0.0000  0.0000  1.0000
 
              Baa     0.0000     0.000     0.000     0.000  1.0000  0.0000  0.0000
    15 H(1)   Bbb     0.0000     0.000     0.000     0.000  0.0000  1.0000  0.0000
              Bcc     0.0000     0.000     0.000     0.000  0.0000  0.0000  1.0000
 

 ---------------------------------------------------------------------------------

 No NMR shielding tensors so no spin-rotation constants.
 Leave Link  601 at Sat Jun  6 00:35:23 2015, MaxMem= 3758096384 cpu:       4.6
 (Enter /share/apps/g09/l701.exe)
 Compute integral first derivatives.
 ... and contract with generalized density number  0.
 Leave Link  701 at Sat Jun  6 00:35:24 2015, MaxMem= 3758096384 cpu:       4.3
 (Enter /share/apps/g09/l702.exe)
 L702 exits ... SP integral derivatives will be done elsewhere.
 Leave Link  702 at Sat Jun  6 00:35:24 2015, MaxMem= 3758096384 cpu:       0.2
 (Enter /share/apps/g09/l703.exe)
 Compute integral first derivatives, UseDBF=F ICtDFT=           0.
 Integral derivatives from FoFDir, PRISM(SPDF).
 Calling FoFJK, ICntrl=      2127 FMM=F ISym2X=0 I1Cent= 0 IOpClX= 1 NMat=1 NMatS=1 NMatT=0.
 FoFCou: FMM=F IPFlag=           0 FMFlag=      100000 FMFlg1=         800
         NFxFlg=           0 DoJE=F BraDBF=F KetDBF=F FulRan=T
         Omega=  0.000000  0.000000  1.000000  0.000000  0.000000 ICntrl=    2127 IOpCl=  1
         NMat0=    1 NMatS0=    1 NMatT0=    0 NMatD0=    1 NMtDS0=    0 NMtDT0=    0
         I1Cent=           0 NGrid=           0.
 Symmetry not used in FoFCou.
 Leave Link  703 at Sat Jun  6 00:35:26 2015, MaxMem= 3758096384 cpu:      17.0
 (Enter /share/apps/g09/l716.exe)
 Dipole        =-1.42088816D-02-3.13695350D-05 3.10825295D-02
 ***** Axes restored to original set *****
 -------------------------------------------------------------------
 Center     Atomic                   Forces (Hartrees/Bohr)
 Number     Number              X              Y              Z
 -------------------------------------------------------------------
      1        6          -0.012184214   -0.012250748    0.000368324
      2        6           0.009996337   -0.012547743   -0.004991946
      3        6           0.011939521    0.011985562    0.006101554
      4        6          -0.012563371    0.010026424   -0.005051096
      5        1           0.002101800    0.002100204    0.009908124
      6        1           0.001826870    0.001864286   -0.009992670
      7        1          -0.002085789    0.001294282    0.009688077
      8        1          -0.001247054    0.002574161   -0.009114058
      9        1          -0.003766259   -0.003761887    0.006527558
     10        1           0.001315191   -0.002091196    0.009731166
     11        1           0.002575863   -0.001260820   -0.009109161
     12        6          -0.009036461   -0.009069350   -0.027199742
     13        1           0.018509022   -0.001469034    0.003352512
     14        1          -0.001476400    0.018507485    0.003342191
     15        1          -0.005905056   -0.005901623    0.016439166
 -------------------------------------------------------------------
 Cartesian Forces:  Max     0.027199742 RMS     0.009203336
 Leave Link  716 at Sat Jun  6 00:35:26 2015, MaxMem= 3758096384 cpu:       0.3
 (Enter /share/apps/g09/l103.exe)

 GradGradGradGradGradGradGradGradGradGradGradGradGradGradGradGradGradGrad
 Berny optimization.
 Internal  Forces:  Max     0.018492600 RMS     0.004797924
 Search for a local minimum.
 Step number   1 out of a maximum of  100
 All quantities printed in internal units (Hartrees-Bohrs-Radians)
 RMS Force = .47979D-02 SwitMx=.10000D-02 MixMth= 1
 Mixed Optimization -- RFO/linear search
 Second derivative matrix not updated -- first step.
     Eigenvalues ---    0.00230   0.00237   0.02275   0.02400   0.03033
     Eigenvalues ---    0.03937   0.04867   0.04867   0.04867   0.05161
     Eigenvalues ---    0.05720   0.05720   0.05865   0.06072   0.06226
     Eigenvalues ---    0.06235   0.06481   0.07859   0.08361   0.10497
     Eigenvalues ---    0.16000   0.16000   0.16000   0.19400   0.25419
     Eigenvalues ---    0.26345   0.28234   0.28238   0.28519   0.32590
     Eigenvalues ---    0.32597   0.32597   0.32598   0.32599   0.32599
     Eigenvalues ---    0.32601   0.37230   0.37230   0.372301000.00000
     Eigenvalues --- 1000.000001000.000001000.000001000.000001000.00000
     Eigenvalues --- 1000.000001000.000001000.000001000.000001000.00000
     Eigenvalues --- 1000.000001000.000001000.000001000.000001000.00000
     Eigenvalues --- 1000.000001000.000001000.000001000.000001000.00000
     Eigenvalues --- 1000.000001000.000001000.000001000.000001000.00000
     Eigenvalues --- 1000.000001000.000001000.000001000.000001000.00000
     Eigenvalues --- 1000.000001000.000001000.000001000.000001000.00000
     Eigenvalues --- 1000.000001000.000001000.000001000.000001000.00000
     Eigenvalues --- 1000.000001000.000001000.000001000.000001000.00000
     Eigenvalues --- 1000.000001000.000001000.000001000.000001000.00000
 RFO step:  Lambda=-7.12290946D-03 EMin= 2.30000023D-03
 Linear search not attempted -- first point.
 Iteration  1 RMS(Cart)=  0.02513773 RMS(Int)=  0.00028695
 Iteration  2 RMS(Cart)=  0.00025885 RMS(Int)=  0.00013032
 Iteration  3 RMS(Cart)=  0.00000008 RMS(Int)=  0.00013032
 Variable       Old X    -DE/DX   Delta X   Delta X   Delta X     New X
                                 (Linear)    (Quad)   (Total)
    R1        2.91631   0.00769   0.00000   0.02674   0.02660   2.94291
    R2        2.91620   0.00771   0.00000   0.02681   0.02666   2.94286
    R3        2.09761  -0.00981   0.00000  -0.02944  -0.02944   2.06817
    R4        2.09758  -0.00967   0.00000  -0.02902  -0.02902   2.06856
    R5        2.91621   0.00926   0.00000   0.03180   0.03194   2.94815
    R6        2.09761  -0.00929   0.00000  -0.02789  -0.02789   2.06972
    R7        2.09764  -0.00900   0.00000  -0.02703  -0.02703   2.07062
    R8        2.91628   0.00924   0.00000   0.03174   0.03189   2.94817
    R9        2.09764  -0.00840   0.00000  -0.02523  -0.02523   2.07242
   R10        2.91018  -0.00162   0.00000  -0.00556  -0.00556   2.90462
   R11        2.09777  -0.00934   0.00000  -0.02804  -0.02804   2.06973
   R12        2.09764  -0.00900   0.00000  -0.02703  -0.02703   2.07061
   R13        2.02201   0.01849   0.00000   0.04874   0.04874   2.07075
   R14        2.02201   0.01849   0.00000   0.04873   0.04873   2.07074
   R15        2.02201   0.01824   0.00000   0.04808   0.04808   2.07008
    A1        1.57082  -0.00037   0.00000  -0.00210  -0.00227   1.56855
    A2        1.99117   0.00042   0.00000   0.00604   0.00608   1.99725
    A3        1.99085   0.00110   0.00000   0.01294   0.01292   2.00377
    A4        1.99112   0.00042   0.00000   0.00606   0.00610   1.99722
    A5        1.99129   0.00107   0.00000   0.01258   0.01256   2.00385
    A6        1.91132  -0.00212   0.00000  -0.02825  -0.02823   1.88310
    A7        1.57076   0.00090   0.00000   0.00381   0.00388   1.57464
    A8        1.99108  -0.00006   0.00000   0.00669   0.00652   1.99761
    A9        1.99105   0.00093   0.00000   0.01212   0.01209   2.00314
   A10        1.99101   0.00127   0.00000   0.01674   0.01663   2.00764
   A11        1.99124  -0.00069   0.00000  -0.00333  -0.00341   1.98783
   A12        1.91141  -0.00179   0.00000  -0.02815  -0.02805   1.88335
   A13        1.57083  -0.00143   0.00000  -0.00552  -0.00585   1.56498
   A14        1.99091  -0.00073   0.00000  -0.01522  -0.01529   1.97562
   A15        1.99130   0.00238   0.00000   0.02587   0.02560   2.01690
   A16        1.99094  -0.00074   0.00000  -0.01527  -0.01533   1.97561
   A17        1.99107   0.00240   0.00000   0.02606   0.02579   2.01686
   A18        1.91148  -0.00161   0.00000  -0.01305  -0.01272   1.89876
   A19        1.57077   0.00090   0.00000   0.00381   0.00388   1.57465
   A20        1.99084  -0.00004   0.00000   0.00681   0.00665   1.99749
   A21        1.99128   0.00092   0.00000   0.01201   0.01198   2.00327
   A22        1.99100   0.00126   0.00000   0.01671   0.01660   2.00760
   A23        1.99128  -0.00068   0.00000  -0.00332  -0.00339   1.98789
   A24        1.91138  -0.00178   0.00000  -0.02815  -0.02805   1.88333
   A25        1.91063   0.00407   0.00000   0.02511   0.02484   1.93547
   A26        1.91063   0.00406   0.00000   0.02506   0.02479   1.93542
   A27        1.91063   0.00213   0.00000   0.01122   0.01110   1.92174
   A28        1.91063  -0.00367   0.00000  -0.01897  -0.01938   1.89125
   A29        1.91063  -0.00330   0.00000  -0.02122  -0.02134   1.88930
   A30        1.91063  -0.00329   0.00000  -0.02121  -0.02133   1.88930
    D1        0.00017   0.00111   0.00000   0.01895   0.01897   0.01914
    D2       -2.03383  -0.00074   0.00000  -0.00315  -0.00318  -2.03702
    D3        2.03443   0.00100   0.00000   0.01984   0.01989   2.05433
    D4        2.03436   0.00149   0.00000   0.02603   0.02602   2.06038
    D5        0.00035  -0.00036   0.00000   0.00392   0.00388   0.00423
    D6       -2.21457   0.00138   0.00000   0.02691   0.02695  -2.18762
    D7       -2.03413  -0.00015   0.00000   0.00305   0.00304  -2.03108
    D8        2.21505  -0.00200   0.00000  -0.01905  -0.01910   2.19594
    D9        0.00013  -0.00026   0.00000   0.00394   0.00397   0.00410
   D10       -0.00017  -0.00111   0.00000  -0.01895  -0.01897  -0.01914
   D11        2.03378   0.00073   0.00000   0.00314   0.00317   2.03695
   D12       -2.03454  -0.00101   0.00000  -0.01983  -0.01989  -2.05442
   D13       -2.03440  -0.00149   0.00000  -0.02601  -0.02601  -2.06041
   D14       -0.00045   0.00036   0.00000  -0.00392  -0.00387  -0.00432
   D15        2.21442  -0.00138   0.00000  -0.02689  -0.02693   2.18750
   D16        2.03373   0.00017   0.00000  -0.00273  -0.00273   2.03101
   D17       -2.21550   0.00201   0.00000   0.01936   0.01941  -2.19609
   D18       -0.00063   0.00027   0.00000  -0.00361  -0.00364  -0.00427
   D19       -0.00017  -0.00111   0.00000  -0.01895  -0.01893  -0.01911
   D20       -2.03410   0.00060   0.00000   0.00426   0.00414  -2.02996
   D21        2.03399   0.00139   0.00000   0.01320   0.01317   2.04716
   D22        2.03390  -0.00044   0.00000  -0.00584  -0.00571   2.02819
   D23       -0.00003   0.00127   0.00000   0.01738   0.01736   0.01733
   D24       -2.21512   0.00206   0.00000   0.02631   0.02639  -2.18873
   D25       -2.03426  -0.00245   0.00000  -0.03366  -0.03362  -2.06788
   D26        2.21499  -0.00074   0.00000  -0.01044  -0.01055   2.20445
   D27       -0.00009   0.00005   0.00000  -0.00151  -0.00152  -0.00161
   D28        0.00017   0.00111   0.00000   0.01895   0.01893   0.01911
   D29       -2.03364   0.00043   0.00000   0.00571   0.00559  -2.02805
   D30        2.03454   0.00244   0.00000   0.03354   0.03350   2.06804
   D31        2.03408  -0.00059   0.00000  -0.00422  -0.00410   2.02998
   D32        0.00026  -0.00127   0.00000  -0.01746  -0.01745  -0.01718
   D33       -2.21474   0.00074   0.00000   0.01036   0.01046  -2.20428
   D34       -2.03420  -0.00137   0.00000  -0.01303  -0.01300  -2.04720
   D35        2.21518  -0.00205   0.00000  -0.02627  -0.02635   2.18883
   D36        0.00017  -0.00004   0.00000   0.00155   0.00156   0.00173
   D37        1.20845  -0.00067   0.00000  -0.01460  -0.01493   1.19352
   D38       -2.98034  -0.00019   0.00000  -0.00710  -0.00728  -2.98763
   D39       -0.88595  -0.00043   0.00000  -0.01086  -0.01112  -0.89707
   D40        2.98049   0.00019   0.00000   0.00706   0.00724   2.98774
   D41       -1.20830   0.00067   0.00000   0.01456   0.01489  -1.19341
   D42        0.88610   0.00043   0.00000   0.01080   0.01106   0.89715
   D43       -1.04719  -0.00024   0.00000  -0.00372  -0.00380  -1.05099
   D44        1.04720   0.00024   0.00000   0.00377   0.00385   1.05105
   D45       -3.14159   0.00000   0.00000   0.00001   0.00001  -3.14157
         Item               Value     Threshold  Converged?
 Maximum Force            0.018493     0.000450     NO 
 RMS     Force            0.004798     0.000300     NO 
 Maximum Displacement     0.079654     0.001800     NO 
 RMS     Displacement     0.025131     0.001200     NO 
 Predicted change in Energy=-3.693981D-03
 GradGradGradGradGradGradGradGradGradGradGradGradGradGradGradGradGradGrad

 Leave Link  103 at Sat Jun  6 00:35:26 2015, MaxMem= 3758096384 cpu:       0.2
 (Enter /share/apps/g09/l202.exe)
                          Input orientation:                          
 ---------------------------------------------------------------------
 Center     Atomic      Atomic             Coordinates (Angstroms)
 Number     Number       Type             X           Y           Z
 ---------------------------------------------------------------------
      1          6           0       -0.629024    1.162314   -0.006326
      2          6           0        0.928291    1.164139   -0.010357
      3          6           0        0.932521    2.724019    0.015113
      4          6           0       -0.627363    2.719602   -0.010702
      5          1           0       -1.083488    0.707637   -0.892047
      6          1           0       -1.085478    0.705921    0.877745
      7          1           0        1.379913    0.714012   -0.900855
      8          1           0        1.390223    0.704615    0.870589
      9          1           0        1.378096    3.169460   -0.882519
     10          1           0       -1.077305    3.170865   -0.901482
     11          1           0       -1.087186    3.181800    0.869944
     12          6           0        1.573376    3.365278    1.256338
     13          1           0        2.655016    3.190454    1.272151
     14          1           0        1.398277    4.446876    1.271840
     15          1           0        1.142997    2.935013    2.167182
 ---------------------------------------------------------------------
                    Distance matrix (angstroms):
                    1          2          3          4          5
     1  C    0.000000
     2  C    1.557321   0.000000
     3  C    2.208575   1.560094   0.000000
     4  C    1.557295   2.199892   1.560104   0.000000
     5  H    1.094427   2.243440   2.992161   2.243395   0.000000
     6  H    1.094635   2.248100   2.981472   2.248137   1.769794
     7  H    2.244323   1.095246   2.253727   2.973873   2.463425
     8  H    2.248516   1.095723   2.240385   2.984543   3.037456
     9  H    2.970670   2.232555   1.096675   2.232555   3.481388
    10  H    2.244223   2.973797   2.253713   1.095252   2.463254
    11  H    2.248574   2.984633   2.240428   1.095720   3.037452
    12  C    3.361240   2.620242   1.537058   2.620217   4.328688
    13  H    4.066050   2.955056   2.182818   3.555478   4.982423
    14  H    4.065956   3.555458   2.182780   2.954929   4.982316
    15  H    3.317628   2.814919   2.172607   2.814916   4.390595
                    6          7          8          9         10
     6  H    0.000000
     7  H    3.040006   0.000000
     8  H    2.475711   1.771499   0.000000
     9  H    3.903428   2.455518   3.024730   0.000000
    10  H    3.040011   3.474773   3.912968   2.455475   0.000000
    11  H    2.475892   3.913092   3.503427   3.024714   1.771488
    12  C    3.779552   3.423467   2.694713   2.156661   3.423462
    13  H    4.507743   3.532791   2.817862   2.504709   4.319177
    14  H    4.507670   4.319169   3.763719   2.504688   3.532710
    15  H    3.405525   3.794974   2.591708   3.067720   3.795006
                   11         12         13         14         15
    11  H    0.000000
    12  C    2.694727   0.000000
    13  H    3.763764   1.095791   0.000000
    14  H    2.817705   1.095789   1.777073   0.000000
    15  H    2.591804   1.095440   1.775536   1.775537   0.000000
 Stoichiometry    C5H10
 Framework group  C1[X(C5H10)]
 Deg. of freedom    39
 Full point group                 C1      NOp   1
 Largest Abelian subgroup         C1      NOp   1
 Largest concise Abelian subgroup C1      NOp   1
                         Standard orientation:                         
 ---------------------------------------------------------------------
 Center     Atomic      Atomic             Coordinates (Angstroms)
 Number     Number       Type             X           Y           Z
 ---------------------------------------------------------------------
      1          6           0       -1.521039   -0.000019   -0.325665
      2          6           0       -0.505714    1.099952    0.103782
      3          6           0        0.524519    0.000020    0.507100
      4          6           0       -0.505696   -1.099940    0.103777
      5          1           0       -2.455985   -0.000056    0.243235
      6          1           0       -1.775206    0.000037   -1.390383
      7          1           0       -0.848579    1.737441    0.925740
      8          1           0       -0.164151    1.751662   -0.708140
      9          1           0        0.759210    0.000012    1.578369
     10          1           0       -0.848625   -1.737332    0.925790
     11          1           0       -0.164107   -1.751765   -0.708039
     12          6           0        1.839989   -0.000003   -0.287939
     13          1           0        2.437494    0.888497   -0.054887
     14          1           0        2.437389   -0.888576   -0.054905
     15          1           0        1.630210    0.000023   -1.363105
 ---------------------------------------------------------------------
 Rotational constants (GHZ):      8.7688513      4.2629350      3.4446539
 Leave Link  202 at Sat Jun  6 00:35:26 2015, MaxMem= 3758096384 cpu:       0.1
 (Enter /share/apps/g09/l301.exe)
 Standard basis: 6-31G(d) (6D, 7F)
 Ernie: Thresh=  0.10000D-02 Tol=  0.10000D-05 Strict=F.
 There are    95 symmetry adapted basis functions of A   symmetry.
 Integral buffers will be    131072 words long.
 Raffenetti 2 integral format.
 Two-electron integral symmetry is turned on.
    95 basis functions,   180 primitive gaussians,    95 cartesian basis functions
    20 alpha electrons       20 beta electrons
       nuclear repulsion energy       183.5528398100 Hartrees.
 IExCor=  402 DFT=T Ex+Corr=B3LYP ExCW=0 ScaHFX=  0.200000
 ScaDFX=  0.800000  0.720000  1.000000  0.810000 ScalE2=  1.000000  1.000000
 IRadAn=      0 IRanWt=     -1 IRanGd=            0 ICorTp=0
 NAtoms=   15 NActive=   15 NUniq=   15 SFac= 7.50D-01 NAtFMM=   80 NAOKFM=F Big=F
 Leave Link  301 at Sat Jun  6 00:35:26 2015, MaxMem= 3758096384 cpu:       0.5
 (Enter /share/apps/g09/l302.exe)
 NPDir=0 NMtPBC=     1 NCelOv=     1 NCel=       1 NClECP=     1 NCelD=      1
         NCelK=      1 NCelE2=     1 NClLst=     1 CellRange=     0.0.
 One-electron integrals computed using PRISM.
 NBasis=    95 RedAO= T  NBF=    95
 NBsUse=    95 1.00D-06 NBFU=    95
 Precomputing XC quadrature grid using
 IXCGrd= 2 IRadAn=           0 IRanWt=          -1 IRanGd=           0 AccXCQ= 1.00D-10.
 NRdTot=     929 NPtTot=      117384 NUsed=      124095 NTot=      124127
 NSgBfM=    95    95    95    95    95 NAtAll=    15    15.
 Leave Link  302 at Sat Jun  6 00:35:27 2015, MaxMem= 3758096384 cpu:       4.9
 (Enter /share/apps/g09/l303.exe)
 DipDrv:  MaxL=1.
 Leave Link  303 at Sat Jun  6 00:35:27 2015, MaxMem= 3758096384 cpu:       0.6
 (Enter /share/apps/g09/l401.exe)
 Initial guess read from the read-write file.
 B after Tr=     0.000000    0.000000    0.000000
         Rot=    1.000000    0.000000    0.000000    0.000000 Ang=   0.00 deg.
 Guess basis will be translated and rotated to current coordinates.
 Initial guess orbital symmetries:
 Alpha Orbitals:
       Occupied  (A) (A) (A) (A) (A) (A) (A) (A) (A) (A) (A) (A)
                 (A) (A) (A) (A) (A) (A) (A) (A)
       Virtual   (A) (A) (A) (A) (A) (A) (A) (A) (A) (A) (A) (A)
                 (A) (A) (A) (A) (A) (A) (A) (A) (A) (A) (A) (A)
                 (A) (A) (A) (A) (A) (A) (A) (A) (A) (A) (A) (A)
                 (A) (A) (A) (A) (A) (A) (A) (A) (A) (A) (A) (A)
                 (A) (A) (A) (A) (A) (A) (A) (A) (A) (A) (A) (A)
                 (A) (A) (A) (A) (A) (A) (A) (A) (A) (A) (A) (A)
                 (A) (A) (A)
 Beta  Orbitals:
       Occupied  (A) (A) (A) (A) (A) (A) (A) (A) (A) (A) (A) (A)
                 (A) (A) (A) (A) (A) (A) (A) (A)
       Virtual   (A) (A) (A) (A) (A) (A) (A) (A) (A) (A) (A) (A)
                 (A) (A) (A) (A) (A) (A) (A) (A) (A) (A) (A) (A)
                 (A) (A) (A) (A) (A) (A) (A) (A) (A) (A) (A) (A)
                 (A) (A) (A) (A) (A) (A) (A) (A) (A) (A) (A) (A)
                 (A) (A) (A) (A) (A) (A) (A) (A) (A) (A) (A) (A)
                 (A) (A) (A) (A) (A) (A) (A) (A) (A) (A) (A) (A)
                 (A) (A) (A)
 The electronic state of the initial guess is 1-A.
 Initial guess <Sx>= 0.0000 <Sy>= 0.0000 <Sz>= 0.0000 <S**2>= 0.0000 S= 0.0000
 Generating alternative initial guess.
 Harris functional with IExCor=  402 diagonalized for initial guess.
 ExpMin= 1.61D-01 ExpMax= 3.05D+03 ExpMxC= 4.57D+02 IAcc=1 IRadAn=         1 AccDes= 0.00D+00
 HarFok:  IExCor=  402 AccDes= 0.00D+00 IRadAn=         1 IDoV= 1
 ScaDFX=  1.000000  1.000000  1.000000  1.000000
 FoFCou: FMM=F IPFlag=           0 FMFlag=      100000 FMFlg1=           0
         NFxFlg=           0 DoJE=T BraDBF=F KetDBF=T FulRan=T
         Omega=  0.000000  0.000000  1.000000  0.000000  0.000000 ICntrl=     500 IOpCl=  0
         NMat0=    1 NMatS0=    1 NMatT0=    0 NMatD0=    1 NMtDS0=    0 NMtDT0=    0
         I1Cent=           4 NGrid=           0.
 Petite list used in FoFCou.
 Harris En= -196.593046853474    
 Leave Link  401 at Sat Jun  6 00:35:27 2015, MaxMem= 3758096384 cpu:       6.3
 (Enter /share/apps/g09/l502.exe)
 UHF open shell SCF:
 Requested convergence on RMS density matrix=1.00D-08 within 128 cycles.
 Requested convergence on MAX density matrix=1.00D-06.
 Requested convergence on             energy=1.00D-06.
 No special actions if energy rises.
 Using DIIS extrapolation, IDIIS=  1040.
 Integral symmetry usage will be decided dynamically.
       123947 words used for storage of precomputed grid.
 Keep R1 and R2 ints in memory in canonical form, NReq=21883226.
 IEnd=      171043 IEndB=      171043 NGot=  3758096384 MDV=  3737152914
 LenX=  3737152914 LenY=  3737143448
 Symmetry not used in FoFDir.
 MinBra= 0 MaxBra= 2 Meth= 1.
 IRaf=       0 NMat=   1 IRICut=       1 DoRegI=T DoRafI=F ISym2E= 0 JSym2E=0.
 Integral accuracy reduced to 1.0D-05 until final iterations.

 Cycle   1  Pass 0  IDiag  1:
 E= -190.685705176299    
 DIIS: error= 8.11D-02 at cycle   1 NSaved=   1.
 NSaved= 1 IEnMin= 1 EnMin= -190.685705176299     IErMin= 1 ErrMin= 8.11D-02
 ErrMax= 8.11D-02 EMaxC= 1.00D-01 BMatC= 5.92D+00 BMatP= 5.92D+00
 IDIUse=3 WtCom= 1.89D-01 WtEn= 8.11D-01
 Coeff-Com:  0.100D+01
 Coeff-En:   0.100D+01
 Coeff:      0.100D+01
 Recover alternate guess density for next cycle.
 RMSDP=3.81D-02 MaxDP=5.57D-01              OVMax= 0.00D+00

 Cycle   2  Pass 0  IDiag  1:
 E= -196.322822102985     Delta-E=       -5.637116926686 Rises=F Damp=F
 DIIS: error= 4.57D-02 at cycle   2 NSaved=   2.
 NSaved= 2 IEnMin= 2 EnMin= -196.322822102985     IErMin= 2 ErrMin= 4.57D-02
 ErrMax= 4.57D-02 EMaxC= 1.00D-01 BMatC= 7.21D-01 BMatP= 5.92D+00
 IDIUse=3 WtCom= 5.43D-01 WtEn= 4.57D-01
 Coeff-Com:  0.549D-01 0.945D+00
 Coeff-En:   0.000D+00 0.100D+01
 Coeff:      0.298D-01 0.970D+00
 Gap=     0.355 Goal=   None    Shift=    0.000
 Gap=     0.355 Goal=   None    Shift=    0.000
 RMSDP=1.12D-02 MaxDP=1.48D-01 DE=-5.64D+00 OVMax= 1.73D-01

 Cycle   3  Pass 0  IDiag  1:
 E= -196.232595589323     Delta-E=        0.090226513663 Rises=F Damp=F
 DIIS: error= 5.15D-02 at cycle   3 NSaved=   3.
 NSaved= 3 IEnMin= 2 EnMin= -196.322822102985     IErMin= 2 ErrMin= 4.57D-02
 ErrMax= 5.15D-02 EMaxC= 1.00D-01 BMatC= 1.09D+00 BMatP= 7.21D-01
 IDIUse=2 WtCom= 0.00D+00 WtEn= 1.00D+00
 Coeff-En:   0.000D+00 0.586D+00 0.414D+00
 Coeff:      0.000D+00 0.586D+00 0.414D+00
 Gap=     0.374 Goal=   None    Shift=    0.000
 Gap=     0.374 Goal=   None    Shift=    0.000
 RMSDP=6.46D-03 MaxDP=9.55D-02 DE= 9.02D-02 OVMax= 9.49D-02

 Cycle   4  Pass 0  IDiag  1:
 E= -196.526299791270     Delta-E=       -0.293704201947 Rises=F Damp=F
 DIIS: error= 4.41D-03 at cycle   4 NSaved=   4.
 NSaved= 4 IEnMin= 4 EnMin= -196.526299791270     IErMin= 4 ErrMin= 4.41D-03
 ErrMax= 4.41D-03 EMaxC= 1.00D-01 BMatC= 7.04D-03 BMatP= 7.21D-01
 IDIUse=3 WtCom= 9.56D-01 WtEn= 4.41D-02
 Coeff-Com: -0.152D-02 0.131D+00 0.624D-01 0.809D+00
 Coeff-En:   0.000D+00 0.000D+00 0.000D+00 0.100D+01
 Coeff:     -0.146D-02 0.125D+00 0.597D-01 0.817D+00
 Gap=     0.374 Goal=   None    Shift=    0.000
 Gap=     0.374 Goal=   None    Shift=    0.000
 RMSDP=5.62D-04 MaxDP=1.12D-02 DE=-2.94D-01 OVMax= 1.17D-02

 Cycle   5  Pass 0  IDiag  1:
 E= -196.527618013259     Delta-E=       -0.001318221990 Rises=F Damp=F
 DIIS: error= 1.66D-03 at cycle   5 NSaved=   5.
 NSaved= 5 IEnMin= 5 EnMin= -196.527618013259     IErMin= 5 ErrMin= 1.66D-03
 ErrMax= 1.66D-03 EMaxC= 1.00D-01 BMatC= 1.75D-03 BMatP= 7.04D-03
 IDIUse=3 WtCom= 9.83D-01 WtEn= 1.66D-02
 Coeff-Com: -0.238D-03 0.227D-01-0.229D-02 0.391D+00 0.589D+00
 Coeff-En:   0.000D+00 0.000D+00 0.000D+00 0.823D-01 0.918D+00
 Coeff:     -0.234D-03 0.223D-01-0.226D-02 0.386D+00 0.594D+00
 Gap=     0.376 Goal=   None    Shift=    0.000
 Gap=     0.376 Goal=   None    Shift=    0.000
 RMSDP=2.15D-04 MaxDP=4.89D-03 DE=-1.32D-03 OVMax= 4.98D-03

 Cycle   6  Pass 0  IDiag  1:
 E= -196.528011943649     Delta-E=       -0.000393930389 Rises=F Damp=F
 DIIS: error= 3.03D-04 at cycle   6 NSaved=   6.
 NSaved= 6 IEnMin= 6 EnMin= -196.528011943649     IErMin= 6 ErrMin= 3.03D-04
 ErrMax= 3.03D-04 EMaxC= 1.00D-01 BMatC= 8.02D-05 BMatP= 1.75D-03
 IDIUse=3 WtCom= 9.97D-01 WtEn= 3.03D-03
 Coeff-Com:  0.826D-05 0.170D-02-0.479D-02 0.104D+00 0.249D+00 0.651D+00
 Coeff-En:   0.000D+00 0.000D+00 0.000D+00 0.000D+00 0.000D+00 0.100D+01
 Coeff:      0.824D-05 0.169D-02-0.478D-02 0.103D+00 0.248D+00 0.652D+00
 Gap=     0.376 Goal=   None    Shift=    0.000
 Gap=     0.376 Goal=   None    Shift=    0.000
[...]
 ! A27   A(3,12,15)            110.9252         -DE/DX =    0.0                 !
 ! A28   A(13,12,14)           107.6216         -DE/DX =    0.0                 !
 ! A29   A(13,12,15)           107.6814         -DE/DX =    0.0                 !
 ! A30   A(14,12,15)           107.6814         -DE/DX =    0.0                 !
 ! D1    D(4,1,2,3)            -18.5736         -DE/DX =    0.0                 !
 ! D2    D(4,1,2,7)           -139.7988         -DE/DX =    0.0                 !
 ! D3    D(4,1,2,8)             93.6273         -DE/DX =    0.0                 !
 ! D4    D(5,1,2,3)             94.2744         -DE/DX =    0.0                 !
 ! D5    D(5,1,2,7)            -26.9509         -DE/DX =    0.0                 !
 ! D6    D(5,1,2,8)           -153.5248         -DE/DX =    0.0                 !
 ! D7    D(6,1,2,3)           -139.314          -DE/DX =    0.0                 !
 ! D8    D(6,1,2,7)             99.4607         -DE/DX =    0.0                 !
 ! D9    D(6,1,2,8)            -27.1132         -DE/DX =    0.0                 !
 ! D10   D(2,1,4,3)             18.5736         -DE/DX =    0.0                 !
 ! D11   D(2,1,4,10)           139.7988         -DE/DX =    0.0                 !
 ! D12   D(2,1,4,11)           -93.6273         -DE/DX =    0.0                 !
 ! D13   D(5,1,4,3)            -94.2744         -DE/DX =    0.0                 !
 ! D14   D(5,1,4,10)            26.9508         -DE/DX =    0.0                 !
 ! D15   D(5,1,4,11)           153.5248         -DE/DX =    0.0                 !
 ! D16   D(6,1,4,3)            139.314          -DE/DX =    0.0                 !
 ! D17   D(6,1,4,10)           -99.4608         -DE/DX =    0.0                 !
 ! D18   D(6,1,4,11)            27.1131         -DE/DX =    0.0                 !
 ! D19   D(1,2,3,4)             18.5222         -DE/DX =    0.0                 !
 ! D20   D(1,2,3,9)            -91.2989         -DE/DX =    0.0                 !
 ! D21   D(1,2,3,12)           141.3742         -DE/DX =    0.0                 !
 ! D22   D(7,2,3,4)            139.9118         -DE/DX =    0.0                 !
 ! D23   D(7,2,3,9)             30.0907         -DE/DX =    0.0                 !
 ! D24   D(7,2,3,12)           -97.2362         -DE/DX =    0.0                 !
 ! D25   D(8,2,3,4)            -94.0927         -DE/DX =    0.0                 !
 ! D26   D(8,2,3,9)            156.0862         -DE/DX =    0.0                 !
 ! D27   D(8,2,3,12)            28.7594         -DE/DX =    0.0                 !
 ! D28   D(2,3,4,1)            -18.5222         -DE/DX =    0.0                 !
 ! D29   D(2,3,4,10)          -139.9118         -DE/DX =    0.0                 !
 ! D30   D(2,3,4,11)            94.0927         -DE/DX =    0.0                 !
 ! D31   D(9,3,4,1)             91.2989         -DE/DX =    0.0                 !
 ! D32   D(9,3,4,10)           -30.0907         -DE/DX =    0.0                 !
 ! D33   D(9,3,4,11)          -156.0862         -DE/DX =    0.0                 !
 ! D34   D(12,3,4,1)          -141.3742         -DE/DX =    0.0                 !
 ! D35   D(12,3,4,10)           97.2362         -DE/DX =    0.0                 !
 ! D36   D(12,3,4,11)          -28.7593         -DE/DX =    0.0                 !
 ! D37   D(2,3,12,13)           67.0596         -DE/DX =    0.0                 !
 ! D38   D(2,3,12,14)         -172.7881         -DE/DX =    0.0                 !
 ! D39   D(2,3,12,15)          -52.8642         -DE/DX =    0.0                 !
 ! D40   D(4,3,12,13)          172.788          -DE/DX =    0.0                 !
 ! D41   D(4,3,12,14)          -67.0597         -DE/DX =    0.0                 !
 ! D42   D(4,3,12,15)           52.8642         -DE/DX =    0.0                 !
 ! D43   D(9,3,12,13)          -60.0762         -DE/DX =    0.0                 !
 ! D44   D(9,3,12,14)           60.0761         -DE/DX =    0.0                 !
 ! D45   D(9,3,12,15)         -180.0            -DE/DX =    0.0                 !
 --------------------------------------------------------------------------------
 GradGradGradGradGradGradGradGradGradGradGradGradGradGradGradGradGradGrad

 Leave Link  103 at Sat Jun  6 00:41:28 2015, MaxMem= 3758096384 cpu:       0.2
 (Enter /share/apps/g09/l9999.exe)
 1\1\GINC-COMPUTE-0-15\Freq\UB3LYP\6-31G(d)\C5H10\HETANJIN\06-Jun-2015\
 0\\#P Geom=AllCheck Guess=TCheck SCRF=Check GenChk UB3LYP/6-31G(d) Fre
 q\\using ub3lyp/6-31G(d) to scan\\0,1\C,-0.6340129373,1.1572374269,-0.
 2376313634\C,0.8619020515,1.1227031838,0.1744987002\C,0.8848824274,2.6
 764164304,0.0852419552\C,-0.6688503722,2.6532520948,0.1741115158\H,-0.
 7604476356,1.0305126679,-1.3184012852\H,-1.3187414687,0.4725471394,0.2
 730584087\H,1.5586134446,0.5623770228,-0.458365367\H,0.9863326162,0.78
 49062255,1.2106567214\H,1.1863370976,2.9776552471,-0.9269975977\H,-1.2
 291086097,3.3497287904,-0.4590709405\H,-1.00692634,2.7778998665,1.2101
 523932\C,1.6777041483,3.4696034803,1.1147949707\H,2.756131957,3.295508
 1105,1.0099151512\H,1.5034932385,4.5479817547,1.0095981853\H,1.3915552
 424,3.1836750692,2.1350530922\\Version=EM64L-G09RevA.01\State=1-A\HF=-
 196.5302738\S2=0.\S2-1=0.\S2A=0.\RMSD=1.573e-09\RMSF=3.314e-06\ZeroPoi
 nt=0.1395512\Thermal=0.1450183\Dipole=0.0198669,0.0198641,-0.0218652\D
 ipoleDeriv=0.0779886,0.0723726,-0.069848,0.0723891,0.0779889,-0.069819
 6,-0.004473,-0.004436,0.1548117,0.0641237,-0.0714714,-0.096564,-0.0840
 123,0.0264867,0.0440693,-0.0399774,-0.0345422,0.1468368,0.1143568,0.06
 80396,0.0639175,0.0680279,0.1143956,0.0639601,0.0180955,0.0181321,0.18
 13609,0.026505,-0.0839959,0.0440729,-0.0714606,0.0640684,-0.0965553,-0
 .0345493,-0.0399823,0.1468738,0.0148254,-0.0093502,-0.0158,-0.0093601,
 0.014805,-0.0158501,-0.055145,-0.0552003,-0.165573,-0.0882929,-0.11518
 39,0.0268225,-0.1151749,-0.088301,0.0268207,0.0621987,0.0622016,0.0056
 871,-0.09121,0.1009022,0.0571991,0.0792051,-0.0670896,-0.0525156,0.079
 6465,-0.0803312,-0.0148087,0.0080995,0.0111937,-0.017907,0.0178872,0.0
 149629,0.0337447,-0.0472778,0.0803694,-0.1467638,-0.0228658,-0.0319183
 ,0.0261907,-0.0319128,-0.0228555,0.0261482,0.0480664,0.0480268,-0.1729
 086,-0.0670798,0.0791748,-0.0525564,0.1008706,-0.0911513,0.0572369,-0.
 0803805,0.0796752,-0.014877,0.0149301,0.0179086,0.0337835,0.0112195,0.
 0080869,-0.0179388,0.0804138,-0.0473017,-0.1467183,0.0740216,-0.035343
 9,-0.0405195,-0.0353374,0.0739984,-0.0405288,-0.015175,-0.015181,0.093
 7069,-0.1879836,-0.006868,-0.0112047,0.0330442,0.0413363,-0.0161145,0.
 0013474,-0.0326724,0.0356063,0.0413453,0.03307,-0.0161199,-0.0068432,-
 0.1879827,-0.0111521,-0.0326694,0.0014081,0.0355965,0.0212361,-0.02852
 99,0.0685335,-0.0285422,0.0212509,0.0684948,0.019879,0.0198338,-0.1388
 305\Polar=52.6133938,1.9786601,52.6148761,1.8942111,1.8939086,48.45112
 89\PG=C01 [X(C5H10)]\NImag=0\\0.47263068,0.12343650,0.47265328,-0.0199
 3421,-0.01987536,0.59257321,-0.16639564,0.00776316,-0.02167412,0.47851
 795,-0.00430538,-0.04522578,0.00508580,-0.11464550,0.46017040,-0.02288
 000,0.00398956,-0.08962045,-0.04415251,-0.00243077,0.59227620,-0.04118
 526,-0.03655987,-0.00350245,-0.04725002,0.00761438,0.00605692,0.461751
 68,-0.03656283,-0.04119972,-0.00349923,-0.00633866,-0.16262293,0.00593
 114,0.07932246,0.46176498,-0.01524545,-0.01524379,0.00992409,0.0034220
 0,0.00611896,-0.08351709,-0.01552766,-0.01547905,0.58310422,-0.0452285
 4,-0.00428219,0.00510099,-0.04191361,0.03665283,0.00411842,-0.16262603
 ,0.00759907,0.00609658,0.46020196,0.00778576,-0.16640633,-0.02165203,0
 .03871739,-0.04190440,-0.00733295,-0.00635335,-0.04724745,0.00341203,-
 0.11463737,0.47846498,0.00400187,-0.02286110,-0.08960688,-0.00735690,0
 .00414032,0.01190382,0.00591191,0.00605045,-0.08351645,-0.00242943,-0.
 04415310,0.59229745,-0.05124166,-0.00756684,-0.02655255,-0.00330180,-0
 .00220472,-0.03268737,-0.00042894,0.00109972,0.00022305,-0.00019220,0.
 00113331,0.00783185,0.05424734,-0.00756688,-0.05125714,-0.02662280,0.0
 0113074,-0.00019025,0.00782626,0.00109973,-0.00042852,0.00022336,-0.00
 219593,-0.00331040,-0.03268762,0.00509481,0.05426427,-0.02672889,-0.02
 679917,-0.30756647,-0.00072880,0.00044641,-0.00621875,0.00027319,0.000
 27352,-0.00039857,0.00044858,-0.00072919,-0.00620820,0.03076540,0.0308
 4055,0.33022408,-0.15206613,-0.09968875,0.08052643,-0.01148933,-0.0158
 8412,0.01554517,-0.00368314,-0.00103823,-0.00273207,0.00311377,0.00221
 513,-0.00606650,0.00328827,0.00303416,-0.00161098,0.15962229,-0.099688
 80,-0.15205192,0.08052173,0.00221322,0.00310870,-0.00606372,-0.0010380
 3,-0.00368459,-0.00273184,-0.01588782,-0.01148872,0.01554420,0.0030398
 4,0.00329393,-0.00161501,0.11299424,0.15960898,0.08031928,0.08031455,-
 0.11327091,-0.00593922,-0.00678454,0.00373142,-0.00191410,-0.00191376,
 -0.00031309,-0.00677988,-0.00593571,0.00372574,0.02083599,0.02083495,-
 0.01481772,-0.08564270,-0.08563603,0.11796552,-0.01085922,0.01192955,0
 .01839525,-0.15502402,0.08040213,0.09918759,0.00233616,-0.00064413,-0.
 00644885,-0.00302963,0.00225923,-0.00230778,0.00248759,-0.00066968,-0.
 00008523,-0.00250372,0.00099022,-0.00038194,0.16258936,-0.00130482,0.0
 0047354,0.00551380,0.08091153,-0.11679948,-0.07999244,0.01762915,-0.00
 735527,-0.01836055,0.00179644,-0.00419178,0.00182213,0.00094901,0.0007
 2359,0.00024372,-0.00096362,-0.00003874,-0.00010879,-0.09338179,0.1210
 7181,-0.00624298,0.00595053,0.00629619,0.09890594,-0.07946407,-0.14426
 169,-0.00311904,0.00388303,0.00080448,-0.00153251,0.00101990,0.0007376
 0,0.00068195,-0.00031705,0.00123650,-0.00058477,0.00006370,0.00007071,
 -0.10718794,0.08485211,0.15098373,-0.00334096,0.00870162,-0.03144645,-
 0.05107022,0.01237236,-0.02361989,-0.00025056,-0.00288595,0.00697966,-
 0.00036211,-0.00082164,0.00012064,-0.00566487,0.00204011,-0.00138211,0
 .00252071,-0.00095074,0.00041586,0.00324731,-0.00718951,0.02002439,0.0
 5420331,-0.00118138,0.00130077,-0.00682568,0.01237023,-0.07153081,0.07
 349723,0.00191724,-0.01060806,0.03203100,-0.00087578,-0.00011589,-0.00
 035583,-0.00180369,0.00016317,-0.00064726,0.00072911,0.00072097,0.0002
 1352,-0.00250326,0.00618101,-0.01624741,-0.01080789,0.07681684,-0.0007
 6870,0.00122528,-0.00764596,-0.02373555,0.07306400,-0.28336763,0.00100
 119,0.00079893,-0.00140946,0.00004958,-0.00016201,-0.00037893,-0.00170
 367,0.00048967,0.00094371,0.00007659,-0.00035577,0.00124873,-0.0020983
 4,0.00603572,-0.01756871,0.02822188,-0.08146742,0.30464555,0.00002446,
 0.00098685,-0.00021080,0.00155046,0.00255737,-0.00589336,-0.06710761,-
 0.02194461,0.06432250,-0.01131658,-0.00788126,0.03123010,-0.00012121,-
 0.00070630,-0.00035761,0.00004995,0.00000802,-0.00040818,0.00070498,-0
 .00074830,-0.00002408,0.00005365,0.00159428,-0.00063468,0.07504887,0.0
 0098688,0.00002464,-0.00021065,-0.00788745,-0.01130918,0.03122965,-0.0
 2194472,-0.06708105,0.06427550,0.00255737,0.00154826,-0.00588949,-0.00
 070617,-0.00012145,-0.00035774,0.00000819,0.00004991,-0.00040821,0.000
 98293,0.00229726,-0.00019769,-0.00200863,-0.00605524,0.00017923,0.0237
 7140,0.07502073,-0.00008884,-0.00008867,-0.00027478,-0.00003209,0.0008
 3400,-0.00212130,0.06388173,0.06383468,-0.26483297,0.00083103,-0.00003
 489,-0.00211169,0.00016158,0.00016152,0.00029027,0.00025542,0.00025548
 ,0.00013613,-0.00023652,0.00019849,0.00113622,-0.00007373,0.00034160,0
 .00115593,-0.06815390,-0.06810334,0.28706731,0.00046923,-0.00130034,0.
 00551021,-0.00419304,0.00179713,0.00182073,-0.00735388,0.01762400,-0.0
 1836622,-0.11678047,0.08087129,-0.08001912,0.00072357,0.00094866,0.000
 24336,-0.00003873,-0.00096317,-0.00010852,-0.00001446,0.00171367,-0.00
 033668,-0.00001252,0.00016254,-0.00024597,0.00229723,-0.00074803,0.000
 19900,0.12105361,0.01192790,-0.01085474,0.01840335,0.00225991,-0.00303
 007,-0.00230601,-0.00064280,0.00233600,-0.00645184,0.08036195,-0.15495
 244,0.09920005,-0.00066998,0.00248777,-0.00008568,0.00099066,-0.002503
 96,-0.00038105,0.00142592,-0.00001396,0.00064161,0.00002133,0.00002617
 ,0.00027582,0.00098315,0.00070494,-0.00023614,-0.09333865,0.16251028,0
 .00594687,-0.00623818,0.00629602,0.00101828,-0.00153096,0.00073929,0.0
 0388154,-0.00311445,0.00080323,-0.07949059,0.09891859,-0.14435228,-0.0
 0031710,0.00068183,0.00123634,0.00006350,-0.00058435,0.00007094,0.0006
 4124,-0.00033612,0.00017703,0.00042864,-0.00041351,0.00015615,-0.00019
 764,-0.00002419,0.00113628,0.08488239,-0.10720324,0.15108103,0.0013011
 8,-0.00118229,-0.00681893,-0.00011553,-0.00087584,-0.00035556,-0.01061
 622,0.00192372,0.03202725,-0.07157125,0.01239213,0.07355092,0.00016318
 ,-0.00180264,-0.00064681,0.00072104,0.00072890,0.00021314,0.00002618,0
 .00016251,-0.00041364,-0.00010983,0.00067777,-0.00022007,-0.00605531,0
 .00159372,0.00033938,0.00618488,-0.00250645,-0.01624341,0.07686098,0.0
 0871051,-0.00334811,-0.03144623,-0.00082168,-0.00036229,0.00012038,-0.
 00288889,-0.00024868,0.00698289,0.01239413,-0.05107892,-0.02366576,0.0
 0204136,-0.00566562,-0.00138001,-0.00095117,0.00252080,0.00041533,0.00
 002130,-0.00001245,0.00042863,0.00063557,-0.00010965,0.00022509,-0.002
 00938,0.00005342,-0.00007392,-0.00719267,0.00325056,0.02001514,-0.0108
 3266,0.05421472,0.00122544,-0.00076993,-0.00763922,-0.00016174,0.00004
 934,-0.00037911,0.00079720,0.00100149,-0.00140316,0.07311770,-0.023781
 47,-0.28331857,0.00048918,-0.00170239,0.00094445,-0.00035567,0.0000764
 1,0.00124857,0.00027581,-0.00024585,0.00015607,0.00022486,-0.00021976,
 0.00028212,0.00017800,-0.00063397,0.00115624,0.00604384,-0.00210345,-0
 .01757583,-0.08152616,0.02827167,0.30459004,-0.00422491,-0.00170402,0.
 00060026,0.00063670,-0.00249037,0.00516146,-0.11326972,-0.02723917,-0.
 04277894,-0.01422346,-0.01576411,-0.02136226,0.00008861,-0.00039124,-0
 .00024474,0.00063662,-0.00124689,-0.00063497,0.00038619,0.00160219,0.0
 0010255,0.00076523,-0.00029545,-0.00033782,0.00491430,0.00454086,0.005
 91881,-0.00172971,-0.00063452,-0.00046986,0.00296487,0.00062015,-0.001
 01563,0.54651518,-0.00170394,-0.00422498,0.00060080,-0.01575628,-0.014
 23143,-0.02136129,-0.02723946,-0.11329888,-0.04279847,-0.00249377,0.00
 063605,0.00515852,-0.00039116,0.00008846,-0.00024483,-0.00124650,0.000
 63636,-0.00063544,-0.00063412,-0.00172944,-0.00046962,0.00062013,0.002
 96504,-0.00101605,0.00453481,0.00491244,0.00591387,0.00160214,0.000386
 35,0.00010274,-0.00029469,0.00076520,-0.00033800,-0.02381766,0.5464922
 4,0.00092012,0.00092071,-0.00068840,0.00184730,-0.00051434,0.00268274,
 -0.04400075,-0.04402046,-0.14091781,-0.00051824,0.00184377,0.00267544,
 0.00006166,0.00006161,0.00024984,0.00092064,0.00092037,0.00034415,0.00
 001636,0.00100536,-0.00018770,0.00007255,0.00154716,0.00085985,-0.0180
 2020,-0.01802831,-0.02223510,0.00100456,0.00001619,-0.00018759,0.00154
 776,0.00007293,0.00086005,-0.03303727,-0.03305177,0.53014898,-0.000546
 81,-0.00012371,0.00005909,0.00049848,-0.00026306,0.00019681,-0.0173986
 7,0.00336137,0.00243117,0.00153844,-0.00126864,-0.00279832,0.00007408,
 -0.00017869,-0.00008493,0.00002435,-0.00038524,-0.00007277,-0.00002835
 ,-0.00049494,-0.00009454,-0.00004268,-0.00035847,0.00010945,0.00073966
 ,0.00019821,-0.00043398,-0.00060567,-0.00023845,-0.00017862,0.00056021
 ,0.00016521,-0.00007484,-0.29827218,0.04274953,0.02779024,0.32529227,-
 0.00054485,0.00045359,0.00016399,0.00073654,0.00071048,0.00091182,-0.0
 1912143,0.00324911,0.00312522,-0.00145782,-0.00077130,-0.00295714,0.00
 011449,-0.00002993,0.00001567,0.00014498,-0.00024109,-0.00000922,0.000
 07337,0.00001797,-0.00015516,0.00000396,-0.00018196,0.00018408,0.00072
 600,0.00043724,0.00038272,-0.00069106,-0.00035640,-0.00020765,0.000328
 76,-0.00001053,-0.00005351,0.04241310,-0.05658324,-0.00417828,-0.04570
 892,0.05659968,-0.00074852,0.00006868,0.00029481,0.00063680,-0.0000359
 5,0.00075350,-0.02534364,0.00580368,0.00287700,-0.00023570,-0.00243515
 ,-0.00310836,0.00000104,0.00001387,-0.00003011,0.00013413,-0.00043943,
 -0.00007542,0.00012534,-0.00020706,-0.00001384,0.00018320,-0.00016885,
 0.00007643,0.00050726,0.00079518,0.00079637,-0.00043182,-0.00003289,0.
 00010483,-0.00014453,0.00001979,0.00031068,0.02742265,-0.00424007,-0.0
 5253609,-0.02846943,0.00654750,0.05325043,0.00045362,-0.00054448,0.000
 16416,-0.00076957,-0.00145882,-0.00295581,0.00324893,-0.01911149,0.003
 12983,0.00071020,0.00073664,0.00091160,-0.00002993,0.00011448,0.000015
 65,-0.00024094,0.00014491,-0.00000929,-0.00035621,-0.00069097,-0.00020
 757,-0.00001059,0.00032871,-0.00005366,0.00043682,0.00072593,0.0003825
 1,0.00001812,0.00007330,-0.00015515,-0.00018192,0.00000394,0.00018399,
 -0.05659234,0.04243694,-0.00419371,-0.00419785,0.03294361,-0.00422090,
 0.05660841,-0.00012357,-0.00054707,0.00005929,-0.00126886,0.00153731,-
 0.00280021,0.00336495,-0.01740653,0.00243757,-0.00026309,0.00049875,0.
 00019693,-0.00017868,0.00007405,-0.00008500,-0.00038537,0.00002434,-0.
 00007290,-0.00023838,-0.00060595,-0.00017853,0.00016516,0.00056022,-0.
 00007487,0.00019848,0.00073980,-0.00043387,-0.00049497,-0.00002840,-0.
 00009468,-0.00035856,-0.00004265,0.00010941,0.04277326,-0.29824697,0.0
 2786269,0.00106838,-0.00419427,0.00064814,-0.04573546,0.32526579,0.000
 06884,-0.00074843,0.00029505,-0.00243421,-0.00023757,-0.00310896,0.005
 80628,-0.02534257,0.00288506,-0.00003598,0.00063705,0.00075351,0.00001
 391,0.00000104,-0.00003008,-0.00043939,0.00013409,-0.00007555,-0.00003
 289,-0.00043182,0.00010493,0.00001968,-0.00014451,0.00031073,0.0007949
 7,0.00050756,0.00079665,-0.00020694,0.00012533,-0.00001393,-0.00016885
 ,0.00018321,0.00007636,-0.00425553,0.02749501,-0.05255222,0.00064750,-
 0.00421155,-0.00052558,0.00656367,-0.02854898,0.05326818,0.00020995,0.
 00013480,-0.00021689,0.00031918,0.00073160,0.00045739,0.00383328,0.004
 83473,-0.01753284,0.00167952,0.00061549,-0.00121858,-0.00009202,0.0000
 4868,0.00012392,0.00004501,0.00004134,0.00010731,0.00003785,0.00000946
 ,0.00002891,0.00007414,0.00004602,0.00033977,-0.00121965,-0.00207047,-
 0.00295040,-0.00001817,-0.00001328,0.00018993,-0.00013247,0.00010429,0
 .00059803,-0.06859537,-0.01836596,0.06558896,-0.00763528,-0.00996073,0
 .03058411,0.00090326,0.00147668,-0.00634106,0.07059076,0.00013490,0.00
 020997,-0.00021678,0.00061572,0.00167971,-0.00121866,0.00484063,0.0038
 3159,-0.01754099,0.00073198,0.00031957,0.00045746,0.00004870,-0.000091
 92,0.00012401,0.00004129,0.00004502,0.00010733,-0.00001329,-0.00001812
 ,0.00019001,0.00010413,-0.00013259,0.00059831,-0.00207052,-0.00122174,
 -0.00295154,0.00000944,0.00003789,0.00002901,0.00004562,0.00007421,0.0
 0034002,-0.01836613,-0.06856720,0.06554236,0.00147741,0.00090065,-0.00
 633743,-0.00996723,-0.00762841,0.03058213,0.02236734,0.07056136,0.0001
 5517,0.00015533,0.00063371,0.00038481,0.00125937,0.00050801,0.00579767
 ,0.00579260,-0.02408948,0.00125943,0.00038518,0.00050781,0.00019509,0.
 00019519,0.00014470,-0.00008980,-0.00008981,0.00001078,0.00013789,0.00
 001128,0.00032847,-0.00016917,-0.00114027,0.00069148,-0.00313237,-0.00
 313353,-0.00209557,0.00001117,0.00013796,0.00032848,-0.00114047,-0.000
 16914,0.00069129,0.06493128,0.06488459,-0.26851614,0.00097318,0.000441
 49,-0.00217467,0.00044467,0.00097499,-0.00218415,-0.06975856,-0.069705
 24,0.29521528\\0.00000067,0.00000062,0.00000026,-0.00000014,-0.0000026
 0,0.00000886,0.00000096,0.00000095,-0.00000426,-0.00000265,-0.00000012
 ,0.00000891,-0.00000370,-0.00000368,0.00000178,-0.00000165,-0.00000164
 ,0.00000406,-0.00000172,-0.00000112,-0.00000042,0.00000257,0.00000262,
 0.00000188,-0.00000209,-0.00000208,-0.00000148,-0.00000110,-0.00000172
 ,-0.00000045,0.00000261,0.00000255,0.00000187,0.00000194,0.00000193,0.
 00000142,0.00000068,0.00000153,-0.00000661,0.00000154,0.00000068,-0.00
 000660,0.00000207,0.00000208,-0.00000921\\\@


 SEEN ON A WALL AT THE UNIVERSITY OF ILLINOIS AT CHICAGO CIRCLE:

 TO DO IS TO BE  -- SOCRATES
 TO BE IS TO DO  -- SARTRE
 OO BE DO BE DO  -- SINATRA
 Job cpu time:  0 days  0 hours  9 minutes 51.0 seconds.
 File lengths (MBytes):  RWF=     37 Int=      0 D2E=      0 Chk=      3 Scr=      1
 Normal termination of Gaussian 09 at Sat Jun  6 00:41:28 2015.
