 Entering Gaussian System, Link 0=/share/apps/g09/g09
 Input=C5H10_6_2_opt_631gd.gjf
 Output=C5H10_6_2_opt_631gd.log
 Initial command:
 /share/apps/g09/l1.exe /state/partition1/Gau-2973.inp -scrdir=/state/partition1/
 Entering Link 1 = /share/apps/g09/l1.exe PID=      2974.
  
 Copyright (c) 1988,1990,1992,1993,1995,1998,2003,2009, Gaussian, Inc.
                  All Rights Reserved.
  
 This is part of the Gaussian(R) 09 program.  It is based on
 the Gaussian(R) 03 system (copyright 2003, Gaussian, Inc.),
 the Gaussian(R) 98 system (copyright 1998, Gaussian, Inc.),
 the Gaussian(R) 94 system (copyright 1995, Gaussian, Inc.),
 the Gaussian 92(TM) system (copyright 1992, Gaussian, Inc.),
 the Gaussian 90(TM) system (copyright 1990, Gaussian, Inc.),
 the Gaussian 88(TM) system (copyright 1988, Gaussian, Inc.),
 the Gaussian 86(TM) system (copyright 1986, Carnegie Mellon
 University), and the Gaussian 82(TM) system (copyright 1983,
 Carnegie Mellon University). Gaussian is a federally registered
 trademark of Gaussian, Inc.
  
 This software contains proprietary and confidential information,
 including trade secrets, belonging to Gaussian, Inc.
  
 This software is provided under written license and may be
 used, copied, transmitted, or stored only in accord with that
 written license.
  
 The following legend is applicable only to US Government
 contracts under FAR:
  
                    RESTRICTED RIGHTS LEGEND
  
 Use, reproduction and disclosure by the US Government is
 subject to restrictions as set forth in subparagraphs (a)
 and (c) of the Commercial Computer Software - Restricted
 Rights clause in FAR 52.227-19.
  
 Gaussian, Inc.
 340 Quinnipiac St., Bldg. 40, Wallingford CT 06492
  
  
 ---------------------------------------------------------------
 Warning -- This program may not be used in any manner that
 competes with the business of Gaussian, Inc. or will provide
 assistance to any competitor of Gaussian, Inc.  The licensee
 of this program is prohibited from giving any competitor of
 Gaussian, Inc. access to this program.  By using this program,
 the user acknowledges that Gaussian, Inc. is engaged in the
 business of creating and licensing software in the field of
 computational chemistry and represents and warrants to the
 licensee that it is not a competitor of Gaussian, Inc. and that
 it will not use this program in any manner prohibited above.
 ---------------------------------------------------------------
  

 Cite this work as:
 Gaussian 09, Revision A.01,
 M. J. Frisch, G. W. Trucks, H. B. Schlegel, G. E. Scuseria, 
 M. A. Robb, J. R. Cheeseman, G. Scalmani, V. Barone, B. Mennucci, 
 G. A. Petersson, H. Nakatsuji, M. Caricato, X. Li, H. P. Hratchian, 
 A. F. Izmaylov, J. Bloino, G. Zheng, J. L. Sonnenberg, M. Hada, 
 M. Ehara, K. Toyota, R. Fukuda, J. Hasegawa, M. Ishida, T. Nakajima, 
 Y. Honda, O. Kitao, H. Nakai, T. Vreven, J. A. Montgomery, Jr., 
 J. E. Peralta, F. Ogliaro, M. Bearpark, J. J. Heyd, E. Brothers, 
 K. N. Kudin, V. N. Staroverov, R. Kobayashi, J. Normand, 
 K. Raghavachari, A. Rendell, J. C. Burant, S. S. Iyengar, J. Tomasi, 
 M. Cossi, N. Rega, J. M. Millam, M. Klene, J. E. Knox, J. B. Cross, 
 V. Bakken, C. Adamo, J. Jaramillo, R. Gomperts, R. E. Stratmann, 
 O. Yazyev, A. J. Austin, R. Cammi, C. Pomelli, J. W. Ochterski, 
 R. L. Martin, K. Morokuma, V. G. Zakrzewski, G. A. Voth, 
 P. Salvador, J. J. Dannenberg, S. Dapprich, A. D. Daniels, 
 O. Farkas, J. B. Foresman, J. V. Ortiz, J. Cioslowski, 
 and D. J. Fox, Gaussian, Inc., Wallingford CT, 2009.
 
 ******************************************
 Gaussian 09:  EM64L-G09RevA.01  8-May-2009
                22-Aug-2015 
 ******************************************
 %mem=28GB
 %nprocshared=12
 Will use up to   12 processors via shared memory.
 %chk=C5H10_6_2_opt_631gd.chk
 --------------------------
 #p b3lyp/6-31g(d) opt freq
 --------------------------
 1/14=-1,18=20,19=15,26=3,38=1/1,3;
 2/9=110,12=2,17=6,18=5,40=1/2;
 3/5=1,6=6,7=1,11=2,16=1,25=1,30=1,71=1,74=-5/1,2,3;
 4//1;
 5/5=2,38=5/2;
 6/7=2,8=2,9=2,10=2,28=1/1;
 7//1,2,3,16;
 1/14=-1,18=20,19=15/3(2);
 2/9=110/2;
 99//99;
 2/9=110/2;
 3/5=1,6=6,7=1,11=2,16=1,25=1,30=1,71=1,74=-5/1,2,3;
 4/5=5,16=3/1;
 5/5=2,38=5/2;
 7//1,2,3,16;
 1/14=-1,18=20,19=15/3(-5);
 2/9=110/2;
 6/7=2,8=2,9=2,10=2,19=2,28=1/1;
 99/9=1/99;
 Leave Link    1 at Sat Aug 22 15:17:00 2015, MaxMem= 3758096384 cpu:       0.3
 (Enter /share/apps/g09/l101.exe)
 -----------------------------
 using ub3lyp/6-31G(d) to scan
 -----------------------------
 Symbolic Z-matrix:
 Charge =  0 Multiplicity = 1
 C                    -0.70223  -0.69779  -0.06158 
 C                     0.44339  -0.00018  -0.02812 
 C                     0.53939   1.49566   0.14942 
 H                    -0.43252   1.9841    0.25045 
 H                    -0.62124  -1.77795  -0.19548 
 H                     1.05838   1.95509  -0.70359 
 C                     1.77614  -0.6972   -0.17228 
 H                     2.33424  -0.31141  -1.03737 
 H                     2.41189  -0.52417   0.70783 
 H                     1.66094  -1.77842  -0.29895 
 H                     1.13278   1.74291   1.04095 
 C                    -2.11265  -0.19345   0.06314 
 H                    -2.61707  -0.65144   0.92536 
 H                    -2.17431   0.89161   0.18242 
 H                    -2.70414  -0.46432  -0.82237 
 
 NAtoms=     15 NQM=     15 NQMF=      0 NMic=      0 NMicF=      0 NTot=     15.
                    Isotopes and Nuclear Properties:
 (Nuclear quadrupole moments (NQMom) in fm**2, nuclear magnetic moments (NMagM)
  in nuclear magnetons)

  Atom         1           2           3           4           5           6           7           8           9          10
 IAtWgt=          12          12          12           1           1           1          12           1           1           1
 AtmWgt=  12.0000000  12.0000000  12.0000000   1.0078250   1.0078250   1.0078250  12.0000000   1.0078250   1.0078250   1.0078250
 NucSpn=           0           0           0           1           1           1           0           1           1           1
 AtZEff=   0.0000000   0.0000000   0.0000000   0.0000000   0.0000000   0.0000000   0.0000000   0.0000000   0.0000000   0.0000000
 NQMom=    0.0000000   0.0000000   0.0000000   0.0000000   0.0000000   0.0000000   0.0000000   0.0000000   0.0000000   0.0000000
 NMagM=    0.0000000   0.0000000   0.0000000   2.7928460   2.7928460   2.7928460   0.0000000   2.7928460   2.7928460   2.7928460

  Atom        11          12          13          14          15
 IAtWgt=           1          12           1           1           1
 AtmWgt=   1.0078250  12.0000000   1.0078250   1.0078250   1.0078250
 NucSpn=           1           0           1           1           1
 AtZEff=   0.0000000   0.0000000   0.0000000   0.0000000   0.0000000
 NQMom=    0.0000000   0.0000000   0.0000000   0.0000000   0.0000000
 NMagM=    2.7928460   0.0000000   2.7928460   2.7928460   2.7928460
 Leave Link  101 at Sat Aug 22 15:17:00 2015, MaxMem= 3758096384 cpu:       0.7
 (Enter /share/apps/g09/l103.exe)

 GradGradGradGradGradGradGradGradGradGradGradGradGradGradGradGradGradGrad
 Berny optimization.
 Initialization pass.
                           ----------------------------
                           !    Initial Parameters    !
                           ! (Angstroms and Degrees)  !
 --------------------------                            --------------------------
 ! Name  Definition              Value          Derivative Info.                !
 --------------------------------------------------------------------------------
 ! R1    R(1,2)                  1.3417         estimate D2E/DX2                !
 ! R2    R(1,5)                  1.0914         estimate D2E/DX2                !
 ! R3    R(1,12)                 1.5031         estimate D2E/DX2                !
 ! R4    R(2,3)                  1.5094         estimate D2E/DX2                !
 ! R5    R(2,7)                  1.5109         estimate D2E/DX2                !
 ! R6    R(3,4)                  1.0924         estimate D2E/DX2                !
 ! R7    R(3,6)                  1.0991         estimate D2E/DX2                !
 ! R8    R(3,11)                 1.0991         estimate D2E/DX2                !
 ! R9    R(7,8)                  1.0994         estimate D2E/DX2                !
 ! R10   R(7,9)                  1.0994         estimate D2E/DX2                !
 ! R11   R(7,10)                 1.0947         estimate D2E/DX2                !
 ! R12   R(12,13)                1.0989         estimate D2E/DX2                !
 ! R13   R(12,14)                1.0933         estimate D2E/DX2                !
 ! R14   R(12,15)                1.0988         estimate D2E/DX2                !
 ! A1    A(2,1,5)              117.0172         estimate D2E/DX2                !
 ! A2    A(2,1,12)             128.6592         estimate D2E/DX2                !
 ! A3    A(5,1,12)             114.3235         estimate D2E/DX2                !
 ! A4    A(1,2,3)              124.9249         estimate D2E/DX2                !
 ! A5    A(1,2,7)              120.7255         estimate D2E/DX2                !
 ! A6    A(3,2,7)              114.3496         estimate D2E/DX2                !
 ! A7    A(2,3,4)              113.4154         estimate D2E/DX2                !
 ! A8    A(2,3,6)              110.6701         estimate D2E/DX2                !
 ! A9    A(2,3,11)             110.651          estimate D2E/DX2                !
 ! A10   A(4,3,6)              107.7569         estimate D2E/DX2                !
 ! A11   A(4,3,11)             107.7421         estimate D2E/DX2                !
 ! A12   A(6,3,11)             106.293          estimate D2E/DX2                !
 ! A13   A(2,7,8)              111.1601         estimate D2E/DX2                !
 ! A14   A(2,7,9)              111.1669         estimate D2E/DX2                !
 ! A15   A(2,7,10)             111.9535         estimate D2E/DX2                !
 ! A16   A(8,7,9)              106.3283         estimate D2E/DX2                !
 ! A17   A(8,7,10)             107.997          estimate D2E/DX2                !
 ! A18   A(9,7,10)             107.995          estimate D2E/DX2                !
 ! A19   A(1,12,13)            110.8538         estimate D2E/DX2                !
 ! A20   A(1,12,14)            113.2643         estimate D2E/DX2                !
 ! A21   A(1,12,15)            110.8268         estimate D2E/DX2                !
 ! A22   A(13,12,14)           107.585          estimate D2E/DX2                !
 ! A23   A(13,12,15)           106.4079         estimate D2E/DX2                !
 ! A24   A(14,12,15)           107.5908         estimate D2E/DX2                !
 ! D1    D(5,1,2,3)           -179.9391         estimate D2E/DX2                !
 ! D2    D(5,1,2,7)              0.0476         estimate D2E/DX2                !
 ! D3    D(12,1,2,3)            -0.0095         estimate D2E/DX2                !
 ! D4    D(12,1,2,7)           179.9773         estimate D2E/DX2                !
 ! D5    D(2,1,12,13)         -120.1641         estimate D2E/DX2                !
 ! D6    D(2,1,12,14)            0.8795         estimate D2E/DX2                !
 ! D7    D(2,1,12,15)          121.9109         estimate D2E/DX2                !
 ! D8    D(5,1,12,13)           59.7671         estimate D2E/DX2                !
 ! D9    D(5,1,12,14)         -179.1893         estimate D2E/DX2                !
 ! D10   D(5,1,12,15)          -58.1579         estimate D2E/DX2                !
 ! D11   D(1,2,3,4)             -0.1084         estimate D2E/DX2                !
 ! D12   D(1,2,3,6)           -121.3466         estimate D2E/DX2                !
 ! D13   D(1,2,3,11)           121.0964         estimate D2E/DX2                !
 ! D14   D(7,2,3,4)            179.9041         estimate D2E/DX2                !
 ! D15   D(7,2,3,6)             58.6659         estimate D2E/DX2                !
 ! D16   D(7,2,3,11)           -58.8911         estimate D2E/DX2                !
 ! D17   D(1,2,7,8)            120.9125         estimate D2E/DX2                !
 ! D18   D(1,2,7,9)           -120.8482         estimate D2E/DX2                !
 ! D19   D(1,2,7,10)             0.0332         estimate D2E/DX2                !
 ! D20   D(3,2,7,8)            -59.0995         estimate D2E/DX2                !
 ! D21   D(3,2,7,9)             59.1399         estimate D2E/DX2                !
 ! D22   D(3,2,7,10)          -179.9787         estimate D2E/DX2                !
 --------------------------------------------------------------------------------
 Trust Radius=3.00D-01 FncErr=1.00D-07 GrdErr=1.00D-06
 Number of steps in this run=  70 maximum allowed number of steps= 100.
 GradGradGradGradGradGradGradGradGradGradGradGradGradGradGradGradGradGrad

 Leave Link  103 at Sat Aug 22 15:17:00 2015, MaxMem= 3758096384 cpu:       0.1
 (Enter /share/apps/g09/l202.exe)
                          Input orientation:                          
 ---------------------------------------------------------------------
 Center     Atomic      Atomic             Coordinates (Angstroms)
 Number     Number       Type             X           Y           Z
 ---------------------------------------------------------------------
      1          6           0       -0.702234   -0.697786   -0.061582
      2          6           0        0.443386   -0.000180   -0.028121
      3          6           0        0.539385    1.495663    0.149421
      4          1           0       -0.432522    1.984103    0.250445
      5          1           0       -0.621240   -1.777954   -0.195482
      6          1           0        1.058383    1.955091   -0.703593
      7          6           0        1.776143   -0.697202   -0.172284
      8          1           0        2.334240   -0.311411   -1.037370
      9          1           0        2.411887   -0.524171    0.707829
     10          1           0        1.660935   -1.778422   -0.298951
     11          1           0        1.132778    1.742909    1.040945
     12          6           0       -2.112649   -0.193449    0.063136
     13          1           0       -2.617069   -0.651440    0.925361
     14          1           0       -2.174309    0.891612    0.182421
     15          1           0       -2.704143   -0.464323   -0.822368
 ---------------------------------------------------------------------
                    Distance matrix (angstroms):
                    1          2          3          4          5
     1  C    0.000000
     2  C    1.341722   0.000000
     3  C    2.529300   1.509398   0.000000
     4  H    2.713417   2.186823   1.092421   0.000000
     5  H    1.091445   2.078922   3.490355   3.793091   0.000000
     6  H    3.248031   2.158140   1.099121   1.770262   4.124916
     7  C    2.480848   1.510915   2.538055   3.499471   2.629830
     8  H    3.212728   2.165820   2.809892   3.818746   3.405053
     9  H    3.212458   2.165914   2.810305   3.819856   3.404086
    10  H    2.609346   2.172077   3.489777   4.340621   2.284519
    11  H    3.246510   2.157898   1.099118   1.770093   4.123325
    12  C    1.503057   2.564955   3.145446   2.756745   2.191310
    13  H    2.154715   3.271032   3.895553   3.489104   2.551207
    14  H    2.180075   2.773436   2.780306   2.057179   3.111497
    15  H    2.154284   3.279207   3.912339   3.507988   2.541082
                    6          7          8          9         10
     6  H    0.000000
     7  C    2.798594   0.000000
     8  H    2.622260   1.099400   0.000000
     9  H    3.157661   1.099413   1.759834   0.000000
    10  H    3.803409   1.094694   1.775028   1.775016   0.000000
    11  H    1.758968   2.799997   3.159610   2.624259   3.804477
    12  C    3.906346   3.928345   4.582559   4.582186   4.108915
    13  H    4.791288   4.528491   5.336984   5.035267   4.590245
    14  H    3.516576   4.272729   4.823087   4.828425   4.697861
    15  H    4.474849   4.533189   5.045286   5.340304   4.588543
                   11         12         13         14         15
    11  H    0.000000
    12  C    3.903638   0.000000
    13  H    4.450575   1.098921   0.000000
    14  H    3.521164   1.093338   1.768900   0.000000
    15  H    4.802684   1.098797   1.759873   1.768865   0.000000
 Stoichiometry    C5H10
 Framework group  C1[X(C5H10)]
 Deg. of freedom    39
 Full point group                 C1      NOp   1
 Largest Abelian subgroup         C1      NOp   1
 Largest concise Abelian subgroup C1      NOp   1
                         Standard orientation:                         
 ---------------------------------------------------------------------
 Center     Atomic      Atomic             Coordinates (Angstroms)
 Number     Number       Type             X           Y           Z
 ---------------------------------------------------------------------
      1          6           0       -0.734610   -0.671810   -0.000267
      2          6           0        0.449434   -0.040732   -0.000176
      3          6           0        0.629930    1.457836    0.000010
      4          1           0       -0.313420    2.008718   -0.001831
      5          1           0       -0.714805   -1.763075    0.000633
      6          1           0        1.207467    1.779162   -0.878207
      7          6           0        1.741577   -0.823822    0.000044
      8          1           0        2.354065   -0.579134   -0.879538
      9          1           0        2.353439   -0.579914    0.880295
     10          1           0        1.565348   -1.904237   -0.000477
     11          1           0        1.203658    1.779056    0.880757
     12          6           0       -2.115256   -0.077673   -0.000017
     13          1           0       -2.678508   -0.397262    0.887810
     14          1           0       -2.114932    1.015561   -0.015141
     15          1           0       -2.688757   -0.421672   -0.871864
 ---------------------------------------------------------------------
 Rotational constants (GHZ):      8.0084405      3.4940196      2.5474515
 Leave Link  202 at Sat Aug 22 15:17:00 2015, MaxMem= 3758096384 cpu:       0.1
 (Enter /share/apps/g09/l301.exe)
 Standard basis: 6-31G(d) (6D, 7F)
 Ernie: Thresh=  0.10000D-02 Tol=  0.10000D-05 Strict=F.
 There are    95 symmetry adapted basis functions of A   symmetry.
 Integral buffers will be    131072 words long.
 Raffenetti 2 integral format.
 Two-electron integral symmetry is turned on.
    95 basis functions,   180 primitive gaussians,    95 cartesian basis functions
    20 alpha electrons       20 beta electrons
       nuclear repulsion energy       173.9114310482 Hartrees.
 IExCor=  402 DFT=T Ex+Corr=B3LYP ExCW=0 ScaHFX=  0.200000
 ScaDFX=  0.800000  0.720000  1.000000  0.810000 ScalE2=  1.000000  1.000000
 IRadAn=      0 IRanWt=     -1 IRanGd=            0 ICorTp=0
 NAtoms=   15 NActive=   15 NUniq=   15 SFac= 7.50D-01 NAtFMM=   80 NAOKFM=F Big=F
 Leave Link  301 at Sat Aug 22 15:17:01 2015, MaxMem= 3758096384 cpu:       0.6
 (Enter /share/apps/g09/l302.exe)
 NPDir=0 NMtPBC=     1 NCelOv=     1 NCel=       1 NClECP=     1 NCelD=      1
         NCelK=      1 NCelE2=     1 NClLst=     1 CellRange=     0.0.
 One-electron integrals computed using PRISM.
 NBasis=    95 RedAO= T  NBF=    95
 NBsUse=    95 1.00D-06 NBFU=    95
 Precomputing XC quadrature grid using
 IXCGrd= 2 IRadAn=           0 IRanWt=          -1 IRanGd=           0 AccXCQ= 1.00D-10.
 NRdTot=     933 NPtTot=      117822 NUsed=      124561 NTot=      124593
 NSgBfM=    95    95    95    95    95 NAtAll=    15    15.
 Leave Link  302 at Sat Aug 22 15:17:01 2015, MaxMem= 3758096384 cpu:       2.0
 (Enter /share/apps/g09/l303.exe)
 DipDrv:  MaxL=1.
 Leave Link  303 at Sat Aug 22 15:17:01 2015, MaxMem= 3758096384 cpu:       0.4
 (Enter /share/apps/g09/l401.exe)
 Harris functional with IExCor=  402 diagonalized for initial guess.
 ExpMin= 1.61D-01 ExpMax= 3.05D+03 ExpMxC= 4.57D+02 IAcc=1 IRadAn=         1 AccDes= 0.00D+00
 HarFok:  IExCor=  402 AccDes= 0.00D+00 IRadAn=         1 IDoV= 1
 ScaDFX=  1.000000  1.000000  1.000000  1.000000
 FoFCou: FMM=F IPFlag=           0 FMFlag=      100000 FMFlg1=           0
         NFxFlg=           0 DoJE=T BraDBF=F KetDBF=T FulRan=T
         Omega=  0.000000  0.000000  1.000000  0.000000  0.000000 ICntrl=     500 IOpCl=  0
         NMat0=    1 NMatS0=    1 NMatT0=    0 NMatD0=    1 NMtDS0=    0 NMtDT0=    0
         I1Cent=           4 NGrid=           0.
 Petite list used in FoFCou.
 Harris En= -196.629027623993    
 Initial guess orbital symmetries:
       Occupied  (A) (A) (A) (A) (A) (A) (A) (A) (A) (A) (A) (A)
                 (A) (A) (A) (A) (A) (A) (A) (A)
       Virtual   (A) (A) (A) (A) (A) (A) (A) (A) (A) (A) (A) (A)
                 (A) (A) (A) (A) (A) (A) (A) (A) (A) (A) (A) (A)
                 (A) (A) (A) (A) (A) (A) (A) (A) (A) (A) (A) (A)
                 (A) (A) (A) (A) (A) (A) (A) (A) (A) (A) (A) (A)
                 (A) (A) (A) (A) (A) (A) (A) (A) (A) (A) (A) (A)
                 (A) (A) (A) (A) (A) (A) (A) (A) (A) (A) (A) (A)
                 (A) (A) (A)
 The electronic state of the initial guess is 1-A.
 Leave Link  401 at Sat Aug 22 15:17:01 2015, MaxMem= 3758096384 cpu:       2.6
 (Enter /share/apps/g09/l502.exe)
 Closed shell SCF:
 Requested convergence on RMS density matrix=1.00D-08 within 128 cycles.
 Requested convergence on MAX density matrix=1.00D-06.
 Requested convergence on             energy=1.00D-06.
 No special actions if energy rises.
 Using DIIS extrapolation, IDIIS=  1040.
 Integral symmetry usage will be decided dynamically.
       124413 words used for storage of precomputed grid.
 Keep R1 ints in memory in canonical form, NReq=11484605.
 IEnd=      171509 IEndB=      171509 NGot=  3758096384 MDV=  3747551528
 LenX=  3747551528 LenY=  3747542062
 Symmetry not used in FoFDir.
 MinBra= 0 MaxBra= 2 Meth= 1.
 IRaf=       0 NMat=   1 IRICut=       1 DoRegI=T DoRafI=F ISym2E= 0 JSym2E=0.
 Integral accuracy reduced to 1.0D-05 until final iterations.

 Cycle   1  Pass 0  IDiag  1:
 E= -196.318422541348    
 DIIS: error= 5.97D-02 at cycle   1 NSaved=   1.
 NSaved= 1 IEnMin= 1 EnMin= -196.318422541348     IErMin= 1 ErrMin= 5.97D-02
 ErrMax= 5.97D-02 EMaxC= 1.00D-01 BMatC= 1.99D-01 BMatP= 1.99D-01
 IDIUse=3 WtCom= 4.03D-01 WtEn= 5.97D-01
 Coeff-Com:  0.100D+01
 Coeff-En:   0.100D+01
 Coeff:      0.100D+01
 Gap=     0.264 Goal=   None    Shift=    0.000
 GapD=    0.264 DampG=1.000 DampE=0.500 DampFc=0.5000 IDamp=-1.
 Damping current iteration by 5.00D-01
 RMSDP=1.13D-02 MaxDP=1.54D-01              OVMax= 1.79D-01

 Cycle   2  Pass 0  IDiag  1:
 E= -196.422880623655     Delta-E=       -0.104458082307 Rises=F Damp=T
 DIIS: error= 7.80D-03 at cycle   2 NSaved=   2.
 NSaved= 2 IEnMin= 2 EnMin= -196.422880623655     IErMin= 2 ErrMin= 7.80D-03
 ErrMax= 7.80D-03 EMaxC= 1.00D-01 BMatC= 6.17D-03 BMatP= 1.99D-01
 IDIUse=3 WtCom= 9.22D-01 WtEn= 7.80D-02
 Coeff-Com:  0.508D-01 0.949D+00
 Coeff-En:   0.817D-01 0.918D+00
 Coeff:      0.532D-01 0.947D+00
 Gap=     0.271 Goal=   None    Shift=    0.000
 RMSDP=2.35D-03 MaxDP=3.07D-02 DE=-1.04D-01 OVMax= 9.94D-02

 Cycle   3  Pass 0  IDiag  1:
 E= -196.543148040231     Delta-E=       -0.120267416576 Rises=F Damp=F
 DIIS: error= 2.62D-03 at cycle   3 NSaved=   3.
 NSaved= 3 IEnMin= 3 EnMin= -196.543148040231     IErMin= 3 ErrMin= 2.62D-03
 ErrMax= 2.62D-03 EMaxC= 1.00D-01 BMatC= 4.00D-04 BMatP= 6.17D-03
 IDIUse=3 WtCom= 9.74D-01 WtEn= 2.62D-02
 Coeff-Com: -0.431D-02 0.139D+00 0.865D+00
 Coeff-En:   0.000D+00 0.000D+00 0.100D+01
 Coeff:     -0.419D-02 0.136D+00 0.869D+00
 Gap=     0.264 Goal=   None    Shift=    0.000
 RMSDP=4.81D-04 MaxDP=5.05D-03 DE=-1.20D-01 OVMax= 7.18D-03

 Cycle   4  Pass 0  IDiag  1:
 E= -196.543436206037     Delta-E=       -0.000288165806 Rises=F Damp=F
 DIIS: error= 1.21D-03 at cycle   4 NSaved=   4.
 NSaved= 4 IEnMin= 4 EnMin= -196.543436206037     IErMin= 4 ErrMin= 1.21D-03
 ErrMax= 1.21D-03 EMaxC= 1.00D-01 BMatC= 1.37D-04 BMatP= 4.00D-04
 IDIUse=3 WtCom= 9.88D-01 WtEn= 1.21D-02
 Coeff-Com: -0.208D-02 0.274D-01 0.379D+00 0.596D+00
 Coeff-En:   0.000D+00 0.000D+00 0.171D+00 0.829D+00
 Coeff:     -0.205D-02 0.270D-01 0.376D+00 0.599D+00
 Gap=     0.264 Goal=   None    Shift=    0.000
 RMSDP=1.76D-04 MaxDP=3.53D-03 DE=-2.88D-04 OVMax= 5.32D-03

 Cycle   5  Pass 0  IDiag  1:
 E= -196.543553193189     Delta-E=       -0.000116987152 Rises=F Damp=F
 DIIS: error= 4.17D-04 at cycle   5 NSaved=   5.
 NSaved= 5 IEnMin= 5 EnMin= -196.543553193189     IErMin= 5 ErrMin= 4.17D-04
 ErrMax= 4.17D-04 EMaxC= 1.00D-01 BMatC= 2.19D-05 BMatP= 1.37D-04
 IDIUse=3 WtCom= 9.96D-01 WtEn= 4.17D-03
 Coeff-Com: -0.323D-03 0.102D-02 0.132D+00 0.331D+00 0.536D+00
 Coeff-En:   0.000D+00 0.000D+00 0.000D+00 0.719D-01 0.928D+00
 Coeff:     -0.322D-03 0.102D-02 0.132D+00 0.330D+00 0.538D+00
 Gap=     0.264 Goal=   None    Shift=    0.000
 RMSDP=5.19D-05 MaxDP=1.57D-03 DE=-1.17D-04 OVMax= 2.86D-03

 Cycle   6  Pass 0  IDiag  1:
 E= -196.543571968594     Delta-E=       -0.000018775405 Rises=F Damp=F
 DIIS: error= 1.78D-04 at cycle   6 NSaved=   6.
 NSaved= 6 IEnMin= 6 EnMin= -196.543571968594     IErMin= 6 ErrMin= 1.78D-04
 ErrMax= 1.78D-04 EMaxC= 1.00D-01 BMatC= 2.41D-06 BMatP= 2.19D-05
 IDIUse=3 WtCom= 9.98D-01 WtEn= 1.78D-03
 Coeff-Com: -0.108D-04-0.106D-02 0.617D-01 0.172D+00 0.338D+00 0.430D+00
 Coeff-En:   0.000D+00 0.000D+00 0.000D+00 0.000D+00 0.346D-01 0.965D+00
 Coeff:     -0.108D-04-0.106D-02 0.616D-01 0.172D+00 0.337D+00 0.431D+00
 Gap=     0.264 Goal=   None    Shift=    0.000
 RMSDP=1.60D-05 MaxDP=4.48D-04 DE=-1.88D-05 OVMax= 8.45D-04

 Cycle   7  Pass 0  IDiag  1:
 E= -196.543574435419     Delta-E=       -0.000002466825 Rises=F Damp=F
 DIIS: error= 1.63D-05 at cycle   7 NSaved=   7.
 NSaved= 7 IEnMin= 7 EnMin= -196.543574435419     IErMin= 7 ErrMin= 1.63D-05
 ErrMax= 1.63D-05 EMaxC= 1.00D-01 BMatC= 2.69D-08 BMatP= 2.41D-06
 IDIUse=1 WtCom= 1.00D+00 WtEn= 0.00D+00
 Coeff-Com:  0.892D-04-0.459D-03 0.589D-02 0.185D-01 0.468D-01 0.126D+00
 Coeff-Com:  0.803D+00
 Coeff:      0.892D-04-0.459D-03 0.589D-02 0.185D-01 0.468D-01 0.126D+00
 Coeff:      0.803D+00
 Gap=     0.264 Goal=   None    Shift=    0.000
 RMSDP=2.92D-06 MaxDP=3.42D-05 DE=-2.47D-06 OVMax= 7.50D-05

 Initial convergence to 1.0D-05 achieved.  Increase integral accuracy.
 Cycle   8  Pass 1  IDiag  1:
 E= -196.543586014171     Delta-E=       -0.000011578752 Rises=F Damp=F
 DIIS: error= 1.04D-05 at cycle   1 NSaved=   1.
 NSaved= 1 IEnMin= 1 EnMin= -196.543586014171     IErMin= 1 ErrMin= 1.04D-05
 ErrMax= 1.04D-05 EMaxC= 1.00D-01 BMatC= 1.44D-08 BMatP= 1.44D-08
 IDIUse=1 WtCom= 1.00D+00 WtEn= 0.00D+00
 Coeff-Com:  0.100D+01
 Coeff:      0.100D+01
 Gap=     0.264 Goal=   None    Shift=    0.000
 RMSDP=2.92D-06 MaxDP=3.42D-05 DE=-1.16D-05 OVMax= 4.35D-05

 Cycle   9  Pass 1  IDiag  1:
 E= -196.543586035358     Delta-E=       -0.000000021187 Rises=F Damp=F
 DIIS: error= 2.82D-06 at cycle   2 NSaved=   2.
 NSaved= 2 IEnMin= 2 EnMin= -196.543586035358     IErMin= 2 ErrMin= 2.82D-06
 ErrMax= 2.82D-06 EMaxC= 1.00D-01 BMatC= 1.17D-09 BMatP= 1.44D-08
 IDIUse=1 WtCom= 1.00D+00 WtEn= 0.00D+00
 Coeff-Com:  0.891D-01 0.911D+00
 Coeff:      0.891D-01 0.911D+00
 Gap=     0.264 Goal=   None    Shift=    0.000
 RMSDP=7.47D-07 MaxDP=1.22D-05 DE=-2.12D-08 OVMax= 2.51D-05

 Cycle  10  Pass 1  IDiag  1:
 E= -196.543586035396     Delta-E=       -0.000000000037 Rises=F Damp=F
 DIIS: error= 2.92D-06 at cycle   3 NSaved=   3.
 NSaved= 3 IEnMin= 3 EnMin= -196.543586035396     IErMin= 2 ErrMin= 2.82D-06
 ErrMax= 2.92D-06 EMaxC= 1.00D-01 BMatC= 1.19D-09 BMatP= 1.17D-09
 IDIUse=1 WtCom= 1.00D+00 WtEn= 0.00D+00
 Coeff-Com: -0.123D-01 0.506D+00 0.507D+00
 Coeff:     -0.123D-01 0.506D+00 0.507D+00
 Gap=     0.264 Goal=   None    Shift=    0.000
 RMSDP=3.80D-07 MaxDP=9.72D-06 DE=-3.72D-11 OVMax= 2.00D-05

 Cycle  11  Pass 1  IDiag  1:
 E= -196.543586036479     Delta-E=       -0.000000001084 Rises=F Damp=F
 DIIS: error= 1.18D-06 at cycle   4 NSaved=   4.
 NSaved= 4 IEnMin= 4 EnMin= -196.543586036479     IErMin= 4 ErrMin= 1.18D-06
 ErrMax= 1.18D-06 EMaxC= 1.00D-01 BMatC= 1.06D-10 BMatP= 1.17D-09
 IDIUse=1 WtCom= 1.00D+00 WtEn= 0.00D+00
 Coeff-Com: -0.145D-01 0.235D+00 0.298D+00 0.482D+00
 Coeff:     -0.145D-01 0.235D+00 0.298D+00 0.482D+00
 Gap=     0.264 Goal=   None    Shift=    0.000
 RMSDP=1.18D-07 MaxDP=2.89D-06 DE=-1.08D-09 OVMax= 6.11D-06

 Cycle  12  Pass 1  IDiag  1:
 E= -196.543586036581     Delta-E=       -0.000000000101 Rises=F Damp=F
 DIIS: error= 2.81D-07 at cycle   5 NSaved=   5.
 NSaved= 5 IEnMin= 5 EnMin= -196.543586036581     IErMin= 5 ErrMin= 2.81D-07
 ErrMax= 2.81D-07 EMaxC= 1.00D-01 BMatC= 6.34D-12 BMatP= 1.06D-10
 IDIUse=1 WtCom= 1.00D+00 WtEn= 0.00D+00
 Coeff-Com: -0.618D-02 0.802D-01 0.113D+00 0.264D+00 0.548D+00
 Coeff:     -0.618D-02 0.802D-01 0.113D+00 0.264D+00 0.548D+00
 Gap=     0.264 Goal=   None    Shift=    0.000
 RMSDP=2.86D-08 MaxDP=4.63D-07 DE=-1.01D-10 OVMax= 1.09D-06

 Cycle  13  Pass 1  IDiag  1:
 E= -196.543586036588     Delta-E=       -0.000000000007 Rises=F Damp=F
 DIIS: error= 1.64D-08 at cycle   6 NSaved=   6.
 NSaved= 6 IEnMin= 6 EnMin= -196.543586036588     IErMin= 6 ErrMin= 1.64D-08
 ErrMax= 1.64D-08 EMaxC= 1.00D-01 BMatC= 4.64D-14 BMatP= 6.34D-12
 IDIUse=1 WtCom= 1.00D+00 WtEn= 0.00D+00
 Coeff-Com: -0.342D-03 0.133D-02 0.452D-02 0.255D-01 0.106D+00 0.863D+00
 Coeff:     -0.342D-03 0.133D-02 0.452D-02 0.255D-01 0.106D+00 0.863D+00
 Gap=     0.264 Goal=   None    Shift=    0.000
 RMSDP=3.92D-09 MaxDP=4.05D-08 DE=-7.16D-12 OVMax= 6.44D-08

 SCF Done:  E(RB3LYP) =  -196.543586037     A.U. after   13 cycles
             Convg  =    0.3916D-08             -V/T =  2.0104
 KE= 1.945163189527D+02 PE=-8.015518132109D+02 EE= 2.365804771734D+02
 Leave Link  502 at Sat Aug 22 15:17:04 2015, MaxMem= 3758096384 cpu:      25.7
 (Enter /share/apps/g09/l601.exe)
 Copying SCF densities to generalized density rwf, IOpCl= 0 IROHF=0.

 **********************************************************************

            Population analysis using the SCF density.

 **********************************************************************

 Orbital symmetries:
       Occupied  (A) (A) (A) (A) (A) (A) (A) (A) (A) (A) (A) (A)
                 (A) (A) (A) (A) (A) (A) (A) (A)
       Virtual   (A) (A) (A) (A) (A) (A) (A) (A) (A) (A) (A) (A)
                 (A) (A) (A) (A) (A) (A) (A) (A) (A) (A) (A) (A)
                 (A) (A) (A) (A) (A) (A) (A) (A) (A) (A) (A) (A)
                 (A) (A) (A) (A) (A) (A) (A) (A) (A) (A) (A) (A)
                 (A) (A) (A) (A) (A) (A) (A) (A) (A) (A) (A) (A)
                 (A) (A) (A) (A) (A) (A) (A) (A) (A) (A) (A) (A)
                 (A) (A) (A)
 The electronic state is 1-A.
 Alpha  occ. eigenvalues --  -10.18389 -10.17520 -10.17518 -10.17385 -10.17252
 Alpha  occ. eigenvalues --   -0.80305  -0.72719  -0.68543  -0.63066  -0.50732
 Alpha  occ. eigenvalues --   -0.45542  -0.42806  -0.42633  -0.39873  -0.37881
 Alpha  occ. eigenvalues --   -0.37730  -0.36379  -0.35096  -0.32309  -0.22565
 Alpha virt. eigenvalues --    0.03800   0.09831   0.12284   0.13146   0.15262
 Alpha virt. eigenvalues --    0.16615   0.17037   0.18173   0.19860   0.20362
 Alpha virt. eigenvalues --    0.22987   0.24200   0.25413   0.33398   0.45324
 Alpha virt. eigenvalues --    0.49614   0.52290   0.52986   0.55778   0.56737
 Alpha virt. eigenvalues --    0.59985   0.63529   0.65919   0.69897   0.71518
 Alpha virt. eigenvalues --    0.74742   0.75576   0.77748   0.81222   0.83654
 Alpha virt. eigenvalues --    0.85476   0.89264   0.89905   0.90967   0.91792
 Alpha virt. eigenvalues --    0.92894   0.95415   0.96367   0.97546   1.01076
 Alpha virt. eigenvalues --    1.17687   1.20375   1.24498   1.35856   1.44078
 Alpha virt. eigenvalues --    1.44417   1.53788   1.56662   1.76641   1.82509
 Alpha virt. eigenvalues --    1.85043   1.86866   1.89480   1.96384   2.00844
 Alpha virt. eigenvalues --    2.06070   2.09937   2.10080   2.22894   2.25705
 Alpha virt. eigenvalues --    2.28705   2.29931   2.36270   2.43156   2.47677
 Alpha virt. eigenvalues --    2.51058   2.51716   2.66454   2.88820   3.03555
 Alpha virt. eigenvalues --    4.10012   4.19394   4.28752   4.33335   4.54288
          Condensed to atoms (all electrons):
              1          2          3          4          5          6
     1  C    4.894189   0.732957  -0.046707  -0.006361   0.351614  -0.000138
     2  C    0.732957   4.572609   0.378877  -0.023933  -0.031037  -0.032192
     3  C   -0.046707   0.378877   5.188231   0.360233   0.008065   0.364065
     4  H   -0.006361  -0.023933   0.360233   0.559273  -0.000040  -0.028360
     5  H    0.351614  -0.031037   0.008065  -0.000040   0.632131  -0.000187
     6  H   -0.000138  -0.032192   0.364065  -0.028360  -0.000187   0.582064
     7  C   -0.028666   0.368205  -0.089595   0.005242  -0.018504  -0.002128
     8  H   -0.001327  -0.032716  -0.000992  -0.000045   0.000293   0.004899
     9  H   -0.001319  -0.032737  -0.000973  -0.000046   0.000294  -0.000922
    10  H   -0.005289  -0.028492   0.005257  -0.000186   0.009038  -0.000035
    11  H   -0.000195  -0.032181   0.364089  -0.028351  -0.000187  -0.037933
    12  C    0.359326  -0.025357  -0.022168   0.002840  -0.065473   0.000489
    13  H   -0.030734  -0.001041   0.000450  -0.000188  -0.000774  -0.000029
    14  H   -0.032877  -0.005856   0.003024   0.007815   0.004869  -0.000196
    15  H   -0.030514  -0.000827   0.000439  -0.000181  -0.000984   0.000053
              7          8          9         10         11         12
     1  C   -0.028666  -0.001327  -0.001319  -0.005289  -0.000195   0.359326
     2  C    0.368205  -0.032716  -0.032737  -0.028492  -0.032181  -0.025357
     3  C   -0.089595  -0.000992  -0.000973   0.005257   0.364089  -0.022168
     4  H    0.005242  -0.000045  -0.000046  -0.000186  -0.028351   0.002840
     5  H   -0.018504   0.000293   0.000294   0.009038  -0.000187  -0.065473
     6  H   -0.002128   0.004899  -0.000922  -0.000035  -0.037933   0.000489
     7  C    5.177848   0.362520   0.362511   0.362725  -0.002087   0.007499
     8  H    0.362520   0.588474  -0.039706  -0.027859  -0.000917  -0.000177
     9  H    0.362511  -0.039706   0.588524  -0.027865   0.004871  -0.000178
    10  H    0.362725  -0.027859  -0.027865   0.563162  -0.000035   0.000001
    11  H   -0.002087  -0.000917   0.004871  -0.000035   0.581958   0.000498
    12  C    0.007499  -0.000177  -0.000178   0.000001   0.000498   5.124426
    13  H   -0.000160  -0.000005   0.000022  -0.000008   0.000058   0.368217
    14  H    0.000016   0.000001   0.000000   0.000014  -0.000215   0.368792
    15  H   -0.000160   0.000021  -0.000005  -0.000009  -0.000028   0.368163
             13         14         15
     1  C   -0.030734  -0.032877  -0.030514
     2  C   -0.001041  -0.005856  -0.000827
     3  C    0.000450   0.003024   0.000439
     4  H   -0.000188   0.007815  -0.000181
     5  H   -0.000774   0.004869  -0.000984
     6  H   -0.000029  -0.000196   0.000053
     7  C   -0.000160   0.000016  -0.000160
     8  H   -0.000005   0.000001   0.000021
     9  H    0.000022   0.000000  -0.000005
    10  H   -0.000008   0.000014  -0.000009
    11  H    0.000058  -0.000215  -0.000028
    12  C    0.368217   0.368792   0.368163
    13  H    0.577347  -0.028918  -0.036911
    14  H   -0.028918   0.561748  -0.028827
    15  H   -0.036911  -0.028827   0.577372
 Mulliken atomic charges:
              1
     1  C   -0.153958
     2  C    0.193721
     3  C   -0.512295
     4  H    0.152287
     5  H    0.110880
     6  H    0.150547
     7  C   -0.505266
     8  H    0.147535
     9  H    0.147530
    10  H    0.149580
    11  H    0.150655
    12  C   -0.486897
    13  H    0.152676
    14  H    0.150608
    15  H    0.152398
 Sum of Mulliken atomic charges =   0.00000
 Mulliken charges with hydrogens summed into heavy atoms:
              1
     1  C   -0.043078
     2  C    0.193721
     3  C   -0.058806
     7  C   -0.060621
    12  C   -0.031216
 Sum of Mulliken charges with hydrogens summed into heavy atoms =   0.00000
 Electronic spatial extent (au):  <R**2>=            541.3181
 Charge=              0.0000 electrons
 Dipole moment (field-independent basis, Debye):
    X=              0.0637    Y=              0.1652    Z=              0.0024  Tot=              0.1771
 Quadrupole moment (field-independent basis, Debye-Ang):
   XX=            -31.8734   YY=            -32.2752   ZZ=            -33.9591
   XY=              0.2845   XZ=             -0.0016   YZ=             -0.0006
 Traceless Quadrupole moment (field-independent basis, Debye-Ang):
   XX=              0.8292   YY=              0.4273   ZZ=             -1.2565
   XY=              0.2845   XZ=             -0.0016   YZ=             -0.0006
 Octapole moment (field-independent basis, Debye-Ang**2):
  XXX=             -0.9854  YYY=             -1.4834  ZZZ=              0.0299  XYY=             -0.8497
  XXY=              0.1156  XXZ=             -0.0023  XZZ=              0.7554  YZZ=              0.8517
  YYZ=             -0.0160  XYZ=             -0.0048
 Hexadecapole moment (field-independent basis, Debye-Ang**3):
 XXXX=           -469.8366 YYYY=           -220.4833 ZZZZ=            -55.3073 XXXY=              3.9205
 XXXZ=              0.0104 YYYX=             -2.0820 YYYZ=             -0.0070 ZZZX=             -0.0547
 ZZZY=              0.0071 XXYY=           -114.9245 XXZZ=            -82.1978 YYZZ=            -47.0929
 XXYZ=              0.0298 YYXZ=              0.0473 ZZXY=              2.1401
 N-N= 1.739114310482D+02 E-N=-8.015518128614D+02  KE= 1.945163189527D+02
 No NMR shielding tensors so no spin-rotation constants.
 Leave Link  601 at Sat Aug 22 15:17:04 2015, MaxMem= 3758096384 cpu:       1.7
 (Enter /share/apps/g09/l701.exe)
 Compute integral first derivatives.
 ... and contract with generalized density number  0.
 Leave Link  701 at Sat Aug 22 15:17:04 2015, MaxMem= 3758096384 cpu:       1.8
 (Enter /share/apps/g09/l702.exe)
 L702 exits ... SP integral derivatives will be done elsewhere.
 Leave Link  702 at Sat Aug 22 15:17:04 2015, MaxMem= 3758096384 cpu:       0.2
 (Enter /share/apps/g09/l703.exe)
 Compute integral first derivatives, UseDBF=F ICtDFT=           0.
 Integral derivatives from FoFDir, PRISM(SPDF).
 Calling FoFJK, ICntrl=      2127 FMM=F ISym2X=0 I1Cent= 0 IOpClX= 0 NMat=1 NMatS=1 NMatT=0.
 FoFCou: FMM=F IPFlag=           0 FMFlag=      100000 FMFlg1=         800
         NFxFlg=           0 DoJE=F BraDBF=F KetDBF=F FulRan=T
         Omega=  0.000000  0.000000  1.000000  0.000000  0.000000 ICntrl=    2127 IOpCl=  0
         NMat0=    1 NMatS0=    1 NMatT0=    0 NMatD0=    1 NMtDS0=    0 NMtDT0=    0
         I1Cent=           0 NGrid=           0.
 Symmetry not used in FoFCou.
 Leave Link  703 at Sat Aug 22 15:17:05 2015, MaxMem= 3758096384 cpu:       7.7
 (Enter /share/apps/g09/l716.exe)
 Dipole        = 2.50563374D-02 6.49987317D-02 9.42245100D-04
 ***** Axes restored to original set *****
 -------------------------------------------------------------------
 Center     Atomic                   Forces (Hartrees/Bohr)
 Number     Number              X              Y              Z
 -------------------------------------------------------------------
      1        6           0.000011480   -0.000031081    0.000021326
      2        6           0.000033051    0.000103971   -0.000023514
      3        6           0.000042256   -0.000022811   -0.000018927
      4        1          -0.000008925   -0.000039463   -0.000001940
      5        1           0.000028557   -0.000002542    0.000001722
      6        1          -0.000013172    0.000004693   -0.000008374
      7        6          -0.000067422   -0.000022344    0.000013106
      8        1           0.000022096   -0.000011574   -0.000016213
      9        1           0.000019739   -0.000009283    0.000006362
     10        1          -0.000033214    0.000003424    0.000003278
     11        1          -0.000009940    0.000011413    0.000018063
     12        6          -0.000018350    0.000079401    0.000004013
     13        1          -0.000024192   -0.000034493   -0.000029449
     14        1           0.000015220   -0.000015236    0.000019932
     15        1           0.000002817   -0.000014075    0.000010616
 -------------------------------------------------------------------
 Cartesian Forces:  Max     0.000103971 RMS     0.000029129
 Leave Link  716 at Sat Aug 22 15:17:05 2015, MaxMem= 3758096384 cpu:       0.3
 (Enter /share/apps/g09/l103.exe)

 GradGradGradGradGradGradGradGradGradGradGradGradGradGradGradGradGradGrad
 Berny optimization.
 Internal  Forces:  Max     0.000140649 RMS     0.000032661
 Search for a local minimum.
 Step number   1 out of a maximum of   70
 All quantities printed in internal units (Hartrees-Bohrs-Radians)
 RMS Force = .32661D-04 SwitMx=.10000D-02 MixMth= 2
 Mixed Optimization -- En-DIIS/RFO-DIIS
 Second derivative matrix not updated -- first step.
     Eigenvalues ---    0.00622   0.00642   0.00726   0.01259   0.01602
     Eigenvalues ---    0.02860   0.06830   0.06896   0.06971   0.07163
     Eigenvalues ---    0.07255   0.07263   0.16000   0.16000   0.16000
     Eigenvalues ---    0.16000   0.16000   0.16000   0.16000   0.16000
     Eigenvalues ---    0.16000   0.16000   0.22000   0.25000   0.25000
     Eigenvalues ---    0.31259   0.31411   0.32059   0.33747   0.33749
     Eigenvalues ---    0.33780   0.33780   0.33802   0.33815   0.34276
     Eigenvalues ---    0.34430   0.34534   0.34646   0.568211000.00000
     Eigenvalues --- 1000.000001000.000001000.000001000.000001000.00000
     Eigenvalues --- 1000.000001000.000001000.000001000.000001000.00000
     Eigenvalues --- 1000.000001000.000001000.000001000.000001000.00000
     Eigenvalues --- 1000.000001000.000001000.000001000.000001000.00000
 RFO step:  Lambda=-6.40628832D-07 EMin= 6.21564126D-03
 Linear search not attempted -- first point.
 Iteration  1 RMS(Cart)=  0.00131915 RMS(Int)=  0.00000147
 Iteration  2 RMS(Cart)=  0.00000152 RMS(Int)=  0.00000002
 Iteration  3 RMS(Cart)=  0.00000000 RMS(Int)=  0.00000002
 Variable       Old X    -DE/DX   Delta X   Delta X   Delta X     New X
                                 (Linear)    (Quad)   (Total)
    R1        2.53549   0.00000   0.00000   0.00000   0.00000   2.53548
    R2        2.06253   0.00001   0.00000   0.00001   0.00001   2.06255
    R3        2.84037   0.00003   0.00000   0.00008   0.00008   2.84044
    R4        2.85235  -0.00004   0.00000  -0.00014  -0.00014   2.85221
    R5        2.85522  -0.00003   0.00000  -0.00011  -0.00011   2.85510
    R6        2.06438  -0.00001   0.00000  -0.00002  -0.00002   2.06435
    R7        2.07704   0.00000   0.00000   0.00001   0.00001   2.07704
    R8        2.07703   0.00001   0.00000   0.00003   0.00003   2.07707
    R9        2.07757   0.00002   0.00000   0.00006   0.00006   2.07763
   R10        2.07759   0.00002   0.00000   0.00005   0.00005   2.07764
   R11        2.06867   0.00000   0.00000  -0.00001  -0.00001   2.06867
   R12        2.07666   0.00000   0.00000   0.00001   0.00001   2.07667
   R13        2.06611  -0.00002   0.00000  -0.00005  -0.00005   2.06606
   R14        2.07643  -0.00001   0.00000  -0.00002  -0.00002   2.07641
    A1        2.04234  -0.00005   0.00000  -0.00027  -0.00027   2.04206
    A2        2.24553   0.00004   0.00000   0.00016   0.00016   2.24569
    A3        1.99532   0.00001   0.00000   0.00011   0.00011   1.99543
    A4        2.18035   0.00002   0.00000   0.00008   0.00008   2.18043
    A5        2.10706  -0.00014   0.00000  -0.00056  -0.00056   2.10649
    A6        1.99578   0.00012   0.00000   0.00048   0.00048   1.99626
    A7        1.97947  -0.00007   0.00000  -0.00054  -0.00054   1.97893
    A8        1.93156   0.00002   0.00000   0.00016   0.00016   1.93172
    A9        1.93122   0.00003   0.00000   0.00023   0.00023   1.93145
   A10        1.88071   0.00001   0.00000   0.00000   0.00000   1.88071
   A11        1.88045   0.00001   0.00000  -0.00004  -0.00004   1.88042
   A12        1.85516   0.00001   0.00000   0.00023   0.00023   1.85540
   A13        1.94011   0.00004   0.00000   0.00025   0.00025   1.94036
   A14        1.94023   0.00003   0.00000   0.00021   0.00021   1.94044
   A15        1.95396  -0.00006   0.00000  -0.00043  -0.00043   1.95352
   A16        1.85578  -0.00001   0.00000   0.00002   0.00002   1.85580
   A17        1.88490   0.00000   0.00000  -0.00003  -0.00003   1.88488
   A18        1.88487   0.00001   0.00000  -0.00001  -0.00001   1.88486
   A19        1.93476   0.00001   0.00000   0.00002   0.00002   1.93478
   A20        1.97684  -0.00001   0.00000   0.00004   0.00004   1.97688
   A21        1.93429  -0.00001   0.00000  -0.00012  -0.00012   1.93417
   A22        1.87771   0.00001   0.00000   0.00016   0.00016   1.87788
   A23        1.85717  -0.00003   0.00000  -0.00032  -0.00032   1.85685
   A24        1.87781   0.00002   0.00000   0.00021   0.00021   1.87803
    D1       -3.14053  -0.00002   0.00000  -0.00073  -0.00073  -3.14126
    D2        0.00083  -0.00002   0.00000  -0.00073  -0.00073   0.00010
    D3       -0.00017  -0.00001   0.00000  -0.00020  -0.00020  -0.00037
    D4        3.14120  -0.00001   0.00000  -0.00020  -0.00020   3.14099
    D5       -2.09726  -0.00004   0.00000  -0.00301  -0.00301  -2.10027
    D6        0.01535  -0.00002   0.00000  -0.00275  -0.00275   0.01260
    D7        2.12775  -0.00001   0.00000  -0.00254  -0.00254   2.12521
    D8        1.04313  -0.00003   0.00000  -0.00249  -0.00249   1.04064
    D9       -3.12744  -0.00001   0.00000  -0.00224  -0.00224  -3.12968
   D10       -1.01505   0.00000   0.00000  -0.00202  -0.00202  -1.01707
   D11       -0.00189   0.00000   0.00000   0.00001   0.00001  -0.00188
   D12       -2.11790   0.00002   0.00000   0.00028   0.00028  -2.11762
   D13        2.11353  -0.00002   0.00000  -0.00025  -0.00025   2.11328
   D14        3.13992   0.00000   0.00000   0.00001   0.00001   3.13993
   D15        1.02391   0.00002   0.00000   0.00028   0.00028   1.02419
   D16       -1.02784  -0.00002   0.00000  -0.00025  -0.00025  -1.02809
   D17        2.11032  -0.00001   0.00000  -0.00051  -0.00051   2.10981
   D18       -2.10920   0.00001   0.00000  -0.00018  -0.00018  -2.10938
   D19        0.00058   0.00000   0.00000  -0.00035  -0.00035   0.00023
   D20       -1.03148  -0.00001   0.00000  -0.00051  -0.00051  -1.03199
   D21        1.03219   0.00001   0.00000  -0.00018  -0.00018   1.03200
   D22       -3.14122   0.00000   0.00000  -0.00035  -0.00035  -3.14157
         Item               Value     Threshold  Converged?
 Maximum Force            0.000141     0.000450     YES
 RMS     Force            0.000033     0.000300     YES
 Maximum Displacement     0.005498     0.001800     NO 
 RMS     Displacement     0.001319     0.001200     NO 
 Predicted change in Energy=-3.203216D-07
 GradGradGradGradGradGradGradGradGradGradGradGradGradGradGradGradGradGrad

 Leave Link  103 at Sat Aug 22 15:17:05 2015, MaxMem= 3758096384 cpu:       0.1
 (Enter /share/apps/g09/l202.exe)
                          Input orientation:                          
 ---------------------------------------------------------------------
 Center     Atomic      Atomic             Coordinates (Angstroms)
 Number     Number       Type             X           Y           Z
 ---------------------------------------------------------------------
      1          6           0       -0.701956   -0.697489   -0.061321
      2          6           0        0.443583    0.000256   -0.028073
      3          6           0        0.539524    1.496084    0.148984
      4          1           0       -0.432658    1.983988    0.249813
      5          1           0       -0.620573   -1.777590   -0.195595
      6          1           0        1.058234    1.955451   -0.704242
      7          6           0        1.775970   -0.697380   -0.172074
      8          1           0        2.334188   -0.312655   -1.037598
      9          1           0        2.412096   -0.524303    0.707785
     10          1           0        1.659818   -1.778585   -0.297985
     11          1           0        1.132671    1.743883    1.040540
     12          6           0       -2.112540   -0.193515    0.063444
     13          1           0       -2.617764   -0.653827    0.923966
     14          1           0       -2.174402    0.891221    0.185330
     15          1           0       -2.703218   -0.462499   -0.823169
 ---------------------------------------------------------------------
                    Distance matrix (angstroms):
                    1          2          3          4          5
     1  C    0.000000
     2  C    1.341721   0.000000
     3  C    2.529282   1.509323   0.000000
     4  H    2.712867   2.186370   1.092408   0.000000
     5  H    1.091453   2.078756   3.490200   3.792515   0.000000
     6  H    3.248031   2.158190   1.099123   1.770252   4.124646
     7  C    2.480399   1.510856   2.538339   3.499395   2.628844
     8  H    3.212379   2.165973   2.810753   3.819350   3.403764
     9  H    3.212294   2.166031   2.810827   3.820195   3.403513
    10  H    2.608209   2.171717   3.489742   4.339988   2.282688
    11  H    3.246576   2.158011   1.099136   1.770072   4.123428
    12  C    1.503099   2.565091   3.145713   2.756494   2.191429
    13  H    2.154766   3.272010   3.897587   3.491023   2.550497
    14  H    2.180123   2.773663   2.780751   2.057176   3.111598
    15  H    2.154224   3.278517   3.911075   3.505999   2.541796
                    6          7          8          9         10
     6  H    0.000000
     7  C    2.799260   0.000000
     8  H    2.623640   1.099433   0.000000
     9  H    3.158471   1.099438   1.759893   0.000000
    10  H    3.803941   1.094691   1.775035   1.775026   0.000000
    11  H    1.759138   2.800720   3.160957   2.625323   3.804906
    12  C    3.906559   3.928086   4.582562   4.582240   4.107769
    13  H    4.792948   4.528586   5.337224   5.036169   4.588676
    14  H    3.517650   4.272801   4.824133   4.828316   4.697095
    15  H    4.473158   4.532352   5.044194   5.339857   4.587372
                   11         12         13         14         15
    11  H    0.000000
    12  C    3.903796   0.000000
    13  H    4.452905   1.098926   0.000000
    14  H    3.520675   1.093314   1.768990   0.000000
    15  H    4.801622   1.098788   1.759656   1.768975   0.000000
 Stoichiometry    C5H10
 Framework group  C1[X(C5H10)]
 Deg. of freedom    39
 Full point group                 C1      NOp   1
 Largest Abelian subgroup         C1      NOp   1
 Largest concise Abelian subgroup C1      NOp   1
                         Standard orientation:                         
 ---------------------------------------------------------------------
 Center     Atomic      Atomic             Coordinates (Angstroms)
 Number     Number       Type             X           Y           Z
 ---------------------------------------------------------------------
      1          6           0       -0.734422   -0.671588   -0.000314
      2          6           0        0.449580   -0.040436   -0.000187
      3          6           0        0.630089    1.458054   -0.000048
      4          1           0       -0.313540    2.008432   -0.001948
      5          1           0       -0.714250   -1.762854   -0.000080
      6          1           0        1.207422    1.779536   -0.878347
      7          6           0        1.741282   -0.824140    0.000130
      8          1           0        2.353918   -0.580344   -0.879637
      9          1           0        2.353479   -0.580508    0.880256
     10          1           0        1.564046   -1.904388   -0.000002
     11          1           0        1.203548    1.779572    0.880787
     12          6           0       -2.115239   -0.077746    0.000080
     13          1           0       -2.679451   -0.400027    0.886329
     14          1           0       -2.115194    1.015500   -0.012127
     15          1           0       -2.687715   -0.419788   -0.873197
 ---------------------------------------------------------------------
 Rotational constants (GHZ):      8.0065725      3.4944448      2.5474890
 Leave Link  202 at Sat Aug 22 15:17:05 2015, MaxMem= 3758096384 cpu:       0.1
 (Enter /share/apps/g09/l301.exe)
 Standard basis: 6-31G(d) (6D, 7F)
 Ernie: Thresh=  0.10000D-02 Tol=  0.10000D-05 Strict=F.
 There are    95 symmetry adapted basis functions of A   symmetry.
 Integral buffers will be    131072 words long.
 Raffenetti 2 integral format.
 Two-electron integral symmetry is turned on.
    95 basis functions,   180 primitive gaussians,    95 cartesian basis functions
    20 alpha electrons       20 beta electrons
       nuclear repulsion energy       173.9124440009 Hartrees.
 IExCor=  402 DFT=T Ex+Corr=B3LYP ExCW=0 ScaHFX=  0.200000
 ScaDFX=  0.800000  0.720000  1.000000  0.810000 ScalE2=  1.000000  1.000000
 IRadAn=      0 IRanWt=     -1 IRanGd=            0 ICorTp=0
 NAtoms=   15 NActive=   15 NUniq=   15 SFac= 7.50D-01 NAtFMM=   80 NAOKFM=F Big=F
 Leave Link  301 at Sat Aug 22 15:17:05 2015, MaxMem= 3758096384 cpu:       0.6
 (Enter /share/apps/g09/l302.exe)
 NPDir=0 NMtPBC=     1 NCelOv=     1 NCel=       1 NClECP=     1 NCelD=      1
         NCelK=      1 NCelE2=     1 NClLst=     1 CellRange=     0.0.
 One-electron integrals computed using PRISM.
 NBasis=    95 RedAO= T  NBF=    95
 NBsUse=    95 1.00D-06 NBFU=    95
 Precomputing XC quadrature grid using
 IXCGrd= 2 IRadAn=           0 IRanWt=          -1 IRanGd=           0 AccXCQ= 1.00D-10.
 NRdTot=     933 NPtTot=      117822 NUsed=      124561 NTot=      124593
 NSgBfM=    95    95    95    95    95 NAtAll=    15    15.
 Leave Link  302 at Sat Aug 22 15:17:06 2015, MaxMem= 3758096384 cpu:       2.0
 (Enter /share/apps/g09/l303.exe)
 DipDrv:  MaxL=1.
 Leave Link  303 at Sat Aug 22 15:17:06 2015, MaxMem= 3758096384 cpu:       0.3
 (Enter /share/apps/g09/l401.exe)
 Initial guess read from the read-write file.
 B after Tr=     0.000000    0.000000    0.000000
         Rot=    1.000000    0.000000    0.000000    0.000000 Ang=   0.00 deg.
 Guess basis will be translated and rotated to current coordinates.
 Initial guess orbital symmetries:
       Occupied  (A) (A) (A) (A) (A) (A) (A) (A) (A) (A) (A) (A)
                 (A) (A) (A) (A) (A) (A) (A) (A)
       Virtual   (A) (A) (A) (A) (A) (A) (A) (A) (A) (A) (A) (A)
                 (A) (A) (A) (A) (A) (A) (A) (A) (A) (A) (A) (A)
                 (A) (A) (A) (A) (A) (A) (A) (A) (A) (A) (A) (A)
                 (A) (A) (A) (A) (A) (A) (A) (A) (A) (A) (A) (A)
                 (A) (A) (A) (A) (A) (A) (A) (A) (A) (A) (A) (A)
                 (A) (A) (A) (A) (A) (A) (A) (A) (A) (A) (A) (A)
                 (A) (A) (A)
 The electronic state of the initial guess is 1-A.
 Leave Link  401 at Sat Aug 22 15:17:06 2015, MaxMem= 3758096384 cpu:       1.0
 (Enter /share/apps/g09/l502.exe)
 Closed shell SCF:
 Requested convergence on RMS density matrix=1.00D-08 within 128 cycles.
 Requested convergence on MAX density matrix=1.00D-06.
 Requested convergence on             energy=1.00D-06.
 No special actions if energy rises.
 Using DIIS extrapolation, IDIIS=  1040.
 Integral symmetry usage will be decided dynamically.
       124413 words used for storage of precomputed grid.
 Keep R1 ints in memory in canonical form, NReq=11484605.
 IEnd=      171509 IEndB=      171509 NGot=  3758096384 MDV=  3747551528
 LenX=  3747551528 LenY=  3747542062
 Symmetry not used in FoFDir.
 MinBra= 0 MaxBra= 2 Meth= 1.
 IRaf=       0 NMat=   1 IRICut=       1 DoRegI=T DoRafI=F ISym2E= 0 JSym2E=0.

 Cycle   1  Pass 1  IDiag  1:
 E= -196.543584520474    
 DIIS: error= 1.58D-04 at cycle   1 NSaved=   1.
 NSaved= 1 IEnMin= 1 EnMin= -196.543584520474     IErMin= 1 ErrMin= 1.58D-04
 ErrMax= 1.58D-04 EMaxC= 1.00D-01 BMatC= 9.13D-07 BMatP= 9.13D-07
 IDIUse=3 WtCom= 9.98D-01 WtEn= 1.58D-03
 Coeff-Com:  0.100D+01
 Coeff-En:   0.100D+01
 Coeff:      0.100D+01
 Gap=     0.264 Goal=   None    Shift=    0.000
 RMSDP=1.43D-05 MaxDP=3.23D-04              OVMax= 5.93D-04

 Cycle   2  Pass 1  IDiag  1:
 E= -196.543586474445     Delta-E=       -0.000001953971 Rises=F Damp=F
 DIIS: error= 1.58D-05 at cycle   2 NSaved=   2.
 NSaved= 2 IEnMin= 2 EnMin= -196.543586474445     IErMin= 2 ErrMin= 1.58D-05
 ErrMax= 1.58D-05 EMaxC= 1.00D-01 BMatC= 9.99D-09 BMatP= 9.13D-07
 IDIUse=1 WtCom= 1.00D+00 WtEn= 0.00D+00
 Coeff-Com: -0.889D-01 0.109D+01
 Coeff:     -0.889D-01 0.109D+01
 Gap=     0.264 Goal=   None    Shift=    0.000
 RMSDP=2.47D-06 MaxDP=4.70D-05 DE=-1.95D-06 OVMax= 7.31D-05

 Cycle   3  Pass 1  IDiag  1:
 E= -196.543586495045     Delta-E=       -0.000000020600 Rises=F Damp=F
 DIIS: error= 4.69D-06 at cycle   3 NSaved=   3.
 NSaved= 3 IEnMin= 3 EnMin= -196.543586495045     IErMin= 3 ErrMin= 4.69D-06
 ErrMax= 4.69D-06 EMaxC= 1.00D-01 BMatC= 2.71D-09 BMatP= 9.99D-09
 IDIUse=1 WtCom= 1.00D+00 WtEn= 0.00D+00
 Coeff-Com: -0.436D-01 0.487D+00 0.557D+00
 Coeff:     -0.436D-01 0.487D+00 0.557D+00
 Gap=     0.264 Goal=   None    Shift=    0.000
 RMSDP=6.77D-07 MaxDP=1.66D-05 DE=-2.06D-08 OVMax= 3.24D-05

 Cycle   4  Pass 1  IDiag  1:
 E= -196.543586497087     Delta-E=       -0.000000002042 Rises=F Damp=F
 DIIS: error= 2.67D-06 at cycle   4 NSaved=   4.
 NSaved= 4 IEnMin= 4 EnMin= -196.543586497087     IErMin= 4 ErrMin= 2.67D-06
 ErrMax= 2.67D-06 EMaxC= 1.00D-01 BMatC= 5.99D-10 BMatP= 2.71D-09
 IDIUse=1 WtCom= 1.00D+00 WtEn= 0.00D+00
 Coeff-Com: -0.153D-01 0.157D+00 0.337D+00 0.522D+00
 Coeff:     -0.153D-01 0.157D+00 0.337D+00 0.522D+00
 Gap=     0.264 Goal=   None    Shift=    0.000
 RMSDP=3.06D-07 MaxDP=7.49D-06 DE=-2.04D-09 OVMax= 1.64D-05

 Cycle   5  Pass 1  IDiag  1:
 E= -196.543586497666     Delta-E=       -0.000000000579 Rises=F Damp=F
 DIIS: error= 7.61D-07 at cycle   5 NSaved=   5.
 NSaved= 5 IEnMin= 5 EnMin= -196.543586497666     IErMin= 5 ErrMin= 7.61D-07
 ErrMax= 7.61D-07 EMaxC= 1.00D-01 BMatC= 4.17D-11 BMatP= 5.99D-10
 IDIUse=1 WtCom= 1.00D+00 WtEn= 0.00D+00
 Coeff-Com: -0.238D-02 0.201D-01 0.100D+00 0.266D+00 0.616D+00
 Coeff:     -0.238D-02 0.201D-01 0.100D+00 0.266D+00 0.616D+00
 Gap=     0.264 Goal=   None    Shift=    0.000
 RMSDP=8.37D-08 MaxDP=1.51D-06 DE=-5.79D-10 OVMax= 3.46D-06

 Cycle   6  Pass 1  IDiag  1:
 E= -196.543586497709     Delta-E=       -0.000000000042 Rises=F Damp=F
 DIIS: error= 2.17D-07 at cycle   6 NSaved=   6.
 NSaved= 6 IEnMin= 6 EnMin= -196.543586497709     IErMin= 6 ErrMin= 2.17D-07
 ErrMax= 2.17D-07 EMaxC= 1.00D-01 BMatC= 4.06D-12 BMatP= 4.17D-11
 IDIUse=1 WtCom= 1.00D+00 WtEn= 0.00D+00
 Coeff-Com:  0.489D-03-0.729D-02 0.134D-01 0.779D-01 0.311D+00 0.604D+00
 Coeff:      0.489D-03-0.729D-02 0.134D-01 0.779D-01 0.311D+00 0.604D+00
 Gap=     0.264 Goal=   None    Shift=    0.000
 RMSDP=2.26D-08 MaxDP=3.97D-07 DE=-4.25D-11 OVMax= 4.33D-07

 Cycle   7  Pass 1  IDiag  1:
 E= -196.543586497713     Delta-E=       -0.000000000004 Rises=F Damp=F
 DIIS: error= 9.21D-09 at cycle   7 NSaved=   7.
 NSaved= 7 IEnMin= 7 EnMin= -196.543586497713     IErMin= 7 ErrMin= 9.21D-09
 ErrMax= 9.21D-09 EMaxC= 1.00D-01 BMatC= 1.49D-14 BMatP= 4.06D-12
 IDIUse=1 WtCom= 1.00D+00 WtEn= 0.00D+00
 Coeff-Com:  0.148D-03-0.196D-02 0.834D-03 0.106D-01 0.568D-01 0.131D+00
 Coeff-Com:  0.802D+00
 Coeff:      0.148D-03-0.196D-02 0.834D-03 0.106D-01 0.568D-01 0.131D+00
 Coeff:      0.802D+00
 Gap=     0.264 Goal=   None    Shift=    0.000
 RMSDP=2.39D-09 MaxDP=2.93D-08 DE=-4.15D-12 OVMax= 4.09D-08

 SCF Done:  E(RB3LYP) =  -196.543586498     A.U. after    7 cycles
             Convg  =    0.2390D-08             -V/T =  2.0104
 KE= 1.945164694243D+02 PE=-8.015539725521D+02 EE= 2.365814726291D+02
 Leave Link  502 at Sat Aug 22 15:17:07 2015, MaxMem= 3758096384 cpu:      20.1
 (Enter /share/apps/g09/l701.exe)
 Compute integral first derivatives.
 ... and contract with generalized density number  0.
 Leave Link  701 at Sat Aug 22 15:17:08 2015, MaxMem= 3758096384 cpu:       1.8
 (Enter /share/apps/g09/l702.exe)
 L702 exits ... SP integral derivatives will be done elsewhere.
 Leave Link  702 at Sat Aug 22 15:17:08 2015, MaxMem= 3758096384 cpu:       0.2
 (Enter /share/apps/g09/l703.exe)
 Compute integral first derivatives, UseDBF=F ICtDFT=           0.
 Integral derivatives from FoFDir, PRISM(SPDF).
 Calling FoFJK, ICntrl=      2127 FMM=F ISym2X=0 I1Cent= 0 IOpClX= 0 NMat=1 NMatS=1 NMatT=0.
 FoFCou: FMM=F IPFlag=           0 FMFlag=      100000 FMFlg1=         800
         NFxFlg=           0 DoJE=F BraDBF=F KetDBF=F FulRan=T
         Omega=  0.000000  0.000000  1.000000  0.000000  0.000000 ICntrl=    2127 IOpCl=  0
         NMat0=    1 NMatS0=    1 NMatT0=    0 NMatD0=    1 NMtDS0=    0 NMtDT0=    0
         I1Cent=           0 NGrid=           0.
 Symmetry not used in FoFCou.
 Leave Link  703 at Sat Aug 22 15:17:08 2015, MaxMem= 3758096384 cpu:       7.7
 (Enter /share/apps/g09/l716.exe)
 Dipole        = 2.47995050D-02 6.49668561D-02 7.30680931D-04
 ***** Axes restored to original set *****
 -------------------------------------------------------------------
 Center     Atomic                   Forces (Hartrees/Bohr)
 Number     Number              X              Y              Z
 -------------------------------------------------------------------
      1        6          -0.000028901   -0.000014169    0.000011908
      2        6           0.000038195    0.000056460   -0.000017614
      3        6           0.000001274   -0.000014963    0.000011321
      4        1          -0.000007274   -0.000000505   -0.000002305
      5        1          -0.000001890    0.000000814    0.000026504
      6        1          -0.000004306   -0.000005767    0.000001753
      7        6          -0.000011021   -0.000023013   -0.000009253
      8        1           0.000009373   -0.000005371    0.000000595
      9        1           0.000002892   -0.000001674   -0.000003425
     10        1          -0.000001711   -0.000001408    0.000000999
     11        1          -0.000000313    0.000003411   -0.000003844
     12        6           0.000002552    0.000014496   -0.000006072
     13        1           0.000002311   -0.000013670   -0.000014771
     14        1           0.000006025   -0.000004242    0.000016208
     15        1          -0.000007207    0.000009601   -0.000012003
 -------------------------------------------------------------------
 Cartesian Forces:  Max     0.000056460 RMS     0.000014519
 Leave Link  716 at Sat Aug 22 15:17:08 2015, MaxMem= 3758096384 cpu:       0.2
 (Enter /share/apps/g09/l103.exe)

 GradGradGradGradGradGradGradGradGradGradGradGradGradGradGradGradGradGrad
 Berny optimization.
 Using GEDIIS/GDIIS optimizer.
 Internal  Forces:  Max     0.000043735 RMS     0.000010739
 Search for a local minimum.
 Step number   2 out of a maximum of   70
 All quantities printed in internal units (Hartrees-Bohrs-Radians)
 RMS Force = .10739D-04 SwitMx=.10000D-02 MixMth= 2
 Mixed Optimization -- En-DIIS/RFO-DIIS
 Swaping is turned off.
 Update second derivatives using D2CorX and points    1    2
 DE= -4.61D-07 DEPred=-3.20D-07 R= 1.44D+00
 Trust test= 1.44D+00 RLast= 6.50D-03 DXMaxT set to 3.00D-01
     Eigenvalues ---    0.00343   0.00624   0.00642   0.01259   0.01613
     Eigenvalues ---    0.02995   0.06819   0.06889   0.06970   0.07177
     Eigenvalues ---    0.07259   0.07583   0.15700   0.16000   0.16000
     Eigenvalues ---    0.16000   0.16000   0.16000   0.16000   0.16000
     Eigenvalues ---    0.16000   0.17061   0.22044   0.23997   0.26160
     Eigenvalues ---    0.31310   0.31668   0.32411   0.33734   0.33749
     Eigenvalues ---    0.33778   0.33788   0.33805   0.34148   0.34277
     Eigenvalues ---    0.34424   0.34617   0.34841   0.571761000.00000
     Eigenvalues --- 1000.000001000.000001000.000001000.000001000.00000
     Eigenvalues --- 1000.000001000.000001000.000001000.000001000.00000
     Eigenvalues --- 1000.000001000.000001000.000001000.000001000.00000
     Eigenvalues --- 1000.000001000.000001000.000001000.000001000.00000
 En-DIIS/RFO-DIIS IScMMF=        0 using points:     2    1
 RFO step:  Lambda=-3.80399407D-08.
 DIIS coeffs:      1.73848     -0.73848
 Iteration  1 RMS(Cart)=  0.00199834 RMS(Int)=  0.00000383
 Iteration  2 RMS(Cart)=  0.00000398 RMS(Int)=  0.00000003
 Iteration  3 RMS(Cart)=  0.00000000 RMS(Int)=  0.00000003
 Variable       Old X    -DE/DX   Delta X   Delta X   Delta X     New X
                                  (DIIS)     (GDIIS)  (Total)
    R1        2.53548   0.00003   0.00000   0.00009   0.00009   2.53557
    R2        2.06255   0.00000   0.00001  -0.00002  -0.00001   2.06254
    R3        2.84044  -0.00001   0.00006  -0.00006   0.00000   2.84044
    R4        2.85221  -0.00002  -0.00011  -0.00005  -0.00015   2.85206
    R5        2.85510   0.00001  -0.00008   0.00011   0.00003   2.85514
    R6        2.06435   0.00001  -0.00002   0.00004   0.00003   2.06438
    R7        2.07704  -0.00001   0.00000  -0.00003  -0.00003   2.07701
    R8        2.07707   0.00000   0.00002  -0.00003   0.00000   2.07706
    R9        2.07763   0.00000   0.00005   0.00000   0.00004   2.07767
   R10        2.07764   0.00000   0.00003  -0.00002   0.00002   2.07765
   R11        2.06867   0.00000   0.00000   0.00000   0.00000   2.06866
   R12        2.07667  -0.00001   0.00001  -0.00004  -0.00003   2.07664
   R13        2.06606   0.00000  -0.00003  -0.00001  -0.00004   2.06602
   R14        2.07641   0.00001  -0.00001   0.00007   0.00005   2.07646
    A1        2.04206   0.00000  -0.00020   0.00007  -0.00013   2.04193
    A2        2.24569   0.00001   0.00012   0.00000   0.00012   2.24581
    A3        1.99543   0.00000   0.00008  -0.00007   0.00001   1.99545
    A4        2.18043  -0.00002   0.00006  -0.00015  -0.00010   2.18033
    A5        2.10649  -0.00003  -0.00042  -0.00001  -0.00042   2.10607
    A6        1.99626   0.00004   0.00036   0.00016   0.00052   1.99678
    A7        1.97893  -0.00001  -0.00040   0.00005  -0.00036   1.97857
    A8        1.93172   0.00000   0.00012  -0.00012   0.00000   1.93172
    A9        1.93145   0.00001   0.00017   0.00009   0.00026   1.93171
   A10        1.88071   0.00000   0.00000  -0.00004  -0.00004   1.88067
   A11        1.88042   0.00000  -0.00003   0.00005   0.00002   1.88044
   A12        1.85540   0.00000   0.00017  -0.00003   0.00014   1.85553
   A13        1.94036   0.00001   0.00019   0.00008   0.00027   1.94063
   A14        1.94044   0.00000   0.00015  -0.00005   0.00010   1.94054
   A15        1.95352   0.00000  -0.00032   0.00010  -0.00022   1.95331
   A16        1.85580  -0.00001   0.00002  -0.00010  -0.00009   1.85571
   A17        1.88488   0.00000  -0.00002  -0.00001  -0.00003   1.88485
   A18        1.88486   0.00000  -0.00001  -0.00003  -0.00004   1.88482
   A19        1.93478  -0.00001   0.00001  -0.00017  -0.00016   1.93462
   A20        1.97688   0.00000   0.00003  -0.00003   0.00000   1.97688
   A21        1.93417   0.00001  -0.00009   0.00014   0.00004   1.93421
   A22        1.87788   0.00001   0.00012   0.00001   0.00013   1.87801
   A23        1.85685   0.00000  -0.00024   0.00004  -0.00020   1.85664
   A24        1.87803   0.00000   0.00016   0.00002   0.00018   1.87820
    D1       -3.14126   0.00000  -0.00054   0.00031  -0.00023  -3.14149
    D2        0.00010   0.00000  -0.00054   0.00042  -0.00012  -0.00002
    D3       -0.00037   0.00000  -0.00015   0.00023   0.00009  -0.00028
    D4        3.14099   0.00000  -0.00015   0.00035   0.00020   3.14119
    D5       -2.10027  -0.00002  -0.00222  -0.00273  -0.00496  -2.10522
    D6        0.01260  -0.00002  -0.00203  -0.00286  -0.00490   0.00770
    D7        2.12521  -0.00001  -0.00187  -0.00276  -0.00463   2.12057
    D8        1.04064  -0.00002  -0.00184  -0.00281  -0.00465   1.03599
    D9       -3.12968  -0.00002  -0.00165  -0.00294  -0.00459  -3.13427
   D10       -1.01707  -0.00001  -0.00149  -0.00283  -0.00433  -1.02140
   D11       -0.00188   0.00000   0.00001   0.00012   0.00012  -0.00176
   D12       -2.11762   0.00000   0.00021   0.00022   0.00042  -2.11719
   D13        2.11328   0.00000  -0.00019   0.00028   0.00009   2.11337
   D14        3.13993   0.00000   0.00001   0.00001   0.00002   3.13995
   D15        1.02419   0.00000   0.00021   0.00011   0.00032   1.02451
   D16       -1.02809   0.00000  -0.00018   0.00017  -0.00002  -1.02811
   D17        2.10981   0.00000  -0.00037  -0.00003  -0.00041   2.10941
   D18       -2.10938   0.00000  -0.00013  -0.00014  -0.00028  -2.10966
   D19        0.00023   0.00000  -0.00026  -0.00014  -0.00040  -0.00017
   D20       -1.03199   0.00000  -0.00038   0.00007  -0.00031  -1.03230
   D21        1.03200   0.00000  -0.00014  -0.00004  -0.00018   1.03182
   D22       -3.14157   0.00000  -0.00026  -0.00004  -0.00030   3.14131
         Item               Value     Threshold  Converged?
 Maximum Force            0.000044     0.000450     YES
 RMS     Force            0.000011     0.000300     YES
 Maximum Displacement     0.008600     0.001800     NO 
 RMS     Displacement     0.001998     0.001200     NO 
 Predicted change in Energy=-2.415643D-07
 GradGradGradGradGradGradGradGradGradGradGradGradGradGradGradGradGradGrad

 Leave Link  103 at Sat Aug 22 15:17:08 2015, MaxMem= 3758096384 cpu:       0.1
 (Enter /share/apps/g09/l202.exe)
                          Input orientation:                          
 ---------------------------------------------------------------------
 Center     Atomic      Atomic             Coordinates (Angstroms)
 Number     Number       Type             X           Y           Z
 ---------------------------------------------------------------------
      1          6           0       -0.701745   -0.697297   -0.060755
      2          6           0        0.443788    0.000569   -0.027933
      3          6           0        0.539488    1.496422    0.148365
      4          1           0       -0.432952    1.983863    0.249094
      5          1           0       -0.620163   -1.777415   -0.194718
      6          1           0        1.057686    1.955492   -0.705311
      7          6           0        1.775922   -0.697599   -0.171870
      8          1           0        2.334175   -0.313902   -1.037857
      9          1           0        2.412457   -0.524196    0.707640
     10          1           0        1.659154   -1.778839   -0.296880
     11          1           0        1.132680    1.745041    1.039662
     12          6           0       -2.112421   -0.193510    0.063733
     13          1           0       -2.619018   -0.657298    0.921558
     14          1           0       -2.174246    0.890717    0.189881
     15          1           0       -2.701834   -0.459006   -0.824804
 ---------------------------------------------------------------------
                    Distance matrix (angstroms):
                    1          2          3          4          5
     1  C    0.000000
     2  C    1.341767   0.000000
     3  C    2.529188   1.509244   0.000000
     4  H    2.712356   2.186064   1.092422   0.000000
     5  H    1.091447   2.078710   3.490058   3.791996   0.000000
     6  H    3.247820   2.158109   1.099107   1.770225   4.124376
     7  C    2.480157   1.510873   2.538710   3.499511   2.628260
     8  H    3.212246   2.166195   2.811636   3.820073   3.403067
     9  H    3.212266   2.166127   2.811352   3.820600   3.403174
    10  H    2.607553   2.171576   3.489876   4.339692   2.281606
    11  H    3.246698   2.158128   1.099135   1.770096   4.123572
    12  C    1.503098   2.565204   3.145735   2.756071   2.191434
    13  H    2.154641   3.273393   3.900319   3.493826   2.548755
    14  H    2.180107   2.773790   2.780819   2.056837   3.111594
    15  H    2.154277   3.277369   3.908571   3.502669   2.543337
                    6          7          8          9         10
     6  H    0.000000
     7  C    2.799877   0.000000
     8  H    2.624911   1.099456   0.000000
     9  H    3.159223   1.099447   1.759862   0.000000
    10  H    3.804446   1.094688   1.775033   1.775009   0.000000
    11  H    1.759217   2.801439   3.162107   2.626310   3.805424
    12  C    3.906304   3.927954   4.582598   4.582411   4.107078
    13  H    4.794947   4.529095   5.337728   5.037779   4.587505
    14  H    3.518593   4.272873   4.825382   4.827826   4.696640
    15  H    4.469683   4.531396   5.042602   5.339346   4.586816
                   11         12         13         14         15
    11  H    0.000000
    12  C    3.903984   0.000000
    13  H    4.456503   1.098910   0.000000
    14  H    3.519625   1.093291   1.769046   0.000000
    15  H    4.799745   1.098815   1.759534   1.769093   0.000000
 Stoichiometry    C5H10
 Framework group  C1[X(C5H10)]
 Deg. of freedom    39
 Full point group                 C1      NOp   1
 Largest Abelian subgroup         C1      NOp   1
 Largest concise Abelian subgroup C1      NOp   1
                         Standard orientation:                         
 ---------------------------------------------------------------------
 Center     Atomic      Atomic             Coordinates (Angstroms)
 Number     Number       Type             X           Y           Z
 ---------------------------------------------------------------------
      1          6           0       -0.734227   -0.671480   -0.000210
      2          6           0        0.449743   -0.040169   -0.000114
      3          6           0        0.629925    1.458280   -0.000044
      4          1           0       -0.314029    2.008129   -0.001845
      5          1           0       -0.713786   -1.762736   -0.000149
      6          1           0        1.206810    1.779885   -0.878573
      7          6           0        1.741219   -0.824278    0.000094
      8          1           0        2.353914   -0.581112   -0.879837
      9          1           0        2.353750   -0.580740    0.880025
     10          1           0        1.563417   -1.904431    0.000324
     11          1           0        1.203376    1.780222    0.880641
     12          6           0       -2.115183   -0.077960    0.000058
     13          1           0       -2.680940   -0.404383    0.883783
     14          1           0       -2.115375    1.015306   -0.007364
     15          1           0       -2.685998   -0.416500   -0.875702
 ---------------------------------------------------------------------
 Rotational constants (GHZ):      8.0049788      3.4947652      2.5474944
 Leave Link  202 at Sat Aug 22 15:17:08 2015, MaxMem= 3758096384 cpu:       0.1
 (Enter /share/apps/g09/l301.exe)
 Standard basis: 6-31G(d) (6D, 7F)
 Ernie: Thresh=  0.10000D-02 Tol=  0.10000D-05 Strict=F.
 There are    95 symmetry adapted basis functions of A   symmetry.
 Integral buffers will be    131072 words long.
 Raffenetti 2 integral format.
 Two-electron integral symmetry is turned on.
    95 basis functions,   180 primitive gaussians,    95 cartesian basis functions
    20 alpha electrons       20 beta electrons
       nuclear repulsion energy       173.9121439412 Hartrees.
 IExCor=  402 DFT=T Ex+Corr=B3LYP ExCW=0 ScaHFX=  0.200000
 ScaDFX=  0.800000  0.720000  1.000000  0.810000 ScalE2=  1.000000  1.000000
 IRadAn=      0 IRanWt=     -1 IRanGd=            0 ICorTp=0
 NAtoms=   15 NActive=   15 NUniq=   15 SFac= 7.50D-01 NAtFMM=   80 NAOKFM=F Big=F
 Leave Link  301 at Sat Aug 22 15:17:08 2015, MaxMem= 3758096384 cpu:       0.6
 (Enter /share/apps/g09/l302.exe)
 NPDir=0 NMtPBC=     1 NCelOv=     1 NCel=       1 NClECP=     1 NCelD=      1
         NCelK=      1 NCelE2=     1 NClLst=     1 CellRange=     0.0.
 One-electron integrals computed using PRISM.
 NBasis=    95 RedAO= T  NBF=    95
 NBsUse=    95 1.00D-06 NBFU=    95
 Precomputing XC quadrature grid using
 IXCGrd= 2 IRadAn=           0 IRanWt=          -1 IRanGd=           0 AccXCQ= 1.00D-10.
 NRdTot=     933 NPtTot=      117822 NUsed=      124561 NTot=      124593
 NSgBfM=    95    95    95    95    95 NAtAll=    15    15.
 Leave Link  302 at Sat Aug 22 15:17:09 2015, MaxMem= 3758096384 cpu:       2.1
 (Enter /share/apps/g09/l303.exe)
 DipDrv:  MaxL=1.
 Leave Link  303 at Sat Aug 22 15:17:09 2015, MaxMem= 3758096384 cpu:       0.3
 (Enter /share/apps/g09/l401.exe)
 Initial guess read from the read-write file.
 B after Tr=     0.000000    0.000000    0.000000
         Rot=    1.000000    0.000000    0.000000    0.000000 Ang=   0.00 deg.
 Guess basis will be translated and rotated to current coordinates.
 Initial guess orbital symmetries:
       Occupied  (A) (A) (A) (A) (A) (A) (A) (A) (A) (A) (A) (A)
                 (A) (A) (A) (A) (A) (A) (A) (A)
       Virtual   (A) (A) (A) (A) (A) (A) (A) (A) (A) (A) (A) (A)
                 (A) (A) (A) (A) (A) (A) (A) (A) (A) (A) (A) (A)
                 (A) (A) (A) (A) (A) (A) (A) (A) (A) (A) (A) (A)
                 (A) (A) (A) (A) (A) (A) (A) (A) (A) (A) (A) (A)
                 (A) (A) (A) (A) (A) (A) (A) (A) (A) (A) (A) (A)
                 (A) (A) (A) (A) (A) (A) (A) (A) (A) (A) (A) (A)
                 (A) (A) (A)
 The electronic state of the initial guess is 1-A.
 Leave Link  401 at Sat Aug 22 15:17:09 2015, MaxMem= 3758096384 cpu:       1.0
 (Enter /share/apps/g09/l502.exe)
 Closed shell SCF:
 Requested convergence on RMS density matrix=1.00D-08 within 128 cycles.
 Requested convergence on MAX density matrix=1.00D-06.
 Requested convergence on             energy=1.00D-06.
 No special actions if energy rises.
 Using DIIS extrapolation, IDIIS=  1040.
 Integral symmetry usage will be decided dynamically.
       124413 words used for storage of precomputed grid.
 Keep R1 ints in memory in canonical form, NReq=11484605.
 IEnd=      171509 IEndB=      171509 NGot=  3758096384 MDV=  3747551528
 LenX=  3747551528 LenY=  3747542062
 Symmetry not used in FoFDir.
 MinBra= 0 MaxBra= 2 Meth= 1.
 IRaf=       0 NMat=   1 IRICut=       1 DoRegI=T DoRafI=F ISym2E= 0 JSym2E=0.

 Cycle   1  Pass 1  IDiag  1:
 E= -196.543582079429    
 DIIS: error= 2.59D-04 at cycle   1 NSaved=   1.
 NSaved= 1 IEnMin= 1 EnMin= -196.543582079429     IErMin= 1 ErrMin= 2.59D-04
 ErrMax= 2.59D-04 EMaxC= 1.00D-01 BMatC= 2.15D-06 BMatP= 2.15D-06
 IDIUse=3 WtCom= 9.97D-01 WtEn= 2.59D-03
 Coeff-Com:  0.100D+01
 Coeff-En:   0.100D+01
 Coeff:      0.100D+01
 Gap=     0.264 Goal=   None    Shift=    0.000
 RMSDP=2.17D-05 MaxDP=5.29D-04              OVMax= 9.66D-04

 Cycle   2  Pass 1  IDiag  1:
 E= -196.543586758261     Delta-E=       -0.000004678832 Rises=F Damp=F
 DIIS: error= 2.80D-05 at cycle   2 NSaved=   2.
 NSaved= 2 IEnMin= 2 EnMin= -196.543586758261     IErMin= 2 ErrMin= 2.80D-05
 ErrMax= 2.80D-05 EMaxC= 1.00D-01 BMatC= 2.07D-08 BMatP= 2.15D-06
 IDIUse=1 WtCom= 1.00D+00 WtEn= 0.00D+00
 Coeff-Com: -0.973D-01 0.110D+01
 Coeff:     -0.973D-01 0.110D+01
 Gap=     0.264 Goal=   None    Shift=    0.000
 RMSDP=3.47D-06 MaxDP=7.90D-05 DE=-4.68D-06 OVMax= 1.25D-04

 Cycle   3  Pass 1  IDiag  1:
 E= -196.543586809579     Delta-E=       -0.000000051318 Rises=F Damp=F
 DIIS: error= 3.49D-06 at cycle   3 NSaved=   3.
 NSaved= 3 IEnMin= 3 EnMin= -196.543586809579     IErMin= 3 ErrMin= 3.49D-06
 ErrMax= 3.49D-06 EMaxC= 1.00D-01 BMatC= 2.00D-09 BMatP= 2.07D-08
 IDIUse=1 WtCom= 1.00D+00 WtEn= 0.00D+00
 Coeff-Com: -0.401D-01 0.436D+00 0.604D+00
 Coeff:     -0.401D-01 0.436D+00 0.604D+00
 Gap=     0.264 Goal=   None    Shift=    0.000
 RMSDP=6.14D-07 MaxDP=1.68D-05 DE=-5.13D-08 OVMax= 3.00D-05

 Cycle   4  Pass 1  IDiag  1:
 E= -196.543586810904     Delta-E=       -0.000000001326 Rises=F Damp=F
 DIIS: error= 2.72D-06 at cycle   4 NSaved=   4.
 NSaved= 4 IEnMin= 4 EnMin= -196.543586810904     IErMin= 4 ErrMin= 2.72D-06
 ErrMax= 2.72D-06 EMaxC= 1.00D-01 BMatC= 6.62D-10 BMatP= 2.00D-09
 IDIUse=1 WtCom= 1.00D+00 WtEn= 0.00D+00
 Coeff-Com: -0.665D-02 0.637D-01 0.363D+00 0.580D+00
[...]
 ! R11   R(7,10)                 1.0947         -DE/DX =    0.0                 !
 ! R12   R(12,13)                1.0989         -DE/DX =    0.0                 !
 ! R13   R(12,14)                1.0933         -DE/DX =    0.0                 !
 ! R14   R(12,15)                1.0989         -DE/DX =    0.0                 !
 ! A1    A(2,1,5)              117.0006         -DE/DX =    0.0                 !
 ! A2    A(2,1,12)             128.6731         -DE/DX =    0.0                 !
 ! A3    A(5,1,12)             114.3263         -DE/DX =    0.0                 !
 ! A4    A(1,2,3)              124.9221         -DE/DX =    0.0                 !
 ! A5    A(1,2,7)              120.6828         -DE/DX =    0.0                 !
 ! A6    A(3,2,7)              114.395          -DE/DX =    0.0                 !
 ! A7    A(2,3,4)              113.3769         -DE/DX =    0.0                 !
 ! A8    A(2,3,6)              110.6757         -DE/DX =    0.0                 !
 ! A9    A(2,3,11)             110.676          -DE/DX =    0.0                 !
 ! A10   A(4,3,6)              107.7481         -DE/DX =    0.0                 !
 ! A11   A(4,3,11)             107.7477         -DE/DX =    0.0                 !
 ! A12   A(6,3,11)             106.3066         -DE/DX =    0.0                 !
 ! A13   A(2,7,8)              111.1812         -DE/DX =    0.0                 !
 ! A14   A(2,7,9)              111.181          -DE/DX =    0.0                 !
 ! A15   A(2,7,10)             111.925          -DE/DX =    0.0                 !
 ! A16   A(8,7,9)              106.3244         -DE/DX =    0.0                 !
 ! A17   A(8,7,10)             107.9949         -DE/DX =    0.0                 !
 ! A18   A(9,7,10)             107.9946         -DE/DX =    0.0                 !
 ! A19   A(1,12,13)            110.834          -DE/DX =    0.0                 !
 ! A20   A(1,12,14)            113.2689         -DE/DX =    0.0                 !
 ! A21   A(1,12,15)            110.8353         -DE/DX =    0.0                 !
 ! A22   A(13,12,14)           107.601          -DE/DX =    0.0                 !
 ! A23   A(13,12,15)           106.3861         -DE/DX =    0.0                 !
 ! A24   A(14,12,15)           107.6026         -DE/DX =    0.0                 !
 ! D1    D(5,1,2,3)            180.0018         -DE/DX =    0.0                 !
 ! D2    D(5,1,2,7)              0.0006         -DE/DX =    0.0                 !
 ! D3    D(12,1,2,3)             0.002          -DE/DX =    0.0                 !
 ! D4    D(12,1,2,7)          -179.9991         -DE/DX =    0.0                 !
 ! D5    D(2,1,12,13)         -121.0475         -DE/DX =    0.0                 !
 ! D6    D(2,1,12,14)            0.0055         -DE/DX =    0.0                 !
 ! D7    D(2,1,12,15)          121.0616         -DE/DX =    0.0                 !
 ! D8    D(5,1,12,13)           58.9527         -DE/DX =    0.0                 !
 ! D9    D(5,1,12,14)         -179.9942         -DE/DX =    0.0                 !
 ! D10   D(5,1,12,15)          -58.9382         -DE/DX =    0.0                 !
 ! D11   D(1,2,3,4)             -0.0508         -DE/DX =    0.0                 !
 ! D12   D(1,2,3,6)           -121.2545         -DE/DX =    0.0                 !
 ! D13   D(1,2,3,11)           121.1525         -DE/DX =    0.0                 !
 ! D14   D(7,2,3,4)           -180.0497         -DE/DX =    0.0                 !
 ! D15   D(7,2,3,6)             58.7466         -DE/DX =    0.0                 !
 ! D16   D(7,2,3,11)           -58.8464         -DE/DX =    0.0                 !
 ! D17   D(1,2,7,8)            120.8565         -DE/DX =    0.0                 !
 ! D18   D(1,2,7,9)           -120.8862         -DE/DX =    0.0                 !
 ! D19   D(1,2,7,10)            -0.0152         -DE/DX =    0.0                 !
 ! D20   D(3,2,7,8)            -59.1446         -DE/DX =    0.0                 !
 ! D21   D(3,2,7,9)             59.1128         -DE/DX =    0.0                 !
 ! D22   D(3,2,7,10)          -180.0162         -DE/DX =    0.0                 !
 --------------------------------------------------------------------------------
 GradGradGradGradGradGradGradGradGradGradGradGradGradGradGradGradGradGrad

 Leave Link  103 at Sat Aug 22 15:17:35 2015, MaxMem= 3758096384 cpu:       0.2
 (Enter /share/apps/g09/l9999.exe)
 1\1\GINC-COMPUTE-0-2\Freq\RB3LYP\6-31G(d)\C5H10\HETANJIN\22-Aug-2015\0
 \\#P Geom=AllCheck Guess=TCheck SCRF=Check GenChk RB3LYP/6-31G(d) Freq
 \\using ub3lyp/6-31G(d) to scan\\0,1\C,-0.7018020575,-0.6975279628,-0.
 059830812\C,0.4437237908,0.0003626973,-0.0277564323\C,0.5393994735,1.4
 96384514,0.1472878498\H,-0.4328898263,1.98399033,0.2486402568\H,-0.620
 3636875,-1.7777595561,-0.1929742056\H,1.0566602772,1.9548102374,-0.707
 3214393\C,1.7759990091,-0.6975831184,-0.1714097208\H,2.3338536798,-0.3
 143311348,-1.0378351467\H,2.4126666188,-0.5231714635,0.7077990489\H,1.
 6596464593,-1.778966001,-0.2955241294\H,1.1336917435,1.7457195616,1.03
 7644699\C,-2.1124437652,-0.193551085,0.0640825423\H,-2.62129314,-0.662
 146043,0.9178938221\H,-2.1739131031,0.8899492527,0.1966168193\H,-2.699
 9644724,-0.4531402285,-0.8275061521\\Version=EM64L-G09RevA.01\State=1-
 A\HF=-196.5435871\RMSD=4.452e-10\RMSF=3.249e-06\ZeroPoint=0.1369129\Th
 ermal=0.1437501\Dipole=0.0210235,0.0658599,0.0069852\DipoleDeriv=0.138
 4503,0.0284864,-0.0127742,-0.0865556,0.0341724,0.0344646,-0.0265737,0.
 0292914,-0.2162575,0.1547408,-0.0143278,-0.0138224,0.0474421,0.2139568
 ,0.0372057,-0.0063627,0.0400672,-0.1087782,0.0277618,0.0180896,0.00764
 46,0.0466873,-0.0008795,-0.0200581,0.0109447,-0.0188935,0.1461477,-0.0
 910717,0.1155035,0.0207378,0.0764548,-0.0115172,-0.012634,0.0160896,-0
 .0143578,0.0630225,-0.0136351,0.036742,0.0098081,0.0259064,-0.1652426,
 -0.0337256,0.0084938,-0.0342116,0.1019451,0.0043954,-0.0644622,0.08565
 49,-0.0765025,-0.0288577,0.036245,0.0925515,0.0841879,-0.0677221,0.064
 6474,0.0376496,0.0087431,-0.0139468,0.0198611,-0.0160125,0.0026243,-0.
 0183681,0.1563684,-0.0768486,-0.0194231,0.07487,-0.0215899,0.028659,0.
 0839633,0.1245079,0.0594707,-0.072573,-0.0949686,-0.0053051,-0.0772026
 ,0.0021401,0.0559586,-0.0540517,-0.1262388,-0.0293267,-0.0817012,0.028
 551,-0.0414404,-0.0032031,0.0312763,-0.1520174,-0.0276723,0.0055025,-0
 .0244056,0.0643289,-0.0131747,-0.0482703,-0.1051855,-0.0541703,-0.0045
 434,-0.0170122,-0.1142174,-0.0657353,-0.074557,0.0062227,0.0310283,0.0
 113657,-0.0255218,0.0587483,-0.0128828,0.0046462,-0.0153992,0.1738146,
 -0.0791733,-0.0417345,0.067436,-0.0145049,0.0311292,0.0815132,0.119118
 5,0.0761979,-0.063582,0.040351,-0.0023139,0.0006059,0.0550472,-0.14129
 2,-0.0265791,0.0074576,-0.0240053,0.0567706,-0.0962486,-0.0302221,-0.0
 746782,0.0078376,0.0618645,-0.0527636,-0.118544,-0.044512,-0.0772265\P
 olar=70.5647376,6.8524141,54.4326007,-0.623013,1.6040219,38.7049857\PG
 =C01 [X(C5H10)]\NImag=0\\0.74829032,0.12370726,0.67050243,-0.01238292,
 0.05755065,0.15135464,-0.41252321,-0.19156964,-0.00674414,0.74419353,-
 0.18270347,-0.22585239,-0.01257568,0.14893248,0.60081911,-0.00568195,-
 0.01217814,-0.05348460,-0.00730341,0.04308984,0.19095293,0.00260179,-0
 .02990982,-0.00343002,-0.09034995,-0.00334172,0.00022982,0.58892591,-0
 .00930735,-0.02023773,-0.00274396,-0.00258950,-0.20547719,-0.01536506,
 -0.02730218,0.49212931,-0.00095649,-0.00181851,0.00595489,0.00031754,-
 0.01531767,-0.07821660,-0.00574874,-0.00378201,0.53348183,-0.00113832,
 0.00031246,0.00007630,0.00515139,-0.00021873,-0.00032334,-0.26607433,0
 .10602818,0.02226314,0.29139901,0.00099203,0.00131703,0.00014796,0.031
 90807,-0.01128673,-0.00256960,0.10376661,-0.10133762,-0.01078133,-0.11
 357434,0.10886934,0.00015624,0.00018151,-0.00029209,0.00352435,-0.0011
 5648,-0.00191614,0.02199135,-0.01087731,-0.05182651,-0.02440801,0.0124
 4006,0.04944025,-0.05727828,0.02355378,0.00369863,0.00194149,-0.028656
 98,-0.00333420,-0.00399660,-0.00092015,0.00062796,0.00017863,0.0000761
 5,-0.00000088,0.06554894,0.01863791,-0.31639106,-0.03422807,0.00175555
 ,-0.01949094,-0.00291788,-0.00256159,0.00149254,-0.00118985,0.00016988
 ,0.00032479,0.00003747,-0.02162021,0.34053261,0.00310935,-0.03445032,-
 0.04209309,0.00031165,-0.00154761,0.00399037,0.00042850,-0.00126503,0.
 01222059,0.00000907,0.00004072,-0.00004833,-0.00440348,0.03875865,0.03
 013023,0.00101066,0.00011526,0.00035124,-0.00316812,-0.00457595,0.0005
 6577,-0.10461943,-0.04504900,0.09549254,-0.01289897,-0.01260277,0.0238
 2210,-0.00008071,-0.00024684,-0.00017257,0.11007276,0.00293692,-0.0034
 7416,-0.00021781,-0.01875035,-0.01706171,0.02623837,-0.04680760,-0.088
 80745,0.08292667,0.00564559,0.00614387,-0.01244672,-0.00094375,-0.0003
 4017,-0.00258813,0.05415548,0.09898529,-0.00092026,-0.00086788,-0.0000
 7882,-0.00230523,-0.00161429,0.00663198,0.09480090,0.08068508,-0.20359
 144,0.00023504,-0.00022106,-0.00147659,-0.00015303,0.00000699,-0.00062
 384,-0.10482484,-0.08897730,0.22133318,-0.03672358,0.01058154,0.003136
 42,-0.17716086,0.04904213,0.01048194,0.00147284,0.00409936,0.00056024,
 0.00087326,-0.00250996,-0.00030460,0.00042726,0.00229151,-0.00011092,0
 .00014480,-0.00108885,0.00003669,0.49997209,-0.01170110,0.01016222,0.0
 0117626,0.05317920,-0.11590579,-0.00730927,0.03107870,-0.02044448,-0.0
 0419970,-0.00012843,-0.00639520,-0.00085830,-0.00295834,0.00047475,0.0
 0116525,0.00057258,0.00125463,-0.00008071,0.03557167,0.57984822,0.0004
 6441,0.00017228,0.00474586,0.01097579,-0.00712468,-0.07626309,0.003794
 31,-0.00298957,0.00244479,-0.00002049,-0.00074744,0.00070401,-0.000740
 03,0.00093056,-0.00800061,-0.00042315,0.00034071,0.00021084,0.00583295
 ,0.00379089,0.53497118,-0.00154907,0.00353440,0.00133275,-0.01975952,-
 0.01153496,0.02337600,0.00074053,-0.00143391,-0.00032411,0.00008081,-0
 .00018493,-0.00053240,-0.00002011,-0.00012347,0.00136496,0.00036311,0.
 00106033,-0.00025408,-0.10786710,-0.04501175,0.10172487,0.12131185,0.0
 0085397,-0.00100612,-0.00021230,0.00624887,0.00633972,-0.01354453,0.00
 002026,0.00076587,-0.00032623,-0.00017832,0.00024379,0.00015022,0.0001
 1991,0.00038143,0.00013615,0.00004151,-0.00018824,0.00025558,-0.042971
 78,-0.08306840,0.07053940,0.04755053,0.08442940,-0.00059655,-0.0009967
 5,-0.00001698,0.00195873,0.00032280,0.00084595,-0.00012533,0.00034915,
 0.00011114,-0.00013402,-0.00019053,0.00027162,-0.00007575,-0.00002173,
 0.00006860,0.00013752,-0.00063333,0.00018241,0.09993049,0.07157020,-0.
 20695059,-0.11121638,-0.07954725,0.22443802,-0.00155701,0.00379407,-0.
 00030476,-0.02187608,-0.00591086,-0.02326189,0.00076386,-0.00147981,-0
 .00008362,0.00013678,-0.00028990,0.00048834,-0.00013302,0.00020607,-0.
 00133737,0.00011533,0.00011162,0.00006827,-0.12756025,-0.02348989,-0.1
 1846155,0.01027027,0.00314951,0.01334237,0.14296495,0.00067614,-0.0011
 8230,-0.00014741,0.00749540,0.00301899,0.01318560,0.00002985,0.0007183
 4,0.00047364,-0.00021933,0.00023112,-0.00013406,0.00008764,0.00039368,
 -0.00008065,0.00014588,-0.00003821,0.00003316,-0.02184806,-0.05783034,
 -0.03367039,0.00725240,0.00171740,0.01046987,0.02419032,0.05621980,0.0
 0093032,0.00037611,0.00016296,0.00188886,0.00072396,0.00628819,0.00007
 470,-0.00006499,0.00013983,0.00009870,0.00020953,0.00022791,0.00011804
 ,0.00008269,0.00016998,-0.00005639,-0.00002297,-0.00018893,-0.11622851
 ,-0.03453439,-0.21250242,-0.01513323,-0.00494340,-0.02297092,0.1286923
 8,0.03795912,0.23099925,0.00103760,0.00201597,0.00016767,0.00477102,0.
 02988387,0.00330084,-0.00537054,0.00155147,0.00046508,0.00004914,0.001
 79382,0.00024120,-0.00065594,-0.00081793,-0.00005014,-0.00003516,-0.00
 015843,-0.00022165,-0.05342649,-0.03343243,-0.00383052,-0.00231936,-0.
 01540649,-0.00342821,-0.00237628,-0.01824012,-0.00027767,0.05788692,-0
 .00275583,0.00070399,0.00028153,-0.00277803,-0.01544340,-0.00156494,0.
 00412602,-0.00007340,-0.00029449,-0.00017507,-0.00105135,-0.00019316,0
 .00063584,0.00126710,0.00007477,-0.00011299,0.00045434,0.00002426,-0.0
 3032945,-0.30796883,-0.02953131,-0.00127505,-0.00992944,-0.00140814,-0
 .00070164,-0.00354259,-0.00039864,0.03330652,0.33459672,-0.00040476,0.
 00006714,-0.00058791,-0.00060553,-0.00303941,-0.00166422,0.00077698,-0
 .00018016,0.00079737,0.00000427,-0.00028165,0.00058606,0.00012382,0.00
 013943,0.00042093,-0.00018534,-0.00047711,0.00022553,-0.00345979,-0.02
 939130,-0.05302599,0.00238998,0.02663007,0.00432888,-0.00230717,-0.027
 00718,-0.00200062,0.00349270,0.03290302,0.05077058,0.00108495,0.000242
 63,-0.00040352,-0.00320964,-0.00444410,-0.00105936,-0.12292400,-0.0256
 7680,-0.11266065,-0.01495446,-0.00665600,-0.02479628,-0.00006657,-0.00
 027764,0.00008873,0.00898000,0.00404595,0.01347477,0.00017275,0.000469
 72,0.00054979,0.00011505,0.00013024,0.00006153,0.00038183,0.00004837,-
 0.00014218,0.00000015,-0.00015620,0.00017664,0.13033087,0.00262015,-0.
 00349628,-0.00085761,-0.02125598,-0.01034511,-0.02857125,-0.02774606,-
 0.05815961,-0.04636751,0.00650680,0.00280354,0.01269906,-0.00071564,-0
 .00095955,0.00258609,0.00814052,0.00292491,0.01079212,-0.00106436,0.00
 124702,0.00001500,0.00013005,-0.00004109,0.00004817,0.00101985,-0.0002
 4188,0.00043656,-0.00016409,0.00033290,0.00052303,0.03279834,0.0655884
 1,0.00149065,0.00002764,-0.00012265,-0.00190095,-0.00209479,-0.0000424
 7,-0.11242848,-0.04428412,-0.21591610,0.00255462,0.00185952,0.00391647
 ,-0.00006863,-0.00006238,-0.00001851,-0.01485603,-0.00506815,-0.022829
 66,-0.00029411,0.00028893,0.00018461,-0.00006673,-0.00000896,-0.000183
 24,0.00048975,-0.00036170,0.00021584,0.00020817,0.00001790,0.00031085,
 0.12499185,0.04956997,0.23445249,-0.20267577,0.04525971,0.01134910,-0.
 02802651,0.00561032,0.00207290,0.00114076,0.00120072,-0.00013951,-0.00
 133542,-0.00030449,0.00001019,-0.00193699,-0.00011716,0.00016155,-0.00
 020120,0.00037363,0.00003619,0.00096257,-0.00248643,0.00029510,-0.0007
 0074,0.00023642,-0.00004736,-0.00044059,0.00013098,0.00011486,0.000193
 75,0.00029229,0.00001985,-0.00022205,0.00029386,0.00006937,0.49440100,
 0.04454454,-0.11116568,-0.00681085,-0.01302222,0.01320057,0.00179994,-
 0.00026346,0.00100414,0.00075752,-0.00180113,-0.00113161,-0.00001930,0
 .03076830,-0.00915426,-0.00271782,-0.00005074,-0.00048852,-0.00006354,
 -0.00187875,-0.00218163,-0.00187086,-0.00034806,0.00046322,0.00024692,
 -0.00103056,0.00071855,0.00003190,-0.00038314,0.00053494,0.00009834,0.
 00001189,-0.00029232,-0.00005031,0.01594074,0.58341724,0.01126083,-0.0
 0684179,-0.07240954,-0.00015871,0.00096210,0.00320828,-0.00031787,0.00
 069083,-0.00512673,-0.00016898,-0.00008794,-0.00028262,0.00386229,-0.0
 0132591,0.00162032,0.00027868,0.00073956,0.00016779,0.00036858,-0.0018
 4292,0.01390140,-0.00286620,0.00102542,-0.00004160,0.00272361,-0.00082
 553,-0.00055655,-0.00006105,0.00006779,-0.00013308,-0.00025567,-0.0008
 8579,-0.00000635,0.00369411,0.00522696,0.53430500,-0.02044711,-0.01577
 550,0.02402434,-0.00083188,0.00380878,0.00164147,-0.00014644,0.0003058
 5,0.00094727,0.00013976,-0.00007399,0.00006363,0.00097432,0.00048182,-
 0.00077368,-0.00009012,-0.00023785,-0.00004309,-0.00073635,-0.00037828
 ,-0.00290377,0.00029334,-0.00006650,0.00007718,-0.00089517,0.00033723,
 0.00010334,0.00001348,0.00008288,0.00006724,-0.00001793,-0.00013827,-0
 .00010620,-0.09636871,-0.05046979,0.09207595,0.10951456,0.00433480,0.0
 0652866,-0.01048987,0.00094103,-0.00064551,-0.00018349,0.00007272,-0.0
 0050375,-0.00002014,-0.00009084,0.00053917,0.00012816,-0.00066874,0.00
 033344,0.00012959,-0.00036080,0.00019723,-0.00002548,0.00001886,0.0002
 1540,0.00097786,-0.00007218,-0.00004487,-0.00004570,0.00033279,-0.0000
 9379,0.00004521,0.00003285,-0.00003134,-0.00002106,-0.00000160,0.00012
 955,0.00003279,-0.04816513,-0.09797776,0.08588252,0.05375770,0.1009850
 0,0.00163060,-0.00034727,0.00167451,-0.00104437,-0.00117238,-0.0002267
 5,-0.00003676,-0.00008652,-0.00008069,0.00002786,0.00007990,0.00002909
 ,0.00041920,-0.00032987,0.00025813,-0.00009122,0.00006830,-0.00001169,
 0.00006310,0.00017624,0.00005560,0.00006761,-0.00005259,-0.00004458,0.
 00006565,-0.00000913,-0.00000221,0.00001380,-0.00001837,-0.00001669,0.
 00004921,0.00005574,0.00003132,0.08992814,0.08701600,-0.20298754,-0.09
 980417,-0.09614193,0.21981209,0.00251242,0.03395056,0.00389989,0.00167
 715,-0.00005460,-0.00008672,-0.00194227,0.00005261,0.00007461,-0.00173
 580,-0.00228346,-0.00016552,-0.00590097,0.00190098,0.00056897,0.000420
 99,-0.00017972,-0.00000322,-0.00006708,-0.00021792,-0.00002461,-0.0000
 6308,-0.00006904,0.00005780,-0.00007086,-0.00004839,-0.00006553,0.0002
 2434,-0.00025686,-0.00004147,0.00041312,-0.00017993,-0.00007472,-0.050
 29499,0.01038562,0.00126898,0.00011349,-0.01440377,-0.00339047,0.05427
 463,0.00189263,-0.01012904,-0.00115785,-0.00116241,-0.00098899,-0.0000
 5439,-0.00122063,-0.00056875,0.00003473,-0.00218883,0.00017338,0.00004
 306,0.00179394,0.00085469,-0.00017663,-0.00017956,0.00029522,0.0000584
 9,0.00014086,0.00013253,0.00001412,0.00013344,0.00001048,-0.00007030,0
 .00014515,-0.00002035,0.00005580,-0.00001881,0.00018851,0.00002498,-0.
 00016845,0.00032033,0.00002587,0.01231274,-0.31216385,-0.03198816,0.00
 013574,-0.01300984,-0.00209025,-0.01132434,0.34145493,0.00006116,-0.00
 260266,-0.00148943,-0.00021957,-0.00010286,-0.00011027,-0.00007520,-0.
 00002456,-0.00038213,-0.00015459,0.00004866,0.00064478,0.00055597,-0.0
 0018283,0.00161788,0.00000690,0.00013236,0.00003495,0.00001822,0.00003
 024,-0.00003455,0.00004392,-0.00006156,-0.00001666,-0.00000422,0.00006
 487,0.00002192,-0.00001301,0.00003568,-0.00000794,-0.00008529,-0.00004
 732,0.00001683,0.00149939,-0.03190165,-0.05359269,-0.00189378,0.026742
 58,0.00449391,-0.00169663,0.03580692,0.05109318,-0.02264540,-0.0098127
 0,-0.02477099,-0.00082882,0.00416380,-0.00061786,-0.00022214,0.0005205
 0,-0.00083528,0.00012853,-0.00005686,-0.00008971,0.00099854,0.00032112
 ,0.00080537,-0.00001395,-0.00016296,0.00007353,-0.00048387,-0.00106730
 ,0.00276691,-0.00089598,0.00034091,0.00005799,0.00027625,-0.00003830,-
 0.00011769,0.00000738,0.00009758,-0.00004744,-0.00008407,-0.00024524,-
 0.00000855,-0.11449510,-0.03240325,-0.11170455,0.00848476,0.00427230,0
 .01210181,0.00043889,-0.00029145,0.00195674,0.12933496,0.00527140,0.00
 372044,0.01028502,0.00066752,-0.00088062,-0.00005521,0.00005891,-0.000
 50022,-0.00009511,-0.00008789,0.00055646,0.00000580,-0.00055176,0.0002
 8097,-0.00006504,0.00000743,0.00014297,-0.00000542,-0.00005473,0.00045
 991,-0.00084659,0.00032317,-0.00007314,-0.00009337,-0.00004673,-0.0000
 6840,0.00004353,0.00003694,-0.00003815,0.00001187,-0.00036636,0.000189
 18,0.00010778,-0.03057821,-0.06478300,-0.05079712,0.00823018,0.0033784
 1,0.01285214,-0.01727174,-0.00654926,-0.02793788,0.03436186,0.06416444
 ,0.00183937,0.00172800,0.00668227,0.00130499,0.00064716,0.00000644,0.0
 0006585,-0.00006175,-0.00001022,-0.00005958,0.00005319,0.00002209,-0.0
 0062991,0.00030272,0.00028736,-0.00004521,-0.00001445,0.00001429,-0.00
 003070,0.00001856,-0.00044103,0.00009304,-0.00004005,-0.00002205,-0.00
 010979,0.00004979,-0.00000421,-0.00000722,0.00000413,-0.00000375,0.000
 01042,0.00000374,-0.00000942,-0.10906389,-0.05174324,-0.21806609,-0.01
 347572,-0.00701104,-0.02298449,-0.00032135,-0.00052638,-0.00228979,0.1
 2042972,0.05658961,0.23681861\\0.00000157,0.00000124,0.00000328,0.0000
 0655,0.00000895,0.00000335,-0.00000546,-0.00000948,-0.00000169,-0.0000
 0409,-0.00000246,-0.00000165,0.00000180,-0.00000088,-0.00000060,-0.000
 00031,0.00000236,0.00000060,-0.00000625,-0.00000376,-0.00000320,0.0000
 0309,0.00000234,-0.00000090,0.00000183,0.00000310,0.00000030,0.0000001
 3,0.00000366,0.00000104,-0.00000205,0.00000252,0.00000224,0.00000239,-
 0.00000029,-0.00000331,0.00000135,-0.00000367,-0.00000009,-0.00000096,
 -0.00000022,0.00000060,0.00000041,-0.00000343,0.00000003\\\@


 HE THAT RISETH LATE MUST TROT ALL DAY.

                  -- BENJAMIN FRANKLIN
 Job cpu time:  0 days  0 hours  3 minutes 20.2 seconds.
 File lengths (MBytes):  RWF=     21 Int=      0 D2E=      0 Chk=      2 Scr=      1
 Normal termination of Gaussian 09 at Sat Aug 22 15:17:35 2015.
