 Entering Gaussian System, Link 0=/share/apps/g09/g09
 Input=C3H7O2_62_b3631gd_246.gjf
 Output=C3H7O2_62_b3631gd_246.log
 Initial command:
 /share/apps/g09/l1.exe /state/partition1/Gau-1355.inp -scrdir=/state/partition1/
 Entering Link 1 = /share/apps/g09/l1.exe PID=      1356.
  
 Copyright (c) 1988,1990,1992,1993,1995,1998,2003,2009, Gaussian, Inc.
                  All Rights Reserved.
  
 This is part of the Gaussian(R) 09 program.  It is based on
 the Gaussian(R) 03 system (copyright 2003, Gaussian, Inc.),
 the Gaussian(R) 98 system (copyright 1998, Gaussian, Inc.),
 the Gaussian(R) 94 system (copyright 1995, Gaussian, Inc.),
 the Gaussian 92(TM) system (copyright 1992, Gaussian, Inc.),
 the Gaussian 90(TM) system (copyright 1990, Gaussian, Inc.),
 the Gaussian 88(TM) system (copyright 1988, Gaussian, Inc.),
 the Gaussian 86(TM) system (copyright 1986, Carnegie Mellon
 University), and the Gaussian 82(TM) system (copyright 1983,
 Carnegie Mellon University). Gaussian is a federally registered
 trademark of Gaussian, Inc.
  
 This software contains proprietary and confidential information,
 including trade secrets, belonging to Gaussian, Inc.
  
 This software is provided under written license and may be
 used, copied, transmitted, or stored only in accord with that
 written license.
  
 The following legend is applicable only to US Government
 contracts under FAR:
  
                    RESTRICTED RIGHTS LEGEND
  
 Use, reproduction and disclosure by the US Government is
 subject to restrictions as set forth in subparagraphs (a)
 and (c) of the Commercial Computer Software - Restricted
 Rights clause in FAR 52.227-19.
  
 Gaussian, Inc.
 340 Quinnipiac St., Bldg. 40, Wallingford CT 06492
  
  
 ---------------------------------------------------------------
 Warning -- This program may not be used in any manner that
 competes with the business of Gaussian, Inc. or will provide
 assistance to any competitor of Gaussian, Inc.  The licensee
 of this program is prohibited from giving any competitor of
 Gaussian, Inc. access to this program.  By using this program,
 the user acknowledges that Gaussian, Inc. is engaged in the
 business of creating and licensing software in the field of
 computational chemistry and represents and warrants to the
 licensee that it is not a competitor of Gaussian, Inc. and that
 it will not use this program in any manner prohibited above.
 ---------------------------------------------------------------
  

 Cite this work as:
 Gaussian 09, Revision A.01,
 M. J. Frisch, G. W. Trucks, H. B. Schlegel, G. E. Scuseria, 
 M. A. Robb, J. R. Cheeseman, G. Scalmani, V. Barone, B. Mennucci, 
 G. A. Petersson, H. Nakatsuji, M. Caricato, X. Li, H. P. Hratchian, 
 A. F. Izmaylov, J. Bloino, G. Zheng, J. L. Sonnenberg, M. Hada, 
 M. Ehara, K. Toyota, R. Fukuda, J. Hasegawa, M. Ishida, T. Nakajima, 
 Y. Honda, O. Kitao, H. Nakai, T. Vreven, J. A. Montgomery, Jr., 
 J. E. Peralta, F. Ogliaro, M. Bearpark, J. J. Heyd, E. Brothers, 
 K. N. Kudin, V. N. Staroverov, R. Kobayashi, J. Normand, 
 K. Raghavachari, A. Rendell, J. C. Burant, S. S. Iyengar, J. Tomasi, 
 M. Cossi, N. Rega, J. M. Millam, M. Klene, J. E. Knox, J. B. Cross, 
 V. Bakken, C. Adamo, J. Jaramillo, R. Gomperts, R. E. Stratmann, 
 O. Yazyev, A. J. Austin, R. Cammi, C. Pomelli, J. W. Ochterski, 
 R. L. Martin, K. Morokuma, V. G. Zakrzewski, G. A. Voth, 
 P. Salvador, J. J. Dannenberg, S. Dapprich, A. D. Daniels, 
 O. Farkas, J. B. Foresman, J. V. Ortiz, J. Cioslowski, 
 and D. J. Fox, Gaussian, Inc., Wallingford CT, 2009.
 
 ******************************************
 Gaussian 09:  EM64L-G09RevA.01  8-May-2009
                 1-Apr-2015 
 ******************************************
 %mem=28GB
 %nprocshared=12
 Will use up to   12 processors via shared memory.
 %chk=C3H7O2_62_b3631gd_246.chk
 -----------------------------------------------
 #p ub3lyp/6-31g(d) opt=modredundant freq scf=qc
 -----------------------------------------------
 1/14=-1,18=120,19=15,26=3,38=1/1,3;
 2/9=110,12=2,17=6,18=5,40=1/2;
 3/5=1,6=6,7=1,11=2,16=1,25=1,30=1,71=1,74=-5,116=2/1,2,3;
 4//1;
 5/5=2,8=3,38=5/8;
 6/7=2,8=2,9=2,10=2,28=1/1;
 7//1,2,3,16;
 1/14=-1,18=20,19=15/3(2);
 2/9=110/2;
 99//99;
 2/9=110/2;
 3/5=1,6=6,7=1,11=2,16=1,25=1,30=1,71=1,74=-5,116=2/1,2,3;
 4/5=5,16=3/1;
 5/5=2,8=3,38=5/8;
 7//1,2,3,16;
 1/14=-1,18=20,19=15/3(-5);
 2/9=110/2;
 6/7=2,8=2,9=2,10=2,19=2,28=1/1;
 99/9=1/99;
 Leave Link    1 at Wed Apr  1 01:03:19 2015, MaxMem= 3758096384 cpu:       0.3
 (Enter /share/apps/g09/l101.exe)
 ---------------------------------------------------
 C3H7O2_62_b3631gd using cbs-qb3 to calculate energy
 ---------------------------------------------------
 Symbolic Z-matrix:
 Charge =  0 Multiplicity = 2
 C                    -1.79382  -0.98801   0.17916 
 H                    -0.92041  -1.62651   0.01218 
 H                    -2.64955  -1.43805  -0.33531 
 H                    -2.01036  -0.98848   1.25412 
 C                    -1.53107   0.43504  -0.32793 
 H                    -1.35192   0.42552  -1.41289 
 H                    -2.44532   1.04404  -0.19748 
 C                    -0.39581   1.11768   0.35149 
 H                    -0.01669   2.05933  -0.03399 
 H                    -0.14907   0.87926   1.38222 
 O                     1.52089  -0.16389  -0.51097 
 O                     2.46255  -0.30404   0.27532 
 
 NAtoms=     12 NQM=     12 NQMF=      0 NMic=      0 NMicF=      0 NTot=     12.
 The following ModRedundant input section has been read:
 B    8   11 F                                                                 
                    Isotopes and Nuclear Properties:
 (Nuclear quadrupole moments (NQMom) in fm**2, nuclear magnetic moments (NMagM)
  in nuclear magnetons)

  Atom         1           2           3           4           5           6           7           8           9          10
 IAtWgt=          12           1           1           1          12           1           1          12           1           1
 AtmWgt=  12.0000000   1.0078250   1.0078250   1.0078250  12.0000000   1.0078250   1.0078250  12.0000000   1.0078250   1.0078250
 NucSpn=           0           1           1           1           0           1           1           0           1           1
 AtZEff=   0.0000000   0.0000000   0.0000000   0.0000000   0.0000000   0.0000000   0.0000000   0.0000000   0.0000000   0.0000000
 NQMom=    0.0000000   0.0000000   0.0000000   0.0000000   0.0000000   0.0000000   0.0000000   0.0000000   0.0000000   0.0000000
 NMagM=    0.0000000   2.7928460   2.7928460   2.7928460   0.0000000   2.7928460   2.7928460   0.0000000   2.7928460   2.7928460

  Atom        11          12
 IAtWgt=          16          16
 AtmWgt=  15.9949146  15.9949146
 NucSpn=           0           0
 AtZEff=   0.0000000   0.0000000
 NQMom=    0.0000000   0.0000000
 NMagM=    0.0000000   0.0000000
 Leave Link  101 at Wed Apr  1 01:03:19 2015, MaxMem= 3758096384 cpu:       0.7
 (Enter /share/apps/g09/l103.exe)

 GradGradGradGradGradGradGradGradGradGradGradGradGradGradGradGradGradGrad
 Berny optimization.
 Initialization pass.
                           ----------------------------
                           !    Initial Parameters    !
                           ! (Angstroms and Degrees)  !
 --------------------------                            --------------------------
 ! Name  Definition              Value          Derivative Info.                !
 --------------------------------------------------------------------------------
 ! R1    R(1,2)                  1.0947         estimate D2E/DX2                !
 ! R2    R(1,3)                  1.0952         estimate D2E/DX2                !
 ! R3    R(1,4)                  1.0966         estimate D2E/DX2                !
 ! R4    R(1,5)                  1.5334         estimate D2E/DX2                !
 ! R5    R(2,11)                 2.8936         estimate D2E/DX2                !
 ! R6    R(5,6)                  1.0997         estimate D2E/DX2                !
 ! R7    R(5,7)                  1.1062         estimate D2E/DX2                !
 ! R8    R(5,8)                  1.4888         estimate D2E/DX2                !
 ! R9    R(5,11)                 3.1156         estimate D2E/DX2                !
 ! R10   R(6,11)                 3.0682         estimate D2E/DX2                !
 ! R11   R(8,9)                  1.0858         estimate D2E/DX2                !
 ! R12   R(8,10)                 1.0863         estimate D2E/DX2                !
 ! R13   R(8,11)                 2.4617         Frozen                          !
 ! R14   R(8,12)                 3.1933         estimate D2E/DX2                !
 ! R15   R(9,11)                 2.7449         estimate D2E/DX2                !
 ! R16   R(10,11)                2.7315         estimate D2E/DX2                !
 ! R17   R(10,12)                3.0734         estimate D2E/DX2                !
 ! R18   R(11,12)                1.2348         estimate D2E/DX2                !
 ! A1    A(2,1,3)              108.1841         estimate D2E/DX2                !
 ! A2    A(2,1,4)              107.8676         estimate D2E/DX2                !
 ! A3    A(2,1,5)              110.7403         estimate D2E/DX2                !
 ! A4    A(3,1,4)              107.8199         estimate D2E/DX2                !
 ! A5    A(3,1,5)              111.0938         estimate D2E/DX2                !
 ! A6    A(4,1,5)              111.0033         estimate D2E/DX2                !
 ! A7    A(1,2,11)             113.9472         estimate D2E/DX2                !
 ! A8    A(1,5,6)              110.2517         estimate D2E/DX2                !
 ! A9    A(1,5,7)              109.2865         estimate D2E/DX2                !
 ! A10   A(1,5,8)              113.909          estimate D2E/DX2                !
 ! A11   A(1,5,11)              90.5087         estimate D2E/DX2                !
 ! A12   A(6,5,7)              104.8176         estimate D2E/DX2                !
 ! A13   A(6,5,8)              109.2685         estimate D2E/DX2                !
 ! A14   A(7,5,8)              108.9034         estimate D2E/DX2                !
 ! A15   A(7,5,11)             157.2711         estimate D2E/DX2                !
 ! A16   A(5,8,9)              120.1238         estimate D2E/DX2                !
 ! A17   A(5,8,10)             120.3688         estimate D2E/DX2                !
 ! A18   A(5,8,12)             117.8743         estimate D2E/DX2                !
 ! A19   A(9,8,10)             116.6072         estimate D2E/DX2                !
 ! A20   A(9,8,12)              93.7329         estimate D2E/DX2                !
 ! A21   A(2,11,5)              42.2753         estimate D2E/DX2                !
 ! A22   A(2,11,6)              50.2295         estimate D2E/DX2                !
 ! A23   A(2,11,8)              62.8            estimate D2E/DX2                !
 ! A24   A(2,11,9)              84.5705         estimate D2E/DX2                !
 ! A25   A(2,11,10)             63.3793         estimate D2E/DX2                !
 ! A26   A(2,11,12)            118.0942         estimate D2E/DX2                !
 ! A27   A(5,11,9)              44.386          estimate D2E/DX2                !
 ! A28   A(5,11,10)             44.5182         estimate D2E/DX2                !
 ! A29   A(5,11,12)            137.01           estimate D2E/DX2                !
 ! A30   A(6,11,8)              43.4444         estimate D2E/DX2                !
 ! A31   A(6,11,9)              51.0233         estimate D2E/DX2                !
 ! A32   A(6,11,10)             63.7645         estimate D2E/DX2                !
 ! A33   A(6,11,12)            157.3774         estimate D2E/DX2                !
 ! A34   A(9,11,10)             39.4459         estimate D2E/DX2                !
 ! A35   A(9,11,12)            114.1093         estimate D2E/DX2                !
 ! D1    D(3,1,2,11)           139.0023         estimate D2E/DX2                !
 ! D2    D(4,1,2,11)          -104.6175         estimate D2E/DX2                !
 ! D3    D(5,1,2,11)            17.0341         estimate D2E/DX2                !
 ! D4    D(2,1,5,6)             62.282          estimate D2E/DX2                !
 ! D5    D(2,1,5,7)            176.9847         estimate D2E/DX2                !
 ! D6    D(2,1,5,8)            -60.9701         estimate D2E/DX2                !
 ! D7    D(2,1,5,11)           -14.3983         estimate D2E/DX2                !
 ! D8    D(3,1,5,6)            -57.9652         estimate D2E/DX2                !
 ! D9    D(3,1,5,7)             56.7375         estimate D2E/DX2                !
 ! D10   D(3,1,5,8)            178.7827         estimate D2E/DX2                !
 ! D11   D(3,1,5,11)          -134.6455         estimate D2E/DX2                !
 ! D12   D(4,1,5,6)           -177.9286         estimate D2E/DX2                !
 ! D13   D(4,1,5,7)            -63.2259         estimate D2E/DX2                !
 ! D14   D(4,1,5,8)             58.8193         estimate D2E/DX2                !
 ! D15   D(4,1,5,11)           105.3911         estimate D2E/DX2                !
 ! D16   D(1,2,11,5)           -11.5625         estimate D2E/DX2                !
 ! D17   D(1,2,11,6)           -37.8614         estimate D2E/DX2                !
 ! D18   D(1,2,11,8)            12.7692         estimate D2E/DX2                !
 ! D19   D(1,2,11,9)             4.1558         estimate D2E/DX2                !
 ! D20   D(1,2,11,10)           39.0663         estimate D2E/DX2                !
 ! D21   D(1,2,11,12)          118.6364         estimate D2E/DX2                !
 ! D22   D(1,5,8,9)            169.9743         estimate D2E/DX2                !
 ! D23   D(1,5,8,10)           -29.9491         estimate D2E/DX2                !
 ! D24   D(1,5,8,12)            56.893          estimate D2E/DX2                !
 ! D25   D(6,5,8,9)             46.1889         estimate D2E/DX2                !
 ! D26   D(6,5,8,10)          -153.7345         estimate D2E/DX2                !
 ! D27   D(6,5,8,12)           -66.8924         estimate D2E/DX2                !
 ! D28   D(7,5,8,9)            -67.7695         estimate D2E/DX2                !
 ! D29   D(7,5,8,10)            92.3071         estimate D2E/DX2                !
 ! D30   D(7,5,8,12)           179.1491         estimate D2E/DX2                !
 ! D31   D(1,5,11,2)             7.5149         estimate D2E/DX2                !
 ! D32   D(1,5,11,9)          -149.8067         estimate D2E/DX2                !
 ! D33   D(1,5,11,10)          -92.1893         estimate D2E/DX2                !
 ! D34   D(1,5,11,12)          -73.6677         estimate D2E/DX2                !
 ! D35   D(7,5,11,2)           158.6888         estimate D2E/DX2                !
 ! D36   D(7,5,11,9)             1.3672         estimate D2E/DX2                !
 ! D37   D(7,5,11,10)           58.9845         estimate D2E/DX2                !
 ! D38   D(7,5,11,12)           77.5062         estimate D2E/DX2                !
 --------------------------------------------------------------------------------
 Trust Radius=3.00D-01 FncErr=1.00D-07 GrdErr=1.00D-06
 Number of steps in this run= 100 maximum allowed number of steps= 100.
 GradGradGradGradGradGradGradGradGradGradGradGradGradGradGradGradGradGrad

 Leave Link  103 at Wed Apr  1 01:03:19 2015, MaxMem= 3758096384 cpu:       0.1
 (Enter /share/apps/g09/l202.exe)
                          Input orientation:                          
 ---------------------------------------------------------------------
 Center     Atomic      Atomic             Coordinates (Angstroms)
 Number     Number       Type             X           Y           Z
 ---------------------------------------------------------------------
      1          6           0       -1.793824   -0.988010    0.179155
      2          1           0       -0.920414   -1.626506    0.012182
      3          1           0       -2.649551   -1.438046   -0.335307
      4          1           0       -2.010357   -0.988482    1.254119
      5          6           0       -1.531070    0.435044   -0.327929
      6          1           0       -1.351924    0.425522   -1.412889
      7          1           0       -2.445320    1.044042   -0.197481
      8          6           0       -0.395808    1.117684    0.351490
      9          1           0       -0.016693    2.059327   -0.033993
     10          1           0       -0.149074    0.879262    1.382219
     11          8           0        1.520892   -0.163888   -0.510965
     12          8           0        2.462551   -0.304040    0.275322
 ---------------------------------------------------------------------
                    Distance matrix (angstroms):
                    1          2          3          4          5
     1  C    0.000000
     2  H    1.094716   0.000000
     3  H    1.095204   1.773748   0.000000
     4  H    1.096556   1.771287   1.771144   0.000000
     5  C    1.533381   2.176824   2.181632   2.181517   0.000000
     6  H    2.174386   2.535320   2.513544   3.089640   1.099692
     7  H    2.166919   3.082389   2.494287   2.535249   1.106232
     8  C    2.533396   2.814413   3.476033   2.803113   1.488767
     9  H    3.534104   3.795288   4.387978   3.863039   2.240096
    10  H    2.763923   2.958182   3.817355   2.639934   2.243178
    11  O    3.484650   2.893598   4.364279   4.033013   3.115557
    12  O    4.312052   3.641787   5.271852   4.629623   4.105991
                    6          7          8          9         10
     6  H    0.000000
     7  H    1.747941   0.000000
     8  C    2.122800   2.123038   0.000000
     9  H    2.520618   2.637378   1.085825   0.000000
    10  H    3.076582   2.792015   1.086336   1.848171   0.000000
    11  O    3.068215   4.157909   2.461706   2.744878   2.731500
    12  O    4.234683   5.111562   3.193324   3.439161   3.073436
                   11         12
    11  O    0.000000
    12  O    1.234752   0.000000
 Stoichiometry    C3H7O2(2)
 Framework group  C1[X(C3H7O2)]
 Deg. of freedom    30
 Full point group                 C1      NOp   1
 Largest Abelian subgroup         C1      NOp   1
 Largest concise Abelian subgroup C1      NOp   1
                         Standard orientation:                         
 ---------------------------------------------------------------------
 Center     Atomic      Atomic             Coordinates (Angstroms)
 Number     Number       Type             X           Y           Z
 ---------------------------------------------------------------------
      1          6           0       -1.793824   -0.988010    0.179155
      2          1           0       -0.920414   -1.626506    0.012182
      3          1           0       -2.649551   -1.438046   -0.335307
      4          1           0       -2.010357   -0.988482    1.254119
      5          6           0       -1.531070    0.435044   -0.327929
      6          1           0       -1.351924    0.425522   -1.412889
      7          1           0       -2.445320    1.044042   -0.197481
      8          6           0       -0.395808    1.117684    0.351490
      9          1           0       -0.016693    2.059327   -0.033993
     10          1           0       -0.149074    0.879262    1.382219
     11          8           0        1.520892   -0.163888   -0.510965
     12          8           0        2.462551   -0.304040    0.275322
 ---------------------------------------------------------------------
 Rotational constants (GHZ):      8.8536160      2.1449084      1.9122876
 Leave Link  202 at Wed Apr  1 01:03:19 2015, MaxMem= 3758096384 cpu:       0.1
 (Enter /share/apps/g09/l301.exe)
 Standard basis: 6-31G(d) (6D, 7F)
 Ernie: Thresh=  0.10000D-02 Tol=  0.10000D-05 Strict=F.
 There are    89 symmetry adapted basis functions of A   symmetry.
 Integral buffers will be    131072 words long.
 Raffenetti 2 integral format.
 Two-electron integral symmetry is turned on.
    89 basis functions,   168 primitive gaussians,    89 cartesian basis functions
    21 alpha electrons       20 beta electrons
       nuclear repulsion energy       165.2428658479 Hartrees.
 IExCor=  402 DFT=T Ex+Corr=B3LYP ExCW=0 ScaHFX=  0.200000
 ScaDFX=  0.800000  0.720000  1.000000  0.810000 ScalE2=  1.000000  1.000000
 IRadAn=      0 IRanWt=     -1 IRanGd=            0 ICorTp=0
 NAtoms=   12 NActive=   12 NUniq=   12 SFac= 7.50D-01 NAtFMM=   80 NAOKFM=F Big=F
 Leave Link  301 at Wed Apr  1 01:03:20 2015, MaxMem= 3758096384 cpu:       0.6
 (Enter /share/apps/g09/l302.exe)
 NPDir=0 NMtPBC=     1 NCelOv=     1 NCel=       1 NClECP=     1 NCelD=      1
         NCelK=      1 NCelE2=     1 NClLst=     1 CellRange=     0.0.
 One-electron integrals computed using PRISM.
 NBasis=    89 RedAO= T  NBF=    89
 NBsUse=    89 1.00D-06 NBFU=    89
 Precomputing XC quadrature grid using
 IXCGrd= 2 IRadAn=           0 IRanWt=          -1 IRanGd=           0 AccXCQ= 1.00D-10.
 NRdTot=     742 NPtTot=       94340 NUsed=       99703 NTot=       99735
 NSgBfM=    89    89    89    89    89 NAtAll=    12    12.
 Leave Link  302 at Wed Apr  1 01:03:20 2015, MaxMem= 3758096384 cpu:       1.7
 (Enter /share/apps/g09/l303.exe)
 DipDrv:  MaxL=1.
 Leave Link  303 at Wed Apr  1 01:03:20 2015, MaxMem= 3758096384 cpu:       0.4
 (Enter /share/apps/g09/l401.exe)
 Harris functional with IExCor=  402 diagonalized for initial guess.
 ExpMin= 1.61D-01 ExpMax= 5.48D+03 ExpMxC= 8.25D+02 IAcc=1 IRadAn=         1 AccDes= 0.00D+00
 HarFok:  IExCor=  402 AccDes= 0.00D+00 IRadAn=         1 IDoV= 1
 ScaDFX=  1.000000  1.000000  1.000000  1.000000
 FoFCou: FMM=F IPFlag=           0 FMFlag=      100000 FMFlg1=           0
         NFxFlg=           0 DoJE=T BraDBF=F KetDBF=T FulRan=T
         Omega=  0.000000  0.000000  1.000000  0.000000  0.000000 ICntrl=     500 IOpCl=  0
         NMat0=    1 NMatS0=    1 NMatT0=    0 NMatD0=    1 NMtDS0=    0 NMtDT0=    0
         I1Cent=           4 NGrid=           0.
 Petite list used in FoFCou.
 Harris En= -268.823109100183    
 Initial guess orbital symmetries:
 Alpha Orbitals:
       Occupied  (A) (A) (A) (A) (A) (A) (A) (A) (A) (A) (A) (A)
                 (A) (A) (A) (A) (A) (A) (A) (A) (A)
       Virtual   (A) (A) (A) (A) (A) (A) (A) (A) (A) (A) (A) (A)
                 (A) (A) (A) (A) (A) (A) (A) (A) (A) (A) (A) (A)
                 (A) (A) (A) (A) (A) (A) (A) (A) (A) (A) (A) (A)
                 (A) (A) (A) (A) (A) (A) (A) (A) (A) (A) (A) (A)
                 (A) (A) (A) (A) (A) (A) (A) (A) (A) (A) (A) (A)
                 (A) (A) (A) (A) (A) (A) (A) (A)
 Beta  Orbitals:
       Occupied  (A) (A) (A) (A) (A) (A) (A) (A) (A) (A) (A) (A)
                 (A) (A) (A) (A) (A) (A) (A) (A)
       Virtual   (A) (A) (A) (A) (A) (A) (A) (A) (A) (A) (A) (A)
                 (A) (A) (A) (A) (A) (A) (A) (A) (A) (A) (A) (A)
                 (A) (A) (A) (A) (A) (A) (A) (A) (A) (A) (A) (A)
                 (A) (A) (A) (A) (A) (A) (A) (A) (A) (A) (A) (A)
                 (A) (A) (A) (A) (A) (A) (A) (A) (A) (A) (A) (A)
                 (A) (A) (A) (A) (A) (A) (A) (A) (A)
 The electronic state of the initial guess is 2-A.
 Initial guess <Sx>= 0.0000 <Sy>= 0.0000 <Sz>= 0.5000 <S**2>= 0.7500 S= 0.5000
 Leave Link  401 at Wed Apr  1 01:03:20 2015, MaxMem= 3758096384 cpu:       2.4
 (Enter /share/apps/g09/l508.exe)
 Direct SCF.
 Tight linear equation convergence will be used.
 UB3LYP wavefunction.
 Quadratic Convergence SCF Method.
 Line search only if initial step raises energy.
 Integral symmetry usage will be decided dynamically.
 ReadGW:  IGet=1 IStart=           2 Next=       99584 LGW=       99582.
 Pruned (  75, 302) grid will be used in CalDFT.
 Keep R1 and R2 ints in memory in canonical form, NReq=17125503.
 Symmetry not used in FoFDir.
 MinBra= 0 MaxBra= 2 Meth= 1.
 IRaf=       0 NMat=   1 IRICut=       1 DoRegI=T DoRafI=F ISym2E= 0 JSym2E=0.
 Iteration   1 EE= -268.468204596921                                    Grad=7.074D-01
 Gradient too large for Newton-Raphson -- use scaled steepest descent instead.
     ILin= 1 X=0.000D+00 Y=-2.684682045969D+02 DE= 0.00D+00
     ILin= 2 X=3.000D-01 Y=-2.686966168793D+02 DE=-2.28D-01
     ILin= 3 X=4.243D-01 Y=-2.687220169776D+02 DE=-2.54D-01
     ILin= 4 X=6.000D-01 Y=-2.686868963209D+02 DE=-2.19D-01
     An  expanding polynomial of degree  4 produced  0.4385
 Iteration   2 EE= -268.722278314910     Delta-E=       -0.254073717989 Grad=1.815D-01
 Gradient too large for Newton-Raphson -- use scaled steepest descent instead.
     ILin= 1 X=0.000D+00 Y=-2.687222783149D+02 DE= 0.00D+00
     ILin= 2 X=4.385D-01 Y=-2.687145444303D+02 DE= 7.73D-03
     ILin= 3 X=3.100D-01 Y=-2.687430495775D+02 DE=-2.08D-02
     A contracting polynomial of degree  3 produced  0.2058
 Iteration   3 EE= -268.751327674383     Delta-E=       -0.029049359474 Grad=2.006D-01
 Gradient too large for Newton-Raphson -- use scaled steepest descent instead.
     ILin= 1 X=0.000D+00 Y=-2.687513276744D+02 DE= 0.00D+00
     ILin= 2 X=4.385D-01 Y=-2.687611363864D+02 DE=-9.81D-03
     ILin= 3 X=6.201D-01 Y=-2.687504947985D+02 DE= 8.33D-04
     An  expanding polynomial of degree  3 produced  0.3049
 Iteration   4 EE= -268.763468553446     Delta-E=       -0.012140879063 Grad=8.570D-02
 Gradient too large for Newton-Raphson -- use scaled steepest descent instead.
     ILin= 1 X=0.000D+00 Y=-2.687634685534D+02 DE= 0.00D+00
     ILin= 2 X=3.049D-01 Y=-2.687688072988D+02 DE=-5.34D-03
     ILin= 3 X=4.312D-01 Y=-2.687643896013D+02 DE=-9.21D-04
     An  expanding polynomial of degree  3 produced  0.2244
 Iteration   5 EE= -268.769674819112     Delta-E=       -0.006206265666 Grad=1.019D-01
 Gradient too large for Newton-Raphson -- use scaled steepest descent instead.
     ILin= 1 X=0.000D+00 Y=-2.687696748191D+02 DE= 0.00D+00
     ILin= 2 X=3.049D-01 Y=-2.687731014650D+02 DE=-3.43D-03
     ILin= 3 X=4.312D-01 Y=-2.687725193124D+02 DE=-2.84D-03
     An  expanding polynomial of degree  3 produced  0.3053
 Iteration   6 EE= -268.773101474777     Delta-E=       -0.003426655665 Grad=4.627D-02
 Gradient too large for Newton-Raphson -- use scaled steepest descent instead.
     ILin= 1 X=0.000D+00 Y=-2.687731014748D+02 DE= 0.00D+00
     ILin= 2 X=3.053D-01 Y=-2.687751517459D+02 DE=-2.05D-03
     ILin= 3 X=4.318D-01 Y=-2.687743597939D+02 DE=-1.26D-03
     An  expanding polynomial of degree  3 produced  0.2644
 Iteration   7 EE= -268.775208346078     Delta-E=       -0.002106871300 Grad=5.556D-02
 Gradient too large for Newton-Raphson -- use scaled steepest descent instead.
     ILin= 1 X=0.000D+00 Y=-2.687752083461D+02 DE= 0.00D+00
     ILin= 2 X=3.053D-01 Y=-2.687767944890D+02 DE=-1.59D-03
     ILin= 3 X=4.318D-01 Y=-2.687766722447D+02 DE=-1.46D-03
     An  expanding polynomial of degree  3 produced  0.3347
 Iteration   8 EE= -268.776806882677     Delta-E=       -0.001598536600 Grad=3.061D-02
 Gradient too large for Newton-Raphson -- use scaled steepest descent instead.
     ILin= 1 X=0.000D+00 Y=-2.687768068827D+02 DE= 0.00D+00
     ILin= 2 X=3.347D-01 Y=-2.687782501280D+02 DE=-1.44D-03
     ILin= 3 X=4.733D-01 Y=-2.687779641047D+02 DE=-1.16D-03
     An  expanding polynomial of degree  3 produced  0.3274
 Iteration   9 EE= -268.778251404213     Delta-E=       -0.001444521535 Grad=3.864D-02
 Gradient too large for Newton-Raphson -- use scaled steepest descent instead.
     ILin= 1 X=0.000D+00 Y=-2.687782514042D+02 DE= 0.00D+00
     ILin= 2 X=3.274D-01 Y=-2.687798989307D+02 DE=-1.65D-03
     ILin= 3 X=4.631D-01 Y=-2.687797983111D+02 DE=-1.55D-03
     An  expanding polynomial of degree  3 produced  0.3655
 Iteration  10 EE= -268.779916919683     Delta-E=       -0.001665515470 Grad=3.467D-02
 Gradient too large for Newton-Raphson -- use scaled steepest descent instead.
     ILin= 1 X=0.000D+00 Y=-2.687799169197D+02 DE= 0.00D+00
     ILin= 2 X=3.655D-01 Y=-2.687818368326D+02 DE=-1.92D-03
     ILin= 3 X=5.169D-01 Y=-2.687816705825D+02 DE=-1.75D-03
     An  expanding polynomial of degree  3 produced  0.3965
 Iteration  11 EE= -268.781846011346     Delta-E=       -0.001929091663 Grad=3.845D-02
 Gradient too large for Newton-Raphson -- use scaled steepest descent instead.
     ILin= 1 X=0.000D+00 Y=-2.687818460113D+02 DE= 0.00D+00
     ILin= 2 X=3.965D-01 Y=-2.687842225796D+02 DE=-2.38D-03
     ILin= 3 X=5.607D-01 Y=-2.687836256913D+02 DE=-1.78D-03
     An  expanding polynomial of degree  3 produced  0.3728
 Iteration  12 EE= -268.784233987751     Delta-E=       -0.002387976405 Grad=4.275D-02
 Gradient too large for Newton-Raphson -- use scaled steepest descent instead.
     ILin= 1 X=0.000D+00 Y=-2.687842339878D+02 DE= 0.00D+00
     ILin= 2 X=3.728D-01 Y=-2.687866632263D+02 DE=-2.43D-03
     ILin= 3 X=5.272D-01 Y=-2.687867082708D+02 DE=-2.47D-03
     ILin= 4 X=7.456D-01 Y=-2.687859149141D+02 DE=-1.68D-03
     An  expanding polynomial of degree  4 produced  0.4628
 Iteration  13 EE= -268.786753410312     Delta-E=       -0.002519422561 Grad=3.905D-02
 Gradient too large for Newton-Raphson -- use scaled steepest descent instead.
     ILin= 1 X=0.000D+00 Y=-2.687867534103D+02 DE= 0.00D+00
     ILin= 2 X=4.628D-01 Y=-2.687894072965D+02 DE=-2.65D-03
     ILin= 3 X=6.545D-01 Y=-2.687886458803D+02 DE=-1.89D-03
     An  expanding polynomial of degree  3 produced  0.4247
 Iteration  14 EE= -268.789434653749     Delta-E=       -0.002681243437 Grad=4.426D-02
 Gradient too large for Newton-Raphson -- use scaled steepest descent instead.
     ILin= 1 X=0.000D+00 Y=-2.687894346537D+02 DE= 0.00D+00
     ILin= 2 X=4.247D-01 Y=-2.687915795283D+02 DE=-2.14D-03
     ILin= 3 X=6.007D-01 Y=-2.687915584548D+02 DE=-2.12D-03
     An  expanding polynomial of degree  3 produced  0.5057
 Iteration  15 EE= -268.791632524230     Delta-E=       -0.002197870482 Grad=3.180D-02
 Gradient too large for Newton-Raphson -- use scaled steepest descent instead.
     ILin= 1 X=0.000D+00 Y=-2.687916325242D+02 DE= 0.00D+00
     ILin= 2 X=5.057D-01 Y=-2.687934461610D+02 DE=-1.81D-03
     ILin= 3 X=7.152D-01 Y=-2.687930410434D+02 DE=-1.41D-03
     An  expanding polynomial of degree  3 produced  0.4852
 Iteration  16 EE= -268.793450948648     Delta-E=       -0.001818424417 Grad=3.545D-02
 Gradient too large for Newton-Raphson -- use scaled steepest descent instead.
     ILin= 1 X=0.000D+00 Y=-2.687934509486D+02 DE= 0.00D+00
     ILin= 2 X=4.852D-01 Y=-2.687946025005D+02 DE=-1.15D-03
     ILin= 3 X=6.862D-01 Y=-2.687944804076D+02 DE=-1.03D-03
     An  expanding polynomial of degree  3 produced  0.5158
 Iteration  17 EE= -268.794605959841     Delta-E=       -0.001155011194 Grad=2.155D-02
 Gradient too large for Newton-Raphson -- use scaled steepest descent instead.
     ILin= 1 X=0.000D+00 Y=-2.687946059598D+02 DE= 0.00D+00
     ILin= 2 X=5.158D-01 Y=-2.687953404053D+02 DE=-7.34D-04
     ILin= 3 X=7.294D-01 Y=-2.687951813522D+02 DE=-5.75D-04
     An  expanding polynomial of degree  3 produced  0.4974
 Iteration  18 EE= -268.795341625360     Delta-E=       -0.000735665519 Grad=2.279D-02
 Gradient too large for Newton-Raphson -- use scaled steepest descent instead.
     ILin= 1 X=0.000D+00 Y=-2.687953416254D+02 DE= 0.00D+00
     ILin= 2 X=4.974D-01 Y=-2.687957439623D+02 DE=-4.02D-04
     ILin= 3 X=7.034D-01 Y=-2.687956615491D+02 DE=-3.20D-04
     An  expanding polynomial of degree  3 produced  0.4840
 Iteration  19 EE= -268.795744302334     Delta-E=       -0.000402676974 Grad=1.422D-02
 Gradient too large for Newton-Raphson -- use scaled steepest descent instead.
     ILin= 1 X=0.000D+00 Y=-2.687957443023D+02 DE= 0.00D+00
     ILin= 2 X=4.840D-01 Y=-2.687959690922D+02 DE=-2.25D-04
     ILin= 3 X=6.845D-01 Y=-2.687959188642D+02 DE=-1.75D-04
     An  expanding polynomial of degree  3 produced  0.4643
 Iteration  20 EE= -268.795969496755     Delta-E=       -0.000225194420 Grad=1.304D-02
 Gradient too large for Newton-Raphson -- use scaled steepest descent instead.
     ILin= 1 X=0.000D+00 Y=-2.687959694968D+02 DE= 0.00D+00
     ILin= 2 X=4.643D-01 Y=-2.687960942761D+02 DE=-1.25D-04
     ILin= 3 X=6.566D-01 Y=-2.687960717028D+02 DE=-1.02D-04
     An  expanding polynomial of degree  3 produced  0.4607
 Iteration  21 EE= -268.796094283931     Delta-E=       -0.000124787176 Grad=8.821D-03
 QCNR:  CnvC1=5.30D-09 CnvC2=5.30D-08
 LinEq1:  Iter=  0 NonCon=     1 RMS=4.96D-04 Max=1.93D-02
 AX will form     1 AO Fock derivatives at one time.
 LinEq1:  Iter=  1 NonCon=     1 RMS=6.09D-04 Max=1.47D-02
 LinEq1:  Iter=  2 NonCon=     1 RMS=6.04D-05 Max=1.39D-03
 LinEq1:  Iter=  3 NonCon=     1 RMS=6.36D-05 Max=1.82D-03
 LinEq1:  Iter=  4 NonCon=     1 RMS=8.36D-06 Max=1.78D-04
 LinEq1:  Iter=  5 NonCon=     1 RMS=9.58D-07 Max=1.40D-05
 LinEq1:  Iter=  6 NonCon=     1 RMS=4.00D-07 Max=3.70D-06
 LinEq1:  Iter=  7 NonCon=     1 RMS=1.29D-07 Max=1.24D-06
 LinEq1:  Iter=  8 NonCon=     1 RMS=4.60D-08 Max=4.73D-07
 LinEq1:  Iter=  9 NonCon=     1 RMS=1.71D-08 Max=2.76D-07
 LinEq1:  Iter= 10 NonCon=     1 RMS=8.37D-09 Max=1.58D-07
 LinEq1:  Iter= 11 NonCon=     1 RMS=4.60D-09 Max=9.63D-08
 LinEq1:  Iter= 12 NonCon=     0 RMS=1.62D-09 Max=2.72D-08
 Linear equations converged to 5.299D-09 5.299D-08 after    12 iterations.
 Angle between quadratic step and gradient=  59.72 degrees.
     ILin= 1 X=0.000D+00 Y=-2.687960942839D+02 DE= 0.00D+00
     ILin= 2 X=1.000D+00 Y=-2.687962532353D+02 DE=-1.59D-04
     ILin= 3 X=1.414D+00 Y=-2.687962175715D+02 DE=-1.23D-04
     An  expanding polynomial of degree  3 produced  0.9587
 Iteration  22 EE= -268.796253458355     Delta-E=       -0.000159174424 Grad=3.174D-04
 QCNR:  CnvC1=3.17D-09 CnvC2=3.17D-08
 LinEq1:  Iter=  0 NonCon=     1 RMS=1.35D-05 Max=4.63D-04
 LinEq1:  Iter=  1 NonCon=     1 RMS=1.66D-05 Max=5.25D-04
 LinEq1:  Iter=  2 NonCon=     1 RMS=4.61D-06 Max=1.27D-04
 LinEq1:  Iter=  3 NonCon=     1 RMS=3.74D-06 Max=7.81D-05
 LinEq1:  Iter=  4 NonCon=     1 RMS=1.67D-06 Max=2.12D-05
 LinEq1:  Iter=  5 NonCon=     1 RMS=5.82D-07 Max=6.46D-06
 LinEq1:  Iter=  6 NonCon=     1 RMS=1.68D-07 Max=1.93D-06
 LinEq1:  Iter=  7 NonCon=     1 RMS=1.01D-07 Max=1.10D-06
 LinEq1:  Iter=  8 NonCon=     1 RMS=4.30D-08 Max=5.87D-07
 LinEq1:  Iter=  9 NonCon=     1 RMS=1.73D-08 Max=2.55D-07
 LinEq1:  Iter= 10 NonCon=     1 RMS=4.97D-09 Max=5.85D-08
 LinEq1:  Iter= 11 NonCon=     0 RMS=1.97D-09 Max=2.15D-08
 Linear equations converged to 3.174D-09 3.174D-08 after    11 iterations.
 Angle between quadratic step and gradient=  56.56 degrees.
     ILin= 1 X=0.000D+00 Y=-2.687962534584D+02 DE= 0.00D+00
     ILin= 2 X=1.000D+00 Y=-2.687962535466D+02 DE=-8.82D-08
     ILin= 3 X=1.414D+00 Y=-2.687962535314D+02 DE=-7.30D-08
     An  expanding polynomial of degree  3 produced  0.9996
 Iteration  23 EE= -268.796253546565     Delta-E=       -0.000000088210 Grad=1.033D-07
 Rotation gradient small -- convergence achieved.
 SCF Done:  E(UB3LYP) =  -268.796253547     a.u. after   23 cycles
            Convg  =    0.1033D-06                    92 Fock formations.
              S**2 =  1.4799                  -V/T =  2.0093
 <Sx>= 0.0000 <Sy>= 0.0000 <Sz>= 0.5000 <S**2>= 1.4799 S= 0.8152
 <L.S>= 0.000000000000E+00
 Annihilation of the first spin contaminant:
 S**2 before annihilation     1.4799,   after     0.7679
 Leave Link  508 at Wed Apr  1 01:03:41 2015, MaxMem= 3758096384 cpu:     246.5
 (Enter /share/apps/g09/l601.exe)
 Copying SCF densities to generalized density rwf, IOpCl= 1 IROHF=0.

 **********************************************************************

            Population analysis using the SCF density.

 **********************************************************************

 Orbital symmetries:
 Alpha Orbitals:
       Occupied  (A) (A) (A) (A) (A) (A) (A) (A) (A) (A) (A) (A)
                 (A) (A) (A) (A) (A) (A) (A) (A) (A)
       Virtual   (A) (A) (A) (A) (A) (A) (A) (A) (A) (A) (A) (A)
                 (A) (A) (A) (A) (A) (A) (A) (A) (A) (A) (A) (A)
                 (A) (A) (A) (A) (A) (A) (A) (A) (A) (A) (A) (A)
                 (A) (A) (A) (A) (A) (A) (A) (A) (A) (A) (A) (A)
                 (A) (A) (A) (A) (A) (A) (A) (A) (A) (A) (A) (A)
                 (A) (A) (A) (A) (A) (A) (A) (A)
 Beta  Orbitals:
       Occupied  (A) (A) (A) (A) (A) (A) (A) (A) (A) (A) (A) (A)
                 (A) (A) (A) (A) (A) (A) (A) (A)
       Virtual   (A) (A) (A) (A) (A) (A) (A) (A) (A) (A) (A) (A)
                 (A) (A) (A) (A) (A) (A) (A) (A) (A) (A) (A) (A)
                 (A) (A) (A) (A) (A) (A) (A) (A) (A) (A) (A) (A)
                 (A) (A) (A) (A) (A) (A) (A) (A) (A) (A) (A) (A)
                 (A) (A) (A) (A) (A) (A) (A) (A) (A) (A) (A) (A)
                 (A) (A) (A) (A) (A) (A) (A) (A) (A)
 The electronic state is 2-A.
 Alpha  occ. eigenvalues --  -19.27976 -19.26229 -10.19972 -10.19791 -10.17993
 Alpha  occ. eigenvalues --   -1.24578  -0.80626  -0.78269  -0.66976  -0.58140
 Alpha  occ. eigenvalues --   -0.51674  -0.50951  -0.50740  -0.45623  -0.44317
 Alpha  occ. eigenvalues --   -0.41282  -0.35888  -0.35566  -0.34935  -0.27667
 Alpha  occ. eigenvalues --   -0.27050
 Alpha virt. eigenvalues --   -0.04654   0.09808   0.13954   0.14262   0.15147
 Alpha virt. eigenvalues --    0.16598   0.18343   0.19415   0.21233   0.23668
 Alpha virt. eigenvalues --    0.27513   0.49970   0.50870   0.53983   0.56649
 Alpha virt. eigenvalues --    0.59149   0.62588   0.66567   0.69585   0.74107
 Alpha virt. eigenvalues --    0.76636   0.79416   0.80037   0.84422   0.86415
 Alpha virt. eigenvalues --    0.88400   0.89588   0.90926   0.93044   0.93540
 Alpha virt. eigenvalues --    0.95592   0.96784   0.99337   1.01849   1.11053
 Alpha virt. eigenvalues --    1.23826   1.39395   1.43447   1.50064   1.52276
 Alpha virt. eigenvalues --    1.53681   1.55048   1.60646   1.67934   1.71279
 Alpha virt. eigenvalues --    1.85648   1.91660   1.93535   1.94518   1.96304
 Alpha virt. eigenvalues --    2.01301   2.07746   2.17217   2.24285   2.32535
 Alpha virt. eigenvalues --    2.36165   2.40201   2.42282   2.55046   2.56020
 Alpha virt. eigenvalues --    2.61235   2.68149   2.87386   3.24923   3.60910
 Alpha virt. eigenvalues --    4.13256   4.27317   4.45478
  Beta  occ. eigenvalues --  -19.25298 -19.23616 -10.21163 -10.19722 -10.18006
  Beta  occ. eigenvalues --   -1.19261  -0.79327  -0.72572  -0.68341  -0.59198
  Beta  occ. eigenvalues --   -0.47740  -0.46052  -0.44950  -0.42810  -0.41692
  Beta  occ. eigenvalues --   -0.41355  -0.36301  -0.36043  -0.35174  -0.20484
  Beta virt. eigenvalues --   -0.08687  -0.08471   0.09652   0.13067   0.14021
  Beta virt. eigenvalues --    0.14907   0.16594   0.18138   0.19134   0.22974
  Beta virt. eigenvalues --    0.25136   0.27032   0.49735   0.50735   0.53704
  Beta virt. eigenvalues --    0.55886   0.58156   0.59544   0.66393   0.69606
  Beta virt. eigenvalues --    0.75543   0.76616   0.80997   0.81798   0.86019
  Beta virt. eigenvalues --    0.86391   0.89330   0.90638   0.92443   0.93584
  Beta virt. eigenvalues --    0.94915   0.95833   0.96833   0.99622   1.05145
  Beta virt. eigenvalues --    1.12033   1.25306   1.40373   1.42942   1.51241
  Beta virt. eigenvalues --    1.53989   1.56719   1.57944   1.63013   1.67507
  Beta virt. eigenvalues --    1.71000   1.84501   1.91281   1.92903   1.97519
  Beta virt. eigenvalues --    2.00479   2.02045   2.06496   2.14796   2.24036
  Beta virt. eigenvalues --    2.32130   2.35053   2.41657   2.43408   2.58873
  Beta virt. eigenvalues --    2.59408   2.60833   2.67790   2.89671   3.28835
  Beta virt. eigenvalues --    3.64760   4.12297   4.25950   4.44966
          Condensed to atoms (all electrons):
              1          2          3          4          5          6
     1  C    5.061187   0.379986   0.372416   0.378137   0.377554  -0.035609
     2  H    0.379986   0.550901  -0.028918  -0.031042  -0.034912  -0.004511
     3  H    0.372416  -0.028918   0.570408  -0.030696  -0.028605  -0.002758
     4  H    0.378137  -0.031042  -0.030696   0.572740  -0.035501   0.004964
     5  C    0.377554  -0.034912  -0.028605  -0.035501   4.926002   0.377579
     6  H   -0.035609  -0.004511  -0.002758   0.004964   0.377579   0.584561
     7  H   -0.039064   0.005070  -0.002545  -0.004410   0.367970  -0.040888
     8  C   -0.045939  -0.002703   0.004432  -0.004266   0.385776  -0.042457
     9  H    0.003955   0.000026  -0.000155  -0.000004  -0.031711  -0.003096
    10  H   -0.005465   0.000150   0.000032   0.004216  -0.038473   0.004590
    11  O   -0.001466   0.004196   0.000018  -0.000025  -0.000507   0.000143
    12  O    0.000061  -0.000143   0.000000   0.000004   0.000127   0.000017
              7          8          9         10         11         12
     1  C   -0.039064  -0.045939   0.003955  -0.005465  -0.001466   0.000061
     2  H    0.005070  -0.002703   0.000026   0.000150   0.004196  -0.000143
     3  H   -0.002545   0.004432  -0.000155   0.000032   0.000018   0.000000
     4  H   -0.004410  -0.004266  -0.000004   0.004216  -0.000025   0.000004
     5  C    0.367970   0.385776  -0.031711  -0.038473  -0.000507   0.000127
     6  H   -0.040888  -0.042457  -0.003096   0.004590   0.000143   0.000017
     7  H    0.606361  -0.045642  -0.000174   0.000404   0.000178  -0.000008
     8  C   -0.045642   5.257121   0.365410   0.369015   0.027723  -0.009715
     9  H   -0.000174   0.365410   0.545437  -0.036151  -0.001174   0.000182
    10  H    0.000404   0.369015  -0.036151   0.542279  -0.002215   0.001633
    11  O    0.000178   0.027723  -0.001174  -0.002215   7.914179   0.103833
    12  O   -0.000008  -0.009715   0.000182   0.001633   0.103833   7.971125
 Mulliken atomic charges:
              1
     1  C   -0.445753
     2  H    0.161899
     3  H    0.146371
     4  H    0.145881
     5  C   -0.265297
     6  H    0.157465
     7  H    0.152747
     8  C   -0.258756
     9  H    0.157455
    10  H    0.159985
    11  O   -0.044884
    12  O   -0.067115
 Sum of Mulliken atomic charges =   0.00000
 Mulliken charges with hydrogens summed into heavy atoms:
              1
     1  C    0.008399
     5  C    0.044915
     8  C    0.058685
    11  O   -0.044884
    12  O   -0.067115
 Sum of Mulliken charges with hydrogens summed into heavy atoms =   0.00000
          Atomic-Atomic Spin Densities.
              1          2          3          4          5          6
     1  C   -0.009034   0.002059   0.001258  -0.000267  -0.005399  -0.004613
     2  H    0.002059  -0.001802  -0.000811   0.000822   0.000528   0.000914
     3  H    0.001258  -0.000811   0.000739   0.000353  -0.000427   0.000607
     4  H   -0.000267   0.000822   0.000353  -0.000689  -0.000562  -0.000301
     5  C   -0.005399   0.000528  -0.000427  -0.000562   0.050298  -0.005349
     6  H   -0.004613   0.000914   0.000607  -0.000301  -0.005349  -0.033697
     7  H    0.005381  -0.000559  -0.001169   0.001266  -0.011267   0.012843
     8  C    0.007015  -0.002924  -0.000225   0.000086   0.034587   0.012714
     9  H   -0.000036   0.000030   0.000001  -0.000020  -0.000204  -0.000993
    10  H   -0.000695   0.000123   0.000042  -0.000264  -0.000806  -0.000339
    11  O   -0.000329   0.000861   0.000009   0.000006  -0.000309  -0.000488
    12  O    0.000046  -0.000247   0.000000  -0.000004  -0.000027   0.000003
              7          8          9         10         11         12
     1  C    0.005381   0.007015  -0.000036  -0.000695  -0.000329   0.000046
     2  H   -0.000559  -0.002924   0.000030   0.000123   0.000861  -0.000247
     3  H   -0.001169  -0.000225   0.000001   0.000042   0.000009   0.000000
     4  H    0.001266   0.000086  -0.000020  -0.000264   0.000006  -0.000004
     5  C   -0.011267   0.034587  -0.000204  -0.000806  -0.000309  -0.000027
     6  H    0.012843   0.012714  -0.000993  -0.000339  -0.000488   0.000003
     7  H   -0.080626   0.024123   0.000855   0.000954   0.000014   0.000002
     8  C    0.024123  -0.986798   0.007488   0.009803   0.000636   0.004802
     9  H    0.000855   0.007488   0.036105  -0.002535  -0.000372  -0.000013
    10  H    0.000954   0.009803  -0.002535   0.034658  -0.001591   0.000223
    11  O    0.000014   0.000636  -0.000372  -0.001591   1.202364  -0.285556
    12  O    0.000002   0.004802  -0.000013   0.000223  -0.285556   1.184982
 Mulliken atomic spin densities:
              1
     1  C   -0.004615
     2  H   -0.001007
     3  H    0.000376
     4  H    0.000426
     5  C    0.061063
     6  H   -0.018700
     7  H   -0.048183
     8  C   -0.888692
     9  H    0.040305
    10  H    0.039573
    11  O    0.915245
    12  O    0.904209
 Sum of Mulliken atomic spin densities =   1.00000
 Electronic spatial extent (au):  <R**2>=            634.4048
 Charge=              0.0000 electrons
 Dipole moment (field-independent basis, Debye):
    X=             -1.7236    Y=              0.6568    Z=              0.0869  Tot=              1.8465
 Quadrupole moment (field-independent basis, Debye-Ang):
   XX=            -32.6374   YY=            -29.6974   ZZ=            -30.1673
   XY=              0.2988   XZ=              0.0383   YZ=             -0.0400
 Traceless Quadrupole moment (field-independent basis, Debye-Ang):
   XX=             -1.8034   YY=              1.1366   ZZ=              0.6668
   XY=              0.2988   XZ=              0.0383   YZ=             -0.0400
 Octapole moment (field-independent basis, Debye-Ang**2):
  XXX=              8.8446  YYY=             -0.0172  ZZZ=             -0.3611  XYY=              6.5642
  XXY=              0.3976  XXZ=             -2.1411  XZZ=              5.1916  YZZ=             -0.4992
  YYZ=             -1.2437  XYZ=              0.0545
 Hexadecapole moment (field-independent basis, Debye-Ang**3):
 XXXX=           -558.4721 YYYY=           -156.4445 ZZZZ=            -67.4822 XXXY=             -2.0562
 XXXZ=             -1.3670 YYYX=             -4.4952 YYYZ=             -1.1011 ZZZX=             -0.4053
 ZZZY=             -0.2584 XXYY=           -117.3966 XXZZ=           -103.1379 YYZZ=            -39.4358
 XXYZ=              0.7913 YYXZ=              0.7855 ZZXY=             -0.9304
 N-N= 1.652428658479D+02 E-N=-1.428080700200D+03  KE= 3.969909217818D+02
                          Isotropic Fermi Contact Couplings
        Atom                 a.u.       MegaHertz       Gauss      10(-4) cm-1
     1  C(13)             -0.00571      -6.41852      -2.29029      -2.14099
     2  H(1)               0.00039       1.73002       0.61731       0.57707
     3  H(1)               0.00039       1.72322       0.61489       0.57480
     4  H(1)               0.00026       1.17475       0.41918       0.39185
     5  C(13)              0.02009      22.58369       8.05842       7.53311
     6  H(1)              -0.00972     -43.44064     -15.50070     -14.49024
     7  H(1)              -0.02551    -114.03975     -40.69222     -38.03957
     8  C(13)             -0.11480    -129.05931     -46.05157     -43.04955
     9  H(1)               0.01240      55.42739      19.77787      18.48859
    10  H(1)               0.01220      54.52996      19.45765      18.18924
    11  O(17)              0.07687     -46.59990     -16.62800     -15.54405
    12  O(17)              0.12503     -75.79195     -27.04445     -25.28147
 --------------------------------------------------------
       Center         ----  Spin Dipole Couplings  ----
                      3XX-RR        3YY-RR        3ZZ-RR
 --------------------------------------------------------
     1   Atom        0.010710     -0.012425      0.001716
     2   Atom        0.014781     -0.012106     -0.002675
     3   Atom        0.003883     -0.004138      0.000255
     4   Atom        0.005275     -0.006119      0.000844
     5   Atom       -0.002327     -0.000123      0.002450
     6   Atom        0.011411      0.000546     -0.011957
     7   Atom       -0.007012      0.003175      0.003837
     8   Atom       -0.240694      0.015442      0.225252
     9   Atom        0.017018     -0.040685      0.023667
    10   Atom        0.030498      0.028506     -0.059004
    11   Atom       -0.756539      1.070207     -0.313668
    12   Atom       -0.743717      1.231258     -0.487541
 --------------------------------------------------------
                        XY            XZ            YZ
 --------------------------------------------------------
     1   Atom       -0.008371     -0.000648      0.003128
     2   Atom        0.006390     -0.002596     -0.002250
     3   Atom       -0.001868     -0.000644     -0.000913
     4   Atom       -0.003688     -0.000527      0.002813
     5   Atom       -0.007003     -0.003061     -0.006863
     6   Atom       -0.006449     -0.004522     -0.006772
     7   Atom       -0.002915     -0.006444     -0.002141
     8   Atom        0.535452      0.379516     -0.295959
     9   Atom       -0.029425      0.029561      0.028841
    10   Atom        0.019121     -0.023598      0.021639
    11   Atom        0.296783     -1.546864      0.159704
    12   Atom        0.522875     -1.429205     -0.118996
 --------------------------------------------------------


 ---------------------------------------------------------------------------------
              Anisotropic Spin Dipole Couplings in Principal Axis System
 ---------------------------------------------------------------------------------

       Atom             a.u.   MegaHertz   Gauss  10(-4) cm-1        Axes

              Baa    -0.0156    -2.091    -0.746    -0.698  0.2959  0.9418 -0.1592
     1 C(13)  Bbb     0.0019     0.262     0.093     0.087  0.1771  0.1097  0.9781
              Bcc     0.0136     1.830     0.653     0.610  0.9386 -0.3176 -0.1344
 
              Baa    -0.0138    -7.358    -2.626    -2.455 -0.2030  0.9679  0.1485
     2 H(1)   Bbb    -0.0029    -1.551    -0.553    -0.517  0.1835 -0.1113  0.9767
              Bcc     0.0167     8.909     3.179     2.972  0.9618  0.2255 -0.1550
 
              Baa    -0.0048    -2.542    -0.907    -0.848  0.2212  0.9541  0.2019
     3 H(1)   Bbb     0.0004     0.224     0.080     0.075  0.0621 -0.2204  0.9734
              Bcc     0.0043     2.318     0.827     0.773  0.9733 -0.2028 -0.1080
 
              Baa    -0.0080    -4.245    -1.515    -1.416  0.2472  0.9272 -0.2815
     4 H(1)   Bbb     0.0013     0.681     0.243     0.227  0.3074  0.2005  0.9302
              Bcc     0.0067     3.564     1.272     1.189  0.9189 -0.3165 -0.2355
 
              Baa    -0.0117    -1.571    -0.561    -0.524  0.6243  0.6415  0.4459
     5 C(13)  Bbb     0.0030     0.397     0.142     0.132  0.7319 -0.2807 -0.6209
              Bcc     0.0088     1.175     0.419     0.392 -0.2731  0.7140 -0.6447
 
              Baa    -0.0166    -8.851    -3.158    -2.952  0.2401  0.4336  0.8685
     6 H(1)   Bbb     0.0021     1.126     0.402     0.375  0.3212  0.8088 -0.4926
              Bcc     0.0145     7.725     2.757     2.577  0.9161 -0.3973 -0.0549
 
              Baa    -0.0109    -5.819    -2.076    -1.941  0.8749  0.2447  0.4179
     7 H(1)   Bbb     0.0039     2.084     0.744     0.695 -0.3146  0.9433  0.1062
              Bcc     0.0070     3.735     1.333     1.246 -0.3682 -0.2244  0.9022
 
              Baa    -0.8739  -117.270   -41.845   -39.117  0.7197 -0.5668 -0.4011
     8 C(13)  Bbb     0.4343    58.273    20.793    19.438 -0.0893 -0.6484  0.7560
              Bcc     0.4396    58.996    21.051    19.679  0.6886  0.5083  0.5172
 
              Baa    -0.0691   -36.866   -13.155   -12.297  0.4145  0.8232 -0.3880
     9 H(1)   Bbb     0.0189    10.110     3.607     3.372  0.6366 -0.5670 -0.5228
              Bcc     0.0501    26.756     9.547     8.925  0.6503  0.0303  0.7590
 
              Baa    -0.0715   -38.153   -13.614   -12.726  0.2627 -0.2518  0.9315
    10 H(1)   Bbb     0.0228    12.164     4.340     4.057 -0.6186  0.6969  0.3628
              Bcc     0.0487    25.989     9.273     8.669  0.7405  0.6715 -0.0273
 
              Baa    -2.1315   154.236    55.035    51.448  0.7532 -0.1022  0.6499
    11 O(17)  Bbb     0.9830   -71.132   -25.382   -23.727 -0.5185  0.5157  0.6820
              Bcc     1.1485   -83.104   -29.654   -27.721  0.4049  0.8506 -0.3354
 
              Baa    -2.0794   150.460    53.688    50.188  0.7443 -0.0938  0.6612
    12 O(17)  Bbb     0.5489   -39.721   -14.174   -13.250 -0.5288  0.5220  0.6693
              Bcc     1.5304  -110.739   -39.514   -36.939  0.4079  0.8478 -0.3389
 

 ---------------------------------------------------------------------------------

 No NMR shielding tensors so no spin-rotation constants.
 Leave Link  601 at Wed Apr  1 01:03:41 2015, MaxMem= 3758096384 cpu:       3.0
 (Enter /share/apps/g09/l701.exe)
 Compute integral first derivatives.
 ... and contract with generalized density number  0.
 Leave Link  701 at Wed Apr  1 01:03:42 2015, MaxMem= 3758096384 cpu:       1.8
 (Enter /share/apps/g09/l702.exe)
 L702 exits ... SP integral derivatives will be done elsewhere.
 Leave Link  702 at Wed Apr  1 01:03:42 2015, MaxMem= 3758096384 cpu:       0.2
 (Enter /share/apps/g09/l703.exe)
 Compute integral first derivatives, UseDBF=F ICtDFT=           0.
 Integral derivatives from FoFDir, PRISM(SPDF).
 Calling FoFJK, ICntrl=      2127 FMM=F ISym2X=0 I1Cent= 0 IOpClX= 1 NMat=1 NMatS=1 NMatT=0.
 FoFCou: FMM=F IPFlag=           0 FMFlag=      100000 FMFlg1=         800
         NFxFlg=           0 DoJE=F BraDBF=F KetDBF=F FulRan=T
         Omega=  0.000000  0.000000  1.000000  0.000000  0.000000 ICntrl=    2127 IOpCl=  1
         NMat0=    1 NMatS0=    1 NMatT0=    0 NMatD0=    1 NMtDS0=    0 NMtDT0=    0
         I1Cent=           0 NGrid=           0.
 Symmetry not used in FoFCou.
 Leave Link  703 at Wed Apr  1 01:03:43 2015, MaxMem= 3758096384 cpu:       7.3
 (Enter /share/apps/g09/l716.exe)
 Dipole        =-6.78100607D-01 2.58408354D-01 3.42003452D-02
 ***** Axes restored to original set *****
 -------------------------------------------------------------------
 Center     Atomic                   Forces (Hartrees/Bohr)
 Number     Number              X              Y              Z
 -------------------------------------------------------------------
      1        6          -0.000108898    0.000102041   -0.000137539
      2        1           0.000068459   -0.000065297    0.000004293
      3        1          -0.000027582   -0.000086102    0.000013724
      4        1           0.000013533   -0.000006964    0.000005281
      5        6           0.000463696   -0.000038900   -0.000095812
      6        1          -0.000181284   -0.000122867   -0.000096922
      7        1          -0.000240138   -0.000090036   -0.000036585
      8        6           0.002662038   -0.001544604   -0.001050024
      9        1           0.000468907   -0.000187054   -0.000322552
     10        1           0.000394042   -0.000394883   -0.000039969
     11        8           0.000809398    0.001906605    0.005607304
     12        8          -0.004322171    0.000528061   -0.003851199
 -------------------------------------------------------------------
 Cartesian Forces:  Max     0.005607304 RMS     0.001501660
 Leave Link  716 at Wed Apr  1 01:03:43 2015, MaxMem= 3758096384 cpu:       0.3
 (Enter /share/apps/g09/l103.exe)

 GradGradGradGradGradGradGradGradGradGradGradGradGradGradGradGradGradGrad
 Berny optimization.
 Internal  Forces:  Max     0.004141759 RMS     0.000558686
 Search for a local minimum.
 Step number   1 out of a maximum of  100
 All quantities printed in internal units (Hartrees-Bohrs-Radians)
 RMS Force = .54132D-03 SwitMx=.10000D-02 MixMth= 2
 Mixed Optimization -- En-DIIS/RFO-DIIS
 Second derivative matrix not updated -- first step.
     Eigenvalues ---    0.00393   0.00617   0.01254   0.02096   0.02417
     Eigenvalues ---    0.02813   0.03248   0.03773   0.04005   0.04893
     Eigenvalues ---    0.06490   0.07648   0.09522   0.10550   0.11241
     Eigenvalues ---    0.11673   0.13411   0.14156   0.16719   0.26369
     Eigenvalues ---    0.27271   0.30097   0.31110   0.31543   0.32036
     Eigenvalues ---    0.33002   0.34066   0.34218   0.688451000.00000
     Eigenvalues --- 1000.000001000.000001000.000001000.000001000.00000
     Eigenvalues --- 1000.000001000.000001000.000001000.000001000.00000
     Eigenvalues --- 1000.000001000.000001000.000001000.000001000.00000
     Eigenvalues --- 1000.000001000.000001000.000001000.000001000.00000
     Eigenvalues --- 1000.000001000.000001000.000001000.000001000.00000
     Eigenvalues --- 1000.000001000.000001000.000001000.000001000.00000
     Eigenvalues --- 1000.000001000.000001000.000001000.000001000.00000
     Eigenvalues --- 1000.000001000.000001000.000001000.000001000.00000
     Eigenvalues --- 1000.000001000.000001000.000001000.000001000.00000
     Eigenvalues --- 1000.000001000.000001000.000001000.000001000.00000
     Eigenvalues --- 1000.000001000.000001000.000001000.000001000.00000
     Eigenvalues --- 1000.000001000.000001000.000001000.000001000.00000
     Eigenvalues --- 1000.00000
 RFO step:  Lambda=-5.43810732D-05 EMin= 3.92748203D-03
 Linear search not attempted -- first point.
 Iteration  1 RMS(Cart)=  0.00170545 RMS(Int)=  0.00000850
 Iteration  2 RMS(Cart)=  0.00000471 RMS(Int)=  0.00000583
 Iteration  3 RMS(Cart)=  0.00000000 RMS(Int)=  0.00000583
 Iteration  1 RMS(Cart)=  0.00000006 RMS(Int)=  0.00000018
 Variable       Old X    -DE/DX   Delta X   Delta X   Delta X     New X
                                 (Linear)    (Quad)   (Total)
    R1        2.06871  -0.00001   0.00000   0.00014   0.00014   2.06886
    R2        2.06964   0.00005   0.00000   0.00015   0.00015   2.06978
    R3        2.07219   0.00000   0.00000   0.00001   0.00001   2.07220
    R4        2.89767   0.00001   0.00000  -0.00002  -0.00002   2.89765
    R5        5.46811  -0.00003   0.00000  -0.00030  -0.00030   5.46781
    R6        2.07812  -0.00014   0.00000   0.00001   0.00001   2.07813
    R7        2.09047   0.00014   0.00000   0.00044   0.00044   2.09091
    R8        2.81336   0.00002   0.00000   0.00058   0.00058   2.81395
    R9        5.88755  -0.00025   0.00000   0.00063   0.00063   5.88818
   R10        5.79809   0.00011   0.00000   0.00419   0.00419   5.80228
   R11        2.05191   0.00023   0.00000   0.00025   0.00025   2.05216
   R12        2.05288   0.00040   0.00000   0.00040   0.00041   2.05329
   R13        4.65195  -0.00081   0.00000   0.00000   0.00000   4.65195
   R14        6.03451  -0.00195   0.00000  -0.00125  -0.00125   6.03326
   R15        5.18707  -0.00059   0.00000  -0.00905  -0.00905   5.17801
   R16        5.16179  -0.00059   0.00000  -0.01363  -0.01364   5.14815
   R17        5.80795  -0.00034   0.00000  -0.01425  -0.01424   5.79371
   R18        2.33334  -0.00414   0.00000  -0.00639  -0.00638   2.32696
    A1        1.88817   0.00000   0.00000  -0.00016  -0.00016   1.88801
    A2        1.88265  -0.00002   0.00000  -0.00032  -0.00032   1.88232
    A3        1.93278  -0.00004   0.00000   0.00003   0.00003   1.93281
    A4        1.88181  -0.00003   0.00000  -0.00015  -0.00015   1.88166
    A5        1.93895   0.00003   0.00000   0.00079   0.00079   1.93974
    A6        1.93737   0.00005   0.00000  -0.00022  -0.00022   1.93716
    A7        1.98875  -0.00005   0.00000   0.00011   0.00011   1.98887
    A8        1.92426  -0.00007   0.00000  -0.00098  -0.00099   1.92327
    A9        1.90741  -0.00013   0.00000  -0.00100  -0.00100   1.90641
   A10        1.98809   0.00013   0.00000   0.00043   0.00043   1.98851
   A11        1.57968   0.00004   0.00000  -0.00022  -0.00022   1.57945
   A12        1.82941  -0.00008   0.00000  -0.00069  -0.00069   1.82872
   A13        1.90710  -0.00008   0.00000   0.00138   0.00138   1.90847
   A14        1.90072   0.00022   0.00000   0.00079   0.00079   1.90152
   A15        2.74490   0.00008   0.00000   0.00109   0.00109   2.74599
   A16        2.09656   0.00031   0.00000   0.00117   0.00115   2.09771
   A17        2.10083  -0.00043   0.00000   0.00088   0.00085   2.10168
   A18        2.05730  -0.00037   0.00000  -0.00140  -0.00140   2.05590
   A19        2.03518   0.00004   0.00000   0.00208   0.00205   2.03723
   A20        1.63595  -0.00013   0.00000  -0.00387  -0.00387   1.63208
   A21        0.73784   0.00001   0.00000  -0.00001  -0.00001   0.73783
   A22        0.87667  -0.00004   0.00000  -0.00045  -0.00044   0.87622
   A23        1.09607   0.00010   0.00000   0.00030   0.00030   1.09637
   A24        1.47603   0.00021   0.00000   0.00106   0.00105   1.47709
   A25        1.10618   0.00002   0.00000   0.00033   0.00033   1.10651
   A26        2.06113   0.00052   0.00000  -0.00074  -0.00074   2.06039
   A27        0.77468   0.00017   0.00000   0.00077   0.00076   0.77545
   A28        0.77699   0.00002   0.00000   0.00093   0.00092   0.77791
   A29        2.39128   0.00103   0.00000   0.00115   0.00115   2.39242
   A30        0.75825  -0.00004   0.00000  -0.00003  -0.00002   0.75822
   A31        0.89053   0.00012   0.00000   0.00046   0.00046   0.89098
   A32        1.11290   0.00002   0.00000   0.00099   0.00098   1.11388
   A33        2.74675   0.00103   0.00000   0.00122   0.00121   2.74797
   A34        0.68846   0.00020   0.00000   0.00214   0.00214   0.69060
   A35        1.99158   0.00082   0.00000   0.00264   0.00264   1.99422
    D1        2.42605   0.00012   0.00000   0.00125   0.00125   2.42730
    D2       -1.82592   0.00008   0.00000   0.00082   0.00082  -1.82510
    D3        0.29730   0.00011   0.00000   0.00036   0.00036   0.29766
    D4        1.08703   0.00011   0.00000   0.00161   0.00161   1.08864
    D5        3.08897  -0.00010   0.00000  -0.00033  -0.00033   3.08864
    D6       -1.06413   0.00017   0.00000   0.00025   0.00025  -1.06388
    D7       -0.25130  -0.00011   0.00000  -0.00025  -0.00025  -0.25155
    D8       -1.01168   0.00011   0.00000   0.00128   0.00128  -1.01041
    D9        0.99026  -0.00010   0.00000  -0.00066  -0.00066   0.98959
   D10        3.12035   0.00018   0.00000  -0.00009  -0.00009   3.12026
   D11       -2.35001  -0.00010   0.00000  -0.00058  -0.00058  -2.35059
   D12       -3.10544   0.00009   0.00000   0.00108   0.00108  -3.10436
   D13       -1.10350  -0.00012   0.00000  -0.00086  -0.00086  -1.10436
   D14        1.02659   0.00016   0.00000  -0.00028  -0.00028   1.02631
   D15        1.83942  -0.00012   0.00000  -0.00078  -0.00078   1.83864
   D16       -0.20180  -0.00008   0.00000  -0.00022  -0.00022  -0.20202
   D17       -0.66081  -0.00009   0.00000  -0.00038  -0.00038  -0.66119
   D18        0.22286  -0.00021   0.00000  -0.00062  -0.00062   0.22224
   D19        0.07253  -0.00018   0.00000  -0.00124  -0.00124   0.07129
   D20        0.68183  -0.00007   0.00000   0.00084   0.00083   0.68267
   D21        2.07060   0.00094   0.00000   0.00224   0.00224   2.07284
   D22        2.96661   0.00002   0.00000  -0.00643  -0.00643   2.96018
   D23       -0.52271  -0.00023   0.00000   0.00770   0.00770  -0.51501
   D24        0.99297   0.00026   0.00000  -0.00071  -0.00070   0.99227
   D25        0.80615   0.00008   0.00000  -0.00650  -0.00651   0.79964
   D26       -2.68317  -0.00016   0.00000   0.00763   0.00763  -2.67554
   D27       -1.16749   0.00032   0.00000  -0.00078  -0.00078  -1.16827
   D28       -1.18280   0.00010   0.00000  -0.00685  -0.00685  -1.18965
   D29        1.61106  -0.00015   0.00000   0.00728   0.00729   1.61835
   D30        3.12674   0.00034   0.00000  -0.00112  -0.00112   3.12562
   D31        0.13116   0.00005   0.00000   0.00015   0.00014   0.13130
   D32       -2.61462  -0.00015   0.00000  -0.00165  -0.00165  -2.61627
   D33       -1.60901   0.00005   0.00000   0.00068   0.00068  -1.60833
   D34       -1.28574   0.00033   0.00000   0.00308   0.00308  -1.28267
   D35        2.76964  -0.00008   0.00000  -0.00127  -0.00127   2.76837
   D36        0.02386  -0.00028   0.00000  -0.00307  -0.00307   0.02079
   D37        1.02947  -0.00008   0.00000  -0.00074  -0.00074   1.02874
   D38        1.35274   0.00020   0.00000   0.00166   0.00166   1.35440
         Item               Value     Threshold  Converged?
 Maximum Force            0.004385     0.000450     NO 
 RMS     Force            0.000541     0.000300     NO 
 Maximum Displacement     0.007752     0.001800     NO 
 RMS     Displacement     0.001704     0.001200     NO 
 Predicted change in Energy=-2.725552D-05
 GradGradGradGradGradGradGradGradGradGradGradGradGradGradGradGradGradGrad

 Leave Link  103 at Wed Apr  1 01:03:43 2015, MaxMem= 3758096384 cpu:       0.2
 (Enter /share/apps/g09/l202.exe)
                          Input orientation:                          
 ---------------------------------------------------------------------
 Center     Atomic      Atomic             Coordinates (Angstroms)
 Number     Number       Type             X           Y           Z
 ---------------------------------------------------------------------
      1          6           0       -1.793850   -0.987747    0.178846
      2          1           0       -0.919891   -1.625715    0.012229
      3          1           0       -2.649156   -1.438821   -0.335574
      4          1           0       -2.010470   -0.988454    1.253799
      5          6           0       -1.531695    0.435593   -0.327713
      6          1           0       -1.353657    0.425591   -1.412858
      7          1           0       -2.447225    1.043139   -0.197504
      8          6           0       -0.396917    1.119309    0.352109
      9          1           0       -0.013713    2.058419   -0.035877
     10          1           0       -0.144972    0.876457    1.380770
     11          8           0        1.521059   -0.161831   -0.508149
     12          8           0        2.459894   -0.304032    0.275845
 ---------------------------------------------------------------------
                    Distance matrix (angstroms):
                    1          2          3          4          5
     1  C    0.000000
     2  H    1.094792   0.000000
     3  H    1.095282   1.773768   0.000000
     4  H    1.096563   1.771147   1.771117   0.000000
     5  C    1.533370   2.176892   2.182248   2.181357   0.000000
     6  H    2.173664   2.535130   2.512944   3.089011   1.099699
     7  H    2.166341   3.082129   2.493985   2.534641   1.106463
     8  C    2.533994   2.814992   3.476998   2.803438   1.489076
     9  H    3.534702   3.794247   4.389312   3.864419   2.241205
    10  H    2.763816   2.955380   3.818021   2.640852   2.244165
    11  O    3.484641   2.893438   4.364765   4.032303   3.115892
    12  O    4.309434   3.638583   5.269153   4.626985   4.104158
                    6          7          8          9         10
     6  H    0.000000
     7  H    1.747668   0.000000
     8  C    2.124078   2.124062   0.000000
     9  H    2.521439   2.641760   1.085959   0.000000
    10  H    3.077103   2.796266   1.086552   1.849635   0.000000
    11  O    3.070433   4.158814   2.461706   2.740087   2.724283
    12  O    4.234058   5.110651   3.192662   3.434688   3.065900
                   11         12
    11  O    0.000000
    12  O    1.231373   0.000000
 Stoichiometry    C3H7O2(2)
 Framework group  C1[X(C3H7O2)]
 Deg. of freedom    30
 Full point group                 C1      NOp   1
 Largest Abelian subgroup         C1      NOp   1
 Largest concise Abelian subgroup C1      NOp   1
                         Standard orientation:                         
 ---------------------------------------------------------------------
 Center     Atomic      Atomic             Coordinates (Angstroms)
 Number     Number       Type             X           Y           Z
 ---------------------------------------------------------------------
      1          6           0       -1.793350   -0.988131    0.178277
      2          1           0       -0.919599   -1.626173    0.010853
      3          1           0       -2.648968   -1.438664   -0.336097
      4          1           0       -2.009521   -0.989536    1.253321
      5          6           0       -1.531098    0.435502   -0.327406
      6          1           0       -1.353516    0.426213   -1.412632
      7          1           0       -2.446442    1.043155   -0.196393
      8          6           0       -0.395888    1.118501    0.352415
      9          1           0       -0.012643    2.057797   -0.035081
     10          1           0       -0.143565    0.874883    1.380802
     11          8           0        1.521451   -0.162458   -0.509532
     12          8           0        2.460583   -0.305405    0.273970
 ---------------------------------------------------------------------
 Rotational constants (GHZ):      8.8566630      2.1465961      1.9131624
 Leave Link  202 at Wed Apr  1 01:03:43 2015, MaxMem= 3758096384 cpu:       0.1
 (Enter /share/apps/g09/l301.exe)
 Standard basis: 6-31G(d) (6D, 7F)
 Ernie: Thresh=  0.10000D-02 Tol=  0.10000D-05 Strict=F.
 There are    89 symmetry adapted basis functions of A   symmetry.
 Integral buffers will be    131072 words long.
 Raffenetti 2 integral format.
 Two-electron integral symmetry is turned on.
    89 basis functions,   168 primitive gaussians,    89 cartesian basis functions
    21 alpha electrons       20 beta electrons
       nuclear repulsion energy       165.3281106827 Hartrees.
 IExCor=  402 DFT=T Ex+Corr=B3LYP ExCW=0 ScaHFX=  0.200000
 ScaDFX=  0.800000  0.720000  1.000000  0.810000 ScalE2=  1.000000  1.000000
 IRadAn=      0 IRanWt=     -1 IRanGd=            0 ICorTp=0
 NAtoms=   12 NActive=   12 NUniq=   12 SFac= 7.50D-01 NAtFMM=   80 NAOKFM=F Big=F
 Leave Link  301 at Wed Apr  1 01:03:43 2015, MaxMem= 3758096384 cpu:       0.6
 (Enter /share/apps/g09/l302.exe)
 NPDir=0 NMtPBC=     1 NCelOv=     1 NCel=       1 NClECP=     1 NCelD=      1
         NCelK=      1 NCelE2=     1 NClLst=     1 CellRange=     0.0.
 One-electron integrals computed using PRISM.
 NBasis=    89 RedAO= T  NBF=    89
 NBsUse=    89 1.00D-06 NBFU=    89
 Precomputing XC quadrature grid using
 IXCGrd= 2 IRadAn=           0 IRanWt=          -1 IRanGd=           0 AccXCQ= 1.00D-10.
 NRdTot=     742 NPtTot=       94340 NUsed=       99703 NTot=       99735
 NSgBfM=    89    89    89    89    89 NAtAll=    12    12.
 Leave Link  302 at Wed Apr  1 01:03:43 2015, MaxMem= 3758096384 cpu:       1.7
 (Enter /share/apps/g09/l303.exe)
 DipDrv:  MaxL=1.
 Leave Link  303 at Wed Apr  1 01:03:43 2015, MaxMem= 3758096384 cpu:       0.2
 (Enter /share/apps/g09/l401.exe)
 Initial guess read from the read-write file.
 B after Tr=     0.000000    0.000000    0.000000
         Rot=    1.000000    0.000000    0.000000    0.000000 Ang=   0.00 deg.
 Guess basis will be translated and rotated to current coordinates.
 Initial guess orbital symmetries:
 Alpha Orbitals:
       Occupied  (A) (A) (A) (A) (A) (A) (A) (A) (A) (A) (A) (A)
                 (A) (A) (A) (A) (A) (A) (A) (A) (A)
       Virtual   (A) (A) (A) (A) (A) (A) (A) (A) (A) (A) (A) (A)
                 (A) (A) (A) (A) (A) (A) (A) (A) (A) (A) (A) (A)
                 (A) (A) (A) (A) (A) (A) (A) (A) (A) (A) (A) (A)
                 (A) (A) (A) (A) (A) (A) (A) (A) (A) (A) (A) (A)
                 (A) (A) (A) (A) (A) (A) (A) (A) (A) (A) (A) (A)
                 (A) (A) (A) (A) (A) (A) (A) (A)
 Beta  Orbitals:
       Occupied  (A) (A) (A) (A) (A) (A) (A) (A) (A) (A) (A) (A)
                 (A) (A) (A) (A) (A) (A) (A) (A)
       Virtual   (A) (A) (A) (A) (A) (A) (A) (A) (A) (A) (A) (A)
                 (A) (A) (A) (A) (A) (A) (A) (A) (A) (A) (A) (A)
                 (A) (A) (A) (A) (A) (A) (A) (A) (A) (A) (A) (A)
                 (A) (A) (A) (A) (A) (A) (A) (A) (A) (A) (A) (A)
                 (A) (A) (A) (A) (A) (A) (A) (A) (A) (A) (A) (A)
                 (A) (A) (A) (A) (A) (A) (A) (A) (A)
 The electronic state of the initial guess is 2-A.
 Initial guess <Sx>= 0.0000 <Sy>= 0.0000 <Sz>= 0.5000 <S**2>= 1.4801 S= 0.8153
 Leave Link  401 at Wed Apr  1 01:03:43 2015, MaxMem= 3758096384 cpu:       1.1
 (Enter /share/apps/g09/l508.exe)
 Direct SCF.
 Tight linear equation convergence will be used.
 UB3LYP wavefunction.
 Quadratic Convergence SCF Method.
 Line search only if initial step raises energy.
 Integral symmetry usage will be decided dynamically.
 ReadGW:  IGet=1 IStart=           2 Next=       99584 LGW=       99582.
 Pruned (  75, 302) grid will be used in CalDFT.
 Keep R1 and R2 ints in memory in canonical form, NReq=17125503.
 Symmetry not used in FoFDir.
 MinBra= 0 MaxBra= 2 Meth= 1.
 IRaf=       0 NMat=   1 IRICut=       1 DoRegI=T DoRafI=F ISym2E= 0 JSym2E=0.
 Iteration   1 EE= -268.796267511831                                    Grad=5.139D-03
 QCNR:  CnvC1=5.30D-09 CnvC2=5.30D-08
 LinEq1:  Iter=  0 NonCon=     1 RMS=9.54D-05 Max=2.01D-03
 AX will form     1 AO Fock derivatives at one time.
 LinEq1:  Iter=  1 NonCon=     1 RMS=1.83D-05 Max=3.58D-04
 LinEq1:  Iter=  2 NonCon=     1 RMS=1.88D-05 Max=5.15D-04
 LinEq1:  Iter=  3 NonCon=     1 RMS=1.91D-05 Max=4.26D-04
 LinEq1:  Iter=  4 NonCon=     1 RMS=1.24D-05 Max=4.52D-04
 LinEq1:  Iter=  5 NonCon=     1 RMS=6.55D-06 Max=1.12D-04
 LinEq1:  Iter=  6 NonCon=     1 RMS=4.66D-06 Max=7.19D-05
 LinEq1:  Iter=  7 NonCon=     1 RMS=1.57D-06 Max=1.69D-05
 LinEq1:  Iter=  8 NonCon=     1 RMS=7.72D-07 Max=8.61D-06
 LinEq1:  Iter=  9 NonCon=     1 RMS=3.73D-07 Max=5.09D-06
 LinEq1:  Iter= 10 NonCon=     1 RMS=1.49D-07 Max=2.56D-06
 LinEq1:  Iter= 11 NonCon=     1 RMS=4.41D-08 Max=5.56D-07
 LinEq1:  Iter= 12 NonCon=     1 RMS=1.77D-08 Max=2.40D-07
 LinEq1:  Iter= 13 NonCon=     1 RMS=1.06D-08 Max=1.56D-07
 LinEq1:  Iter= 14 NonCon=     1 RMS=3.78D-09 Max=6.82D-08
 LinEq1:  Iter= 15 NonCon=     0 RMS=7.96D-10 Max=1.05D-08
 Linear equations converged to 5.299D-09 5.299D-08 after    15 iterations.
 Angle between quadratic step and gradient=  45.24 degrees.
     ILin= 1 X=0.000D+00 Y=-2.687962675118D+02 DE= 0.00D+00
     ILin= 2 X=1.000D+00 Y=-2.687962902492D+02 DE=-2.27D-05
     ILin= 3 X=1.414D+00 Y=-2.687962863472D+02 DE=-1.88D-05
     An  expanding polynomial of degree  3 produced  1.0000
 Iteration   2 EE= -268.796290249183     Delta-E=       -0.000022737352 Grad=3.503D-06
 QCNR:  CnvC1=3.50D-11 CnvC2=3.50D-10
 LinEq1:  Iter=  0 NonCon=     1 RMS=1.38D-07 Max=6.02D-06
 LinEq1:  Iter=  1 NonCon=     1 RMS=8.44D-08 Max=1.28D-06
 LinEq1:  Iter=  2 NonCon=     1 RMS=4.95D-08 Max=1.52D-06
 LinEq1:  Iter=  3 NonCon=     1 RMS=5.54D-08 Max=1.34D-06
 LinEq1:  Iter=  4 NonCon=     1 RMS=3.46D-08 Max=4.98D-07
 LinEq1:  Iter=  5 NonCon=     1 RMS=1.31D-08 Max=2.23D-07
 LinEq1:  Iter=  6 NonCon=     1 RMS=4.42D-09 Max=5.64D-08
 LinEq1:  Iter=  7 NonCon=     1 RMS=2.50D-09 Max=2.76D-08
 LinEq1:  Iter=  8 NonCon=     1 RMS=1.12D-09 Max=1.51D-08
 LinEq1:  Iter=  9 NonCon=     1 RMS=3.74D-10 Max=5.28D-09
 LinEq1:  Iter= 10 NonCon=     1 RMS=1.16D-10 Max=1.33D-09
 LinEq1:  Iter= 11 NonCon=     1 RMS=6.42D-11 Max=6.77D-10
 LinEq1:  Iter= 12 NonCon=     1 RMS=3.20D-11 Max=3.80D-10
 LinEq1:  Iter= 13 NonCon=     0 RMS=8.86D-12 Max=1.08D-10
 Linear equations converged to 3.503D-11 3.503D-10 after    13 iterations.
 Angle between quadratic step and gradient=  50.50 degrees.
     ILin= 1 X=0.000D+00 Y=-2.687962902492D+02 DE= 0.00D+00
     ILin= 2 X=1.000D+00 Y=-2.687962902492D+02 DE=-1.16D-11
 Iteration   3 EE= -268.796290249194     Delta-E=       -0.000000000012 Grad=1.612D-11
 Rotation gradient small -- convergence achieved.
 SCF Done:  E(UB3LYP) =  -268.796290249     a.u. after    3 cycles
            Convg  =    0.1612D-10                    33 Fock formations.
              S**2 =  1.4827                  -V/T =  2.0093
 <Sx>= 0.0000 <Sy>= 0.0000 <Sz>= 0.5000 <S**2>= 1.4827 S= 0.8163
 <L.S>= 0.000000000000E+00
 Annihilation of the first spin contaminant:
 S**2 before annihilation     1.4827,   after     0.7680
 Leave Link  508 at Wed Apr  1 01:03:51 2015, MaxMem= 3758096384 cpu:      96.5
 (Enter /share/apps/g09/l701.exe)
 Compute integral first derivatives.
 ... and contract with generalized density number  0.
 Leave Link  701 at Wed Apr  1 01:03:51 2015, MaxMem= 3758096384 cpu:       1.8
 (Enter /share/apps/g09/l702.exe)
 L702 exits ... SP integral derivatives will be done elsewhere.
 Leave Link  702 at Wed Apr  1 01:03:51 2015, MaxMem= 3758096384 cpu:       0.2
 (Enter /share/apps/g09/l703.exe)
 Compute integral first derivatives, UseDBF=F ICtDFT=           0.
 Integral derivatives from FoFDir, PRISM(SPDF).
 Calling FoFJK, ICntrl=      2127 FMM=F ISym2X=0 I1Cent= 0 IOpClX= 1 NMat=1 NMatS=1 NMatT=0.
 FoFCou: FMM=F IPFlag=           0 FMFlag=      100000 FMFlg1=         800
         NFxFlg=           0 DoJE=F BraDBF=F KetDBF=F FulRan=T
         Omega=  0.000000  0.000000  1.000000  0.000000  0.000000 ICntrl=    2127 IOpCl=  1
         NMat0=    1 NMatS0=    1 NMatT0=    0 NMatD0=    1 NMtDS0=    0 NMtDT0=    0
         I1Cent=           0 NGrid=           0.
 Symmetry not used in FoFCou.
 Leave Link  703 at Wed Apr  1 01:03:52 2015, MaxMem= 3758096384 cpu:       7.7
 (Enter /share/apps/g09/l716.exe)
 Dipole        =-6.67064209D-01 2.53455882D-01 3.22191632D-02
 ***** Axes restored to original set *****
 -------------------------------------------------------------------
 Center     Atomic                   Forces (Hartrees/Bohr)
 Number     Number              X              Y              Z
 -------------------------------------------------------------------
      1        6           0.000012978    0.000014739    0.000007462
      2        1           0.000038934   -0.000053200   -0.000002997
      3        1           0.000008069    0.000001763    0.000000104
      4        1           0.000002360   -0.000021868    0.000013190
      5        6           0.000157643    0.000098815   -0.000045089
      6        1          -0.000032757   -0.000028324   -0.000081275
      7        1          -0.000094014   -0.000103128   -0.000031208
      8        6           0.002782773   -0.001804008   -0.001146077
      9        1           0.000281019   -0.000228558   -0.000136947
     10        1           0.000198843   -0.000170457   -0.000186803
     11        8          -0.002372580    0.002233346    0.002610846
     12        8          -0.000983268    0.000060880   -0.001001207
 -------------------------------------------------------------------
 Cartesian Forces:  Max     0.002782773 RMS     0.000943438
 Leave Link  716 at Wed Apr  1 01:03:52 2015, MaxMem= 3758096384 cpu:       0.2
 (Enter /share/apps/g09/l103.exe)

 GradGradGradGradGradGradGradGradGradGradGradGradGradGradGradGradGradGrad
 Berny optimization.
 Using GEDIIS/GDIIS optimizer.
 Internal  Forces:  Max     0.001180762 RMS     0.000258374
 Search for a local minimum.
 Step number   2 out of a maximum of  100
 All quantities printed in internal units (Hartrees-Bohrs-Radians)
 RMS Force = .14015D-03 SwitMx=.10000D-02 MixMth= 2
 Mixed Optimization -- En-DIIS/RFO-DIIS
 Swaping is turned off.
 Update second derivatives using D2CorX and points    1    2
 DE= -3.67D-05 DEPred=-2.73D-05 R= 1.35D+00
 SS=  1.41D+00  RLast= 3.05D-02 DXNew= 5.0454D-01 9.1493D-02
 Trust test= 1.35D+00 RLast= 3.05D-02 DXMaxT set to 3.00D-01
     Eigenvalues ---    0.00393   0.00615   0.01065   0.01910   0.02304
     Eigenvalues ---    0.02763   0.03239   0.03774   0.04000   0.04891
     Eigenvalues ---    0.06450   0.07662   0.09473   0.10580   0.11240
     Eigenvalues ---    0.11639   0.13442   0.14166   0.16705   0.26360
     Eigenvalues ---    0.27292   0.30083   0.31134   0.31566   0.32019
     Eigenvalues ---    0.33010   0.34065   0.34222   0.627971000.00000
     Eigenvalues --- 1000.000001000.000001000.000001000.000001000.00000
     Eigenvalues --- 1000.000001000.000001000.000001000.000001000.00000
     Eigenvalues --- 1000.000001000.000001000.000001000.000001000.00000
     Eigenvalues --- 1000.000001000.000001000.000001000.000001000.00000
     Eigenvalues --- 1000.000001000.000001000.000001000.000001000.00000
     Eigenvalues --- 1000.000001000.000001000.000001000.000001000.00000
     Eigenvalues --- 1000.000001000.000001000.000001000.000001000.00000
     Eigenvalues --- 1000.000001000.000001000.000001000.000001000.00000
[...]
     Eigenvalues --- 1000.000001000.000001000.000001000.000001000.00000
     Eigenvalues --- 1000.000001000.000001000.000001000.000001000.00000
     Eigenvalues --- 1000.000001000.000001000.000001000.000001000.00000
     Eigenvalues --- 1000.000001000.000001000.000001000.000001000.00000
     Eigenvalues --- 1000.00000
 Eigenvalue     1 is  -4.69D-05 should be greater than     0.000000 Eigenvector:
                          D34       D38       A26       A35       D27
   1                    0.55415   0.49039  -0.38623   0.18479  -0.18040
                          D30       D24       R17       A20       A29
   1                   -0.18033  -0.17911  -0.17618   0.17588  -0.16651
 Quadratic step=3.123D-01 exceeds max=3.000D-01 adjusted using Lamda=-2.030D-06.
 Angle between NR and scaled steps=   0.50 degrees.
 Angle between quadratic step and forces=  77.49 degrees.
 Linear search not attempted -- first point.
 Iteration  1 RMS(Cart)=  0.02820337 RMS(Int)=  0.00284980
 Iteration  2 RMS(Cart)=  0.00174638 RMS(Int)=  0.00159817
 Iteration  3 RMS(Cart)=  0.00001049 RMS(Int)=  0.00159811
 Iteration  4 RMS(Cart)=  0.00000007 RMS(Int)=  0.00159811
 Iteration  1 RMS(Cart)=  0.00005015 RMS(Int)=  0.00013956
 Iteration  2 RMS(Cart)=  0.00003390 RMS(Int)=  0.00015409
 Iteration  3 RMS(Cart)=  0.00002292 RMS(Int)=  0.00017738
 Iteration  4 RMS(Cart)=  0.00001549 RMS(Int)=  0.00019720
 Iteration  5 RMS(Cart)=  0.00001047 RMS(Int)=  0.00021194
 Iteration  6 RMS(Cart)=  0.00000708 RMS(Int)=  0.00022239
 Iteration  7 RMS(Cart)=  0.00000479 RMS(Int)=  0.00022965
 Iteration  8 RMS(Cart)=  0.00000324 RMS(Int)=  0.00023463
 Iteration  9 RMS(Cart)=  0.00000219 RMS(Int)=  0.00023803
 Iteration 10 RMS(Cart)=  0.00000148 RMS(Int)=  0.00024035
 Iteration 11 RMS(Cart)=  0.00000100 RMS(Int)=  0.00024192
 Iteration 12 RMS(Cart)=  0.00000068 RMS(Int)=  0.00024298
 Variable       Old X    -DE/DX   Delta X   Delta X   Delta X     New X
                                 (Linear)    (Quad)   (Total)
    R1        2.06896  -0.00005   0.00000  -0.00006  -0.00053   2.06843
    R2        2.06980  -0.00001   0.00000  -0.00001  -0.00001   2.06979
    R3        2.07222   0.00001   0.00000   0.00004   0.00004   2.07226
    R4        2.89797  -0.00001   0.00000   0.00018   0.00026   2.89823
    R5        5.46416  -0.00002   0.00000  -0.04148  -0.04192   5.42223
    R6        2.07838  -0.00008   0.00000  -0.00012   0.00155   2.07993
    R7        2.09094  -0.00001   0.00000   0.00003   0.00003   2.09097
    R8        2.81378   0.00025   0.00000   0.00001   0.00036   2.81414
    R9        5.88800  -0.00056   0.00000  -0.01525  -0.01488   5.87312
   R10        5.80388  -0.00021   0.00000  -0.01081  -0.01013   5.79375
   R11        2.05173   0.00023   0.00000   0.00000  -0.00017   2.05156
   R12        2.05264   0.00018   0.00000   0.00015   0.00101   2.05365
   R13        4.65195  -0.00135   0.00000   0.00000  -0.00001   4.65193
   R14        6.03799  -0.00055   0.00000   0.01001   0.01086   6.04885
   R15        5.15903  -0.00077   0.00000   0.00377   0.00410   5.16313
   R16        5.12632  -0.00064   0.00000   0.00797   0.00516   5.13148
   R17        5.77591  -0.00001   0.00000  -0.02075  -0.01622   5.75969
   R18        2.32483   0.00049   0.00000   0.00027  -0.00152   2.32330
    A1        1.88786   0.00006   0.00000   0.00021   0.00003   1.88789
    A2        1.88222  -0.00002   0.00000   0.00014   0.00015   1.88237
    A3        1.93321  -0.00006   0.00000  -0.00025  -0.00001   1.93319
    A4        1.88158  -0.00001   0.00000  -0.00006  -0.00003   1.88155
    A5        1.93963  -0.00003   0.00000  -0.00020  -0.00035   1.93927
    A6        1.93719   0.00005   0.00000   0.00018   0.00023   1.93742
    A7        1.98880  -0.00010   0.00000   0.00397   0.00404   1.99284
    A8        1.92281   0.00003   0.00000  -0.00005   0.00094   1.92375
    A9        1.90540  -0.00002   0.00000  -0.00045  -0.00050   1.90490
   A10        1.98795  -0.00006   0.00000  -0.00009  -0.00007   1.98788
   A11        1.57810   0.00011   0.00000  -0.00769  -0.00806   1.57004
   A12        1.82836  -0.00010   0.00000   0.00040  -0.00022   1.82814
   A13        1.90897  -0.00002   0.00000   0.00009  -0.00092   1.90805
   A14        1.90344   0.00016   0.00000   0.00014   0.00077   1.90421
   A15        2.74844  -0.00013   0.00000   0.00754   0.00810   2.75654
   A16        2.10021  -0.00008   0.00000   0.00057   0.00106   2.10127
   A17        2.10354  -0.00020   0.00000  -0.00029   0.00039   2.10393
   A18        2.05381   0.00029   0.00000  -0.03761  -0.04088   2.01293
   A19        2.03961   0.00007   0.00000   0.00002  -0.00076   2.03884
   A20        1.62417   0.00016   0.00000   0.04929   0.04956   1.67373
   A21        0.73820   0.00002   0.00000   0.00338   0.00338   0.74159
   A22        0.87623   0.00001   0.00000   0.00369   0.00414   0.88037
   A23        1.09709   0.00008   0.00000   0.00635   0.00650   1.10359
   A24        1.47928   0.00018   0.00000   0.00554   0.00565   1.48493
   A25        1.10731   0.00005   0.00000   0.00666   0.00709   1.11440
   A26        2.05805   0.00014   0.00000  -0.11413  -0.11464   1.94341
   A27        0.77681   0.00016   0.00000   0.00155   0.00164   0.77845
   A28        0.77920   0.00012   0.00000   0.00122   0.00166   0.78086
   A29        2.39435   0.00029   0.00000  -0.04067  -0.04403   2.35032
   A30        0.75817   0.00009   0.00000   0.00142   0.00137   0.75954
   A31        0.89168   0.00014   0.00000   0.00017  -0.00001   0.89167
   A32        1.11535   0.00014   0.00000   0.00115   0.00168   1.11703
   A33        2.75022   0.00031   0.00000  -0.03323  -0.04454   2.70569
   A34        0.69379   0.00019   0.00000  -0.00079  -0.00067   0.69312
   A35        1.99936   0.00016   0.00000   0.05931   0.06149   2.06085
    D1        2.42958   0.00005   0.00000   0.00256   0.00265   2.43223
    D2       -1.82304   0.00006   0.00000   0.00267   0.00270  -1.82034
    D3        0.29994   0.00008   0.00000   0.00283   0.00307   0.30301
    D4        1.08732   0.00011   0.00000  -0.00168  -0.00200   1.08532
    D5        3.08607   0.00000   0.00000  -0.00148  -0.00204   3.08403
    D6       -1.06509   0.00015   0.00000  -0.00169  -0.00146  -1.06656
    D7       -0.25329  -0.00010   0.00000  -0.00060  -0.00075  -0.25404
    D8       -1.01173   0.00009   0.00000  -0.00164  -0.00179  -1.01353
    D9        0.98701  -0.00002   0.00000  -0.00144  -0.00183   0.98519
   D10        3.11904   0.00013   0.00000  -0.00166  -0.00126   3.11778
   D11       -2.35234  -0.00012   0.00000  -0.00056  -0.00054  -2.35288
   D12       -3.10552   0.00008   0.00000  -0.00155  -0.00167  -3.10719
   D13       -1.10678  -0.00003   0.00000  -0.00135  -0.00170  -1.10848
   D14        1.02525   0.00012   0.00000  -0.00157  -0.00113   1.02412
   D15        1.83705  -0.00013   0.00000  -0.00047  -0.00041   1.83664
   D16       -0.20346  -0.00007   0.00000  -0.00169  -0.00182  -0.20528
   D17       -0.66277  -0.00009   0.00000  -0.00116  -0.00134  -0.66410
   D18        0.22013  -0.00003   0.00000  -0.00340  -0.00372   0.21641
   D19        0.06828  -0.00007   0.00000  -0.00433  -0.00453   0.06375
   D20        0.68246   0.00006   0.00000  -0.00573  -0.00562   0.67684
   D21        2.07654   0.00023   0.00000   0.04964   0.05135   2.12789
   D22        2.94730   0.00035   0.00000  -0.00947  -0.00965   2.93765
   D23       -0.50308  -0.00042   0.00000  -0.00833  -0.00719  -0.51027
   D24        0.99031  -0.00005   0.00000  -0.04767  -0.04532   0.94499
   D25        0.78738   0.00036   0.00000  -0.00941  -0.01012   0.77726
   D26       -2.66300  -0.00041   0.00000  -0.00827  -0.00766  -2.67066
   D27       -1.16960  -0.00004   0.00000  -0.04761  -0.04579  -1.21540
   D28       -1.20278   0.00041   0.00000  -0.01001  -0.00977  -1.21255
   D29        1.63003  -0.00036   0.00000  -0.00887  -0.00731   1.62271
   D30        3.12342   0.00001   0.00000  -0.04821  -0.04545   3.07797
   D31        0.13222   0.00005   0.00000   0.00083   0.00088   0.13311
   D32       -2.61818  -0.00001   0.00000  -0.00352  -0.00359  -2.62177
   D33       -1.60684   0.00013   0.00000  -0.00628  -0.00646  -1.61330
   D34       -1.27516   0.00013   0.00000   0.16745   0.16444  -1.11073
   D35        2.76812  -0.00005   0.00000  -0.00689  -0.00664   2.76148
   D36        0.01771  -0.00011   0.00000  -0.01124  -0.01112   0.00660
   D37        1.02906   0.00003   0.00000  -0.01401  -0.01399   1.01507
   D38        1.36073   0.00003   0.00000   0.15972   0.15691   1.51764
         Item               Value     Threshold  Converged?
 Maximum Force            0.000077     0.000450     YES
 RMS     Force            0.000013     0.000300     YES
 Maximum Displacement     0.186580     0.001800     NO 
 RMS     Displacement     0.028771     0.001200     NO 
 Predicted change in Energy=-1.400962D-06
 GradGradGradGradGradGradGradGradGradGradGradGradGradGradGradGradGradGrad

 Leave Link  103 at Wed Apr  1 01:04:29 2015, MaxMem= 3758096384 cpu:       0.2
 (Enter /share/apps/g09/l9999.exe)
 1\1\GINC-COMPUTE-0-12\Freq\UB3LYP\6-31G(d)\C3H7O2(2)\HETANJIN\01-Apr-2
 015\0\\#P Geom=AllCheck Guess=TCheck SCRF=Check GenChk UB3LYP/6-31G(d)
  Freq\\C3H7O2_62_b3631gd using cbs-qb3 to calculate energy\\0,2\C,-1.7
 931264571,-0.9872120437,0.1788047004\H,-0.9185315476,-1.6241551099,0.0
 112413962\H,-2.6482762949,-1.4392654243,-0.3350370597\H,-2.0088561787,
 -0.9887157812,1.2539443923\C,-1.5335917832,0.4368893279,-0.3274724122\
 H,-1.3553018953,0.4269423691,-1.4127097872\H,-2.4512708107,1.041399434
 1,-0.1981376048\C,-0.4001651304,1.1219141897,0.3530970283\H,-0.0086915
 327,2.0556131966,-0.0390283034\H,-0.1398110845,0.8723673123,1.37769234
 69\O,1.5197468085,-0.1580346054,-0.5046073272\O,2.4572839067,-0.305833
 8651,0.2781356304\\Version=EM64L-G09RevA.01\State=2-A\HF=-268.7963014\
 S2=1.484011\S2-1=0.\S2A=0.768093\RMSD=0.000e+00\RMSF=9.874e-04\ZeroPoi
 nt=0.094343\Thermal=0.1017263\Dipole=-0.6611468,0.2501064,0.0293163\Di
 poleDeriv=0.0851343,-0.0139178,0.0090868,0.042926,0.0351397,0.0121574,
 -0.0741567,0.0069359,0.1218244,-0.0446933,0.1076795,0.0250424,0.047833
 1,-0.0177115,0.0063068,0.036091,-0.0030104,0.0487767,-0.0884183,-0.096
 3691,-0.0752517,-0.1055978,-0.0101325,-0.0160169,-0.0808116,-0.0364174
 ,0.012801,0.059143,-0.0067192,0.028643,0.0027451,0.0224412,-0.0147125,
 0.057542,0.0277944,-0.1555224,-0.0417994,-0.0149466,-0.0411618,0.11137
 07,0.091008,0.0194131,-0.0531188,0.011395,0.0828844,0.0277794,-0.01664
 27,0.0345524,-0.1088982,0.0242939,0.0044001,-0.0096738,0.0308906,-0.14
 7052,-0.1948361,0.110438,0.0019674,-0.0223937,-0.0334094,-0.0037664,-0
 .0260181,-0.0003338,0.0658614,-0.1149744,0.2061064,0.1058177,0.3897586
 ,-0.0848358,-0.1123249,0.3796391,-0.1608119,0.0996671,0.0248624,-0.075
 9817,-0.0155532,-0.0787186,-0.0679229,0.0339924,-0.0169657,0.0420292,0
 .0307784,0.026458,-0.028192,-0.0338838,-0.0191516,0.0418277,0.0463806,
 -0.0379845,0.0148474,-0.0662059,1.405336,-0.6208925,-0.2016431,-0.4213
 339,0.132462,0.0499206,0.7438225,-0.3267711,-0.1610411,-1.1439917,0.44
 94377,0.1623838,0.1614602,-0.1331603,-0.0257504,-0.9183654,0.3934519,0
 .067228\Polar=78.6811015,-12.6168802,42.6606017,1.1544961,0.6036645,37
 .5122945\PG=C01 [X(C3H7O2)]\NImag=1\\0.58135464,-0.01464825,0.49061795
 ,0.00926267,0.03365827,0.56578741,-0.22304061,0.12351437,0.03386911,0.
 23903172,0.12169583,-0.13527607,-0.02510656,-0.13419718,0.14849921,0.0
 3412530,-0.02547724,-0.05774958,-0.03797652,0.02497638,0.05714465,-0.2
 1225127,-0.08339190,-0.09870443,-0.01952523,-0.01132489,-0.01318543,0.
 22703866,-0.08218620,-0.09178956,-0.05051854,0.01453297,0.00898009,0.0
 1071874,0.09247120,0.09962847,-0.09903087,-0.05171325,-0.10986723,0.00
 522840,0.00348410,0.00260407,0.10881435,0.05431669,0.11489811,-0.06072
 764,0.00096192,0.05034685,-0.00432486,-0.00053176,0.02733416,0.0065515
 6,0.00049765,-0.02659661,0.05946651,0.00098853,-0.04897987,-0.00476654
 ,0.00205530,-0.00019986,-0.01926707,0.00398849,-0.00068186,-0.01290822
 ,0.00010404,0.05310146,0.05035930,-0.00360997,-0.30069404,0.00057433,-
 0.00048926,-0.00384581,0.00334298,-0.00041354,-0.01436594,-0.05591309,
 0.00192224,0.32677772,-0.07862892,-0.01434527,0.00536060,0.00613634,0.
 02440829,-0.00983501,-0.00302041,-0.02454693,0.01059766,-0.00204147,-0
 .00718555,0.00214090,0.48976138,-0.01559357,-0.17708090,0.03561521,-0.
 00437191,-0.01930725,0.00740657,-0.00036800,-0.01223289,0.00566761,0.0
 0002336,-0.00053640,0.00036471,-0.00746368,0.48004214,0.00502758,0.035
 58547,-0.09730991,-0.00160681,-0.00535529,0.00152814,-0.00150383,-0.01
 662791,0.00589145,0.00470961,0.03352776,-0.01048646,-0.00763645,0.0013
 0658,0.55244201,-0.00168181,-0.00004747,0.00512204,0.00023433,-0.00003
 849,-0.00074015,-0.00014686,0.00005505,0.00024323,0.00067550,-0.001408
 70,-0.00007026,-0.05133149,-0.00087450,0.04261704,0.05982375,-0.006124
 98,0.00040659,0.03234380,0.00054761,0.00122610,-0.00042581,-0.00005125
 ,0.00122809,-0.00061671,-0.00110412,-0.00626396,0.00237359,-0.00121247
 ,-0.05079226,-0.00626365,0.00218106,0.05366746,0.00192791,0.00053666,-
 0.00920550,-0.00048280,0.00000807,0.00037979,0.00033350,0.00017264,0.0
 0055695,0.00020162,0.00206616,0.00094278,0.04435902,-0.00314439,-0.291
 03373,-0.04508453,0.00439126,0.31930279,0.00556524,-0.00371388,-0.0005
 4407,0.00093203,-0.00172432,0.00040175,0.00065039,0.00049846,-0.000121
 29,0.00020025,0.00033499,-0.00046734,-0.20465507,0.11229136,0.02975125
 ,-0.00575857,0.00429353,0.00253284,0.22957406,0.02639324,-0.02017646,-
 0.00385670,-0.00189057,-0.00587886,0.00289123,-0.00013004,0.00110464,-
 0.00081705,-0.00011996,0.00150272,0.00023148,0.09949035,-0.11280408,-0
 .01763050,0.00178495,-0.00074077,-0.00084568,-0.11608009,0.12821721,-0
 .00940976,0.00778632,0.00125408,0.00023044,0.00230947,0.00007041,0.000
 19594,-0.00079666,0.00020643,-0.00067408,-0.00038572,0.00033297,0.0229
 2135,-0.01436510,-0.04741091,0.02851315,-0.01799508,-0.00575586,-0.027
 00895,0.01781397,0.05159348,-0.00904050,-0.00916009,-0.00129624,0.0009
 5614,0.00163912,-0.00008256,0.00060585,-0.00043290,0.00010069,0.000650
 22,0.00124636,-0.00081743,-0.15232841,-0.06867698,-0.06040352,0.000118
 17,0.00216513,-0.00287584,-0.02713607,-0.01109082,-0.01585778,0.304506
 91,-0.02854004,-0.01931123,-0.01422268,-0.00018802,0.00198965,-0.00078
 737,-0.00108857,-0.00546751,0.00198807,0.00021238,0.00160329,-0.000873
 75,-0.06547596,-0.10745812,-0.01894569,0.00063024,0.00197643,-0.000533
 21,0.00631044,0.00962476,0.00685128,0.19850793,0.43801671,0.00961613,0
 .00232934,0.00824785,-0.00009359,0.00065412,0.00019490,0.00089909,0.00
 419514,-0.00079947,0.00124544,0.00084479,0.00057329,-0.06255427,-0.024
 59013,-0.11477486,-0.02915194,-0.01339517,-0.01592010,-0.00306666,0.00
 290021,0.00042367,0.13788147,-0.15274484,0.52824377,-0.00326014,0.0000
 6559,-0.00390155,0.00013224,-0.00019226,-0.00005473,0.00005259,-0.0015
 4767,0.00054247,-0.00005687,0.00024904,0.00007985,-0.00217522,-0.02071
 587,0.01175112,0.00072858,0.00058808,-0.00069921,0.00074227,0.00118121
 ,0.00025121,-0.07190603,-0.10135039,0.02440535,0.07122388,-0.00276178,
 0.00007559,-0.00153304,0.00011521,0.00027066,-0.00002409,-0.00014836,-
 0.00069543,0.00035569,0.00010973,0.00011925,0.00008849,-0.00000315,-0.
 00574037,0.00513860,0.00033104,0.00031455,0.00011175,-0.00089698,-0.00
 025133,0.00006507,-0.10788695,-0.26202993,0.10425616,0.11361998,0.2698
 0590,-0.00255347,-0.00065521,-0.00104250,0.00007414,0.00009245,-0.0001
 4811,-0.00032903,-0.00086633,0.00054295,-0.00027976,-0.00023692,0.0003
 6192,-0.00410061,-0.01281048,0.00748441,0.00100594,0.00011756,0.001020
 78,-0.00059699,0.00002429,0.00028644,0.02559058,0.10036384,-0.09039127
 ,-0.02911216,-0.10821435,0.08688786,0.00120579,0.00123658,-0.00006609,
 -0.00000873,-0.00014676,0.00007007,0.00001377,0.00027626,0.00025832,-0
 .00023819,-0.00038165,0.00076657,0.00147824,0.00467605,-0.02362910,-0.
 00348418,-0.00178759,-0.00078929,-0.00074777,0.00034621,0.00076540,-0.
 05201955,-0.00160388,-0.07248818,0.00569780,-0.00304160,0.00948480,0.0
 4884189,0.00101364,0.00150234,-0.00131319,0.00016324,-0.00026648,-0.00
 009783,0.00020371,0.00002704,0.00020071,-0.00013922,0.00028365,0.00034
 974,-0.00358395,0.00535229,-0.01087674,-0.00229416,-0.00068328,-0.0026
 1604,-0.00060400,-0.00028362,-0.00107761,-0.00109058,-0.05978231,0.073
 05447,0.00569594,-0.00109106,0.02380394,-0.00017021,0.05572536,0.00079
 925,0.00113213,0.00076347,0.00000786,-0.00044089,-0.00004727,0.0001513
 2,-0.00003585,0.00031024,-0.00034804,-0.00074691,0.00034411,0.00031607
 ,0.00316721,-0.00677176,-0.00233371,-0.00046356,-0.00049663,-0.0001032
 2,-0.00015893,-0.00090426,-0.07794793,0.07685984,-0.31039085,-0.003248
 58,-0.00022820,-0.00489211,0.08274679,-0.07894597,0.32257384,0.0010131
 7,-0.00233608,0.00199291,-0.00061483,0.00162459,-0.00009471,0.00019505
 ,0.00130554,-0.00012612,-0.00030800,-0.00000519,-0.00018565,0.00238887
 ,-0.00391470,0.00011544,0.00124983,0.00208353,0.00118749,0.00309954,0.
 00291837,0.00133559,0.01431637,-0.01573537,-0.00969841,-0.00028414,-0.
 00066331,0.00069202,-0.00082179,0.00122809,-0.00130492,0.37662009,-0.0
 0023105,0.00034064,-0.00053510,-0.00023590,-0.00027439,0.00014297,-0.0
 0018944,-0.00023438,0.00005300,0.00000135,0.00004412,0.00008962,-0.001
 98322,0.00206346,0.00052538,-0.00038784,-0.00049091,-0.00004830,-0.001
 34045,-0.00092396,-0.00044860,-0.00718775,0.00106073,-0.00014411,0.002
 26959,-0.00057664,-0.00157310,0.00117942,-0.00122165,-0.00020260,-0.05
 118863,0.01293254,0.00027878,-0.00092695,0.00098602,0.00015205,0.00094
 337,-0.00023829,0.00010305,0.00066251,-0.00005236,-0.00016738,-0.00012
 981,-0.00010173,0.00060851,-0.00127149,0.00037330,0.00013759,0.0015689
 1,0.00122599,0.00060616,0.00136640,0.00089172,0.00170801,-0.00733462,-
 0.01621273,0.00035637,-0.00069708,-0.00013860,0.00448267,-0.00337496,-
 0.00210046,0.33134391,-0.03913787,0.31229480,-0.00050794,0.00186448,-0
 .00144180,0.00009147,-0.00121217,0.00003783,-0.00016411,-0.00092341,0.
 00008976,0.00015298,0.00001435,0.00018985,-0.00558385,0.00498844,0.000
 80765,-0.00042725,-0.00157853,-0.00061069,-0.00246630,-0.00280286,-0.0
 0126250,-0.00872310,0.00832125,0.00300558,-0.00089498,0.00122617,0.000
 12453,0.00008272,-0.00042250,0.00126512,-0.39685416,0.05929391,-0.3396
 0972,0.41529452,-0.00000536,-0.00032903,0.00023506,-0.00004510,0.00023
 720,-0.00005648,0.00002905,0.00013328,-0.00001065,-0.00001537,0.000007
 45,-0.00003336,0.00190152,-0.00150562,-0.00038402,0.00006883,0.0001519
 6,-0.00009892,0.00063093,0.00060976,0.00024268,0.00196753,-0.00022248,
 0.00264001,0.00013676,-0.00020119,-0.00004568,-0.00058283,0.00043771,0
 .00006374,0.06468316,-0.01271956,0.04833158,-0.06876912,0.01340052,-0.
 00040282,0.00135441,-0.00117006,0.00002340,-0.00107598,0.00010711,-0.0
 0011751,-0.00080689,0.00007479,0.00014128,0.00008023,0.00016119,-0.002
 17775,0.00265371,0.00006832,-0.00025840,-0.00163513,-0.00101725,-0.001
 38349,-0.00191871,-0.00098818,-0.00599945,0.00937912,0.01080580,-0.000
 37014,0.00068100,0.00002822,-0.00160196,0.00089348,0.00161168,-0.32525
 755,0.04127871,-0.29692767,0.33740439,-0.05088396,0.28724603\\-0.00001
 939,0.00002139,-0.00000593,-0.00002845,0.00000380,0.00000341,-0.000007
 52,-0.00000519,-0.00000046,0.00000188,0.00000825,-0.00000829,-0.000014
 88,-0.00001512,0.00002195,-0.00001346,-0.00001129,0.00000760,0.0000062
 1,0.00002189,-0.00000212,-0.00317363,0.00214744,0.00144825,-0.00005431
 ,0.00002400,-0.00000172,0.00002249,-0.00002878,-0.00002794,0.00338942,
 -0.00221217,-0.00138218,-0.00010836,0.00004579,-0.00005255\\\@


 THOSE WHO TRY TO PASS CHEMISTRY OFF AS A NEW SCIENCE
 SHOW HOW LITTLE KNOWLEDGE THEY HAVE OF THE CHARACTER
 AND LITERATURE OF THE ANCIENTS.
   -- NICOLAS LEFEVRE
 "COURS DE CHYMIE" J.-N.LELOUP, PARIS, 1751
 Job cpu time:  0 days  0 hours  3 minutes 26.6 seconds.
 File lengths (MBytes):  RWF=     29 Int=      0 D2E=      0 Chk=      3 Scr=      1
 Normal termination of Gaussian 09 at Wed Apr  1 01:04:29 2015.
