 Entering Gaussian System, Link 0=/share/apps/g09/g09
 Input=C3H7O2_62_b3631gd_236.gjf
 Output=C3H7O2_62_b3631gd_236.log
 Initial command:
 /share/apps/g09/l1.exe /state/partition1/Gau-9433.inp -scrdir=/state/partition1/
 Entering Link 1 = /share/apps/g09/l1.exe PID=      9434.
  
 Copyright (c) 1988,1990,1992,1993,1995,1998,2003,2009, Gaussian, Inc.
                  All Rights Reserved.
  
 This is part of the Gaussian(R) 09 program.  It is based on
 the Gaussian(R) 03 system (copyright 2003, Gaussian, Inc.),
 the Gaussian(R) 98 system (copyright 1998, Gaussian, Inc.),
 the Gaussian(R) 94 system (copyright 1995, Gaussian, Inc.),
 the Gaussian 92(TM) system (copyright 1992, Gaussian, Inc.),
 the Gaussian 90(TM) system (copyright 1990, Gaussian, Inc.),
 the Gaussian 88(TM) system (copyright 1988, Gaussian, Inc.),
 the Gaussian 86(TM) system (copyright 1986, Carnegie Mellon
 University), and the Gaussian 82(TM) system (copyright 1983,
 Carnegie Mellon University). Gaussian is a federally registered
 trademark of Gaussian, Inc.
  
 This software contains proprietary and confidential information,
 including trade secrets, belonging to Gaussian, Inc.
  
 This software is provided under written license and may be
 used, copied, transmitted, or stored only in accord with that
 written license.
  
 The following legend is applicable only to US Government
 contracts under FAR:
  
                    RESTRICTED RIGHTS LEGEND
  
 Use, reproduction and disclosure by the US Government is
 subject to restrictions as set forth in subparagraphs (a)
 and (c) of the Commercial Computer Software - Restricted
 Rights clause in FAR 52.227-19.
  
 Gaussian, Inc.
 340 Quinnipiac St., Bldg. 40, Wallingford CT 06492
  
  
 ---------------------------------------------------------------
 Warning -- This program may not be used in any manner that
 competes with the business of Gaussian, Inc. or will provide
 assistance to any competitor of Gaussian, Inc.  The licensee
 of this program is prohibited from giving any competitor of
 Gaussian, Inc. access to this program.  By using this program,
 the user acknowledges that Gaussian, Inc. is engaged in the
 business of creating and licensing software in the field of
 computational chemistry and represents and warrants to the
 licensee that it is not a competitor of Gaussian, Inc. and that
 it will not use this program in any manner prohibited above.
 ---------------------------------------------------------------
  

 Cite this work as:
 Gaussian 09, Revision A.01,
 M. J. Frisch, G. W. Trucks, H. B. Schlegel, G. E. Scuseria, 
 M. A. Robb, J. R. Cheeseman, G. Scalmani, V. Barone, B. Mennucci, 
 G. A. Petersson, H. Nakatsuji, M. Caricato, X. Li, H. P. Hratchian, 
 A. F. Izmaylov, J. Bloino, G. Zheng, J. L. Sonnenberg, M. Hada, 
 M. Ehara, K. Toyota, R. Fukuda, J. Hasegawa, M. Ishida, T. Nakajima, 
 Y. Honda, O. Kitao, H. Nakai, T. Vreven, J. A. Montgomery, Jr., 
 J. E. Peralta, F. Ogliaro, M. Bearpark, J. J. Heyd, E. Brothers, 
 K. N. Kudin, V. N. Staroverov, R. Kobayashi, J. Normand, 
 K. Raghavachari, A. Rendell, J. C. Burant, S. S. Iyengar, J. Tomasi, 
 M. Cossi, N. Rega, J. M. Millam, M. Klene, J. E. Knox, J. B. Cross, 
 V. Bakken, C. Adamo, J. Jaramillo, R. Gomperts, R. E. Stratmann, 
 O. Yazyev, A. J. Austin, R. Cammi, C. Pomelli, J. W. Ochterski, 
 R. L. Martin, K. Morokuma, V. G. Zakrzewski, G. A. Voth, 
 P. Salvador, J. J. Dannenberg, S. Dapprich, A. D. Daniels, 
 O. Farkas, J. B. Foresman, J. V. Ortiz, J. Cioslowski, 
 and D. J. Fox, Gaussian, Inc., Wallingford CT, 2009.
 
 ******************************************
 Gaussian 09:  EM64L-G09RevA.01  8-May-2009
                 1-Apr-2015 
 ******************************************
 %mem=28GB
 %nprocshared=12
 Will use up to   12 processors via shared memory.
 %chk=C3H7O2_62_b3631gd_236.chk
 -------------------------------------------------
 #p ub3lyp/6-31g(d) opt=(modredundant) freq scf=qc
 -------------------------------------------------
 1/14=-1,18=120,19=15,26=3,38=1/1,3;
 2/9=110,12=2,17=6,18=5,40=1/2;
 3/5=1,6=6,7=1,11=2,16=1,25=1,30=1,71=1,74=-5,116=2/1,2,3;
 4//1;
 5/5=2,8=3,38=5/8;
 6/7=2,8=2,9=2,10=2,28=1/1;
 7//1,2,3,16;
 1/14=-1,18=20,19=15/3(2);
 2/9=110/2;
 99//99;
 2/9=110/2;
 3/5=1,6=6,7=1,11=2,16=1,25=1,30=1,71=1,74=-5,116=2/1,2,3;
 4/5=5,16=3/1;
 5/5=2,8=3,38=5/8;
 7//1,2,3,16;
 1/14=-1,18=20,19=15/3(-5);
 2/9=110/2;
 6/7=2,8=2,9=2,10=2,19=2,28=1/1;
 99/9=1/99;
 Leave Link    1 at Wed Apr  1 01:03:19 2015, MaxMem= 3758096384 cpu:       0.5
 (Enter /share/apps/g09/l101.exe)
 ---------------------------------------------------
 C3H7O2_62_b3631gd using cbs-qb3 to calculate energy
 ---------------------------------------------------
 Symbolic Z-matrix:
 Charge =  0 Multiplicity = 2
 C                    -1.79638  -0.96729   0.17447 
 H                    -0.94689  -1.62868  -0.02288 
 H                    -2.6766   -1.38135  -0.32855 
 H                    -1.98935  -0.97976   1.25379 
 C                    -1.50087   0.45531  -0.31482 
 H                    -1.34689   0.46105  -1.40342 
 H                    -2.38933   1.09295  -0.15005 
 C                    -0.3288    1.09065   0.34769 
 H                     0.05295   2.03722  -0.02341 
 H                    -0.0846    0.84452   1.37738 
 O                     1.47047  -0.17365  -0.51361 
 O                     2.42165  -0.31609   0.27024 
 
 NAtoms=     12 NQM=     12 NQMF=      0 NMic=      0 NMicF=      0 NTot=     12.
 The following ModRedundant input section has been read:
 B    8   11 F                                                                 
                    Isotopes and Nuclear Properties:
 (Nuclear quadrupole moments (NQMom) in fm**2, nuclear magnetic moments (NMagM)
  in nuclear magnetons)

  Atom         1           2           3           4           5           6           7           8           9          10
 IAtWgt=          12           1           1           1          12           1           1          12           1           1
 AtmWgt=  12.0000000   1.0078250   1.0078250   1.0078250  12.0000000   1.0078250   1.0078250  12.0000000   1.0078250   1.0078250
 NucSpn=           0           1           1           1           0           1           1           0           1           1
 AtZEff=   0.0000000   0.0000000   0.0000000   0.0000000   0.0000000   0.0000000   0.0000000   0.0000000   0.0000000   0.0000000
 NQMom=    0.0000000   0.0000000   0.0000000   0.0000000   0.0000000   0.0000000   0.0000000   0.0000000   0.0000000   0.0000000
 NMagM=    0.0000000   2.7928460   2.7928460   2.7928460   0.0000000   2.7928460   2.7928460   0.0000000   2.7928460   2.7928460

  Atom        11          12
 IAtWgt=          16          16
 AtmWgt=  15.9949146  15.9949146
 NucSpn=           0           0
 AtZEff=   0.0000000   0.0000000
 NQMom=    0.0000000   0.0000000
 NMagM=    0.0000000   0.0000000
 Leave Link  101 at Wed Apr  1 01:03:19 2015, MaxMem= 3758096384 cpu:       0.7
 (Enter /share/apps/g09/l103.exe)

 GradGradGradGradGradGradGradGradGradGradGradGradGradGradGradGradGradGrad
 Berny optimization.
 Initialization pass.
                           ----------------------------
                           !    Initial Parameters    !
                           ! (Angstroms and Degrees)  !
 --------------------------                            --------------------------
 ! Name  Definition              Value          Derivative Info.                !
 --------------------------------------------------------------------------------
 ! R1    R(1,2)                  1.0945         estimate D2E/DX2                !
 ! R2    R(1,3)                  1.0951         estimate D2E/DX2                !
 ! R3    R(1,4)                  1.0965         estimate D2E/DX2                !
 ! R4    R(1,5)                  1.5331         estimate D2E/DX2                !
 ! R5    R(2,11)                 2.8638         estimate D2E/DX2                !
 ! R6    R(5,6)                  1.0995         estimate D2E/DX2                !
 ! R7    R(5,7)                  1.1059         estimate D2E/DX2                !
 ! R8    R(5,8)                  1.4887         estimate D2E/DX2                !
 ! R9    R(5,11)                 3.0437         estimate D2E/DX2                !
 ! R10   R(6,11)                 3.0219         estimate D2E/DX2                !
 ! R11   R(8,9)                  1.086          estimate D2E/DX2                !
 ! R12   R(8,10)                 1.0865         estimate D2E/DX2                !
 ! R13   R(8,11)                 2.3617         Frozen                          !
 ! R14   R(9,11)                 2.6716         estimate D2E/DX2                !
 ! R15   R(10,11)                2.6516         estimate D2E/DX2                !
 ! R16   R(10,12)                2.9756         estimate D2E/DX2                !
 ! R17   R(11,12)                1.2407         estimate D2E/DX2                !
 ! A1    A(2,1,3)              108.2118         estimate D2E/DX2                !
 ! A2    A(2,1,4)              107.8894         estimate D2E/DX2                !
 ! A3    A(2,1,5)              110.7053         estimate D2E/DX2                !
 ! A4    A(3,1,4)              107.8413         estimate D2E/DX2                !
 ! A5    A(3,1,5)              111.0498         estimate D2E/DX2                !
 ! A6    A(4,1,5)              111.0149         estimate D2E/DX2                !
 ! A7    A(1,2,11)             112.272          estimate D2E/DX2                !
 ! A8    A(1,5,6)              110.3543         estimate D2E/DX2                !
 ! A9    A(1,5,7)              109.4267         estimate D2E/DX2                !
 ! A10   A(1,5,8)              113.9366         estimate D2E/DX2                !
 ! A11   A(1,5,11)              90.9893         estimate D2E/DX2                !
 ! A12   A(6,5,7)              104.8933         estimate D2E/DX2                !
 ! A13   A(6,5,8)              109.1555         estimate D2E/DX2                !
 ! A14   A(7,5,8)              108.67           estimate D2E/DX2                !
 ! A15   A(7,5,11)             155.9423         estimate D2E/DX2                !
 ! A16   A(5,8,9)              119.7782         estimate D2E/DX2                !
 ! A17   A(5,8,10)             120.1339         estimate D2E/DX2                !
 ! A18   A(9,8,10)             116.2494         estimate D2E/DX2                !
 ! A19   A(8,10,12)             85.7015         estimate D2E/DX2                !
 ! A20   A(2,11,5)              43.0936         estimate D2E/DX2                !
 ! A21   A(2,11,6)              50.9654         estimate D2E/DX2                !
 ! A22   A(2,11,8)              64.3049         estimate D2E/DX2                !
 ! A23   A(2,11,9)              86.6256         estimate D2E/DX2                !
 ! A24   A(2,11,10)             65.0296         estimate D2E/DX2                !
 ! A25   A(2,11,12)            118.7195         estimate D2E/DX2                !
 ! A26   A(5,11,9)              45.4956         estimate D2E/DX2                !
 ! A27   A(5,11,10)             45.696          estimate D2E/DX2                !
 ! A28   A(5,11,12)            136.9586         estimate D2E/DX2                !
 ! A29   A(6,11,8)              44.33           estimate D2E/DX2                !
 ! A30   A(6,11,9)              52.0884         estimate D2E/DX2                !
 ! A31   A(6,11,10)             65.3275         estimate D2E/DX2                !
 ! A32   A(6,11,12)            157.6462         estimate D2E/DX2                !
 ! A33   A(8,11,12)            114.5262         estimate D2E/DX2                !
 ! A34   A(9,11,10)             40.5539         estimate D2E/DX2                !
 ! A35   A(9,11,12)            112.696          estimate D2E/DX2                !
 ! D1    D(3,1,2,11)           140.0026         estimate D2E/DX2                !
 ! D2    D(4,1,2,11)          -103.5659         estimate D2E/DX2                !
 ! D3    D(5,1,2,11)            18.0926         estimate D2E/DX2                !
 ! D4    D(2,1,5,6)             62.3464         estimate D2E/DX2                !
 ! D5    D(2,1,5,7)            177.2774         estimate D2E/DX2                !
 ! D6    D(2,1,5,8)            -60.8563         estimate D2E/DX2                !
 ! D7    D(2,1,5,11)           -15.6907         estimate D2E/DX2                !
 ! D8    D(3,1,5,6)            -57.8834         estimate D2E/DX2                !
 ! D9    D(3,1,5,7)             57.0476         estimate D2E/DX2                !
 ! D10   D(3,1,5,8)            178.9139         estimate D2E/DX2                !
 ! D11   D(3,1,5,11)          -135.9205         estimate D2E/DX2                !
 ! D12   D(4,1,5,6)           -177.8523         estimate D2E/DX2                !
 ! D13   D(4,1,5,7)            -62.9213         estimate D2E/DX2                !
 ! D14   D(4,1,5,8)             58.945          estimate D2E/DX2                !
 ! D15   D(4,1,5,11)           104.1106         estimate D2E/DX2                !
 ! D16   D(1,2,11,5)           -12.3674         estimate D2E/DX2                !
 ! D17   D(1,2,11,6)           -38.9896         estimate D2E/DX2                !
 ! D18   D(1,2,11,8)            11.8241         estimate D2E/DX2                !
 ! D19   D(1,2,11,9)             2.8858         estimate D2E/DX2                !
 ! D20   D(1,2,11,10)           38.5806         estimate D2E/DX2                !
 ! D21   D(1,2,11,12)          116.9915         estimate D2E/DX2                !
 ! D22   D(1,5,8,9)            171.2426         estimate D2E/DX2                !
 ! D23   D(1,5,8,10)           -31.6352         estimate D2E/DX2                !
 ! D24   D(6,5,8,9)             47.3901         estimate D2E/DX2                !
 ! D25   D(6,5,8,10)          -155.4877         estimate D2E/DX2                !
 ! D26   D(7,5,8,9)            -66.4742         estimate D2E/DX2                !
 ! D27   D(7,5,8,10)            90.6481         estimate D2E/DX2                !
 ! D28   D(1,5,11,2)             8.1359         estimate D2E/DX2                !
 ! D29   D(1,5,11,9)          -150.2569         estimate D2E/DX2                !
 ! D30   D(1,5,11,10)          -92.2208         estimate D2E/DX2                !
 ! D31   D(1,5,11,12)          -75.3152         estimate D2E/DX2                !
 ! D32   D(7,5,11,2)           156.8611         estimate D2E/DX2                !
 ! D33   D(7,5,11,9)            -1.5317         estimate D2E/DX2                !
 ! D34   D(7,5,11,10)           56.5044         estimate D2E/DX2                !
 ! D35   D(7,5,11,12)           73.41           estimate D2E/DX2                !
 ! D36   D(5,8,10,12)          115.3108         estimate D2E/DX2                !
 ! D37   D(9,8,10,12)          -86.7895         estimate D2E/DX2                !
 --------------------------------------------------------------------------------
 Trust Radius=3.00D-01 FncErr=1.00D-07 GrdErr=1.00D-06
 Number of steps in this run=  99 maximum allowed number of steps= 100.
 GradGradGradGradGradGradGradGradGradGradGradGradGradGradGradGradGradGrad

 Leave Link  103 at Wed Apr  1 01:03:19 2015, MaxMem= 3758096384 cpu:       0.1
 (Enter /share/apps/g09/l202.exe)
                          Input orientation:                          
 ---------------------------------------------------------------------
 Center     Atomic      Atomic             Coordinates (Angstroms)
 Number     Number       Type             X           Y           Z
 ---------------------------------------------------------------------
      1          6           0       -1.796381   -0.967289    0.174466
      2          1           0       -0.946891   -1.628682   -0.022878
      3          1           0       -2.676601   -1.381352   -0.328551
      4          1           0       -1.989346   -0.979762    1.253790
      5          6           0       -1.500869    0.455310   -0.314816
      6          1           0       -1.346889    0.461047   -1.403419
      7          1           0       -2.389327    1.092954   -0.150045
      8          6           0       -0.328796    1.090649    0.347690
      9          1           0        0.052945    2.037218   -0.023406
     10          1           0       -0.084597    0.844524    1.377375
     11          8           0        1.470472   -0.173653   -0.513606
     12          8           0        2.421651   -0.316093    0.270243
 ---------------------------------------------------------------------
                    Distance matrix (angstroms):
                    1          2          3          4          5
     1  C    0.000000
     2  H    1.094540   0.000000
     3  H    1.095108   1.773839   0.000000
     4  H    1.096509   1.771353   1.771270   0.000000
     5  C    1.533138   2.176038   2.180794   2.181414   0.000000
     6  H    2.175295   2.536308   2.513545   3.090217   1.099454
     7  H    2.168293   3.082871   2.497315   2.535131   1.105937
     8  C    2.533559   2.813205   3.475670   2.804469   1.488733
     9  H    3.533585   3.799802   4.385220   3.860615   2.236446
    10  H    2.767645   2.970018   3.818795   2.640334   2.240720
    11  O    3.431564   2.863838   4.323309   3.967851   3.043679
    12  O    4.269078   3.627104   5.242662   4.567791   4.040238
                    6          7          8          9         10
     6  H    0.000000
     7  H    1.748408   0.000000
     8  C    2.121154   2.119796   0.000000
     9  H    2.519581   2.621519   1.086016   0.000000
    10  H    3.077865   2.776060   1.086491   1.844891   0.000000
    11  O    3.021942   4.078544   2.361706   2.671634   2.651553
    12  O    4.196068   5.030662   3.090288   3.351876   2.975576
                   11         12
    11  O    0.000000
    12  O    1.240746   0.000000
 Stoichiometry    C3H7O2(2)
 Framework group  C1[X(C3H7O2)]
 Deg. of freedom    30
 Full point group                 C1      NOp   1
 Largest Abelian subgroup         C1      NOp   1
 Largest concise Abelian subgroup C1      NOp   1
                         Standard orientation:                         
 ---------------------------------------------------------------------
 Center     Atomic      Atomic             Coordinates (Angstroms)
 Number     Number       Type             X           Y           Z
 ---------------------------------------------------------------------
      1          6           0       -1.796381   -0.967289    0.174466
      2          1           0       -0.946891   -1.628682   -0.022878
      3          1           0       -2.676601   -1.381352   -0.328551
      4          1           0       -1.989346   -0.979762    1.253790
      5          6           0       -1.500869    0.455310   -0.314816
      6          1           0       -1.346889    0.461047   -1.403419
      7          1           0       -2.389327    1.092954   -0.150045
      8          6           0       -0.328796    1.090649    0.347690
      9          1           0        0.052945    2.037218   -0.023406
     10          1           0       -0.084597    0.844524    1.377375
     11          8           0        1.470472   -0.173653   -0.513606
     12          8           0        2.421651   -0.316093    0.270243
 ---------------------------------------------------------------------
 Rotational constants (GHZ):      9.0469765      2.2158396      1.9745103
 Leave Link  202 at Wed Apr  1 01:03:19 2015, MaxMem= 3758096384 cpu:       0.4
 (Enter /share/apps/g09/l301.exe)
 Standard basis: 6-31G(d) (6D, 7F)
 Ernie: Thresh=  0.10000D-02 Tol=  0.10000D-05 Strict=F.
 There are    89 symmetry adapted basis functions of A   symmetry.
 Integral buffers will be    131072 words long.
 Raffenetti 2 integral format.
 Two-electron integral symmetry is turned on.
    89 basis functions,   168 primitive gaussians,    89 cartesian basis functions
    21 alpha electrons       20 beta electrons
       nuclear repulsion energy       166.5808929029 Hartrees.
 IExCor=  402 DFT=T Ex+Corr=B3LYP ExCW=0 ScaHFX=  0.200000
 ScaDFX=  0.800000  0.720000  1.000000  0.810000 ScalE2=  1.000000  1.000000
 IRadAn=      0 IRanWt=     -1 IRanGd=            0 ICorTp=0
 NAtoms=   12 NActive=   12 NUniq=   12 SFac= 7.50D-01 NAtFMM=   80 NAOKFM=F Big=F
 Leave Link  301 at Wed Apr  1 01:03:19 2015, MaxMem= 3758096384 cpu:       0.4
 (Enter /share/apps/g09/l302.exe)
 NPDir=0 NMtPBC=     1 NCelOv=     1 NCel=       1 NClECP=     1 NCelD=      1
         NCelK=      1 NCelE2=     1 NClLst=     1 CellRange=     0.0.
 One-electron integrals computed using PRISM.
 NBasis=    89 RedAO= T  NBF=    89
 NBsUse=    89 1.00D-06 NBFU=    89
 Precomputing XC quadrature grid using
 IXCGrd= 2 IRadAn=           0 IRanWt=          -1 IRanGd=           0 AccXCQ= 1.00D-10.
 NRdTot=     742 NPtTot=       94340 NUsed=       99703 NTot=       99735
 NSgBfM=    89    89    89    89    89 NAtAll=    12    12.
 Leave Link  302 at Wed Apr  1 01:03:20 2015, MaxMem= 3758096384 cpu:       4.3
 (Enter /share/apps/g09/l303.exe)
 DipDrv:  MaxL=1.
 Leave Link  303 at Wed Apr  1 01:03:20 2015, MaxMem= 3758096384 cpu:       0.9
 (Enter /share/apps/g09/l401.exe)
 Harris functional with IExCor=  402 diagonalized for initial guess.
 ExpMin= 1.61D-01 ExpMax= 5.48D+03 ExpMxC= 8.25D+02 IAcc=1 IRadAn=         1 AccDes= 0.00D+00
 HarFok:  IExCor=  402 AccDes= 0.00D+00 IRadAn=         1 IDoV= 1
 ScaDFX=  1.000000  1.000000  1.000000  1.000000
 FoFCou: FMM=F IPFlag=           0 FMFlag=      100000 FMFlg1=           0
         NFxFlg=           0 DoJE=T BraDBF=F KetDBF=T FulRan=T
         Omega=  0.000000  0.000000  1.000000  0.000000  0.000000 ICntrl=     500 IOpCl=  0
         NMat0=    1 NMatS0=    1 NMatT0=    0 NMatD0=    1 NMtDS0=    0 NMtDT0=    0
         I1Cent=           4 NGrid=           0.
 Petite list used in FoFCou.
 Harris En= -268.826696555364    
 Initial guess orbital symmetries:
 Alpha Orbitals:
       Occupied  (A) (A) (A) (A) (A) (A) (A) (A) (A) (A) (A) (A)
                 (A) (A) (A) (A) (A) (A) (A) (A) (A)
       Virtual   (A) (A) (A) (A) (A) (A) (A) (A) (A) (A) (A) (A)
                 (A) (A) (A) (A) (A) (A) (A) (A) (A) (A) (A) (A)
                 (A) (A) (A) (A) (A) (A) (A) (A) (A) (A) (A) (A)
                 (A) (A) (A) (A) (A) (A) (A) (A) (A) (A) (A) (A)
                 (A) (A) (A) (A) (A) (A) (A) (A) (A) (A) (A) (A)
                 (A) (A) (A) (A) (A) (A) (A) (A)
 Beta  Orbitals:
       Occupied  (A) (A) (A) (A) (A) (A) (A) (A) (A) (A) (A) (A)
                 (A) (A) (A) (A) (A) (A) (A) (A)
       Virtual   (A) (A) (A) (A) (A) (A) (A) (A) (A) (A) (A) (A)
                 (A) (A) (A) (A) (A) (A) (A) (A) (A) (A) (A) (A)
                 (A) (A) (A) (A) (A) (A) (A) (A) (A) (A) (A) (A)
                 (A) (A) (A) (A) (A) (A) (A) (A) (A) (A) (A) (A)
                 (A) (A) (A) (A) (A) (A) (A) (A) (A) (A) (A) (A)
                 (A) (A) (A) (A) (A) (A) (A) (A) (A)
 The electronic state of the initial guess is 2-A.
 Initial guess <Sx>= 0.0000 <Sy>= 0.0000 <Sz>= 0.5000 <S**2>= 0.7500 S= 0.5000
 Leave Link  401 at Wed Apr  1 01:03:21 2015, MaxMem= 3758096384 cpu:       7.8
 (Enter /share/apps/g09/l508.exe)
 Direct SCF.
 Tight linear equation convergence will be used.
 UB3LYP wavefunction.
 Quadratic Convergence SCF Method.
 Line search only if initial step raises energy.
 Integral symmetry usage will be decided dynamically.
 ReadGW:  IGet=1 IStart=           2 Next=       99584 LGW=       99582.
 Pruned (  75, 302) grid will be used in CalDFT.
 Keep R1 and R2 ints in memory in canonical form, NReq=17125503.
 Symmetry not used in FoFDir.
 MinBra= 0 MaxBra= 2 Meth= 1.
 IRaf=       0 NMat=   1 IRICut=       1 DoRegI=T DoRafI=F ISym2E= 0 JSym2E=0.
 Iteration   1 EE= -268.519085000316                                    Grad=6.672D-01
 Gradient too large for Newton-Raphson -- use scaled steepest descent instead.
     ILin= 1 X=0.000D+00 Y=-2.685190850003D+02 DE= 0.00D+00
     ILin= 2 X=3.000D-01 Y=-2.687231562827D+02 DE=-2.04D-01
     ILin= 3 X=4.243D-01 Y=-2.687424778655D+02 DE=-2.23D-01
     ILin= 4 X=6.000D-01 Y=-2.687027137439D+02 DE=-1.84D-01
     An  expanding polynomial of degree  4 produced  0.4237
 Iteration   2 EE= -268.742478576488     Delta-E=       -0.223393576171 Grad=1.739D-01
 Gradient too large for Newton-Raphson -- use scaled steepest descent instead.
     ILin= 1 X=0.000D+00 Y=-2.687424785765D+02 DE= 0.00D+00
     ILin= 2 X=4.237D-01 Y=-2.687464301435D+02 DE=-3.95D-03
     ILin= 3 X=5.993D-01 Y=-2.687109722330D+02 DE= 3.15D-02
     An  expanding polynomial of degree  3 produced  0.2251
 Iteration   3 EE= -268.763098821528     Delta-E=       -0.020620245040 Grad=1.771D-01
 Gradient too large for Newton-Raphson -- use scaled steepest descent instead.
     ILin= 1 X=0.000D+00 Y=-2.687630988215D+02 DE= 0.00D+00
     ILin= 2 X=4.237D-01 Y=-2.687694174713D+02 DE=-6.32D-03
     ILin= 3 X=5.993D-01 Y=-2.687592049665D+02 DE= 3.89D-03
     An  expanding polynomial of degree  3 produced  0.2730
 Iteration   4 EE= -268.772189287483     Delta-E=       -0.009090465956 Grad=8.079D-02
 Gradient too large for Newton-Raphson -- use scaled steepest descent instead.
     ILin= 1 X=0.000D+00 Y=-2.687721892875D+02 DE= 0.00D+00
     ILin= 2 X=2.730D-01 Y=-2.687772125013D+02 DE=-5.02D-03
     ILin= 3 X=3.861D-01 Y=-2.687766188992D+02 DE=-4.43D-03
     An  expanding polynomial of degree  3 produced  0.2867
 Iteration   5 EE= -268.777221263254     Delta-E=       -0.005031975771 Grad=8.995D-02
 Gradient too large for Newton-Raphson -- use scaled steepest descent instead.
     ILin= 1 X=0.000D+00 Y=-2.687772212633D+02 DE= 0.00D+00
     ILin= 2 X=2.867D-01 Y=-2.687798733569D+02 DE=-2.65D-03
     ILin= 3 X=4.054D-01 Y=-2.687792307418D+02 DE=-2.01D-03
     An  expanding polynomial of degree  3 produced  0.2712
 Iteration   6 EE= -268.779881782217     Delta-E=       -0.002660518963 Grad=4.243D-02
 Gradient too large for Newton-Raphson -- use scaled steepest descent instead.
     ILin= 1 X=0.000D+00 Y=-2.687798817822D+02 DE= 0.00D+00
     ILin= 2 X=2.867D-01 Y=-2.687815666509D+02 DE=-1.68D-03
     ILin= 3 X=4.054D-01 Y=-2.687815452246D+02 DE=-1.66D-03
     An  expanding polynomial of degree  3 produced  0.3400
 Iteration   7 EE= -268.781607692687     Delta-E=       -0.001725910470 Grad=4.888D-02
 Gradient too large for Newton-Raphson -- use scaled steepest descent instead.
     ILin= 1 X=0.000D+00 Y=-2.687816076927D+02 DE= 0.00D+00
     ILin= 2 X=3.400D-01 Y=-2.687827703980D+02 DE=-1.16D-03
     ILin= 3 X=4.809D-01 Y=-2.687822757686D+02 DE=-6.68D-04
     An  expanding polynomial of degree  3 produced  0.2886
 Iteration   8 EE= -268.782808116697     Delta-E=       -0.001200424010 Grad=2.580D-02
 Gradient too large for Newton-Raphson -- use scaled steepest descent instead.
     ILin= 1 X=0.000D+00 Y=-2.687828081167D+02 DE= 0.00D+00
     ILin= 2 X=3.400D-01 Y=-2.687838592277D+02 DE=-1.05D-03
     ILin= 3 X=4.809D-01 Y=-2.687838778476D+02 DE=-1.07D-03
     ILin= 4 X=6.800D-01 Y=-2.687835127355D+02 DE=-7.05D-04
     An  expanding polynomial of degree  4 produced  0.4214
 Iteration   9 EE= -268.783898683410     Delta-E=       -0.001090566713 Grad=3.436D-02
 Gradient too large for Newton-Raphson -- use scaled steepest descent instead.
     ILin= 1 X=0.000D+00 Y=-2.687838986834D+02 DE= 0.00D+00
     ILin= 2 X=4.214D-01 Y=-2.687848924428D+02 DE=-9.94D-04
     ILin= 3 X=5.959D-01 Y=-2.687840857807D+02 DE=-1.87D-04
     An  expanding polynomial of degree  3 produced  0.3114
 Iteration  10 EE= -268.785034400612     Delta-E=       -0.001135717202 Grad=2.558D-02
 Gradient too large for Newton-Raphson -- use scaled steepest descent instead.
     ILin= 1 X=0.000D+00 Y=-2.687850344006D+02 DE= 0.00D+00
     ILin= 2 X=3.114D-01 Y=-2.687861599741D+02 DE=-1.13D-03
     ILin= 3 X=4.403D-01 Y=-2.687863271112D+02 DE=-1.29D-03
     ILin= 4 X=6.227D-01 Y=-2.687862829977D+02 DE=-1.25D-03
     An  expanding polynomial of degree  4 produced  0.5061
 Iteration  11 EE= -268.786348260780     Delta-E=       -0.001313860168 Grad=3.471D-02
 Gradient too large for Newton-Raphson -- use scaled steepest descent instead.
     ILin= 1 X=0.000D+00 Y=-2.687863482608D+02 DE= 0.00D+00
     ILin= 2 X=5.061D-01 Y=-2.687874092743D+02 DE=-1.06D-03
     ILin= 3 X=7.157D-01 Y=-2.687856722235D+02 DE= 6.76D-04
     An  expanding polynomial of degree  3 produced  0.3253
 Iteration  12 EE= -268.787896021735     Delta-E=       -0.001547760954 Grad=3.043D-02
 Gradient too large for Newton-Raphson -- use scaled steepest descent instead.
     ILin= 1 X=0.000D+00 Y=-2.687878960217D+02 DE= 0.00D+00
     ILin= 2 X=3.253D-01 Y=-2.687892764598D+02 DE=-1.38D-03
     ILin= 3 X=4.601D-01 Y=-2.687895265755D+02 DE=-1.63D-03
     ILin= 4 X=6.506D-01 Y=-2.687895800782D+02 DE=-1.68D-03
     ILin= 5 X=9.201D-01 Y=-2.687890966002D+02 DE=-1.20D-03
     An  expanding polynomial of degree  5 produced  0.5847
 Iteration  13 EE= -268.789600185836     Delta-E=       -0.001704164102 Grad=3.676D-02
 Gradient too large for Newton-Raphson -- use scaled steepest descent instead.
     ILin= 1 X=0.000D+00 Y=-2.687896001858D+02 DE= 0.00D+00
     ILin= 2 X=5.847D-01 Y=-2.687905896589D+02 DE=-9.89D-04
     ILin= 3 X=8.269D-01 Y=-2.687881445172D+02 DE= 1.46D-03
     An  expanding polynomial of degree  3 produced  0.3517
 Iteration  14 EE= -268.791406889267     Delta-E=       -0.001806703431 Grad=3.189D-02
 Gradient too large for Newton-Raphson -- use scaled steepest descent instead.
     ILin= 1 X=0.000D+00 Y=-2.687914068893D+02 DE= 0.00D+00
     ILin= 2 X=3.517D-01 Y=-2.687927185270D+02 DE=-1.31D-03
     ILin= 3 X=4.974D-01 Y=-2.687929642495D+02 DE=-1.56D-03
     ILin= 4 X=7.034D-01 Y=-2.687930317166D+02 DE=-1.62D-03
     ILin= 5 X=9.948D-01 Y=-2.687925999099D+02 DE=-1.19D-03
     An  expanding polynomial of degree  5 produced  0.6435
 Iteration  15 EE= -268.793045033624     Delta-E=       -0.001638144356 Grad=3.267D-02
 Gradient too large for Newton-Raphson -- use scaled steepest descent instead.
     ILin= 1 X=0.000D+00 Y=-2.687930450336D+02 DE= 0.00D+00
     ILin= 2 X=6.435D-01 Y=-2.687938221567D+02 DE=-7.77D-04
     ILin= 3 X=9.101D-01 Y=-2.687919263514D+02 DE= 1.12D-03
     An  expanding polynomial of degree  3 produced  0.3878
 Iteration  16 EE= -268.794458210899     Delta-E=       -0.001413177275 Grad=2.723D-02
 Gradient too large for Newton-Raphson -- use scaled steepest descent instead.
     ILin= 1 X=0.000D+00 Y=-2.687944582109D+02 DE= 0.00D+00
     ILin= 2 X=3.878D-01 Y=-2.687952993989D+02 DE=-8.41D-04
     ILin= 3 X=5.484D-01 Y=-2.687954395202D+02 DE=-9.81D-04
     ILin= 4 X=7.756D-01 Y=-2.687954375764D+02 DE=-9.79D-04
     An  expanding polynomial of degree  4 produced  0.6598
 Iteration  17 EE= -268.795467437142     Delta-E=       -0.001009226243 Grad=2.353D-02
 Gradient too large for Newton-Raphson -- use scaled steepest descent instead.
     ILin= 1 X=0.000D+00 Y=-2.687954674371D+02 DE= 0.00D+00
     ILin= 2 X=6.598D-01 Y=-2.687959047578D+02 DE=-4.37D-04
     ILin= 3 X=9.331D-01 Y=-2.687950420524D+02 DE= 4.25D-04
     An  expanding polynomial of degree  3 produced  0.4108
 Iteration  18 EE= -268.796168775858     Delta-E=       -0.000701338716 Grad=1.908D-02
 Gradient too large for Newton-Raphson -- use scaled steepest descent instead.
     ILin= 1 X=0.000D+00 Y=-2.687961687759D+02 DE= 0.00D+00
     ILin= 2 X=4.108D-01 Y=-2.687965361374D+02 DE=-3.67D-04
     ILin= 3 X=5.810D-01 Y=-2.687965840410D+02 DE=-4.15D-04
     ILin= 4 X=8.217D-01 Y=-2.687965492403D+02 DE=-3.80D-04
     An  expanding polynomial of degree  4 produced  0.6312
 Iteration  19 EE= -268.796586653776     Delta-E=       -0.000417877917 Grad=1.555D-02
 Gradient too large for Newton-Raphson -- use scaled steepest descent instead.
     ILin= 1 X=0.000D+00 Y=-2.687965866538D+02 DE= 0.00D+00
     ILin= 2 X=6.312D-01 Y=-2.687967580076D+02 DE=-1.71D-04
     ILin= 3 X=8.927D-01 Y=-2.687964670331D+02 DE= 1.20D-04
     An  expanding polynomial of degree  3 produced  0.4031
 Iteration  20 EE= -268.796839468868     Delta-E=       -0.000252815093 Grad=1.183D-02
 Gradient too large for Newton-Raphson -- use scaled steepest descent instead.
     ILin= 1 X=0.000D+00 Y=-2.687968394689D+02 DE= 0.00D+00
     ILin= 2 X=4.031D-01 Y=-2.687969676321D+02 DE=-1.28D-04
     ILin= 3 X=5.701D-01 Y=-2.687969812282D+02 DE=-1.42D-04
     ILin= 4 X=8.063D-01 Y=-2.687969610530D+02 DE=-1.22D-04
     An  expanding polynomial of degree  4 produced  0.5849
 Iteration  21 EE= -268.796981318978     Delta-E=       -0.000141850110 Grad=1.014D-02
 Gradient too large for Newton-Raphson -- use scaled steepest descent instead.
     ILin= 1 X=0.000D+00 Y=-2.687969813190D+02 DE= 0.00D+00
     ILin= 2 X=5.849D-01 Y=-2.687970438293D+02 DE=-6.25D-05
     ILin= 3 X=8.272D-01 Y=-2.687969598135D+02 DE= 2.15D-05
     An  expanding polynomial of degree  3 produced  0.3899
 Iteration  22 EE= -268.797064650770     Delta-E=       -0.000083331792 Grad=6.977D-03
 QCNR:  CnvC1=5.30D-09 CnvC2=5.30D-08
 LinEq1:  Iter=  0 NonCon=     1 RMS=3.06D-04 Max=1.08D-02
 AX will form     1 AO Fock derivatives at one time.
 LinEq1:  Iter=  1 NonCon=     1 RMS=5.37D-04 Max=1.95D-02
 LinEq1:  Iter=  2 NonCon=     1 RMS=4.98D-05 Max=1.59D-03
 LinEq1:  Iter=  3 NonCon=     1 RMS=3.59D-05 Max=7.77D-04
 LinEq1:  Iter=  4 NonCon=     1 RMS=4.99D-06 Max=9.40D-05
 LinEq1:  Iter=  5 NonCon=     1 RMS=1.33D-06 Max=1.53D-05
 LinEq1:  Iter=  6 NonCon=     1 RMS=5.78D-07 Max=7.84D-06
 LinEq1:  Iter=  7 NonCon=     1 RMS=2.01D-07 Max=2.11D-06
 LinEq1:  Iter=  8 NonCon=     1 RMS=8.45D-08 Max=1.18D-06
 LinEq1:  Iter=  9 NonCon=     1 RMS=4.21D-08 Max=9.43D-07
 LinEq1:  Iter= 10 NonCon=     1 RMS=1.90D-08 Max=5.00D-07
 LinEq1:  Iter= 11 NonCon=     1 RMS=5.95D-09 Max=1.21D-07
 LinEq1:  Iter= 12 NonCon=     0 RMS=1.87D-09 Max=2.18D-08
 Linear equations converged to 5.299D-09 5.299D-08 after    12 iterations.
 Angle between quadratic step and gradient=  58.66 degrees.
     ILin= 1 X=0.000D+00 Y=-2.687970646508D+02 DE= 0.00D+00
     ILin= 2 X=1.000D+00 Y=-2.687971791253D+02 DE=-1.14D-04
     ILin= 3 X=1.414D+00 Y=-2.687971529835D+02 DE=-8.83D-05
     An  expanding polynomial of degree  3 produced  0.9558
 Iteration  23 EE= -268.797179308228     Delta-E=       -0.000114657457 Grad=2.922D-04
 QCNR:  CnvC1=2.92D-09 CnvC2=2.92D-08
 LinEq1:  Iter=  0 NonCon=     1 RMS=1.06D-05 Max=3.67D-04
 LinEq1:  Iter=  1 NonCon=     1 RMS=8.58D-06 Max=2.11D-04
 LinEq1:  Iter=  2 NonCon=     1 RMS=8.47D-06 Max=2.62D-04
 LinEq1:  Iter=  3 NonCon=     1 RMS=4.19D-06 Max=1.35D-04
 LinEq1:  Iter=  4 NonCon=     1 RMS=1.05D-06 Max=1.29D-05
 LinEq1:  Iter=  5 NonCon=     1 RMS=4.18D-07 Max=6.09D-06
 LinEq1:  Iter=  6 NonCon=     1 RMS=2.19D-07 Max=2.22D-06
 LinEq1:  Iter=  7 NonCon=     1 RMS=8.56D-08 Max=7.86D-07
 LinEq1:  Iter=  8 NonCon=     1 RMS=4.12D-08 Max=5.57D-07
 LinEq1:  Iter=  9 NonCon=     1 RMS=1.45D-08 Max=1.70D-07
 LinEq1:  Iter= 10 NonCon=     1 RMS=4.76D-09 Max=1.01D-07
 LinEq1:  Iter= 11 NonCon=     1 RMS=2.57D-09 Max=5.31D-08
 LinEq1:  Iter= 12 NonCon=     0 RMS=1.31D-09 Max=2.48D-08
 Linear equations converged to 2.922D-09 2.922D-08 after    12 iterations.
 Angle between quadratic step and gradient=  47.63 degrees.
     ILin= 1 X=0.000D+00 Y=-2.687971793082D+02 DE= 0.00D+00
     ILin= 2 X=1.000D+00 Y=-2.687971793554D+02 DE=-4.71D-08
     ILin= 3 X=1.414D+00 Y=-2.687971793473D+02 DE=-3.90D-08
     An  expanding polynomial of degree  3 produced  1.0000
 Iteration  24 EE= -268.797179355353     Delta-E=       -0.000000047125 Grad=1.285D-08
 Rotation gradient small -- convergence achieved.
 SCF Done:  E(UB3LYP) =  -268.797179355     a.u. after   24 cycles
            Convg  =    0.1285D-07                   104 Fock formations.
              S**2 =  1.3936                  -V/T =  2.0093
 <Sx>= 0.0000 <Sy>= 0.0000 <Sz>= 0.5000 <S**2>= 1.3936 S= 0.7820
 <L.S>= 0.000000000000E+00
 Annihilation of the first spin contaminant:
 S**2 before annihilation     1.3936,   after     0.7640
 Leave Link  508 at Wed Apr  1 01:04:04 2015, MaxMem= 3758096384 cpu:     461.6
 (Enter /share/apps/g09/l601.exe)
 Copying SCF densities to generalized density rwf, IOpCl= 1 IROHF=0.

 **********************************************************************

            Population analysis using the SCF density.

 **********************************************************************

 Orbital symmetries:
 Alpha Orbitals:
       Occupied  (A) (A) (A) (A) (A) (A) (A) (A) (A) (A) (A) (A)
                 (A) (A) (A) (A) (A) (A) (A) (A) (A)
       Virtual   (A) (A) (A) (A) (A) (A) (A) (A) (A) (A) (A) (A)
                 (A) (A) (A) (A) (A) (A) (A) (A) (A) (A) (A) (A)
                 (A) (A) (A) (A) (A) (A) (A) (A) (A) (A) (A) (A)
                 (A) (A) (A) (A) (A) (A) (A) (A) (A) (A) (A) (A)
                 (A) (A) (A) (A) (A) (A) (A) (A) (A) (A) (A) (A)
                 (A) (A) (A) (A) (A) (A) (A) (A)
 Beta  Orbitals:
       Occupied  (A) (A) (A) (A) (A) (A) (A) (A) (A) (A) (A) (A)
                 (A) (A) (A) (A) (A) (A) (A) (A)
       Virtual   (A) (A) (A) (A) (A) (A) (A) (A) (A) (A) (A) (A)
                 (A) (A) (A) (A) (A) (A) (A) (A) (A) (A) (A) (A)
                 (A) (A) (A) (A) (A) (A) (A) (A) (A) (A) (A) (A)
                 (A) (A) (A) (A) (A) (A) (A) (A) (A) (A) (A) (A)
                 (A) (A) (A) (A) (A) (A) (A) (A) (A) (A) (A) (A)
                 (A) (A) (A) (A) (A) (A) (A) (A) (A)
 The electronic state is 2-A.
 Alpha  occ. eigenvalues --  -19.27491 -19.25294 -10.20639 -10.20015 -10.18124
 Alpha  occ. eigenvalues --   -1.23431  -0.80295  -0.78430  -0.67315  -0.58475
 Alpha  occ. eigenvalues --   -0.50907  -0.50216  -0.49862  -0.45859  -0.44517
 Alpha  occ. eigenvalues --   -0.41514  -0.36096  -0.35801  -0.35145  -0.27198
 Alpha  occ. eigenvalues --   -0.26438
 Alpha virt. eigenvalues --   -0.04799   0.09635   0.13775   0.14101   0.14992
 Alpha virt. eigenvalues --    0.16440   0.18208   0.19225   0.21156   0.23392
 Alpha virt. eigenvalues --    0.27234   0.49707   0.50663   0.53898   0.56210
 Alpha virt. eigenvalues --    0.59083   0.62800   0.66391   0.69459   0.74824
 Alpha virt. eigenvalues --    0.76685   0.79743   0.80539   0.84572   0.86315
 Alpha virt. eigenvalues --    0.88663   0.89852   0.91257   0.93235   0.94059
 Alpha virt. eigenvalues --    0.95887   0.97304   1.00028   1.02569   1.11671
 Alpha virt. eigenvalues --    1.24246   1.39681   1.43616   1.50247   1.52309
 Alpha virt. eigenvalues --    1.54265   1.55539   1.61562   1.70941   1.71784
 Alpha virt. eigenvalues --    1.85951   1.91790   1.93615   1.94062   1.98119
 Alpha virt. eigenvalues --    2.01168   2.07895   2.16811   2.24261   2.32346
 Alpha virt. eigenvalues --    2.35853   2.39787   2.42158   2.54972   2.56135
 Alpha virt. eigenvalues --    2.60836   2.67828   2.88545   3.26446   3.62788
 Alpha virt. eigenvalues --    4.13145   4.27472   4.45449
  Beta  occ. eigenvalues --  -19.24908 -19.22764 -10.21769 -10.19951 -10.18135
  Beta  occ. eigenvalues --   -1.18264  -0.79630  -0.72403  -0.68533  -0.59428
  Beta  occ. eigenvalues --   -0.47501  -0.46226  -0.44951  -0.42767  -0.41365
  Beta  occ. eigenvalues --   -0.40860  -0.36436  -0.36243  -0.35355  -0.20602
  Beta virt. eigenvalues --   -0.08350  -0.08019   0.09479   0.12987   0.13867
  Beta virt. eigenvalues --    0.14762   0.16432   0.18010   0.18994   0.22709
  Beta virt. eigenvalues --    0.24920   0.26787   0.49500   0.50548   0.53751
  Beta virt. eigenvalues --    0.55367   0.57797   0.60378   0.66238   0.69456
  Beta virt. eigenvalues --    0.76003   0.76964   0.80895   0.82376   0.86045
  Beta virt. eigenvalues --    0.86434   0.89274   0.90953   0.92565   0.93613
  Beta virt. eigenvalues --    0.95394   0.96608   0.97217   1.00669   1.05899
  Beta virt. eigenvalues --    1.12575   1.25749   1.40235   1.43543   1.51620
  Beta virt. eigenvalues --    1.53588   1.56937   1.58396   1.64188   1.67994
  Beta virt. eigenvalues --    1.74588   1.84787   1.91049   1.92433   1.97589
  Beta virt. eigenvalues --    2.00704   2.03058   2.07360   2.14410   2.24027
  Beta virt. eigenvalues --    2.31974   2.34852   2.41552   2.42866   2.58759
  Beta virt. eigenvalues --    2.59329   2.60447   2.67502   2.90759   3.30230
  Beta virt. eigenvalues --    3.66500   4.12265   4.26161   4.44950
          Condensed to atoms (all electrons):
              1          2          3          4          5          6
     1  C    5.060472   0.380678   0.372684   0.378084   0.377133  -0.035546
     2  H    0.380678   0.547167  -0.028743  -0.030743  -0.034804  -0.004359
     3  H    0.372684  -0.028743   0.569023  -0.030561  -0.028642  -0.002757
     4  H    0.378084  -0.030743  -0.030561   0.571884  -0.035442   0.004923
     5  C    0.377133  -0.034804  -0.028642  -0.035442   4.932212   0.377872
     6  H   -0.035546  -0.004359  -0.002757   0.004923   0.377872   0.581057
     7  H   -0.038632   0.004978  -0.002576  -0.004362   0.366933  -0.040147
     8  C   -0.045969  -0.003128   0.004457  -0.004345   0.382002  -0.042574
     9  H    0.003982   0.000032  -0.000155  -0.000004  -0.031701  -0.003009
    10  H   -0.005387   0.000090   0.000022   0.004286  -0.037758   0.004680
    11  O   -0.001556   0.004496   0.000023  -0.000035  -0.001474   0.000087
    12  O    0.000070  -0.000152   0.000000   0.000005   0.000223   0.000023
              7          8          9         10         11         12
     1  C   -0.038632  -0.045969   0.003982  -0.005387  -0.001556   0.000070
     2  H    0.004978  -0.003128   0.000032   0.000090   0.004496  -0.000152
     3  H   -0.002576   0.004457  -0.000155   0.000022   0.000023   0.000000
     4  H   -0.004362  -0.004345  -0.000004   0.004286  -0.000035   0.000005
     5  C    0.366933   0.382002  -0.031701  -0.037758  -0.001474   0.000223
     6  H   -0.040147  -0.042574  -0.003009   0.004680   0.000087   0.000023
     7  H    0.603493  -0.043904  -0.000344   0.000092   0.000251  -0.000011
     8  C   -0.043904   5.247199   0.364346   0.366648   0.035658  -0.013738
     9  H   -0.000344   0.364346   0.542855  -0.035607  -0.002021   0.000304
    10  H    0.000092   0.366648  -0.035607   0.539920  -0.003445   0.002391
    11  O    0.000251   0.035658  -0.002021  -0.003445   7.924516   0.100894
    12  O   -0.000011  -0.013738   0.000304   0.002391   0.100894   7.990770
 Mulliken atomic charges:
              1
     1  C   -0.446014
     2  H    0.164489
     3  H    0.147227
     4  H    0.146308
     5  C   -0.266554
     6  H    0.159750
     7  H    0.154228
     8  C   -0.246653
     9  H    0.161322
    10  H    0.164067
    11  O   -0.057393
    12  O   -0.080779
 Sum of Mulliken atomic charges =   0.00000
 Mulliken charges with hydrogens summed into heavy atoms:
              1
     1  C    0.012010
     5  C    0.047425
     8  C    0.078737
    11  O   -0.057393
    12  O   -0.080779
 Sum of Mulliken charges with hydrogens summed into heavy atoms =   0.00000
          Atomic-Atomic Spin Densities.
              1          2          3          4          5          6
     1  C   -0.007706   0.001571   0.001018  -0.000177  -0.005005  -0.004180
     2  H    0.001571  -0.001448  -0.000668   0.000723   0.000496   0.000774
     3  H    0.001018  -0.000668   0.000901   0.000294  -0.000430   0.000518
     4  H   -0.000177   0.000723   0.000294  -0.000599  -0.000564  -0.000273
     5  C   -0.005005   0.000496  -0.000430  -0.000564   0.045080  -0.005081
     6  H   -0.004180   0.000774   0.000518  -0.000273  -0.005081  -0.030531
     7  H    0.005033  -0.000479  -0.001018   0.001152  -0.010379   0.011770
     8  C    0.006379  -0.002610  -0.000209   0.000153   0.033854   0.012136
     9  H   -0.000040   0.000031   0.000001  -0.000021  -0.000431  -0.001033
    10  H   -0.000686   0.000118   0.000039  -0.000282  -0.001038  -0.000372
    11  O   -0.000359   0.000936   0.000011   0.000004  -0.000794  -0.000633
    12  O    0.000044  -0.000256   0.000000  -0.000004  -0.000022   0.000002
              7          8          9         10         11         12
     1  C    0.005033   0.006379  -0.000040  -0.000686  -0.000359   0.000044
     2  H   -0.000479  -0.002610   0.000031   0.000118   0.000936  -0.000256
     3  H   -0.001018  -0.000209   0.000001   0.000039   0.000011   0.000000
     4  H    0.001152   0.000153  -0.000021  -0.000282   0.000004  -0.000004
     5  C   -0.010379   0.033854  -0.000431  -0.001038  -0.000794  -0.000022
     6  H    0.011770   0.012136  -0.001033  -0.000372  -0.000633   0.000002
     7  H   -0.074514   0.021708   0.000961   0.001069   0.000030   0.000003
     8  C    0.021708  -0.927624   0.007962   0.010664   0.004243   0.006336
     9  H    0.000961   0.007962   0.032903  -0.002679  -0.000689   0.000005
    10  H    0.001069   0.010664  -0.002679   0.031040  -0.002196   0.000289
    11  O    0.000030   0.004243  -0.000689  -0.002196   1.157596  -0.273882
    12  O    0.000003   0.006336   0.000005   0.000289  -0.273882   1.147239
 Mulliken atomic spin densities:
              1
     1  C   -0.004108
     2  H   -0.000813
     3  H    0.000458
     4  H    0.000404
     5  C    0.055686
     6  H   -0.016905
     7  H   -0.044665
     8  C   -0.827008
     9  H    0.036969
    10  H    0.035966
    11  O    0.884266
    12  O    0.879751
 Sum of Mulliken atomic spin densities =   1.00000
 Electronic spatial extent (au):  <R**2>=            618.4480
 Charge=              0.0000 electrons
 Dipole moment (field-independent basis, Debye):
    X=             -1.9749    Y=              0.8046    Z=              0.1362  Tot=              2.1368
 Quadrupole moment (field-independent basis, Debye-Ang):
   XX=            -33.0017   YY=            -29.5292   ZZ=            -30.1618
   XY=              0.3680   XZ=              0.0432   YZ=             -0.0141
 Traceless Quadrupole moment (field-independent basis, Debye-Ang):
   XX=             -2.1041   YY=              1.3684   ZZ=              0.7358
   XY=              0.3680   XZ=              0.0432   YZ=             -0.0141
 Octapole moment (field-independent basis, Debye-Ang**2):
  XXX=              7.0508  YYY=              0.1929  ZZZ=             -0.3350  XYY=              6.1682
  XXY=              0.7278  XXZ=             -2.1014  XZZ=              4.8654  YZZ=             -0.4651
  YYZ=             -1.1328  XYZ=             -0.0029
 Hexadecapole moment (field-independent basis, Debye-Ang**3):
 XXXX=           -545.1960 YYYY=           -152.5084 ZZZZ=            -66.6907 XXXY=             -1.7493
 XXXZ=             -1.2672 YYYX=             -4.6897 YYYZ=             -0.8597 ZZZX=             -0.2996
 ZZZY=             -0.3177 XXYY=           -114.2552 XXZZ=           -100.6017 YYZZ=            -38.6974
 XXYZ=              0.8310 YYXZ=              0.5787 ZZXY=             -1.0260
 N-N= 1.665808929029D+02 E-N=-1.432270516878D+03  KE= 3.970466676718D+02
                          Isotropic Fermi Contact Couplings
        Atom                 a.u.       MegaHertz       Gauss      10(-4) cm-1
     1  C(13)             -0.00503      -5.66028      -2.01973      -1.88807
     2  H(1)               0.00036       1.59521       0.56921       0.53211
     3  H(1)               0.00039       1.74704       0.62339       0.58275
     4  H(1)               0.00025       1.10733       0.39512       0.36937
     5  C(13)              0.01831      20.58567       7.34548       6.86664
     6  H(1)              -0.00869     -38.86425     -13.86773     -12.96372
     7  H(1)              -0.02375    -106.16376     -37.88187     -35.41242
     8  C(13)             -0.11518    -129.48592     -46.20380     -43.19185
     9  H(1)               0.01151      51.45608      18.36081      17.16390
    10  H(1)               0.01125      50.28187      17.94182      16.77223
    11  O(17)              0.05961     -36.13386     -12.89346     -12.05296
    12  O(17)              0.12112     -73.42346     -26.19932     -24.49143
 --------------------------------------------------------
       Center         ----  Spin Dipole Couplings  ----
                      3XX-RR        3YY-RR        3ZZ-RR
 --------------------------------------------------------
     1   Atom        0.010251     -0.011555      0.001304
     2   Atom        0.014259     -0.011184     -0.003076
     3   Atom        0.003680     -0.003780      0.000099
     4   Atom        0.005055     -0.005734      0.000680
     5   Atom       -0.002680      0.000412      0.002268
     6   Atom        0.010573      0.000629     -0.011202
     7   Atom       -0.006435      0.002852      0.003583
     8   Atom       -0.197202      0.001263      0.195938
     9   Atom        0.016215     -0.037707      0.021492
    10   Atom        0.030039      0.025110     -0.055149
    11   Atom       -0.743530      1.052215     -0.308684
    12   Atom       -0.727656      1.248104     -0.520449
 --------------------------------------------------------
                        XY            XZ            YZ
 --------------------------------------------------------
     1   Atom       -0.007834     -0.000948      0.002857
     2   Atom        0.006153     -0.002411     -0.002227
     3   Atom       -0.001751     -0.000618     -0.000822
     4   Atom       -0.003387     -0.000720      0.002513
     5   Atom       -0.006772     -0.003007     -0.005793
     6   Atom       -0.006293     -0.004355     -0.006015
     7   Atom       -0.002426     -0.005676     -0.001904
     8   Atom        0.496976      0.359022     -0.290949
     9   Atom       -0.029570      0.027147      0.025892
    10   Atom        0.016655     -0.023099      0.021484
    11   Atom        0.312738     -1.487770      0.120015
    12   Atom        0.597481     -1.364575     -0.232474
 --------------------------------------------------------


 ---------------------------------------------------------------------------------
              Anisotropic Spin Dipole Couplings in Principal Axis System
 ---------------------------------------------------------------------------------

       Atom             a.u.   MegaHertz   Gauss  10(-4) cm-1        Axes

              Baa    -0.0145    -1.940    -0.692    -0.647  0.2933  0.9436 -0.1534
     1 C(13)  Bbb     0.0014     0.189     0.067     0.063  0.1923  0.0990  0.9763
              Bcc     0.0130     1.751     0.625     0.584  0.9365 -0.3159 -0.1524
 
              Baa    -0.0129    -6.869    -2.451    -2.291 -0.2037  0.9643  0.1691
     2 H(1)   Bbb    -0.0032    -1.718    -0.613    -0.573  0.1811 -0.1326  0.9745
              Bcc     0.0161     8.587     3.064     2.864  0.9622  0.2291 -0.1476
 
              Baa    -0.0044    -2.330    -0.832    -0.777  0.2231  0.9527  0.2063
     3 H(1)   Bbb     0.0003     0.134     0.048     0.045  0.0606 -0.2248  0.9725
              Bcc     0.0041     2.196     0.784     0.733  0.9729 -0.2045 -0.1079
 
              Baa    -0.0073    -3.913    -1.396    -1.305  0.2392  0.9324 -0.2710
     4 H(1)   Bbb     0.0009     0.503     0.180     0.168  0.3179  0.1885  0.9292
              Bcc     0.0064     3.410     1.217     1.137  0.9175 -0.3084 -0.2513
 
              Baa    -0.0109    -1.459    -0.521    -0.487  0.6643  0.6159  0.4234
     5 C(13)  Bbb     0.0030     0.401     0.143     0.134  0.6831 -0.2704 -0.6784
              Bcc     0.0079     1.059     0.378     0.353 -0.3033  0.7399 -0.6004
 
              Baa    -0.0154    -8.208    -2.929    -2.738  0.2490  0.4248  0.8703
     6 H(1)   Bbb     0.0017     0.899     0.321     0.300  0.3318  0.8069 -0.4888
              Bcc     0.0137     7.309     2.608     2.438  0.9099 -0.4105 -0.0600
 
              Baa    -0.0097    -5.182    -1.849    -1.728  0.8821  0.2324  0.4098
     7 H(1)   Bbb     0.0034     1.803     0.643     0.601 -0.3107  0.9408  0.1352
              Bcc     0.0063     3.378     1.206     1.127 -0.3542 -0.2466  0.9021
 
              Baa    -0.8158  -109.475   -39.063   -36.517  0.7039 -0.5761 -0.4155
     8 C(13)  Bbb     0.4053    54.388    19.407    18.142 -0.0976 -0.6578  0.7468
              Bcc     0.4105    55.087    19.656    18.375  0.7035  0.4852  0.5193
 
              Baa    -0.0650   -34.683   -12.376   -11.569  0.4259  0.8213 -0.3795
     9 H(1)   Bbb     0.0189    10.066     3.592     3.358  0.5984 -0.5703 -0.5628
              Bcc     0.0461    24.617     8.784     8.211  0.6787 -0.0126  0.7343
 
              Baa    -0.0678   -36.163   -12.904   -12.063  0.2638 -0.2620  0.9283
    10 H(1)   Bbb     0.0232    12.378     4.417     4.129 -0.5606  0.7415  0.3686
              Bcc     0.0446    23.785     8.487     7.934  0.7849  0.6177 -0.0487
 
              Baa    -2.0616   149.176    53.230    49.760  0.7551 -0.1008  0.6478
    11 O(17)  Bbb     0.9057   -65.538   -23.385   -21.861 -0.5090  0.5326  0.6762
              Bcc     1.1559   -83.639   -29.844   -27.899  0.4132  0.8403 -0.3509
 
              Baa    -2.0175   145.985    52.091    48.695  0.7430 -0.0887  0.6634
    12 O(17)  Bbb     0.3768   -27.263    -9.728    -9.094 -0.5255  0.5365  0.6603
              Bcc     1.6407  -118.722   -42.363   -39.602  0.4145  0.8392 -0.3520
 

 ---------------------------------------------------------------------------------

 No NMR shielding tensors so no spin-rotation constants.
 Leave Link  601 at Wed Apr  1 01:04:05 2015, MaxMem= 3758096384 cpu:       8.6
 (Enter /share/apps/g09/l701.exe)
 Compute integral first derivatives.
 ... and contract with generalized density number  0.
 Leave Link  701 at Wed Apr  1 01:04:06 2015, MaxMem= 3758096384 cpu:       3.9
 (Enter /share/apps/g09/l702.exe)
 L702 exits ... SP integral derivatives will be done elsewhere.
 Leave Link  702 at Wed Apr  1 01:04:06 2015, MaxMem= 3758096384 cpu:       0.2
 (Enter /share/apps/g09/l703.exe)
 Compute integral first derivatives, UseDBF=F ICtDFT=           0.
 Integral derivatives from FoFDir, PRISM(SPDF).
 Calling FoFJK, ICntrl=      2127 FMM=F ISym2X=0 I1Cent= 0 IOpClX= 1 NMat=1 NMatS=1 NMatT=0.
 FoFCou: FMM=F IPFlag=           0 FMFlag=      100000 FMFlg1=         800
         NFxFlg=           0 DoJE=F BraDBF=F KetDBF=F FulRan=T
         Omega=  0.000000  0.000000  1.000000  0.000000  0.000000 ICntrl=    2127 IOpCl=  1
         NMat0=    1 NMatS0=    1 NMatT0=    0 NMatD0=    1 NMtDS0=    0 NMtDT0=    0
         I1Cent=           0 NGrid=           0.
 Symmetry not used in FoFCou.
 Leave Link  703 at Wed Apr  1 01:04:07 2015, MaxMem= 3758096384 cpu:      10.3
 (Enter /share/apps/g09/l716.exe)
 Dipole        =-7.76973958D-01 3.16559984D-01 5.35987931D-02
 ***** Axes restored to original set *****
 -------------------------------------------------------------------
 Center     Atomic                   Forces (Hartrees/Bohr)
 Number     Number              X              Y              Z
 -------------------------------------------------------------------
      1        6          -0.000147059    0.000143040   -0.000160022
      2        1           0.000058237   -0.000101512    0.000001374
      3        1          -0.000038361   -0.000105830    0.000021487
      4        1           0.000016429   -0.000004250    0.000010668
      5        6           0.000736788   -0.000133878   -0.000129018
      6        1          -0.000247584   -0.000143583   -0.000128235
      7        1          -0.000297990   -0.000064642   -0.000038998
      8        6           0.003954895   -0.002537503   -0.001804454
      9        1           0.000646274   -0.000283712   -0.000445009
     10        1           0.000549795   -0.000578156   -0.000107155
     11        8           0.000334884    0.003159976    0.007749927
     12        8          -0.005566307    0.000650050   -0.004970566
 -------------------------------------------------------------------
 Cartesian Forces:  Max     0.007749927 RMS     0.002067052
 Leave Link  716 at Wed Apr  1 01:04:07 2015, MaxMem= 3758096384 cpu:       0.2
 (Enter /share/apps/g09/l103.exe)

 GradGradGradGradGradGradGradGradGradGradGradGradGradGradGradGradGradGrad
 Berny optimization.
 Internal  Forces:  Max     0.006401510 RMS     0.000827177
 Search for a local minimum.
 Step number   1 out of a maximum of   99
 All quantities printed in internal units (Hartrees-Bohrs-Radians)
 RMS Force = .76309D-03 SwitMx=.10000D-02 MixMth= 2
 Mixed Optimization -- En-DIIS/RFO-DIIS
 Second derivative matrix not updated -- first step.
     Eigenvalues ---    0.00401   0.00640   0.01308   0.02121   0.02610
     Eigenvalues ---    0.02908   0.03344   0.03598   0.04754   0.05033
     Eigenvalues ---    0.05793   0.10047   0.10391   0.10956   0.11240
     Eigenvalues ---    0.12109   0.13654   0.15749   0.16767   0.25800
     Eigenvalues ---    0.27240   0.30198   0.31252   0.31547   0.32023
     Eigenvalues ---    0.33034   0.34071   0.34229   0.788171000.00000
     Eigenvalues --- 1000.000001000.000001000.000001000.000001000.00000
     Eigenvalues --- 1000.000001000.000001000.000001000.000001000.00000
     Eigenvalues --- 1000.000001000.000001000.000001000.000001000.00000
     Eigenvalues --- 1000.000001000.000001000.000001000.000001000.00000
     Eigenvalues --- 1000.000001000.000001000.000001000.000001000.00000
     Eigenvalues --- 1000.000001000.000001000.000001000.000001000.00000
     Eigenvalues --- 1000.000001000.000001000.000001000.000001000.00000
     Eigenvalues --- 1000.000001000.000001000.000001000.000001000.00000
     Eigenvalues --- 1000.000001000.000001000.000001000.000001000.00000
     Eigenvalues --- 1000.000001000.000001000.000001000.000001000.00000
     Eigenvalues --- 1000.000001000.000001000.000001000.000001000.00000
     Eigenvalues --- 1000.000001000.000001000.000001000.00000
 RFO step:  Lambda=-1.00095402D-04 EMin= 4.01014071D-03
 Linear search not attempted -- first point.
 Iteration  1 RMS(Cart)=  0.00272806 RMS(Int)=  0.00002328
 Iteration  2 RMS(Cart)=  0.00001416 RMS(Int)=  0.00001353
 Iteration  3 RMS(Cart)=  0.00000000 RMS(Int)=  0.00001353
 Iteration  1 RMS(Cart)=  0.00000002 RMS(Int)=  0.00000006
 Variable       Old X    -DE/DX   Delta X   Delta X   Delta X     New X
                                 (Linear)    (Quad)   (Total)
    R1        2.06838   0.00000   0.00000   0.00007   0.00007   2.06845
    R2        2.06945   0.00006   0.00000   0.00018   0.00018   2.06963
    R3        2.07210   0.00001   0.00000   0.00002   0.00002   2.07213
    R4        2.89721  -0.00001   0.00000  -0.00003  -0.00003   2.89718
    R5        5.41187   0.00002   0.00000  -0.00013  -0.00013   5.41174
    R6        2.07767  -0.00015   0.00000  -0.00009  -0.00009   2.07758
    R7        2.08992   0.00020   0.00000   0.00059   0.00059   2.09051
    R8        2.81330   0.00046   0.00000   0.00047   0.00048   2.81378
    R9        5.75172  -0.00078   0.00000  -0.00189  -0.00190   5.74982
   R10        5.71064  -0.00018   0.00000   0.00032   0.00032   5.71096
   R11        2.05227   0.00058   0.00000   0.00032   0.00034   2.05261
   R12        2.05317   0.00018   0.00000   0.00056   0.00057   2.05374
   R13        4.46298  -0.00182   0.00000   0.00000   0.00000   4.46298
   R14        5.04866  -0.00141   0.00000  -0.02446  -0.02446   5.02419
   R15        5.01071  -0.00074   0.00000  -0.00779  -0.00780   5.00291
   R16        5.62302  -0.00181   0.00000  -0.00987  -0.00987   5.61316
   R17        2.34467  -0.00640   0.00000  -0.00867  -0.00868   2.33599
    A1        1.88865   0.00003   0.00000  -0.00015  -0.00015   1.88850
    A2        1.88303   0.00000   0.00000  -0.00035  -0.00035   1.88267
    A3        1.93217  -0.00014   0.00000  -0.00028  -0.00027   1.93190
    A4        1.88219  -0.00005   0.00000  -0.00013  -0.00013   1.88206
    A5        1.93818   0.00007   0.00000   0.00112   0.00112   1.93930
    A6        1.93758   0.00008   0.00000  -0.00024  -0.00025   1.93733
    A7        1.95952  -0.00014   0.00000  -0.00017  -0.00017   1.95934
    A8        1.92605  -0.00014   0.00000  -0.00096  -0.00096   1.92508
    A9        1.90986  -0.00013   0.00000  -0.00116  -0.00117   1.90869
   A10        1.98857  -0.00002   0.00000   0.00013   0.00014   1.98871
   A11        1.58806   0.00019   0.00000   0.00053   0.00053   1.58859
   A12        1.83073  -0.00011   0.00000  -0.00106  -0.00107   1.82967
   A13        1.90512   0.00014   0.00000   0.00229   0.00229   1.90741
   A14        1.89665   0.00026   0.00000   0.00069   0.00069   1.89734
   A15        2.72171  -0.00011   0.00000   0.00111   0.00111   2.72282
   A16        2.09052   0.00008   0.00000   0.00280   0.00273   2.09325
   A17        2.09673  -0.00062   0.00000   0.00124   0.00119   2.09792
   A18        2.02893   0.00029   0.00000   0.00327   0.00320   2.03213
   A19        1.49577  -0.00168   0.00000   0.00261   0.00260   1.49837
   A20        0.75212   0.00003   0.00000   0.00010   0.00010   0.75223
   A21        0.88951  -0.00006   0.00000  -0.00017  -0.00017   0.88934
   A22        1.12233   0.00015   0.00000   0.00016   0.00017   1.12250
   A23        1.51190   0.00039   0.00000   0.00255   0.00253   1.51443
   A24        1.13498  -0.00002   0.00000  -0.00003  -0.00004   1.13494
   A25        2.07205   0.00055   0.00000  -0.00010  -0.00010   2.07194
   A26        0.79405   0.00035   0.00000   0.00222   0.00221   0.79625
   A27        0.79755   0.00009   0.00000   0.00107   0.00106   0.79860
   A28        2.39038   0.00097   0.00000   0.00157   0.00157   2.39195
   A29        0.77370   0.00017   0.00000   0.00074   0.00074   0.77445
   A30        0.90911   0.00037   0.00000   0.00177   0.00176   0.91087
   A31        1.14018   0.00014   0.00000   0.00136   0.00135   1.14153
   A32        2.75144   0.00100   0.00000   0.00180   0.00179   2.75324
   A33        1.99886   0.00082   0.00000   0.00140   0.00140   2.00026
   A34        0.70780   0.00036   0.00000   0.00331   0.00330   0.71110
   A35        1.96692   0.00051   0.00000   0.00134   0.00135   1.96826
    D1        2.44351   0.00015   0.00000   0.00044   0.00045   2.44395
    D2       -1.80757   0.00011   0.00000   0.00003   0.00003  -1.80754
    D3        0.31578   0.00012   0.00000  -0.00067  -0.00067   0.31511
    D4        1.08815   0.00021   0.00000   0.00182   0.00182   1.08997
    D5        3.09407  -0.00007   0.00000  -0.00067  -0.00067   3.09340
    D6       -1.06214   0.00015   0.00000  -0.00055  -0.00055  -1.06269
    D7       -0.27385  -0.00016   0.00000   0.00046   0.00046  -0.27339
    D8       -1.01026   0.00022   0.00000   0.00145   0.00145  -1.00880
    D9        0.99567  -0.00007   0.00000  -0.00103  -0.00103   0.99463
   D10        3.12264   0.00015   0.00000  -0.00092  -0.00091   3.12172
   D11       -2.37226  -0.00016   0.00000   0.00010   0.00010  -2.37216
   D12       -3.10411   0.00018   0.00000   0.00104   0.00104  -3.10307
   D13       -1.09818  -0.00011   0.00000  -0.00145  -0.00145  -1.09964
   D14        1.02878   0.00011   0.00000  -0.00134  -0.00133   1.02745
   D15        1.81707  -0.00020   0.00000  -0.00032  -0.00032   1.81676
   D16       -0.21585  -0.00012   0.00000   0.00038   0.00038  -0.21547
   D17       -0.68050  -0.00018   0.00000   0.00015   0.00015  -0.68035
   D18        0.20637  -0.00006   0.00000   0.00100   0.00099   0.20736
   D19        0.05037  -0.00011   0.00000  -0.00022  -0.00022   0.05015
   D20        0.67336   0.00004   0.00000   0.00202   0.00201   0.67537
   D21        2.04189   0.00080   0.00000   0.00277   0.00277   2.04466
   D22        2.98875   0.00018   0.00000  -0.01485  -0.01485   2.97390
   D23       -0.55214  -0.00048   0.00000   0.00673   0.00674  -0.54540
   D24        0.82711   0.00027   0.00000  -0.01544  -0.01545   0.81166
   D25       -2.71377  -0.00039   0.00000   0.00614   0.00614  -2.70763
   D26       -1.16019   0.00019   0.00000  -0.01575  -0.01575  -1.17595
   D27        1.58211  -0.00047   0.00000   0.00583   0.00584   1.58795
   D28        0.14200   0.00009   0.00000  -0.00023  -0.00023   0.14177
   D29       -2.62248  -0.00004   0.00000  -0.00190  -0.00189  -2.62437
   D30       -1.60956   0.00027   0.00000   0.00129   0.00130  -1.60826
   D31       -1.31450   0.00018   0.00000   0.00173   0.00173  -1.31277
   D32        2.73774  -0.00004   0.00000   0.00101   0.00101   2.73875
   D33       -0.02673  -0.00016   0.00000  -0.00066  -0.00066  -0.02739
   D34        0.98619   0.00014   0.00000   0.00253   0.00253   0.98872
   D35        1.28125   0.00005   0.00000   0.00297   0.00297   1.28421
   D36        2.01255   0.00027   0.00000  -0.00407  -0.00408   2.00848
   D37       -1.51476  -0.00041   0.00000   0.01669   0.01670  -1.49806
         Item               Value     Threshold  Converged?
 Maximum Force            0.006677     0.000450     NO 
 RMS     Force            0.000763     0.000300     NO 
 Maximum Displacement     0.016485     0.001800     NO 
 RMS     Displacement     0.002725     0.001200     NO 
 Predicted change in Energy=-5.024332D-05
 GradGradGradGradGradGradGradGradGradGradGradGradGradGradGradGradGradGrad

 Leave Link  103 at Wed Apr  1 01:04:07 2015, MaxMem= 3758096384 cpu:       0.3
 (Enter /share/apps/g09/l202.exe)
                          Input orientation:                          
 ---------------------------------------------------------------------
 Center     Atomic      Atomic             Coordinates (Angstroms)
 Number     Number       Type             X           Y           Z
 ---------------------------------------------------------------------
      1          6           0       -1.796635   -0.967076    0.174186
      2          1           0       -0.946356   -1.627755   -0.022362
      3          1           0       -2.676169   -1.382465   -0.329141
      4          1           0       -1.990113   -0.979713    1.253430
      5          6           0       -1.501311    0.455765   -0.314450
      6          1           0       -1.347989    0.461044   -1.403103
      7          1           0       -2.391445    1.091888   -0.150742
      8          6           0       -0.330690    1.092182    0.350161
      9          1           0        0.061668    2.032277   -0.026793
     10          1           0       -0.083254    0.842278    1.378478
     11          8           0        1.469747   -0.170228   -0.511467
     12          8           0        2.417917   -0.313325    0.268645
 ---------------------------------------------------------------------
                    Distance matrix (angstroms):
                    1          2          3          4          5
     1  C    0.000000
     2  H    1.094578   0.000000
     3  H    1.095201   1.773846   0.000000
     4  H    1.096522   1.771167   1.771274   0.000000
     5  C    1.533121   2.175855   2.181650   2.181232   0.000000
     6  H    2.174546   2.535909   2.513162   3.089542   1.099409
     7  H    2.167651   3.082405   2.497062   2.534620   1.106251
     8  C    2.533872   2.813517   3.476579   2.803985   1.488989
     9  H    3.534091   3.796310   4.387212   3.862753   2.238535
    10  H    2.767626   2.967889   3.819509   2.640341   2.241938
    11  O    3.431375   2.863767   4.323352   3.967462   3.042674
    12  O    4.266000   3.623637   5.239286   4.565588   4.036316
                    6          7          8          9         10
     6  H    0.000000
     7  H    1.747904   0.000000
     8  C    2.123009   2.120758   0.000000
     9  H    2.519948   2.630106   1.086194   0.000000
    10  H    3.079300   2.780030   1.086791   1.847129   0.000000
    11  O    3.022111   4.078217   2.361706   2.658688   2.647428
    12  O    4.192426   5.027968   3.088193   3.337820   2.970354
                   11         12
    11  O    0.000000
    12  O    1.236155   0.000000
 Stoichiometry    C3H7O2(2)
 Framework group  C1[X(C3H7O2)]
 Deg. of freedom    30
 Full point group                 C1      NOp   1
 Largest Abelian subgroup         C1      NOp   1
 Largest concise Abelian subgroup C1      NOp   1
                         Standard orientation:                         
 ---------------------------------------------------------------------
 Center     Atomic      Atomic             Coordinates (Angstroms)
 Number     Number       Type             X           Y           Z
 ---------------------------------------------------------------------
      1          6           0       -1.796678   -0.966305    0.173868
      2          1           0       -0.947125   -1.628014   -0.022345
      3          1           0       -2.676617   -1.380865   -0.329437
      4          1           0       -1.990314   -0.978360    1.253090
      5          6           0       -1.499675    0.456036   -0.315207
      6          1           0       -1.346203    0.460776   -1.403840
      7          1           0       -2.389108    1.093224   -0.151831
      8          6           0       -0.328421    1.091347    0.349347
      9          1           0        0.065054    2.030870   -0.027870
     10          1           0       -0.081405    0.841508    1.377781
     11          8           0        1.470696   -0.173395   -0.511618
     12          8           0        2.418599   -0.317306    0.268669
 ---------------------------------------------------------------------
 Rotational constants (GHZ):      9.0557199      2.2185798      1.9766351
 Leave Link  202 at Wed Apr  1 01:04:07 2015, MaxMem= 3758096384 cpu:       0.5
 (Enter /share/apps/g09/l301.exe)
 Standard basis: 6-31G(d) (6D, 7F)
 Ernie: Thresh=  0.10000D-02 Tol=  0.10000D-05 Strict=F.
 There are    89 symmetry adapted basis functions of A   symmetry.
 Integral buffers will be    131072 words long.
 Raffenetti 2 integral format.
 Two-electron integral symmetry is turned on.
    89 basis functions,   168 primitive gaussians,    89 cartesian basis functions
    21 alpha electrons       20 beta electrons
       nuclear repulsion energy       166.7128860193 Hartrees.
 IExCor=  402 DFT=T Ex+Corr=B3LYP ExCW=0 ScaHFX=  0.200000
 ScaDFX=  0.800000  0.720000  1.000000  0.810000 ScalE2=  1.000000  1.000000
 IRadAn=      0 IRanWt=     -1 IRanGd=            0 ICorTp=0
 NAtoms=   12 NActive=   12 NUniq=   12 SFac= 7.50D-01 NAtFMM=   80 NAOKFM=F Big=F
 Leave Link  301 at Wed Apr  1 01:04:07 2015, MaxMem= 3758096384 cpu:       0.4
 (Enter /share/apps/g09/l302.exe)
 NPDir=0 NMtPBC=     1 NCelOv=     1 NCel=       1 NClECP=     1 NCelD=      1
         NCelK=      1 NCelE2=     1 NClLst=     1 CellRange=     0.0.
 One-electron integrals computed using PRISM.
 NBasis=    89 RedAO= T  NBF=    89
 NBsUse=    89 1.00D-06 NBFU=    89
 Precomputing XC quadrature grid using
 IXCGrd= 2 IRadAn=           0 IRanWt=          -1 IRanGd=           0 AccXCQ= 1.00D-10.
 NRdTot=     742 NPtTot=       94340 NUsed=       99703 NTot=       99735
 NSgBfM=    89    89    89    89    89 NAtAll=    12    12.
 Leave Link  302 at Wed Apr  1 01:04:08 2015, MaxMem= 3758096384 cpu:       4.6
 (Enter /share/apps/g09/l303.exe)
 DipDrv:  MaxL=1.
 Leave Link  303 at Wed Apr  1 01:04:08 2015, MaxMem= 3758096384 cpu:       0.9
 (Enter /share/apps/g09/l401.exe)
 Initial guess read from the read-write file.
 B after Tr=     0.000000    0.000000    0.000000
         Rot=    1.000000    0.000000    0.000000    0.000000 Ang=   0.00 deg.
 Guess basis will be translated and rotated to current coordinates.
 Initial guess orbital symmetries:
 Alpha Orbitals:
       Occupied  (A) (A) (A) (A) (A) (A) (A) (A) (A) (A) (A) (A)
                 (A) (A) (A) (A) (A) (A) (A) (A) (A)
       Virtual   (A) (A) (A) (A) (A) (A) (A) (A) (A) (A) (A) (A)
                 (A) (A) (A) (A) (A) (A) (A) (A) (A) (A) (A) (A)
                 (A) (A) (A) (A) (A) (A) (A) (A) (A) (A) (A) (A)
                 (A) (A) (A) (A) (A) (A) (A) (A) (A) (A) (A) (A)
                 (A) (A) (A) (A) (A) (A) (A) (A) (A) (A) (A) (A)
                 (A) (A) (A) (A) (A) (A) (A) (A)
 Beta  Orbitals:
       Occupied  (A) (A) (A) (A) (A) (A) (A) (A) (A) (A) (A) (A)
                 (A) (A) (A) (A) (A) (A) (A) (A)
       Virtual   (A) (A) (A) (A) (A) (A) (A) (A) (A) (A) (A) (A)
                 (A) (A) (A) (A) (A) (A) (A) (A) (A) (A) (A) (A)
                 (A) (A) (A) (A) (A) (A) (A) (A) (A) (A) (A) (A)
                 (A) (A) (A) (A) (A) (A) (A) (A) (A) (A) (A) (A)
                 (A) (A) (A) (A) (A) (A) (A) (A) (A) (A) (A) (A)
                 (A) (A) (A) (A) (A) (A) (A) (A) (A)
 The electronic state of the initial guess is 2-A.
 Initial guess <Sx>= 0.0000 <Sy>= 0.0000 <Sz>= 0.5000 <S**2>= 1.3939 S= 0.7822
 Leave Link  401 at Wed Apr  1 01:04:08 2015, MaxMem= 3758096384 cpu:       1.0
 (Enter /share/apps/g09/l508.exe)
 Direct SCF.
 Tight linear equation convergence will be used.
 UB3LYP wavefunction.
 Quadratic Convergence SCF Method.
 Line search only if initial step raises energy.
 Integral symmetry usage will be decided dynamically.
 ReadGW:  IGet=1 IStart=           2 Next=       99584 LGW=       99582.
 Pruned (  75, 302) grid will be used in CalDFT.
 Keep R1 and R2 ints in memory in canonical form, NReq=17125503.
 Symmetry not used in FoFDir.
 MinBra= 0 MaxBra= 2 Meth= 1.
 IRaf=       0 NMat=   1 IRICut=       1 DoRegI=T DoRafI=F ISym2E= 0 JSym2E=0.
 Iteration   1 EE= -268.797205368777                                    Grad=6.774D-03
 QCNR:  CnvC1=5.30D-09 CnvC2=5.30D-08
 LinEq1:  Iter=  0 NonCon=     1 RMS=1.28D-04 Max=2.69D-03
 AX will form     1 AO Fock derivatives at one time.
 LinEq1:  Iter=  1 NonCon=     1 RMS=2.91D-05 Max=6.52D-04
 LinEq1:  Iter=  2 NonCon=     1 RMS=3.80D-05 Max=8.12D-04
 LinEq1:  Iter=  3 NonCon=     1 RMS=2.95D-05 Max=6.05D-04
 LinEq1:  Iter=  4 NonCon=     1 RMS=1.52D-05 Max=4.94D-04
 LinEq1:  Iter=  5 NonCon=     1 RMS=6.17D-06 Max=1.37D-04
 LinEq1:  Iter=  6 NonCon=     1 RMS=6.73D-06 Max=1.52D-04
 LinEq1:  Iter=  7 NonCon=     1 RMS=2.74D-06 Max=3.27D-05
 LinEq1:  Iter=  8 NonCon=     1 RMS=1.25D-06 Max=1.38D-05
 LinEq1:  Iter=  9 NonCon=     1 RMS=6.10D-07 Max=1.02D-05
 LinEq1:  Iter= 10 NonCon=     1 RMS=2.49D-07 Max=6.49D-06
 LinEq1:  Iter= 11 NonCon=     1 RMS=8.20D-08 Max=1.60D-06
 LinEq1:  Iter= 12 NonCon=     1 RMS=2.90D-08 Max=3.73D-07
 LinEq1:  Iter= 13 NonCon=     1 RMS=1.59D-08 Max=2.02D-07
 LinEq1:  Iter= 14 NonCon=     1 RMS=5.84D-09 Max=7.74D-08
 LinEq1:  Iter= 15 NonCon=     0 RMS=1.32D-09 Max=1.24D-08
 Linear equations converged to 5.299D-09 5.299D-08 after    15 iterations.
 Angle between quadratic step and gradient=  46.54 degrees.
     ILin= 1 X=0.000D+00 Y=-2.687972053688D+02 DE= 0.00D+00
     ILin= 2 X=1.000D+00 Y=-2.687972454503D+02 DE=-4.01D-05
     ILin= 3 X=1.414D+00 Y=-2.687972385735D+02 DE=-3.32D-05
     Reject polynomial minimum 1.000D+00.
     ILin= 4 X=2.000D+00 Y=-2.687972053697D+02 DE=-9.01D-10
     Reject polynomial minimum 1.000D+00.
     ILin= 5 X=2.828D+00 Y=-2.687971114577D+02 DE= 9.39D-05
     Reject polynomial minimum 1.000D+00.
     ILin= 6 X=4.000D+00 Y=-2.687968847461D+02 DE= 3.21D-04
     An  expanding polynomial of degree  6 produced  1.0000
 Iteration   2 EE= -268.797245450275     Delta-E=       -0.000040081498 Grad=6.631D-06
 QCNR:  CnvC1=6.63D-11 CnvC2=6.63D-10
 LinEq1:  Iter=  0 NonCon=     1 RMS=1.99D-07 Max=5.98D-06
 LinEq1:  Iter=  1 NonCon=     1 RMS=1.96D-07 Max=3.80D-06
 LinEq1:  Iter=  2 NonCon=     1 RMS=1.67D-07 Max=5.21D-06
 LinEq1:  Iter=  3 NonCon=     1 RMS=1.40D-07 Max=2.35D-06
 LinEq1:  Iter=  4 NonCon=     1 RMS=9.40D-08 Max=1.96D-06
 LinEq1:  Iter=  5 NonCon=     1 RMS=3.62D-08 Max=5.61D-07
 LinEq1:  Iter=  6 NonCon=     1 RMS=1.21D-08 Max=2.56D-07
 LinEq1:  Iter=  7 NonCon=     1 RMS=4.35D-09 Max=3.93D-08
 LinEq1:  Iter=  8 NonCon=     1 RMS=1.54D-09 Max=1.40D-08
 LinEq1:  Iter=  9 NonCon=     1 RMS=9.01D-10 Max=1.29D-08
 LinEq1:  Iter= 10 NonCon=     1 RMS=3.02D-10 Max=5.62D-09
 LinEq1:  Iter= 11 NonCon=     1 RMS=9.50D-11 Max=1.36D-09
 LinEq1:  Iter= 12 NonCon=     0 RMS=3.41D-11 Max=2.68D-10
 Linear equations converged to 6.631D-11 6.631D-10 after    12 iterations.
 Angle between quadratic step and gradient=  44.44 degrees.
     ILin= 1 X=0.000D+00 Y=-2.687972454503D+02 DE= 0.00D+00
     ILin= 2 X=1.000D+00 Y=-2.687972454503D+02 DE=-4.27D-11
 Iteration   3 EE= -268.797245450318     Delta-E=       -0.000000000043 Grad=8.556D-11
 Rotation gradient small -- convergence achieved.
 SCF Done:  E(UB3LYP) =  -268.797245450     a.u. after    3 cycles
            Convg  =    0.8556D-10                    35 Fock formations.
              S**2 =  1.3980                  -V/T =  2.0093
 <Sx>= 0.0000 <Sy>= 0.0000 <Sz>= 0.5000 <S**2>= 1.3980 S= 0.7838
 <L.S>= 0.000000000000E+00
 Annihilation of the first spin contaminant:
 S**2 before annihilation     1.3980,   after     0.7642
 Leave Link  508 at Wed Apr  1 01:04:22 2015, MaxMem= 3758096384 cpu:     143.5
 (Enter /share/apps/g09/l701.exe)
 Compute integral first derivatives.
 ... and contract with generalized density number  0.
 Leave Link  701 at Wed Apr  1 01:04:22 2015, MaxMem= 3758096384 cpu:       5.1
 (Enter /share/apps/g09/l702.exe)
 L702 exits ... SP integral derivatives will be done elsewhere.
 Leave Link  702 at Wed Apr  1 01:04:22 2015, MaxMem= 3758096384 cpu:       0.1
 (Enter /share/apps/g09/l703.exe)
 Compute integral first derivatives, UseDBF=F ICtDFT=           0.
 Integral derivatives from FoFDir, PRISM(SPDF).
 Calling FoFJK, ICntrl=      2127 FMM=F ISym2X=0 I1Cent= 0 IOpClX= 1 NMat=1 NMatS=1 NMatT=0.
 FoFCou: FMM=F IPFlag=           0 FMFlag=      100000 FMFlg1=         800
         NFxFlg=           0 DoJE=F BraDBF=F KetDBF=F FulRan=T
         Omega=  0.000000  0.000000  1.000000  0.000000  0.000000 ICntrl=    2127 IOpCl=  1
         NMat0=    1 NMatS0=    1 NMatT0=    0 NMatD0=    1 NMtDS0=    0 NMtDT0=    0
         I1Cent=           0 NGrid=           0.
 Symmetry not used in FoFCou.
 Leave Link  703 at Wed Apr  1 01:04:24 2015, MaxMem= 3758096384 cpu:      16.3
 (Enter /share/apps/g09/l716.exe)
 Dipole        =-7.61461810D-01 3.09788485D-01 5.03200365D-02
 ***** Axes restored to original set *****
 -------------------------------------------------------------------
 Center     Atomic                   Forces (Hartrees/Bohr)
 Number     Number              X              Y              Z
 -------------------------------------------------------------------
      1        6          -0.000015680    0.000035742    0.000005368
      2        1           0.000040739   -0.000124001   -0.000003012
      3        1           0.000005136    0.000007827    0.000004311
      4        1          -0.000000573   -0.000022206    0.000015710
      5        6           0.000239103    0.000185701   -0.000007838
      6        1          -0.000005154   -0.000050454   -0.000106740
      7        1          -0.000158422   -0.000124075   -0.000033958
      8        6           0.004284844   -0.002865448   -0.002075456
      9        1           0.000234755   -0.000298821   -0.000113638
     10        1           0.000297139   -0.000257976   -0.000301958
     11        8          -0.003777105    0.003515530    0.003946435
     12        8          -0.001144782   -0.000001819   -0.001329223
 -------------------------------------------------------------------
 Cartesian Forces:  Max     0.004284844 RMS     0.001459885
 Leave Link  716 at Wed Apr  1 01:04:24 2015, MaxMem= 3758096384 cpu:       0.2
 (Enter /share/apps/g09/l103.exe)

 GradGradGradGradGradGradGradGradGradGradGradGradGradGradGradGradGradGrad
 Berny optimization.
 Using GEDIIS/GDIIS optimizer.
 Internal  Forces:  Max     0.002020857 RMS     0.000412383
 Search for a local minimum.
 Step number   2 out of a maximum of   99
 All quantities printed in internal units (Hartrees-Bohrs-Radians)
 RMS Force = .18934D-03 SwitMx=.10000D-02 MixMth= 2
 Mixed Optimization -- En-DIIS/RFO-DIIS
 Swaping is turned off.
 Update second derivatives using D2CorX and points    1    2
 DE= -6.61D-05 DEPred=-5.02D-05 R= 1.32D+00
 SS=  1.41D+00  RLast= 4.57D-02 DXNew= 5.0454D-01 1.3699D-01
 Trust test= 1.32D+00 RLast= 4.57D-02 DXMaxT set to 3.00D-01
     Eigenvalues ---    0.00401   0.00638   0.01089   0.02058   0.02537
     Eigenvalues ---    0.02880   0.03312   0.03574   0.04728   0.05013
[...]
     Eigenvalues ---   -0.00007   0.00023   0.00104   0.00140   0.00264
     Eigenvalues ---    0.00651   0.01081   0.01474   0.01944   0.02599
     Eigenvalues ---    0.03144   0.03819   0.05532   0.07566   0.08027
     Eigenvalues ---    0.08301   0.09785   0.10890   0.13034   0.21664
     Eigenvalues ---    0.25140   0.28733   0.29498   0.30014   0.31416
     Eigenvalues ---    0.31748   0.33703   0.34424   0.602691000.00000
     Eigenvalues --- 1000.000001000.000001000.000001000.000001000.00000
     Eigenvalues --- 1000.000001000.000001000.000001000.000001000.00000
     Eigenvalues --- 1000.000001000.000001000.000001000.000001000.00000
     Eigenvalues --- 1000.000001000.000001000.000001000.000001000.00000
     Eigenvalues --- 1000.000001000.000001000.000001000.000001000.00000
     Eigenvalues --- 1000.000001000.000001000.000001000.000001000.00000
     Eigenvalues --- 1000.000001000.000001000.000001000.000001000.00000
     Eigenvalues --- 1000.000001000.000001000.000001000.000001000.00000
     Eigenvalues --- 1000.000001000.000001000.000001000.000001000.00000
     Eigenvalues --- 1000.000001000.000001000.000001000.000001000.00000
     Eigenvalues --- 1000.000001000.000001000.000001000.000001000.00000
     Eigenvalues --- 1000.000001000.000001000.000001000.00000
 Eigenvalue     1 is  -7.49D-05 should be greater than     0.000000 Eigenvector:
                          D31       D35       A25       A35       R16
   1                    0.57714   0.51604  -0.40312   0.19474  -0.19205
                          A28       D37       D36       A32       D21
   1                   -0.17447  -0.16927  -0.16120  -0.14703   0.09841
 Angle between quadratic step and forces=  76.36 degrees.
 Linear search not attempted -- first point.
 Iteration  1 RMS(Cart)=  0.00447552 RMS(Int)=  0.00012240
 Iteration  2 RMS(Cart)=  0.00007240 RMS(Int)=  0.00006942
 Iteration  3 RMS(Cart)=  0.00000002 RMS(Int)=  0.00006942
 Iteration  1 RMS(Cart)=  0.00000177 RMS(Int)=  0.00000458
 Iteration  2 RMS(Cart)=  0.00000117 RMS(Int)=  0.00000507
 Iteration  3 RMS(Cart)=  0.00000077 RMS(Int)=  0.00000583
 Variable       Old X    -DE/DX   Delta X   Delta X   Delta X     New X
                                 (Linear)    (Quad)   (Total)
    R1        2.06870  -0.00010   0.00000   0.00001   0.00000   2.06870
    R2        2.06963   0.00000   0.00000   0.00000   0.00000   2.06964
    R3        2.07219   0.00000   0.00000   0.00000   0.00000   2.07219
    R4        2.89779  -0.00006   0.00000  -0.00010  -0.00010   2.89769
    R5        5.37656   0.00001   0.00000   0.00641   0.00641   5.38297
    R6        2.07807  -0.00011   0.00000   0.00002   0.00009   2.07816
    R7        2.09048   0.00000   0.00000   0.00001   0.00001   2.09049
    R8        2.81331   0.00049   0.00000   0.00007   0.00009   2.81339
    R9        5.72166  -0.00090   0.00000   0.00092   0.00094   5.72259
   R10        5.66695  -0.00033   0.00000  -0.00069  -0.00068   5.66627
   R11        2.05192   0.00036   0.00000   0.00000   0.00002   2.05194
   R12        2.05288   0.00022   0.00000   0.00001   0.00002   2.05290
   R13        4.46297  -0.00213   0.00000   0.00000  -0.00002   4.46296
   R14        5.01419  -0.00120   0.00000   0.00002  -0.00001   5.01418
   R15        4.98780  -0.00099   0.00000   0.00061   0.00050   4.98830
   R16        5.62140  -0.00057   0.00000  -0.00577  -0.00559   5.61582
   R17        2.33335   0.00032   0.00000   0.00000  -0.00007   2.33329
    A1        1.88825   0.00010   0.00000  -0.00007  -0.00007   1.88818
    A2        1.88267  -0.00003   0.00000  -0.00002  -0.00001   1.88266
    A3        1.93272  -0.00010   0.00000   0.00006   0.00005   1.93277
    A4        1.88182  -0.00001   0.00000  -0.00002  -0.00002   1.88180
    A5        1.93894  -0.00002   0.00000  -0.00002  -0.00002   1.93892
    A6        1.93734   0.00007   0.00000   0.00006   0.00007   1.93740
    A7        1.95953  -0.00017   0.00000  -0.00093  -0.00092   1.95860
    A8        1.92424   0.00005   0.00000  -0.00001   0.00001   1.92425
    A9        1.90730  -0.00002   0.00000   0.00002   0.00002   1.90732
   A10        1.98789  -0.00007   0.00000   0.00027   0.00025   1.98814
   A11        1.58538   0.00020   0.00000   0.00150   0.00150   1.58688
   A12        1.82952  -0.00017   0.00000  -0.00006  -0.00007   1.82945
   A13        1.90716  -0.00002   0.00000   0.00002   0.00001   1.90717
   A14        1.90090   0.00021   0.00000  -0.00027  -0.00026   1.90065
   A15        2.73280  -0.00024   0.00000  -0.00116  -0.00116   2.73164
   A16        2.09686  -0.00021   0.00000  -0.00034  -0.00034   2.09652
   A17        2.10077  -0.00036   0.00000  -0.00002   0.00004   2.10081
   A18        2.03504   0.00021   0.00000   0.00011   0.00008   2.03512
   A19        1.50476  -0.00052   0.00000   0.00369   0.00361   1.50837
   A20        0.75700   0.00002   0.00000  -0.00045  -0.00045   0.75655
   A21        0.89601   0.00001   0.00000  -0.00042  -0.00042   0.89559
   A22        1.12846   0.00014   0.00000  -0.00084  -0.00085   1.12761
   A23        1.52183   0.00029   0.00000  -0.00078  -0.00078   1.52105
   A24        1.13771   0.00008   0.00000  -0.00097  -0.00096   1.13675
   A25        2.06326   0.00013   0.00000  -0.02300  -0.02299   2.04026
   A26        0.80047   0.00026   0.00000  -0.00017  -0.00017   0.80030
   A27        0.80289   0.00019   0.00000  -0.00012  -0.00010   0.80279
   A28        2.40466   0.00029   0.00000  -0.00842  -0.00853   2.39613
   A29        0.78056   0.00017   0.00000   0.00012   0.00013   0.78069
   A30        0.91672   0.00023   0.00000   0.00018   0.00019   0.91690
   A31        1.14823   0.00023   0.00000   0.00000   0.00003   1.14826
   A32        2.76952   0.00032   0.00000  -0.00662  -0.00714   2.76238
   A33        2.01385   0.00016   0.00000   0.00115   0.00121   2.01506
   A34        0.71335   0.00032   0.00000  -0.00002  -0.00001   0.71334
   A35        1.98341   0.00010   0.00000   0.01183   0.01193   1.99534
    D1        2.43599   0.00008   0.00000  -0.00080  -0.00080   2.43519
    D2       -1.81591   0.00010   0.00000  -0.00087  -0.00087  -1.81678
    D3        0.30725   0.00010   0.00000  -0.00078  -0.00076   0.30648
    D4        1.08679   0.00019   0.00000   0.00003   0.00001   1.08681
    D5        3.08880   0.00001   0.00000  -0.00003  -0.00005   3.08875
    D6       -1.06428   0.00023   0.00000  -0.00018  -0.00019  -1.06448
    D7       -0.26615  -0.00015   0.00000   0.00028   0.00027  -0.26588
    D8       -1.01197   0.00015   0.00000   0.00009   0.00009  -1.01188
    D9        0.99003  -0.00002   0.00000   0.00003   0.00002   0.99005
   D10        3.12014   0.00019   0.00000  -0.00013  -0.00012   3.12002
   D11       -2.36491  -0.00019   0.00000   0.00033   0.00034  -2.36458
   D12       -3.10570   0.00014   0.00000   0.00009   0.00008  -3.10562
   D13       -1.10370  -0.00004   0.00000   0.00002   0.00002  -1.10369
   D14        1.02640   0.00017   0.00000  -0.00013  -0.00013   1.02628
   D15        1.82454  -0.00021   0.00000   0.00033   0.00033   1.82487
   D16       -0.21013  -0.00010   0.00000   0.00047   0.00046  -0.20968
   D17       -0.67498  -0.00014   0.00000   0.00031   0.00029  -0.67469
   D18        0.21696  -0.00001   0.00000   0.00099   0.00099   0.21795
   D19        0.06137  -0.00011   0.00000   0.00113   0.00112   0.06249
   D20        0.68557   0.00011   0.00000   0.00113   0.00114   0.68671
   D21        2.07592   0.00020   0.00000   0.00970   0.00984   2.08576
   D22        2.96357   0.00052   0.00000   0.00195   0.00194   2.96552
   D23       -0.52543  -0.00062   0.00000   0.00114   0.00119  -0.52424
   D24        0.80323   0.00052   0.00000   0.00175   0.00174   0.80497
   D25       -2.68578  -0.00062   0.00000   0.00094   0.00099  -2.68479
   D26       -1.18598   0.00061   0.00000   0.00195   0.00195  -1.18403
   D27        1.60820  -0.00053   0.00000   0.00114   0.00120   1.60940
   D28        0.13825   0.00007   0.00000  -0.00024  -0.00024   0.13802
   D29       -2.62086  -0.00004   0.00000   0.00076   0.00078  -2.62008
   D30       -1.60598   0.00019   0.00000   0.00089   0.00090  -1.60508
   D31       -1.29014   0.00014   0.00000   0.03435   0.03423  -1.25591
   D32        2.75302  -0.00006   0.00000   0.00215   0.00216   2.75518
   D33       -0.00609  -0.00017   0.00000   0.00315   0.00318  -0.00291
   D34        1.00878   0.00007   0.00000   0.00328   0.00330   1.01209
   D35        1.32462   0.00002   0.00000   0.03674   0.03663   1.36126
   D36        1.98523   0.00071   0.00000  -0.00847  -0.00858   1.97665
   D37       -1.49191  -0.00046   0.00000  -0.00933  -0.00939  -1.50130
         Item               Value     Threshold  Converged?
 Maximum Force            0.000012     0.000450     YES
 RMS     Force            0.000004     0.000300     YES
 Maximum Displacement     0.029274     0.001800     NO 
 RMS     Displacement     0.004492     0.001200     NO 
 Predicted change in Energy=-2.569659D-07
 GradGradGradGradGradGradGradGradGradGradGradGradGradGradGradGradGradGrad

 Leave Link  103 at Wed Apr  1 01:08:14 2015, MaxMem= 3758096384 cpu:       1.9
 (Enter /share/apps/g09/l9999.exe)
 1\1\GINC-COMPUTE-0-4\Freq\UB3LYP\6-31G(d)\C3H7O2(2)\HETANJIN\01-Apr-20
 15\0\\#P Geom=AllCheck Guess=TCheck SCRF=Check GenChk UB3LYP/6-31G(d) 
 Freq\\C3H7O2_62_b3631gd using cbs-qb3 to calculate energy\\0,2\C,-1.79
 14060555,-0.9657528806,0.1756548412\H,-0.9373341046,-1.6235460802,-0.0
 147480314\H,-2.6663594325,-1.3860118926,-0.3316004886\H,-1.9910048027,
 -0.9770343253,1.2538335834\C,-1.5002187952,0.4577760096,-0.3144809354\
 H,-1.3381366724,0.460150058,-1.4021378307\H,-2.3965309469,1.0875990137
 ,-0.1605185721\C,-0.3374583904,1.1007840295,0.3569878533\H,0.061765603
 4,2.0368066022,-0.0218315728\H,-0.0826426561,0.8422348084,1.3808748976
 \O,1.4558009809,-0.1671550928,-0.5114564523\O,2.4088962721,-0.33097924
 99,0.2562657078\\Version=EM64L-G09RevA.01\State=2-A\HF=-268.7972655\S2
 =1.400387\S2-1=0.\S2A=0.764327\RMSD=0.000e+00\RMSF=1.480e-03\ZeroPoint
 =0.0947029\Thermal=0.1019075\Dipole=-0.7511162,0.3078594,0.0508366\Dip
 oleDeriv=0.0821215,-0.0127376,0.0095763,0.0451746,0.0318034,0.0093533,
 -0.0740563,0.007658,0.1217422,-0.0366306,0.1059524,0.027928,0.0451748,
 -0.0179851,0.0044385,0.0381294,-0.0063778,0.048858,-0.0945704,-0.09314
 96,-0.0753956,-0.1024132,-0.0024753,-0.0123394,-0.0811752,-0.0324831,0
 .0150999,0.0608094,-0.0081948,0.0246918,0.0006477,0.0224927,-0.0136993
 ,0.0547954,0.0287364,-0.1553639,-0.0542788,-0.0077648,-0.0397574,0.123
 7984,0.0839124,0.0150502,-0.0453324,0.007387,0.0788367,0.0262114,-0.01
 63613,0.0328078,-0.110204,0.0272613,0.00745,-0.0140174,0.0348814,-0.14
 15403,-0.1903201,0.1155614,0.0087662,-0.022478,-0.0338921,-0.0056168,-
 0.0249869,-0.0026103,0.0681956,-0.0996123,0.2099268,0.1064363,0.407487
 4,-0.0884236,-0.1143833,0.4001937,-0.1734827,0.103671,0.0141598,-0.071
 1478,-0.0129401,-0.0728049,-0.0659785,0.0309326,-0.0117861,0.0381565,0
 .0338632,0.014948,-0.0203399,-0.0312992,-0.0096113,0.0404144,0.0456062
 ,-0.0333907,0.0138974,-0.0625317,1.4829394,-0.6995705,-0.2438023,-0.48
 63402,0.1615512,0.0664553,0.7257917,-0.3407982,-0.1845077,-1.2057774,0
 .4978257,0.1929883,0.1815687,-0.1586808,-0.0332473,-0.9341651,0.425035
 2,0.0736771\Polar=78.2673572,-13.3655241,43.1291899,0.5485313,0.852793
 8,37.371144\PG=C01 [X(C3H7O2)]\NImag=1\\0.58138327,-0.01690130,0.49080
 171,0.00973095,0.03274484,0.56673085,-0.21553416,0.12506436,0.03745383
 ,0.23072659,0.12314315,-0.14163255,-0.02920683,-0.13564284,0.15542661,
 0.03767665,-0.02965447,-0.05970822,-0.04196010,0.02962014,0.05922957,-
 0.21991382,-0.07921304,-0.09974330,-0.01948741,-0.01031884,-0.01271948
 ,0.23550693,-0.07792522,-0.08577116,-0.04629118,0.01537839,0.00867397,
 0.01095135,0.08794811,0.09305532,-0.10013021,-0.04750283,-0.10837968,0
 .00588029,0.00359086,0.00293181,0.10993352,0.04969731,0.11318116,-0.05
 920976,0.00052842,0.04661901,-0.00381345,-0.00084163,0.02676828,0.0063
 2285,0.00070218,-0.02723378,0.05781353,0.00053813,-0.04896254,-0.00248
 050,0.00182114,0.00007191,-0.01999071,0.00357019,-0.00061572,-0.012021
 12,0.00075954,0.05309348,0.04666337,-0.00129938,-0.30233436,0.00057154
 ,-0.00043803,-0.00456367,0.00308313,-0.00030904,-0.01417869,-0.0518388
 0,-0.00056337,0.32848569,-0.07952763,-0.01663266,0.00585340,0.00653658
 ,0.02369987,-0.00935888,-0.00359313,-0.02522675,0.01055471,-0.00215491
 ,-0.00666387,0.00192054,0.49128456,-0.01774661,-0.17723809,0.03464501,
 -0.00491046,-0.01981114,0.00742955,-0.00048226,-0.01142434,0.00511873,
 -0.00002854,-0.00087144,0.00043103,-0.00841496,0.48222321,0.00555527,0
 .03450401,-0.09654664,-0.00190718,-0.00599086,0.00173309,-0.00182162,-
 0.01645339,0.00559270,0.00550079,0.03365583,-0.01007825,-0.00747284,0.
 00137704,0.55401584,-0.00169600,-0.00005667,0.00588936,0.00023284,0.00
 000158,-0.00074320,-0.00013466,0.00008387,0.00023661,0.00060285,-0.001
 56459,-0.00002501,-0.05038988,-0.00145861,0.03908137,0.05862419,-0.005
 57040,0.00010980,0.03236868,0.00056903,0.00119327,-0.00039475,-0.00003
 329,0.00123035,-0.00061230,-0.00125992,-0.00624789,0.00227103,-0.00203
 806,-0.05062308,-0.00350176,0.00283179,0.05353716,0.00173978,0.0006600
 0,-0.00878680,-0.00044856,0.00003119,0.00038413,0.00034004,0.00017085,
 0.00053777,0.00024877,0.00195583,0.00100379,0.04052279,-0.00057483,-0.
 29301857,-0.04103824,0.00147657,0.32132181,0.00608751,-0.00432063,-0.0
 0084219,0.00082276,-0.00189747,0.00044688,0.00066102,0.00048416,-0.000
 14965,0.00019706,0.00037928,-0.00044438,-0.19832750,0.11416588,0.03316
 504,-0.00504441,0.00394115,0.00245467,0.22229411,0.02564603,-0.0208065
 1,-0.00456402,-0.00207541,-0.00582982,0.00281851,-0.00013646,0.0011339
 8,-0.00079346,-0.00006914,0.00148693,0.00026997,0.10193435,-0.11894809
 ,-0.02143888,0.00142223,-0.00065584,-0.00085924,-0.11852460,0.13482605
 ,-0.00889212,0.00777452,0.00144274,0.00027194,0.00222733,0.00013042,0.
 00016353,-0.00080061,0.00018344,-0.00067590,-0.00035217,0.00034264,0.0
 2650199,-0.01813338,-0.04882694,0.02795945,-0.01874584,-0.00642459,-0.
 03116113,0.02182346,0.05297230,-0.01001424,-0.00937453,-0.00155225,0.0
 0099297,0.00172401,-0.00008616,0.00056792,-0.00056647,0.00014921,0.000
 69615,0.00127401,-0.00081586,-0.15794620,-0.06627326,-0.06047607,-0.00
 024665,0.00223928,-0.00298364,-0.02763014,-0.00971220,-0.01533559,0.31
 229392,-0.02928351,-0.01814995,-0.01419720,-0.00012612,0.00191934,-0.0
 0077833,-0.00119345,-0.00554475,0.00193941,0.00022626,0.00157836,-0.00
 085117,-0.06362883,-0.10417102,-0.01696191,0.00112983,0.00203762,-0.00
 021964,0.00827583,0.00954880,0.00746762,0.19933493,0.43502476,0.009523
 53,0.00173522,0.00799804,-0.00012426,0.00064373,0.00020416,0.00098557,
 0.00408869,-0.00074403,0.00129221,0.00084959,0.00055485,-0.06291532,-0
 .02260408,-0.11426504,-0.02988312,-0.01251312,-0.01582054,-0.00162547,
 0.00349628,0.00090464,0.13948338,-0.15695636,0.52575432,-0.00347056,0.
 00017971,-0.00399046,0.00012026,-0.00019679,-0.00005718,-0.00000847,-0
 .00161407,0.00054073,-0.00004132,0.00026027,0.00008637,-0.00245111,-0.
 02170613,0.01157102,0.00072922,0.00058268,-0.00067641,0.00085478,0.001
 17691,0.00030241,-0.07489144,-0.10244323,0.02433765,0.07492321,-0.0026
 3073,0.00021590,-0.00135411,0.00012227,0.00028312,-0.00002336,-0.00014
 033,-0.00062469,0.00033218,0.00011208,0.00010784,0.00008416,0.00010119
 ,-0.00504391,0.00461389,0.00029762,0.00028905,0.00010723,-0.00093737,-
 0.00021698,0.00005528,-0.10932637,-0.26353604,0.10157167,0.11486981,0.
 27102853,-0.00256855,-0.00055264,-0.00095990,0.00007440,0.00011537,-0.
 00014992,-0.00034153,-0.00083600,0.00053673,-0.00028002,-0.00024081,0.
 00036330,-0.00410464,-0.01262982,0.00722208,0.00100660,0.00007512,0.00
 099329,-0.00059592,0.00004109,0.00030472,0.02524363,0.09736843,-0.0877
 0329,-0.02904799,-0.10514243,0.08413687,0.00125970,0.00128547,-0.00006
 019,-0.00000375,-0.00015912,0.00006780,0.00003310,0.00027075,0.0002695
 6,-0.00022559,-0.00038887,0.00078625,0.00149227,0.00478251,-0.02463622
 ,-0.00377595,-0.00184267,-0.00090515,-0.00057514,0.00039257,0.00085498
 ,-0.05327905,-0.00036787,-0.07050662,0.00575214,-0.00327002,0.00957660
 ,0.05020226,0.00106834,0.00141547,-0.00129451,0.00015263,-0.00023669,-
 0.00009011,0.00019737,0.00001262,0.00019425,-0.00012174,0.00029553,0.0
 0033818,-0.00341109,0.00531280,-0.00999908,-0.00220911,-0.00046304,-0.
 00252490,-0.00063280,-0.00023248,-0.00106263,-0.00003977,-0.06110837,0
 .07521514,0.00547425,-0.00118976,0.02411787,-0.00150164,0.05726416,0.0
 0084847,0.00105617,0.00077685,-0.00001179,-0.00041367,-0.00004552,0.00
 014658,-0.00003640,0.00030614,-0.00036585,-0.00075028,0.00033238,0.000
 33463,0.00309638,-0.00656644,-0.00231331,-0.00035316,-0.00042898,-0.00
 016176,-0.00013509,-0.00088633,-0.07595425,0.07929610,-0.30988158,-0.0
 0315848,-0.00016209,-0.00454035,0.08060545,-0.08134061,0.32183336,0.00
 113783,-0.00265575,0.00215912,-0.00062611,0.00188546,-0.00007357,0.000
 22826,0.00146850,-0.00013638,-0.00036141,0.00001308,-0.00017892,0.0012
 4896,-0.00398328,-0.00000760,0.00161151,0.00222108,0.00146459,0.003637
 15,0.00300293,0.00154139,0.02210122,-0.02269810,-0.01405465,-0.0004916
 6,-0.00064968,0.00084241,-0.00114576,0.00165030,-0.00126723,0.36104894
 ,-0.00031248,0.00042213,-0.00063781,-0.00031532,-0.00035656,0.00017444
 ,-0.00022925,-0.00028394,0.00006738,0.00001252,0.00004936,0.00010305,-
 0.00210327,0.00263612,0.00083197,-0.00056301,-0.00056667,-0.00010023,-
 0.00177991,-0.00104553,-0.00057741,-0.01237951,0.00274036,0.00078320,0
 .00329063,-0.00108195,-0.00225441,0.00159024,-0.00168354,-0.00040829,-
 0.04983187,0.01463668,0.00024521,-0.00090733,0.00095322,0.00024289,0.0
 0101282,-0.00024109,0.00009535,0.00067682,-0.00003646,-0.00018919,-0.0
 0014561,-0.00008884,0.00005020,-0.00097661,0.00046746,0.00013939,0.001
 64388,0.00141393,0.00042179,0.00130733,0.00098571,0.00052727,-0.008080
 61,-0.02069490,0.00049869,-0.00085127,-0.00030100,0.00586293,-0.004710
 22,-0.00275371,0.31477332,-0.03751657,0.29730683,-0.00050215,0.0020966
 0,-0.00151727,0.00003290,-0.00139739,0.00003895,-0.00018261,-0.0010034
 4,0.00008538,0.00017399,0.00000168,0.00019176,-0.00617200,0.00605572,0
 .00144805,-0.00051305,-0.00164068,-0.00071864,-0.00297719,-0.00305721,
 -0.00153097,-0.01264445,0.01077426,0.00348712,-0.00102503,0.00145155,0
 .00019500,0.00026577,-0.00062673,0.00129754,-0.38838894,0.06262122,-0.
 32266785,0.41193277,-0.00002538,-0.00040421,0.00026763,-0.00003767,0.0
 0029853,-0.00006227,0.00003126,0.00015837,-0.00001041,-0.00002002,0.00
 001418,-0.00003644,0.00238407,-0.00204101,-0.00063686,0.00008508,0.000
 15927,-0.00012282,0.00084647,0.00073950,0.00032382,0.00309988,-0.00033
 911,0.00369004,0.00012594,-0.00023110,-0.00006178,-0.00079135,0.000613
 30,0.00015094,0.06957732,-0.01546645,0.04854736,-0.07527559,0.01649873
 ,-0.00039236,0.00144189,-0.00118610,-0.00004300,-0.00119206,0.00009526
 ,-0.00012178,-0.00085840,0.00006912,0.00015449,0.00008332,0.00016116,-
 0.00188659,0.00282096,0.00027070,-0.00030989,-0.00171435,-0.00117522,-
 0.00150788,-0.00196596,-0.00112876,-0.00819967,0.01197366,0.01369338,-
 0.00040635,0.00076884,0.00009747,-0.00191540,0.00115662,0.00185419,-0.
 30506248,0.03953469,-0.27701115,0.31969091,-0.05204921,0.26425996\\0.0
 0000258,-0.00001573,0.00000493,0.00000863,0.00000567,-0.00000295,0.000
 00051,0.00000094,0.00000221,0.00000012,0.00000283,0.00000138,0.0000067
 5,0.00002458,0.00000084,0.00000234,-0.00000293,-0.00000149,-0.00000591
 ,-0.00000859,-0.00000344,-0.00477301,0.00336466,0.00230318,0.00000997,
 0.00000436,0.00000626,0.00001171,0.00000162,-0.00000525,0.00474144,-0.
 00339470,-0.00232614,-0.00000513,0.00001730,0.00002047\\\@


 A FOOL CAN ASK MORE QUESTIONS THAN
 A WISE MAN CAN ANSWER.
 Job cpu time:  0 days  0 hours  5 minutes 29.1 seconds.
 File lengths (MBytes):  RWF=     29 Int=      0 D2E=      0 Chk=      3 Scr=      1
 Normal termination of Gaussian 09 at Wed Apr  1 01:08:14 2015.
