 Entering Gaussian System, Link 0=/share/apps/g09/g09
 Input=C3H7O2_62_b3631gd_256.gjf
 Output=C3H7O2_62_b3631gd_256.log
 Initial command:
 /share/apps/g09/l1.exe /state/partition1/Gau-3229.inp -scrdir=/state/partition1/
 Entering Link 1 = /share/apps/g09/l1.exe PID=      3230.
  
 Copyright (c) 1988,1990,1992,1993,1995,1998,2003,2009, Gaussian, Inc.
                  All Rights Reserved.
  
 This is part of the Gaussian(R) 09 program.  It is based on
 the Gaussian(R) 03 system (copyright 2003, Gaussian, Inc.),
 the Gaussian(R) 98 system (copyright 1998, Gaussian, Inc.),
 the Gaussian(R) 94 system (copyright 1995, Gaussian, Inc.),
 the Gaussian 92(TM) system (copyright 1992, Gaussian, Inc.),
 the Gaussian 90(TM) system (copyright 1990, Gaussian, Inc.),
 the Gaussian 88(TM) system (copyright 1988, Gaussian, Inc.),
 the Gaussian 86(TM) system (copyright 1986, Carnegie Mellon
 University), and the Gaussian 82(TM) system (copyright 1983,
 Carnegie Mellon University). Gaussian is a federally registered
 trademark of Gaussian, Inc.
  
 This software contains proprietary and confidential information,
 including trade secrets, belonging to Gaussian, Inc.
  
 This software is provided under written license and may be
 used, copied, transmitted, or stored only in accord with that
 written license.
  
 The following legend is applicable only to US Government
 contracts under FAR:
  
                    RESTRICTED RIGHTS LEGEND
  
 Use, reproduction and disclosure by the US Government is
 subject to restrictions as set forth in subparagraphs (a)
 and (c) of the Commercial Computer Software - Restricted
 Rights clause in FAR 52.227-19.
  
 Gaussian, Inc.
 340 Quinnipiac St., Bldg. 40, Wallingford CT 06492
  
  
 ---------------------------------------------------------------
 Warning -- This program may not be used in any manner that
 competes with the business of Gaussian, Inc. or will provide
 assistance to any competitor of Gaussian, Inc.  The licensee
 of this program is prohibited from giving any competitor of
 Gaussian, Inc. access to this program.  By using this program,
 the user acknowledges that Gaussian, Inc. is engaged in the
 business of creating and licensing software in the field of
 computational chemistry and represents and warrants to the
 licensee that it is not a competitor of Gaussian, Inc. and that
 it will not use this program in any manner prohibited above.
 ---------------------------------------------------------------
  

 Cite this work as:
 Gaussian 09, Revision A.01,
 M. J. Frisch, G. W. Trucks, H. B. Schlegel, G. E. Scuseria, 
 M. A. Robb, J. R. Cheeseman, G. Scalmani, V. Barone, B. Mennucci, 
 G. A. Petersson, H. Nakatsuji, M. Caricato, X. Li, H. P. Hratchian, 
 A. F. Izmaylov, J. Bloino, G. Zheng, J. L. Sonnenberg, M. Hada, 
 M. Ehara, K. Toyota, R. Fukuda, J. Hasegawa, M. Ishida, T. Nakajima, 
 Y. Honda, O. Kitao, H. Nakai, T. Vreven, J. A. Montgomery, Jr., 
 J. E. Peralta, F. Ogliaro, M. Bearpark, J. J. Heyd, E. Brothers, 
 K. N. Kudin, V. N. Staroverov, R. Kobayashi, J. Normand, 
 K. Raghavachari, A. Rendell, J. C. Burant, S. S. Iyengar, J. Tomasi, 
 M. Cossi, N. Rega, J. M. Millam, M. Klene, J. E. Knox, J. B. Cross, 
 V. Bakken, C. Adamo, J. Jaramillo, R. Gomperts, R. E. Stratmann, 
 O. Yazyev, A. J. Austin, R. Cammi, C. Pomelli, J. W. Ochterski, 
 R. L. Martin, K. Morokuma, V. G. Zakrzewski, G. A. Voth, 
 P. Salvador, J. J. Dannenberg, S. Dapprich, A. D. Daniels, 
 O. Farkas, J. B. Foresman, J. V. Ortiz, J. Cioslowski, 
 and D. J. Fox, Gaussian, Inc., Wallingford CT, 2009.
 
 ******************************************
 Gaussian 09:  EM64L-G09RevA.01  8-May-2009
                 1-Apr-2015 
 ******************************************
 %mem=28GB
 %nprocshared=12
 Will use up to   12 processors via shared memory.
 %chk=C3H7O2_62_b3631gd_256.chk
 -----------------------------------------------
 #p ub3lyp/6-31g(d) opt=modredundant freq scf=qc
 -----------------------------------------------
 1/14=-1,18=120,19=15,26=3,38=1/1,3;
 2/9=110,12=2,17=6,18=5,40=1/2;
 3/5=1,6=6,7=1,11=2,16=1,25=1,30=1,71=1,74=-5,116=2/1,2,3;
 4//1;
 5/5=2,8=3,38=5/8;
 6/7=2,8=2,9=2,10=2,28=1/1;
 7//1,2,3,16;
 1/14=-1,18=20,19=15/3(2);
 2/9=110/2;
 99//99;
 2/9=110/2;
 3/5=1,6=6,7=1,11=2,16=1,25=1,30=1,71=1,74=-5,116=2/1,2,3;
 4/5=5,16=3/1;
 5/5=2,8=3,38=5/8;
 7//1,2,3,16;
 1/14=-1,18=20,19=15/3(-5);
 2/9=110/2;
 6/7=2,8=2,9=2,10=2,19=2,28=1/1;
 99/9=1/99;
 Leave Link    1 at Wed Apr  1 01:17:04 2015, MaxMem= 3758096384 cpu:       0.6
 (Enter /share/apps/g09/l101.exe)
 ---------------------------------------------------
 C3H7O2_62_b3631gd using cbs-qb3 to calculate energy
 ---------------------------------------------------
 Symbolic Z-matrix:
 Charge =  0 Multiplicity = 2
 C                    -1.78101  -1.01471   0.17841 
 H                    -0.88276  -1.62125   0.02383 
 H                    -2.61423  -1.49931  -0.34175 
 H                    -2.00816  -1.01781   1.25121 
 C                    -1.56619   0.41487  -0.33369 
 H                    -1.37539   0.40509  -1.41676 
 H                    -2.50609   0.98709  -0.21783 
 C                    -0.46503   1.14278   0.35522 
 H                    -0.0962    2.08357  -0.04181 
 H                    -0.2114    0.91191   1.38593 
 O                     1.57486  -0.13936  -0.51502 
 O                     2.49609  -0.29901   0.28471 
 
 NAtoms=     12 NQM=     12 NQMF=      0 NMic=      0 NMicF=      0 NTot=     12.
 The following ModRedundant input section has been read:
 B    8   11 F                                                                 
                    Isotopes and Nuclear Properties:
 (Nuclear quadrupole moments (NQMom) in fm**2, nuclear magnetic moments (NMagM)
  in nuclear magnetons)

  Atom         1           2           3           4           5           6           7           8           9          10
 IAtWgt=          12           1           1           1          12           1           1          12           1           1
 AtmWgt=  12.0000000   1.0078250   1.0078250   1.0078250  12.0000000   1.0078250   1.0078250  12.0000000   1.0078250   1.0078250
 NucSpn=           0           1           1           1           0           1           1           0           1           1
 AtZEff=   0.0000000   0.0000000   0.0000000   0.0000000   0.0000000   0.0000000   0.0000000   0.0000000   0.0000000   0.0000000
 NQMom=    0.0000000   0.0000000   0.0000000   0.0000000   0.0000000   0.0000000   0.0000000   0.0000000   0.0000000   0.0000000
 NMagM=    0.0000000   2.7928460   2.7928460   2.7928460   0.0000000   2.7928460   2.7928460   0.0000000   2.7928460   2.7928460

  Atom        11          12
 IAtWgt=          16          16
 AtmWgt=  15.9949146  15.9949146
 NucSpn=           0           0
 AtZEff=   0.0000000   0.0000000
 NQMom=    0.0000000   0.0000000
 NMagM=    0.0000000   0.0000000
 Leave Link  101 at Wed Apr  1 01:17:04 2015, MaxMem= 3758096384 cpu:       0.7
 (Enter /share/apps/g09/l103.exe)

 GradGradGradGradGradGradGradGradGradGradGradGradGradGradGradGradGradGrad
 Berny optimization.
 Initialization pass.
                           ----------------------------
                           !    Initial Parameters    !
                           ! (Angstroms and Degrees)  !
 --------------------------                            --------------------------
 ! Name  Definition              Value          Derivative Info.                !
 --------------------------------------------------------------------------------
 ! R1    R(1,2)                  1.0948         estimate D2E/DX2                !
 ! R2    R(1,3)                  1.0953         estimate D2E/DX2                !
 ! R3    R(1,4)                  1.0966         estimate D2E/DX2                !
 ! R4    R(1,5)                  1.5336         estimate D2E/DX2                !
 ! R5    R(2,11)                 2.92           estimate D2E/DX2                !
 ! R6    R(5,6)                  1.0998         estimate D2E/DX2                !
 ! R7    R(5,7)                  1.1065         estimate D2E/DX2                !
 ! R8    R(5,8)                  1.489          estimate D2E/DX2                !
 ! R9    R(5,11)                 3.1947         estimate D2E/DX2                !
 ! R10   R(6,11)                 3.1327         estimate D2E/DX2                !
 ! R11   R(8,9)                  1.0857         estimate D2E/DX2                !
 ! R12   R(8,10)                 1.0863         estimate D2E/DX2                !
 ! R13   R(8,11)                 2.5617         Frozen                          !
 ! R14   R(8,12)                 3.2942         estimate D2E/DX2                !
 ! R15   R(9,11)                 2.8209         estimate D2E/DX2                !
 ! R16   R(10,11)                2.8124         estimate D2E/DX2                !
 ! R17   R(10,12)                3.1638         estimate D2E/DX2                !
 ! R18   R(11,12)                1.2303         estimate D2E/DX2                !
 ! A1    A(2,1,3)              108.1784         estimate D2E/DX2                !
 ! A2    A(2,1,4)              107.8487         estimate D2E/DX2                !
 ! A3    A(2,1,5)              110.7533         estimate D2E/DX2                !
 ! A4    A(3,1,4)              107.8043         estimate D2E/DX2                !
 ! A5    A(3,1,5)              111.1252         estimate D2E/DX2                !
 ! A6    A(4,1,5)              110.9969         estimate D2E/DX2                !
 ! A7    A(1,2,11)             115.8129         estimate D2E/DX2                !
 ! A8    A(1,5,6)              110.1721         estimate D2E/DX2                !
 ! A9    A(1,5,7)              109.1542         estimate D2E/DX2                !
 ! A10   A(1,5,8)              113.8784         estimate D2E/DX2                !
 ! A11   A(1,5,11)              89.7115         estimate D2E/DX2                !
 ! A12   A(6,5,7)              104.7785         estimate D2E/DX2                !
 ! A13   A(6,5,8)              109.3717         estimate D2E/DX2                !
 ! A14   A(7,5,8)              109.0837         estimate D2E/DX2                !
 ! A15   A(7,5,11)             158.5679         estimate D2E/DX2                !
 ! A16   A(5,8,9)              120.3749         estimate D2E/DX2                !
 ! A17   A(5,8,10)             120.5166         estimate D2E/DX2                !
 ! A18   A(5,8,12)             116.1611         estimate D2E/DX2                !
 ! A19   A(9,8,10)             116.8614         estimate D2E/DX2                !
 ! A20   A(9,8,12)              93.7875         estimate D2E/DX2                !
 ! A21   A(2,11,5)              41.414          estimate D2E/DX2                !
 ! A22   A(2,11,6)              49.3582         estimate D2E/DX2                !
 ! A23   A(2,11,8)              61.3865         estimate D2E/DX2                !
 ! A24   A(2,11,9)              82.5525         estimate D2E/DX2                !
 ! A25   A(2,11,10)             61.9915         estimate D2E/DX2                !
 ! A26   A(2,11,12)            116.3846         estimate D2E/DX2                !
 ! A27   A(5,11,9)              43.2268         estimate D2E/DX2                !
 ! A28   A(5,11,10)             43.3075         estimate D2E/DX2                !
 ! A29   A(5,11,12)            136.2037         estimate D2E/DX2                !
 ! A30   A(6,11,8)              42.3423         estimate D2E/DX2                !
 ! A31   A(6,11,9)              49.7181         estimate D2E/DX2                !
 ! A32   A(6,11,10)             62.0592         estimate D2E/DX2                !
 ! A33   A(6,11,12)            156.181          estimate D2E/DX2                !
 ! A34   A(9,11,10)             38.355          estimate D2E/DX2                !
 ! A35   A(9,11,12)            115.898          estimate D2E/DX2                !
 ! D1    D(3,1,2,11)           138.5767         estimate D2E/DX2                !
 ! D2    D(4,1,2,11)          -105.0743         estimate D2E/DX2                !
 ! D3    D(5,1,2,11)            16.5652         estimate D2E/DX2                !
 ! D4    D(2,1,5,6)             62.265          estimate D2E/DX2                !
 ! D5    D(2,1,5,7)            176.8021         estimate D2E/DX2                !
 ! D6    D(2,1,5,8)            -61.039          estimate D2E/DX2                !
 ! D7    D(2,1,5,11)           -13.5674         estimate D2E/DX2                !
 ! D8    D(3,1,5,6)            -58.0047         estimate D2E/DX2                !
 ! D9    D(3,1,5,7)             56.5324         estimate D2E/DX2                !
 ! D10   D(3,1,5,8)            178.6914         estimate D2E/DX2                !
 ! D11   D(3,1,5,11)          -133.837          estimate D2E/DX2                !
 ! D12   D(4,1,5,6)           -177.965          estimate D2E/DX2                !
 ! D13   D(4,1,5,7)            -63.4279         estimate D2E/DX2                !
 ! D14   D(4,1,5,8)             58.731          estimate D2E/DX2                !
 ! D15   D(4,1,5,11)           106.2026         estimate D2E/DX2                !
 ! D16   D(1,2,11,5)           -11.156          estimate D2E/DX2                !
 ! D17   D(1,2,11,6)           -37.1143         estimate D2E/DX2                !
 ! D18   D(1,2,11,8)            12.9937         estimate D2E/DX2                !
 ! D19   D(1,2,11,9)             4.5447         estimate D2E/DX2                !
 ! D20   D(1,2,11,10)           38.8307         estimate D2E/DX2                !
 ! D21   D(1,2,11,12)          119.8132         estimate D2E/DX2                !
 ! D22   D(1,5,8,9)            168.3809         estimate D2E/DX2                !
 ! D23   D(1,5,8,10)           -29.1788         estimate D2E/DX2                !
 ! D24   D(1,5,8,12)            56.4671         estimate D2E/DX2                !
 ! D25   D(6,5,8,9)             44.6425         estimate D2E/DX2                !
 ! D26   D(6,5,8,10)          -152.9172         estimate D2E/DX2                !
 ! D27   D(6,5,8,12)           -67.2713         estimate D2E/DX2                !
 ! D28   D(7,5,8,9)            -69.4213         estimate D2E/DX2                !
 ! D29   D(7,5,8,10)            93.019          estimate D2E/DX2                !
 ! D30   D(7,5,8,12)           178.6649         estimate D2E/DX2                !
 ! D31   D(1,5,11,2)             7.1426         estimate D2E/DX2                !
 ! D32   D(1,5,11,9)          -149.7918         estimate D2E/DX2                !
 ! D33   D(1,5,11,10)          -92.5157         estimate D2E/DX2                !
 ! D34   D(1,5,11,12)          -70.635          estimate D2E/DX2                !
 ! D35   D(7,5,11,2)           159.4112         estimate D2E/DX2                !
 ! D36   D(7,5,11,9)             2.4768         estimate D2E/DX2                !
 ! D37   D(7,5,11,10)           59.7529         estimate D2E/DX2                !
 ! D38   D(7,5,11,12)           81.6336         estimate D2E/DX2                !
 --------------------------------------------------------------------------------
 Trust Radius=3.00D-01 FncErr=1.00D-07 GrdErr=1.00D-06
 Number of steps in this run= 100 maximum allowed number of steps= 100.
 GradGradGradGradGradGradGradGradGradGradGradGradGradGradGradGradGradGrad

 Leave Link  103 at Wed Apr  1 01:17:04 2015, MaxMem= 3758096384 cpu:       0.1
 (Enter /share/apps/g09/l202.exe)
                          Input orientation:                          
 ---------------------------------------------------------------------
 Center     Atomic      Atomic             Coordinates (Angstroms)
 Number     Number       Type             X           Y           Z
 ---------------------------------------------------------------------
      1          6           0       -1.781013   -1.014706    0.178407
      2          1           0       -0.882760   -1.621248    0.023834
      3          1           0       -2.614230   -1.499309   -0.341745
      4          1           0       -2.008164   -1.017810    1.251209
      5          6           0       -1.566187    0.414870   -0.333689
      6          1           0       -1.375393    0.405090   -1.416756
      7          1           0       -2.506092    0.987089   -0.217832
      8          6           0       -0.465030    1.142779    0.355224
      9          1           0       -0.096195    2.083565   -0.041813
     10          1           0       -0.211400    0.911910    1.385934
     11          8           0        1.574859   -0.139355   -0.515018
     12          8           0        2.496092   -0.299013    0.284709
 ---------------------------------------------------------------------
                    Distance matrix (angstroms):
                    1          2          3          4          5
     1  C    0.000000
     2  H    1.094826   0.000000
     3  H    1.095285   1.773839   0.000000
     4  H    1.096591   1.771192   1.771062   0.000000
     5  C    1.533649   2.177308   2.182325   2.181701   0.000000
     6  H    2.173682   2.534568   2.513384   3.089188   1.099787
     7  H    2.165624   3.081725   2.491831   2.534883   1.106471
     8  C    2.533341   2.814989   3.476414   2.802177   1.488959
     9  H    3.533609   3.787959   4.389470   3.866013   2.242902
    10  H    2.762907   2.953461   3.817387   2.640138   2.244905
    11  O    3.536800   2.919976   4.407717   4.090146   3.194717
    12  O    4.337873   3.637719   5.286638   4.662522   4.170630
                    6          7          8          9         10
     6  H    0.000000
     7  H    1.747748   0.000000
     8  C    2.124349   2.125692   0.000000
     9  H    2.518749   2.653459   1.085705   0.000000
    10  H    3.076819   2.800594   1.086274   1.850543   0.000000
    11  O    3.132657   4.243979   2.561706   2.820943   2.812383
    12  O    4.287090   5.189263   3.294234   3.535993   3.163786
                   11         12
    11  O    0.000000
    12  O    1.230335   0.000000
 Stoichiometry    C3H7O2(2)
 Framework group  C1[X(C3H7O2)]
 Deg. of freedom    30
 Full point group                 C1      NOp   1
 Largest Abelian subgroup         C1      NOp   1
 Largest concise Abelian subgroup C1      NOp   1
                         Standard orientation:                         
 ---------------------------------------------------------------------
 Center     Atomic      Atomic             Coordinates (Angstroms)
 Number     Number       Type             X           Y           Z
 ---------------------------------------------------------------------
      1          6           0       -1.781013   -1.014706    0.178407
      2          1           0       -0.882760   -1.621248    0.023834
      3          1           0       -2.614230   -1.499309   -0.341745
      4          1           0       -2.008164   -1.017810    1.251209
      5          6           0       -1.566187    0.414870   -0.333689
      6          1           0       -1.375393    0.405090   -1.416756
      7          1           0       -2.506092    0.987089   -0.217832
      8          6           0       -0.465030    1.142779    0.355224
      9          1           0       -0.096195    2.083565   -0.041813
     10          1           0       -0.211400    0.911910    1.385934
     11          8           0        1.574859   -0.139355   -0.515018
     12          8           0        2.496092   -0.299013    0.284709
 ---------------------------------------------------------------------
 Rotational constants (GHZ):      8.6333553      2.0817295      1.8554270
 Leave Link  202 at Wed Apr  1 01:17:04 2015, MaxMem= 3758096384 cpu:       0.1
 (Enter /share/apps/g09/l301.exe)
 Standard basis: 6-31G(d) (6D, 7F)
 Ernie: Thresh=  0.10000D-02 Tol=  0.10000D-05 Strict=F.
 There are    89 symmetry adapted basis functions of A   symmetry.
 Integral buffers will be    131072 words long.
 Raffenetti 2 integral format.
 Two-electron integral symmetry is turned on.
    89 basis functions,   168 primitive gaussians,    89 cartesian basis functions
    21 alpha electrons       20 beta electrons
       nuclear repulsion energy       163.9661161846 Hartrees.
 IExCor=  402 DFT=T Ex+Corr=B3LYP ExCW=0 ScaHFX=  0.200000
 ScaDFX=  0.800000  0.720000  1.000000  0.810000 ScalE2=  1.000000  1.000000
 IRadAn=      0 IRanWt=     -1 IRanGd=            0 ICorTp=0
 NAtoms=   12 NActive=   12 NUniq=   12 SFac= 7.50D-01 NAtFMM=   80 NAOKFM=F Big=F
 Leave Link  301 at Wed Apr  1 01:17:04 2015, MaxMem= 3758096384 cpu:       0.5
 (Enter /share/apps/g09/l302.exe)
 NPDir=0 NMtPBC=     1 NCelOv=     1 NCel=       1 NClECP=     1 NCelD=      1
         NCelK=      1 NCelE2=     1 NClLst=     1 CellRange=     0.0.
 One-electron integrals computed using PRISM.
 NBasis=    89 RedAO= T  NBF=    89
 NBsUse=    89 1.00D-06 NBFU=    89
 Precomputing XC quadrature grid using
 IXCGrd= 2 IRadAn=           0 IRanWt=          -1 IRanGd=           0 AccXCQ= 1.00D-10.
 NRdTot=     742 NPtTot=       94340 NUsed=       99703 NTot=       99735
 NSgBfM=    89    89    89    89    89 NAtAll=    12    12.
 Leave Link  302 at Wed Apr  1 01:17:05 2015, MaxMem= 3758096384 cpu:       3.7
 (Enter /share/apps/g09/l303.exe)
 DipDrv:  MaxL=1.
 Leave Link  303 at Wed Apr  1 01:17:05 2015, MaxMem= 3758096384 cpu:       0.2
 (Enter /share/apps/g09/l401.exe)
 Harris functional with IExCor=  402 diagonalized for initial guess.
 ExpMin= 1.61D-01 ExpMax= 5.48D+03 ExpMxC= 8.25D+02 IAcc=1 IRadAn=         1 AccDes= 0.00D+00
 HarFok:  IExCor=  402 AccDes= 0.00D+00 IRadAn=         1 IDoV= 1
 ScaDFX=  1.000000  1.000000  1.000000  1.000000
 FoFCou: FMM=F IPFlag=           0 FMFlag=      100000 FMFlg1=           0
         NFxFlg=           0 DoJE=T BraDBF=F KetDBF=T FulRan=T
         Omega=  0.000000  0.000000  1.000000  0.000000  0.000000 ICntrl=     500 IOpCl=  0
         NMat0=    1 NMatS0=    1 NMatT0=    0 NMatD0=    1 NMtDS0=    0 NMtDT0=    0
         I1Cent=           4 NGrid=           0.
 Petite list used in FoFCou.
 Harris En= -268.820153485597    
 Initial guess orbital symmetries:
 Alpha Orbitals:
       Occupied  (A) (A) (A) (A) (A) (A) (A) (A) (A) (A) (A) (A)
                 (A) (A) (A) (A) (A) (A) (A) (A) (A)
       Virtual   (A) (A) (A) (A) (A) (A) (A) (A) (A) (A) (A) (A)
                 (A) (A) (A) (A) (A) (A) (A) (A) (A) (A) (A) (A)
                 (A) (A) (A) (A) (A) (A) (A) (A) (A) (A) (A) (A)
                 (A) (A) (A) (A) (A) (A) (A) (A) (A) (A) (A) (A)
                 (A) (A) (A) (A) (A) (A) (A) (A) (A) (A) (A) (A)
                 (A) (A) (A) (A) (A) (A) (A) (A)
 Beta  Orbitals:
       Occupied  (A) (A) (A) (A) (A) (A) (A) (A) (A) (A) (A) (A)
                 (A) (A) (A) (A) (A) (A) (A) (A)
       Virtual   (A) (A) (A) (A) (A) (A) (A) (A) (A) (A) (A) (A)
                 (A) (A) (A) (A) (A) (A) (A) (A) (A) (A) (A) (A)
                 (A) (A) (A) (A) (A) (A) (A) (A) (A) (A) (A) (A)
                 (A) (A) (A) (A) (A) (A) (A) (A) (A) (A) (A) (A)
                 (A) (A) (A) (A) (A) (A) (A) (A) (A) (A) (A) (A)
                 (A) (A) (A) (A) (A) (A) (A) (A) (A)
 The electronic state of the initial guess is 2-A.
 Initial guess <Sx>= 0.0000 <Sy>= 0.0000 <Sz>= 0.5000 <S**2>= 0.7500 S= 0.5000
 Leave Link  401 at Wed Apr  1 01:17:05 2015, MaxMem= 3758096384 cpu:       4.1
 (Enter /share/apps/g09/l508.exe)
 Direct SCF.
 Tight linear equation convergence will be used.
 UB3LYP wavefunction.
 Quadratic Convergence SCF Method.
 Line search only if initial step raises energy.
 Integral symmetry usage will be decided dynamically.
 ReadGW:  IGet=1 IStart=           2 Next=       99584 LGW=       99582.
 Pruned (  75, 302) grid will be used in CalDFT.
 Keep R1 and R2 ints in memory in canonical form, NReq=17125503.
 Symmetry not used in FoFDir.
 MinBra= 0 MaxBra= 2 Meth= 1.
 IRaf=       0 NMat=   1 IRICut=       1 DoRegI=T DoRafI=F ISym2E= 0 JSym2E=0.
 Iteration   1 EE= -268.412586534524                                    Grad=7.462D-01
 Gradient too large for Newton-Raphson -- use scaled steepest descent instead.
     ILin= 1 X=0.000D+00 Y=-2.684125865345D+02 DE= 0.00D+00
     ILin= 2 X=3.000D-01 Y=-2.686686864962D+02 DE=-2.56D-01
     ILin= 3 X=4.243D-01 Y=-2.686979520339D+02 DE=-2.85D-01
     ILin= 4 X=6.000D-01 Y=-2.686597467650D+02 DE=-2.47D-01
     An  expanding polynomial of degree  4 produced  0.4408
 Iteration   2 EE= -268.698348137305     Delta-E=       -0.285761602781 Grad=1.926D-01
 Gradient too large for Newton-Raphson -- use scaled steepest descent instead.
     ILin= 1 X=0.000D+00 Y=-2.686983481373D+02 DE= 0.00D+00
     ILin= 2 X=4.408D-01 Y=-2.686880590994D+02 DE= 1.03D-02
     ILin= 3 X=3.117D-01 Y=-2.687271604043D+02 DE=-2.88D-02
     A contracting polynomial of degree  3 produced  0.2074
 Iteration   3 EE= -268.738368695763     Delta-E=       -0.040020558458 Grad=2.248D-01
 Gradient too large for Newton-Raphson -- use scaled steepest descent instead.
     ILin= 1 X=0.000D+00 Y=-2.687383686958D+02 DE= 0.00D+00
     ILin= 2 X=4.408D-01 Y=-2.687512750973D+02 DE=-1.29D-02
     ILin= 3 X=6.234D-01 Y=-2.687377712475D+02 DE= 5.97D-04
     An  expanding polynomial of degree  3 produced  0.3088
 Iteration   4 EE= -268.754169042440     Delta-E=       -0.015800346677 Grad=9.348D-02
 Gradient too large for Newton-Raphson -- use scaled steepest descent instead.
     ILin= 1 X=0.000D+00 Y=-2.687541690424D+02 DE= 0.00D+00
     ILin= 2 X=3.088D-01 Y=-2.687605078392D+02 DE=-6.34D-03
     ILin= 3 X=4.367D-01 Y=-2.687535279749D+02 DE= 6.41D-04
     An  expanding polynomial of degree  3 produced  0.2141
 Iteration   5 EE= -268.762202740280     Delta-E=       -0.008033697840 Grad=1.146D-01
 Gradient too large for Newton-Raphson -- use scaled steepest descent instead.
     ILin= 1 X=0.000D+00 Y=-2.687622027403D+02 DE= 0.00D+00
     ILin= 2 X=3.088D-01 Y=-2.687665764839D+02 DE=-4.37D-03
     ILin= 3 X=4.367D-01 Y=-2.687657891253D+02 DE=-3.59D-03
     An  expanding polynomial of degree  3 produced  0.3066
 Iteration   6 EE= -268.766576701447     Delta-E=       -0.004373961167 Grad=5.086D-02
 Gradient too large for Newton-Raphson -- use scaled steepest descent instead.
     ILin= 1 X=0.000D+00 Y=-2.687665767014D+02 DE= 0.00D+00
     ILin= 2 X=3.066D-01 Y=-2.687690977218D+02 DE=-2.52D-03
     ILin= 3 X=4.336D-01 Y=-2.687676605525D+02 DE=-1.08D-03
     An  expanding polynomial of degree  3 produced  0.2445
 Iteration   7 EE= -268.769289869447     Delta-E=       -0.002713168000 Grad=6.366D-02
 Gradient too large for Newton-Raphson -- use scaled steepest descent instead.
     ILin= 1 X=0.000D+00 Y=-2.687692898694D+02 DE= 0.00D+00
     ILin= 2 X=3.066D-01 Y=-2.687713773277D+02 DE=-2.09D-03
     ILin= 3 X=4.336D-01 Y=-2.687711958784D+02 DE=-1.91D-03
     An  expanding polynomial of degree  3 produced  0.3325
 Iteration   8 EE= -268.771390083326     Delta-E=       -0.002100213878 Grad=3.469D-02
 Gradient too large for Newton-Raphson -- use scaled steepest descent instead.
     ILin= 1 X=0.000D+00 Y=-2.687713900833D+02 DE= 0.00D+00
     ILin= 2 X=3.325D-01 Y=-2.687733757345D+02 DE=-1.99D-03
     ILin= 3 X=4.702D-01 Y=-2.687729231230D+02 DE=-1.53D-03
     An  expanding polynomial of degree  3 produced  0.3179
 Iteration   9 EE= -268.773382147483     Delta-E=       -0.001992064157 Grad=4.590D-02
 Gradient too large for Newton-Raphson -- use scaled steepest descent instead.
     ILin= 1 X=0.000D+00 Y=-2.687733821475D+02 DE= 0.00D+00
     ILin= 2 X=3.179D-01 Y=-2.687757518566D+02 DE=-2.37D-03
     ILin= 3 X=4.496D-01 Y=-2.687756478727D+02 DE=-2.27D-03
     An  expanding polynomial of degree  3 produced  0.3622
 Iteration  10 EE= -268.775787238760     Delta-E=       -0.002405091277 Grad=4.148D-02
 Gradient too large for Newton-Raphson -- use scaled steepest descent instead.
     ILin= 1 X=0.000D+00 Y=-2.687757872388D+02 DE= 0.00D+00
     ILin= 2 X=3.622D-01 Y=-2.687786296483D+02 DE=-2.84D-03
     ILin= 3 X=5.122D-01 Y=-2.687784801399D+02 DE=-2.69D-03
     An  expanding polynomial of degree  3 produced  0.4084
 Iteration  11 EE= -268.778659972833     Delta-E=       -0.002872734073 Grad=4.690D-02
 Gradient too large for Newton-Raphson -- use scaled steepest descent instead.
     ILin= 1 X=0.000D+00 Y=-2.687786599728D+02 DE= 0.00D+00
     ILin= 2 X=4.084D-01 Y=-2.687822473258D+02 DE=-3.59D-03
     ILin= 3 X=5.775D-01 Y=-2.687812514258D+02 DE=-2.59D-03
     An  expanding polynomial of degree  3 produced  0.3771
 Iteration  12 EE= -268.782279734309     Delta-E=       -0.003619761476 Grad=5.193D-02
 Gradient too large for Newton-Raphson -- use scaled steepest descent instead.
     ILin= 1 X=0.000D+00 Y=-2.687822797343D+02 DE= 0.00D+00
     ILin= 2 X=3.771D-01 Y=-2.687857058068D+02 DE=-3.43D-03
     ILin= 3 X=5.333D-01 Y=-2.687858577621D+02 DE=-3.58D-03
     ILin= 4 X=7.541D-01 Y=-2.687849652242D+02 DE=-2.69D-03
     An  expanding polynomial of degree  4 produced  0.4895
 Iteration  13 EE= -268.785883991450     Delta-E=       -0.003604257140 Grad=4.465D-02
 Gradient too large for Newton-Raphson -- use scaled steepest descent instead.
     ILin= 1 X=0.000D+00 Y=-2.687858839914D+02 DE= 0.00D+00
     ILin= 2 X=4.895D-01 Y=-2.687894027868D+02 DE=-3.52D-03
     ILin= 3 X=6.923D-01 Y=-2.687883784402D+02 DE=-2.49D-03
     An  expanding polynomial of degree  3 produced  0.4481
 Iteration  14 EE= -268.789446427423     Delta-E=       -0.003562435973 Grad=4.970D-02
 Gradient too large for Newton-Raphson -- use scaled steepest descent instead.
     ILin= 1 X=0.000D+00 Y=-2.687894464274D+02 DE= 0.00D+00
     ILin= 2 X=4.481D-01 Y=-2.687918846303D+02 DE=-2.44D-03
     ILin= 3 X=6.336D-01 Y=-2.687918202332D+02 DE=-2.37D-03
     An  expanding polynomial of degree  3 produced  0.5219
 Iteration  15 EE= -268.791930749224     Delta-E=       -0.002484321801 Grad=3.133D-02
 Gradient too large for Newton-Raphson -- use scaled steepest descent instead.
     ILin= 1 X=0.000D+00 Y=-2.687919307492D+02 DE= 0.00D+00
     ILin= 2 X=5.219D-01 Y=-2.687936628916D+02 DE=-1.73D-03
     ILin= 3 X=7.380D-01 Y=-2.687933218219D+02 DE=-1.39D-03
     An  expanding polynomial of degree  3 produced  0.5110
 Iteration  16 EE= -268.793664379581     Delta-E=       -0.001733630357 Grad=3.404D-02
 Gradient too large for Newton-Raphson -- use scaled steepest descent instead.
     ILin= 1 X=0.000D+00 Y=-2.687936643796D+02 DE= 0.00D+00
     ILin= 2 X=5.110D-01 Y=-2.687945796766D+02 DE=-9.15D-04
     ILin= 3 X=7.227D-01 Y=-2.687943956017D+02 DE=-7.31D-04
     An  expanding polynomial of degree  3 produced  0.4988
 Iteration  17 EE= -268.794580372760     Delta-E=       -0.000915993179 Grad=1.983D-02
 Gradient too large for Newton-Raphson -- use scaled steepest descent instead.
     ILin= 1 X=0.000D+00 Y=-2.687945803728D+02 DE= 0.00D+00
     ILin= 2 X=4.988D-01 Y=-2.687950680281D+02 DE=-4.88D-04
     ILin= 3 X=7.054D-01 Y=-2.687949575501D+02 DE=-3.77D-04
     An  expanding polynomial of degree  3 produced  0.4774
 Iteration  18 EE= -268.795069063533     Delta-E=       -0.000488690773 Grad=1.885D-02
 Gradient too large for Newton-Raphson -- use scaled steepest descent instead.
     ILin= 1 X=0.000D+00 Y=-2.687950690635D+02 DE= 0.00D+00
     ILin= 2 X=4.774D-01 Y=-2.687953190326D+02 DE=-2.50D-04
     ILin= 3 X=6.751D-01 Y=-2.687952601072D+02 DE=-1.91D-04
     An  expanding polynomial of degree  3 produced  0.4538
 Iteration  19 EE= -268.795319710805     Delta-E=       -0.000250647272 Grad=1.213D-02
 Gradient too large for Newton-Raphson -- use scaled steepest descent instead.
     ILin= 1 X=0.000D+00 Y=-2.687953197108D+02 DE= 0.00D+00
     ILin= 2 X=4.538D-01 Y=-2.687954530452D+02 DE=-1.33D-04
     ILin= 3 X=6.418D-01 Y=-2.687954313357D+02 DE=-1.12D-04
     An  expanding polynomial of degree  3 produced  0.4573
 Iteration  20 EE= -268.795453053420     Delta-E=       -0.000133342615 Grad=1.003D-02
 Gradient too large for Newton-Raphson -- use scaled steepest descent instead.
     ILin= 1 X=0.000D+00 Y=-2.687954530534D+02 DE= 0.00D+00
     ILin= 2 X=4.573D-01 Y=-2.687955245336D+02 DE=-7.15D-05
     ILin= 3 X=6.467D-01 Y=-2.687955106525D+02 DE=-5.76D-05
     An  expanding polynomial of degree  3 produced  0.4488
 Iteration  21 EE= -268.795524558860     Delta-E=       -0.000071505440 Grad=6.805D-03
 QCNR:  CnvC1=5.30D-09 CnvC2=5.30D-08
 LinEq1:  Iter=  0 NonCon=     1 RMS=3.51D-04 Max=1.23D-02
 AX will form     1 AO Fock derivatives at one time.
 LinEq1:  Iter=  1 NonCon=     1 RMS=4.39D-04 Max=1.18D-02
 LinEq1:  Iter=  2 NonCon=     1 RMS=2.41D-05 Max=4.97D-04
 LinEq1:  Iter=  3 NonCon=     1 RMS=1.58D-05 Max=4.30D-04
 LinEq1:  Iter=  4 NonCon=     1 RMS=6.70D-06 Max=1.49D-04
 LinEq1:  Iter=  5 NonCon=     1 RMS=6.86D-07 Max=1.12D-05
 LinEq1:  Iter=  6 NonCon=     1 RMS=2.13D-07 Max=2.29D-06
 LinEq1:  Iter=  7 NonCon=     1 RMS=7.46D-08 Max=7.46D-07
 LinEq1:  Iter=  8 NonCon=     1 RMS=2.33D-08 Max=2.37D-07
 LinEq1:  Iter=  9 NonCon=     1 RMS=7.03D-09 Max=7.58D-08
 LinEq1:  Iter= 10 NonCon=     0 RMS=3.55D-09 Max=4.23D-08
 Linear equations converged to 5.299D-09 5.299D-08 after    10 iterations.
 Angle between quadratic step and gradient=  60.20 degrees.
     ILin= 1 X=0.000D+00 Y=-2.687955245589D+02 DE= 0.00D+00
     ILin= 2 X=1.000D+00 Y=-2.687956064139D+02 DE=-8.19D-05
     ILin= 3 X=1.414D+00 Y=-2.687955903052D+02 DE=-6.57D-05
     An  expanding polynomial of degree  3 produced  0.9794
 Iteration  22 EE= -268.795606441441     Delta-E=       -0.000081882581 Grad=1.282D-04
 QCNR:  CnvC1=1.28D-09 CnvC2=1.28D-08
 LinEq1:  Iter=  0 NonCon=     1 RMS=5.93D-06 Max=2.08D-04
 LinEq1:  Iter=  1 NonCon=     1 RMS=7.04D-06 Max=2.26D-04
 LinEq1:  Iter=  2 NonCon=     1 RMS=2.75D-06 Max=8.35D-05
 LinEq1:  Iter=  3 NonCon=     1 RMS=1.36D-06 Max=2.62D-05
 LinEq1:  Iter=  4 NonCon=     1 RMS=6.86D-07 Max=7.14D-06
 LinEq1:  Iter=  5 NonCon=     1 RMS=2.19D-07 Max=2.63D-06
 LinEq1:  Iter=  6 NonCon=     1 RMS=6.52D-08 Max=7.87D-07
 LinEq1:  Iter=  7 NonCon=     1 RMS=4.14D-08 Max=5.58D-07
 LinEq1:  Iter=  8 NonCon=     1 RMS=1.57D-08 Max=2.40D-07
 LinEq1:  Iter=  9 NonCon=     1 RMS=5.71D-09 Max=1.01D-07
 LinEq1:  Iter= 10 NonCon=     1 RMS=1.83D-09 Max=1.60D-08
 LinEq1:  Iter= 11 NonCon=     0 RMS=9.35D-10 Max=7.34D-09
 Linear equations converged to 1.282D-09 1.282D-08 after    11 iterations.
 Angle between quadratic step and gradient=  56.16 degrees.
     ILin= 1 X=0.000D+00 Y=-2.687956064414D+02 DE= 0.00D+00
     ILin= 2 X=1.000D+00 Y=-2.687956064578D+02 DE=-1.64D-08
     ILin= 3 X=1.414D+00 Y=-2.687956064550D+02 DE=-1.36D-08
     An  expanding polynomial of degree  3 produced  0.9998
 Iteration  23 EE= -268.795606457814     Delta-E=       -0.000000016373 Grad=2.006D-08
 Rotation gradient small -- convergence achieved.
 SCF Done:  E(UB3LYP) =  -268.795606458     a.u. after   23 cycles
            Convg  =    0.2006D-07                    90 Fock formations.
              S**2 =  1.5438                  -V/T =  2.0093
 <Sx>= 0.0000 <Sy>= 0.0000 <Sz>= 0.5000 <S**2>= 1.5438 S= 0.8393
 <L.S>= 0.000000000000E+00
 Annihilation of the first spin contaminant:
 S**2 before annihilation     1.5438,   after     0.7711
 Leave Link  508 at Wed Apr  1 01:17:33 2015, MaxMem= 3758096384 cpu:     332.0
 (Enter /share/apps/g09/l601.exe)
 Copying SCF densities to generalized density rwf, IOpCl= 1 IROHF=0.

 **********************************************************************

            Population analysis using the SCF density.

 **********************************************************************

 Orbital symmetries:
 Alpha Orbitals:
       Occupied  (A) (A) (A) (A) (A) (A) (A) (A) (A) (A) (A) (A)
                 (A) (A) (A) (A) (A) (A) (A) (A) (A)
       Virtual   (A) (A) (A) (A) (A) (A) (A) (A) (A) (A) (A) (A)
                 (A) (A) (A) (A) (A) (A) (A) (A) (A) (A) (A) (A)
                 (A) (A) (A) (A) (A) (A) (A) (A) (A) (A) (A) (A)
                 (A) (A) (A) (A) (A) (A) (A) (A) (A) (A) (A) (A)
                 (A) (A) (A) (A) (A) (A) (A) (A) (A) (A) (A) (A)
                 (A) (A) (A) (A) (A) (A) (A) (A)
 Beta  Orbitals:
       Occupied  (A) (A) (A) (A) (A) (A) (A) (A) (A) (A) (A) (A)
                 (A) (A) (A) (A) (A) (A) (A) (A)
       Virtual   (A) (A) (A) (A) (A) (A) (A) (A) (A) (A) (A) (A)
                 (A) (A) (A) (A) (A) (A) (A) (A) (A) (A) (A) (A)
                 (A) (A) (A) (A) (A) (A) (A) (A) (A) (A) (A) (A)
                 (A) (A) (A) (A) (A) (A) (A) (A) (A) (A) (A) (A)
                 (A) (A) (A) (A) (A) (A) (A) (A) (A) (A) (A) (A)
                 (A) (A) (A) (A) (A) (A) (A) (A) (A)
 The electronic state is 2-A.
 Alpha  occ. eigenvalues --  -19.28419 -19.27020 -10.19608 -10.19445 -10.17882
 Alpha  occ. eigenvalues --   -1.25515  -0.80999  -0.78083  -0.66700  -0.57860
 Alpha  occ. eigenvalues --   -0.52330  -0.51712  -0.51353  -0.45438  -0.44128
 Alpha  occ. eigenvalues --   -0.41072  -0.35726  -0.35369  -0.34745  -0.28091
 Alpha  occ. eigenvalues --   -0.27587
 Alpha virt. eigenvalues --   -0.04529   0.09947   0.14117   0.14391   0.15272
 Alpha virt. eigenvalues --    0.16736   0.18444   0.19596   0.21206   0.23887
 Alpha virt. eigenvalues --    0.27730   0.50220   0.51067   0.54005   0.56980
 Alpha virt. eigenvalues --    0.59046   0.62435   0.66699   0.69741   0.73387
 Alpha virt. eigenvalues --    0.76531   0.79089   0.79750   0.84344   0.86516
 Alpha virt. eigenvalues --    0.87812   0.89329   0.90720   0.92585   0.93296
 Alpha virt. eigenvalues --    0.95277   0.96195   0.99289   1.01153   1.10394
 Alpha virt. eigenvalues --    1.23543   1.38738   1.43372   1.49834   1.51908
 Alpha virt. eigenvalues --    1.53125   1.54701   1.60087   1.64278   1.71411
 Alpha virt. eigenvalues --    1.85438   1.91418   1.93213   1.94720   1.94894
 Alpha virt. eigenvalues --    2.01487   2.07966   2.17550   2.24289   2.32732
 Alpha virt. eigenvalues --    2.36411   2.40428   2.42436   2.55030   2.55878
 Alpha virt. eigenvalues --    2.61500   2.68356   2.86241   3.23602   3.59151
 Alpha virt. eigenvalues --    4.13246   4.26962   4.45397
  Beta  occ. eigenvalues --  -19.25674 -19.24343 -10.20681 -10.19532 -10.17896
  Beta  occ. eigenvalues --   -1.20089  -0.79076  -0.72787  -0.68164  -0.58999
  Beta  occ. eigenvalues --   -0.48049  -0.45911  -0.44871  -0.43015  -0.42232
  Beta  occ. eigenvalues --   -0.41382  -0.36194  -0.35870  -0.35004  -0.20373
  Beta virt. eigenvalues --   -0.09007  -0.08869   0.09791   0.13164   0.14135
  Beta virt. eigenvalues --    0.15028   0.16734   0.18238   0.19272   0.23204
  Beta virt. eigenvalues --    0.25204   0.27222   0.49962   0.50905   0.53501
  Beta virt. eigenvalues --    0.56257   0.58381   0.58987   0.66509   0.69813
  Beta virt. eigenvalues --    0.74907   0.76412   0.80958   0.81439   0.85951
  Beta virt. eigenvalues --    0.86386   0.89364   0.90238   0.92306   0.93394
  Beta virt. eigenvalues --    0.94661   0.95135   0.96181   0.99308   1.04374
  Beta virt. eigenvalues --    1.11500   1.24897   1.40275   1.42253   1.50753
  Beta virt. eigenvalues --    1.54070   1.56414   1.57756   1.62088   1.66952
  Beta virt. eigenvalues --    1.67675   1.84290   1.91357   1.93291   1.97409
  Beta virt. eigenvalues --    1.99857   2.01334   2.06376   2.15070   2.24027
  Beta virt. eigenvalues --    2.32294   2.35225   2.41790   2.43725   2.58915
  Beta virt. eigenvalues --    2.59431   2.61048   2.67958   2.88583   3.27613
  Beta virt. eigenvalues --    3.63099   4.12194   4.25574   4.44892
          Condensed to atoms (all electrons):
              1          2          3          4          5          6
     1  C    5.061977   0.379294   0.372117   0.378226   0.377827  -0.035682
     2  H    0.379294   0.554030  -0.029040  -0.031276  -0.035001  -0.004623
     3  H    0.372117  -0.029040   0.571665  -0.030815  -0.028590  -0.002763
     4  H    0.378226  -0.031276  -0.030815   0.573364  -0.035551   0.004994
     5  C    0.377827  -0.035001  -0.028590  -0.035551   4.921581   0.377481
     6  H   -0.035682  -0.004623  -0.002763   0.004994   0.377481   0.587338
     7  H   -0.039491   0.005156  -0.002505  -0.004448   0.368636  -0.041394
     8  C   -0.046056  -0.002327   0.004419  -0.004199   0.388485  -0.042140
     9  H    0.003935   0.000023  -0.000155  -0.000005  -0.031674  -0.003254
    10  H   -0.005495   0.000185   0.000039   0.004171  -0.038908   0.004528
    11  O   -0.001395   0.003986   0.000016  -0.000018   0.000041   0.000132
    12  O    0.000055  -0.000130   0.000000   0.000003   0.000066   0.000012
              7          8          9         10         11         12
     1  C   -0.039491  -0.046056   0.003935  -0.005495  -0.001395   0.000055
     2  H    0.005156  -0.002327   0.000023   0.000185   0.003986  -0.000130
     3  H   -0.002505   0.004419  -0.000155   0.000039   0.000016   0.000000
     4  H   -0.004448  -0.004199  -0.000005   0.004171  -0.000018   0.000003
     5  C    0.368636   0.388485  -0.031674  -0.038908   0.000041   0.000066
     6  H   -0.041394  -0.042140  -0.003254   0.004528   0.000132   0.000012
     7  H    0.608805  -0.046997   0.000019   0.000572   0.000126  -0.000005
     8  C   -0.046997   5.264349   0.366159   0.370540   0.022661  -0.006915
     9  H    0.000019   0.366159   0.547776  -0.036536  -0.000642   0.000105
    10  H    0.000572   0.370540  -0.036536   0.544697  -0.001432   0.001167
    11  O    0.000126   0.022661  -0.000642  -0.001432   7.905189   0.106279
    12  O   -0.000005  -0.006915   0.000105   0.001167   0.106279   7.955240
 Mulliken atomic charges:
              1
     1  C   -0.445313
     2  H    0.159725
     3  H    0.145612
     4  H    0.145554
     5  C   -0.264394
     6  H    0.155369
     7  H    0.151526
     8  C   -0.267978
     9  H    0.154248
    10  H    0.156472
    11  O   -0.034943
    12  O   -0.055878
 Sum of Mulliken atomic charges =   0.00000
 Mulliken charges with hydrogens summed into heavy atoms:
              1
     1  C    0.005578
     5  C    0.042501
     8  C    0.042742
    11  O   -0.034943
    12  O   -0.055878
 Sum of Mulliken charges with hydrogens summed into heavy atoms =   0.00000
          Atomic-Atomic Spin Densities.
              1          2          3          4          5          6
     1  C   -0.010801   0.002627   0.001573  -0.000407  -0.005777  -0.005008
     2  H    0.002627  -0.002172  -0.000968   0.000890   0.000571   0.001024
     3  H    0.001573  -0.000968   0.000457   0.000412  -0.000411   0.000690
     4  H   -0.000407   0.000890   0.000412  -0.000696  -0.000561  -0.000312
     5  C   -0.005777   0.000571  -0.000411  -0.000561   0.054107  -0.005532
     6  H   -0.005008   0.001024   0.000690  -0.000312  -0.005532  -0.035060
     7  H    0.005874  -0.000630  -0.001327   0.001335  -0.011842   0.013463
     8  C    0.007679  -0.003240  -0.000246   0.000063   0.035059   0.012794
     9  H   -0.000035   0.000029   0.000001  -0.000020  -0.000025  -0.000948
    10  H   -0.000715   0.000126   0.000044  -0.000238  -0.000618  -0.000299
    11  O   -0.000300   0.000772   0.000007   0.000008   0.000048  -0.000327
    12  O    0.000051  -0.000252   0.000000  -0.000003  -0.000031   0.000003
              7          8          9         10         11         12
     1  C    0.005874   0.007679  -0.000035  -0.000715  -0.000300   0.000051
     2  H   -0.000630  -0.003240   0.000029   0.000126   0.000772  -0.000252
     3  H   -0.001327  -0.000246   0.000001   0.000044   0.000007   0.000000
     4  H    0.001335   0.000063  -0.000020  -0.000238   0.000008  -0.000003
     5  C   -0.011842   0.035059  -0.000025  -0.000618   0.000048  -0.000031
     6  H    0.013463   0.012794  -0.000948  -0.000299  -0.000327   0.000003
     7  H   -0.085409   0.026013   0.000764   0.000855   0.000004   0.000001
     8  C    0.026013  -1.029318   0.007113   0.009123  -0.001821   0.003525
     9  H    0.000764   0.007113   0.038504  -0.002422  -0.000159  -0.000021
    10  H    0.000855   0.009123  -0.002422   0.037349  -0.001150   0.000171
    11  O    0.000004  -0.001821  -0.000159  -0.001150   1.233276  -0.293986
    12  O    0.000001   0.003525  -0.000021   0.000171  -0.293986   1.213615
 Mulliken atomic spin densities:
              1
     1  C   -0.005241
     2  H   -0.001222
     3  H    0.000230
     4  H    0.000470
     5  C    0.064986
     6  H   -0.019512
     7  H   -0.050900
     8  C   -0.933257
     9  H    0.042780
    10  H    0.042224
    11  O    0.936372
    12  O    0.923071
 Sum of Mulliken atomic spin densities =   1.00000
 Electronic spatial extent (au):  <R**2>=            649.9865
 Charge=              0.0000 electrons
 Dipole moment (field-independent basis, Debye):
    X=             -1.5063    Y=              0.5326    Z=              0.0499  Tot=              1.5985
 Quadrupole moment (field-independent basis, Debye-Ang):
   XX=            -32.3028   YY=            -29.8448   ZZ=            -30.1842
   XY=              0.2544   XZ=              0.0362   YZ=             -0.0521
 Traceless Quadrupole moment (field-independent basis, Debye-Ang):
   XX=             -1.5255   YY=              0.9325   ZZ=              0.5931
   XY=              0.2544   XZ=              0.0362   YZ=             -0.0521
 Octapole moment (field-independent basis, Debye-Ang**2):
  XXX=             10.5319  YYY=             -0.1122  ZZZ=             -0.3848  XYY=              6.9055
  XXY=              0.1307  XXZ=             -2.1644  XZZ=              5.4695  YZZ=             -0.5124
  YYZ=             -1.3394  XYZ=              0.1315
 Hexadecapole moment (field-independent basis, Debye-Ang**3):
 XXXX=           -570.5771 YYYY=           -160.8995 ZZZZ=            -68.1963 XXXY=             -2.0987
 XXXZ=             -1.5052 YYYX=             -4.2241 YYYZ=             -1.3192 ZZZX=             -0.4593
 ZZZY=             -0.3118 XXYY=           -120.5203 XXZZ=           -105.5579 YYZZ=            -40.2130
 XXYZ=              0.7513 YYXZ=              0.9563 ZZXY=             -0.8291
 N-N= 1.639661161846D+02 E-N=-1.424111410802D+03  KE= 3.969466741261D+02
                          Isotropic Fermi Contact Couplings
        Atom                 a.u.       MegaHertz       Gauss      10(-4) cm-1
     1  C(13)             -0.00663      -7.44787      -2.65759      -2.48434
     2  H(1)               0.00041       1.84107       0.65694       0.61412
     3  H(1)               0.00036       1.61131       0.57496       0.53748
     4  H(1)               0.00027       1.22606       0.43749       0.40897
     5  C(13)              0.02140      24.05874       8.58476       8.02513
     6  H(1)              -0.01027     -45.89616     -16.37689     -15.30931
     7  H(1)              -0.02685    -119.99591     -42.81752     -40.02633
     8  C(13)             -0.11448    -128.69278     -45.92078     -42.92729
     9  H(1)               0.01304      58.28537      20.79767      19.44191
    10  H(1)               0.01288      57.55580      20.53734      19.19855
    11  O(17)              0.09121     -55.29281     -19.72985     -18.44370
    12  O(17)              0.12799     -77.58637     -27.68474     -25.88003
 --------------------------------------------------------
       Center         ----  Spin Dipole Couplings  ----
                      3XX-RR        3YY-RR        3ZZ-RR
 --------------------------------------------------------
     1   Atom        0.011391     -0.013599      0.002208
     2   Atom        0.015187     -0.012831     -0.002355
     3   Atom        0.004094     -0.004480      0.000386
     4   Atom        0.005618     -0.006564      0.000946
     5   Atom       -0.001965     -0.000678      0.002643
     6   Atom        0.011860      0.000532     -0.012392
     7   Atom       -0.007472      0.003378      0.004094
     8   Atom       -0.283151      0.037457      0.245694
     9   Atom        0.018008     -0.043252      0.025243
    10   Atom        0.030041      0.031595     -0.061637
    11   Atom       -0.711893      1.071581     -0.359688
    12   Atom       -0.705366      1.213439     -0.508073
 --------------------------------------------------------
                        XY            XZ            YZ
 --------------------------------------------------------
     1   Atom       -0.008665     -0.000412      0.003481
     2   Atom        0.006861     -0.002637     -0.002305
     3   Atom       -0.001893     -0.000666     -0.001010
     4   Atom       -0.003771     -0.000428      0.003055
     5   Atom       -0.007126     -0.002915     -0.007761
     6   Atom       -0.006415     -0.004746     -0.007307
     7   Atom       -0.003488     -0.006893     -0.002454
     8   Atom        0.558855      0.396759     -0.295453
     9   Atom       -0.028336      0.031070      0.031350
    10   Atom        0.020964     -0.024139      0.021332
    11   Atom        0.327806     -1.585215      0.227402
    12   Atom        0.507953     -1.472315      0.017530
 --------------------------------------------------------


 ---------------------------------------------------------------------------------
              Anisotropic Spin Dipole Couplings in Principal Axis System
 ---------------------------------------------------------------------------------

       Atom             a.u.   MegaHertz   Gauss  10(-4) cm-1        Axes

              Baa    -0.0168    -2.261    -0.807    -0.754  0.2871  0.9434 -0.1661
     1 C(13)  Bbb     0.0026     0.345     0.123     0.115  0.1655  0.1220  0.9786
              Bcc     0.0143     1.916     0.684     0.639  0.9435 -0.3084 -0.1211
 
              Baa    -0.0146    -7.816    -2.789    -2.607 -0.2106  0.9680  0.1364
     2 H(1)   Bbb    -0.0026    -1.396    -0.498    -0.466  0.1827 -0.0981  0.9783
              Bcc     0.0173     9.212     3.287     3.073  0.9604  0.2309 -0.1562
 
              Baa    -0.0051    -2.727    -0.973    -0.910  0.2113  0.9564  0.2014
     3 H(1)   Bbb     0.0006     0.303     0.108     0.101  0.0660 -0.2196  0.9734
              Bcc     0.0045     2.424     0.865     0.808  0.9752 -0.1924 -0.1095
 
              Baa    -0.0085    -4.530    -1.616    -1.511  0.2390  0.9269 -0.2893
     4 H(1)   Bbb     0.0015     0.808     0.288     0.270  0.2944  0.2147  0.9312
              Bcc     0.0070     3.721     1.328     1.241  0.9253 -0.3077 -0.2216
 
              Baa    -0.0123    -1.654    -0.590    -0.552  0.5875  0.6659  0.4598
     5 C(13)  Bbb     0.0028     0.376     0.134     0.126  0.7665 -0.2758 -0.5801
              Bcc     0.0095     1.277     0.456     0.426 -0.2595  0.6932 -0.6724
 
              Baa    -0.0174    -9.275    -3.310    -3.094  0.2369  0.4384  0.8670
     6 H(1)   Bbb     0.0026     1.363     0.486     0.455  0.3077  0.8126 -0.4950
              Bcc     0.0148     7.912     2.823     2.639  0.9215 -0.3840 -0.0576
 
              Baa    -0.0118    -6.321    -2.255    -2.108  0.8691  0.2663  0.4168
     7 H(1)   Bbb     0.0044     2.326     0.830     0.776 -0.3371  0.9356  0.1053
              Bcc     0.0075     3.995     1.426     1.333 -0.3619 -0.2320  0.9029
 
              Baa    -0.9151  -122.791   -43.815   -40.959  0.7352 -0.5530 -0.3921
     8 C(13)  Bbb     0.4548    61.025    21.775    20.356 -0.0788 -0.6442  0.7608
              Bcc     0.4603    61.767    22.040    20.603  0.6733  0.5285  0.5172
 
              Baa    -0.0718   -38.316   -13.672   -12.781  0.3978  0.8281 -0.3949
     9 H(1)   Bbb     0.0186     9.925     3.541     3.310  0.6674 -0.5566 -0.4949
              Bcc     0.0532    28.391    10.131     9.470  0.6296  0.0666  0.7741
 
              Baa    -0.0740   -39.486   -14.090   -13.171  0.2652 -0.2412  0.9335
    10 H(1)   Bbb     0.0222    11.838     4.224     3.949  0.6606 -0.6599 -0.3581
              Bcc     0.0518    27.648     9.865     9.222  0.7024  0.7116 -0.0156
 
              Baa    -2.1790   157.670    56.261    52.593  0.7409 -0.1209  0.6607
    11 O(17)  Bbb     1.0320   -74.677   -26.647   -24.910 -0.5378  0.4823  0.6914
              Bcc     1.1470   -82.993   -29.614   -27.684  0.4023  0.8676 -0.2923
 
              Baa    -2.1267   153.889    54.912    51.332  0.7342 -0.1152  0.6691
    12 O(17)  Bbb     0.6789   -49.124   -17.529   -16.386 -0.5424  0.4931  0.6801
              Bcc     1.4479  -104.766   -37.383   -34.946  0.4083  0.8623 -0.2996
 

 ---------------------------------------------------------------------------------

 No NMR shielding tensors so no spin-rotation constants.
 Leave Link  601 at Wed Apr  1 01:17:34 2015, MaxMem= 3758096384 cpu:       5.9
 (Enter /share/apps/g09/l701.exe)
 Compute integral first derivatives.
 ... and contract with generalized density number  0.
 Leave Link  701 at Wed Apr  1 01:17:35 2015, MaxMem= 3758096384 cpu:       4.5
 (Enter /share/apps/g09/l702.exe)
 L702 exits ... SP integral derivatives will be done elsewhere.
 Leave Link  702 at Wed Apr  1 01:17:35 2015, MaxMem= 3758096384 cpu:       0.2
 (Enter /share/apps/g09/l703.exe)
 Compute integral first derivatives, UseDBF=F ICtDFT=           0.
 Integral derivatives from FoFDir, PRISM(SPDF).
 Calling FoFJK, ICntrl=      2127 FMM=F ISym2X=0 I1Cent= 0 IOpClX= 1 NMat=1 NMatS=1 NMatT=0.
 FoFCou: FMM=F IPFlag=           0 FMFlag=      100000 FMFlg1=         800
         NFxFlg=           0 DoJE=F BraDBF=F KetDBF=F FulRan=T
         Omega=  0.000000  0.000000  1.000000  0.000000  0.000000 ICntrl=    2127 IOpCl=  1
         NMat0=    1 NMatS0=    1 NMatT0=    0 NMatD0=    1 NMtDS0=    0 NMtDT0=    0
         I1Cent=           0 NGrid=           0.
 Symmetry not used in FoFCou.
 Leave Link  703 at Wed Apr  1 01:17:36 2015, MaxMem= 3758096384 cpu:      12.2
 (Enter /share/apps/g09/l716.exe)
 Dipole        =-5.92640004D-01 2.09550091D-01 1.96238298D-02
 ***** Axes restored to original set *****
 -------------------------------------------------------------------
 Center     Atomic                   Forces (Hartrees/Bohr)
 Number     Number              X              Y              Z
 -------------------------------------------------------------------
      1        6          -0.000085978    0.000072861   -0.000116286
      2        1           0.000068596   -0.000057953    0.000007524
      3        1          -0.000015246   -0.000074402    0.000006513
      4        1           0.000014432   -0.000008718    0.000003150
      5        6           0.000279386    0.000031086   -0.000075931
      6        1          -0.000139973   -0.000103066   -0.000077069
      7        1          -0.000194930   -0.000105131   -0.000034616
      8        6           0.002091703   -0.001053625   -0.000706343
      9        1           0.000328721   -0.000114011   -0.000233617
     10        1           0.000282443   -0.000274523   -0.000005473
     11        8           0.000725556    0.001167316    0.004292854
     12        8          -0.003354710    0.000520167   -0.003060705
 -------------------------------------------------------------------
 Cartesian Forces:  Max     0.004292854 RMS     0.001151532
 Leave Link  716 at Wed Apr  1 01:17:36 2015, MaxMem= 3758096384 cpu:       0.2
 (Enter /share/apps/g09/l103.exe)

 GradGradGradGradGradGradGradGradGradGradGradGradGradGradGradGradGradGrad
 Berny optimization.
 Internal  Forces:  Max     0.003268350 RMS     0.000434009
 Search for a local minimum.
 Step number   1 out of a maximum of  100
 All quantities printed in internal units (Hartrees-Bohrs-Radians)
 RMS Force = .42387D-03 SwitMx=.10000D-02 MixMth= 2
 Mixed Optimization -- En-DIIS/RFO-DIIS
 Second derivative matrix not updated -- first step.
     Eigenvalues ---    0.00384   0.00577   0.01166   0.02057   0.02341
     Eigenvalues ---    0.02735   0.03196   0.03694   0.03989   0.04880
     Eigenvalues ---    0.06563   0.07817   0.09528   0.10545   0.11245
     Eigenvalues ---    0.11676   0.13537   0.14274   0.16800   0.26665
     Eigenvalues ---    0.27313   0.30267   0.31213   0.31698   0.32089
     Eigenvalues ---    0.32976   0.34062   0.34209   0.702211000.00000
     Eigenvalues --- 1000.000001000.000001000.000001000.000001000.00000
     Eigenvalues --- 1000.000001000.000001000.000001000.000001000.00000
     Eigenvalues --- 1000.000001000.000001000.000001000.000001000.00000
     Eigenvalues --- 1000.000001000.000001000.000001000.000001000.00000
     Eigenvalues --- 1000.000001000.000001000.000001000.000001000.00000
     Eigenvalues --- 1000.000001000.000001000.000001000.000001000.00000
     Eigenvalues --- 1000.000001000.000001000.000001000.000001000.00000
     Eigenvalues --- 1000.000001000.000001000.000001000.000001000.00000
     Eigenvalues --- 1000.000001000.000001000.000001000.000001000.00000
     Eigenvalues --- 1000.000001000.000001000.000001000.000001000.00000
     Eigenvalues --- 1000.000001000.000001000.000001000.000001000.00000
     Eigenvalues --- 1000.000001000.000001000.000001000.000001000.00000
     Eigenvalues --- 1000.00000
 RFO step:  Lambda=-3.16523335D-05 EMin= 3.84435802D-03
 Linear search not attempted -- first point.
 Iteration  1 RMS(Cart)=  0.00130444 RMS(Int)=  0.00000464
 Iteration  2 RMS(Cart)=  0.00000262 RMS(Int)=  0.00000312
 Iteration  3 RMS(Cart)=  0.00000000 RMS(Int)=  0.00000312
 Iteration  1 RMS(Cart)=  0.00000004 RMS(Int)=  0.00000011
 Variable       Old X    -DE/DX   Delta X   Delta X   Delta X     New X
                                 (Linear)    (Quad)   (Total)
    R1        2.06892   0.00000   0.00000   0.00015   0.00015   2.06907
    R2        2.06979   0.00004   0.00000   0.00012   0.00012   2.06991
    R3        2.07226   0.00000   0.00000   0.00001   0.00001   2.07226
    R4        2.89818   0.00002   0.00000   0.00003   0.00003   2.89821
    R5        5.51795  -0.00004   0.00000  -0.00059  -0.00059   5.51737
    R6        2.07830  -0.00011   0.00000   0.00004   0.00004   2.07833
    R7        2.09093   0.00011   0.00000   0.00033   0.00033   2.09125
    R8        2.81373   0.00008   0.00000   0.00071   0.00071   2.81444
    R9        6.03714  -0.00016   0.00000   0.00058   0.00058   6.03772
   R10        5.91986   0.00010   0.00000   0.00339   0.00339   5.92325
   R11        2.05169   0.00015   0.00000   0.00020   0.00021   2.05189
   R12        2.05276   0.00029   0.00000   0.00033   0.00033   2.05309
   R13        4.84092  -0.00056   0.00000   0.00000   0.00000   4.84092
   R14        6.22520  -0.00152   0.00000  -0.00133  -0.00133   6.22387
   R15        5.33081  -0.00038   0.00000  -0.00644  -0.00644   5.32437
   R16        5.31463  -0.00040   0.00000  -0.01025  -0.01025   5.30438
   R17        5.97869  -0.00028   0.00000  -0.01103  -0.01102   5.96766
   R18        2.32500  -0.00327   0.00000  -0.00493  -0.00493   2.32007
    A1        1.88807  -0.00001   0.00000  -0.00018  -0.00018   1.88789
    A2        1.88232  -0.00002   0.00000  -0.00031  -0.00031   1.88200
    A3        1.93301  -0.00002   0.00000   0.00012   0.00012   1.93313
    A4        1.88154  -0.00002   0.00000  -0.00011  -0.00011   1.88143
    A5        1.93950   0.00003   0.00000   0.00062   0.00062   1.94013
    A6        1.93726   0.00004   0.00000  -0.00018  -0.00018   1.93708
    A7        2.02132  -0.00004   0.00000   0.00015   0.00015   2.02146
    A8        1.92287  -0.00007   0.00000  -0.00088  -0.00088   1.92199
    A9        1.90510  -0.00011   0.00000  -0.00081  -0.00081   1.90429
   A10        1.98755   0.00010   0.00000   0.00033   0.00033   1.98788
   A11        1.56576   0.00002   0.00000  -0.00030  -0.00030   1.56546
   A12        1.82873  -0.00005   0.00000  -0.00056  -0.00056   1.82817
   A13        1.90890  -0.00005   0.00000   0.00107   0.00107   1.90996
   A14        1.90387   0.00018   0.00000   0.00078   0.00078   1.90465
   A15        2.76753   0.00009   0.00000   0.00104   0.00104   2.76857
   A16        2.10094   0.00023   0.00000   0.00067   0.00066   2.10160
   A17        2.10341  -0.00033   0.00000   0.00054   0.00052   2.10393
   A18        2.02739  -0.00030   0.00000  -0.00098  -0.00098   2.02641
   A19        2.03962   0.00004   0.00000   0.00145   0.00144   2.04105
   A20        1.63690  -0.00010   0.00000  -0.00277  -0.00277   1.63413
   A21        0.72281   0.00002   0.00000   0.00003   0.00003   0.72284
   A22        0.86146  -0.00003   0.00000  -0.00029  -0.00029   0.86117
   A23        1.07140   0.00009   0.00000   0.00030   0.00030   1.07170
   A24        1.44081   0.00016   0.00000   0.00077   0.00077   1.44158
   A25        1.08196   0.00003   0.00000   0.00030   0.00030   1.08226
   A26        2.03129   0.00041   0.00000  -0.00051  -0.00051   2.03078
   A27        0.75445   0.00012   0.00000   0.00052   0.00052   0.75497
   A28        0.75586   0.00002   0.00000   0.00067   0.00067   0.75653
   A29        2.37720   0.00078   0.00000   0.00072   0.00072   2.37792
   A30        0.73901  -0.00002   0.00000   0.00003   0.00003   0.73904
   A31        0.86774   0.00010   0.00000   0.00032   0.00032   0.86806
   A32        1.08314   0.00002   0.00000   0.00072   0.00071   1.08385
   A33        2.72587   0.00077   0.00000   0.00068   0.00068   2.72655
   A34        0.66942   0.00013   0.00000   0.00149   0.00149   0.67091
   A35        2.02280   0.00063   0.00000   0.00184   0.00184   2.02464
    D1        2.41862   0.00009   0.00000   0.00075   0.00075   2.41937
    D2       -1.83389   0.00006   0.00000   0.00036   0.00036  -1.83353
    D3        0.28912   0.00008   0.00000   0.00002   0.00002   0.28913
    D4        1.08673   0.00008   0.00000   0.00150   0.00150   1.08823
    D5        3.08578  -0.00009   0.00000  -0.00011  -0.00011   3.08567
    D6       -1.06533   0.00013   0.00000   0.00053   0.00053  -1.06480
    D7       -0.23680  -0.00007   0.00000   0.00005   0.00005  -0.23674
    D8       -1.01237   0.00008   0.00000   0.00123   0.00123  -1.01114
    D9        0.98668  -0.00008   0.00000  -0.00038  -0.00038   0.98630
   D10        3.11875   0.00013   0.00000   0.00026   0.00026   3.11901
   D11       -2.33590  -0.00007   0.00000  -0.00022  -0.00022  -2.33611
   D12       -3.10608   0.00007   0.00000   0.00107   0.00107  -3.10501
   D13       -1.10703  -0.00010   0.00000  -0.00054  -0.00054  -1.10756
   D14        1.02505   0.00012   0.00000   0.00010   0.00010   1.02515
   D15        1.85359  -0.00008   0.00000  -0.00038  -0.00038   1.85321
   D16       -0.19471  -0.00006   0.00000   0.00002   0.00002  -0.19469
   D17       -0.64777  -0.00007   0.00000  -0.00010  -0.00010  -0.64786
   D18        0.22678  -0.00015   0.00000  -0.00026  -0.00026   0.22652
   D19        0.07932  -0.00012   0.00000  -0.00071  -0.00072   0.07860
   D20        0.67772  -0.00006   0.00000   0.00074   0.00074   0.67846
   D21        2.09113   0.00070   0.00000   0.00168   0.00168   2.09281
   D22        2.93880   0.00000   0.00000  -0.00483  -0.00483   2.93397
   D23       -0.50927  -0.00018   0.00000   0.00556   0.00557  -0.50370
   D24        0.98554   0.00021   0.00000  -0.00068  -0.00068   0.98486
   D25        0.77916   0.00006   0.00000  -0.00474  -0.00474   0.77442
   D26       -2.66891  -0.00012   0.00000   0.00566   0.00566  -2.66325
   D27       -1.17410   0.00027   0.00000  -0.00058  -0.00058  -1.17469
   D28       -1.21163   0.00006   0.00000  -0.00507  -0.00507  -1.21670
   D29        1.62349  -0.00012   0.00000   0.00532   0.00533   1.62881
   D30        3.11829   0.00026   0.00000  -0.00092  -0.00092   3.11738
   D31        0.12466   0.00004   0.00000  -0.00002  -0.00002   0.12465
   D32       -2.61436  -0.00011   0.00000  -0.00132  -0.00133  -2.61568
   D33       -1.61470   0.00002   0.00000   0.00032   0.00032  -1.61438
   D34       -1.23281   0.00027   0.00000   0.00197   0.00197  -1.23085
   D35        2.78225  -0.00006   0.00000  -0.00110  -0.00110   2.78115
   D36        0.04323  -0.00021   0.00000  -0.00241  -0.00241   0.04082
   D37        1.04288  -0.00008   0.00000  -0.00077  -0.00077   1.04212
   D38        1.42477   0.00017   0.00000   0.00088   0.00088   1.42566
         Item               Value     Threshold  Converged?
 Maximum Force            0.003437     0.000450     NO 
 RMS     Force            0.000424     0.000300     NO 
 Maximum Displacement     0.006222     0.001800     NO 
 RMS     Displacement     0.001304     0.001200     NO 
 Predicted change in Energy=-1.584859D-05
 GradGradGradGradGradGradGradGradGradGradGradGradGradGradGradGradGradGrad

 Leave Link  103 at Wed Apr  1 01:17:36 2015, MaxMem= 3758096384 cpu:       3.0
 (Enter /share/apps/g09/l202.exe)
                          Input orientation:                          
 ---------------------------------------------------------------------
 Center     Atomic      Atomic             Coordinates (Angstroms)
 Number     Number       Type             X           Y           Z
 ---------------------------------------------------------------------
      1          6           0       -1.781022   -1.014505    0.178134
      2          1           0       -0.882321   -1.620637    0.023998
      3          1           0       -2.613766   -1.499958   -0.342117
      4          1           0       -2.008383   -1.017849    1.250895
      5          6           0       -1.566710    0.415342   -0.333473
      6          1           0       -1.376847    0.405117   -1.416720
      7          1           0       -2.507592    0.986320   -0.217779
      8          6           0       -0.465733    1.144045    0.355701
      9          1           0       -0.093936    2.082995   -0.043211
     10          1           0       -0.208107    0.909995    1.384886
     11          8           0        1.574913   -0.138007   -0.512889
     12          8           0        2.493992   -0.298996    0.285039
 ---------------------------------------------------------------------
                    Distance matrix (angstroms):
                    1          2          3          4          5
     1  C    0.000000
     2  H    1.094905   0.000000
     3  H    1.095349   1.773839   0.000000
     4  H    1.096595   1.771057   1.771046   0.000000
     5  C    1.533666   2.177472   2.182836   2.181589   0.000000
     6  H    2.173072   2.534542   2.512777   3.088663   1.099807
     7  H    2.165168   3.081588   2.491648   2.534345   1.106644
     8  C    2.533940   2.815499   3.477319   2.802664   1.489335
     9  H    3.534085   3.787210   4.390494   3.867176   2.243744
    10  H    2.762971   2.951386   3.818062   2.641122   2.245716
    11  O    3.536673   2.919664   4.407846   4.089629   3.195024
    12  O    4.335795   3.635157   5.284394   4.660580   4.169189
                    6          7          8          9         10
     6  H    0.000000
     7  H    1.747524   0.000000
     8  C    2.125469   2.126722   0.000000
     9  H    2.519457   2.656860   1.085814   0.000000
    10  H    3.077312   2.803924   1.086449   1.851601   0.000000
    11  O    3.134451   4.244767   2.561706   2.817535   2.806959
    12  O    4.286625   5.188517   3.293528   3.532563   3.157952
                   11         12
    11  O    0.000000
    12  O    1.227727   0.000000
 Stoichiometry    C3H7O2(2)
 Framework group  C1[X(C3H7O2)]
 Deg. of freedom    30
 Full point group                 C1      NOp   1
 Largest Abelian subgroup         C1      NOp   1
 Largest concise Abelian subgroup C1      NOp   1
                         Standard orientation:                         
 ---------------------------------------------------------------------
 Center     Atomic      Atomic             Coordinates (Angstroms)
 Number     Number       Type             X           Y           Z
 ---------------------------------------------------------------------
      1          6           0       -1.780615   -1.014779    0.177839
      2          1           0       -0.882052   -1.620986    0.023198
      3          1           0       -2.613592   -1.499917   -0.342334
      4          1           0       -2.007643   -1.018489    1.250669
      5          6           0       -1.566253    0.415226   -0.333304
      6          1           0       -1.376728    0.405376   -1.416613
      7          1           0       -2.507015    0.986299   -0.217105
      8          6           0       -0.464955    1.143511    0.355799
      9          1           0       -0.093144    2.082556   -0.042879
     10          1           0       -0.207044    0.909041    1.384817
     11          8           0        1.575233   -0.138516   -0.513901
     12          8           0        2.494536   -0.299937    0.283682
 ---------------------------------------------------------------------
 Rotational constants (GHZ):      8.6350559      2.0830361      1.8560911
 Leave Link  202 at Wed Apr  1 01:17:36 2015, MaxMem= 3758096384 cpu:       0.1
 (Enter /share/apps/g09/l301.exe)
 Standard basis: 6-31G(d) (6D, 7F)
 Ernie: Thresh=  0.10000D-02 Tol=  0.10000D-05 Strict=F.
 There are    89 symmetry adapted basis functions of A   symmetry.
 Integral buffers will be    131072 words long.
 Raffenetti 2 integral format.
 Two-electron integral symmetry is turned on.
    89 basis functions,   168 primitive gaussians,    89 cartesian basis functions
    21 alpha electrons       20 beta electrons
       nuclear repulsion energy       164.0297426231 Hartrees.
 IExCor=  402 DFT=T Ex+Corr=B3LYP ExCW=0 ScaHFX=  0.200000
 ScaDFX=  0.800000  0.720000  1.000000  0.810000 ScalE2=  1.000000  1.000000
 IRadAn=      0 IRanWt=     -1 IRanGd=            0 ICorTp=0
 NAtoms=   12 NActive=   12 NUniq=   12 SFac= 7.50D-01 NAtFMM=   80 NAOKFM=F Big=F
 Leave Link  301 at Wed Apr  1 01:17:37 2015, MaxMem= 3758096384 cpu:       0.6
 (Enter /share/apps/g09/l302.exe)
 NPDir=0 NMtPBC=     1 NCelOv=     1 NCel=       1 NClECP=     1 NCelD=      1
         NCelK=      1 NCelE2=     1 NClLst=     1 CellRange=     0.0.
 One-electron integrals computed using PRISM.
 NBasis=    89 RedAO= T  NBF=    89
 NBsUse=    89 1.00D-06 NBFU=    89
 Precomputing XC quadrature grid using
 IXCGrd= 2 IRadAn=           0 IRanWt=          -1 IRanGd=           0 AccXCQ= 1.00D-10.
 NRdTot=     742 NPtTot=       94340 NUsed=       99703 NTot=       99735
 NSgBfM=    89    89    89    89    89 NAtAll=    12    12.
 Leave Link  302 at Wed Apr  1 01:17:37 2015, MaxMem= 3758096384 cpu:       4.1
 (Enter /share/apps/g09/l303.exe)
 DipDrv:  MaxL=1.
 Leave Link  303 at Wed Apr  1 01:17:37 2015, MaxMem= 3758096384 cpu:       0.7
 (Enter /share/apps/g09/l401.exe)
 Initial guess read from the read-write file.
 B after Tr=     0.000000    0.000000    0.000000
         Rot=    1.000000    0.000000    0.000000    0.000000 Ang=   0.00 deg.
 Guess basis will be translated and rotated to current coordinates.
 Initial guess orbital symmetries:
 Alpha Orbitals:
       Occupied  (A) (A) (A) (A) (A) (A) (A) (A) (A) (A) (A) (A)
                 (A) (A) (A) (A) (A) (A) (A) (A) (A)
       Virtual   (A) (A) (A) (A) (A) (A) (A) (A) (A) (A) (A) (A)
                 (A) (A) (A) (A) (A) (A) (A) (A) (A) (A) (A) (A)
                 (A) (A) (A) (A) (A) (A) (A) (A) (A) (A) (A) (A)
                 (A) (A) (A) (A) (A) (A) (A) (A) (A) (A) (A) (A)
                 (A) (A) (A) (A) (A) (A) (A) (A) (A) (A) (A) (A)
                 (A) (A) (A) (A) (A) (A) (A) (A)
 Beta  Orbitals:
       Occupied  (A) (A) (A) (A) (A) (A) (A) (A) (A) (A) (A) (A)
                 (A) (A) (A) (A) (A) (A) (A) (A)
       Virtual   (A) (A) (A) (A) (A) (A) (A) (A) (A) (A) (A) (A)
                 (A) (A) (A) (A) (A) (A) (A) (A) (A) (A) (A) (A)
                 (A) (A) (A) (A) (A) (A) (A) (A) (A) (A) (A) (A)
                 (A) (A) (A) (A) (A) (A) (A) (A) (A) (A) (A) (A)
                 (A) (A) (A) (A) (A) (A) (A) (A) (A) (A) (A) (A)
                 (A) (A) (A) (A) (A) (A) (A) (A) (A)
 The electronic state of the initial guess is 2-A.
 Initial guess <Sx>= 0.0000 <Sy>= 0.0000 <Sz>= 0.5000 <S**2>= 1.5440 S= 0.8394
 Leave Link  401 at Wed Apr  1 01:17:37 2015, MaxMem= 3758096384 cpu:       2.9
 (Enter /share/apps/g09/l508.exe)
 Direct SCF.
 Tight linear equation convergence will be used.
 UB3LYP wavefunction.
 Quadratic Convergence SCF Method.
 Line search only if initial step raises energy.
 Integral symmetry usage will be decided dynamically.
 ReadGW:  IGet=1 IStart=           2 Next=       99584 LGW=       99582.
 Pruned (  75, 302) grid will be used in CalDFT.
 Keep R1 and R2 ints in memory in canonical form, NReq=17125503.
 Symmetry not used in FoFDir.
 MinBra= 0 MaxBra= 2 Meth= 1.
 IRaf=       0 NMat=   1 IRICut=       1 DoRegI=T DoRafI=F ISym2E= 0 JSym2E=0.
 Iteration   1 EE= -268.795615204330                                    Grad=3.840D-03
 QCNR:  CnvC1=5.30D-09 CnvC2=5.30D-08
 LinEq1:  Iter=  0 NonCon=     1 RMS=6.99D-05 Max=1.52D-03
 AX will form     1 AO Fock derivatives at one time.
 LinEq1:  Iter=  1 NonCon=     1 RMS=1.40D-05 Max=2.92D-04
 LinEq1:  Iter=  2 NonCon=     1 RMS=1.32D-05 Max=3.90D-04
 LinEq1:  Iter=  3 NonCon=     1 RMS=1.43D-05 Max=3.67D-04
 LinEq1:  Iter=  4 NonCon=     1 RMS=1.06D-05 Max=3.57D-04
 LinEq1:  Iter=  5 NonCon=     1 RMS=5.35D-06 Max=7.52D-05
 LinEq1:  Iter=  6 NonCon=     1 RMS=2.96D-06 Max=5.15D-05
 LinEq1:  Iter=  7 NonCon=     1 RMS=1.06D-06 Max=1.15D-05
 LinEq1:  Iter=  8 NonCon=     1 RMS=5.35D-07 Max=5.55D-06
 LinEq1:  Iter=  9 NonCon=     1 RMS=2.21D-07 Max=2.17D-06
 LinEq1:  Iter= 10 NonCon=     1 RMS=8.04D-08 Max=1.32D-06
 LinEq1:  Iter= 11 NonCon=     1 RMS=2.46D-08 Max=2.45D-07
 LinEq1:  Iter= 12 NonCon=     1 RMS=1.09D-08 Max=1.21D-07
 LinEq1:  Iter= 13 NonCon=     1 RMS=5.93D-09 Max=1.01D-07
 LinEq1:  Iter= 14 NonCon=     0 RMS=2.13D-09 Max=3.93D-08
 Linear equations converged to 5.299D-09 5.299D-08 after    14 iterations.
 Angle between quadratic step and gradient=  45.56 degrees.
     ILin= 1 X=0.000D+00 Y=-2.687956152043D+02 DE= 0.00D+00
     ILin= 2 X=1.000D+00 Y=-2.687956275933D+02 DE=-1.24D-05
     ILin= 3 X=1.414D+00 Y=-2.687956254675D+02 DE=-1.03D-05
     An  expanding polynomial of degree  3 produced  1.0000
 Iteration   2 EE= -268.795627593288     Delta-E=       -0.000012388957 Grad=2.022D-06
 QCNR:  CnvC1=2.02D-11 CnvC2=2.02D-10
 LinEq1:  Iter=  0 NonCon=     1 RMS=8.94D-08 Max=4.13D-06
 LinEq1:  Iter=  1 NonCon=     1 RMS=4.27D-08 Max=5.53D-07
 LinEq1:  Iter=  2 NonCon=     1 RMS=1.82D-08 Max=5.12D-07
 LinEq1:  Iter=  3 NonCon=     1 RMS=2.11D-08 Max=6.50D-07
 LinEq1:  Iter=  4 NonCon=     1 RMS=1.67D-08 Max=3.27D-07
 LinEq1:  Iter=  5 NonCon=     1 RMS=6.14D-09 Max=1.04D-07
 LinEq1:  Iter=  6 NonCon=     1 RMS=2.24D-09 Max=3.10D-08
 LinEq1:  Iter=  7 NonCon=     1 RMS=1.34D-09 Max=2.05D-08
 LinEq1:  Iter=  8 NonCon=     1 RMS=5.32D-10 Max=6.97D-09
 LinEq1:  Iter=  9 NonCon=     1 RMS=1.80D-10 Max=2.93D-09
 LinEq1:  Iter= 10 NonCon=     1 RMS=5.61D-11 Max=6.22D-10
 LinEq1:  Iter= 11 NonCon=     1 RMS=3.12D-11 Max=3.05D-10
 LinEq1:  Iter= 12 NonCon=     0 RMS=1.35D-11 Max=1.74D-10
 Linear equations converged to 2.022D-11 2.022D-10 after    12 iterations.
 Angle between quadratic step and gradient=  53.48 degrees.
     ILin= 1 X=0.000D+00 Y=-2.687956275933D+02 DE= 0.00D+00
     ILin= 2 X=1.000D+00 Y=-2.687956275933D+02 DE=-1.71D-12
 Iteration   3 EE= -268.795627593289     Delta-E=       -0.000000000002 Grad=2.140D-11
 Rotation gradient small -- convergence achieved.
 SCF Done:  E(UB3LYP) =  -268.795627593     a.u. after    3 cycles
            Convg  =    0.2140D-10                    31 Fock formations.
              S**2 =  1.5457                  -V/T =  2.0092
 <Sx>= 0.0000 <Sy>= 0.0000 <Sz>= 0.5000 <S**2>= 1.5457 S= 0.8401
 <L.S>= 0.000000000000E+00
 Annihilation of the first spin contaminant:
 S**2 before annihilation     1.5457,   after     0.7712
 Leave Link  508 at Wed Apr  1 01:17:52 2015, MaxMem= 3758096384 cpu:     157.3
 (Enter /share/apps/g09/l701.exe)
 Compute integral first derivatives.
 ... and contract with generalized density number  0.
 Leave Link  701 at Wed Apr  1 01:17:53 2015, MaxMem= 3758096384 cpu:       2.4
 (Enter /share/apps/g09/l702.exe)
 L702 exits ... SP integral derivatives will be done elsewhere.
 Leave Link  702 at Wed Apr  1 01:17:53 2015, MaxMem= 3758096384 cpu:       0.2
 (Enter /share/apps/g09/l703.exe)
 Compute integral first derivatives, UseDBF=F ICtDFT=           0.
 Integral derivatives from FoFDir, PRISM(SPDF).
 Calling FoFJK, ICntrl=      2127 FMM=F ISym2X=0 I1Cent= 0 IOpClX= 1 NMat=1 NMatS=1 NMatT=0.
 FoFCou: FMM=F IPFlag=           0 FMFlag=      100000 FMFlg1=         800
         NFxFlg=           0 DoJE=F BraDBF=F KetDBF=F FulRan=T
         Omega=  0.000000  0.000000  1.000000  0.000000  0.000000 ICntrl=    2127 IOpCl=  1
         NMat0=    1 NMatS0=    1 NMatT0=    0 NMatD0=    1 NMtDS0=    0 NMtDT0=    0
         I1Cent=           0 NGrid=           0.
 Symmetry not used in FoFCou.
 Leave Link  703 at Wed Apr  1 01:17:54 2015, MaxMem= 3758096384 cpu:      11.7
 (Enter /share/apps/g09/l716.exe)
 Dipole        =-5.84136155D-01 2.05950917D-01 1.81716482D-02
 ***** Axes restored to original set *****
 -------------------------------------------------------------------
 Center     Atomic                   Forces (Hartrees/Bohr)
 Number     Number              X              Y              Z
 -------------------------------------------------------------------
      1        6           0.000017625    0.000006634    0.000005075
      2        1           0.000040123   -0.000033957   -0.000003188
      3        1           0.000008304   -0.000000142   -0.000002460
      4        1           0.000002692   -0.000020773    0.000011251
      5        6           0.000094796    0.000109532   -0.000038934
      6        1          -0.000023575   -0.000016895   -0.000053906
      7        1          -0.000068513   -0.000098715   -0.000016411
      8        6           0.002099182   -0.001270186   -0.000821602
      9        1           0.000207009   -0.000157248   -0.000102636
     10        1           0.000152431   -0.000128867   -0.000128870
     11        8          -0.001799492    0.001530220    0.001900207
     12        8          -0.000730581    0.000080397   -0.000748526
 -------------------------------------------------------------------
 Cartesian Forces:  Max     0.002099182 RMS     0.000690517
 Leave Link  716 at Wed Apr  1 01:17:54 2015, MaxMem= 3758096384 cpu:       0.2
 (Enter /share/apps/g09/l103.exe)

 GradGradGradGradGradGradGradGradGradGradGradGradGradGradGradGradGradGrad
 Berny optimization.
 Using GEDIIS/GDIIS optimizer.
 Internal  Forces:  Max     0.000858954 RMS     0.000189492
 Search for a local minimum.
 Step number   2 out of a maximum of  100
 All quantities printed in internal units (Hartrees-Bohrs-Radians)
 RMS Force = .10416D-03 SwitMx=.10000D-02 MixMth= 2
 Mixed Optimization -- En-DIIS/RFO-DIIS
 Swaping is turned off.
 Update second derivatives using D2CorX and points    1    2
 DE= -2.11D-05 DEPred=-1.58D-05 R= 1.33D+00
 SS=  1.41D+00  RLast= 2.28D-02 DXNew= 5.0454D-01 6.8545D-02
 Trust test= 1.33D+00 RLast= 2.28D-02 DXMaxT set to 3.00D-01
     Eigenvalues ---    0.00385   0.00574   0.00987   0.01898   0.02229
     Eigenvalues ---    0.02691   0.03197   0.03696   0.03987   0.04879
     Eigenvalues ---    0.06529   0.07838   0.09484   0.10574   0.11243
     Eigenvalues ---    0.11631   0.13560   0.14284   0.16783   0.26664
     Eigenvalues ---    0.27349   0.30252   0.31232   0.31714   0.32077
     Eigenvalues ---    0.32990   0.34061   0.34213   0.643891000.00000
     Eigenvalues --- 1000.000001000.000001000.000001000.000001000.00000
     Eigenvalues --- 1000.000001000.000001000.000001000.000001000.00000
     Eigenvalues --- 1000.000001000.000001000.000001000.000001000.00000
     Eigenvalues --- 1000.000001000.000001000.000001000.000001000.00000
     Eigenvalues --- 1000.000001000.000001000.000001000.000001000.00000
     Eigenvalues --- 1000.000001000.000001000.000001000.000001000.00000
     Eigenvalues --- 1000.000001000.000001000.000001000.000001000.00000
     Eigenvalues --- 1000.000001000.000001000.000001000.000001000.00000
     Eigenvalues --- 1000.000001000.000001000.000001000.000001000.00000
     Eigenvalues --- 1000.000001000.000001000.000001000.000001000.00000
     Eigenvalues --- 1000.000001000.000001000.000001000.000001000.00000
[...]
     Eigenvalues ---    0.31737   0.33678   0.34392   0.547721000.00000
     Eigenvalues --- 1000.000001000.000001000.000001000.000001000.00000
     Eigenvalues --- 1000.000001000.000001000.000001000.000001000.00000
     Eigenvalues --- 1000.000001000.000001000.000001000.000001000.00000
     Eigenvalues --- 1000.000001000.000001000.000001000.000001000.00000
     Eigenvalues --- 1000.000001000.000001000.000001000.000001000.00000
     Eigenvalues --- 1000.000001000.000001000.000001000.000001000.00000
     Eigenvalues --- 1000.000001000.000001000.000001000.000001000.00000
     Eigenvalues --- 1000.000001000.000001000.000001000.000001000.00000
     Eigenvalues --- 1000.000001000.000001000.000001000.000001000.00000
     Eigenvalues --- 1000.000001000.000001000.000001000.000001000.00000
     Eigenvalues --- 1000.000001000.000001000.000001000.000001000.00000
     Eigenvalues --- 1000.000001000.000001000.000001000.000001000.00000
     Eigenvalues --- 1000.00000
 Angle between quadratic step and forces=  79.26 degrees.
 Linear search not attempted -- first point.
 Iteration  1 RMS(Cart)=  0.02532642 RMS(Int)=  0.00192734
 Iteration  2 RMS(Cart)=  0.00120353 RMS(Int)=  0.00101560
 Iteration  3 RMS(Cart)=  0.00000483 RMS(Int)=  0.00101558
 Iteration  4 RMS(Cart)=  0.00000002 RMS(Int)=  0.00101558
 Iteration  1 RMS(Cart)=  0.00003062 RMS(Int)=  0.00008550
 Iteration  2 RMS(Cart)=  0.00002074 RMS(Int)=  0.00009438
 Iteration  3 RMS(Cart)=  0.00001405 RMS(Int)=  0.00010865
 Iteration  4 RMS(Cart)=  0.00000952 RMS(Int)=  0.00012083
 Iteration  5 RMS(Cart)=  0.00000645 RMS(Int)=  0.00012991
 Iteration  6 RMS(Cart)=  0.00000437 RMS(Int)=  0.00013636
 Iteration  7 RMS(Cart)=  0.00000296 RMS(Int)=  0.00014085
 Iteration  8 RMS(Cart)=  0.00000201 RMS(Int)=  0.00014394
 Iteration  9 RMS(Cart)=  0.00000136 RMS(Int)=  0.00014605
 Iteration 10 RMS(Cart)=  0.00000092 RMS(Int)=  0.00014749
 Variable       Old X    -DE/DX   Delta X   Delta X   Delta X     New X
                                 (Linear)    (Quad)   (Total)
    R1        2.06917  -0.00004   0.00000  -0.00009  -0.00038   2.06879
    R2        2.06994  -0.00001   0.00000  -0.00001  -0.00001   2.06992
    R3        2.07228   0.00001   0.00000   0.00003   0.00003   2.07231
    R4        2.89848   0.00000   0.00000   0.00027   0.00030   2.89877
    R5        5.51279  -0.00003   0.00000  -0.04512  -0.04539   5.46740
    R6        2.07851  -0.00006   0.00000  -0.00023   0.00076   2.07927
    R7        2.09124  -0.00001   0.00000   0.00010   0.00010   2.09134
    R8        2.81433   0.00018   0.00000   0.00002   0.00022   2.81454
    R9        6.03785  -0.00041   0.00000  -0.00531  -0.00506   6.03279
   R10        5.92577  -0.00015   0.00000   0.01290   0.01331   5.93908
   R11        2.05159   0.00016   0.00000  -0.00001  -0.00010   2.05149
   R12        2.05264   0.00013   0.00000   0.00012   0.00068   2.05332
   R13        4.84092  -0.00100   0.00000   0.00000  -0.00002   4.84090
   R14        6.22753  -0.00039   0.00000   0.00489   0.00529   6.23282
   R15        5.30926  -0.00058   0.00000   0.00318   0.00332   5.31259
   R16        5.28428  -0.00048   0.00000   0.00224   0.00042   5.28470
   R17        5.95060  -0.00001   0.00000  -0.02244  -0.01942   5.93118
   R18        2.31848   0.00039   0.00000   0.00027  -0.00081   2.31767
    A1        1.88775   0.00005   0.00000   0.00029   0.00019   1.88794
    A2        1.88188  -0.00001   0.00000   0.00010   0.00010   1.88198
    A3        1.93356  -0.00005   0.00000  -0.00028  -0.00014   1.93342
    A4        1.88134  -0.00001   0.00000  -0.00002   0.00000   1.88134
    A5        1.94001  -0.00002   0.00000  -0.00022  -0.00034   1.93967
    A6        1.93710   0.00004   0.00000   0.00016   0.00021   1.93731
    A7        2.02176  -0.00007   0.00000   0.00619   0.00622   2.02798
    A8        1.92163   0.00003   0.00000   0.00010   0.00076   1.92238
    A9        1.90341  -0.00001   0.00000  -0.00055  -0.00055   1.90286
   A10        1.98745  -0.00005   0.00000  -0.00012  -0.00016   1.98729
   A11        1.56389   0.00008   0.00000  -0.01115  -0.01138   1.55252
   A12        1.82794  -0.00008   0.00000   0.00043  -0.00010   1.82784
   A13        1.91029  -0.00001   0.00000   0.00026  -0.00042   1.90987
   A14        1.90626   0.00012   0.00000  -0.00006   0.00048   1.90674
   A15        2.77087  -0.00010   0.00000   0.00785   0.00810   2.77897
   A16        2.10349  -0.00005   0.00000   0.00052   0.00082   2.10431
   A17        2.10529  -0.00013   0.00000  -0.00050  -0.00007   2.10522
   A18        2.02491   0.00021   0.00000  -0.02844  -0.03071   1.99420
   A19        2.04291   0.00005   0.00000  -0.00013  -0.00063   2.04228
   A20        1.62780   0.00012   0.00000   0.04019   0.04039   1.66818
   A21        0.72320   0.00002   0.00000   0.00244   0.00241   0.72561
   A22        0.86125   0.00001   0.00000   0.00153   0.00175   0.86300
   A23        1.07243   0.00006   0.00000   0.00641   0.00645   1.07888
   A24        1.44335   0.00013   0.00000   0.00508   0.00509   1.44844
   A25        1.08306   0.00004   0.00000   0.00873   0.00897   1.09203
   A26        2.02909   0.00010   0.00000  -0.09191  -0.09257   1.93652
   A27        0.75595   0.00011   0.00000   0.00051   0.00057   0.75652
   A28        0.75756   0.00008   0.00000   0.00035   0.00062   0.75818
   A29        2.37923   0.00021   0.00000  -0.03851  -0.04083   2.33840
   A30        0.73884   0.00006   0.00000  -0.00153  -0.00158   0.73725
   A31        0.86837   0.00010   0.00000  -0.00276  -0.00287   0.86550
   A32        1.08495   0.00010   0.00000  -0.00096  -0.00066   1.08429
   A33        2.72789   0.00022   0.00000  -0.03733  -0.04411   2.68378
   A34        0.67349   0.00013   0.00000  -0.00037  -0.00029   0.67320
   A35        2.02870   0.00012   0.00000   0.04730   0.04867   2.07737
    D1        2.42132   0.00004   0.00000   0.01107   0.01116   2.43248
    D2       -1.83182   0.00005   0.00000   0.01125   0.01131  -1.82051
    D3        0.29105   0.00006   0.00000   0.01134   0.01154   0.30259
    D4        1.08759   0.00008   0.00000  -0.00165  -0.00184   1.08575
    D5        3.08406   0.00000   0.00000  -0.00140  -0.00186   3.08221
    D6       -1.06528   0.00011   0.00000  -0.00198  -0.00175  -1.06703
    D7       -0.23806  -0.00007   0.00000  -0.00670  -0.00675  -0.24481
    D8       -1.01182   0.00007   0.00000  -0.00168  -0.00176  -1.01358
    D9        0.98466  -0.00002   0.00000  -0.00143  -0.00178   0.98288
   D10        3.11850   0.00010   0.00000  -0.00201  -0.00167   3.11683
   D11       -2.33746  -0.00009   0.00000  -0.00673  -0.00667  -2.34413
   D12       -3.10551   0.00006   0.00000  -0.00161  -0.00167  -3.10718
   D13       -1.10903  -0.00002   0.00000  -0.00136  -0.00169  -1.11072
   D14        1.02481   0.00009   0.00000  -0.00194  -0.00158   1.02323
   D15        1.85203  -0.00009   0.00000  -0.00666  -0.00658   1.84545
   D16       -0.19586  -0.00005   0.00000  -0.00718  -0.00728  -0.20314
   D17       -0.64906  -0.00007   0.00000  -0.00665  -0.00677  -0.65583
   D18        0.22457  -0.00002   0.00000  -0.01291  -0.01312   0.21145
   D19        0.07592  -0.00005   0.00000  -0.01553  -0.01568   0.06023
   D20        0.67814   0.00004   0.00000  -0.01504  -0.01497   0.66316
   D21        2.09536   0.00016   0.00000   0.03111   0.03218   2.12755
   D22        2.92304   0.00026   0.00000  -0.01444  -0.01458   2.90847
   D23       -0.49340  -0.00031   0.00000  -0.01489  -0.01415  -0.50755
   D24        0.98251  -0.00004   0.00000  -0.04706  -0.04552   0.93699
   D25        0.76403   0.00027   0.00000  -0.01468  -0.01513   0.74890
   D26       -2.65242  -0.00031   0.00000  -0.01513  -0.01470  -2.66712
   D27       -1.17650  -0.00003   0.00000  -0.04730  -0.04608  -1.22258
   D28       -1.22787   0.00031   0.00000  -0.01529  -0.01504  -1.24291
   D29        1.63887  -0.00027   0.00000  -0.01574  -0.01461   1.62426
   D30        3.11479   0.00000   0.00000  -0.04791  -0.04598   3.06880
   D31        0.12537   0.00004   0.00000   0.00417   0.00421   0.12958
   D32       -2.61761   0.00000   0.00000  -0.00841  -0.00846  -2.62606
   D33       -1.61342   0.00009   0.00000  -0.00949  -0.00960  -1.62302
   D34       -1.22538   0.00010   0.00000   0.13202   0.12999  -1.09539
   D35        2.77946  -0.00004   0.00000  -0.02204  -0.02191   2.75755
   D36        0.03648  -0.00008   0.00000  -0.03462  -0.03458   0.00191
   D37        1.04067   0.00001   0.00000  -0.03570  -0.03572   1.00495
   D38        1.42871   0.00002   0.00000   0.10581   0.10387   1.53258
         Item               Value     Threshold  Converged?
 Maximum Force            0.000087     0.000450     YES
 RMS     Force            0.000013     0.000300     YES
 Maximum Displacement     0.159323     0.001800     NO 
 RMS     Displacement     0.025670     0.001200     NO 
 Predicted change in Energy=-1.759180D-07
 GradGradGradGradGradGradGradGradGradGradGradGradGradGradGradGradGradGrad

 Leave Link  103 at Wed Apr  1 01:19:21 2015, MaxMem= 3758096384 cpu:       0.7
 (Enter /share/apps/g09/l9999.exe)
 1\1\GINC-COMPUTE-0-12\Freq\UB3LYP\6-31G(d)\C3H7O2(2)\HETANJIN\01-Apr-2
 015\0\\#P Geom=AllCheck Guess=TCheck SCRF=Check GenChk UB3LYP/6-31G(d)
  Freq\\C3H7O2_62_b3631gd using cbs-qb3 to calculate energy\\0,2\C,-1.7
 802829657,-1.0140037278,0.1780070058\H,-0.8809497628,-1.6191024005,0.0
 231320501\H,-2.6127260577,-1.5004006232,-0.3418734024\H,-2.0069764739,
 -1.0181512801,1.2509135178\C,-1.5685076037,0.4165102291,-0.3332122677\
 H,-1.3788062969,0.4065696072,-1.41658445\H,-2.51107339,0.9847380316,-0
 .2177386213\C,-0.4684786471,1.1462807322,0.3562213618\H,-0.0898732782,
 2.080857029,-0.0461079036\H,-0.2030588426,0.9064523712,1.3818361969\O,
 1.5736239546,-0.1353293125,-0.5095874424\O,2.4915963641,-0.3005586561,
 0.2874579549\\Version=EM64L-G09RevA.01\State=2-A\HF=-268.7956346\S2=1.
 546604\S2-1=0.\S2A=0.77132\RMSD=0.000e+00\RMSF=7.337e-04\ZeroPoint=0.0
 94077\Thermal=0.101596\Dipole=-0.5790729,0.2032454,0.0158749\DipoleDer
 iv=0.0877055,-0.013906,0.0085108,0.041329,0.0377341,0.0138284,-0.07339
 53,0.0052412,0.1222154,-0.0536087,0.1081174,0.023255,0.0494224,-0.0147
 552,0.0076987,0.03435,-0.0005417,0.0483041,-0.0805493,-0.0991551,-0.07
 51519,-0.1081714,-0.0189734,-0.0200382,-0.0801603,-0.0407285,0.0109592
 ,0.0576029,-0.0051756,0.0315329,0.0046152,0.022317,-0.0137843,0.058680
 4,0.0289727,-0.1557384,-0.0277545,-0.0214502,-0.0420739,0.0950825,0.09
 60869,0.0223495,-0.0555326,0.0133479,0.0863466,0.0312905,-0.0170154,0.
 03565,-0.1053714,0.0201972,0.0036736,-0.0069632,0.0287777,-0.15144,-0.
 1981285,0.1043449,-0.0024304,-0.022247,-0.0306644,-0.0031705,-0.026570
 5,0.0005388,0.0636558,-0.1313787,0.2048865,0.1077685,0.3748587,-0.0804
 186,-0.1124047,0.3626046,-0.150912,0.0951887,0.0363003,-0.0795595,-0.0
 179126,-0.0831691,-0.0707336,0.0357223,-0.0209068,0.0448274,0.0278944,
 0.0369943,-0.0340099,-0.0364041,-0.0259005,0.0415052,0.0468362,-0.0420
 997,0.0150314,-0.0698386,1.303843,-0.5473646,-0.1748085,-0.3963918,0.1
 229113,0.0449531,0.7360034,-0.3056386,-0.1441626,-1.0623166,0.4002875,
 0.1420642,0.1759432,-0.1252064,-0.0256642,-0.88601,0.3610839,0.0666154
 \Polar=78.208752,-11.8982037,42.3566302,1.4910852,0.4078797,37.7075612
 \PG=C01 [X(C3H7O2)]\NImag=1\\0.58175296,-0.01156100,0.48969388,0.00821
 573,0.03411278,0.56529205,-0.23243196,0.12016435,0.03227952,0.24941049
 ,0.11844514,-0.12638622,-0.02212808,-0.13076097,0.13878766,0.03254529,
 -0.02245417,-0.05678188,-0.03613487,0.02164224,0.05610249,-0.20379657,
 -0.08751231,-0.09717981,-0.01952864,-0.01247795,-0.01373251,0.21765910
 ,-0.08637939,-0.09876875,-0.05508273,0.01339713,0.00911772,0.01031814,
 0.09686920,0.10730929,-0.09741460,-0.05623960,-0.11123438,0.00479695,0
 .00350823,0.00244133,0.10717669,0.05932120,0.11644858,-0.06187204,0.00
 080203,0.05293653,-0.00472488,-0.00053976,0.02802567,0.00660135,0.0006
 2002,-0.02589424,0.06068707,0.00083027,-0.04891338,-0.00415279,0.00211
 718,-0.00026242,-0.01823292,0.00439920,-0.00057873,-0.01391519,0.00004
 637,0.05308999,0.05290628,-0.00302891,-0.29947355,0.00058235,-0.000491
 29,-0.00345582,0.00354549,-0.00035362,-0.01453977,-0.05867799,0.001238
 64,0.32549525,-0.07748661,-0.01086312,0.00428891,0.00544617,0.02531648
 ,-0.01017651,-0.00219081,-0.02389634,0.01037197,-0.00179634,-0.0075508
 5,0.00224644,0.48903669,-0.01228325,-0.17747262,0.03584289,-0.00359305
 ,-0.01860225,0.00712368,-0.00007154,-0.01318231,0.00616800,0.00003260,
 -0.00059223,0.00042024,-0.00665409,0.47774605,0.00390579,0.03596429,-0
 .09748314,-0.00134686,-0.00503862,0.00139337,-0.00096753,-0.01682334,0
 .00603811,0.00356106,0.03354065,-0.01062883,-0.00793922,0.00092317,0.5
 5196684,-0.00154248,-0.00010683,0.00400294,0.00022733,-0.00008505,-0.0
 0073150,-0.00014995,0.00001303,0.00025622,0.00076133,-0.00117160,-0.00
 015451,-0.05215795,-0.00060404,0.04522404,0.06078992,-0.00655571,0.000
 31209,0.03243714,0.00053011,0.00128951,-0.00047096,-0.00008797,0.00123
 084,-0.00061259,-0.00086928,-0.00632929,0.00240954,-0.00080113,-0.0509
 1501,-0.00617642,0.00201100,0.05379966,0.00202995,0.00054535,-0.009356
 45,-0.00050960,-0.00003164,0.00038004,0.00032635,0.00018170,0.00057069
 ,0.00012500,0.00211355,0.00092085,0.04698145,-0.00295928,-0.28973468,-
 0.04790916,0.00426937,0.31794302,0.00472083,-0.00285484,-0.00029481,0.
 00105897,-0.00147268,0.00030767,0.00063275,0.00050580,-0.00008130,0.00
 020158,0.00027844,-0.00048309,-0.21265630,0.10870207,0.02815366,-0.006
 37219,0.00439251,0.00260306,0.23862641,0.02735979,-0.01929225,-0.00346
 619,-0.00162984,-0.00598804,0.00292118,-0.00013306,0.00111455,-0.00083
 338,-0.00018052,0.00152257,0.00018900,0.09554548,-0.10475504,-0.014921
 84,0.00176364,-0.00057223,-0.00075159,-0.11181523,0.11949249,-0.009772
 07,0.00752831,0.00114425,0.00014516,0.00234044,0.00005245,0.00023203,-
 0.00077875,0.00021315,-0.00065852,-0.00042593,0.00033651,0.02106800,-0
 .01183710,-0.04688413,0.02918283,-0.01690348,-0.00537109,-0.02493291,0
 .01509768,0.05102721,-0.00781902,-0.00881924,-0.00089619,0.00088012,0.
 00148968,-0.00006932,0.00064071,-0.00025470,0.00003179,0.00058975,0.00
 121029,-0.00079205,-0.14585201,-0.07085829,-0.06031019,0.00027077,0.00
 211238,-0.00271948,-0.02652280,-0.01260342,-0.01627583,0.29341529,-0.0
 2774875,-0.02065808,-0.01427304,-0.00027918,0.00206302,-0.00080311,-0.
 00091777,-0.00543497,0.00198984,0.00017273,0.00163748,-0.00089052,-0.0
 6708838,-0.11163128,-0.02144924,0.00040683,0.00200080,-0.00067347,0.00
 421192,0.00938921,0.00613980,0.19779285,0.44373646,0.00948933,0.002795
 84,0.00838704,-0.00006420,0.00070224,0.00017951,0.00075060,0.00427447,
 -0.00080732,0.00119777,0.00086170,0.00058861,-0.06179982,-0.02695194,-
 0.11554906,-0.02842539,-0.01444946,-0.01605203,-0.00404375,0.00240461,
 0.00017991,0.13791429,-0.14813980,0.53054906,-0.00306877,-0.00000941,-
 0.00378495,0.00014220,-0.00018265,-0.00005286,0.00012900,-0.00147848,0
 .00053152,-0.00007398,0.00023432,0.00007748,-0.00172152,-0.01980447,0.
 01179675,0.00071967,0.00061507,-0.00071475,0.00059806,0.00119045,0.000
 19235,-0.06791233,-0.09927128,0.02369070,0.06650810,-0.00287714,-0.000
 09474,-0.00169602,0.00010608,0.00025389,-0.00002195,-0.00013959,-0.000
 77017,0.00036999,0.00010560,0.00013265,0.00009102,-0.00009830,-0.00639
 857,0.00564360,0.00036373,0.00034599,0.00010917,-0.00084260,-0.0003120
 1,0.00007601,-0.10531442,-0.26229316,0.10636786,0.11110826,0.27054815,
 -0.00252792,-0.00077761,-0.00110201,0.00007502,0.00007685,-0.00014368,
 -0.00030347,-0.00089791,0.00054120,-0.00027523,-0.00024180,0.00035901,
 -0.00401990,-0.01298642,0.00766237,0.00099425,0.00015075,0.00105613,-0
 .00059963,-0.00001092,0.00026475,0.02512393,0.10284624,-0.09260866,-0.
 02835470,-0.11065971,0.08920161,0.00113688,0.00117164,-0.00004451,0.00
 000986,-0.00010645,0.00008593,-0.00001024,0.00027957,0.00024656,-0.000
 24142,-0.00039795,0.00074902,0.00147069,0.00467695,-0.02268923,-0.0032
 0656,-0.00179237,-0.00068338,-0.00085388,0.00028386,0.00071692,-0.0507
 3067,-0.00261862,-0.07428338,0.00560347,-0.00279971,0.00925083,0.04732
 486,0.00094847,0.00158986,-0.00134938,0.00018834,-0.00026336,-0.000090
 05,0.00020558,0.00004606,0.00021004,-0.00017014,0.00024902,0.00036776,
 -0.00368745,0.00535813,-0.01175931,-0.00237773,-0.00088242,-0.00269028
 ,-0.00058138,-0.00030628,-0.00106986,-0.00193173,-0.05889627,0.0705638
 8,0.00591117,-0.00098677,0.02362707,0.00091078,0.05460174,0.00073273,0
 .00120040,0.00075171,0.00002147,-0.00046638,-0.00005476,0.00015465,-0.
 00003627,0.00031457,-0.00032239,-0.00074552,0.00034894,0.00027755,0.00
 324380,-0.00701082,-0.00235194,-0.00058399,-0.00053926,-0.00006957,-0.
 00016599,-0.00090377,-0.07963352,0.07400630,-0.31077424,-0.00330639,-0
 .00030134,-0.00517496,0.08460156,-0.07609712,0.32326839,0.00093291,-0.
 00207743,0.00181072,-0.00059921,0.00145967,-0.00009008,0.00013445,0.00
 118005,-0.00010666,-0.00026975,-0.00001507,-0.00017785,0.00287296,-0.0
 0352635,0.00021055,0.00098904,0.00191560,0.00099784,0.00255683,0.00274
 937,0.00115790,0.00902497,-0.01141921,-0.00720368,-0.00014140,-0.00061
 193,0.00055572,-0.00048498,0.00086238,-0.00127360,0.38153015,-0.000206
 52,0.00031020,-0.00049158,-0.00018753,-0.00023876,0.00011573,-0.000162
 12,-0.00022742,0.00004634,-0.00000412,0.00004489,0.00008408,-0.0018357
 0,0.00162670,0.00032802,-0.00027525,-0.00047719,-0.00007085,-0.0010363
 2,-0.00086658,-0.00038806,-0.00422738,0.00063860,-0.00003316,0.0015088
 8,-0.00021844,-0.00108483,0.00079721,-0.00081181,-0.00001783,-0.063293
 97,0.01484094,0.00032225,-0.00092779,0.00098701,0.00008602,0.00087160,
 -0.00021175,0.00009224,0.00064361,-0.00006083,-0.00014641,-0.00011630,
 -0.00010693,0.00100959,-0.00136710,0.00025281,0.00009640,0.00145306,0.
 00107409,0.00066512,0.00137750,0.00082922,0.00206083,-0.00621706,-0.01
 293946,0.00022390,-0.00053602,-0.00002448,0.00341676,-0.00242374,-0.00
 162981,0.34357433,-0.05231124,0.32773321,-0.00052614,0.00166615,-0.001
 33407,0.00010954,-0.00108546,0.00002307,-0.00012115,-0.00085590,0.0000
 8510,0.00013734,0.00001939,0.00017842,-0.00496496,0.00398347,0.0004011
 8,-0.00032893,-0.00147021,-0.00052728,-0.00199026,-0.00253052,-0.00105
 586,-0.00598479,0.00675884,0.00277753,-0.00078251,0.00100001,0.0000810
 9,-0.00001800,-0.00027829,0.00116946,-0.39654598,0.06892282,-0.3514010
 3,0.41101585,0.00002809,-0.00031999,0.00024699,-0.00005263,0.00022925,
 -0.00004780,0.00002834,0.00014388,-0.00001287,-0.00001553,-0.00000056,
 -0.00003595,0.00161339,-0.00118158,-0.00023095,0.00006228,0.00019724,-
 0.00004203,0.00051230,0.00057360,0.00022094,0.00140396,-0.00055181,0.0
 0160377,0.00017815,-0.00020683,-0.00004172,-0.00040493,0.00030209,-0.0
 0003605,0.07277688,-0.01462114,0.05955349,-0.07613029,0.01543585,-0.00
 043276,0.00128113,-0.00113064,0.00006903,-0.00098560,0.00009871,-0.000
 09473,-0.00076650,0.00007467,0.00012876,0.00007592,0.00015572,-0.00230
 846,0.00238007,-0.00002282,-0.00018418,-0.00152296,-0.00089131,-0.0012
 2444,-0.00184007,-0.00088845,-0.00443425,0.00746406,0.00884665,-0.0002
 9905,0.00055741,-0.00003128,-0.00136710,0.00071099,0.00140400,-0.33945
 519,0.05382337,-0.31590307,0.34960238,-0.06117781,0.30828782\\-0.00001
 977,0.00002985,-0.00000778,-0.00002860,-0.00001353,0.00000936,-0.00000
 808,-0.00000452,-0.00000007,0.00000070,0.00000867,-0.00000738,0.000001
 89,-0.00001966,0.00002222,-0.00000392,-0.00001529,0.00000386,0.0000036
 1,0.00001955,-0.00000711,-0.00239979,0.00154254,0.00104816,-0.00003904
 ,0.00001701,-0.00000111,0.00001095,-0.00002265,-0.00001557,0.00258678,
 -0.00157410,-0.00097468,-0.00010475,0.00003212,-0.00006989\\\@


 IT IS UNWORTHY OF EXCELLENT MEN TO LOSE HOURS LIKE SLAVES IN THE LABOR
 OF CALCULATION WHICH COULD BE SAFELY RELEGATED TO ANYONE ELSE
 IF A MACHINE WERE USED.
    -- G.W. VON LEIBNIZ
 Job cpu time:  0 days  0 hours  5 minutes 22.9 seconds.
 File lengths (MBytes):  RWF=     29 Int=      0 D2E=      0 Chk=      3 Scr=      1
 Normal termination of Gaussian 09 at Wed Apr  1 01:19:21 2015.
