 Entering Gaussian System, Link 0=/share/apps/g09/g09
 Input=C3H7O2_62_b3631gd_276.gjf
 Output=C3H7O2_62_b3631gd_276.log
 Initial command:
 /share/apps/g09/l1.exe /state/partition1/Gau-27572.inp -scrdir=/state/partition1/
 Entering Link 1 = /share/apps/g09/l1.exe PID=     27573.
  
 Copyright (c) 1988,1990,1992,1993,1995,1998,2003,2009, Gaussian, Inc.
                  All Rights Reserved.
  
 This is part of the Gaussian(R) 09 program.  It is based on
 the Gaussian(R) 03 system (copyright 2003, Gaussian, Inc.),
 the Gaussian(R) 98 system (copyright 1998, Gaussian, Inc.),
 the Gaussian(R) 94 system (copyright 1995, Gaussian, Inc.),
 the Gaussian 92(TM) system (copyright 1992, Gaussian, Inc.),
 the Gaussian 90(TM) system (copyright 1990, Gaussian, Inc.),
 the Gaussian 88(TM) system (copyright 1988, Gaussian, Inc.),
 the Gaussian 86(TM) system (copyright 1986, Carnegie Mellon
 University), and the Gaussian 82(TM) system (copyright 1983,
 Carnegie Mellon University). Gaussian is a federally registered
 trademark of Gaussian, Inc.
  
 This software contains proprietary and confidential information,
 including trade secrets, belonging to Gaussian, Inc.
  
 This software is provided under written license and may be
 used, copied, transmitted, or stored only in accord with that
 written license.
  
 The following legend is applicable only to US Government
 contracts under FAR:
  
                    RESTRICTED RIGHTS LEGEND
  
 Use, reproduction and disclosure by the US Government is
 subject to restrictions as set forth in subparagraphs (a)
 and (c) of the Commercial Computer Software - Restricted
 Rights clause in FAR 52.227-19.
  
 Gaussian, Inc.
 340 Quinnipiac St., Bldg. 40, Wallingford CT 06492
  
  
 ---------------------------------------------------------------
 Warning -- This program may not be used in any manner that
 competes with the business of Gaussian, Inc. or will provide
 assistance to any competitor of Gaussian, Inc.  The licensee
 of this program is prohibited from giving any competitor of
 Gaussian, Inc. access to this program.  By using this program,
 the user acknowledges that Gaussian, Inc. is engaged in the
 business of creating and licensing software in the field of
 computational chemistry and represents and warrants to the
 licensee that it is not a competitor of Gaussian, Inc. and that
 it will not use this program in any manner prohibited above.
 ---------------------------------------------------------------
  

 Cite this work as:
 Gaussian 09, Revision A.01,
 M. J. Frisch, G. W. Trucks, H. B. Schlegel, G. E. Scuseria, 
 M. A. Robb, J. R. Cheeseman, G. Scalmani, V. Barone, B. Mennucci, 
 G. A. Petersson, H. Nakatsuji, M. Caricato, X. Li, H. P. Hratchian, 
 A. F. Izmaylov, J. Bloino, G. Zheng, J. L. Sonnenberg, M. Hada, 
 M. Ehara, K. Toyota, R. Fukuda, J. Hasegawa, M. Ishida, T. Nakajima, 
 Y. Honda, O. Kitao, H. Nakai, T. Vreven, J. A. Montgomery, Jr., 
 J. E. Peralta, F. Ogliaro, M. Bearpark, J. J. Heyd, E. Brothers, 
 K. N. Kudin, V. N. Staroverov, R. Kobayashi, J. Normand, 
 K. Raghavachari, A. Rendell, J. C. Burant, S. S. Iyengar, J. Tomasi, 
 M. Cossi, N. Rega, J. M. Millam, M. Klene, J. E. Knox, J. B. Cross, 
 V. Bakken, C. Adamo, J. Jaramillo, R. Gomperts, R. E. Stratmann, 
 O. Yazyev, A. J. Austin, R. Cammi, C. Pomelli, J. W. Ochterski, 
 R. L. Martin, K. Morokuma, V. G. Zakrzewski, G. A. Voth, 
 P. Salvador, J. J. Dannenberg, S. Dapprich, A. D. Daniels, 
 O. Farkas, J. B. Foresman, J. V. Ortiz, J. Cioslowski, 
 and D. J. Fox, Gaussian, Inc., Wallingford CT, 2009.
 
 ******************************************
 Gaussian 09:  EM64L-G09RevA.01  8-May-2009
                 1-Apr-2015 
 ******************************************
 %mem=28GB
 %nprocshared=12
 Will use up to   12 processors via shared memory.
 %chk=C3H7O2_62_b3631gd_276.chk
 ----------------------------------------
 #p ub3lyp/6-31g(d) opt=modredundant freq
 ----------------------------------------
 1/14=-1,18=120,19=15,26=3,38=1/1,3;
 2/9=110,12=2,17=6,18=5,40=1/2;
 3/5=1,6=6,7=1,11=2,16=1,25=1,30=1,71=1,74=-5,116=2/1,2,3;
 4//1;
 5/5=2,38=5/2;
 6/7=2,8=2,9=2,10=2,28=1/1;
 7//1,2,3,16;
 1/14=-1,18=20,19=15/3(2);
 2/9=110/2;
 99//99;
 2/9=110/2;
 3/5=1,6=6,7=1,11=2,16=1,25=1,30=1,71=1,74=-5,116=2/1,2,3;
 4/5=5,16=3/1;
 5/5=2,38=5/2;
 7//1,2,3,16;
 1/14=-1,18=20,19=15/3(-5);
 2/9=110/2;
 6/7=2,8=2,9=2,10=2,19=2,28=1/1;
 99/9=1/99;
 Leave Link    1 at Wed Apr  1 00:21:34 2015, MaxMem= 3758096384 cpu:       0.3
 (Enter /share/apps/g09/l101.exe)
 ---------------------------------------------------
 C3H7O2_62_b3631gd using cbs-qb3 to calculate energy
 ---------------------------------------------------
 Symbolic Z-matrix:
 Charge =  0 Multiplicity = 2
 C                    -1.76616  -1.05931   0.17904 
 H                    -0.82906  -1.60662   0.03278 
 H                    -2.56317  -1.60116  -0.34164 
 H                    -1.99779  -1.07139   1.25088 
 C                    -1.64333   0.37905  -0.34035 
 H                    -1.44705   0.37388  -1.42247 
 H                    -2.62238   0.88423  -0.23401 
 C                    -0.59639   1.18123   0.35195 
 H                    -0.24828   2.11931  -0.06918 
 H                    -0.3311    0.97213   1.38437 
 O                     1.68313  -0.11128  -0.51996 
 O                     2.57614  -0.27325   0.30189 
 
 NAtoms=     12 NQM=     12 NQMF=      0 NMic=      0 NMicF=      0 NTot=     12.
 The following ModRedundant input section has been read:
 B    8   11 F                                                                 
                    Isotopes and Nuclear Properties:
 (Nuclear quadrupole moments (NQMom) in fm**2, nuclear magnetic moments (NMagM)
  in nuclear magnetons)

  Atom         1           2           3           4           5           6           7           8           9          10
 IAtWgt=          12           1           1           1          12           1           1          12           1           1
 AtmWgt=  12.0000000   1.0078250   1.0078250   1.0078250  12.0000000   1.0078250   1.0078250  12.0000000   1.0078250   1.0078250
 NucSpn=           0           1           1           1           0           1           1           0           1           1
 AtZEff=   0.0000000   0.0000000   0.0000000   0.0000000   0.0000000   0.0000000   0.0000000   0.0000000   0.0000000   0.0000000
 NQMom=    0.0000000   0.0000000   0.0000000   0.0000000   0.0000000   0.0000000   0.0000000   0.0000000   0.0000000   0.0000000
 NMagM=    0.0000000   2.7928460   2.7928460   2.7928460   0.0000000   2.7928460   2.7928460   0.0000000   2.7928460   2.7928460

  Atom        11          12
 IAtWgt=          16          16
 AtmWgt=  15.9949146  15.9949146
 NucSpn=           0           0
 AtZEff=   0.0000000   0.0000000
 NQMom=    0.0000000   0.0000000
 NMagM=    0.0000000   0.0000000
 Leave Link  101 at Wed Apr  1 00:21:34 2015, MaxMem= 3758096384 cpu:       0.7
 (Enter /share/apps/g09/l103.exe)

 GradGradGradGradGradGradGradGradGradGradGradGradGradGradGradGradGradGrad
 Berny optimization.
 Initialization pass.
                           ----------------------------
                           !    Initial Parameters    !
                           ! (Angstroms and Degrees)  !
 --------------------------                            --------------------------
 ! Name  Definition              Value          Derivative Info.                !
 --------------------------------------------------------------------------------
 ! R1    R(1,2)                  1.095          estimate D2E/DX2                !
 ! R2    R(1,3)                  1.0954         estimate D2E/DX2                !
 ! R3    R(1,4)                  1.0966         estimate D2E/DX2                !
 ! R4    R(1,5)                  1.5342         estimate D2E/DX2                !
 ! R5    R(2,11)                 2.9753         estimate D2E/DX2                !
 ! R6    R(5,6)                  1.0998         estimate D2E/DX2                !
 ! R7    R(5,7)                  1.1068         estimate D2E/DX2                !
 ! R8    R(5,8)                  1.4896         estimate D2E/DX2                !
 ! R9    R(5,11)                 3.3672         estimate D2E/DX2                !
 ! R10   R(6,11)                 3.2936         estimate D2E/DX2                !
 ! R11   R(8,9)                  1.0856         estimate D2E/DX2                !
 ! R12   R(8,10)                 1.0863         estimate D2E/DX2                !
 ! R13   R(8,11)                 2.7617         Frozen                          !
 ! R14   R(8,12)                 3.4904         estimate D2E/DX2                !
 ! R15   R(9,11)                 2.9848         estimate D2E/DX2                !
 ! R16   R(10,11)                2.9761         estimate D2E/DX2                !
 ! R17   R(10,12)                3.3429         estimate D2E/DX2                !
 ! R18   R(11,12)                1.2244         estimate D2E/DX2                !
 ! A1    A(2,1,3)              108.1753         estimate D2E/DX2                !
 ! A2    A(2,1,4)              107.8051         estimate D2E/DX2                !
 ! A3    A(2,1,5)              110.7849         estimate D2E/DX2                !
 ! A4    A(3,1,4)              107.7854         estimate D2E/DX2                !
 ! A5    A(3,1,5)              111.1675         estimate D2E/DX2                !
 ! A6    A(4,1,5)              110.985          estimate D2E/DX2                !
 ! A7    A(1,2,11)             119.7472         estimate D2E/DX2                !
 ! A8    A(1,5,6)              110.0585         estimate D2E/DX2                !
 ! A9    A(1,5,7)              108.9388         estimate D2E/DX2                !
 ! A10   A(1,5,8)              113.8174         estimate D2E/DX2                !
 ! A11   A(1,5,11)              87.7438         estimate D2E/DX2                !
 ! A12   A(6,5,7)              104.7468         estimate D2E/DX2                !
 ! A13   A(6,5,8)              109.5359         estimate D2E/DX2                !
 ! A14   A(7,5,8)              109.3453         estimate D2E/DX2                !
 ! A15   A(7,5,11)             160.988          estimate D2E/DX2                !
 ! A16   A(5,8,9)              120.6927         estimate D2E/DX2                !
 ! A17   A(5,8,10)             120.6447         estimate D2E/DX2                !
 ! A18   A(5,8,12)             114.064          estimate D2E/DX2                !
 ! A19   A(9,8,10)             117.1747         estimate D2E/DX2                !
 ! A20   A(9,8,12)              93.6152         estimate D2E/DX2                !
 ! A21   A(2,11,5)              39.5703         estimate D2E/DX2                !
 ! A22   A(2,11,6)              47.3513         estimate D2E/DX2                !
 ! A23   A(2,11,8)              58.6439         estimate D2E/DX2                !
 ! A24   A(2,11,9)              78.5317         estimate D2E/DX2                !
 ! A25   A(2,11,10)             59.5122         estimate D2E/DX2                !
 ! A26   A(2,11,12)            115.1277         estimate D2E/DX2                !
 ! A27   A(5,11,9)              40.8757         estimate D2E/DX2                !
 ! A28   A(5,11,10)             40.9094         estimate D2E/DX2                !
 ! A29   A(5,11,12)            134.7476         estimate D2E/DX2                !
 ! A30   A(6,11,8)              39.9262         estimate D2E/DX2                !
 ! A31   A(6,11,9)              46.8691         estimate D2E/DX2                !
 ! A32   A(6,11,10)             58.5674         estimate D2E/DX2                !
 ! A33   A(6,11,12)            153.711          estimate D2E/DX2                !
 ! A34   A(9,11,10)             36.2327         estimate D2E/DX2                !
 ! A35   A(9,11,12)            117.9973         estimate D2E/DX2                !
 ! D1    D(3,1,2,11)           138.7143         estimate D2E/DX2                !
 ! D2    D(4,1,2,11)          -104.9835         estimate D2E/DX2                !
 ! D3    D(5,1,2,11)            16.6326         estimate D2E/DX2                !
 ! D4    D(2,1,5,6)             62.3016         estimate D2E/DX2                !
 ! D5    D(2,1,5,7)            176.6184         estimate D2E/DX2                !
 ! D6    D(2,1,5,8)            -61.0861         estimate D2E/DX2                !
 ! D7    D(2,1,5,11)           -12.6952         estimate D2E/DX2                !
 ! D8    D(3,1,5,6)            -58.0134         estimate D2E/DX2                !
 ! D9    D(3,1,5,7)             56.3034         estimate D2E/DX2                !
 ! D10   D(3,1,5,8)            178.5989         estimate D2E/DX2                !
 ! D11   D(3,1,5,11)          -133.0102         estimate D2E/DX2                !
 ! D12   D(4,1,5,6)           -177.9702         estimate D2E/DX2                !
 ! D13   D(4,1,5,7)            -63.6534         estimate D2E/DX2                !
 ! D14   D(4,1,5,8)             58.6421         estimate D2E/DX2                !
 ! D15   D(4,1,5,11)           107.033          estimate D2E/DX2                !
 ! D16   D(1,2,11,5)           -11.0347         estimate D2E/DX2                !
 ! D17   D(1,2,11,6)           -36.3743         estimate D2E/DX2                !
 ! D18   D(1,2,11,8)            12.3519         estimate D2E/DX2                !
 ! D19   D(1,2,11,9)             4.0235         estimate D2E/DX2                !
 ! D20   D(1,2,11,10)           37.3382         estimate D2E/DX2                !
 ! D21   D(1,2,11,12)          119.7394         estimate D2E/DX2                !
 ! D22   D(1,5,8,9)            165.3236         estimate D2E/DX2                !
 ! D23   D(1,5,8,10)           -28.9834         estimate D2E/DX2                !
 ! D24   D(1,5,8,12)            55.1185         estimate D2E/DX2                !
 ! D25   D(6,5,8,9)             41.652          estimate D2E/DX2                !
 ! D26   D(6,5,8,10)          -152.655          estimate D2E/DX2                !
 ! D27   D(6,5,8,12)           -68.5531         estimate D2E/DX2                !
 ! D28   D(7,5,8,9)            -72.6051         estimate D2E/DX2                !
 ! D29   D(7,5,8,10)            93.0879         estimate D2E/DX2                !
 ! D30   D(7,5,8,12)           177.1898         estimate D2E/DX2                !
 ! D31   D(1,5,11,2)             6.8174         estimate D2E/DX2                !
 ! D32   D(1,5,11,9)          -150.2861         estimate D2E/DX2                !
 ! D33   D(1,5,11,10)          -93.5689         estimate D2E/DX2                !
 ! D34   D(1,5,11,12)          -68.0608         estimate D2E/DX2                !
 ! D35   D(7,5,11,2)           158.7896         estimate D2E/DX2                !
 ! D36   D(7,5,11,9)             1.6862         estimate D2E/DX2                !
 ! D37   D(7,5,11,10)           58.4033         estimate D2E/DX2                !
 ! D38   D(7,5,11,12)           83.9114         estimate D2E/DX2                !
 --------------------------------------------------------------------------------
 Trust Radius=3.00D-01 FncErr=1.00D-07 GrdErr=1.00D-06
 Number of steps in this run= 100 maximum allowed number of steps= 100.
 GradGradGradGradGradGradGradGradGradGradGradGradGradGradGradGradGradGrad

 Leave Link  103 at Wed Apr  1 00:21:34 2015, MaxMem= 3758096384 cpu:       0.1
 (Enter /share/apps/g09/l202.exe)
                          Input orientation:                          
 ---------------------------------------------------------------------
 Center     Atomic      Atomic             Coordinates (Angstroms)
 Number     Number       Type             X           Y           Z
 ---------------------------------------------------------------------
      1          6           0       -1.766164   -1.059307    0.179037
      2          1           0       -0.829063   -1.606624    0.032782
      3          1           0       -2.563170   -1.601158   -0.341642
      4          1           0       -1.997785   -1.071389    1.250876
      5          6           0       -1.643325    0.379053   -0.340350
      6          1           0       -1.447048    0.373875   -1.422467
      7          1           0       -2.622381    0.884226   -0.234011
      8          6           0       -0.596393    1.181230    0.351949
      9          1           0       -0.248279    2.119307   -0.069177
     10          1           0       -0.331095    0.972134    1.384374
     11          8           0        1.683127   -0.111282   -0.519959
     12          8           0        2.576137   -0.273246    0.301890
 ---------------------------------------------------------------------
                    Distance matrix (angstroms):
                    1          2          3          4          5
     1  C    0.000000
     2  H    1.095036   0.000000
     3  H    1.095412   1.774077   0.000000
     4  H    1.096646   1.770915   1.770997   0.000000
     5  C    1.534188   2.178340   2.183427   2.182069   0.000000
     6  H    2.172708   2.534173   2.512900   3.088505   1.099786
     7  H    2.163570   3.080828   2.488418   2.533661   1.106824
     8  C    2.533430   2.815694   3.477206   2.801118   1.489575
     9  H    3.531171   3.772303   4.390309   3.870898   2.246814
    10  H    2.763876   2.953771   3.818785   2.640391   2.246857
    11  O    3.644853   2.975343   4.503617   4.196043   3.367190
    12  O    4.414585   3.666838   5.346958   4.739026   4.317618
                    6          7          8          9         10
     6  H    0.000000
     7  H    1.747654   0.000000
     8  C    2.126967   2.129833   0.000000
     9  H    2.512961   2.681223   1.085596   0.000000
    10  H    3.079224   2.806580   1.086281   1.853557   0.000000
    11  O    3.293614   4.428341   2.761706   2.984805   2.976133
    12  O    4.424725   5.352712   3.490409   3.720125   3.342864
                   11         12
    11  O    0.000000
    12  O    1.224392   0.000000
 Stoichiometry    C3H7O2(2)
 Framework group  C1[X(C3H7O2)]
 Deg. of freedom    30
 Full point group                 C1      NOp   1
 Largest Abelian subgroup         C1      NOp   1
 Largest concise Abelian subgroup C1      NOp   1
                         Standard orientation:                         
 ---------------------------------------------------------------------
 Center     Atomic      Atomic             Coordinates (Angstroms)
 Number     Number       Type             X           Y           Z
 ---------------------------------------------------------------------
      1          6           0       -1.766164   -1.059307    0.179037
      2          1           0       -0.829063   -1.606624    0.032782
      3          1           0       -2.563170   -1.601159   -0.341642
      4          1           0       -1.997785   -1.071389    1.250876
      5          6           0       -1.643325    0.379053   -0.340350
      6          1           0       -1.447048    0.373875   -1.422467
      7          1           0       -2.622381    0.884225   -0.234011
      8          6           0       -0.596393    1.181230    0.351949
      9          1           0       -0.248279    2.119307   -0.069177
     10          1           0       -0.331095    0.972134    1.384374
     11          8           0        1.683127   -0.111282   -0.519959
     12          8           0        2.576137   -0.273246    0.301890
 ---------------------------------------------------------------------
 Rotational constants (GHZ):      8.3168320      1.9464871      1.7373928
 Leave Link  202 at Wed Apr  1 00:21:34 2015, MaxMem= 3758096384 cpu:       0.2
 (Enter /share/apps/g09/l301.exe)
 Standard basis: 6-31G(d) (6D, 7F)
 Ernie: Thresh=  0.10000D-02 Tol=  0.10000D-05 Strict=F.
 There are    89 symmetry adapted basis functions of A   symmetry.
 Integral buffers will be    131072 words long.
 Raffenetti 2 integral format.
 Two-electron integral symmetry is turned on.
    89 basis functions,   168 primitive gaussians,    89 cartesian basis functions
    21 alpha electrons       20 beta electrons
       nuclear repulsion energy       161.4320293165 Hartrees.
 IExCor=  402 DFT=T Ex+Corr=B3LYP ExCW=0 ScaHFX=  0.200000
 ScaDFX=  0.800000  0.720000  1.000000  0.810000 ScalE2=  1.000000  1.000000
 IRadAn=      0 IRanWt=     -1 IRanGd=            0 ICorTp=0
 NAtoms=   12 NActive=   12 NUniq=   12 SFac= 7.50D-01 NAtFMM=   80 NAOKFM=F Big=F
 Leave Link  301 at Wed Apr  1 00:21:34 2015, MaxMem= 3758096384 cpu:       0.4
 (Enter /share/apps/g09/l302.exe)
 NPDir=0 NMtPBC=     1 NCelOv=     1 NCel=       1 NClECP=     1 NCelD=      1
         NCelK=      1 NCelE2=     1 NClLst=     1 CellRange=     0.0.
 One-electron integrals computed using PRISM.
 NBasis=    89 RedAO= T  NBF=    89
 NBsUse=    89 1.00D-06 NBFU=    89
 Precomputing XC quadrature grid using
 IXCGrd= 2 IRadAn=           0 IRanWt=          -1 IRanGd=           0 AccXCQ= 1.00D-10.
 NRdTot=     743 NPtTot=       94340 NUsed=       99710 NTot=       99742
 NSgBfM=    89    89    89    89    89 NAtAll=    12    12.
 Leave Link  302 at Wed Apr  1 00:21:35 2015, MaxMem= 3758096384 cpu:       4.5
 (Enter /share/apps/g09/l303.exe)
 DipDrv:  MaxL=1.
 Leave Link  303 at Wed Apr  1 00:21:35 2015, MaxMem= 3758096384 cpu:       1.1
 (Enter /share/apps/g09/l401.exe)
 Harris functional with IExCor=  402 diagonalized for initial guess.
 ExpMin= 1.61D-01 ExpMax= 5.48D+03 ExpMxC= 8.25D+02 IAcc=1 IRadAn=         1 AccDes= 0.00D+00
 HarFok:  IExCor=  402 AccDes= 0.00D+00 IRadAn=         1 IDoV= 1
 ScaDFX=  1.000000  1.000000  1.000000  1.000000
 FoFCou: FMM=F IPFlag=           0 FMFlag=      100000 FMFlg1=           0
         NFxFlg=           0 DoJE=T BraDBF=F KetDBF=T FulRan=T
         Omega=  0.000000  0.000000  1.000000  0.000000  0.000000 ICntrl=     500 IOpCl=  0
         NMat0=    1 NMatS0=    1 NMatT0=    0 NMatD0=    1 NMtDS0=    0 NMtDT0=    0
         I1Cent=           4 NGrid=           0.
 Petite list used in FoFCou.
 Harris En= -268.815671857302    
 Initial guess orbital symmetries:
 Alpha Orbitals:
       Occupied  (A) (A) (A) (A) (A) (A) (A) (A) (A) (A) (A) (A)
                 (A) (A) (A) (A) (A) (A) (A) (A) (A)
       Virtual   (A) (A) (A) (A) (A) (A) (A) (A) (A) (A) (A) (A)
                 (A) (A) (A) (A) (A) (A) (A) (A) (A) (A) (A) (A)
                 (A) (A) (A) (A) (A) (A) (A) (A) (A) (A) (A) (A)
                 (A) (A) (A) (A) (A) (A) (A) (A) (A) (A) (A) (A)
                 (A) (A) (A) (A) (A) (A) (A) (A) (A) (A) (A) (A)
                 (A) (A) (A) (A) (A) (A) (A) (A)
 Beta  Orbitals:
       Occupied  (A) (A) (A) (A) (A) (A) (A) (A) (A) (A) (A) (A)
                 (A) (A) (A) (A) (A) (A) (A) (A)
       Virtual   (A) (A) (A) (A) (A) (A) (A) (A) (A) (A) (A) (A)
                 (A) (A) (A) (A) (A) (A) (A) (A) (A) (A) (A) (A)
                 (A) (A) (A) (A) (A) (A) (A) (A) (A) (A) (A) (A)
                 (A) (A) (A) (A) (A) (A) (A) (A) (A) (A) (A) (A)
                 (A) (A) (A) (A) (A) (A) (A) (A) (A) (A) (A) (A)
                 (A) (A) (A) (A) (A) (A) (A) (A) (A)
 The electronic state of the initial guess is 2-A.
 Initial guess <Sx>= 0.0000 <Sy>= 0.0000 <Sz>= 0.5000 <S**2>= 0.7500 S= 0.5000
 Leave Link  401 at Wed Apr  1 00:21:35 2015, MaxMem= 3758096384 cpu:       3.6
 (Enter /share/apps/g09/l502.exe)
 UHF open shell SCF:
 Requested convergence on RMS density matrix=1.00D-08 within 128 cycles.
 Requested convergence on MAX density matrix=1.00D-06.
 Requested convergence on             energy=1.00D-06.
 No special actions if energy rises.
 Using DIIS extrapolation, IDIIS=  1040.
 Integral symmetry usage will be decided dynamically.
        99589 words used for storage of precomputed grid.
 Keep R1 and R2 ints in memory in canonical form, NReq=17096782.
 IEnd=      143247 IEndB=      143247 NGot=  3758096384 MDV=  3741933730
 LenX=  3741933730 LenY=  3741925368
 Symmetry not used in FoFDir.
 MinBra= 0 MaxBra= 2 Meth= 1.
 IRaf=       0 NMat=   1 IRICut=       1 DoRegI=T DoRafI=F ISym2E= 0 JSym2E=0.
 Integral accuracy reduced to 1.0D-05 until final iterations.

 Cycle   1  Pass 0  IDiag  1:
 E= -268.299605825927    
 DIIS: error= 8.08D-02 at cycle   1 NSaved=   1.
 NSaved= 1 IEnMin= 1 EnMin= -268.299605825927     IErMin= 1 ErrMin= 8.08D-02
 ErrMax= 8.08D-02 EMaxC= 1.00D-01 BMatC= 1.30D+00 BMatP= 1.30D+00
 IDIUse=3 WtCom= 1.92D-01 WtEn= 8.08D-01
 Coeff-Com:  0.100D+01
 Coeff-En:   0.100D+01
 Coeff:      0.100D+01
 Gap=     0.235 Goal=   None    Shift=    0.000
 Gap=    -0.438 Goal=   None    Shift=    0.000
 GapD=   -0.438 DampG=0.250 DampE=0.500 DampFc=0.2500 IDamp=-1.
 Damping current iteration by 2.50D-01
 RMSDP=2.96D-02 MaxDP=5.31D-01              OVMax= 9.99D-01

 Cycle   2  Pass 0  IDiag  1:
 E= -268.349935534025     Delta-E=       -0.050329708098 Rises=F Damp=T
 DIIS: error= 2.43D-02 at cycle   2 NSaved=   2.
 NSaved= 2 IEnMin= 2 EnMin= -268.349935534025     IErMin= 2 ErrMin= 2.43D-02
 ErrMax= 2.43D-02 EMaxC= 1.00D-01 BMatC= 1.59D-01 BMatP= 1.30D+00
 IDIUse=3 WtCom= 7.57D-01 WtEn= 2.43D-01
 Coeff-Com:  0.747D-01 0.925D+00
 Coeff-En:   0.440D+00 0.560D+00
 Coeff:      0.163D+00 0.837D+00
 Gap=    -0.583 Goal=   None    Shift=    0.000
 Gap=     0.180 Goal=   None    Shift=    0.000
 RMSDP=8.96D-03 MaxDP=1.32D-01 DE=-5.03D-02 OVMax= 7.65D-01

 Cycle   3  Pass 0  IDiag  1:
 E= -268.683040028449     Delta-E=       -0.333104494424 Rises=F Damp=F
 DIIS: error= 3.06D-02 at cycle   3 NSaved=   3.
 NSaved= 3 IEnMin= 3 EnMin= -268.683040028449     IErMin= 2 ErrMin= 2.43D-02
 ErrMax= 3.06D-02 EMaxC= 1.00D-01 BMatC= 2.46D-01 BMatP= 1.59D-01
 IDIUse=2 WtCom= 0.00D+00 WtEn= 1.00D+00
 Coeff-En:   0.214D+00 0.000D+00 0.786D+00
 Coeff:      0.214D+00 0.000D+00 0.786D+00
 Gap=     0.055 Goal=   None    Shift=    0.000
 Gap=     0.121 Goal=   None    Shift=    0.000
 RMSDP=5.78D-03 MaxDP=1.40D-01 DE=-3.33D-01 OVMax= 4.37D-01

 Cycle   4  Pass 0  IDiag  1:
 E= -268.675811475844     Delta-E=        0.007228552605 Rises=F Damp=F
 DIIS: error= 5.00D-02 at cycle   4 NSaved=   4.
 NSaved= 4 IEnMin= 3 EnMin= -268.683040028449     IErMin= 2 ErrMin= 2.43D-02
 ErrMax= 5.00D-02 EMaxC= 1.00D-01 BMatC= 2.85D-01 BMatP= 1.59D-01
 IDIUse=2 WtCom= 0.00D+00 WtEn= 1.00D+00
 Coeff-En:   0.000D+00 0.000D+00 0.515D+00 0.485D+00
 Coeff:      0.000D+00 0.000D+00 0.515D+00 0.485D+00
 Gap=     0.073 Goal=   None    Shift=    0.000
 Gap=     0.056 Goal=   None    Shift=    0.000
 RMSDP=4.78D-03 MaxDP=9.17D-02 DE= 7.23D-03 OVMax= 3.97D-01

 Cycle   5  Pass 0  IDiag  1:
 E= -268.739119583291     Delta-E=       -0.063308107447 Rises=F Damp=F
 DIIS: error= 3.04D-02 at cycle   5 NSaved=   5.
 NSaved= 5 IEnMin= 5 EnMin= -268.739119583291     IErMin= 2 ErrMin= 2.43D-02
 ErrMax= 3.04D-02 EMaxC= 1.00D-01 BMatC= 9.19D-02 BMatP= 1.59D-01
 IDIUse=3 WtCom= 6.96D-01 WtEn= 3.04D-01
 Coeff-Com:  0.276D-01-0.169D-01 0.302D+00 0.342D+00 0.345D+00
 Coeff-En:   0.000D+00 0.000D+00 0.000D+00 0.310D+00 0.690D+00
 Coeff:      0.192D-01-0.118D-01 0.210D+00 0.332D+00 0.450D+00
 Gap=     0.085 Goal=   None    Shift=    0.000
 Gap=     0.063 Goal=   None    Shift=    0.000
 RMSDP=3.14D-03 MaxDP=6.38D-02 DE=-6.33D-02 OVMax= 3.19D-01

 Cycle   6  Pass 0  IDiag  1:
 E= -268.771591860119     Delta-E=       -0.032472276827 Rises=F Damp=F
 DIIS: error= 1.63D-02 at cycle   6 NSaved=   6.
 NSaved= 6 IEnMin= 6 EnMin= -268.771591860119     IErMin= 6 ErrMin= 1.63D-02
 ErrMax= 1.63D-02 EMaxC= 1.00D-01 BMatC= 2.11D-02 BMatP= 9.19D-02
 IDIUse=3 WtCom= 8.37D-01 WtEn= 1.63D-01
 Coeff-Com: -0.788D-02 0.430D-01 0.129D+00 0.149D+00 0.252D+00 0.435D+00
 Coeff-En:   0.000D+00 0.000D+00 0.000D+00 0.000D+00 0.139D+00 0.861D+00
 Coeff:     -0.659D-02 0.360D-01 0.108D+00 0.125D+00 0.234D+00 0.505D+00
 Gap=     0.115 Goal=   None    Shift=    0.000
 Gap=     0.082 Goal=   None    Shift=    0.000
 RMSDP=1.43D-03 MaxDP=1.86D-02 DE=-3.25D-02 OVMax= 1.42D-01

 Cycle   7  Pass 0  IDiag  1:
 E= -268.784538344196     Delta-E=       -0.012946484078 Rises=F Damp=F
 DIIS: error= 7.19D-03 at cycle   7 NSaved=   7.
 NSaved= 7 IEnMin= 7 EnMin= -268.784538344196     IErMin= 7 ErrMin= 7.19D-03
 ErrMax= 7.19D-03 EMaxC= 1.00D-01 BMatC= 4.17D-03 BMatP= 2.11D-02
 IDIUse=3 WtCom= 9.28D-01 WtEn= 7.19D-02
 Coeff-Com: -0.495D-02 0.430D-01 0.955D-01 0.776D-01 0.117D+00 0.177D+00
 Coeff-Com:  0.494D+00
 Coeff-En:   0.000D+00 0.000D+00 0.000D+00 0.000D+00 0.000D+00 0.000D+00
 Coeff-En:   0.100D+01
 Coeff:     -0.459D-02 0.399D-01 0.887D-01 0.720D-01 0.109D+00 0.164D+00
 Coeff:      0.531D+00
 Gap=     0.136 Goal=   None    Shift=    0.000
 Gap=     0.091 Goal=   None    Shift=    0.000
 RMSDP=1.04D-03 MaxDP=1.91D-02 DE=-1.29D-02 OVMax= 9.49D-02

 Cycle   8  Pass 0  IDiag  1:
 E= -268.788646209973     Delta-E=       -0.004107865777 Rises=F Damp=F
 DIIS: error= 7.44D-03 at cycle   8 NSaved=   8.
 NSaved= 8 IEnMin= 8 EnMin= -268.788646209973     IErMin= 7 ErrMin= 7.19D-03
 ErrMax= 7.44D-03 EMaxC= 1.00D-01 BMatC= 7.21D-03 BMatP= 4.17D-03
 IDIUse=3 WtCom= 9.28D-01 WtEn= 7.19D-02
 Coeff-Com:  0.245D-02 0.424D-01 0.137D+00 0.791D-01-0.708D-01-0.608D+00
 Coeff-Com:  0.562D+00 0.856D+00
 Coeff-En:   0.000D+00 0.000D+00 0.000D+00 0.000D+00 0.000D+00 0.000D+00
 Coeff-En:   0.000D+00 0.100D+01
 Coeff:      0.227D-02 0.393D-01 0.128D+00 0.735D-01-0.657D-01-0.565D+00
 Coeff:      0.521D+00 0.866D+00
 Gap=     0.184 Goal=   None    Shift=    0.000
 Gap=     0.103 Goal=   None    Shift=    0.000
 RMSDP=1.16D-03 MaxDP=1.37D-02 DE=-4.11D-03 OVMax= 8.75D-02

 Cycle   9  Pass 0  IDiag  1:
 E= -268.793481864086     Delta-E=       -0.004835654113 Rises=F Damp=F
 DIIS: error= 2.99D-03 at cycle   9 NSaved=   9.
 NSaved= 9 IEnMin= 9 EnMin= -268.793481864086     IErMin= 9 ErrMin= 2.99D-03
 ErrMax= 2.99D-03 EMaxC= 1.00D-01 BMatC= 2.03D-03 BMatP= 4.17D-03
 IDIUse=3 WtCom= 9.70D-01 WtEn= 2.99D-02
 Coeff-Com: -0.101D-01 0.936D-02 0.672D-01 0.932D-01 0.974D-01-0.140D+00
 Coeff-Com: -0.469D+00 0.233D-02 0.135D+01
 Coeff-En:   0.000D+00 0.000D+00 0.000D+00 0.000D+00 0.000D+00 0.000D+00
 Coeff-En:   0.000D+00 0.000D+00 0.100D+01
 Coeff:     -0.984D-02 0.908D-02 0.652D-01 0.904D-01 0.944D-01-0.135D+00
 Coeff:     -0.455D+00 0.226D-02 0.134D+01
 Gap=     0.221 Goal=   None    Shift=    0.000
 Gap=     0.102 Goal=   None    Shift=    0.000
 RMSDP=5.30D-04 MaxDP=6.14D-03 DE=-4.84D-03 OVMax= 3.70D-02

 Cycle  10  Pass 0  IDiag  1:
 E= -268.794504786094     Delta-E=       -0.001022922008 Rises=F Damp=F
 DIIS: error= 1.18D-03 at cycle  10 NSaved=  10.
 NSaved=10 IEnMin=10 EnMin= -268.794504786094     IErMin=10 ErrMin= 1.18D-03
 ErrMax= 1.18D-03 EMaxC= 1.00D-01 BMatC= 3.94D-04 BMatP= 2.03D-03
 IDIUse=3 WtCom= 9.88D-01 WtEn= 1.18D-02
 Coeff-Com: -0.911D-02 0.341D-02 0.787D-02 0.436D-01 0.101D+00 0.184D+00
 Coeff-Com: -0.414D+00-0.374D+00 0.677D+00 0.781D+00
 Coeff-En:   0.000D+00 0.000D+00 0.000D+00 0.000D+00 0.000D+00 0.000D+00
 Coeff-En:   0.000D+00 0.000D+00 0.000D+00 0.100D+01
 Coeff:     -0.900D-02 0.337D-02 0.777D-02 0.431D-01 0.995D-01 0.182D+00
 Coeff:     -0.409D+00-0.370D+00 0.669D+00 0.783D+00
 Gap=     0.230 Goal=   None    Shift=    0.000
 Gap=     0.101 Goal=   None    Shift=    0.000
 RMSDP=1.17D-04 MaxDP=1.91D-03 DE=-1.02D-03 OVMax= 5.95D-03

 Cycle  11  Pass 0  IDiag  1:
 E= -268.794616889563     Delta-E=       -0.000112103469 Rises=F Damp=F
 DIIS: error= 2.92D-04 at cycle  11 NSaved=  11.
 NSaved=11 IEnMin=11 EnMin= -268.794616889563     IErMin=11 ErrMin= 2.92D-04
 ErrMax= 2.92D-04 EMaxC= 1.00D-01 BMatC= 3.75D-05 BMatP= 3.94D-04
 IDIUse=3 WtCom= 9.97D-01 WtEn= 2.92D-03
 Coeff-Com: -0.681D-03-0.886D-03-0.271D-02 0.799D-02 0.178D-01 0.639D-01
 Coeff-Com: -0.119D+00-0.118D+00 0.180D-01 0.205D+00 0.928D+00
 Coeff-En:   0.000D+00 0.000D+00 0.000D+00 0.000D+00 0.000D+00 0.000D+00
 Coeff-En:   0.000D+00 0.000D+00 0.000D+00 0.000D+00 0.100D+01
 Coeff:     -0.679D-03-0.883D-03-0.270D-02 0.797D-02 0.177D-01 0.637D-01
 Coeff:     -0.119D+00-0.117D+00 0.180D-01 0.204D+00 0.929D+00
 Gap=     0.241 Goal=   None    Shift=    0.000
 Gap=     0.105 Goal=   None    Shift=    0.000
 RMSDP=1.38D-04 MaxDP=1.98D-03 DE=-1.12D-04 OVMax= 1.08D-02

 Cycle  12  Pass 0  IDiag  1:
 E= -268.794654934948     Delta-E=       -0.000038045385 Rises=F Damp=F
 DIIS: error= 1.60D-04 at cycle  12 NSaved=  12.
 NSaved=12 IEnMin=12 EnMin= -268.794654934948     IErMin=12 ErrMin= 1.60D-04
 ErrMax= 1.60D-04 EMaxC= 1.00D-01 BMatC= 4.48D-06 BMatP= 3.75D-05
 IDIUse=3 WtCom= 9.98D-01 WtEn= 1.60D-03
 Coeff-Com:  0.889D-03-0.110D-02 0.662D-03 0.560D-03-0.268D-02-0.747D-02
 Coeff-Com: -0.173D-01 0.221D-01 0.815D-02-0.122D-01-0.389D-01 0.105D+01
 Coeff-En:   0.000D+00 0.000D+00 0.000D+00 0.000D+00 0.000D+00 0.000D+00
 Coeff-En:   0.000D+00 0.000D+00 0.000D+00 0.000D+00 0.000D+00 0.100D+01
 Coeff:      0.888D-03-0.110D-02 0.661D-03 0.559D-03-0.268D-02-0.745D-02
 Coeff:     -0.173D-01 0.220D-01 0.813D-02-0.121D-01-0.388D-01 0.105D+01
 Gap=     0.242 Goal=   None    Shift=    0.000
 Gap=     0.106 Goal=   None    Shift=    0.000
 RMSDP=3.53D-05 MaxDP=7.32D-04 DE=-3.80D-05 OVMax= 3.59D-03

 Cycle  13  Pass 0  IDiag  1:
 E= -268.794657005945     Delta-E=       -0.000002070997 Rises=F Damp=F
 DIIS: error= 4.81D-05 at cycle  13 NSaved=  13.
 NSaved=13 IEnMin=13 EnMin= -268.794657005945     IErMin=13 ErrMin= 4.81D-05
 ErrMax= 4.81D-05 EMaxC= 1.00D-01 BMatC= 4.78D-07 BMatP= 4.48D-06
 IDIUse=1 WtCom= 1.00D+00 WtEn= 0.00D+00
 Coeff-Com:  0.255D-03-0.245D-03 0.227D-03-0.616D-03-0.950D-03-0.317D-02
 Coeff-Com:  0.312D-02 0.104D-01 0.786D-02-0.589D-02-0.585D-01 0.110D+00
 Coeff-Com:  0.938D+00
 Coeff:      0.255D-03-0.245D-03 0.227D-03-0.616D-03-0.950D-03-0.317D-02
 Coeff:      0.312D-02 0.104D-01 0.786D-02-0.589D-02-0.585D-01 0.110D+00
 Coeff:      0.938D+00
 Gap=     0.242 Goal=   None    Shift=    0.000
 Gap=     0.106 Goal=   None    Shift=    0.000
 RMSDP=8.87D-06 MaxDP=1.22D-04 DE=-2.07D-06 OVMax= 6.94D-04

 Initial convergence to 1.0D-05 achieved.  Increase integral accuracy.
 Cycle  14  Pass 1  IDiag  1:
 E= -268.794666439771     Delta-E=       -0.000009433825 Rises=F Damp=F
 DIIS: error= 9.46D-06 at cycle   1 NSaved=   1.
 NSaved= 1 IEnMin= 1 EnMin= -268.794666439771     IErMin= 1 ErrMin= 9.46D-06
 ErrMax= 9.46D-06 EMaxC= 1.00D-01 BMatC= 3.97D-08 BMatP= 3.97D-08
 IDIUse=1 WtCom= 1.00D+00 WtEn= 0.00D+00
 Coeff-Com:  0.100D+01
 Coeff:      0.100D+01
 Gap=     0.242 Goal=   None    Shift=    0.000
 Gap=     0.106 Goal=   None    Shift=    0.000
 RMSDP=8.87D-06 MaxDP=1.22D-04 DE=-9.43D-06 OVMax= 1.45D-04

 Cycle  15  Pass 1  IDiag  1:
 E= -268.794666441209     Delta-E=       -0.000000001439 Rises=F Damp=F
 DIIS: error= 2.15D-05 at cycle   2 NSaved=   2.
 NSaved= 2 IEnMin= 2 EnMin= -268.794666441209     IErMin= 1 ErrMin= 9.46D-06
 ErrMax= 2.15D-05 EMaxC= 1.00D-01 BMatC= 6.44D-08 BMatP= 3.97D-08
 IDIUse=1 WtCom= 1.00D+00 WtEn= 0.00D+00
 Coeff-Com:  0.582D+00 0.418D+00
 Coeff:      0.582D+00 0.418D+00
 Gap=     0.242 Goal=   None    Shift=    0.000
 Gap=     0.106 Goal=   None    Shift=    0.000
 RMSDP=1.35D-06 MaxDP=4.01D-05 DE=-1.44D-09 OVMax= 7.19D-05

 Cycle  16  Pass 1  IDiag  1:
 E= -268.794666450078     Delta-E=       -0.000000008868 Rises=F Damp=F
 DIIS: error= 1.34D-05 at cycle   3 NSaved=   3.
 NSaved= 3 IEnMin= 3 EnMin= -268.794666450078     IErMin= 1 ErrMin= 9.46D-06
 ErrMax= 1.34D-05 EMaxC= 1.00D-01 BMatC= 2.12D-08 BMatP= 3.97D-08
 IDIUse=1 WtCom= 1.00D+00 WtEn= 0.00D+00
 Coeff-Com:  0.366D-01 0.354D+00 0.609D+00
 Coeff:      0.366D-01 0.354D+00 0.609D+00
 Gap=     0.242 Goal=   None    Shift=    0.000
 Gap=     0.106 Goal=   None    Shift=    0.000
 RMSDP=5.53D-07 MaxDP=1.59D-05 DE=-8.87D-09 OVMax= 2.92D-05

 Cycle  17  Pass 1  IDiag  1:
 E= -268.794666453518     Delta-E=       -0.000000003440 Rises=F Damp=F
 DIIS: error= 1.86D-06 at cycle   4 NSaved=   4.
 NSaved= 4 IEnMin= 4 EnMin= -268.794666453518     IErMin= 4 ErrMin= 1.86D-06
 ErrMax= 1.86D-06 EMaxC= 1.00D-01 BMatC= 1.64D-09 BMatP= 2.12D-08
 IDIUse=1 WtCom= 1.00D+00 WtEn= 0.00D+00
 Coeff-Com: -0.360D-01 0.167D+00 0.343D+00 0.527D+00
 Coeff:     -0.360D-01 0.167D+00 0.343D+00 0.527D+00
 Gap=     0.242 Goal=   None    Shift=    0.000
 Gap=     0.106 Goal=   None    Shift=    0.000
 RMSDP=2.88D-07 MaxDP=6.67D-06 DE=-3.44D-09 OVMax= 2.38D-05

 Cycle  18  Pass 1  IDiag  1:
 E= -268.794666453945     Delta-E=       -0.000000000427 Rises=F Damp=F
 DIIS: error= 4.51D-07 at cycle   5 NSaved=   5.
 NSaved= 5 IEnMin= 5 EnMin= -268.794666453945     IErMin= 5 ErrMin= 4.51D-07
 ErrMax= 4.51D-07 EMaxC= 1.00D-01 BMatC= 9.30D-11 BMatP= 1.64D-09
 IDIUse=1 WtCom= 1.00D+00 WtEn= 0.00D+00
 Coeff-Com: -0.152D-01 0.559D-02 0.133D-01 0.171D+00 0.826D+00
 Coeff:     -0.152D-01 0.559D-02 0.133D-01 0.171D+00 0.826D+00
 Gap=     0.242 Goal=   None    Shift=    0.000
 Gap=     0.106 Goal=   None    Shift=    0.000
 RMSDP=7.40D-08 MaxDP=1.70D-06 DE=-4.27D-10 OVMax= 2.39D-06

 Cycle  19  Pass 1  IDiag  1:
 E= -268.794666453975     Delta-E=       -0.000000000030 Rises=F Damp=F
 DIIS: error= 1.51D-07 at cycle   6 NSaved=   6.
 NSaved= 6 IEnMin= 6 EnMin= -268.794666453975     IErMin= 6 ErrMin= 1.51D-07
 ErrMax= 1.51D-07 EMaxC= 1.00D-01 BMatC= 1.27D-11 BMatP= 9.30D-11
 IDIUse=1 WtCom= 1.00D+00 WtEn= 0.00D+00
 Coeff-Com:  0.219D-02-0.302D-01-0.676D-01-0.415D-01 0.256D+00 0.881D+00
 Coeff:      0.219D-02-0.302D-01-0.676D-01-0.415D-01 0.256D+00 0.881D+00
 Gap=     0.242 Goal=   None    Shift=    0.000
 Gap=     0.106 Goal=   None    Shift=    0.000
 RMSDP=3.59D-08 MaxDP=7.68D-07 DE=-2.98D-11 OVMax= 1.26D-06

 Cycle  20  Pass 1  IDiag  1:
 E= -268.794666453980     Delta-E=       -0.000000000006 Rises=F Damp=F
 DIIS: error= 9.17D-08 at cycle   7 NSaved=   7.
 NSaved= 7 IEnMin= 7 EnMin= -268.794666453980     IErMin= 7 ErrMin= 9.17D-08
 ErrMax= 9.17D-08 EMaxC= 1.00D-01 BMatC= 2.17D-12 BMatP= 1.27D-11
 IDIUse=1 WtCom= 1.00D+00 WtEn= 0.00D+00
 Coeff-Com:  0.233D-02-0.147D-01-0.332D-01-0.356D-01 0.468D-01 0.418D+00
 Coeff-Com:  0.616D+00
 Coeff:      0.233D-02-0.147D-01-0.332D-01-0.356D-01 0.468D-01 0.418D+00
 Coeff:      0.616D+00
 Gap=     0.242 Goal=   None    Shift=    0.000
 Gap=     0.106 Goal=   None    Shift=    0.000
 RMSDP=1.06D-08 MaxDP=2.54D-07 DE=-5.57D-12 OVMax= 4.24D-07

 Cycle  21  Pass 1  IDiag  1:
 E= -268.794666453981     Delta-E=       -0.000000000001 Rises=F Damp=F
 DIIS: error= 1.83D-08 at cycle   8 NSaved=   8.
 NSaved= 8 IEnMin= 8 EnMin= -268.794666453981     IErMin= 8 ErrMin= 1.83D-08
 ErrMax= 1.83D-08 EMaxC= 1.00D-01 BMatC= 1.10D-13 BMatP= 2.17D-12
 IDIUse=1 WtCom= 1.00D+00 WtEn= 0.00D+00
 Coeff-Com:  0.214D-03 0.570D-03 0.769D-03-0.434D-02-0.139D-01-0.141D-01
 Coeff-Com:  0.130D+00 0.901D+00
 Coeff:      0.214D-03 0.570D-03 0.769D-03-0.434D-02-0.139D-01-0.141D-01
 Coeff:      0.130D+00 0.901D+00
 Gap=     0.242 Goal=   None    Shift=    0.000
 Gap=     0.106 Goal=   None    Shift=    0.000
 RMSDP=3.20D-09 MaxDP=6.02D-08 DE=-9.09D-13 OVMax= 9.92D-08

 SCF Done:  E(UB3LYP) =  -268.794666454     A.U. after   21 cycles
             Convg  =    0.3204D-08             -V/T =  2.0092
 <Sx>= 0.0000 <Sy>= 0.0000 <Sz>= 0.5000 <S**2>= 1.6292 S= 0.8708
 <L.S>= 0.000000000000E+00
 KE= 2.663311347443D+02 PE=-9.511716154802D+02 EE= 2.546137849654D+02
 Annihilation of the first spin contaminant:
 S**2 before annihilation     1.6292,   after     0.7761
 Leave Link  502 at Wed Apr  1 00:21:42 2015, MaxMem= 3758096384 cpu:      66.8
 (Enter /share/apps/g09/l601.exe)
 Copying SCF densities to generalized density rwf, IOpCl= 1 IROHF=0.

 **********************************************************************

            Population analysis using the SCF density.

 **********************************************************************

 Orbital symmetries:
 Alpha Orbitals:
       Occupied  (A) (A) (A) (A) (A) (A) (A) (A) (A) (A) (A) (A)
                 (A) (A) (A) (A) (A) (A) (A) (A) (A)
       Virtual   (A) (A) (A) (A) (A) (A) (A) (A) (A) (A) (A) (A)
                 (A) (A) (A) (A) (A) (A) (A) (A) (A) (A) (A) (A)
                 (A) (A) (A) (A) (A) (A) (A) (A) (A) (A) (A) (A)
                 (A) (A) (A) (A) (A) (A) (A) (A) (A) (A) (A) (A)
                 (A) (A) (A) (A) (A) (A) (A) (A) (A) (A) (A) (A)
                 (A) (A) (A) (A) (A) (A) (A) (A)
 Beta  Orbitals:
       Occupied  (A) (A) (A) (A) (A) (A) (A) (A) (A) (A) (A) (A)
                 (A) (A) (A) (A) (A) (A) (A) (A)
       Virtual   (A) (A) (A) (A) (A) (A) (A) (A) (A) (A) (A) (A)
                 (A) (A) (A) (A) (A) (A) (A) (A) (A) (A) (A) (A)
                 (A) (A) (A) (A) (A) (A) (A) (A) (A) (A) (A) (A)
                 (A) (A) (A) (A) (A) (A) (A) (A) (A) (A) (A) (A)
                 (A) (A) (A) (A) (A) (A) (A) (A) (A) (A) (A) (A)
                 (A) (A) (A) (A) (A) (A) (A) (A) (A)
 The electronic state is 2-A.
 Alpha  occ. eigenvalues --  -19.29175 -19.28263 -10.19315 -10.18680 -10.17709
 Alpha  occ. eigenvalues --   -1.26941  -0.81697  -0.77749  -0.66283  -0.57428
 Alpha  occ. eigenvalues --   -0.53369  -0.52955  -0.52294  -0.45170  -0.43804
 Alpha  occ. eigenvalues --   -0.40719  -0.35494  -0.35063  -0.34427  -0.28807
 Alpha  occ. eigenvalues --   -0.28469
 Alpha virt. eigenvalues --   -0.04316   0.10155   0.14376   0.14597   0.15459
 Alpha virt. eigenvalues --    0.16955   0.18584   0.19915   0.21022   0.24210
 Alpha virt. eigenvalues --    0.28037   0.50640   0.51430   0.53877   0.57419
 Alpha virt. eigenvalues --    0.58750   0.62423   0.66880   0.69949   0.72324
 Alpha virt. eigenvalues --    0.76069   0.78816   0.79362   0.84287   0.86285
 Alpha virt. eigenvalues --    0.86704   0.89032   0.90226   0.91650   0.92555
 Alpha virt. eigenvalues --    0.94781   0.95829   0.99384   1.00296   1.08612
 Alpha virt. eigenvalues --    1.22876   1.36267   1.43553   1.49573   1.50950
 Alpha virt. eigenvalues --    1.52184   1.53988   1.58339   1.59737   1.71844
 Alpha virt. eigenvalues --    1.85203   1.90973   1.91952   1.93697   1.95088
 Alpha virt. eigenvalues --    2.01514   2.08520   2.17736   2.24276   2.33145
 Alpha virt. eigenvalues --    2.36683   2.40567   2.42765   2.54864   2.55552
 Alpha virt. eigenvalues --    2.61762   2.68536   2.84291   3.21413   3.56147
 Alpha virt. eigenvalues --    4.12979   4.25906   4.45162
  Beta  occ. eigenvalues --  -19.26347 -19.25493 -10.19968 -10.19235 -10.17728
  Beta  occ. eigenvalues --   -1.21373  -0.78691  -0.73245  -0.67864  -0.58682
  Beta  occ. eigenvalues --   -0.48688  -0.45703  -0.44642  -0.43573  -0.43162
  Beta  occ. eigenvalues --   -0.41174  -0.36035  -0.35592  -0.34712  -0.20176
  Beta virt. eigenvalues --   -0.09575  -0.09520   0.09995   0.13354   0.14298
  Beta virt. eigenvalues --    0.15213   0.16953   0.18377   0.19530   0.23587
  Beta virt. eigenvalues --    0.25124   0.27490   0.50347   0.51187   0.52689
  Beta virt. eigenvalues --    0.56571   0.58216   0.59339   0.66668   0.70245
  Beta virt. eigenvalues --    0.73708   0.76210   0.80225   0.81620   0.85740
  Beta virt. eigenvalues --    0.86442   0.89051   0.89549   0.91768   0.92767
  Beta virt. eigenvalues --    0.94027   0.94311   0.95435   0.99418   1.03084
  Beta virt. eigenvalues --    1.10003   1.23756   1.38093   1.42000   1.50042
  Beta virt. eigenvalues --    1.53706   1.55345   1.57963   1.60768   1.62251
  Beta virt. eigenvalues --    1.67083   1.84008   1.91369   1.93814   1.97244
  Beta virt. eigenvalues --    1.98749   2.00408   2.06544   2.15087   2.23988
  Beta virt. eigenvalues --    2.32646   2.35424   2.42079   2.43983   2.58885
  Beta virt. eigenvalues --    2.59376   2.61155   2.68069   2.86713   3.25562
  Beta virt. eigenvalues --    3.60228   4.11684   4.24552   4.44696
          Condensed to atoms (all electrons):
              1          2          3          4          5          6
     1  C    5.063516   0.378096   0.371530   0.378387   0.378201  -0.035858
     2  H    0.378096   0.558923  -0.029213  -0.031633  -0.035142  -0.004765
     3  H    0.371530  -0.029213   0.573753  -0.030998  -0.028585  -0.002779
     4  H    0.378387  -0.031633  -0.030998   0.574300  -0.035601   0.005032
     5  C    0.378201  -0.035142  -0.028585  -0.035601   4.916065   0.377624
     6  H   -0.035858  -0.004765  -0.002779   0.005032   0.377624   0.591416
     7  H   -0.040232   0.005287  -0.002423  -0.004505   0.369342  -0.041967
     8  C   -0.046470  -0.001668   0.004418  -0.004131   0.391538  -0.041518
     9  H    0.003906   0.000021  -0.000154  -0.000008  -0.031555  -0.003591
    10  H   -0.005518   0.000210   0.000047   0.004134  -0.039360   0.004461
    11  O   -0.001191   0.003595   0.000011  -0.000010   0.000276   0.000074
    12  O    0.000042  -0.000112   0.000000   0.000002   0.000019   0.000007
              7          8          9         10         11         12
     1  C   -0.040232  -0.046470   0.003906  -0.005518  -0.001191   0.000042
     2  H    0.005287  -0.001668   0.000021   0.000210   0.003595  -0.000112
     3  H   -0.002423   0.004418  -0.000154   0.000047   0.000011   0.000000
     4  H   -0.004505  -0.004131  -0.000008   0.004134  -0.000010   0.000002
     5  C    0.369342   0.391538  -0.031555  -0.039360   0.000276   0.000019
     6  H   -0.041967  -0.041518  -0.003591   0.004461   0.000074   0.000007
     7  H    0.612392  -0.048680   0.000363   0.000722   0.000062  -0.000002
     8  C   -0.048680   5.275274   0.367155   0.372296   0.016562  -0.003551
     9  H    0.000363   0.367155   0.551607  -0.037069  -0.000180   0.000038
    10  H    0.000722   0.372296  -0.037069   0.549173  -0.000612   0.000608
    11  O    0.000062   0.016562  -0.000180  -0.000612   7.892148   0.109958
    12  O   -0.000002  -0.003551   0.000038   0.000608   0.109958   7.931547
 Mulliken atomic charges:
              1
     1  C   -0.444410
     2  H    0.156400
     3  H    0.144394
     4  H    0.145030
     5  C   -0.262823
     6  H    0.151865
     7  H    0.149642
     8  C   -0.281225
     9  H    0.149468
    10  H    0.150909
    11  O   -0.020694
    12  O   -0.038556
 Sum of Mulliken atomic charges =   0.00000
 Mulliken charges with hydrogens summed into heavy atoms:
              1
     1  C    0.001414
     5  C    0.038684
     8  C    0.019152
    11  O   -0.020694
    12  O   -0.038556
 Sum of Mulliken charges with hydrogens summed into heavy atoms =   0.00000
          Atomic-Atomic Spin Densities.
              1          2          3          4          5          6
     1  C   -0.014527   0.003653   0.002254  -0.000700  -0.006483  -0.005622
     2  H    0.003653  -0.002766  -0.001254   0.000970   0.000683   0.001164
     3  H    0.002254  -0.001254  -0.000226   0.000510  -0.000366   0.000820
     4  H   -0.000700   0.000970   0.000510  -0.000604  -0.000583  -0.000306
     5  C   -0.006483   0.000683  -0.000366  -0.000583   0.058939  -0.005909
     6  H   -0.005622   0.001164   0.000820  -0.000306  -0.005909  -0.035063
     7  H    0.006927  -0.000750  -0.001621   0.001393  -0.012248   0.013944
     8  C    0.008947  -0.003829  -0.000298   0.000098   0.035873   0.012501
     9  H   -0.000036   0.000030   0.000001  -0.000019   0.000207  -0.000888
    10  H   -0.000751   0.000119   0.000045  -0.000187  -0.000356  -0.000221
    11  O   -0.000230   0.000633   0.000004   0.000008   0.000263  -0.000087
    12  O    0.000049  -0.000237   0.000000  -0.000003  -0.000023   0.000001
              7          8          9         10         11         12
     1  C    0.006927   0.008947  -0.000036  -0.000751  -0.000230   0.000049
     2  H   -0.000750  -0.003829   0.000030   0.000119   0.000633  -0.000237
     3  H   -0.001621  -0.000298   0.000001   0.000045   0.000004   0.000000
     4  H    0.001393   0.000098  -0.000019  -0.000187   0.000008  -0.000003
     5  C   -0.012248   0.035873   0.000207  -0.000356   0.000263  -0.000023
     6  H    0.013944   0.012501  -0.000888  -0.000221  -0.000087   0.000001
     7  H   -0.092123   0.028471   0.000643   0.000698  -0.000005   0.000001
     8  C    0.028471  -1.086475   0.006654   0.008166  -0.003860   0.001787
     9  H    0.000643   0.006654   0.041772  -0.002302   0.000020  -0.000017
    10  H    0.000698   0.008166  -0.002302   0.041002  -0.000592   0.000096
    11  O   -0.000005  -0.003860   0.000020  -0.000592   1.271375  -0.305205
    12  O    0.000001   0.001787  -0.000017   0.000096  -0.305205   1.253407
 Mulliken atomic spin densities:
              1
     1  C   -0.006518
     2  H   -0.001584
     3  H   -0.000131
     4  H    0.000577
     5  C    0.069997
     6  H   -0.019664
     7  H   -0.054673
     8  C   -0.991966
     9  H    0.046063
    10  H    0.045718
    11  O    0.962325
    12  O    0.949855
 Sum of Mulliken atomic spin densities =   1.00000
 Electronic spatial extent (au):  <R**2>=            685.2394
 Charge=              0.0000 electrons
 Dipole moment (field-independent basis, Debye):
    X=             -1.1535    Y=              0.3410    Z=             -0.0043  Tot=              1.2028
 Quadrupole moment (field-independent basis, Debye-Ang):
   XX=            -31.7714   YY=            -30.0919   ZZ=            -30.2105
   XY=              0.2033   XZ=              0.0359   YZ=             -0.0869
 Traceless Quadrupole moment (field-independent basis, Debye-Ang):
   XX=             -1.0801   YY=              0.5994   ZZ=              0.4807
   XY=              0.2033   XZ=              0.0359   YZ=             -0.0869
 Octapole moment (field-independent basis, Debye-Ang**2):
  XXX=             13.4909  YYY=             -0.2467  ZZZ=             -0.4014  XYY=              7.5428
  XXY=             -0.3533  XXZ=             -2.2136  XZZ=              5.9887  YZZ=             -0.5011
  YYZ=             -1.4822  XYZ=              0.2377
 Hexadecapole moment (field-independent basis, Debye-Ang**3):
 XXXX=           -602.3006 YYYY=           -168.2403 ZZZZ=            -68.9954 XXXY=             -1.9296
 XXXZ=             -1.7672 YYYX=             -3.5923 YYYZ=             -1.6267 ZZZX=             -0.4967
 ZZZY=             -0.3690 XXYY=           -127.6764 XXZZ=           -111.4605 YYZZ=            -41.3775
 XXYZ=              0.6257 YYXZ=              1.2560 ZZXY=             -0.6457
 N-N= 1.614320293165D+02 E-N=-1.416319746649D+03  KE= 3.968834379446D+02
                          Isotropic Fermi Contact Couplings
        Atom                 a.u.       MegaHertz       Gauss      10(-4) cm-1
     1  C(13)             -0.00867      -9.74879      -3.47861      -3.25185
     2  H(1)               0.00045       2.02283       0.72180       0.67474
     3  H(1)               0.00028       1.27324       0.45432       0.42471
     4  H(1)               0.00029       1.29315       0.46143       0.43135
     5  C(13)              0.02311      25.97719       9.26931       8.66506
     6  H(1)              -0.01059     -47.33207     -16.88926     -15.78828
     7  H(1)              -0.02865    -128.04116     -45.68827     -42.70993
     8  C(13)             -0.11478    -129.02979     -46.04104     -43.03971
     9  H(1)               0.01385      61.90408      22.08892      20.64898
    10  H(1)               0.01374      61.42970      21.91964      20.49074
    11  O(17)              0.11185     -67.80438     -24.19429     -22.61711
    12  O(17)              0.13210     -80.08093     -28.57487     -26.71212
 --------------------------------------------------------
       Center         ----  Spin Dipole Couplings  ----
                      3XX-RR        3YY-RR        3ZZ-RR
 --------------------------------------------------------
     1   Atom        0.012699     -0.015898      0.003200
     2   Atom        0.015622     -0.013931     -0.001691
     3   Atom        0.004385     -0.005032      0.000647
     4   Atom        0.006230     -0.007247      0.001017
     5   Atom       -0.001710     -0.001586      0.003296
     6   Atom        0.011969      0.000622     -0.012591
     7   Atom       -0.008174      0.003516      0.004658
     8   Atom       -0.352111      0.073956      0.278155
     9   Atom        0.019519     -0.046443      0.026924
    10   Atom        0.028536      0.036816     -0.065351
    11   Atom       -0.646637      1.083879     -0.437242
    12   Atom       -0.650853      1.182898     -0.532045
 --------------------------------------------------------
                        XY            XZ            YZ
 --------------------------------------------------------
     1   Atom       -0.009027      0.000035      0.004411
     2   Atom        0.007565     -0.002570     -0.002275
     3   Atom       -0.001903     -0.000691     -0.001146
     4   Atom       -0.003721     -0.000262      0.003514
     5   Atom       -0.007130     -0.002440     -0.009008
     6   Atom       -0.006175     -0.005284     -0.008065
     7   Atom       -0.004582     -0.007251     -0.003042
     8   Atom        0.586804      0.415474     -0.287632
     9   Atom       -0.025244      0.033005      0.035650
    10   Atom        0.023287     -0.024828      0.019414
    11   Atom        0.326247     -1.637145      0.272517
    12   Atom        0.438895     -1.548364      0.150220
 --------------------------------------------------------


 ---------------------------------------------------------------------------------
              Anisotropic Spin Dipole Couplings in Principal Axis System
 ---------------------------------------------------------------------------------

       Atom             a.u.   MegaHertz   Gauss  10(-4) cm-1        Axes

              Baa    -0.0193    -2.591    -0.925    -0.864  0.2669  0.9457 -0.1857
     1 C(13)  Bbb     0.0039     0.521     0.186     0.174  0.1494  0.1498  0.9774
              Bcc     0.0154     2.071     0.739     0.691  0.9521 -0.2886 -0.1014
 
              Baa    -0.0159    -8.505    -3.035    -2.837 -0.2227  0.9681  0.1144
     2 H(1)   Bbb    -0.0020    -1.054    -0.376    -0.352  0.1758 -0.0755  0.9815
              Bcc     0.0179     9.559     3.411     3.189  0.9589  0.2387 -0.1534
 
              Baa    -0.0057    -3.017    -1.076    -1.006  0.1956  0.9608  0.1963
     3 H(1)   Bbb     0.0008     0.451     0.161     0.151  0.0749 -0.2142  0.9739
              Bcc     0.0048     2.565     0.915     0.856  0.9778 -0.1758 -0.1139
 
              Baa    -0.0093    -4.959    -1.770    -1.654  0.2166  0.9257 -0.3100
     4 H(1)   Bbb     0.0019     1.004     0.358     0.335  0.2688  0.2487  0.9305
              Bcc     0.0074     3.956     1.411     1.319  0.9385 -0.2849 -0.1950
 
              Baa    -0.0131    -1.754    -0.626    -0.585  0.5399  0.7008  0.4662
     5 C(13)  Bbb     0.0023     0.309     0.110     0.103  0.8080 -0.2763 -0.5203
              Bcc     0.0108     1.445     0.516     0.482  0.2358 -0.6576  0.7155
 
              Baa    -0.0183    -9.743    -3.477    -3.250  0.2418  0.4470  0.8612
     6 H(1)   Bbb     0.0035     1.848     0.659     0.616  0.2809  0.8173 -0.5031
              Bcc     0.0148     7.895     2.817     2.633  0.9288 -0.3635 -0.0721
 
              Baa    -0.0132    -7.046    -2.514    -2.350  0.8616  0.3093  0.4024
     7 H(1)   Bbb     0.0050     2.683     0.957     0.895 -0.3893  0.9115  0.1328
              Bcc     0.0082     4.362     1.557     1.455 -0.3257 -0.2711  0.9058
 
              Baa    -0.9682  -129.926   -46.361   -43.339  0.7593 -0.5312 -0.3757
     8 C(13)  Bbb     0.4812    64.574    23.042    21.540 -0.0652 -0.6366  0.7684
              Bcc     0.4870    65.352    23.319    21.799  0.6474  0.5590  0.5180
 
              Baa    -0.0750   -40.037   -14.286   -13.355  0.3662  0.8351 -0.4105
     9 H(1)   Bbb     0.0174     9.271     3.308     3.092  0.7106 -0.5358 -0.4560
              Bcc     0.0577    30.767    10.978    10.263  0.6007  0.1248  0.7897
 
              Baa    -0.0769   -41.034   -14.642   -13.687  0.2686 -0.2153  0.9389
    10 H(1)   Bbb     0.0206    10.974     3.916     3.660  0.7131 -0.6109 -0.3441
              Bcc     0.0563    30.060    10.726    10.027  0.6476  0.7619 -0.0106
 
              Baa    -2.2367   161.844    57.750    53.985  0.7241 -0.1268  0.6780
    11 O(17)  Bbb     1.0870   -78.657   -28.067   -26.237 -0.5778  0.4254  0.6966
              Bcc     1.1496   -83.187   -29.683   -27.748  0.3767  0.8961 -0.2348
 
              Baa    -2.1935   158.719    56.635    52.943  0.7203 -0.1240  0.6825
    12 O(17)  Bbb     0.8579   -62.077   -22.150   -20.707 -0.5704  0.4539  0.6845
              Bcc     1.3356   -96.643   -34.484   -32.236  0.3947  0.8824 -0.2562
 

 ---------------------------------------------------------------------------------

 No NMR shielding tensors so no spin-rotation constants.
 Leave Link  601 at Wed Apr  1 00:21:42 2015, MaxMem= 3758096384 cpu:       4.5
 (Enter /share/apps/g09/l701.exe)
 Compute integral first derivatives.
 ... and contract with generalized density number  0.
 Leave Link  701 at Wed Apr  1 00:21:43 2015, MaxMem= 3758096384 cpu:       4.3
 (Enter /share/apps/g09/l702.exe)
 L702 exits ... SP integral derivatives will be done elsewhere.
 Leave Link  702 at Wed Apr  1 00:21:43 2015, MaxMem= 3758096384 cpu:       0.2
 (Enter /share/apps/g09/l703.exe)
 Compute integral first derivatives, UseDBF=F ICtDFT=           0.
 Integral derivatives from FoFDir, PRISM(SPDF).
 Calling FoFJK, ICntrl=      2127 FMM=F ISym2X=0 I1Cent= 0 IOpClX= 1 NMat=1 NMatS=1 NMatT=0.
 FoFCou: FMM=F IPFlag=           0 FMFlag=      100000 FMFlg1=         800
         NFxFlg=           0 DoJE=F BraDBF=F KetDBF=F FulRan=T
         Omega=  0.000000  0.000000  1.000000  0.000000  0.000000 ICntrl=    2127 IOpCl=  1
         NMat0=    1 NMatS0=    1 NMatT0=    0 NMatD0=    1 NMtDS0=    0 NMtDT0=    0
         I1Cent=           0 NGrid=           0.
 Symmetry not used in FoFCou.
 Leave Link  703 at Wed Apr  1 00:21:44 2015, MaxMem= 3758096384 cpu:      12.2
 (Enter /share/apps/g09/l716.exe)
 Dipole        =-4.53816483D-01 1.34153948D-01-1.67369414D-03
 ***** Axes restored to original set *****
 -------------------------------------------------------------------
 Center     Atomic                   Forces (Hartrees/Bohr)
 Number     Number              X              Y              Z
 -------------------------------------------------------------------
      1        6          -0.000066320    0.000075944   -0.000084316
      2        1           0.000084693   -0.000036990    0.000002660
      3        1          -0.000001299   -0.000052381   -0.000000460
      4        1           0.000015340    0.000001137    0.000002785
      5        6           0.000059853    0.000056727   -0.000034651
      6        1          -0.000077444   -0.000082327   -0.000053397
      7        1          -0.000122529   -0.000090003   -0.000033262
      8        6           0.001685395   -0.000774086   -0.000465771
      9        1           0.000171206   -0.000038777   -0.000124246
     10        1           0.000121403   -0.000126438    0.000036389
     11        8           0.000271618    0.000698156    0.002765148
     12        8          -0.002141915    0.000369038   -0.002010880
 -------------------------------------------------------------------
 Cartesian Forces:  Max     0.002765148 RMS     0.000759871
 Leave Link  716 at Wed Apr  1 00:21:44 2015, MaxMem= 3758096384 cpu:       0.2
 (Enter /share/apps/g09/l103.exe)

 GradGradGradGradGradGradGradGradGradGradGradGradGradGradGradGradGradGrad
 Berny optimization.
 Internal  Forces:  Max     0.002099084 RMS     0.000282376
 Search for a local minimum.
 Step number   1 out of a maximum of  100
 All quantities printed in internal units (Hartrees-Bohrs-Radians)
 RMS Force = .27324D-03 SwitMx=.10000D-02 MixMth= 2
 Mixed Optimization -- En-DIIS/RFO-DIIS
 Second derivative matrix not updated -- first step.
     Eigenvalues ---    0.00370   0.00505   0.01017   0.01940   0.02212
     Eigenvalues ---    0.02601   0.03120   0.03563   0.03939   0.04862
     Eigenvalues ---    0.06617   0.07969   0.09524   0.10521   0.11253
     Eigenvalues ---    0.11679   0.13649   0.14436   0.16857   0.27111
     Eigenvalues ---    0.27428   0.30544   0.31295   0.31887   0.32325
     Eigenvalues ---    0.32939   0.34056   0.34195   0.724021000.00000
     Eigenvalues --- 1000.000001000.000001000.000001000.000001000.00000
     Eigenvalues --- 1000.000001000.000001000.000001000.000001000.00000
     Eigenvalues --- 1000.000001000.000001000.000001000.000001000.00000
     Eigenvalues --- 1000.000001000.000001000.000001000.000001000.00000
     Eigenvalues --- 1000.000001000.000001000.000001000.000001000.00000
     Eigenvalues --- 1000.000001000.000001000.000001000.000001000.00000
     Eigenvalues --- 1000.000001000.000001000.000001000.000001000.00000
     Eigenvalues --- 1000.000001000.000001000.000001000.000001000.00000
     Eigenvalues --- 1000.000001000.000001000.000001000.000001000.00000
     Eigenvalues --- 1000.000001000.000001000.000001000.000001000.00000
     Eigenvalues --- 1000.000001000.000001000.000001000.000001000.00000
     Eigenvalues --- 1000.000001000.000001000.000001000.000001000.00000
     Eigenvalues --- 1000.00000
 RFO step:  Lambda=-1.16910806D-05 EMin= 3.70252553D-03
 Linear search not attempted -- first point.
 Iteration  1 RMS(Cart)=  0.00071170 RMS(Int)=  0.00000116
 Iteration  2 RMS(Cart)=  0.00000068 RMS(Int)=  0.00000074
 Iteration  1 RMS(Cart)=  0.00000001 RMS(Int)=  0.00000003
 Variable       Old X    -DE/DX   Delta X   Delta X   Delta X     New X
                                 (Linear)    (Quad)   (Total)
    R1        2.06932   0.00002   0.00000   0.00021   0.00021   2.06953
    R2        2.07003   0.00003   0.00000   0.00008   0.00008   2.07011
    R3        2.07236   0.00000   0.00000   0.00001   0.00001   2.07237
    R4        2.89919  -0.00001   0.00000  -0.00008  -0.00008   2.89911
    R5        5.62258  -0.00005   0.00000  -0.00089  -0.00089   5.62170
    R6        2.07829  -0.00006   0.00000   0.00007   0.00007   2.07836
    R7        2.09159   0.00006   0.00000   0.00020   0.00020   2.09179
    R8        2.81489   0.00012   0.00000   0.00064   0.00064   2.81553
    R9        6.36307  -0.00011   0.00000   0.00054   0.00054   6.36360
   R10        6.22403   0.00006   0.00000   0.00200   0.00200   6.22603
   R11        2.05148   0.00010   0.00000   0.00016   0.00016   2.05164
   R12        2.05277   0.00017   0.00000   0.00023   0.00023   2.05300
   R13        5.21887  -0.00041   0.00000   0.00000   0.00000   5.21887
   R14        6.59592  -0.00102   0.00000  -0.00136  -0.00136   6.59456
   R15        5.64046  -0.00026   0.00000  -0.00349  -0.00349   5.63697
   R16        5.62408  -0.00023   0.00000  -0.00475  -0.00475   5.61933
   R17        6.31710  -0.00018   0.00000  -0.00566  -0.00565   6.31144
   R18        2.31376  -0.00210   0.00000  -0.00312  -0.00312   2.31064
    A1        1.88801  -0.00001   0.00000  -0.00014  -0.00014   1.88787
    A2        1.88155  -0.00001   0.00000  -0.00024  -0.00024   1.88132
    A3        1.93356   0.00000   0.00000   0.00013   0.00013   1.93369
    A4        1.88121  -0.00001   0.00000  -0.00001  -0.00001   1.88120
    A5        1.94024   0.00002   0.00000   0.00044   0.00044   1.94068
    A6        1.93705   0.00002   0.00000  -0.00020  -0.00020   1.93686
    A7        2.08998  -0.00003   0.00000   0.00020   0.00020   2.09018
    A8        1.92088  -0.00005   0.00000  -0.00067  -0.00067   1.92022
    A9        1.90134  -0.00007   0.00000  -0.00041  -0.00041   1.90093
   A10        1.98649   0.00005   0.00000  -0.00003  -0.00003   1.98645
   A11        1.53142   0.00001   0.00000  -0.00033  -0.00033   1.53109
   A12        1.82818  -0.00004   0.00000  -0.00031  -0.00031   1.82786
   A13        1.91176  -0.00003   0.00000   0.00071   0.00071   1.91247
   A14        1.90844   0.00013   0.00000   0.00069   0.00069   1.90913
   A15        2.80977   0.00006   0.00000   0.00075   0.00075   2.81052
   A16        2.10649   0.00013   0.00000   0.00016   0.00016   2.10664
   A17        2.10565  -0.00021   0.00000   0.00018   0.00017   2.10582
   A18        1.99079  -0.00016   0.00000  -0.00044  -0.00044   1.99035
   A19        2.04508   0.00004   0.00000   0.00072   0.00071   2.04580
   A20        1.63389  -0.00005   0.00000  -0.00151  -0.00151   1.63238
   A21        0.69063   0.00001   0.00000   0.00003   0.00003   0.69066
   A22        0.82644  -0.00002   0.00000  -0.00018  -0.00018   0.82626
   A23        1.02353   0.00006   0.00000   0.00015   0.00015   1.02368
   A24        1.37064   0.00010   0.00000   0.00036   0.00036   1.37099
   A25        1.03868   0.00003   0.00000   0.00013   0.00013   1.03881
   A26        2.00936   0.00028   0.00000  -0.00032  -0.00032   2.00903
   A27        0.71341   0.00008   0.00000   0.00024   0.00024   0.71365
   A28        0.71400   0.00002   0.00000   0.00029   0.00029   0.71430
   A29        2.35179   0.00050   0.00000   0.00024   0.00024   2.35202
   A30        0.69684   0.00001   0.00000   0.00009   0.00009   0.69693
   A31        0.81802   0.00007   0.00000   0.00021   0.00021   0.81823
   A32        1.02219   0.00002   0.00000   0.00034   0.00034   1.02253
   A33        2.68276   0.00049   0.00000   0.00018   0.00018   2.68295
   A34        0.63238   0.00008   0.00000   0.00068   0.00068   0.63306
   A35        2.05944   0.00042   0.00000   0.00085   0.00085   2.06029
    D1        2.42102   0.00007   0.00000   0.00049   0.00049   2.42152
    D2       -1.83231   0.00004   0.00000   0.00028   0.00028  -1.83202
    D3        0.29029   0.00005   0.00000  -0.00004  -0.00004   0.29026
    D4        1.08737   0.00005   0.00000   0.00084   0.00084   1.08821
    D5        3.08257  -0.00006   0.00000  -0.00012  -0.00012   3.08245
    D6       -1.06615   0.00009   0.00000   0.00045   0.00045  -1.06571
    D7       -0.22157  -0.00005   0.00000   0.00010   0.00010  -0.22147
    D8       -1.01252   0.00006   0.00000   0.00064   0.00064  -1.01188
    D9        0.98268  -0.00006   0.00000  -0.00032  -0.00032   0.98236
   D10        3.11714   0.00009   0.00000   0.00025   0.00025   3.11739
   D11       -2.32147  -0.00004   0.00000  -0.00010  -0.00010  -2.32156
   D12       -3.10617   0.00004   0.00000   0.00050   0.00050  -3.10567
   D13       -1.11096  -0.00007   0.00000  -0.00046  -0.00046  -1.11142
   D14        1.02350   0.00008   0.00000   0.00011   0.00010   1.02360
   D15        1.86808  -0.00006   0.00000  -0.00024  -0.00024   1.86784
   D16       -0.19259  -0.00004   0.00000   0.00006   0.00006  -0.19253
   D17       -0.63485  -0.00005   0.00000  -0.00004  -0.00004  -0.63489
   D18        0.21558  -0.00008   0.00000  -0.00002  -0.00002   0.21556
   D19        0.07022  -0.00007   0.00000  -0.00027  -0.00027   0.06996
   D20        0.65167  -0.00003   0.00000   0.00040   0.00040   0.65207
   D21        2.08985   0.00043   0.00000   0.00082   0.00082   2.09067
   D22        2.88544   0.00003   0.00000  -0.00269  -0.00269   2.88275
   D23       -0.50586  -0.00016   0.00000   0.00239   0.00239  -0.50347
   D24        0.96200   0.00014   0.00000  -0.00040  -0.00040   0.96160
   D25        0.72696   0.00008   0.00000  -0.00234  -0.00234   0.72463
   D26       -2.66433  -0.00011   0.00000   0.00274   0.00274  -2.66160
   D27       -1.19648   0.00019   0.00000  -0.00005  -0.00005  -1.19652
   D28       -1.26720   0.00007   0.00000  -0.00273  -0.00273  -1.26993
   D29        1.62469  -0.00013   0.00000   0.00234   0.00234   1.62703
   D30        3.09254   0.00018   0.00000  -0.00044  -0.00044   3.09210
   D31        0.11899   0.00003   0.00000  -0.00003  -0.00003   0.11895
   D32       -2.62299  -0.00006   0.00000  -0.00064  -0.00064  -2.62362
   D33       -1.63308   0.00001   0.00000   0.00016   0.00016  -1.63293
   D34       -1.18789   0.00018   0.00000   0.00096   0.00096  -1.18692
   D35        2.77140  -0.00004   0.00000  -0.00055  -0.00055   2.77085
   D36        0.02943  -0.00012   0.00000  -0.00115  -0.00115   0.02828
   D37        1.01933  -0.00005   0.00000  -0.00036  -0.00036   1.01897
   D38        1.46453   0.00012   0.00000   0.00045   0.00045   1.46498
         Item               Value     Threshold  Converged?
 Maximum Force            0.002224     0.000450     NO 
 RMS     Force            0.000273     0.000300     YES
 Maximum Displacement     0.002983     0.001800     NO 
 RMS     Displacement     0.000712     0.001200     YES
 Predicted change in Energy=-5.846857D-06
 GradGradGradGradGradGradGradGradGradGradGradGradGradGradGradGradGradGrad

 Leave Link  103 at Wed Apr  1 00:21:44 2015, MaxMem= 3758096384 cpu:       0.6
 (Enter /share/apps/g09/l202.exe)
                          Input orientation:                          
 ---------------------------------------------------------------------
 Center     Atomic      Atomic             Coordinates (Angstroms)
 Number     Number       Type             X           Y           Z
 ---------------------------------------------------------------------
      1          6           0       -1.766092   -1.059094    0.178831
      2          1           0       -0.828668   -1.606153    0.032824
      3          1           0       -2.562768   -1.601546   -0.341812
      4          1           0       -1.997706   -1.071246    1.250674
      5          6           0       -1.643706    0.379367   -0.340254
      6          1           0       -1.447945    0.373745   -1.422497
      7          1           0       -2.623312    0.883732   -0.234066
      8          6           0       -0.596676    1.181833    0.352294
      9          1           0       -0.246921    2.118953   -0.069815
     10          1           0       -0.329516    0.971248    1.384062
     11          8           0        1.683128   -0.110692   -0.518853
     12          8           0        2.574745   -0.273327    0.301915
 ---------------------------------------------------------------------
                    Distance matrix (angstroms):
                    1          2          3          4          5
     1  C    0.000000
     2  H    1.095150   0.000000
     3  H    1.095453   1.774112   0.000000
     4  H    1.096650   1.770857   1.771024   0.000000
     5  C    1.534144   2.178477   2.183735   2.181890   0.000000
     6  H    2.172210   2.534060   2.512466   3.088055   1.099821
     7  H    2.163304   3.080828   2.488349   2.533333   1.106927
     8  C    2.533648   2.815803   3.477715   2.801131   1.489914
     9  H    3.531244   3.771655   4.390814   3.871215   2.247288
    10  H    2.763805   2.952625   3.819074   2.640536   2.247372
    11  O    3.644632   2.974873   4.503512   4.195525   3.367474
    12  O    4.413099   3.664977   5.345333   4.737523   4.316679
                    6          7          8          9         10
     6  H    0.000000
     7  H    1.747553   0.000000
     8  C    2.127804   2.130712   0.000000
     9  H    2.513555   2.683278   1.085679   0.000000
    10  H    3.079719   2.808469   1.086400   1.854133   0.000000
    11  O    3.294673   4.428928   2.761707   2.982958   2.973620
    12  O    4.424289   5.352182   3.489691   3.717928   3.339872
                   11         12
    11  O    0.000000
    12  O    1.222739   0.000000
 Stoichiometry    C3H7O2(2)
 Framework group  C1[X(C3H7O2)]
 Deg. of freedom    30
 Full point group                 C1      NOp   1
 Largest Abelian subgroup         C1      NOp   1
 Largest concise Abelian subgroup C1      NOp   1
                         Standard orientation:                         
 ---------------------------------------------------------------------
 Center     Atomic      Atomic             Coordinates (Angstroms)
 Number     Number       Type             X           Y           Z
 ---------------------------------------------------------------------
      1          6           0       -1.765808   -1.059276    0.178609
      2          1           0       -0.828398   -1.606358    0.032602
      3          1           0       -2.562497   -1.601709   -0.342034
      4          1           0       -1.997423   -1.071422    1.250452
      5          6           0       -1.643387    0.379183   -0.340476
      6          1           0       -1.447627    0.373555   -1.422719
      7          1           0       -2.622981    0.883571   -0.234288
      8          6           0       -0.596338    1.181622    0.352072
      9          1           0       -0.246560    2.118734   -0.070037
     10          1           0       -0.329183    0.971031    1.383840
     11          8           0        1.683435   -0.110958   -0.519074
     12          8           0        2.575048   -0.273615    0.301693
 ---------------------------------------------------------------------
 Rotational constants (GHZ):      8.3181000      1.9472837      1.7378729
 Leave Link  202 at Wed Apr  1 00:21:44 2015, MaxMem= 3758096384 cpu:       0.5
 (Enter /share/apps/g09/l301.exe)
 Standard basis: 6-31G(d) (6D, 7F)
 Ernie: Thresh=  0.10000D-02 Tol=  0.10000D-05 Strict=F.
 There are    89 symmetry adapted basis functions of A   symmetry.
 Integral buffers will be    131072 words long.
 Raffenetti 2 integral format.
 Two-electron integral symmetry is turned on.
    89 basis functions,   168 primitive gaussians,    89 cartesian basis functions
    21 alpha electrons       20 beta electrons
       nuclear repulsion energy       161.4724550282 Hartrees.
 IExCor=  402 DFT=T Ex+Corr=B3LYP ExCW=0 ScaHFX=  0.200000
 ScaDFX=  0.800000  0.720000  1.000000  0.810000 ScalE2=  1.000000  1.000000
 IRadAn=      0 IRanWt=     -1 IRanGd=            0 ICorTp=0
 NAtoms=   12 NActive=   12 NUniq=   12 SFac= 7.50D-01 NAtFMM=   80 NAOKFM=F Big=F
 Leave Link  301 at Wed Apr  1 00:21:44 2015, MaxMem= 3758096384 cpu:       0.4
 (Enter /share/apps/g09/l302.exe)
 NPDir=0 NMtPBC=     1 NCelOv=     1 NCel=       1 NClECP=     1 NCelD=      1
         NCelK=      1 NCelE2=     1 NClLst=     1 CellRange=     0.0.
 One-electron integrals computed using PRISM.
 NBasis=    89 RedAO= T  NBF=    89
 NBsUse=    89 1.00D-06 NBFU=    89
 Precomputing XC quadrature grid using
 IXCGrd= 2 IRadAn=           0 IRanWt=          -1 IRanGd=           0 AccXCQ= 1.00D-10.
 NRdTot=     743 NPtTot=       94340 NUsed=       99710 NTot=       99742
 NSgBfM=    89    89    89    89    89 NAtAll=    12    12.
 Leave Link  302 at Wed Apr  1 00:21:45 2015, MaxMem= 3758096384 cpu:       3.7
 (Enter /share/apps/g09/l303.exe)
 DipDrv:  MaxL=1.
 Leave Link  303 at Wed Apr  1 00:21:45 2015, MaxMem= 3758096384 cpu:       0.9
 (Enter /share/apps/g09/l401.exe)
 Initial guess read from the read-write file.
 B after Tr=     0.000000    0.000000    0.000000
         Rot=    1.000000    0.000000    0.000000    0.000000 Ang=   0.00 deg.
 Guess basis will be translated and rotated to current coordinates.
 Initial guess orbital symmetries:
 Alpha Orbitals:
       Occupied  (A) (A) (A) (A) (A) (A) (A) (A) (A) (A) (A) (A)
                 (A) (A) (A) (A) (A) (A) (A) (A) (A)
       Virtual   (A) (A) (A) (A) (A) (A) (A) (A) (A) (A) (A) (A)
                 (A) (A) (A) (A) (A) (A) (A) (A) (A) (A) (A) (A)
                 (A) (A) (A) (A) (A) (A) (A) (A) (A) (A) (A) (A)
                 (A) (A) (A) (A) (A) (A) (A) (A) (A) (A) (A) (A)
                 (A) (A) (A) (A) (A) (A) (A) (A) (A) (A) (A) (A)
                 (A) (A) (A) (A) (A) (A) (A) (A)
 Beta  Orbitals:
       Occupied  (A) (A) (A) (A) (A) (A) (A) (A) (A) (A) (A) (A)
                 (A) (A) (A) (A) (A) (A) (A) (A)
       Virtual   (A) (A) (A) (A) (A) (A) (A) (A) (A) (A) (A) (A)
                 (A) (A) (A) (A) (A) (A) (A) (A) (A) (A) (A) (A)
                 (A) (A) (A) (A) (A) (A) (A) (A) (A) (A) (A) (A)
                 (A) (A) (A) (A) (A) (A) (A) (A) (A) (A) (A) (A)
                 (A) (A) (A) (A) (A) (A) (A) (A) (A) (A) (A) (A)
                 (A) (A) (A) (A) (A) (A) (A) (A) (A)
 The electronic state of the initial guess is 2-A.
 Initial guess <Sx>= 0.0000 <Sy>= 0.0000 <Sz>= 0.5000 <S**2>= 1.6292 S= 0.8709
 Leave Link  401 at Wed Apr  1 00:21:46 2015, MaxMem= 3758096384 cpu:       7.1
 (Enter /share/apps/g09/l502.exe)
 UHF open shell SCF:
 Requested convergence on RMS density matrix=1.00D-08 within 128 cycles.
 Requested convergence on MAX density matrix=1.00D-06.
 Requested convergence on             energy=1.00D-06.
 No special actions if energy rises.
 Using DIIS extrapolation, IDIIS=  1040.
 Integral symmetry usage will be decided dynamically.
        99589 words used for storage of precomputed grid.
 Keep R1 and R2 ints in memory in canonical form, NReq=17096782.
 IEnd=      143247 IEndB=      143247 NGot=  3758096384 MDV=  3741933730
 LenX=  3741933730 LenY=  3741925368
 Symmetry not used in FoFDir.
 MinBra= 0 MaxBra= 2 Meth= 1.
 IRaf=       0 NMat=   1 IRICut=       1 DoRegI=T DoRafI=F ISym2E= 0 JSym2E=0.

 Cycle   1  Pass 1  IDiag  1:
 E= -268.794670219458    
 DIIS: error= 2.71D-04 at cycle   1 NSaved=   1.
 NSaved= 1 IEnMin= 1 EnMin= -268.794670219458     IErMin= 1 ErrMin= 2.71D-04
 ErrMax= 2.71D-04 EMaxC= 1.00D-01 BMatC= 9.75D-06 BMatP= 9.75D-06
 IDIUse=3 WtCom= 9.97D-01 WtEn= 2.71D-03
 Coeff-Com:  0.100D+01
 Coeff-En:   0.100D+01
 Coeff:      0.100D+01
 Gap=     0.241 Goal=   None    Shift=    0.000
 Gap=     0.106 Goal=   None    Shift=    0.000
 RMSDP=2.41D-05 MaxDP=3.10D-04              OVMax= 1.10D-03

 Cycle   2  Pass 1  IDiag  1:
 E= -268.794673855335     Delta-E=       -0.000003635877 Rises=F Damp=F
 DIIS: error= 3.08D-05 at cycle   2 NSaved=   2.
 NSaved= 2 IEnMin= 2 EnMin= -268.794673855335     IErMin= 2 ErrMin= 3.08D-05
 ErrMax= 3.08D-05 EMaxC= 1.00D-01 BMatC= 2.56D-07 BMatP= 9.75D-06
 IDIUse=1 WtCom= 1.00D+00 WtEn= 0.00D+00
 Coeff-Com: -0.221D-02 0.100D+01
 Coeff:     -0.221D-02 0.100D+01
 Gap=     0.241 Goal=   None    Shift=    0.000
 Gap=     0.106 Goal=   None    Shift=    0.000
 RMSDP=7.93D-06 MaxDP=1.98D-04 DE=-3.64D-06 OVMax= 4.88D-04

 Cycle   3  Pass 1  IDiag  1:
 E= -268.794673927134     Delta-E=       -0.000000071799 Rises=F Damp=F
 DIIS: error= 2.43D-05 at cycle   3 NSaved=   3.
 NSaved= 3 IEnMin= 3 EnMin= -268.794673927134     IErMin= 3 ErrMin= 2.43D-05
 ErrMax= 2.43D-05 EMaxC= 1.00D-01 BMatC= 2.13D-07 BMatP= 2.56D-07
 IDIUse=1 WtCom= 1.00D+00 WtEn= 0.00D+00
 Coeff-Com: -0.326D-01 0.481D+00 0.552D+00
 Coeff:     -0.326D-01 0.481D+00 0.552D+00
 Gap=     0.241 Goal=   None    Shift=    0.000
 Gap=     0.106 Goal=   None    Shift=    0.000
 RMSDP=2.62D-06 MaxDP=7.24D-05 DE=-7.18D-08 OVMax= 1.21D-04

 Cycle   4  Pass 1  IDiag  1:
 E= -268.794673959329     Delta-E=       -0.000000032195 Rises=F Damp=F
 DIIS: error= 2.68D-05 at cycle   4 NSaved=   4.
 NSaved= 4 IEnMin= 4 EnMin= -268.794673959329     IErMin= 3 ErrMin= 2.43D-05
 ErrMax= 2.68D-05 EMaxC= 1.00D-01 BMatC= 8.07D-08 BMatP= 2.13D-07
 IDIUse=1 WtCom= 1.00D+00 WtEn= 0.00D+00
 Coeff-Com: -0.216D-01 0.207D+00 0.383D+00 0.431D+00
 Coeff:     -0.216D-01 0.207D+00 0.383D+00 0.431D+00
 Gap=     0.241 Goal=   None    Shift=    0.000
 Gap=     0.106 Goal=   None    Shift=    0.000
 RMSDP=1.19D-06 MaxDP=4.08D-05 DE=-3.22D-08 OVMax= 7.71D-05

 Cycle   5  Pass 1  IDiag  1:
 E= -268.794673972457     Delta-E=       -0.000000013128 Rises=F Damp=F
 DIIS: error= 9.07D-06 at cycle   5 NSaved=   5.
 NSaved= 5 IEnMin= 5 EnMin= -268.794673972457     IErMin= 5 ErrMin= 9.07D-06
 ErrMax= 9.07D-06 EMaxC= 1.00D-01 BMatC= 1.32D-08 BMatP= 8.07D-08
 IDIUse=1 WtCom= 1.00D+00 WtEn= 0.00D+00
 Coeff-Com:  0.249D-04-0.372D-01 0.494D-01 0.300D+00 0.687D+00
 Coeff:      0.249D-04-0.372D-01 0.494D-01 0.300D+00 0.687D+00
 Gap=     0.241 Goal=   None    Shift=    0.000
 Gap=     0.106 Goal=   None    Shift=    0.000
 RMSDP=9.25D-07 MaxDP=1.95D-05 DE=-1.31D-08 OVMax= 7.61D-05

 Cycle   6  Pass 1  IDiag  1:
 E= -268.794673975424     Delta-E=       -0.000000002967 Rises=F Damp=F
 DIIS: error= 2.43D-06 at cycle   6 NSaved=   6.
 NSaved= 6 IEnMin= 6 EnMin= -268.794673975424     IErMin= 6 ErrMin= 2.43D-06
 ErrMax= 2.43D-06 EMaxC= 1.00D-01 BMatC= 2.03D-09 BMatP= 1.32D-08
 IDIUse=1 WtCom= 1.00D+00 WtEn= 0.00D+00
 Coeff-Com:  0.294D-02-0.552D-01-0.441D-01 0.852D-01 0.394D+00 0.617D+00
 Coeff:      0.294D-02-0.552D-01-0.441D-01 0.852D-01 0.394D+00 0.617D+00
 Gap=     0.241 Goal=   None    Shift=    0.000
 Gap=     0.106 Goal=   None    Shift=    0.000
[...]
 All quantities printed in internal units (Hartrees-Bohrs-Radians)
 Second derivative matrix not updated -- analytic derivatives used.
     Eigenvalues ---    0.00010   0.00014   0.00051   0.00081   0.00110
     Eigenvalues ---    0.00325   0.00506   0.01019   0.01953   0.02430
     Eigenvalues ---    0.02883   0.03828   0.05326   0.07174   0.07954
     Eigenvalues ---    0.08251   0.09392   0.10749   0.12223   0.22712
     Eigenvalues ---    0.25425   0.29064   0.29745   0.30240   0.31290
     Eigenvalues ---    0.32195   0.33657   0.34369   0.574851000.00000
     Eigenvalues --- 1000.000001000.000001000.000001000.000001000.00000
     Eigenvalues --- 1000.000001000.000001000.000001000.000001000.00000
     Eigenvalues --- 1000.000001000.000001000.000001000.000001000.00000
     Eigenvalues --- 1000.000001000.000001000.000001000.000001000.00000
     Eigenvalues --- 1000.000001000.000001000.000001000.000001000.00000
     Eigenvalues --- 1000.000001000.000001000.000001000.000001000.00000
     Eigenvalues --- 1000.000001000.000001000.000001000.000001000.00000
     Eigenvalues --- 1000.000001000.000001000.000001000.000001000.00000
     Eigenvalues --- 1000.000001000.000001000.000001000.000001000.00000
     Eigenvalues --- 1000.000001000.000001000.000001000.000001000.00000
     Eigenvalues --- 1000.000001000.000001000.000001000.000001000.00000
     Eigenvalues --- 1000.000001000.000001000.000001000.000001000.00000
     Eigenvalues --- 1000.00000
 Angle between quadratic step and forces=  80.40 degrees.
 Linear search not attempted -- first point.
 Iteration  1 RMS(Cart)=  0.01185233 RMS(Int)=  0.00026254
 Iteration  2 RMS(Cart)=  0.00016339 RMS(Int)=  0.00012072
 Iteration  3 RMS(Cart)=  0.00000008 RMS(Int)=  0.00012072
 Iteration  1 RMS(Cart)=  0.00000258 RMS(Int)=  0.00000724
 Iteration  2 RMS(Cart)=  0.00000176 RMS(Int)=  0.00000799
 Iteration  3 RMS(Cart)=  0.00000119 RMS(Int)=  0.00000920
 Iteration  4 RMS(Cart)=  0.00000081 RMS(Int)=  0.00001024
 Variable       Old X    -DE/DX   Delta X   Delta X   Delta X     New X
                                 (Linear)    (Quad)   (Total)
    R1        2.06960  -0.00004   0.00000  -0.00007  -0.00008   2.06952
    R2        2.07013  -0.00001   0.00000   0.00000   0.00000   2.07013
    R3        2.07239   0.00001   0.00000   0.00002   0.00002   2.07241
    R4        2.89927   0.00001   0.00000   0.00028   0.00029   2.89956
    R5        5.61710  -0.00002   0.00000  -0.03614  -0.03615   5.58095
    R6        2.07844  -0.00004   0.00000  -0.00025  -0.00015   2.07829
    R7        2.09174   0.00000   0.00000   0.00008   0.00008   2.09182
    R8        2.81553   0.00013   0.00000  -0.00005  -0.00001   2.81552
    R9        6.36385  -0.00029   0.00000  -0.00023  -0.00024   6.36361
   R10        6.22805  -0.00011   0.00000   0.01859   0.01857   6.24662
   R11        2.05149   0.00011   0.00000  -0.00005  -0.00005   2.05144
   R12        2.05281   0.00008   0.00000   0.00008   0.00014   2.05295
   R13        5.21887  -0.00071   0.00000   0.00000  -0.00002   5.21885
   R14        6.59615  -0.00025   0.00000   0.00191   0.00193   6.59808
   R15        5.62706  -0.00043   0.00000  -0.00248  -0.00251   5.62456
   R16        5.60768  -0.00035   0.00000   0.00278   0.00261   5.61029
   R17        6.30109  -0.00001   0.00000  -0.00357  -0.00320   6.29789
   R18        2.30961   0.00034   0.00000   0.00027   0.00016   2.30977
    A1        1.88779   0.00004   0.00000   0.00029   0.00030   1.88809
    A2        1.88119  -0.00001   0.00000   0.00003   0.00001   1.88121
    A3        1.93387  -0.00004   0.00000  -0.00027  -0.00026   1.93361
    A4        1.88114  -0.00001   0.00000   0.00002   0.00002   1.88116
    A5        1.94073  -0.00001   0.00000  -0.00011  -0.00013   1.94059
    A6        1.93688   0.00003   0.00000   0.00006   0.00008   1.93696
    A7        2.09089  -0.00004   0.00000   0.00612   0.00609   2.09698
    A8        1.91996   0.00002   0.00000   0.00020   0.00028   1.92024
    A9        1.90047   0.00000   0.00000  -0.00043  -0.00040   1.90007
   A10        1.98599  -0.00004   0.00000  -0.00031  -0.00035   1.98565
   A11        1.52973   0.00006   0.00000  -0.00966  -0.00968   1.52006
   A12        1.82781  -0.00006   0.00000   0.00048   0.00031   1.82812
   A13        1.91264  -0.00001   0.00000   0.00018   0.00010   1.91274
   A14        1.91023   0.00008   0.00000  -0.00005   0.00012   1.91035
   A15        2.81213  -0.00007   0.00000   0.00585   0.00576   2.81789
   A16        2.10772  -0.00003   0.00000   0.00066   0.00069   2.10841
   A17        2.10628  -0.00008   0.00000  -0.00048  -0.00044   2.10584
   A18        1.98956   0.00015   0.00000  -0.00926  -0.00954   1.98002
   A19        2.04683   0.00003   0.00000  -0.00019  -0.00025   2.04658
   A20        1.62819   0.00009   0.00000   0.01144   0.01146   1.63965
   A21        0.69086   0.00001   0.00000   0.00112   0.00110   0.69196
   A22        0.82631   0.00001   0.00000   0.00012   0.00012   0.82642
   A23        1.02410   0.00004   0.00000   0.00415   0.00412   1.02822
   A24        1.37198   0.00009   0.00000   0.00332   0.00329   1.37527
   A25        1.03923   0.00003   0.00000   0.00652   0.00653   1.04576
   A26        2.00788   0.00007   0.00000  -0.02818  -0.02834   1.97954
   A27        0.71418   0.00007   0.00000   0.00023   0.00025   0.71443
   A28        0.71474   0.00005   0.00000  -0.00017  -0.00014   0.71460
   A29        2.35241   0.00013   0.00000  -0.01367  -0.01396   2.33845
   A30        0.69677   0.00004   0.00000  -0.00198  -0.00198   0.69479
   A31        0.81834   0.00007   0.00000  -0.00274  -0.00273   0.81560
   A32        1.02300   0.00007   0.00000  -0.00151  -0.00149   1.02151
   A33        2.68327   0.00014   0.00000  -0.01435  -0.01501   2.66826
   A34        0.63447   0.00008   0.00000  -0.00005  -0.00004   0.63443
   A35        2.06252   0.00008   0.00000   0.01594   0.01610   2.07862
    D1        2.42284   0.00003   0.00000   0.01156   0.01159   2.43444
    D2       -1.83088   0.00003   0.00000   0.01175   0.01178  -1.81910
    D3        0.29147   0.00004   0.00000   0.01168   0.01172   0.30319
    D4        1.08800   0.00006   0.00000  -0.00065  -0.00063   1.08737
    D5        3.08179   0.00000   0.00000  -0.00021  -0.00034   3.08146
    D6       -1.06561   0.00008   0.00000  -0.00081  -0.00072  -1.06632
    D7       -0.22211  -0.00005   0.00000  -0.00665  -0.00660  -0.22871
    D8       -1.01213   0.00005   0.00000  -0.00076  -0.00074  -1.01288
    D9        0.98166  -0.00001   0.00000  -0.00032  -0.00045   0.98121
   D10        3.11745   0.00007   0.00000  -0.00093  -0.00083   3.11661
   D11       -2.32224  -0.00006   0.00000  -0.00676  -0.00671  -2.32896
   D12       -3.10589   0.00004   0.00000  -0.00075  -0.00074  -3.10663
   D13       -1.11210  -0.00002   0.00000  -0.00032  -0.00044  -1.11255
   D14        1.02368   0.00006   0.00000  -0.00092  -0.00083   1.02286
   D15        1.86718  -0.00006   0.00000  -0.00675  -0.00671   1.86047
   D16       -0.19326  -0.00004   0.00000  -0.00740  -0.00742  -0.20068
   D17       -0.63561  -0.00004   0.00000  -0.00720  -0.00722  -0.64283
   D18        0.21433  -0.00002   0.00000  -0.01276  -0.01278   0.20155
   D19        0.06827  -0.00003   0.00000  -0.01533  -0.01535   0.05292
   D20        0.65165   0.00002   0.00000  -0.01450  -0.01449   0.63716
   D21        2.09185   0.00009   0.00000   0.00357   0.00361   2.09546
   D22        2.87532   0.00019   0.00000  -0.01520  -0.01523   2.86009
   D23       -0.49804  -0.00022   0.00000  -0.01531  -0.01524  -0.51327
   D24        0.95971  -0.00003   0.00000  -0.02377  -0.02359   0.93611
   D25        0.71773   0.00019   0.00000  -0.01538  -0.01542   0.70231
   D26       -2.65563  -0.00022   0.00000  -0.01549  -0.01542  -2.67105
   D27       -1.19788  -0.00003   0.00000  -0.02395  -0.02378  -1.22167
   D28       -1.27746   0.00022   0.00000  -0.01602  -0.01590  -1.29337
   D29        1.63237  -0.00019   0.00000  -0.01613  -0.01591   1.61646
   D30        3.09011   0.00000   0.00000  -0.02459  -0.02427   3.06584
   D31        0.11936   0.00002   0.00000   0.00415   0.00414   0.12350
   D32       -2.62489   0.00000   0.00000  -0.00811  -0.00812  -2.63301
   D33       -1.63248   0.00006   0.00000  -0.00823  -0.00824  -1.64072
   D34       -1.18381   0.00007   0.00000   0.04030   0.04015  -1.14367
   D35        2.76874  -0.00003   0.00000  -0.02618  -0.02624   2.74250
   D36        0.02450  -0.00005   0.00000  -0.03844  -0.03850  -0.01401
   D37        1.01690   0.00001   0.00000  -0.03855  -0.03863   0.97828
   D38        1.46557   0.00002   0.00000   0.00998   0.00977   1.47534
         Item               Value     Threshold  Converged?
 Maximum Force            0.000126     0.000450     YES
 RMS     Force            0.000017     0.000300     YES
 Maximum Displacement     0.063013     0.001800     NO 
 RMS     Displacement     0.011911     0.001200     NO 
 Predicted change in Energy=-1.390086D-06
 GradGradGradGradGradGradGradGradGradGradGradGradGradGradGradGradGradGrad

 Leave Link  103 at Wed Apr  1 00:22:41 2015, MaxMem= 3758096384 cpu:       6.6
 (Enter /share/apps/g09/l9999.exe)
 1\1\GINC-COMPUTE-0-2\Freq\UB3LYP\6-31G(d)\C3H7O2(2)\HETANJIN\01-Apr-20
 15\0\\#P Geom=AllCheck Guess=TCheck SCRF=Check GenChk UB3LYP/6-31G(d) 
 Freq\\C3H7O2_62_b3631gd using cbs-qb3 to calculate energy\\0,2\C,-1.76
 54192386,-1.0586638415,0.1786804385\H,-0.8274537617,-1.6047175161,0.03
 21298238\H,-2.5617175554,-1.601972207,-0.341674083\H,-1.9964740422,-1.
 0714371433,1.2506478262\C,-1.6450328237,0.3801739971,-0.3400773261\H,-
 1.449584282,0.374819749,-1.4224201216\H,-2.6255508284,0.8826638307,-0.
 2337001574\C,-0.5983924913,1.1831324138,0.3524897895\H,-0.2440088739,2
 .1174582384,-0.0717498345\H,-0.3267243164,0.9692871254,1.3823039214\O,
 1.6821078834,-0.1093588603,-0.5168803151\O,2.5728113302,-0.2745667863,
 0.3035520383\\Version=EM64L-G09RevA.01\State=2-A\HF=-268.7946764\S2=1.
 630471\S2-1=0.\S2A=0.776224\RMSD=2.043e-09\RMSF=5.219e-04\ZeroPoint=0.
 093677\Thermal=0.1014409\Dipole=-0.4453278,0.1307122,-0.0036482\Dipole
 Deriv=0.0939631,-0.0142777,0.0073816,0.0374925,0.0429559,0.0163975,-0.
 0699667,0.0011544,0.1222651,-0.0691899,0.1078434,0.022104,0.0517486,-0
 .0093832,0.0089491,0.0324467,0.0023059,0.0471547,-0.0680352,-0.1029785
 ,-0.0738389,-0.1101866,-0.0354253,-0.0262278,-0.0776468,-0.0467381,0.0
 098529,0.0553507,-0.0022243,0.0337159,0.0073576,0.0223752,-0.0115623,0
 .0572983,0.0316596,-0.1570217,-0.0034529,-0.0313826,-0.044149,0.067463
 6,0.1033176,0.0263945,-0.0499875,0.0145522,0.0923946,0.0390094,-0.0175
 102,0.0349145,-0.0948224,0.0120231,0.0032405,-0.0038583,0.0255513,-0.1
 593397,-0.2028763,0.0922634,-0.0070572,-0.0203651,-0.0269886,-0.004116
 1,-0.0254582,0.0000692,0.0596437,-0.1550466,0.201758,0.1106391,0.34622
 46,-0.0698578,-0.110499,0.3205711,-0.1299446,0.0923335,0.0528323,-0.08
 32923,-0.0207931,-0.087667,-0.0764311,0.0388437,-0.0244515,0.0489562,0
 .022533,0.0518612,-0.0417397,-0.0403484,-0.0343124,0.0398973,0.0461088
 ,-0.0477341,0.0140015,-0.0771137,1.1019596,-0.4189469,-0.1294419,-0.32
 05578,0.0932916,0.0322485,0.6802406,-0.2538815,-0.1123162,-0.8963752,0
 .3104876,0.1068733,0.1576244,-0.0957748,-0.0197773,-0.7914536,0.292313
 9,0.0596138\Polar=76.0617935,-9.942391,41.5998818,2.2474004,0.0889469,
 38.0104638\PG=C01 [X(C3H7O2)]\NImag=1\\0.58214952,-0.00554098,0.488995
 06,0.00612983,0.03499539,0.56438692,-0.24742249,0.11207911,0.03192790,
 0.26586024,0.11061311,-0.11188784,-0.01896459,-0.12251844,0.12251982,0
 .03216464,-0.01930897,-0.05621708,-0.03554206,0.01817350,0.05550876,-0
 .19088446,-0.09380214,-0.09303831,-0.01942757,-0.01442596,-0.01438750,
 0.20333968,-0.09268197,-0.11137257,-0.06176454,0.01149996,0.00911888,0
 .00939722,0.10350154,0.12120174,-0.09313275,-0.06284532,-0.11130806,0.
 00438624,0.00370330,0.00231017,0.10270639,0.06663525,0.11658053,-0.062
 44677,0.00023528,0.05415895,-0.00503999,-0.00065906,0.02915241,0.00633
 399,0.00090895,-0.02483997,0.06124211,0.00028556,-0.04877493,-0.002169
 36,0.00193227,-0.00032783,-0.01637867,0.00492115,-0.00032057,-0.015642
 13,0.00019558,0.05305563,0.05405963,-0.00108353,-0.29875744,0.00060486
 ,-0.00049973,-0.00323154,0.00362491,-0.00019833,-0.01455955,-0.0598327
 3,-0.00094479,0.32480110,-0.07593997,-0.00399497,0.00206028,0.00399749
 ,0.02673470,-0.01075829,-0.00070223,-0.02292358,0.00997302,-0.00123418
 ,-0.00769097,0.00229669,0.48776258,-0.00601612,-0.17774696,0.03593227,
 -0.00211388,-0.01687045,0.00654330,0.00070702,-0.01480541,0.00700906,0
 .00007592,-0.00077957,0.00052204,-0.00524275,0.47334762,0.00162790,0.0
 3646266,-0.09766670,-0.00098546,-0.00491015,0.00134070,0.00010496,-0.0
 1686554,0.00613386,0.00143232,0.03359839,-0.01086652,-0.00826597,0.000
 82400,0.55283726,-0.00116168,-0.00019286,0.00191978,0.00020209,-0.0001
 7854,-0.00070005,-0.00014137,-0.00006082,0.00028776,0.00087128,-0.0007
 1750,-0.00031013,-0.05273224,-0.00034294,0.04686416,0.06139506,-0.0068
 6986,0.00002301,0.03261537,0.00046076,0.00134690,-0.00054021,-0.000162
 18,0.00122958,-0.00060362,-0.00041664,-0.00641204,0.00245193,-0.000385
 15,-0.05105395,-0.00491238,0.00212185,0.05410833,0.00209677,0.00058965
 ,-0.00958826,-0.00054133,-0.00007358,0.00038048,0.00032132,0.00020362,
 0.00058405,-0.00001716,0.00217977,0.00090003,0.04835710,-0.00171094,-0
 .28915217,-0.04953586,0.00297345,0.31722445,0.00293845,-0.00139856,0.0
 0004907,0.00122855,-0.00098109,0.00011917,0.00060468,0.00051431,-0.000
 01663,0.00020328,0.00017126,-0.00050465,-0.22519214,0.10072485,0.02770
 134,-0.00698919,0.00415945,0.00267791,0.25282852,0.02886402,-0.0176694
 8,-0.00316940,-0.00111815,-0.00615374,0.00297154,-0.00015375,0.0011773
 7,-0.00086782,-0.00028295,0.00153537,0.00013586,0.08707891,-0.09140253
 ,-0.01203620,0.00151048,-0.00024324,-0.00060416,-0.10248664,0.10520464
 ,-0.01035712,0.00704107,0.00111513,-0.00002899,0.00238776,0.00003169,0
 .00028988,-0.00072910,0.00021675,-0.00061951,-0.00050090,0.00035153,0.
 02022412,-0.00948385,-0.04696088,0.03023116,-0.01495822,-0.00511938,-0
 .02407582,0.01243037,0.05086738,-0.00571807,-0.00801941,-0.00003481,0.
 00092576,0.00143909,-0.00005503,0.00069266,0.00007565,-0.00010248,0.00
 049504,0.00114369,-0.00075294,-0.13569323,-0.07388451,-0.05914801,0.00
 032795,0.00193272,-0.00241059,-0.02545302,-0.01510885,-0.01654985,0.27
 294900,-0.02639748,-0.02286405,-0.01400115,-0.00038808,0.00222120,-0.0
 0081403,-0.00059213,-0.00535621,0.00197113,0.00009300,0.00169262,-0.00
 091661,-0.06925128,-0.11885638,-0.02548352,0.00007084,0.00199613,-0.00
 080020,0.00089797,0.00853592,0.00485676,0.19734304,0.45118758,0.009307
 81,0.00361208,0.00849556,-0.00009158,0.00065676,0.00017119,0.00045451,
 0.00438048,-0.00081529,0.00112573,0.00089662,0.00061477,-0.05946098,-0
 .03035929,-0.11625928,-0.02730109,-0.01637456,-0.01593168,-0.00500536,
 0.00169960,0.00016880,0.13697165,-0.13981415,0.53603229,-0.00283288,-0
 .00008659,-0.00355347,0.00015457,-0.00015563,-0.00005319,0.00025373,-0
 .00135681,0.00051573,-0.00010039,0.00020425,0.00008013,-0.00093611,-0.
 01840035,0.01185294,0.00068971,0.00066917,-0.00072504,0.00033535,0.001
 19847,0.00006903,-0.06109048,-0.09481532,0.02268553,0.05863814,-0.0030
 4033,-0.00041548,-0.00191210,0.00009714,0.00021971,-0.00001747,-0.0001
 0260,-0.00089066,0.00038754,0.00009602,0.00015464,0.00009193,-0.000208
 34,-0.00735785,0.00652248,0.00042110,0.00040141,0.00009355,-0.00074144
 ,-0.00042765,0.00009459,-0.10010798,-0.26191107,0.11070883,0.10575089,
 0.27091239,-0.00243350,-0.00098442,-0.00112622,0.00007690,0.00005569,-
 0.00013286,-0.00024551,-0.00092969,0.00053153,-0.00026198,-0.00025574,
 0.00035590,-0.00384046,-0.01303036,0.00789833,0.00097061,0.00019187,0.
 00111815,-0.00059660,-0.00008575,0.00021864,0.02449909,0.10768434,-0.0
 9756182,-0.02736009,-0.11552111,0.09450742,0.00105755,0.00105474,0.000
 02768,0.00000465,-0.00006862,0.00010968,-0.00005251,0.00028215,0.00022
 528,-0.00022353,-0.00044112,0.00073224,0.00136669,0.00457486,-0.021428
 77,-0.00278824,-0.00185715,-0.00052429,-0.00091139,0.00019099,0.000700
 01,-0.04850305,-0.00481441,-0.07645786,0.00539677,-0.00230944,0.008819
 61,0.04487397,0.00089147,0.00173632,-0.00138719,0.00019921,-0.00025178
 ,-0.00006536,0.00020490,0.00008008,0.00022922,-0.00022399,0.00014549,0
 .00040495,-0.00377081,0.00522414,-0.01327289,-0.00253425,-0.00120277,-
 0.00277068,-0.00055985,-0.00031640,-0.00102103,-0.00391311,-0.05644281
 ,0.06383457,0.00618327,-0.00060718,0.02343076,0.00323757,0.05183952,0.
 00062378,0.00127257,0.00074762,0.00005249,-0.00047400,-0.00006041,0.00
 015654,-0.00003888,0.00032190,-0.00029181,-0.00075742,0.00035961,0.000
 27468,0.00320928,-0.00735999,-0.00237063,-0.00077947,-0.00052739,-0.00
 005443,-0.00015613,-0.00086102,-0.08161945,0.06676165,-0.31263260,-0.0
 0340172,-0.00049207,-0.00579509,0.08677269,-0.06858211,0.32577981,0.00
 075386,-0.00163602,0.00145748,-0.00060854,0.00103652,-0.00002747,0.000
 04223,0.00095729,-0.00007904,-0.00019617,-0.00003180,-0.00015422,0.003
 20989,-0.00266536,0.00011503,0.00046536,0.00154694,0.00069453,0.001732
 84,0.00232300,0.00089711,0.00395265,-0.00677285,-0.00444391,0.00005640
 ,-0.00053039,0.00035973,-0.00007746,0.00039187,-0.00111688,0.38698119,
 -0.00015411,0.00022488,-0.00038699,-0.00007722,-0.00011071,0.00007262,
 -0.00011732,-0.00018666,0.00003611,-0.00001398,0.00003900,0.00006902,-
 0.00145344,0.00099277,0.00017223,-0.00012328,-0.00037983,-0.00008493,-
 0.00061484,-0.00067302,-0.00027892,-0.00155809,0.00035352,0.00013150,0
 .00065723,0.00007863,-0.00054134,0.00034336,-0.00035033,0.00013986,-0.
 06877004,0.01444375,0.00032925,-0.00083005,0.00092216,0.00003135,0.000
 73590,-0.00016544,0.00006991,0.00057575,-0.00006649,-0.00009749,-0.000
 09444,-0.00010996,0.00150930,-0.00129439,0.00008022,-0.00000013,0.0011
 8053,0.00076127,0.00065762,0.00129861,0.00069188,0.00153985,-0.0044247
 0,-0.00811817,0.00011911,-0.00036348,0.00006122,0.00200681,-0.00125431
 ,-0.00104096,0.36420376,-0.06218888,0.35496061,-0.00049305,0.00130239,
 -0.00110437,0.00012524,-0.00083608,-0.00002231,-0.00005883,-0.00071666
 ,0.00007643,0.00009532,0.00002762,0.00015620,-0.00390655,0.00258325,0.
 00012957,-0.00013874,-0.00119990,-0.00039337,-0.00132593,-0.00201552,-
 0.00078002,-0.00288521,0.00462668,0.00221556,-0.00056481,0.00067538,0.
 00001220,-0.00014344,-0.00010628,0.00097475,-0.39631225,0.07188174,-0.
 37036933,0.40560825,0.00004671,-0.00024797,0.00021229,-0.00005269,0.00
 017585,-0.00003348,0.00002149,0.00012443,-0.00001272,-0.00000813,-0.00
 000781,-0.00003274,0.00110768,-0.00069143,-0.00009908,0.00002591,0.000
 18647,0.00000448,0.00031457,0.00043276,0.00016146,0.00065776,-0.000556
 47,0.00062756,0.00015142,-0.00015688,-0.00001424,-0.00019293,0.0001457
 2,-0.00010329,0.07415084,-0.01443201,0.06665947,-0.07622262,0.01502733
 ,-0.00041625,0.00107887,-0.00100363,0.00010969,-0.00079086,0.00006435,
 -0.00005709,-0.00066624,0.00007060,0.00009124,0.00006868,0.00014207,-0
 .00236947,0.00183888,-0.00002484,-0.00005558,-0.00124467,-0.00064955,-
 0.00095161,-0.00161653,-0.00072053,-0.00233744,0.00498049,0.00583624,-
 0.00022896,0.00040730,-0.00007519,-0.00098309,0.00045409,0.00106851,-0
 .36190612,0.06285972,-0.34797634,0.36910468,-0.06736971,0.34326831\\-0
 .00001548,0.00003821,-0.00000900,-0.00001951,-0.00002664,0.00000793,-0
 .00000666,-0.00000320,0.00000257,0.00000101,0.00000777,-0.00000248,0.0
 0000361,-0.00001514,0.00002101,0.00000031,-0.00001627,0.00000017,-0.00
 000002,0.00001203,-0.00001073,-0.00174305,0.00102422,0.00069686,-0.000
 03333,0.00001575,-0.00000179,0.00000612,-0.00001534,-0.00000570,0.0019
 3654,-0.00105145,-0.00058215,-0.00012955,0.00003006,-0.00011669\\\@


 MOST BUREAUCRACIES FUNCTION LIKE A SEPTIC TANK.
 THE LARGE CHUNKS RISE TO THE TOP.
 Job cpu time:  0 days  0 hours  4 minutes 55.0 seconds.
 File lengths (MBytes):  RWF=     29 Int=      0 D2E=      0 Chk=      3 Scr=      1
 Normal termination of Gaussian 09 at Wed Apr  1 00:22:41 2015.
