 Entering Gaussian System, Link 0=/share/apps/g09/g09
 Input=C3H7O2_62_b3631gd_306.gjf
 Output=C3H7O2_62_b3631gd_306.log
 Initial command:
 /share/apps/g09/l1.exe /state/partition1/Gau-31126.inp -scrdir=/state/partition1/
 Entering Link 1 = /share/apps/g09/l1.exe PID=     31128.
  
 Copyright (c) 1988,1990,1992,1993,1995,1998,2003,2009, Gaussian, Inc.
                  All Rights Reserved.
  
 This is part of the Gaussian(R) 09 program.  It is based on
 the Gaussian(R) 03 system (copyright 2003, Gaussian, Inc.),
 the Gaussian(R) 98 system (copyright 1998, Gaussian, Inc.),
 the Gaussian(R) 94 system (copyright 1995, Gaussian, Inc.),
 the Gaussian 92(TM) system (copyright 1992, Gaussian, Inc.),
 the Gaussian 90(TM) system (copyright 1990, Gaussian, Inc.),
 the Gaussian 88(TM) system (copyright 1988, Gaussian, Inc.),
 the Gaussian 86(TM) system (copyright 1986, Carnegie Mellon
 University), and the Gaussian 82(TM) system (copyright 1983,
 Carnegie Mellon University). Gaussian is a federally registered
 trademark of Gaussian, Inc.
  
 This software contains proprietary and confidential information,
 including trade secrets, belonging to Gaussian, Inc.
  
 This software is provided under written license and may be
 used, copied, transmitted, or stored only in accord with that
 written license.
  
 The following legend is applicable only to US Government
 contracts under FAR:
  
                    RESTRICTED RIGHTS LEGEND
  
 Use, reproduction and disclosure by the US Government is
 subject to restrictions as set forth in subparagraphs (a)
 and (c) of the Commercial Computer Software - Restricted
 Rights clause in FAR 52.227-19.
  
 Gaussian, Inc.
 340 Quinnipiac St., Bldg. 40, Wallingford CT 06492
  
  
 ---------------------------------------------------------------
 Warning -- This program may not be used in any manner that
 competes with the business of Gaussian, Inc. or will provide
 assistance to any competitor of Gaussian, Inc.  The licensee
 of this program is prohibited from giving any competitor of
 Gaussian, Inc. access to this program.  By using this program,
 the user acknowledges that Gaussian, Inc. is engaged in the
 business of creating and licensing software in the field of
 computational chemistry and represents and warrants to the
 licensee that it is not a competitor of Gaussian, Inc. and that
 it will not use this program in any manner prohibited above.
 ---------------------------------------------------------------
  

 Cite this work as:
 Gaussian 09, Revision A.01,
 M. J. Frisch, G. W. Trucks, H. B. Schlegel, G. E. Scuseria, 
 M. A. Robb, J. R. Cheeseman, G. Scalmani, V. Barone, B. Mennucci, 
 G. A. Petersson, H. Nakatsuji, M. Caricato, X. Li, H. P. Hratchian, 
 A. F. Izmaylov, J. Bloino, G. Zheng, J. L. Sonnenberg, M. Hada, 
 M. Ehara, K. Toyota, R. Fukuda, J. Hasegawa, M. Ishida, T. Nakajima, 
 Y. Honda, O. Kitao, H. Nakai, T. Vreven, J. A. Montgomery, Jr., 
 J. E. Peralta, F. Ogliaro, M. Bearpark, J. J. Heyd, E. Brothers, 
 K. N. Kudin, V. N. Staroverov, R. Kobayashi, J. Normand, 
 K. Raghavachari, A. Rendell, J. C. Burant, S. S. Iyengar, J. Tomasi, 
 M. Cossi, N. Rega, J. M. Millam, M. Klene, J. E. Knox, J. B. Cross, 
 V. Bakken, C. Adamo, J. Jaramillo, R. Gomperts, R. E. Stratmann, 
 O. Yazyev, A. J. Austin, R. Cammi, C. Pomelli, J. W. Ochterski, 
 R. L. Martin, K. Morokuma, V. G. Zakrzewski, G. A. Voth, 
 P. Salvador, J. J. Dannenberg, S. Dapprich, A. D. Daniels, 
 O. Farkas, J. B. Foresman, J. V. Ortiz, J. Cioslowski, 
 and D. J. Fox, Gaussian, Inc., Wallingford CT, 2009.
 
 ******************************************
 Gaussian 09:  EM64L-G09RevA.01  8-May-2009
                 1-Apr-2015 
 ******************************************
 %mem=28GB
 %nprocshared=12
 Will use up to   12 processors via shared memory.
 %chk=C3H7O2_62_b3631gd_306.chk
 ----------------------------------------
 #p ub3lyp/6-31g(d) opt=modredundant freq
 ----------------------------------------
 1/14=-1,18=120,19=15,26=3,38=1/1,3;
 2/9=110,12=2,17=6,18=5,40=1/2;
 3/5=1,6=6,7=1,11=2,16=1,25=1,30=1,71=1,74=-5,116=2/1,2,3;
 4//1;
 5/5=2,38=5/2;
 6/7=2,8=2,9=2,10=2,28=1/1;
 7//1,2,3,16;
 1/14=-1,18=20,19=15/3(2);
 2/9=110/2;
 99//99;
 2/9=110/2;
 3/5=1,6=6,7=1,11=2,16=1,25=1,30=1,71=1,74=-5,116=2/1,2,3;
 4/5=5,16=3/1;
 5/5=2,38=5/2;
 7//1,2,3,16;
 1/14=-1,18=20,19=15/3(-5);
 2/9=110/2;
 6/7=2,8=2,9=2,10=2,19=2,28=1/1;
 99/9=1/99;
 Leave Link    1 at Wed Apr  1 00:24:19 2015, MaxMem= 3758096384 cpu:       0.4
 (Enter /share/apps/g09/l101.exe)
 ---------------------------------------------------
 C3H7O2_62_b3631gd using cbs-qb3 to calculate energy
 ---------------------------------------------------
 Symbolic Z-matrix:
 Charge =  0 Multiplicity = 2
 C                    -1.72476  -1.12333   0.17559 
 H                    -0.74229  -1.56848  -0.01447 
 H                    -2.48215  -1.74266  -0.31745 
 H                    -1.90814  -1.16674   1.25602 
 C                    -1.77474   0.32451  -0.33206 
 H                    -1.62096   0.34606  -1.42049 
 H                    -2.79882   0.71764  -0.18279 
 C                    -0.79098   1.22596   0.3322 
 H                    -0.49308   2.16347  -0.12693 
 H                    -0.50199   1.06254   1.36671 
 O                     1.84336  -0.07321  -0.53178 
 O                     2.69293  -0.22364   0.3299 
 
 NAtoms=     12 NQM=     12 NQMF=      0 NMic=      0 NMicF=      0 NTot=     12.
 The following ModRedundant input section has been read:
 B    8   11 F                                                                 
                    Isotopes and Nuclear Properties:
 (Nuclear quadrupole moments (NQMom) in fm**2, nuclear magnetic moments (NMagM)
  in nuclear magnetons)

  Atom         1           2           3           4           5           6           7           8           9          10
 IAtWgt=          12           1           1           1          12           1           1          12           1           1
 AtmWgt=  12.0000000   1.0078250   1.0078250   1.0078250  12.0000000   1.0078250   1.0078250  12.0000000   1.0078250   1.0078250
 NucSpn=           0           1           1           1           0           1           1           0           1           1
 AtZEff=   0.0000000   0.0000000   0.0000000   0.0000000   0.0000000   0.0000000   0.0000000   0.0000000   0.0000000   0.0000000
 NQMom=    0.0000000   0.0000000   0.0000000   0.0000000   0.0000000   0.0000000   0.0000000   0.0000000   0.0000000   0.0000000
 NMagM=    0.0000000   2.7928460   2.7928460   2.7928460   0.0000000   2.7928460   2.7928460   0.0000000   2.7928460   2.7928460

  Atom        11          12
 IAtWgt=          16          16
 AtmWgt=  15.9949146  15.9949146
 NucSpn=           0           0
 AtZEff=   0.0000000   0.0000000
 NQMom=    0.0000000   0.0000000
 NMagM=    0.0000000   0.0000000
 Leave Link  101 at Wed Apr  1 00:24:19 2015, MaxMem= 3758096384 cpu:       0.6
 (Enter /share/apps/g09/l103.exe)

 GradGradGradGradGradGradGradGradGradGradGradGradGradGradGradGradGradGrad
 Berny optimization.
 Initialization pass.
                           ----------------------------
                           !    Initial Parameters    !
                           ! (Angstroms and Degrees)  !
 --------------------------                            --------------------------
 ! Name  Definition              Value          Derivative Info.                !
 --------------------------------------------------------------------------------
 ! R1    R(1,2)                  1.0952         estimate D2E/DX2                !
 ! R2    R(1,3)                  1.0956         estimate D2E/DX2                !
 ! R3    R(1,4)                  1.0967         estimate D2E/DX2                !
 ! R4    R(1,5)                  1.5351         estimate D2E/DX2                !
 ! R5    R(1,11)                 3.7861         estimate D2E/DX2                !
 ! R6    R(2,11)                 3.0313         estimate D2E/DX2                !
 ! R7    R(2,12)                 3.7051         estimate D2E/DX2                !
 ! R8    R(5,6)                  1.0994         estimate D2E/DX2                !
 ! R9    R(5,7)                  1.1071         estimate D2E/DX2                !
 ! R10   R(5,8)                  1.4905         estimate D2E/DX2                !
 ! R11   R(5,11)                 3.6454         estimate D2E/DX2                !
 ! R12   R(6,11)                 3.601          estimate D2E/DX2                !
 ! R13   R(8,9)                  1.0856         estimate D2E/DX2                !
 ! R14   R(8,10)                 1.0865         estimate D2E/DX2                !
 ! R15   R(8,11)                 3.0617         Frozen                          !
 ! R16   R(8,12)                 3.7735         estimate D2E/DX2                !
 ! R17   R(9,11)                 3.2597         estimate D2E/DX2                !
 ! R18   R(10,11)                3.2241         estimate D2E/DX2                !
 ! R19   R(10,12)                3.5968         estimate D2E/DX2                !
 ! R20   R(11,12)                1.2194         estimate D2E/DX2                !
 ! A1    A(2,1,3)              108.1966         estimate D2E/DX2                !
 ! A2    A(2,1,4)              107.7491         estimate D2E/DX2                !
 ! A3    A(2,1,5)              110.8038         estimate D2E/DX2                !
 ! A4    A(3,1,4)              107.7805         estimate D2E/DX2                !
 ! A5    A(3,1,5)              111.2133         estimate D2E/DX2                !
 ! A6    A(3,1,11)             136.4042         estimate D2E/DX2                !
 ! A7    A(4,1,5)              110.9574         estimate D2E/DX2                !
 ! A8    A(4,1,11)             110.6468         estimate D2E/DX2                !
 ! A9    A(1,2,12)             131.9159         estimate D2E/DX2                !
 ! A10   A(1,5,6)              109.9573         estimate D2E/DX2                !
 ! A11   A(1,5,7)              108.6907         estimate D2E/DX2                !
 ! A12   A(1,5,8)              113.6755         estimate D2E/DX2                !
 ! A13   A(6,5,7)              104.8276         estimate D2E/DX2                !
 ! A14   A(6,5,8)              109.6954         estimate D2E/DX2                !
 ! A15   A(7,5,8)              109.6141         estimate D2E/DX2                !
 ! A16   A(7,5,11)             164.6353         estimate D2E/DX2                !
 ! A17   A(5,8,9)              120.9936         estimate D2E/DX2                !
 ! A18   A(5,8,10)             120.592          estimate D2E/DX2                !
 ! A19   A(5,8,12)             112.1334         estimate D2E/DX2                !
 ! A20   A(9,8,10)             117.3623         estimate D2E/DX2                !
 ! A21   A(9,8,12)              94.4818         estimate D2E/DX2                !
 ! A22   A(1,11,6)              34.0802         estimate D2E/DX2                !
 ! A23   A(1,11,8)              41.7629         estimate D2E/DX2                !
 ! A24   A(1,11,9)              59.4433         estimate D2E/DX2                !
 ! A25   A(1,11,10)             45.7436         estimate D2E/DX2                !
 ! A26   A(1,11,12)            119.3648         estimate D2E/DX2                !
 ! A27   A(2,11,5)              36.6667         estimate D2E/DX2                !
 ! A28   A(2,11,6)              43.8588         estimate D2E/DX2                !
 ! A29   A(2,11,8)              55.0573         estimate D2E/DX2                !
 ! A30   A(2,11,9)              72.8956         estimate D2E/DX2                !
 ! A31   A(2,11,10)             56.824          estimate D2E/DX2                !
 ! A32   A(5,11,9)              37.5264         estimate D2E/DX2                !
 ! A33   A(5,11,10)             37.5618         estimate D2E/DX2                !
 ! A34   A(5,11,12)            131.7788         estimate D2E/DX2                !
 ! A35   A(6,11,8)              36.1453         estimate D2E/DX2                !
 ! A36   A(6,11,9)              42.3704         estimate D2E/DX2                !
 ! A37   A(6,11,10)             53.4499         estimate D2E/DX2                !
 ! A38   A(6,11,12)            149.2095         estimate D2E/DX2                !
 ! A39   A(9,11,10)             33.2534         estimate D2E/DX2                !
 ! A40   A(9,11,12)            119.7538         estimate D2E/DX2                !
 ! A41   A(2,12,8)              44.2323         estimate D2E/DX2                !
 ! A42   A(2,12,10)             48.1654         estimate D2E/DX2                !
 ! D1    D(3,1,2,12)           163.9484         estimate D2E/DX2                !
 ! D2    D(4,1,2,12)           -79.7734         estimate D2E/DX2                !
 ! D3    D(5,1,2,12)            41.7843         estimate D2E/DX2                !
 ! D4    D(2,1,5,6)             62.1466         estimate D2E/DX2                !
 ! D5    D(2,1,5,7)            176.3681         estimate D2E/DX2                !
 ! D6    D(2,1,5,8)            -61.2697         estimate D2E/DX2                !
 ! D7    D(3,1,5,6)            -58.2385         estimate D2E/DX2                !
 ! D8    D(3,1,5,7)             55.9829         estimate D2E/DX2                !
 ! D9    D(3,1,5,8)            178.3452         estimate D2E/DX2                !
 ! D10   D(4,1,5,6)           -178.2012         estimate D2E/DX2                !
 ! D11   D(4,1,5,7)            -63.9797         estimate D2E/DX2                !
 ! D12   D(4,1,5,8)             58.3825         estimate D2E/DX2                !
 ! D13   D(3,1,11,6)            73.3856         estimate D2E/DX2                !
 ! D14   D(3,1,11,8)           132.8324         estimate D2E/DX2                !
 ! D15   D(3,1,11,9)           122.2034         estimate D2E/DX2                !
 ! D16   D(3,1,11,10)          160.8848         estimate D2E/DX2                !
 ! D17   D(3,1,11,12)         -128.5831         estimate D2E/DX2                !
 ! D18   D(4,1,11,6)          -136.2734         estimate D2E/DX2                !
 ! D19   D(4,1,11,8)           -76.8265         estimate D2E/DX2                !
 ! D20   D(4,1,11,9)           -87.4556         estimate D2E/DX2                !
 ! D21   D(4,1,11,10)          -48.7741         estimate D2E/DX2                !
 ! D22   D(4,1,11,12)           21.7579         estimate D2E/DX2                !
 ! D23   D(1,2,12,8)           -12.9907         estimate D2E/DX2                !
 ! D24   D(1,2,12,10)            9.6298         estimate D2E/DX2                !
 ! D25   D(1,5,8,9)            160.205          estimate D2E/DX2                !
 ! D26   D(1,5,8,10)           -31.8342         estimate D2E/DX2                !
 ! D27   D(1,5,8,12)            50.1612         estimate D2E/DX2                !
 ! D28   D(6,5,8,9)             36.6459         estimate D2E/DX2                !
 ! D29   D(6,5,8,10)          -155.3932         estimate D2E/DX2                !
 ! D30   D(6,5,8,12)           -73.3978         estimate D2E/DX2                !
 ! D31   D(7,5,8,9)            -77.9439         estimate D2E/DX2                !
 ! D32   D(7,5,8,10)            90.0169         estimate D2E/DX2                !
 ! D33   D(7,5,8,12)           172.0123         estimate D2E/DX2                !
 ! D34   D(7,5,11,2)           149.6728         estimate D2E/DX2                !
 ! D35   D(7,5,11,9)           -10.4288         estimate D2E/DX2                !
 ! D36   D(7,5,11,10)           45.5824         estimate D2E/DX2                !
 ! D37   D(7,5,11,12)           75.5169         estimate D2E/DX2                !
 ! D38   D(5,8,12,2)           -21.081          estimate D2E/DX2                !
 ! D39   D(9,8,12,2)          -147.202          estimate D2E/DX2                !
 --------------------------------------------------------------------------------
 Trust Radius=3.00D-01 FncErr=1.00D-07 GrdErr=1.00D-06
 Number of steps in this run= 100 maximum allowed number of steps= 100.
 GradGradGradGradGradGradGradGradGradGradGradGradGradGradGradGradGradGrad

 Leave Link  103 at Wed Apr  1 00:24:19 2015, MaxMem= 3758096384 cpu:       0.1
 (Enter /share/apps/g09/l202.exe)
                          Input orientation:                          
 ---------------------------------------------------------------------
 Center     Atomic      Atomic             Coordinates (Angstroms)
 Number     Number       Type             X           Y           Z
 ---------------------------------------------------------------------
      1          6           0       -1.724762   -1.123325    0.175594
      2          1           0       -0.742286   -1.568483   -0.014466
      3          1           0       -2.482153   -1.742655   -0.317448
      4          1           0       -1.908136   -1.166737    1.256022
      5          6           0       -1.774740    0.324512   -0.332058
      6          1           0       -1.620962    0.346060   -1.420487
      7          1           0       -2.798815    0.717640   -0.182785
      8          6           0       -0.790982    1.225962    0.332195
      9          1           0       -0.493083    2.163466   -0.126928
     10          1           0       -0.501993    1.062536    1.366710
     11          8           0        1.843360   -0.073205   -0.531776
     12          8           0        2.692931   -0.223635    0.329899
 ---------------------------------------------------------------------
                    Distance matrix (angstroms):
                    1          2          3          4          5
     1  C    0.000000
     2  H    1.095239   0.000000
     3  H    1.095583   1.774619   0.000000
     4  H    1.096738   1.770521   1.771154   0.000000
     5  C    1.535070   2.179508   2.184909   2.182571   0.000000
     6  H    2.171944   2.532675   2.514175   3.087835   1.099450
     7  H    2.161291   3.079611   2.484242   2.532657   1.107051
     8  C    2.532907   2.816286   3.477755   2.797588   1.490511
     9  H    3.523003   3.741950   4.387537   3.873652   2.250883
    10  H    2.773429   2.981216   3.824463   2.638020   2.247304
    11  O    3.786109   3.031341   4.641450   4.297180   3.645369
    12  O    4.511016   3.705121   5.432124   4.787166   4.549586
                    6          7          8          9         10
     6  H    0.000000
     7  H    1.748518   0.000000
     8  C    2.129551   2.134242   0.000000
     9  H    2.499674   2.722119   1.085565   0.000000
    10  H    3.087701   2.792003   1.086482   1.855554   0.000000
    11  O    3.600988   4.721972   3.061705   3.259688   3.224103
    12  O    4.690211   5.595366   3.773458   4.007197   3.596770
                   11         12
    11  O    0.000000
    12  O    1.219378   0.000000
 Stoichiometry    C3H7O2(2)
 Framework group  C1[X(C3H7O2)]
 Deg. of freedom    30
 Full point group                 C1      NOp   1
 Largest Abelian subgroup         C1      NOp   1
 Largest concise Abelian subgroup C1      NOp   1
                         Standard orientation:                         
 ---------------------------------------------------------------------
 Center     Atomic      Atomic             Coordinates (Angstroms)
 Number     Number       Type             X           Y           Z
 ---------------------------------------------------------------------
      1          6           0       -1.724762   -1.123325    0.175594
      2          1           0       -0.742286   -1.568483   -0.014466
      3          1           0       -2.482153   -1.742655   -0.317448
      4          1           0       -1.908136   -1.166737    1.256022
      5          6           0       -1.774740    0.324512   -0.332058
      6          1           0       -1.620962    0.346060   -1.420487
      7          1           0       -2.798815    0.717640   -0.182785
      8          6           0       -0.790982    1.225962    0.332195
      9          1           0       -0.493083    2.163466   -0.126928
     10          1           0       -0.501993    1.062536    1.366710
     11          8           0        1.843360   -0.073205   -0.531776
     12          8           0        2.692931   -0.223635    0.329899
 ---------------------------------------------------------------------
 Rotational constants (GHZ):      7.9448078      1.7648602      1.5787856
 Leave Link  202 at Wed Apr  1 00:24:19 2015, MaxMem= 3758096384 cpu:       0.1
 (Enter /share/apps/g09/l301.exe)
 Standard basis: 6-31G(d) (6D, 7F)
 Ernie: Thresh=  0.10000D-02 Tol=  0.10000D-05 Strict=F.
 There are    89 symmetry adapted basis functions of A   symmetry.
 Integral buffers will be    131072 words long.
 Raffenetti 2 integral format.
 Two-electron integral symmetry is turned on.
    89 basis functions,   168 primitive gaussians,    89 cartesian basis functions
    21 alpha electrons       20 beta electrons
       nuclear repulsion energy       158.0458186850 Hartrees.
 IExCor=  402 DFT=T Ex+Corr=B3LYP ExCW=0 ScaHFX=  0.200000
 ScaDFX=  0.800000  0.720000  1.000000  0.810000 ScalE2=  1.000000  1.000000
 IRadAn=      0 IRanWt=     -1 IRanGd=            0 ICorTp=0
 NAtoms=   12 NActive=   12 NUniq=   12 SFac= 7.50D-01 NAtFMM=   80 NAOKFM=F Big=F
 Leave Link  301 at Wed Apr  1 00:24:19 2015, MaxMem= 3758096384 cpu:       0.6
 (Enter /share/apps/g09/l302.exe)
 NPDir=0 NMtPBC=     1 NCelOv=     1 NCel=       1 NClECP=     1 NCelD=      1
         NCelK=      1 NCelE2=     1 NClLst=     1 CellRange=     0.0.
 One-electron integrals computed using PRISM.
 NBasis=    89 RedAO= T  NBF=    89
 NBsUse=    89 1.00D-06 NBFU=    89
 Precomputing XC quadrature grid using
 IXCGrd= 2 IRadAn=           0 IRanWt=          -1 IRanGd=           0 AccXCQ= 1.00D-10.
 NRdTot=     744 NPtTot=       94340 NUsed=       99717 NTot=       99749
 NSgBfM=    89    89    89    89    89 NAtAll=    12    12.
 Leave Link  302 at Wed Apr  1 00:24:19 2015, MaxMem= 3758096384 cpu:       2.4
 (Enter /share/apps/g09/l303.exe)
 DipDrv:  MaxL=1.
 Leave Link  303 at Wed Apr  1 00:24:20 2015, MaxMem= 3758096384 cpu:       0.7
 (Enter /share/apps/g09/l401.exe)
 Harris functional with IExCor=  402 diagonalized for initial guess.
 ExpMin= 1.61D-01 ExpMax= 5.48D+03 ExpMxC= 8.25D+02 IAcc=1 IRadAn=         1 AccDes= 0.00D+00
 HarFok:  IExCor=  402 AccDes= 0.00D+00 IRadAn=         1 IDoV= 1
 ScaDFX=  1.000000  1.000000  1.000000  1.000000
 FoFCou: FMM=F IPFlag=           0 FMFlag=      100000 FMFlg1=           0
         NFxFlg=           0 DoJE=T BraDBF=F KetDBF=T FulRan=T
         Omega=  0.000000  0.000000  1.000000  0.000000  0.000000 ICntrl=     500 IOpCl=  0
         NMat0=    1 NMatS0=    1 NMatT0=    0 NMatD0=    1 NMtDS0=    0 NMtDT0=    0
         I1Cent=           4 NGrid=           0.
 Petite list used in FoFCou.
 Harris En= -268.811866982250    
 Initial guess orbital symmetries:
 Alpha Orbitals:
       Occupied  (A) (A) (A) (A) (A) (A) (A) (A) (A) (A) (A) (A)
                 (A) (A) (A) (A) (A) (A) (A) (A) (A)
       Virtual   (A) (A) (A) (A) (A) (A) (A) (A) (A) (A) (A) (A)
                 (A) (A) (A) (A) (A) (A) (A) (A) (A) (A) (A) (A)
                 (A) (A) (A) (A) (A) (A) (A) (A) (A) (A) (A) (A)
                 (A) (A) (A) (A) (A) (A) (A) (A) (A) (A) (A) (A)
                 (A) (A) (A) (A) (A) (A) (A) (A) (A) (A) (A) (A)
                 (A) (A) (A) (A) (A) (A) (A) (A)
 Beta  Orbitals:
       Occupied  (A) (A) (A) (A) (A) (A) (A) (A) (A) (A) (A) (A)
                 (A) (A) (A) (A) (A) (A) (A) (A)
       Virtual   (A) (A) (A) (A) (A) (A) (A) (A) (A) (A) (A) (A)
                 (A) (A) (A) (A) (A) (A) (A) (A) (A) (A) (A) (A)
                 (A) (A) (A) (A) (A) (A) (A) (A) (A) (A) (A) (A)
                 (A) (A) (A) (A) (A) (A) (A) (A) (A) (A) (A) (A)
                 (A) (A) (A) (A) (A) (A) (A) (A) (A) (A) (A) (A)
                 (A) (A) (A) (A) (A) (A) (A) (A) (A)
 The electronic state of the initial guess is 2-A.
 Initial guess <Sx>= 0.0000 <Sy>= 0.0000 <Sz>= 0.5000 <S**2>= 0.7500 S= 0.5000
 Leave Link  401 at Wed Apr  1 00:24:20 2015, MaxMem= 3758096384 cpu:       2.6
 (Enter /share/apps/g09/l502.exe)
 UHF open shell SCF:
 Requested convergence on RMS density matrix=1.00D-08 within 128 cycles.
 Requested convergence on MAX density matrix=1.00D-06.
 Requested convergence on             energy=1.00D-06.
 No special actions if energy rises.
 Using DIIS extrapolation, IDIIS=  1040.
 Integral symmetry usage will be decided dynamically.
        99596 words used for storage of precomputed grid.
 Keep R1 and R2 ints in memory in canonical form, NReq=17096789.
 IEnd=      143254 IEndB=      143254 NGot=  3758096384 MDV=  3741933723
 LenX=  3741933723 LenY=  3741925361
 Symmetry not used in FoFDir.
 MinBra= 0 MaxBra= 2 Meth= 1.
 IRaf=       0 NMat=   1 IRICut=       1 DoRegI=T DoRafI=F ISym2E= 0 JSym2E=0.
 Integral accuracy reduced to 1.0D-05 until final iterations.

 Cycle   1  Pass 0  IDiag  1:
 E= -268.155894411705    
 DIIS: error= 7.16D-02 at cycle   1 NSaved=   1.
 NSaved= 1 IEnMin= 1 EnMin= -268.155894411705     IErMin= 1 ErrMin= 7.16D-02
 ErrMax= 7.16D-02 EMaxC= 1.00D-01 BMatC= 1.45D+00 BMatP= 1.45D+00
 IDIUse=3 WtCom= 2.84D-01 WtEn= 7.16D-01
 Coeff-Com:  0.100D+01
 Coeff-En:   0.100D+01
 Coeff:      0.100D+01
 Gap=     0.184 Goal=   None    Shift=    0.000
 Gap=    -0.633 Goal=   None    Shift=    0.000
 GapD=   -0.633 DampG=0.250 DampE=0.500 DampFc=0.2500 IDamp=-1.
 Damping current iteration by 2.50D-01
 RMSDP=3.73D-02 MaxDP=5.30D-01              OVMax= 9.99D-01

 Cycle   2  Pass 0  IDiag  1:
 E= -268.126591189701     Delta-E=        0.029303222004 Rises=F Damp=T
 DIIS: error= 3.10D-02 at cycle   2 NSaved=   2.
 NSaved= 2 IEnMin= 1 EnMin= -268.155894411705     IErMin= 2 ErrMin= 3.10D-02
 ErrMax= 3.10D-02 EMaxC= 1.00D-01 BMatC= 2.50D-01 BMatP= 1.45D+00
 IDIUse=3 WtCom= 6.90D-01 WtEn= 3.10D-01
 Coeff-Com:  0.169D+00 0.831D+00
 Coeff-En:   0.521D+00 0.479D+00
 Coeff:      0.278D+00 0.722D+00
 Gap=    -0.005 Goal=   None    Shift=    0.000
 Gap=     0.063 Goal=   None    Shift=    0.000
 RMSDP=1.23D-02 MaxDP=1.77D-01 DE= 2.93D-02 OVMax= 9.75D-01

 Cycle   3  Pass 0  IDiag  1:
 E= -268.495032784436     Delta-E=       -0.368441594734 Rises=F Damp=F
 DIIS: error= 4.25D-02 at cycle   3 NSaved=   3.
 NSaved= 3 IEnMin= 3 EnMin= -268.495032784436     IErMin= 2 ErrMin= 3.10D-02
 ErrMax= 4.25D-02 EMaxC= 1.00D-01 BMatC= 5.88D-01 BMatP= 2.50D-01
 IDIUse=2 WtCom= 0.00D+00 WtEn= 1.00D+00
 Coeff-En:   0.370D+00 0.000D+00 0.630D+00
 Coeff:      0.370D+00 0.000D+00 0.630D+00
 Gap=     0.022 Goal=   None    Shift=    0.000
 Gap=     0.096 Goal=   None    Shift=    0.000
 RMSDP=8.40D-03 MaxDP=1.78D-01 DE=-3.68D-01 OVMax= 6.58D-01

 Cycle   4  Pass 0  IDiag  1:
 E= -268.670341166583     Delta-E=       -0.175308382147 Rises=F Damp=F
 DIIS: error= 5.34D-02 at cycle   4 NSaved=   4.
 NSaved= 4 IEnMin= 4 EnMin= -268.670341166583     IErMin= 2 ErrMin= 3.10D-02
 ErrMax= 5.34D-02 EMaxC= 1.00D-01 BMatC= 2.53D-01 BMatP= 2.50D-01
 IDIUse=3 WtCom= 4.66D-01 WtEn= 5.34D-01
 Coeff-Com:  0.920D-01 0.163D+00 0.346D+00 0.399D+00
 Coeff-En:   0.000D+00 0.000D+00 0.322D+00 0.678D+00
 Coeff:      0.429D-01 0.758D-01 0.333D+00 0.548D+00
 Gap=     0.050 Goal=   None    Shift=    0.000
 Gap=     0.044 Goal=   None    Shift=    0.000
 RMSDP=4.60D-03 MaxDP=1.00D-01 DE=-1.75D-01 OVMax= 4.12D-01

 Cycle   5  Pass 0  IDiag  1:
 E= -268.740156545547     Delta-E=       -0.069815378965 Rises=F Damp=F
 DIIS: error= 2.84D-02 at cycle   5 NSaved=   5.
 NSaved= 5 IEnMin= 5 EnMin= -268.740156545547     IErMin= 5 ErrMin= 2.84D-02
 ErrMax= 2.84D-02 EMaxC= 1.00D-01 BMatC= 6.10D-02 BMatP= 2.50D-01
 IDIUse=3 WtCom= 7.16D-01 WtEn= 2.84D-01
 Coeff-Com: -0.322D-02-0.298D-01 0.947D-01 0.365D+00 0.574D+00
 Coeff-En:   0.000D+00 0.000D+00 0.000D+00 0.254D+00 0.746D+00
 Coeff:     -0.230D-02-0.213D-01 0.678D-01 0.333D+00 0.623D+00
 Gap=     0.078 Goal=   None    Shift=    0.000
 Gap=     0.054 Goal=   None    Shift=    0.000
 RMSDP=3.69D-03 MaxDP=8.92D-02 DE=-6.98D-02 OVMax= 3.91D-01

 Cycle   6  Pass 0  IDiag  1:
 E= -268.769825203652     Delta-E=       -0.029668658105 Rises=F Damp=F
 DIIS: error= 2.05D-02 at cycle   6 NSaved=   6.
 NSaved= 6 IEnMin= 6 EnMin= -268.769825203652     IErMin= 6 ErrMin= 2.05D-02
 ErrMax= 2.05D-02 EMaxC= 1.00D-01 BMatC= 3.50D-02 BMatP= 6.10D-02
 IDIUse=3 WtCom= 7.95D-01 WtEn= 2.05D-01
 Coeff-Com: -0.119D-01 0.206D-01 0.639D-01 0.175D+00 0.402D+00 0.351D+00
 Coeff-En:   0.000D+00 0.000D+00 0.000D+00 0.000D+00 0.100D+00 0.900D+00
 Coeff:     -0.950D-02 0.164D-01 0.508D-01 0.139D+00 0.340D+00 0.463D+00
 Gap=     0.123 Goal=   None    Shift=    0.000
 Gap=     0.078 Goal=   None    Shift=    0.000
 RMSDP=1.52D-03 MaxDP=2.19D-02 DE=-2.97D-02 OVMax= 1.53D-01

 Cycle   7  Pass 0  IDiag  1:
 E= -268.786668364911     Delta-E=       -0.016843161259 Rises=F Damp=F
 DIIS: error= 7.67D-03 at cycle   7 NSaved=   7.
 NSaved= 7 IEnMin= 7 EnMin= -268.786668364911     IErMin= 7 ErrMin= 7.67D-03
 ErrMax= 7.67D-03 EMaxC= 1.00D-01 BMatC= 6.37D-03 BMatP= 3.50D-02
 IDIUse=3 WtCom= 9.23D-01 WtEn= 7.67D-02
 Coeff-Com: -0.271D-02 0.443D-01 0.587D-01 0.521D-01 0.126D+00 0.179D+00
 Coeff-Com:  0.543D+00
 Coeff-En:   0.000D+00 0.000D+00 0.000D+00 0.000D+00 0.000D+00 0.000D+00
 Coeff-En:   0.100D+01
 Coeff:     -0.250D-02 0.409D-01 0.542D-01 0.481D-01 0.116D+00 0.165D+00
 Coeff:      0.578D+00
 Gap=     0.154 Goal=   None    Shift=    0.000
 Gap=     0.094 Goal=   None    Shift=    0.000
 RMSDP=1.15D-03 MaxDP=1.96D-02 DE=-1.68D-02 OVMax= 1.07D-01

 Cycle   8  Pass 0  IDiag  1:
 E= -268.789593042145     Delta-E=       -0.002924677234 Rises=F Damp=F
 DIIS: error= 5.83D-03 at cycle   8 NSaved=   8.
 NSaved= 8 IEnMin= 8 EnMin= -268.789593042145     IErMin= 8 ErrMin= 5.83D-03
 ErrMax= 5.83D-03 EMaxC= 1.00D-01 BMatC= 1.06D-02 BMatP= 6.37D-03
 IDIUse=3 WtCom= 9.23D-01 WtEn= 7.67D-02
 Coeff-Com: -0.120D-02 0.976D-02 0.673D-01 0.128D+00-0.245D-01-0.734D+00
 Coeff-Com:  0.499D+00 0.106D+01
 Coeff-En:   0.000D+00 0.000D+00 0.000D+00 0.000D+00 0.000D+00 0.000D+00
 Coeff-En:   0.000D+00 0.100D+01
 Coeff:     -0.110D-02 0.901D-02 0.621D-01 0.118D+00-0.226D-01-0.677D+00
 Coeff:      0.460D+00 0.105D+01
 Gap=     0.218 Goal=   None    Shift=    0.000
 Gap=     0.099 Goal=   None    Shift=    0.000
 RMSDP=8.88D-04 MaxDP=1.06D-02 DE=-2.92D-03 OVMax= 6.37D-02

 Cycle   9  Pass 0  IDiag  1:
 E= -268.793241279567     Delta-E=       -0.003648237422 Rises=F Damp=F
 DIIS: error= 2.04D-03 at cycle   9 NSaved=   9.
 NSaved= 9 IEnMin= 9 EnMin= -268.793241279567     IErMin= 9 ErrMin= 2.04D-03
 ErrMax= 2.04D-03 EMaxC= 1.00D-01 BMatC= 1.28D-03 BMatP= 6.37D-03
 IDIUse=3 WtCom= 9.80D-01 WtEn= 2.04D-02
 Coeff-Com: -0.121D-01 0.364D-02 0.178D-01 0.927D-01 0.107D+00-0.165D+00
 Coeff-Com: -0.317D+00 0.242D+00 0.103D+01
 Coeff-En:   0.000D+00 0.000D+00 0.000D+00 0.000D+00 0.000D+00 0.000D+00
 Coeff-En:   0.000D+00 0.000D+00 0.100D+01
 Coeff:     -0.118D-01 0.357D-02 0.175D-01 0.908D-01 0.105D+00-0.161D+00
 Coeff:     -0.311D+00 0.237D+00 0.103D+01
 Gap=     0.230 Goal=   None    Shift=    0.000
 Gap=     0.094 Goal=   None    Shift=    0.000
 RMSDP=1.66D-04 MaxDP=2.60D-03 DE=-3.65D-03 OVMax= 4.50D-03

 Cycle  10  Pass 0  IDiag  1:
 E= -268.793507428693     Delta-E=       -0.000266149126 Rises=F Damp=F
 DIIS: error= 1.40D-03 at cycle  10 NSaved=  10.
 NSaved=10 IEnMin=10 EnMin= -268.793507428693     IErMin=10 ErrMin= 1.40D-03
 ErrMax= 1.40D-03 EMaxC= 1.00D-01 BMatC= 3.73D-04 BMatP= 1.28D-03
 IDIUse=3 WtCom= 9.86D-01 WtEn= 1.40D-02
 Coeff-Com: -0.750D-02 0.357D-02-0.318D-03 0.363D-01 0.795D-01 0.737D-01
 Coeff-Com: -0.331D+00-0.173D+00 0.537D+00 0.782D+00
 Coeff-En:   0.000D+00 0.000D+00 0.000D+00 0.000D+00 0.000D+00 0.000D+00
 Coeff-En:   0.000D+00 0.000D+00 0.000D+00 0.100D+01
 Coeff:     -0.740D-02 0.352D-02-0.313D-03 0.358D-01 0.784D-01 0.726D-01
 Coeff:     -0.326D+00-0.170D+00 0.529D+00 0.785D+00
 Gap=     0.242 Goal=   None    Shift=    0.000
 Gap=     0.094 Goal=   None    Shift=    0.000
 RMSDP=1.07D-04 MaxDP=1.76D-03 DE=-2.66D-04 OVMax= 4.54D-03

 Cycle  11  Pass 0  IDiag  1:
 E= -268.793611755214     Delta-E=       -0.000104326521 Rises=F Damp=F
 DIIS: error= 4.64D-04 at cycle  11 NSaved=  11.
 NSaved=11 IEnMin=11 EnMin= -268.793611755214     IErMin=11 ErrMin= 4.64D-04
 ErrMax= 4.64D-04 EMaxC= 1.00D-01 BMatC= 5.07D-05 BMatP= 3.73D-04
 IDIUse=3 WtCom= 9.95D-01 WtEn= 4.64D-03
 Coeff-Com: -0.897D-03 0.109D-02-0.217D-02 0.450D-02 0.106D-01 0.387D-01
 Coeff-Com: -0.974D-01-0.118D+00 0.840D-02 0.214D+00 0.941D+00
 Coeff-En:   0.000D+00 0.000D+00 0.000D+00 0.000D+00 0.000D+00 0.000D+00
 Coeff-En:   0.000D+00 0.000D+00 0.000D+00 0.000D+00 0.100D+01
 Coeff:     -0.892D-03 0.109D-02-0.216D-02 0.448D-02 0.105D-01 0.386D-01
 Coeff:     -0.969D-01-0.117D+00 0.836D-02 0.213D+00 0.941D+00
 Gap=     0.253 Goal=   None    Shift=    0.000
 Gap=     0.096 Goal=   None    Shift=    0.000
 RMSDP=1.03D-04 MaxDP=1.47D-03 DE=-1.04D-04 OVMax= 6.55D-03

 Cycle  12  Pass 0  IDiag  1:
 E= -268.793638658996     Delta-E=       -0.000026903783 Rises=F Damp=F
 DIIS: error= 1.00D-04 at cycle  12 NSaved=  12.
 NSaved=12 IEnMin=12 EnMin= -268.793638658996     IErMin=12 ErrMin= 1.00D-04
 ErrMax= 1.00D-04 EMaxC= 1.00D-01 BMatC= 2.07D-06 BMatP= 5.07D-05
 IDIUse=3 WtCom= 9.99D-01 WtEn= 1.00D-03
 Coeff-Com:  0.265D-03-0.574D-03-0.349D-03 0.110D-02-0.117D-02-0.343D-02
 Coeff-Com: -0.104D-01 0.616D-02 0.213D-01-0.667D-02-0.166D-01 0.101D+01
 Coeff-En:   0.000D+00 0.000D+00 0.000D+00 0.000D+00 0.000D+00 0.000D+00
 Coeff-En:   0.000D+00 0.000D+00 0.000D+00 0.000D+00 0.000D+00 0.100D+01
 Coeff:      0.265D-03-0.573D-03-0.349D-03 0.110D-02-0.117D-02-0.342D-02
 Coeff:     -0.104D-01 0.616D-02 0.213D-01-0.666D-02-0.166D-01 0.101D+01
 Gap=     0.254 Goal=   None    Shift=    0.000
 Gap=     0.097 Goal=   None    Shift=    0.000
 RMSDP=2.09D-05 MaxDP=4.20D-04 DE=-2.69D-05 OVMax= 2.04D-03

 Cycle  13  Pass 0  IDiag  1:
 E= -268.793639582595     Delta-E=       -0.000000923599 Rises=F Damp=F
 DIIS: error= 4.56D-05 at cycle  13 NSaved=  13.
 NSaved=13 IEnMin=13 EnMin= -268.793639582595     IErMin=13 ErrMin= 4.56D-05
 ErrMax= 4.56D-05 EMaxC= 1.00D-01 BMatC= 6.26D-07 BMatP= 2.07D-06
 IDIUse=1 WtCom= 1.00D+00 WtEn= 0.00D+00
 Coeff-Com:  0.269D-03-0.363D-03 0.591D-04-0.439D-03-0.679D-03-0.145D-02
 Coeff-Com:  0.127D-02 0.933D-02 0.137D-01-0.520D-02-0.706D-01 0.103D+00
 Coeff-Com:  0.951D+00
 Coeff:      0.269D-03-0.363D-03 0.591D-04-0.439D-03-0.679D-03-0.145D-02
 Coeff:      0.127D-02 0.933D-02 0.137D-01-0.520D-02-0.706D-01 0.103D+00
 Coeff:      0.951D+00
 Gap=     0.254 Goal=   None    Shift=    0.000
 Gap=     0.097 Goal=   None    Shift=    0.000
 RMSDP=6.21D-06 MaxDP=8.74D-05 DE=-9.24D-07 OVMax= 4.38D-04

 Initial convergence to 1.0D-05 achieved.  Increase integral accuracy.
 Cycle  14  Pass 1  IDiag  1:
 E= -268.793628153075     Delta-E=        0.000011429520 Rises=F Damp=F
 DIIS: error= 1.47D-05 at cycle   1 NSaved=   1.
 NSaved= 1 IEnMin= 1 EnMin= -268.793628153075     IErMin= 1 ErrMin= 1.47D-05
 ErrMax= 1.47D-05 EMaxC= 1.00D-01 BMatC= 6.89D-08 BMatP= 6.89D-08
 IDIUse=1 WtCom= 1.00D+00 WtEn= 0.00D+00
 Coeff-Com:  0.100D+01
 Coeff:      0.100D+01
 Gap=     0.253 Goal=   None    Shift=    0.000
 Gap=     0.097 Goal=   None    Shift=    0.000
 RMSDP=6.21D-06 MaxDP=8.74D-05 DE= 1.14D-05 OVMax= 1.51D-04

 Cycle  15  Pass 1  IDiag  1:
 E= -268.793628169775     Delta-E=       -0.000000016700 Rises=F Damp=F
 DIIS: error= 1.16D-05 at cycle   2 NSaved=   2.
 NSaved= 2 IEnMin= 2 EnMin= -268.793628169775     IErMin= 2 ErrMin= 1.16D-05
 ErrMax= 1.16D-05 EMaxC= 1.00D-01 BMatC= 4.04D-08 BMatP= 6.89D-08
 IDIUse=1 WtCom= 1.00D+00 WtEn= 0.00D+00
 Coeff-Com:  0.414D+00 0.586D+00
 Coeff:      0.414D+00 0.586D+00
 Gap=     0.254 Goal=   None    Shift=    0.000
 Gap=     0.097 Goal=   None    Shift=    0.000
 RMSDP=1.54D-06 MaxDP=2.56D-05 DE=-1.67D-08 OVMax= 1.13D-04

 Cycle  16  Pass 1  IDiag  1:
 E= -268.793628178438     Delta-E=       -0.000000008662 Rises=F Damp=F
 DIIS: error= 5.39D-06 at cycle   3 NSaved=   3.
 NSaved= 3 IEnMin= 3 EnMin= -268.793628178438     IErMin= 3 ErrMin= 5.39D-06
 ErrMax= 5.39D-06 EMaxC= 1.00D-01 BMatC= 6.09D-09 BMatP= 4.04D-08
 IDIUse=1 WtCom= 1.00D+00 WtEn= 0.00D+00
 Coeff-Com:  0.165D-01 0.261D+00 0.723D+00
 Coeff:      0.165D-01 0.261D+00 0.723D+00
 Gap=     0.254 Goal=   None    Shift=    0.000
 Gap=     0.097 Goal=   None    Shift=    0.000
 RMSDP=4.98D-07 MaxDP=1.15D-05 DE=-8.66D-09 OVMax= 2.07D-05

 Cycle  17  Pass 1  IDiag  1:
 E= -268.793628178951     Delta-E=       -0.000000000514 Rises=F Damp=F
 DIIS: error= 6.36D-06 at cycle   4 NSaved=   4.
 NSaved= 4 IEnMin= 4 EnMin= -268.793628178951     IErMin= 3 ErrMin= 5.39D-06
 ErrMax= 6.36D-06 EMaxC= 1.00D-01 BMatC= 4.98D-09 BMatP= 6.09D-09
 IDIUse=1 WtCom= 1.00D+00 WtEn= 0.00D+00
 Coeff-Com: -0.324D-01 0.131D+00 0.538D+00 0.363D+00
 Coeff:     -0.324D-01 0.131D+00 0.538D+00 0.363D+00
 Gap=     0.254 Goal=   None    Shift=    0.000
 Gap=     0.097 Goal=   None    Shift=    0.000
 RMSDP=2.55D-07 MaxDP=8.90D-06 DE=-5.14D-10 OVMax= 1.56D-05

 Cycle  18  Pass 1  IDiag  1:
 E= -268.793628179810     Delta-E=       -0.000000000858 Rises=F Damp=F
 DIIS: error= 1.48D-06 at cycle   5 NSaved=   5.
 NSaved= 5 IEnMin= 5 EnMin= -268.793628179810     IErMin= 5 ErrMin= 1.48D-06
 ErrMax= 1.48D-06 EMaxC= 1.00D-01 BMatC= 2.62D-10 BMatP= 4.98D-09
 IDIUse=1 WtCom= 1.00D+00 WtEn= 0.00D+00
 Coeff-Com: -0.198D-01 0.376D-01 0.175D+00 0.215D+00 0.592D+00
 Coeff:     -0.198D-01 0.376D-01 0.175D+00 0.215D+00 0.592D+00
 Gap=     0.254 Goal=   None    Shift=    0.000
 Gap=     0.097 Goal=   None    Shift=    0.000
 RMSDP=8.44D-08 MaxDP=1.65D-06 DE=-8.58D-10 OVMax= 4.43D-06

 Cycle  19  Pass 1  IDiag  1:
 E= -268.793628179862     Delta-E=       -0.000000000052 Rises=F Damp=F
 DIIS: error= 2.05D-07 at cycle   6 NSaved=   6.
 NSaved= 6 IEnMin= 6 EnMin= -268.793628179862     IErMin= 6 ErrMin= 2.05D-07
 ErrMax= 2.05D-07 EMaxC= 1.00D-01 BMatC= 1.61D-11 BMatP= 2.62D-10
 IDIUse=1 WtCom= 1.00D+00 WtEn= 0.00D+00
 Coeff-Com:  0.171D-02-0.168D-01-0.882D-01-0.125D-01 0.132D+00 0.984D+00
 Coeff:      0.171D-02-0.168D-01-0.882D-01-0.125D-01 0.132D+00 0.984D+00
 Gap=     0.254 Goal=   None    Shift=    0.000
 Gap=     0.097 Goal=   None    Shift=    0.000
 RMSDP=3.48D-08 MaxDP=6.96D-07 DE=-5.17D-11 OVMax= 1.06D-06

 Cycle  20  Pass 1  IDiag  1:
 E= -268.793628179867     Delta-E=       -0.000000000005 Rises=F Damp=F
 DIIS: error= 9.62D-08 at cycle   7 NSaved=   7.
 NSaved= 7 IEnMin= 7 EnMin= -268.793628179867     IErMin= 7 ErrMin= 9.62D-08
 ErrMax= 9.62D-08 EMaxC= 1.00D-01 BMatC= 1.03D-12 BMatP= 1.61D-11
 IDIUse=1 WtCom= 1.00D+00 WtEn= 0.00D+00
 Coeff-Com:  0.135D-02-0.491D-02-0.272D-01-0.786D-02-0.140D-01 0.203D+00
 Coeff-Com:  0.849D+00
 Coeff:      0.135D-02-0.491D-02-0.272D-01-0.786D-02-0.140D-01 0.203D+00
 Coeff:      0.849D+00
 Gap=     0.254 Goal=   None    Shift=    0.000
 Gap=     0.097 Goal=   None    Shift=    0.000
 RMSDP=7.85D-09 MaxDP=1.25D-07 DE=-5.34D-12 OVMax= 2.94D-07

 SCF Done:  E(UB3LYP) =  -268.793628180     A.U. after   20 cycles
             Convg  =    0.7855D-08             -V/T =  2.0092
 <Sx>= 0.0000 <Sy>= 0.0000 <Sz>= 0.5000 <S**2>= 1.6983 S= 0.8958
 <L.S>= 0.000000000000E+00
 KE= 2.663350428721D+02 PE=-9.443275907612D+02 EE= 2.511531010242D+02
 Annihilation of the first spin contaminant:
 S**2 before annihilation     1.6983,   after     0.7807
 Leave Link  502 at Wed Apr  1 00:24:26 2015, MaxMem= 3758096384 cpu:      55.4
 (Enter /share/apps/g09/l601.exe)
 Copying SCF densities to generalized density rwf, IOpCl= 1 IROHF=0.

 **********************************************************************

            Population analysis using the SCF density.

 **********************************************************************

 Orbital symmetries:
 Alpha Orbitals:
       Occupied  (A) (A) (A) (A) (A) (A) (A) (A) (A) (A) (A) (A)
                 (A) (A) (A) (A) (A) (A) (A) (A) (A)
       Virtual   (A) (A) (A) (A) (A) (A) (A) (A) (A) (A) (A) (A)
                 (A) (A) (A) (A) (A) (A) (A) (A) (A) (A) (A) (A)
                 (A) (A) (A) (A) (A) (A) (A) (A) (A) (A) (A) (A)
                 (A) (A) (A) (A) (A) (A) (A) (A) (A) (A) (A) (A)
                 (A) (A) (A) (A) (A) (A) (A) (A) (A) (A) (A) (A)
                 (A) (A) (A) (A) (A) (A) (A) (A)
 Beta  Orbitals:
       Occupied  (A) (A) (A) (A) (A) (A) (A) (A) (A) (A) (A) (A)
                 (A) (A) (A) (A) (A) (A) (A) (A)
       Virtual   (A) (A) (A) (A) (A) (A) (A) (A) (A) (A) (A) (A)
                 (A) (A) (A) (A) (A) (A) (A) (A) (A) (A) (A) (A)
                 (A) (A) (A) (A) (A) (A) (A) (A) (A) (A) (A) (A)
                 (A) (A) (A) (A) (A) (A) (A) (A) (A) (A) (A) (A)
                 (A) (A) (A) (A) (A) (A) (A) (A) (A) (A) (A) (A)
                 (A) (A) (A) (A) (A) (A) (A) (A) (A)
 The electronic state is 2-A.
 Alpha  occ. eigenvalues --  -19.30013 -19.29524 -10.19011 -10.17957 -10.17527
 Alpha  occ. eigenvalues --   -1.28349  -0.82511  -0.77386  -0.65870  -0.56991
 Alpha  occ. eigenvalues --   -0.54442  -0.54215  -0.53290  -0.44971  -0.43411
 Alpha  occ. eigenvalues --   -0.40292  -0.35317  -0.34749  -0.34044  -0.29596
 Alpha  occ. eigenvalues --   -0.29414
 Alpha virt. eigenvalues --   -0.04064   0.10387   0.14597   0.14879   0.15634
 Alpha virt. eigenvalues --    0.17201   0.18699   0.20289   0.20696   0.24535
 Alpha virt. eigenvalues --    0.28294   0.51118   0.51915   0.53776   0.57586
 Alpha virt. eigenvalues --    0.59201   0.62686   0.66968   0.69662   0.71884
 Alpha virt. eigenvalues --    0.74782   0.78383   0.79588   0.83630   0.85080
 Alpha virt. eigenvalues --    0.86889   0.88263   0.88958   0.90775   0.92190
 Alpha virt. eigenvalues --    0.94502   0.95829   0.98536   1.01049   1.04813
 Alpha virt. eigenvalues --    1.21894   1.32042   1.44086   1.49276   1.49932
 Alpha virt. eigenvalues --    1.50902   1.53018   1.54017   1.59849   1.72678
 Alpha virt. eigenvalues --    1.85163   1.90451   1.90710   1.93292   1.95369
 Alpha virt. eigenvalues --    2.01326   2.08530   2.17386   2.24127   2.33870
 Alpha virt. eigenvalues --    2.36971   2.40457   2.43299   2.54530   2.55028
 Alpha virt. eigenvalues --    2.61743   2.68590   2.82085   3.19132   3.53138
 Alpha virt. eigenvalues --    4.12344   4.24317   4.44828
  Beta  occ. eigenvalues --  -19.27124 -19.26671 -10.19288 -10.18926 -10.17554
  Beta  occ. eigenvalues --   -1.22665  -0.78310  -0.73848  -0.67537  -0.58344
  Beta  occ. eigenvalues --   -0.49483  -0.45537  -0.44566  -0.44332  -0.43867
  Beta  occ. eigenvalues --   -0.40807  -0.35923  -0.35297  -0.34347  -0.19953
  Beta virt. eigenvalues --   -0.10241  -0.10204   0.10206   0.13634   0.14430
  Beta virt. eigenvalues --    0.15394   0.17184   0.18496   0.19901   0.24024
  Beta virt. eigenvalues --    0.24817   0.27697   0.50770   0.51240   0.52047
  Beta virt. eigenvalues --    0.56719   0.58599   0.60194   0.66723   0.70715
  Beta virt. eigenvalues --    0.72447   0.75602   0.79695   0.81879   0.85386
  Beta virt. eigenvalues --    0.86677   0.87402   0.89431   0.90006   0.92362
  Beta virt. eigenvalues --    0.93386   0.93964   0.95612   0.99394   1.02522
  Beta virt. eigenvalues --    1.06420   1.21854   1.34124   1.42524   1.49155
  Beta virt. eigenvalues --    1.53091   1.53695   1.58137   1.59041   1.59998
  Beta virt. eigenvalues --    1.67596   1.83755   1.91428   1.94379   1.97121
  Beta virt. eigenvalues --    1.97786   1.99315   2.06321   2.14645   2.23800
  Beta virt. eigenvalues --    2.33284   2.35696   2.42559   2.43986   2.58666
  Beta virt. eigenvalues --    2.59078   2.61013   2.68058   2.84579   3.23406
  Beta virt. eigenvalues --    3.57378   4.10613   4.23103   4.44430
          Condensed to atoms (all electrons):
              1          2          3          4          5          6
     1  C    5.066264   0.376637   0.370443   0.378580   0.378352  -0.036070
     2  H    0.376637   0.563680  -0.029309  -0.031915  -0.035338  -0.004876
     3  H    0.370443  -0.029309   0.576362  -0.031189  -0.028593  -0.002776
     4  H    0.378580  -0.031915  -0.031189   0.575298  -0.035695   0.005057
     5  C    0.378352  -0.035338  -0.028593  -0.035695   4.911616   0.378020
     6  H   -0.036070  -0.004876  -0.002776   0.005057   0.378020   0.595306
     7  H   -0.041264   0.005412  -0.002296  -0.004491   0.369988  -0.042101
     8  C   -0.047716  -0.000801   0.004482  -0.004176   0.393142  -0.040435
     9  H    0.003875   0.000025  -0.000154  -0.000012  -0.031434  -0.004197
    10  H   -0.005387   0.000125   0.000045   0.004232  -0.039586   0.004485
    11  O   -0.000909   0.003314   0.000008  -0.000004  -0.000032  -0.000002
    12  O    0.000030  -0.000099   0.000000   0.000001   0.000007   0.000003
              7          8          9         10         11         12
     1  C   -0.041264  -0.047716   0.003875  -0.005387  -0.000909   0.000030
     2  H    0.005412  -0.000801   0.000025   0.000125   0.003314  -0.000099
     3  H   -0.002296   0.004482  -0.000154   0.000045   0.000008   0.000000
     4  H   -0.004491  -0.004176  -0.000012   0.004232  -0.000004   0.000001
     5  C    0.369988   0.393142  -0.031434  -0.039586  -0.000032   0.000007
     6  H   -0.042101  -0.040435  -0.004197   0.004485  -0.000002   0.000003
     7  H    0.615370  -0.049735   0.000875   0.000521   0.000019  -0.000001
     8  C   -0.049735   5.288151   0.368124   0.373134   0.010468  -0.001338
     9  H    0.000875   0.368124   0.555339  -0.037583  -0.000059   0.000010
    10  H    0.000521   0.373134  -0.037583   0.554806  -0.000215   0.000244
    11  O    0.000019   0.010468  -0.000059  -0.000215   7.882256   0.113430
    12  O   -0.000001  -0.001338   0.000010   0.000244   0.113430   7.908955
 Mulliken atomic charges:
              1
     1  C   -0.442835
     2  H    0.153146
     3  H    0.142978
     4  H    0.144314
     5  C   -0.260448
     6  H    0.147587
     7  H    0.147703
     8  C   -0.293301
     9  H    0.145192
    10  H    0.145181
    11  O   -0.008275
    12  O   -0.021242
 Sum of Mulliken atomic charges =   0.00000
 Mulliken charges with hydrogens summed into heavy atoms:
              1
     1  C   -0.002397
     5  C    0.034842
     8  C   -0.002927
    11  O   -0.008275
    12  O   -0.021242
 Sum of Mulliken charges with hydrogens summed into heavy atoms =   0.00000
          Atomic-Atomic Spin Densities.
              1          2          3          4          5          6
     1  C   -0.021897   0.005075   0.003681  -0.001119  -0.007634  -0.006238
     2  H    0.005075  -0.003345  -0.001689   0.000943   0.000907   0.001210
     3  H    0.003681  -0.001689  -0.001810   0.000621  -0.000271   0.000967
     4  H   -0.001119   0.000943   0.000621  -0.000200  -0.000680  -0.000252
     5  C   -0.007634   0.000907  -0.000271  -0.000680   0.062060  -0.005995
     6  H   -0.006238   0.001210   0.000967  -0.000252  -0.005995  -0.030323
     7  H    0.008981  -0.000875  -0.002092   0.001317  -0.012243   0.013307
     8  C    0.011089  -0.004680  -0.000422   0.000324   0.037182   0.011147
     9  H   -0.000053   0.000035   0.000001  -0.000019   0.000323  -0.000871
    10  H   -0.000822   0.000107   0.000047  -0.000124  -0.000181  -0.000137
    11  O   -0.000161   0.000519   0.000001   0.000007   0.000180   0.000035
    12  O    0.000044  -0.000222   0.000000  -0.000002  -0.000006   0.000000
              7          8          9         10         11         12
     1  C    0.008981   0.011089  -0.000053  -0.000822  -0.000161   0.000044
     2  H   -0.000875  -0.004680   0.000035   0.000107   0.000519  -0.000222
     3  H   -0.002092  -0.000422   0.000001   0.000047   0.000001   0.000000
     4  H    0.001317   0.000324  -0.000019  -0.000124   0.000007  -0.000002
     5  C   -0.012243   0.037182   0.000323  -0.000181   0.000180  -0.000006
     6  H    0.013307   0.011147  -0.000871  -0.000137   0.000035   0.000000
     7  H   -0.097632   0.030130   0.000589   0.000584  -0.000006   0.000000
     8  C    0.030130  -1.136214   0.006517   0.007563  -0.003368   0.000564
     9  H    0.000589   0.006517   0.044403  -0.002279   0.000043  -0.000005
    10  H    0.000584   0.007563  -0.002279   0.043771  -0.000230   0.000043
    11  O   -0.000006  -0.003368   0.000043  -0.000230   1.299631  -0.314805
    12  O    0.000000   0.000564  -0.000005   0.000043  -0.314805   1.288352
 Mulliken atomic spin densities:
              1
     1  C   -0.009054
     2  H   -0.002016
     3  H   -0.000968
     4  H    0.000816
     5  C    0.073641
     6  H   -0.017150
     7  H   -0.057939
     8  C   -1.040168
     9  H    0.048685
    10  H    0.048343
    11  O    0.981848
    12  O    0.973962
 Sum of Mulliken atomic spin densities =   1.00000
 Electronic spatial extent (au):  <R**2>=            740.4297
 Charge=              0.0000 electrons
 Dipole moment (field-independent basis, Debye):
    X=             -0.7692    Y=              0.1525    Z=             -0.0446  Tot=              0.7855
 Quadrupole moment (field-independent basis, Debye-Ang):
   XX=            -31.1856   YY=            -30.3575   ZZ=            -30.2495
   XY=              0.1971   XZ=              0.0412   YZ=             -0.1252
 Traceless Quadrupole moment (field-independent basis, Debye-Ang):
   XX=             -0.5880   YY=              0.2400   ZZ=              0.3480
   XY=              0.1971   XZ=              0.0412   YZ=             -0.1252
 Octapole moment (field-independent basis, Debye-Ang**2):
  XXX=             17.2875  YYY=             -0.1824  ZZZ=             -0.3883  XYY=              8.3042
  XXY=             -0.9378  XXZ=             -2.2618  XZZ=              6.6402  YZZ=             -0.3919
  YYZ=             -1.6096  XYZ=              0.3769
 Hexadecapole moment (field-independent basis, Debye-Ang**3):
 XXXX=           -654.8889 YYYY=           -178.0573 ZZZZ=            -69.1051 XXXY=             -0.8273
 XXXZ=             -2.2402 YYYX=             -2.4014 YYYZ=             -1.9439 ZZZX=             -0.3658
 ZZZY=             -0.5116 XXYY=           -139.0272 XXZZ=           -121.0392 YYZZ=            -42.6976
 XXYZ=              0.3978 YYXZ=              1.6041 ZZXY=             -0.4081
 N-N= 1.580458186850D+02 E-N=-1.406014916550D+03  KE= 3.968329064346D+02
                          Isotropic Fermi Contact Couplings
        Atom                 a.u.       MegaHertz       Gauss      10(-4) cm-1
     1  C(13)             -0.01308     -14.70039      -5.24546      -4.90352
     2  H(1)               0.00051       2.26750       0.80910       0.75636
     3  H(1)               0.00010       0.42776       0.15263       0.14268
     4  H(1)               0.00031       1.39069       0.49623       0.46388
     5  C(13)              0.02442      27.45748       9.79751       9.15883
     6  H(1)              -0.00943     -42.17069     -15.04755     -14.06663
     7  H(1)              -0.03017    -134.86558     -48.12339     -44.98631
     8  C(13)             -0.11660    -131.07815     -46.77194     -43.72296
     9  H(1)               0.01447      64.66230      23.07312      21.56902
    10  H(1)               0.01435      64.14087      22.88706      21.39509
    11  O(17)              0.12855     -77.92587     -27.80589     -25.99327
    12  O(17)              0.13574     -82.28339     -29.36076     -27.44678
 --------------------------------------------------------
       Center         ----  Spin Dipole Couplings  ----
                      3XX-RR        3YY-RR        3ZZ-RR
 --------------------------------------------------------
     1   Atom        0.015870     -0.020831      0.004960
     2   Atom        0.015923     -0.015004     -0.000919
     3   Atom        0.004755     -0.005787      0.001032
     4   Atom        0.007442     -0.008255      0.000814
     5   Atom       -0.001861     -0.002876      0.004736
     6   Atom        0.010821      0.000872     -0.011693
     7   Atom       -0.008926      0.003094      0.005832
     8   Atom       -0.438199      0.132773      0.305426
     9   Atom        0.022036     -0.048832      0.026797
    10   Atom        0.024744      0.043813     -0.068557
    11   Atom       -0.512551      1.101460     -0.588909
    12   Atom       -0.523681      1.155060     -0.631379
 --------------------------------------------------------
                        XY            XZ            YZ
 --------------------------------------------------------
     1   Atom       -0.008385      0.000219      0.006559
     2   Atom        0.009081     -0.002088     -0.002357
     3   Atom       -0.001756     -0.000720     -0.001288
     4   Atom       -0.002985     -0.000331      0.004252
     5   Atom       -0.007324     -0.001595     -0.009721
     6   Atom       -0.005782     -0.006414     -0.008800
     7   Atom       -0.006470     -0.006443     -0.003805
     8   Atom        0.594693      0.434903     -0.270193
     9   Atom       -0.018283      0.033745      0.041638
    10   Atom        0.024330     -0.026261      0.014288
    11   Atom        0.293568     -1.677222      0.287543
    12   Atom        0.348512     -1.624767      0.234653
 --------------------------------------------------------


 ---------------------------------------------------------------------------------
              Anisotropic Spin Dipole Couplings in Principal Axis System
 ---------------------------------------------------------------------------------

       Atom             a.u.   MegaHertz   Gauss  10(-4) cm-1        Axes

              Baa    -0.0241    -3.233    -1.154    -1.078  0.2016  0.9551 -0.2171
     1 C(13)  Bbb     0.0063     0.843     0.301     0.281  0.1443  0.1903  0.9711
              Bcc     0.0178     2.390     0.853     0.797  0.9688 -0.2271 -0.0994
 
              Baa    -0.0177    -9.419    -3.361    -3.142 -0.2537  0.9617  0.1038
     2 H(1)   Bbb    -0.0011    -0.583    -0.208    -0.195  0.1558 -0.0653  0.9856
              Bcc     0.0187    10.002     3.569     3.336  0.9547  0.2662 -0.1333
 
              Baa    -0.0063    -3.380    -1.206    -1.127  0.1654  0.9686  0.1856
     3 H(1)   Bbb     0.0012     0.656     0.234     0.219  0.0978 -0.2033  0.9742
              Bcc     0.0051     2.724     0.972     0.909  0.9814 -0.1430 -0.1284
 
              Baa    -0.0103    -5.515    -1.968    -1.840  0.1489  0.9254 -0.3485
     4 H(1)   Bbb     0.0022     1.152     0.411     0.384  0.2327  0.3097  0.9219
              Bcc     0.0082     4.363     1.557     1.455  0.9611 -0.2184 -0.1692
 
              Baa    -0.0137    -1.838    -0.656    -0.613  0.5155  0.7388  0.4341
     5 C(13)  Bbb     0.0017     0.222     0.079     0.074  0.8244 -0.2895 -0.4863
              Bcc     0.0120     1.617     0.577     0.539  0.2335 -0.6086  0.7583
 
              Baa    -0.0186    -9.928    -3.543    -3.312  0.2746  0.4624  0.8431
     6 H(1)   Bbb     0.0049     2.602     0.928     0.868  0.2310  0.8194 -0.5246
              Bcc     0.0137     7.327     2.614     2.444  0.9334 -0.3388 -0.1182
 
              Baa    -0.0145    -7.720    -2.755    -2.575  0.8544  0.3893  0.3442
     7 H(1)   Bbb     0.0057     3.022     1.078     1.008 -0.4856  0.8339  0.2623
              Bcc     0.0088     4.698     1.676     1.567 -0.1849 -0.3912  0.9015
 
              Baa    -1.0114  -135.726   -48.430   -45.273  0.7892 -0.4958 -0.3624
     8 C(13)  Bbb     0.5027    67.462    24.072    22.503 -0.0304 -0.6209  0.7833
              Bcc     0.5087    68.264    24.358    22.770  0.6133  0.6072  0.5051
 
              Baa    -0.0770   -41.096   -14.664   -13.708  0.3053  0.8454 -0.4383
     9 H(1)   Bbb     0.0150     8.019     2.861     2.675  0.7582 -0.4943 -0.4252
              Bcc     0.0620    33.077    11.803    11.033  0.5761  0.2025  0.7919
 
              Baa    -0.0788   -42.043   -15.002   -14.024  0.2788 -0.1656  0.9460
    10 H(1)   Bbb     0.0183     9.768     3.486     3.258  0.7686 -0.5521 -0.3232
              Bcc     0.0605    32.274    11.516    10.766  0.5758  0.8172 -0.0267
 
              Baa    -2.2783   164.858    58.825    54.991  0.6941 -0.1207  0.7097
    11 O(17)  Bbb     1.1241   -81.335   -29.023   -27.131 -0.6540  0.3062  0.6918
              Bcc     1.1543   -83.523   -29.803   -27.860  0.3008  0.9443 -0.1337
 
              Baa    -2.2528   163.010    58.166    54.374  0.6926 -0.1198  0.7113
    12 O(17)  Bbb     1.0096   -73.055   -26.068   -24.369 -0.6209  0.4030  0.6724
              Bcc     1.2432   -89.955   -32.098   -30.006  0.3672  0.9073 -0.2047
 

 ---------------------------------------------------------------------------------

 No NMR shielding tensors so no spin-rotation constants.
 Leave Link  601 at Wed Apr  1 00:24:27 2015, MaxMem= 3758096384 cpu:       4.2
 (Enter /share/apps/g09/l701.exe)
 Compute integral first derivatives.
 ... and contract with generalized density number  0.
 Leave Link  701 at Wed Apr  1 00:24:27 2015, MaxMem= 3758096384 cpu:       3.5
 (Enter /share/apps/g09/l702.exe)
 L702 exits ... SP integral derivatives will be done elsewhere.
 Leave Link  702 at Wed Apr  1 00:24:27 2015, MaxMem= 3758096384 cpu:       0.2
 (Enter /share/apps/g09/l703.exe)
 Compute integral first derivatives, UseDBF=F ICtDFT=           0.
 Integral derivatives from FoFDir, PRISM(SPDF).
 Calling FoFJK, ICntrl=      2127 FMM=F ISym2X=0 I1Cent= 0 IOpClX= 1 NMat=1 NMatS=1 NMatT=0.
 FoFCou: FMM=F IPFlag=           0 FMFlag=      100000 FMFlg1=         800
         NFxFlg=           0 DoJE=F BraDBF=F KetDBF=F FulRan=T
         Omega=  0.000000  0.000000  1.000000  0.000000  0.000000 ICntrl=    2127 IOpCl=  1
         NMat0=    1 NMatS0=    1 NMatT0=    0 NMatD0=    1 NMtDS0=    0 NMtDT0=    0
         I1Cent=           0 NGrid=           0.
 Symmetry not used in FoFCou.
 Leave Link  703 at Wed Apr  1 00:24:29 2015, MaxMem= 3758096384 cpu:      12.0
 (Enter /share/apps/g09/l716.exe)
 Dipole        =-3.02630421D-01 6.00119675D-02-1.75298713D-02
 ***** Axes restored to original set *****
 -------------------------------------------------------------------
 Center     Atomic                   Forces (Hartrees/Bohr)
 Number     Number              X              Y              Z
 -------------------------------------------------------------------
      1        6          -0.000028600    0.000041005   -0.000050362
      2        1           0.000074445   -0.000014712   -0.000004755
      3        1           0.000005547   -0.000037044   -0.000007783
      4        1           0.000008635    0.000002993   -0.000000613
      5        6          -0.000074031    0.000088847    0.000006702
      6        1          -0.000021054   -0.000049951   -0.000032092
      7        1          -0.000055202   -0.000078053   -0.000025178
      8        6           0.001392129   -0.000551283   -0.000343510
      9        1           0.000057250    0.000006655   -0.000043090
     10        1           0.000041995   -0.000046661    0.000033629
     11        8          -0.000290227    0.000454129    0.001606149
     12        8          -0.001110888    0.000184075   -0.001139097
 -------------------------------------------------------------------
 Cartesian Forces:  Max     0.001606149 RMS     0.000466827
 Leave Link  716 at Wed Apr  1 00:24:29 2015, MaxMem= 3758096384 cpu:       0.2
 (Enter /share/apps/g09/l103.exe)

 GradGradGradGradGradGradGradGradGradGradGradGradGradGradGradGradGradGrad
 Berny optimization.
 Internal  Forces:  Max     0.001001048 RMS     0.000148843
 Search for a local minimum.
 Step number   1 out of a maximum of  100
 All quantities printed in internal units (Hartrees-Bohrs-Radians)
 RMS Force = .13285D-03 SwitMx=.10000D-02 MixMth= 2
 Mixed Optimization -- En-DIIS/RFO-DIIS
 Second derivative matrix not updated -- first step.
     Eigenvalues ---    0.00385   0.00855   0.00998   0.01433   0.01809
     Eigenvalues ---    0.01902   0.02205   0.02879   0.03479   0.04299
     Eigenvalues ---    0.05760   0.06943   0.07179   0.08140   0.09351
     Eigenvalues ---    0.10490   0.11578   0.12952   0.14388   0.25243
     Eigenvalues ---    0.26658   0.28905   0.30214   0.31544   0.32433
     Eigenvalues ---    0.32914   0.34045   0.34175   0.689211000.00000
     Eigenvalues --- 1000.000001000.000001000.000001000.000001000.00000
     Eigenvalues --- 1000.000001000.000001000.000001000.000001000.00000
     Eigenvalues --- 1000.000001000.000001000.000001000.000001000.00000
     Eigenvalues --- 1000.000001000.000001000.000001000.000001000.00000
     Eigenvalues --- 1000.000001000.000001000.000001000.000001000.00000
     Eigenvalues --- 1000.000001000.000001000.000001000.000001000.00000
     Eigenvalues --- 1000.000001000.000001000.000001000.000001000.00000
     Eigenvalues --- 1000.000001000.000001000.000001000.000001000.00000
     Eigenvalues --- 1000.000001000.000001000.000001000.000001000.00000
     Eigenvalues --- 1000.000001000.000001000.000001000.000001000.00000
     Eigenvalues --- 1000.000001000.000001000.000001000.000001000.00000
     Eigenvalues --- 1000.000001000.000001000.000001000.000001000.00000
     Eigenvalues --- 1000.000001000.000001000.000001000.000001000.00000
     Eigenvalues --- 1000.000001000.000001000.000001000.000001000.00000
     Eigenvalues --- 1000.00000
 RFO step:  Lambda=-3.22612642D-06 EMin= 3.85206770D-03
 Linear search not attempted -- first point.
 Iteration  1 RMS(Cart)=  0.00036391 RMS(Int)=  0.00000040
 Iteration  2 RMS(Cart)=  0.00000013 RMS(Int)=  0.00000015
 Iteration  1 RMS(Cart)=  0.00000000 RMS(Int)=  0.00000000
 Variable       Old X    -DE/DX   Delta X   Delta X   Delta X     New X
                                 (Linear)    (Quad)   (Total)
    R1        2.06970  -0.00003   0.00000   0.00014   0.00014   2.06984
    R2        2.07035   0.00002   0.00000   0.00006   0.00006   2.07041
    R3        2.07254   0.00000   0.00000   0.00000   0.00000   2.07254
    R4        2.90086  -0.00002   0.00000  -0.00001  -0.00001   2.90086
    R5        7.15471   0.00002   0.00000  -0.00100  -0.00100   7.15371
    R6        5.72841   0.00004   0.00000  -0.00148  -0.00148   5.72692
    R7        7.00166  -0.00016   0.00000  -0.00246  -0.00246   6.99921
    R8        2.07766  -0.00003   0.00000   0.00007   0.00007   2.07773
    R9        2.09202   0.00002   0.00000   0.00006   0.00006   2.09208
   R10        2.81666   0.00015   0.00000   0.00045   0.00045   2.81711
   R11        6.88875  -0.00009   0.00000   0.00051   0.00051   6.88926
   R12        6.80488   0.00005   0.00000   0.00111   0.00111   6.80599
   R13        2.05142   0.00007   0.00000   0.00009   0.00009   2.05151
   R14        2.05315   0.00009   0.00000   0.00012   0.00012   2.05327
   R15        5.78578  -0.00038   0.00000   0.00000   0.00000   5.78578
   R16        7.13080  -0.00057   0.00000  -0.00087  -0.00087   7.12993
   R17        6.15992  -0.00021   0.00000  -0.00092  -0.00092   6.15899
   R18        6.09267  -0.00020   0.00000  -0.00188  -0.00188   6.09079
   R19        6.79691  -0.00008   0.00000  -0.00244  -0.00244   6.79447
   R20        2.30429  -0.00100   0.00000  -0.00165  -0.00165   2.30264
    A1        1.88839  -0.00002   0.00000  -0.00019  -0.00019   1.88820
    A2        1.88058   0.00007   0.00000  -0.00006  -0.00006   1.88051
    A3        1.93389  -0.00008   0.00000   0.00023   0.00023   1.93412
    A4        1.88112   0.00000   0.00000  -0.00007  -0.00007   1.88105
    A5        1.94104   0.00002   0.00000   0.00019   0.00019   1.94123
    A6        2.38070   0.00007   0.00000  -0.00008  -0.00008   2.38062
    A7        1.93657   0.00001   0.00000  -0.00012  -0.00012   1.93646
    A8        1.93115  -0.00007   0.00000  -0.00015  -0.00015   1.93100
    A9        2.30237  -0.00002   0.00000   0.00023   0.00023   2.30260
   A10        1.91912  -0.00003   0.00000  -0.00049  -0.00049   1.91862
   A11        1.89701  -0.00003   0.00000  -0.00006  -0.00006   1.89695
   A12        1.98401   0.00003   0.00000  -0.00022  -0.00022   1.98379
   A13        1.82959  -0.00004   0.00000  -0.00010  -0.00010   1.82948
   A14        1.91455  -0.00002   0.00000   0.00025   0.00025   1.91480
   A15        1.91313   0.00007   0.00000   0.00063   0.00063   1.91376
   A16        2.87343  -0.00002   0.00000   0.00059   0.00059   2.87401
   A17        2.11174   0.00003   0.00000   0.00005   0.00005   2.11178
   A18        2.10473  -0.00013   0.00000  -0.00005  -0.00005   2.10467
   A19        1.95710  -0.00001   0.00000  -0.00007  -0.00007   1.95703
   A20        2.04836   0.00006   0.00000   0.00029   0.00029   2.04864
   A21        1.64902  -0.00001   0.00000  -0.00045  -0.00045   1.64857
   A22        0.59481  -0.00002   0.00000  -0.00008  -0.00008   0.59474
   A23        0.72890   0.00003   0.00000   0.00011   0.00011   0.72901
   A24        1.03748   0.00005   0.00000   0.00015   0.00015   1.03763
   A25        0.79838   0.00002   0.00000   0.00010   0.00010   0.79848
   A26        2.08331   0.00027   0.00000   0.00005   0.00005   2.08335
   A27        0.63995  -0.00002   0.00000   0.00003   0.00003   0.63999
   A28        0.76548  -0.00005   0.00000  -0.00009  -0.00009   0.76539
   A29        0.96093   0.00003   0.00000   0.00012   0.00012   0.96105
   A30        1.27227   0.00005   0.00000   0.00015   0.00015   1.27242
   A31        0.99177   0.00004   0.00000   0.00011   0.00011   0.99188
   A32        0.65496   0.00005   0.00000   0.00007   0.00007   0.65503
   A33        0.65558   0.00002   0.00000   0.00008   0.00008   0.65566
   A34        2.29997   0.00031   0.00000   0.00009   0.00009   2.30007
   A35        0.63085   0.00001   0.00000   0.00004   0.00004   0.63089
   A36        0.73950   0.00004   0.00000   0.00008   0.00008   0.73958
   A37        0.93288   0.00002   0.00000   0.00010   0.00010   0.93297
   A38        2.60420   0.00030   0.00000   0.00007   0.00007   2.60426
   A39        0.58038   0.00005   0.00000   0.00022   0.00022   0.58060
   A40        2.09010   0.00023   0.00000   0.00024   0.00024   2.09034
   A41        0.77200   0.00004   0.00000   0.00018   0.00018   0.77217
   A42        0.84065   0.00003   0.00000   0.00015   0.00015   0.84080
    D1        2.86144  -0.00007   0.00000   0.00032   0.00032   2.86176
    D2       -1.39231  -0.00004   0.00000   0.00010   0.00010  -1.39220
    D3        0.72927  -0.00003   0.00000   0.00006   0.00006   0.72933
    D4        1.08466  -0.00004   0.00000   0.00024   0.00024   1.08490
    D5        3.07820  -0.00011   0.00000  -0.00018  -0.00018   3.07802
    D6       -1.06936  -0.00001   0.00000   0.00044   0.00044  -1.06892
    D7       -1.01645   0.00003   0.00000   0.00019   0.00019  -1.01626
    D8        0.97709  -0.00005   0.00000  -0.00023  -0.00023   0.97686
    D9        3.11271   0.00005   0.00000   0.00039   0.00039   3.11310
   D10       -3.11020   0.00001   0.00000   0.00023   0.00023  -3.10997
   D11       -1.11666  -0.00007   0.00000  -0.00019  -0.00019  -1.11684
   D12        1.01897   0.00003   0.00000   0.00043   0.00043   1.01940
   D13        1.28082  -0.00003   0.00000   0.00065   0.00065   1.28147
   D14        2.31836  -0.00003   0.00000   0.00064   0.00064   2.31900
   D15        2.13285  -0.00004   0.00000   0.00055   0.00055   2.13340
   D16        2.80797   0.00000   0.00000   0.00077   0.00077   2.80874
   D17       -2.24420   0.00015   0.00000   0.00088   0.00088  -2.24332
   D18       -2.37842  -0.00004   0.00000  -0.00018  -0.00018  -2.37860
   D19       -1.34088  -0.00004   0.00000  -0.00019  -0.00019  -1.34107
   D20       -1.52639  -0.00004   0.00000  -0.00028  -0.00028  -1.52667
   D21       -0.85127  -0.00001   0.00000  -0.00007  -0.00007  -0.85134
   D22        0.37975   0.00014   0.00000   0.00005   0.00005   0.37980
   D23       -0.22673   0.00002   0.00000  -0.00004  -0.00004  -0.22677
   D24        0.16807   0.00006   0.00000  -0.00003  -0.00003   0.16804
   D25        2.79610   0.00007   0.00000  -0.00119  -0.00119   2.79492
   D26       -0.55561  -0.00016   0.00000   0.00043   0.00043  -0.55518
   D27        0.87548   0.00007   0.00000  -0.00057  -0.00057   0.87491
   D28        0.63959   0.00010   0.00000  -0.00058  -0.00058   0.63901
   D29       -2.71212  -0.00013   0.00000   0.00104   0.00104  -2.71108
   D30       -1.28103   0.00010   0.00000   0.00004   0.00004  -1.28099
   D31       -1.36038   0.00011   0.00000  -0.00095  -0.00095  -1.36133
   D32        1.57109  -0.00012   0.00000   0.00067   0.00067   1.57176
   D33        3.00218   0.00011   0.00000  -0.00033  -0.00033   3.00185
   D34        2.61228   0.00005   0.00000  -0.00076  -0.00076   2.61153
   D35       -0.18202  -0.00008   0.00000  -0.00111  -0.00111  -0.18313
   D36        0.79556  -0.00004   0.00000  -0.00083  -0.00083   0.79473
   D37        1.31802  -0.00001   0.00000  -0.00071  -0.00071   1.31730
   D38       -0.36793  -0.00001   0.00000   0.00018   0.00018  -0.36775
   D39       -2.56916  -0.00004   0.00000   0.00041   0.00041  -2.56875
         Item               Value     Threshold  Converged?
 Maximum Force            0.001085     0.000450     NO 
 RMS     Force            0.000133     0.000300     YES
 Maximum Displacement     0.001482     0.001800     YES
 RMS     Displacement     0.000364     0.001200     YES
 Predicted change in Energy=-1.613239D-06
 GradGradGradGradGradGradGradGradGradGradGradGradGradGradGradGradGradGrad

 Leave Link  103 at Wed Apr  1 00:24:29 2015, MaxMem= 3758096384 cpu:       3.1
 (Enter /share/apps/g09/l202.exe)
                          Input orientation:                          
 ---------------------------------------------------------------------
 Center     Atomic      Atomic             Coordinates (Angstroms)
 Number     Number       Type             X           Y           Z
 ---------------------------------------------------------------------
      1          6           0       -1.724543   -1.123130    0.175469
      2          1           0       -0.741900   -1.568108   -0.014569
      3          1           0       -2.481673   -1.742860   -0.317535
      4          1           0       -1.907905   -1.166651    1.255896
      5          6           0       -1.775103    0.324761   -0.331966
      6          1           0       -1.621525    0.345973   -1.420469
      7          1           0       -2.799433    0.717345   -0.182776
      8          6           0       -0.791038    1.226269    0.332287
      9          1           0       -0.492535    2.163465   -0.127179
     10          1           0       -0.501370    1.062284    1.366588
     11          8           0        1.843256   -0.073329   -0.531182
     12          8           0        2.692147   -0.223882    0.329908
 ---------------------------------------------------------------------
                    Distance matrix (angstroms):
                    1          2          3          4          5
     1  C    0.000000
     2  H    1.095311   0.000000
     3  H    1.095612   1.774582   0.000000
     4  H    1.096740   1.770541   1.771133   0.000000
     5  C    1.535067   2.179725   2.185064   2.182487   0.000000
     6  H    2.171610   2.532588   2.513870   3.087551   1.099489
     7  H    2.161267   3.079778   2.484299   2.532595   1.107083
     8  C    2.532922   2.816250   3.477965   2.797590   1.490749
     9  H    3.522945   3.741590   4.387742   3.873737   2.251166
    10  H    2.773256   2.980673   3.824488   2.637943   2.247537
    11  O    3.785581   3.030558   4.640904   4.296534   3.645639
    12  O    4.509950   3.703820   5.430920   4.786099   4.549220
                    6          7          8          9         10
     6  H    0.000000
     7  H    1.748505   0.000000
     8  C    2.129973   2.134934   0.000000
     9  H    2.500099   2.723257   1.085610   0.000000
    10  H    3.087967   2.792957   1.086544   1.855807   0.000000
    11  O    3.601576   4.722405   3.061705   3.259199   3.223107
    12  O    4.690023   5.595194   3.772999   4.006314   3.595480
                   11         12
    11  O    0.000000
    12  O    1.218507   0.000000
 Stoichiometry    C3H7O2(2)
 Framework group  C1[X(C3H7O2)]
 Deg. of freedom    30
 Full point group                 C1      NOp   1
 Largest Abelian subgroup         C1      NOp   1
 Largest concise Abelian subgroup C1      NOp   1
                         Standard orientation:                         
 ---------------------------------------------------------------------
 Center     Atomic      Atomic             Coordinates (Angstroms)
 Number     Number       Type             X           Y           Z
 ---------------------------------------------------------------------
      1          6           0       -1.724234   -1.123362    0.175359
      2          1           0       -0.741538   -1.568224   -0.014679
      3          1           0       -2.481291   -1.743182   -0.317645
      4          1           0       -1.907591   -1.166905    1.255786
      5          6           0       -1.774965    0.324522   -0.332076
      6          1           0       -1.621390    0.345753   -1.420579
      7          1           0       -2.799341    0.716985   -0.182886
      8          6           0       -0.791007    1.226147    0.332177
      9          1           0       -0.492615    2.163378   -0.127289
     10          1           0       -0.501319    1.062196    1.366478
     11          8           0        1.843441   -0.073139   -0.531292
     12          8           0        2.692350   -0.223591    0.329798
 ---------------------------------------------------------------------
 Rotational constants (GHZ):      7.9455318      1.7653025      1.5790599
 Leave Link  202 at Wed Apr  1 00:24:29 2015, MaxMem= 3758096384 cpu:       0.3
 (Enter /share/apps/g09/l301.exe)
 Standard basis: 6-31G(d) (6D, 7F)
 Ernie: Thresh=  0.10000D-02 Tol=  0.10000D-05 Strict=F.
 There are    89 symmetry adapted basis functions of A   symmetry.
 Integral buffers will be    131072 words long.
 Raffenetti 2 integral format.
 Two-electron integral symmetry is turned on.
    89 basis functions,   168 primitive gaussians,    89 cartesian basis functions
    21 alpha electrons       20 beta electrons
       nuclear repulsion energy       158.0671791180 Hartrees.
 IExCor=  402 DFT=T Ex+Corr=B3LYP ExCW=0 ScaHFX=  0.200000
 ScaDFX=  0.800000  0.720000  1.000000  0.810000 ScalE2=  1.000000  1.000000
 IRadAn=      0 IRanWt=     -1 IRanGd=            0 ICorTp=0
 NAtoms=   12 NActive=   12 NUniq=   12 SFac= 7.50D-01 NAtFMM=   80 NAOKFM=F Big=F
 Leave Link  301 at Wed Apr  1 00:24:29 2015, MaxMem= 3758096384 cpu:       0.4
 (Enter /share/apps/g09/l302.exe)
 NPDir=0 NMtPBC=     1 NCelOv=     1 NCel=       1 NClECP=     1 NCelD=      1
         NCelK=      1 NCelE2=     1 NClLst=     1 CellRange=     0.0.
 One-electron integrals computed using PRISM.
 NBasis=    89 RedAO= T  NBF=    89
 NBsUse=    89 1.00D-06 NBFU=    89
 Precomputing XC quadrature grid using
 IXCGrd= 2 IRadAn=           0 IRanWt=          -1 IRanGd=           0 AccXCQ= 1.00D-10.
 NRdTot=     744 NPtTot=       94340 NUsed=       99717 NTot=       99749
 NSgBfM=    89    89    89    89    89 NAtAll=    12    12.
 Leave Link  302 at Wed Apr  1 00:24:29 2015, MaxMem= 3758096384 cpu:       2.6
 (Enter /share/apps/g09/l303.exe)
 DipDrv:  MaxL=1.
 Leave Link  303 at Wed Apr  1 00:24:30 2015, MaxMem= 3758096384 cpu:       0.7
 (Enter /share/apps/g09/l401.exe)
 Initial guess read from the read-write file.
 B after Tr=     0.000000    0.000000    0.000000
         Rot=    1.000000    0.000000    0.000000    0.000000 Ang=   0.00 deg.
 Guess basis will be translated and rotated to current coordinates.
 Initial guess orbital symmetries:
 Alpha Orbitals:
       Occupied  (A) (A) (A) (A) (A) (A) (A) (A) (A) (A) (A) (A)
                 (A) (A) (A) (A) (A) (A) (A) (A) (A)
       Virtual   (A) (A) (A) (A) (A) (A) (A) (A) (A) (A) (A) (A)
                 (A) (A) (A) (A) (A) (A) (A) (A) (A) (A) (A) (A)
                 (A) (A) (A) (A) (A) (A) (A) (A) (A) (A) (A) (A)
                 (A) (A) (A) (A) (A) (A) (A) (A) (A) (A) (A) (A)
                 (A) (A) (A) (A) (A) (A) (A) (A) (A) (A) (A) (A)
                 (A) (A) (A) (A) (A) (A) (A) (A)
 Beta  Orbitals:
       Occupied  (A) (A) (A) (A) (A) (A) (A) (A) (A) (A) (A) (A)
                 (A) (A) (A) (A) (A) (A) (A) (A)
       Virtual   (A) (A) (A) (A) (A) (A) (A) (A) (A) (A) (A) (A)
                 (A) (A) (A) (A) (A) (A) (A) (A) (A) (A) (A) (A)
                 (A) (A) (A) (A) (A) (A) (A) (A) (A) (A) (A) (A)
                 (A) (A) (A) (A) (A) (A) (A) (A) (A) (A) (A) (A)
                 (A) (A) (A) (A) (A) (A) (A) (A) (A) (A) (A) (A)
                 (A) (A) (A) (A) (A) (A) (A) (A) (A)
 The electronic state of the initial guess is 2-A.
 Initial guess <Sx>= 0.0000 <Sy>= 0.0000 <Sz>= 0.5000 <S**2>= 1.6984 S= 0.8958
 Leave Link  401 at Wed Apr  1 00:24:30 2015, MaxMem= 3758096384 cpu:       1.1
 (Enter /share/apps/g09/l502.exe)
 UHF open shell SCF:
 Requested convergence on RMS density matrix=1.00D-08 within 128 cycles.
 Requested convergence on MAX density matrix=1.00D-06.
 Requested convergence on             energy=1.00D-06.
 No special actions if energy rises.
 Using DIIS extrapolation, IDIIS=  1040.
 Integral symmetry usage will be decided dynamically.
        99596 words used for storage of precomputed grid.
 Keep R1 and R2 ints in memory in canonical form, NReq=17096789.
 IEnd=      143254 IEndB=      143254 NGot=  3758096384 MDV=  3741933723
 LenX=  3741933723 LenY=  3741925361
 Symmetry not used in FoFDir.
 MinBra= 0 MaxBra= 2 Meth= 1.
 IRaf=       0 NMat=   1 IRICut=       1 DoRegI=T DoRafI=F ISym2E= 0 JSym2E=0.

 Cycle   1  Pass 1  IDiag  1:
 E= -268.793629331437    
 DIIS: error= 1.47D-04 at cycle   1 NSaved=   1.
 NSaved= 1 IEnMin= 1 EnMin= -268.793629331437     IErMin= 1 ErrMin= 1.47D-04
 ErrMax= 1.47D-04 EMaxC= 1.00D-01 BMatC= 2.43D-06 BMatP= 2.43D-06
 IDIUse=3 WtCom= 9.99D-01 WtEn= 1.47D-03
 Coeff-Com:  0.100D+01
 Coeff-En:   0.100D+01
 Coeff:      0.100D+01
 Gap=     0.253 Goal=   None    Shift=    0.000
 Gap=     0.097 Goal=   None    Shift=    0.000
 RMSDP=1.12D-05 MaxDP=1.65D-04              OVMax= 4.72D-04

 Cycle   2  Pass 1  IDiag  1:
 E= -268.793630176755     Delta-E=       -0.000000845318 Rises=F Damp=F
 DIIS: error= 2.64D-05 at cycle   2 NSaved=   2.
 NSaved= 2 IEnMin= 2 EnMin= -268.793630176755     IErMin= 2 ErrMin= 2.64D-05
 ErrMax= 2.64D-05 EMaxC= 1.00D-01 BMatC= 7.04D-08 BMatP= 2.43D-06
 IDIUse=1 WtCom= 1.00D+00 WtEn= 0.00D+00
 Coeff-Com:  0.151D-01 0.985D+00
 Coeff:      0.151D-01 0.985D+00
 Gap=     0.253 Goal=   None    Shift=    0.000
 Gap=     0.097 Goal=   None    Shift=    0.000
 RMSDP=3.75D-06 MaxDP=6.74D-05 DE=-8.45D-07 OVMax= 2.80D-04

 Cycle   3  Pass 1  IDiag  1:
 E= -268.793630190248     Delta-E=       -0.000000013493 Rises=F Damp=F
 DIIS: error= 1.41D-05 at cycle   3 NSaved=   3.
 NSaved= 3 IEnMin= 3 EnMin= -268.793630190248     IErMin= 3 ErrMin= 1.41D-05
 ErrMax= 1.41D-05 EMaxC= 1.00D-01 BMatC= 5.59D-08 BMatP= 7.04D-08
 IDIUse=1 WtCom= 1.00D+00 WtEn= 0.00D+00
 Coeff-Com: -0.309D-01 0.470D+00 0.561D+00
 Coeff:     -0.309D-01 0.470D+00 0.561D+00
 Gap=     0.253 Goal=   None    Shift=    0.000
 Gap=     0.097 Goal=   None    Shift=    0.000
 RMSDP=1.31D-06 MaxDP=2.85D-05 DE=-1.35D-08 OVMax= 6.81D-05

 Cycle   4  Pass 1  IDiag  1:
 E= -268.793630200761     Delta-E=       -0.000000010513 Rises=F Damp=F
 DIIS: error= 8.15D-06 at cycle   4 NSaved=   4.
 NSaved= 4 IEnMin= 4 EnMin= -268.793630200761     IErMin= 4 ErrMin= 8.15D-06
 ErrMax= 8.15D-06 EMaxC= 1.00D-01 BMatC= 8.11D-09 BMatP= 5.59D-08
 IDIUse=1 WtCom= 1.00D+00 WtEn= 0.00D+00
 Coeff-Com: -0.188D-01 0.227D+00 0.331D+00 0.461D+00
 Coeff:     -0.188D-01 0.227D+00 0.331D+00 0.461D+00
 Gap=     0.253 Goal=   None    Shift=    0.000
 Gap=     0.097 Goal=   None    Shift=    0.000
 RMSDP=4.41D-07 MaxDP=1.47D-05 DE=-1.05D-08 OVMax= 2.58D-05

 Cycle   5  Pass 1  IDiag  1:
 E= -268.793630201871     Delta-E=       -0.000000001110 Rises=F Damp=F
 DIIS: error= 4.98D-06 at cycle   5 NSaved=   5.
[...]
     Eigenvalues --- 1000.000001000.000001000.000001000.000001000.00000
     Eigenvalues --- 1000.000001000.000001000.000001000.000001000.00000
     Eigenvalues --- 1000.000001000.000001000.000001000.000001000.00000
     Eigenvalues --- 1000.000001000.000001000.000001000.000001000.00000
     Eigenvalues --- 1000.000001000.000001000.000001000.000001000.00000
     Eigenvalues --- 1000.000001000.000001000.000001000.000001000.00000
     Eigenvalues --- 1000.000001000.000001000.000001000.000001000.00000
     Eigenvalues --- 1000.000001000.000001000.000001000.000001000.00000
     Eigenvalues --- 1000.00000
 Quadratic step=8.835D-01 exceeds max=3.000D-01 adjusted using Lamda=-4.644D-05.
 Angle between NR and scaled steps=  20.93 degrees.
 Angle between quadratic step and forces=  82.92 degrees.
 Linear search not attempted -- first point.
 Iteration  1 RMS(Cart)=  0.01892419 RMS(Int)=  0.00096236
 Iteration  2 RMS(Cart)=  0.00038721 RMS(Int)=  0.00034052
 Iteration  3 RMS(Cart)=  0.00000119 RMS(Int)=  0.00034051
 Iteration  4 RMS(Cart)=  0.00000000 RMS(Int)=  0.00034051
 Iteration  1 RMS(Cart)=  0.00000199 RMS(Int)=  0.00000607
 Iteration  2 RMS(Cart)=  0.00000137 RMS(Int)=  0.00000668
 Iteration  3 RMS(Cart)=  0.00000095 RMS(Int)=  0.00000770
 Variable       Old X    -DE/DX   Delta X   Delta X   Delta X     New X
                                 (Linear)    (Quad)   (Total)
    R1        2.06984   0.00001   0.00000  -0.00013   0.00009   2.06993
    R2        2.07041   0.00000   0.00000   0.00003   0.00003   2.07044
    R3        2.07254   0.00001   0.00000   0.00004   0.00004   2.07258
    R4        2.90086   0.00001   0.00000   0.00050   0.00052   2.90138
    R5        7.15371  -0.00005   0.00000  -0.10273  -0.10272   7.05099
    R6        5.72692  -0.00004   0.00000  -0.13206  -0.13171   5.59522
    R7        6.99921   0.00002   0.00000  -0.14185  -0.14199   6.85722
    R8        2.07773  -0.00003   0.00000  -0.00021  -0.00015   2.07758
    R9        2.09208  -0.00002   0.00000  -0.00009  -0.00009   2.09199
   R10        2.81711   0.00010   0.00000   0.00005   0.00019   2.81730
   R11        6.88926  -0.00017   0.00000  -0.03296  -0.03317   6.85609
   R12        6.80599  -0.00005   0.00000  -0.00372  -0.00423   6.80176
   R13        2.05151   0.00006   0.00000  -0.00005   0.00008   2.05159
   R14        2.05327   0.00005   0.00000  -0.00001  -0.00006   2.05321
   R15        5.78578  -0.00046   0.00000   0.00000   0.00002   5.78581
   R16        7.12993  -0.00029   0.00000   0.00474   0.00469   7.13462
   R17        6.15899  -0.00029   0.00000   0.02613   0.02569   6.18468
   R18        6.09079  -0.00024   0.00000  -0.00771  -0.00735   6.08344
   R19        6.79447  -0.00004   0.00000  -0.00516  -0.00479   6.78968
   R20        2.30264  -0.00011   0.00000  -0.00034  -0.00034   2.30230
    A1        1.88820   0.00001   0.00000   0.00048   0.00054   1.88874
    A2        1.88051  -0.00001   0.00000  -0.00005  -0.00037   1.88014
    A3        1.93412  -0.00005   0.00000  -0.00068  -0.00053   1.93359
    A4        1.88105  -0.00001   0.00000   0.00013   0.00002   1.88107
    A5        1.94123   0.00001   0.00000   0.00009   0.00008   1.94131
    A6        2.38062   0.00004   0.00000  -0.00120  -0.00167   2.37895
    A7        1.93646   0.00004   0.00000   0.00006   0.00027   1.93673
    A8        1.93100  -0.00003   0.00000  -0.00983  -0.00959   1.92141
    A9        2.30260   0.00000   0.00000   0.01778   0.01759   2.32019
   A10        1.91862   0.00002   0.00000  -0.00017  -0.00007   1.91855
   A11        1.89695  -0.00002   0.00000  -0.00057   0.00009   1.89704
   A12        1.98379  -0.00003   0.00000  -0.00071  -0.00065   1.98314
   A13        1.82948  -0.00004   0.00000   0.00052  -0.00046   1.82903
   A14        1.91480  -0.00001   0.00000   0.00007  -0.00021   1.91459
   A15        1.91376   0.00007   0.00000   0.00096   0.00134   1.91510
   A16        2.87401  -0.00003   0.00000   0.01850   0.01778   2.89179
   A17        2.11178  -0.00002   0.00000   0.00113   0.00113   2.11292
   A18        2.10467  -0.00008   0.00000  -0.00033  -0.00024   2.10444
   A19        1.95703   0.00007   0.00000  -0.01923  -0.01936   1.93766
   A20        2.04864   0.00005   0.00000   0.00021   0.00013   2.04877
   A21        1.64857   0.00005   0.00000   0.01855   0.01841   1.66698
   A22        0.59474   0.00001   0.00000   0.00584   0.00576   0.60050
   A23        0.72901   0.00002   0.00000   0.01046   0.01040   0.73941
   A24        1.03763   0.00005   0.00000   0.00832   0.00826   1.04589
   A25        0.79848   0.00001   0.00000   0.01073   0.01076   0.80924
   A26        2.08335   0.00009   0.00000  -0.01012  -0.01041   2.07294
   A27        0.63999   0.00001   0.00000   0.00424   0.00418   0.64417
   A28        0.76539   0.00000   0.00000   0.00422   0.00418   0.76957
   A29        0.96105   0.00003   0.00000   0.01118   0.01107   0.97212
   A30        1.27242   0.00005   0.00000   0.00825   0.00814   1.28056
   A31        0.99188   0.00002   0.00000   0.01397   0.01390   1.00577
   A32        0.65503   0.00004   0.00000   0.00207   0.00208   0.65711
   A33        0.65566   0.00003   0.00000   0.00279   0.00282   0.65848
   A34        2.30007   0.00014   0.00000  -0.00326  -0.00351   2.29656
   A35        0.63089   0.00002   0.00000   0.00034   0.00035   0.63124
   A36        0.73958   0.00004   0.00000  -0.00191  -0.00189   0.73769
   A37        0.93297   0.00003   0.00000   0.00141   0.00140   0.93437
   A38        2.60426   0.00014   0.00000  -0.00241  -0.00268   2.60158
   A39        0.58060   0.00005   0.00000  -0.00097  -0.00099   0.57960
   A40        2.09034   0.00012   0.00000   0.00943   0.00947   2.09981
   A41        0.77217   0.00000   0.00000   0.00699   0.00682   0.77900
   A42        0.84080  -0.00001   0.00000   0.01213   0.01203   0.85283
    D1        2.86176   0.00000   0.00000   0.03347   0.03380   2.89556
    D2       -1.39220   0.00000   0.00000   0.03384   0.03391  -1.35830
    D3        0.72933   0.00002   0.00000   0.03347   0.03368   0.76302
    D4        1.08490   0.00002   0.00000   0.00033   0.00063   1.08553
    D5        3.07802  -0.00002   0.00000   0.00055   0.00009   3.07811
    D6       -1.06892   0.00004   0.00000   0.00088   0.00143  -1.06749
    D7       -1.01626   0.00003   0.00000   0.00013   0.00025  -1.01601
    D8        0.97686  -0.00001   0.00000   0.00035  -0.00028   0.97658
    D9        3.11310   0.00005   0.00000   0.00068   0.00106   3.11416
   D10       -3.10997   0.00001   0.00000  -0.00014   0.00000  -3.10997
   D11       -1.11684  -0.00003   0.00000   0.00008  -0.00054  -1.11738
   D12        1.01940   0.00002   0.00000   0.00041   0.00080   1.02020
   D13        1.28147  -0.00003   0.00000   0.02560   0.02538   1.30685
   D14        2.31900  -0.00002   0.00000   0.01268   0.01273   2.33173
   D15        2.13340  -0.00003   0.00000   0.01298   0.01295   2.14635
   D16        2.80874   0.00001   0.00000   0.00768   0.00775   2.81649
   D17       -2.24332   0.00009   0.00000   0.03211   0.03202  -2.21129
   D18       -2.37860  -0.00003   0.00000  -0.00444  -0.00454  -2.38314
   D19       -1.34107  -0.00002   0.00000  -0.01736  -0.01719  -1.35826
   D20       -1.52667  -0.00003   0.00000  -0.01707  -0.01698  -1.54364
   D21       -0.85134   0.00001   0.00000  -0.02236  -0.02217  -0.87350
   D22        0.37980   0.00009   0.00000   0.00206   0.00210   0.38190
   D23       -0.22677  -0.00002   0.00000  -0.03030  -0.03047  -0.25725
   D24        0.16804   0.00001   0.00000  -0.03600  -0.03615   0.13189
   D25        2.79492   0.00012   0.00000  -0.02118  -0.02128   2.77364
   D26       -0.55518  -0.00014   0.00000  -0.01538  -0.01536  -0.57054
   D27        0.87491   0.00001   0.00000  -0.03157  -0.03130   0.84362
   D28        0.63901   0.00012   0.00000  -0.02051  -0.02055   0.61846
   D29       -2.71108  -0.00014   0.00000  -0.01470  -0.01463  -2.72571
   D30       -1.28099   0.00001   0.00000  -0.03089  -0.03057  -1.31156
   D31       -1.36133   0.00012   0.00000  -0.02170  -0.02063  -1.38196
   D32        1.57176  -0.00014   0.00000  -0.01590  -0.01471   1.55705
   D33        3.00185   0.00001   0.00000  -0.03209  -0.03065   2.97121
   D34        2.61153  -0.00002   0.00000  -0.06743  -0.06803   2.54350
   D35       -0.18313  -0.00005   0.00000  -0.08357  -0.08397  -0.26710
   D36        0.79473   0.00000   0.00000  -0.08866  -0.08911   0.70562
   D37        1.31730   0.00003   0.00000  -0.05900  -0.05919   1.25811
   D38       -0.36775   0.00000   0.00000   0.02030   0.02014  -0.34761
   D39       -2.56875  -0.00004   0.00000   0.01617   0.01635  -2.55240
         Item               Value     Threshold  Converged?
 Maximum Force            0.000208     0.000450     YES
 RMS     Force            0.000027     0.000300     YES
 Maximum Displacement     0.086408     0.001800     NO 
 RMS     Displacement     0.019205     0.001200     NO 
 Predicted change in Energy=-7.158962D-06
 GradGradGradGradGradGradGradGradGradGradGradGradGradGradGradGradGradGrad

 Leave Link  103 at Wed Apr  1 00:25:08 2015, MaxMem= 3758096384 cpu:      26.8
 (Enter /share/apps/g09/l9999.exe)
 1\1\GINC-COMPUTE-0-2\Freq\UB3LYP\6-31G(d)\C3H7O2(2)\HETANJIN\01-Apr-20
 15\0\\#P Geom=AllCheck Guess=TCheck SCRF=Check GenChk UB3LYP/6-31G(d) 
 Freq\\C3H7O2_62_b3631gd using cbs-qb3 to calculate energy\\0,2\C,-1.72
 45426353,-1.1231297112,0.1754685187\H,-0.7418995026,-1.5681077818,-0.0
 145687646\H,-2.4816732069,-1.7428600316,-0.3175353349\H,-1.9079049107,
 -1.1666509575,1.2558956594\C,-1.7751028637,0.3247605068,-0.3319657107\
 H,-1.6215249361,0.3459728243,-1.4204691477\H,-2.7994327188,0.717344824
 2,-0.182775907\C,-0.7910383846,1.2262687659,0.332287253\H,-0.492534887
 7,2.163464511,-0.1271792054\H,-0.5013695952,1.0622836822,1.3665882856\
 O,1.8432556972,-0.0733290199,-0.5311818987\O,2.6921469443,-0.223881612
 3,0.3299082523\\Version=EM64L-G09RevA.01\State=2-A\HF=-268.7936302\S2=
 1.698665\S2-1=0.\S2A=0.78075\RMSD=2.364e-09\RMSF=3.556e-04\ZeroPoint=0
 .0931745\Thermal=0.1012854\Dipole=-0.3005813,0.0594085,-0.017802\Dipol
 eDeriv=0.1040727,-0.0133656,0.005747,0.032746,0.0504457,0.0178561,-0.0
 600993,-0.006966,0.1215423,-0.0901757,0.1031312,0.0292115,0.0515951,0.
 0008638,0.0079203,0.0368528,0.0014686,0.0438317,-0.0536328,-0.1065517,
 -0.0698653,-0.107745,-0.0606828,-0.0325988,-0.0713259,-0.0509803,0.014
 6243,0.0546185,0.0032065,0.0263195,0.0100065,0.0227473,-0.0059036,0.04
 36357,0.0381113,-0.1614255,0.0307048,-0.0420999,-0.049217,0.0302119,0.
 1078722,0.028983,-0.028586,0.0157979,0.1023601,0.0510141,-0.015252,0.0
 248558,-0.0712849,-0.0004859,0.0068478,-0.0087525,0.0242707,-0.1697473
 ,-0.2074251,0.0715259,-0.0007388,-0.0167719,-0.0215417,-0.0099147,-0.0
 122916,-0.0061525,0.0541211,-0.1791859,0.1937517,0.1169192,0.3009478,-
 0.0461775,-0.1051334,0.2510877,-0.1007008,0.0929635,0.0704071,-0.07962
 45,-0.0244519,-0.0859696,-0.0867063,0.0432891,-0.0252053,0.0530601,0.0
 162766,0.0650684,-0.0469378,-0.0462749,-0.0393142,0.0350883,0.0422742,
 -0.0559534,0.0105384,-0.0861809,0.7805883,-0.2571905,-0.0770206,-0.212
 9883,0.0547115,0.0177039,0.536488,-0.1711637,-0.0727777,-0.6260546,0.1
 894067,0.0645156,0.1085666,-0.0561346,-0.0113239,-0.6058502,0.1927162,
 0.0444117\Polar=69.2673855,-6.3029902,40.561118,3.4700147,-0.3299194,3
 8.3745805\PG=C01 [X(C3H7O2)]\NImag=1\\0.58154153,0.00578031,0.48535024
 ,0.00155340,0.03544194,0.56351344,-0.26534435,0.09432350,0.04305789,0.
 28567208,0.09280285,-0.08918367,-0.01988360,-0.10390224,0.09781181,0.0
 4324418,-0.02024939,-0.05944064,-0.04744609,0.01913500,0.05908344,-0.1
 7785142,-0.10212868,-0.08387017,-0.01924343,-0.01702475,-0.01447090,0.
 18893632,-0.10099842,-0.13028664,-0.06701104,0.00887226,0.00840011,0.0
 0752373,0.11209567,0.14218433,-0.08378764,-0.06795791,-0.10496436,0.00
 495027,0.00490563,0.00280695,0.09281907,0.07241191,0.10957321,-0.05818
 196,-0.00124206,0.04393474,-0.00388512,-0.00135338,0.03071598,0.004801
 04,0.00167710,-0.02389084,0.05653563,-0.00119425,-0.04876804,0.0051101
 2,0.00090070,-0.00018077,-0.01330427,0.00473238,0.00045735,-0.01824750
 ,0.00096941,0.05309154,0.04375217,0.00606936,-0.30254635,0.00068775,-0
 .00038096,-0.00466155,0.00283281,0.00020372,-0.01383550,-0.04812176,-0
 .00884285,0.32898441,-0.07496774,0.00841470,-0.00236561,0.00065204,0.0
 2853232,-0.01114642,0.00190371,-0.02187167,0.00912233,-0.00038397,-0.0
 0620420,0.00176470,0.48633647,0.00547141,-0.17642681,0.03399107,-0.000
 00184,-0.01426041,0.00537907,0.00270993,-0.01699264,0.00784148,0.00015
 741,-0.00165491,0.00081945,-0.00194632,0.46536702,-0.00283186,0.035206
 31,-0.09666286,-0.00042953,-0.00621872,0.00185771,0.00203744,-0.016066
 67,0.00559758,-0.00241809,0.03391701,-0.01072376,-0.00744853,0.0012565
 3,0.55745008,-0.00040602,-0.00020108,-0.00185732,0.00015864,-0.0002669
 4,-0.00066906,-0.00008851,-0.00018794,0.00037940,0.00088651,0.00014038
 ,-0.00057231,-0.05016456,-0.00061664,0.03837486,0.05785289,-0.00571428
 ,-0.00092787,0.03298376,0.00031134,0.00137149,-0.00059952,-0.00031579,
 0.00118667,-0.00055671,0.00042661,-0.00649238,0.00235110,-0.00065687,-
 0.05122319,0.00169288,0.00304189,0.05488680,0.00165830,0.00078802,-0.0
 0939093,-0.00055196,-0.00005581,0.00039615,0.00033345,0.00027845,0.000
 55136,-0.00024132,0.00213492,0.00097754,0.03900099,0.00432408,-0.29343
 714,-0.03988117,-0.00386190,0.32134695,-0.00079259,0.00078631,0.000597
 20,0.00132501,-0.00004895,-0.00025732,0.00059848,0.00044451,0.00006282
 ,0.00018655,-0.00000215,-0.00051505,-0.24035462,0.08378456,0.03725810,
 -0.00610568,0.00287416,0.00275968,0.26997148,0.03095152,-0.01498411,-0
 .00435089,-0.00017030,-0.00633177,0.00293822,-0.00022958,0.00125450,-0
 .00088968,-0.00041382,0.00150130,0.00011429,0.06963469,-0.07131707,-0.
 01219434,0.00038126,0.00034350,-0.00029369,-0.08324354,0.08438710,-0.0
 1075089,0.00602671,0.00162934,-0.00036414,0.00232715,0.00010179,0.0003
 6490,-0.00068949,0.00017819,-0.00057140,-0.00055679,0.00039346,0.02924
 925,-0.01116070,-0.05017968,0.03163212,-0.01177329,-0.00642614,-0.0345
 7412,0.01351886,0.05347924,-0.00232112,-0.00623676,0.00165164,0.000918
 75,0.00123296,-0.00000848,0.00068065,0.00071917,-0.00034721,0.00034874
 ,0.00102364,-0.00065764,-0.12455406,-0.07644767,-0.05580998,-0.0005286
 1,0.00118382,-0.00221443,-0.02426632,-0.01854818,-0.01583502,0.2461174
 3,-0.02466180,-0.02590640,-0.01277074,-0.00064220,0.00230974,-0.000767
 57,0.00000882,-0.00524263,0.00182859,-0.00007139,0.00178130,-0.0009557
 8,-0.07169490,-0.12993534,-0.02989811,0.00007842,0.00209124,-0.0005330
 8,-0.00327433,0.00619007,0.00311611,0.19106175,0.46541229,0.00897057,0
 .00450902,0.00809190,-0.00017328,0.00057586,0.00013410,-0.00009635,0.0
 0438323,-0.00072002,0.00104639,0.00097552,0.00064714,-0.05469797,-0.03
 300147,-0.11449299,-0.02602524,-0.01937711,-0.01494728,-0.00450060,0.0
 0171432,0.00140868,0.13916050,-0.12896703,0.54069387,-0.00274365,-0.00
 010388,-0.00312761,0.00015526,-0.00010488,-0.00006268,0.00042749,-0.00
 118903,0.00047831,-0.00012849,0.00014300,0.00010954,0.00059944,-0.0171
 1759,0.01173297,0.00060899,0.00077394,-0.00068433,-0.00011244,0.001169
 75,-0.00009413,-0.04914471,-0.08251130,0.01855648,0.04544531,-0.003249
 78,-0.00088790,-0.00202878,0.00009573,0.00015932,-0.00001329,0.0000201
 6,-0.00104401,0.00038393,0.00007760,0.00018427,0.00008539,0.00000843,-
 0.00850156,0.00774784,0.00052313,0.00050286,0.00004444,-0.00058614,-0.
 00062510,0.00011755,-0.08733912,-0.26362293,0.11824298,0.09203078,0.27
 355303,-0.00219678,-0.00125729,-0.00095237,0.00007368,0.00005241,-0.00
 011092,-0.00013402,-0.00092162,0.00049109,-0.00021625,-0.00029199,0.00
 035454,-0.00331168,-0.01252574,0.00790033,0.00097432,0.00022089,0.0012
 0572,-0.00059907,-0.00026975,0.00015286,0.02086420,0.11547187,-0.10554
 233,-0.02321623,-0.12371271,0.10327129,0.00093009,0.00089846,0.0002078
 6,-0.00000235,-0.00002251,0.00012975,-0.00011112,0.00027116,0.00019776
 ,-0.00011139,-0.00049983,0.00071305,0.00077373,0.00431442,-0.02044774,
 -0.00230852,-0.00215091,-0.00035277,-0.00066811,0.00017174,0.00082949,
 -0.04753564,-0.00734138,-0.08127591,0.00506111,-0.00156508,0.00759931,
 0.04401590,0.00085407,0.00205483,-0.00135612,0.00020117,-0.00027350,-0
 .00005284,0.00019219,0.00012778,0.00026148,-0.00021022,0.00006169,0.00
 051022,-0.00391451,0.00480444,-0.01553822,-0.00283962,-0.00163779,-0.0
 0275024,-0.00059717,-0.00025653,-0.00084717,-0.00635685,-0.05306036,0.
 05057686,0.00666236,0.00023699,0.02343843,0.00590006,0.04798123,0.0004
 4999,0.00127137,0.00073981,0.00008997,-0.00043045,-0.00007408,0.000158
 55,-0.00005313,0.00032462,-0.00023767,-0.00088020,0.00039285,0.0002742
 7,0.00286418,-0.00733605,-0.00233181,-0.00103134,-0.00031010,-0.000117
 59,-0.00011027,-0.00071504,-0.08658633,0.05319143,-0.31428720,-0.00360
 025,-0.00091061,-0.00676697,0.09204634,-0.05398820,0.32792192,0.000518
 52,-0.00112491,0.00093359,-0.00049475,0.00066651,0.00010195,-0.0000781
 0,0.00067199,-0.00004021,-0.00009245,-0.00003711,-0.00011576,0.0027607
 4,-0.00152725,-0.00030570,0.00002875,0.00095875,0.00041151,0.00090786,
 0.00160445,0.00063622,0.00121238,-0.00365758,-0.00210439,0.00020588,-0
 .00038837,0.00015918,0.00010009,0.00012127,-0.00081632,0.37457886,-0.0
 0007862,0.00011343,-0.00026419,0.00005176,0.00007135,0.00002574,-0.000
 06991,-0.00012749,0.00002853,-0.00002199,0.00002867,0.00005158,-0.0009
 1387,0.00042436,0.00018741,-0.00003661,-0.00021739,-0.00009777,-0.0002
 8082,-0.00041111,-0.00018121,-0.00050388,0.00035517,0.00019214,0.00014
 984,0.00013369,-0.00020562,0.00009175,-0.00008893,0.00017653,-0.064733
 50,0.01216670,0.00027166,-0.00061965,0.00071615,0.00000632,0.00050187,
 -0.00005308,0.00001855,0.00044680,-0.00005952,-0.00002210,-0.00006931,
 -0.00010382,0.00165474,-0.00083539,-0.00019152,-0.00010092,0.00074890,
 0.00040003,0.00049045,0.00102323,0.00050688,0.00054892,-0.00263407,-0.
 00389722,0.00010932,-0.00022259,0.00004450,0.00096693,-0.00049863,-0.0
 0061042,0.38423817,-0.06581129,0.40062126,-0.00038130,0.00083410,-0.00
 071559,0.00008823,-0.00051098,-0.00013091,0.00002490,-0.00050479,0.000
 05592,0.00002490,0.00002804,0.00012251,-0.00260117,0.00121959,0.000288
 06,0.00006612,-0.00073269,-0.00023796,-0.00068960,-0.00130799,-0.00052
 227,-0.00092750,0.00270590,0.00113980,-0.00037419,0.00037267,0.0000033
 2,-0.00014380,-0.00001275,0.00067085,-0.37964778,0.06634583,-0.3881820
 5,0.38456119,0.00003700,-0.00014706,0.00013847,-0.00003989,0.00010629,
 -0.00001487,0.00000957,0.00008266,-0.00000976,0.00000473,-0.00001003,-
 0.00002552,0.00061221,-0.00028391,-0.00009192,-0.00001625,0.00011606,0
 .00002258,0.00014355,0.00024919,0.00010226,0.00021112,-0.00037216,0.00
 017567,0.00009701,-0.00008866,0.00000111,-0.00006788,0.00005016,-0.000
 09932,0.06744576,-0.01244845,0.06797014,-0.06843693,0.01274592,-0.0003
 3311,0.00077152,-0.00073313,0.00009910,-0.00052840,-0.00003987,0.00000
 666,-0.00050588,0.00005640,0.00002233,0.00005533,0.00012105,-0.0020960
 7,0.00104742,0.00021830,0.00007714,-0.00079766,-0.00036616,-0.00060450
 ,-0.00120030,-0.00052958,-0.00076617,0.00291838,0.00291136,-0.00020139
 ,0.00026585,-0.00004775,-0.00061407,0.00024445,0.00072066,-0.38309825,
 0.06589814,-0.39737324,0.38750833,-0.06816884,0.39506197\\0.00001608,0
 .00001149,0.00001097,-0.00004180,-0.00002650,0.00000248,-0.00000554,0.
 00001058,0.00000701,-0.00001046,0.00000910,-0.00000447,0.00001009,-0.0
 0007759,0.00001289,0.00000134,-0.00000221,0.00000748,0.00000507,0.0000
 5752,-0.00000187,-0.00129774,0.00060696,0.00040335,-0.00004211,0.00001
 826,0.00001259,-0.00002315,0.00002465,0.00001091,0.00117677,-0.0006065
 5,-0.00068653,0.00021145,-0.00002572,0.00022521\\\@


 TO ERR IS HUMAN - AND TO BLAME IT ON A COMPUTER IS EVEN MORE SO.
 Job cpu time:  0 days  0 hours  5 minutes 21.3 seconds.
 File lengths (MBytes):  RWF=     29 Int=      0 D2E=      0 Chk=      3 Scr=      1
 Normal termination of Gaussian 09 at Wed Apr  1 00:25:09 2015.
