 Entering Gaussian System, Link 0=/share/apps/g09/g09
 Input=C3H7O2_62_b3631gd_266.gjf
 Output=C3H7O2_62_b3631gd_266.log
 Initial command:
 /share/apps/g09/l1.exe /state/partition1/Gau-12369.inp -scrdir=/state/partition1/
 Entering Link 1 = /share/apps/g09/l1.exe PID=     12370.
  
 Copyright (c) 1988,1990,1992,1993,1995,1998,2003,2009, Gaussian, Inc.
                  All Rights Reserved.
  
 This is part of the Gaussian(R) 09 program.  It is based on
 the Gaussian(R) 03 system (copyright 2003, Gaussian, Inc.),
 the Gaussian(R) 98 system (copyright 1998, Gaussian, Inc.),
 the Gaussian(R) 94 system (copyright 1995, Gaussian, Inc.),
 the Gaussian 92(TM) system (copyright 1992, Gaussian, Inc.),
 the Gaussian 90(TM) system (copyright 1990, Gaussian, Inc.),
 the Gaussian 88(TM) system (copyright 1988, Gaussian, Inc.),
 the Gaussian 86(TM) system (copyright 1986, Carnegie Mellon
 University), and the Gaussian 82(TM) system (copyright 1983,
 Carnegie Mellon University). Gaussian is a federally registered
 trademark of Gaussian, Inc.
  
 This software contains proprietary and confidential information,
 including trade secrets, belonging to Gaussian, Inc.
  
 This software is provided under written license and may be
 used, copied, transmitted, or stored only in accord with that
 written license.
  
 The following legend is applicable only to US Government
 contracts under FAR:
  
                    RESTRICTED RIGHTS LEGEND
  
 Use, reproduction and disclosure by the US Government is
 subject to restrictions as set forth in subparagraphs (a)
 and (c) of the Commercial Computer Software - Restricted
 Rights clause in FAR 52.227-19.
  
 Gaussian, Inc.
 340 Quinnipiac St., Bldg. 40, Wallingford CT 06492
  
  
 ---------------------------------------------------------------
 Warning -- This program may not be used in any manner that
 competes with the business of Gaussian, Inc. or will provide
 assistance to any competitor of Gaussian, Inc.  The licensee
 of this program is prohibited from giving any competitor of
 Gaussian, Inc. access to this program.  By using this program,
 the user acknowledges that Gaussian, Inc. is engaged in the
 business of creating and licensing software in the field of
 computational chemistry and represents and warrants to the
 licensee that it is not a competitor of Gaussian, Inc. and that
 it will not use this program in any manner prohibited above.
 ---------------------------------------------------------------
  

 Cite this work as:
 Gaussian 09, Revision A.01,
 M. J. Frisch, G. W. Trucks, H. B. Schlegel, G. E. Scuseria, 
 M. A. Robb, J. R. Cheeseman, G. Scalmani, V. Barone, B. Mennucci, 
 G. A. Petersson, H. Nakatsuji, M. Caricato, X. Li, H. P. Hratchian, 
 A. F. Izmaylov, J. Bloino, G. Zheng, J. L. Sonnenberg, M. Hada, 
 M. Ehara, K. Toyota, R. Fukuda, J. Hasegawa, M. Ishida, T. Nakajima, 
 Y. Honda, O. Kitao, H. Nakai, T. Vreven, J. A. Montgomery, Jr., 
 J. E. Peralta, F. Ogliaro, M. Bearpark, J. J. Heyd, E. Brothers, 
 K. N. Kudin, V. N. Staroverov, R. Kobayashi, J. Normand, 
 K. Raghavachari, A. Rendell, J. C. Burant, S. S. Iyengar, J. Tomasi, 
 M. Cossi, N. Rega, J. M. Millam, M. Klene, J. E. Knox, J. B. Cross, 
 V. Bakken, C. Adamo, J. Jaramillo, R. Gomperts, R. E. Stratmann, 
 O. Yazyev, A. J. Austin, R. Cammi, C. Pomelli, J. W. Ochterski, 
 R. L. Martin, K. Morokuma, V. G. Zakrzewski, G. A. Voth, 
 P. Salvador, J. J. Dannenberg, S. Dapprich, A. D. Daniels, 
 O. Farkas, J. B. Foresman, J. V. Ortiz, J. Cioslowski, 
 and D. J. Fox, Gaussian, Inc., Wallingford CT, 2009.
 
 ******************************************
 Gaussian 09:  EM64L-G09RevA.01  8-May-2009
                 1-Apr-2015 
 ******************************************
 %mem=28GB
 %nprocshared=12
 Will use up to   12 processors via shared memory.
 %chk=C3H7O2_62_b3631gd_266.chk
 -----------------------------------------------
 #p ub3lyp/6-31g(d) opt=modredundant freq scf=qc
 -----------------------------------------------
 1/14=-1,18=120,19=15,26=3,38=1/1,3;
 2/9=110,12=2,17=6,18=5,40=1/2;
 3/5=1,6=6,7=1,11=2,16=1,25=1,30=1,71=1,74=-5,116=2/1,2,3;
 4//1;
 5/5=2,8=3,38=5/8;
 6/7=2,8=2,9=2,10=2,28=1/1;
 7//1,2,3,16;
 1/14=-1,18=20,19=15/3(2);
 2/9=110/2;
 99//99;
 2/9=110/2;
 3/5=1,6=6,7=1,11=2,16=1,25=1,30=1,71=1,74=-5,116=2/1,2,3;
 4/5=5,16=3/1;
 5/5=2,8=3,38=5/8;
 7//1,2,3,16;
 1/14=-1,18=20,19=15/3(-5);
 2/9=110/2;
 6/7=2,8=2,9=2,10=2,19=2,28=1/1;
 99/9=1/99;
 Leave Link    1 at Wed Apr  1 01:17:04 2015, MaxMem= 3758096384 cpu:       0.4
 (Enter /share/apps/g09/l101.exe)
 ---------------------------------------------------
 C3H7O2_62_b3631gd using cbs-qb3 to calculate energy
 ---------------------------------------------------
 Symbolic Z-matrix:
 Charge =  0 Multiplicity = 2
 C                    -1.77099  -1.03866   0.17854 
 H                    -0.85175  -1.61429   0.02851 
 H                    -2.58546  -1.55365  -0.34225 
 H                    -2.00089  -1.04666   1.25076 
 C                    -1.60448   0.39641  -0.33707 
 H                    -1.41038   0.38916  -1.41958 
 H                    -2.56582   0.93338  -0.22663 
 C                    -0.53169   1.164     0.35417 
 H                    -0.17359   2.1034   -0.05558 
 H                    -0.27042   0.94338   1.38519 
 O                     1.62843  -0.12368  -0.51786 
 O                     2.53422  -0.28698   0.29358 
 
 NAtoms=     12 NQM=     12 NQMF=      0 NMic=      0 NMicF=      0 NTot=     12.
 The following ModRedundant input section has been read:
 B    8   11 F                                                                 
                    Isotopes and Nuclear Properties:
 (Nuclear quadrupole moments (NQMom) in fm**2, nuclear magnetic moments (NMagM)
  in nuclear magnetons)

  Atom         1           2           3           4           5           6           7           8           9          10
 IAtWgt=          12           1           1           1          12           1           1          12           1           1
 AtmWgt=  12.0000000   1.0078250   1.0078250   1.0078250  12.0000000   1.0078250   1.0078250  12.0000000   1.0078250   1.0078250
 NucSpn=           0           1           1           1           0           1           1           0           1           1
 AtZEff=   0.0000000   0.0000000   0.0000000   0.0000000   0.0000000   0.0000000   0.0000000   0.0000000   0.0000000   0.0000000
 NQMom=    0.0000000   0.0000000   0.0000000   0.0000000   0.0000000   0.0000000   0.0000000   0.0000000   0.0000000   0.0000000
 NMagM=    0.0000000   2.7928460   2.7928460   2.7928460   0.0000000   2.7928460   2.7928460   0.0000000   2.7928460   2.7928460

  Atom        11          12
 IAtWgt=          16          16
 AtmWgt=  15.9949146  15.9949146
 NucSpn=           0           0
 AtZEff=   0.0000000   0.0000000
 NQMom=    0.0000000   0.0000000
 NMagM=    0.0000000   0.0000000
 Leave Link  101 at Wed Apr  1 01:17:04 2015, MaxMem= 3758096384 cpu:       0.6
 (Enter /share/apps/g09/l103.exe)

 GradGradGradGradGradGradGradGradGradGradGradGradGradGradGradGradGradGrad
 Berny optimization.
 Initialization pass.
                           ----------------------------
                           !    Initial Parameters    !
                           ! (Angstroms and Degrees)  !
 --------------------------                            --------------------------
 ! Name  Definition              Value          Derivative Info.                !
 --------------------------------------------------------------------------------
 ! R1    R(1,2)                  1.0949         estimate D2E/DX2                !
 ! R2    R(1,3)                  1.0954         estimate D2E/DX2                !
 ! R3    R(1,4)                  1.0966         estimate D2E/DX2                !
 ! R4    R(1,5)                  1.534          estimate D2E/DX2                !
 ! R5    R(2,11)                 2.9448         estimate D2E/DX2                !
 ! R6    R(5,6)                  1.0998         estimate D2E/DX2                !
 ! R7    R(5,7)                  1.1067         estimate D2E/DX2                !
 ! R8    R(5,8)                  1.4893         estimate D2E/DX2                !
 ! R9    R(5,11)                 3.2795         estimate D2E/DX2                !
 ! R10   R(6,11)                 3.211          estimate D2E/DX2                !
 ! R11   R(8,9)                  1.0856         estimate D2E/DX2                !
 ! R12   R(8,10)                 1.0863         estimate D2E/DX2                !
 ! R13   R(8,11)                 2.6617         Frozen                          !
 ! R14   R(8,12)                 3.3925         estimate D2E/DX2                !
 ! R15   R(9,11)                 2.9019         estimate D2E/DX2                !
 ! R16   R(10,11)                2.8924         estimate D2E/DX2                !
 ! R17   R(10,12)                3.2514         estimate D2E/DX2                !
 ! R18   R(11,12)                1.227          estimate D2E/DX2                !
 ! A1    A(2,1,3)              108.1763         estimate D2E/DX2                !
 ! A2    A(2,1,4)              107.8273         estimate D2E/DX2                !
 ! A3    A(2,1,5)              110.7715         estimate D2E/DX2                !
 ! A4    A(3,1,4)              107.7922         estimate D2E/DX2                !
 ! A5    A(3,1,5)              111.146          estimate D2E/DX2                !
 ! A6    A(4,1,5)              110.9917         estimate D2E/DX2                !
 ! A7    A(1,2,11)             117.8011         estimate D2E/DX2                !
 ! A8    A(1,5,6)              110.1108         estimate D2E/DX2                !
 ! A9    A(1,5,7)              109.032          estimate D2E/DX2                !
 ! A10   A(1,5,8)              113.8519         estimate D2E/DX2                !
 ! A11   A(1,5,11)              88.6919         estimate D2E/DX2                !
 ! A12   A(6,5,7)              104.7581         estimate D2E/DX2                !
 ! A13   A(6,5,8)              109.458          estimate D2E/DX2                !
 ! A14   A(7,5,8)              109.2295         estimate D2E/DX2                !
 ! A15   A(7,5,11)             159.8514         estimate D2E/DX2                !
 ! A16   A(5,8,9)              120.5587         estimate D2E/DX2                !
 ! A17   A(5,8,10)             120.6056         estimate D2E/DX2                !
 ! A18   A(5,8,12)             114.9783         estimate D2E/DX2                !
 ! A19   A(9,8,10)             117.0423         estimate D2E/DX2                !
 ! A20   A(9,8,12)              93.7414         estimate D2E/DX2                !
 ! A21   A(2,11,5)              40.5158         estimate D2E/DX2                !
 ! A22   A(2,11,6)              48.3852         estimate D2E/DX2                !
 ! A23   A(2,11,8)              60.0384         estimate D2E/DX2                !
 ! A24   A(2,11,9)              80.5556         estimate D2E/DX2                !
 ! A25   A(2,11,10)             60.7738         estimate D2E/DX2                !
 ! A26   A(2,11,12)            115.574          estimate D2E/DX2                !
 ! A27   A(5,11,9)              42.0411         estimate D2E/DX2                !
 ! A28   A(5,11,10)             42.1012         estimate D2E/DX2                !
 ! A29   A(5,11,12)            135.4288         estimate D2E/DX2                !
 ! A30   A(6,11,8)              41.1228         estimate D2E/DX2                !
 ! A31   A(6,11,9)              48.2774         estimate D2E/DX2                !
 ! A32   A(6,11,10)             60.3004         estimate D2E/DX2                !
 ! A33   A(6,11,12)            154.9031         estimate D2E/DX2                !
 ! A34   A(9,11,10)             37.2857         estimate D2E/DX2                !
 ! A35   A(9,11,12)            117.0784         estimate D2E/DX2                !
 ! D1    D(3,1,2,11)           138.6121         estimate D2E/DX2                !
 ! D2    D(4,1,2,11)          -105.0656         estimate D2E/DX2                !
 ! D3    D(5,1,2,11)            16.5649         estimate D2E/DX2                !
 ! D4    D(2,1,5,6)             62.2765         estimate D2E/DX2                !
 ! D5    D(2,1,5,7)            176.6871         estimate D2E/DX2                !
 ! D6    D(2,1,5,8)            -61.0744         estimate D2E/DX2                !
 ! D7    D(2,1,5,11)           -13.0919         estimate D2E/DX2                !
 ! D8    D(3,1,5,6)            -58.0164         estimate D2E/DX2                !
 ! D9    D(3,1,5,7)             56.3942         estimate D2E/DX2                !
 ! D10   D(3,1,5,8)            178.6327         estimate D2E/DX2                !
 ! D11   D(3,1,5,11)          -133.3848         estimate D2E/DX2                !
 ! D12   D(4,1,5,6)           -177.9718         estimate D2E/DX2                !
 ! D13   D(4,1,5,7)            -63.5612         estimate D2E/DX2                !
 ! D14   D(4,1,5,8)             58.6773         estimate D2E/DX2                !
 ! D15   D(4,1,5,11)           106.6598         estimate D2E/DX2                !
 ! D16   D(1,2,11,5)           -11.0652         estimate D2E/DX2                !
 ! D17   D(1,2,11,6)           -36.6958         estimate D2E/DX2                !
 ! D18   D(1,2,11,8)            12.6912         estimate D2E/DX2                !
 ! D19   D(1,2,11,9)             4.3093         estimate D2E/DX2                !
 ! D20   D(1,2,11,10)           38.0929         estimate D2E/DX2                !
 ! D21   D(1,2,11,12)          119.9024         estimate D2E/DX2                !
 ! D22   D(1,5,8,9)            166.7506         estimate D2E/DX2                !
 ! D23   D(1,5,8,10)           -28.9496         estimate D2E/DX2                !
 ! D24   D(1,5,8,12)            55.7336         estimate D2E/DX2                !
 ! D25   D(6,5,8,9)             43.0453         estimate D2E/DX2                !
 ! D26   D(6,5,8,10)          -152.6549         estimate D2E/DX2                !
 ! D27   D(6,5,8,12)           -67.9717         estimate D2E/DX2                !
 ! D28   D(7,5,8,9)            -71.1197         estimate D2E/DX2                !
 ! D29   D(7,5,8,10)            93.1801         estimate D2E/DX2                !
 ! D30   D(7,5,8,12)           177.8633         estimate D2E/DX2                !
 ! D31   D(1,5,11,2)             6.9621         estimate D2E/DX2                !
 ! D32   D(1,5,11,9)          -150.0495         estimate D2E/DX2                !
 ! D33   D(1,5,11,10)          -93.06           estimate D2E/DX2                !
 ! D34   D(1,5,11,12)          -69.0903         estimate D2E/DX2                !
 ! D35   D(7,5,11,2)           159.1783         estimate D2E/DX2                !
 ! D36   D(7,5,11,9)             2.1667         estimate D2E/DX2                !
 ! D37   D(7,5,11,10)           59.1562         estimate D2E/DX2                !
 ! D38   D(7,5,11,12)           83.1258         estimate D2E/DX2                !
 --------------------------------------------------------------------------------
 Trust Radius=3.00D-01 FncErr=1.00D-07 GrdErr=1.00D-06
 Number of steps in this run= 100 maximum allowed number of steps= 100.
 GradGradGradGradGradGradGradGradGradGradGradGradGradGradGradGradGradGrad

 Leave Link  103 at Wed Apr  1 01:17:04 2015, MaxMem= 3758096384 cpu:       0.1
 (Enter /share/apps/g09/l202.exe)
                          Input orientation:                          
 ---------------------------------------------------------------------
 Center     Atomic      Atomic             Coordinates (Angstroms)
 Number     Number       Type             X           Y           Z
 ---------------------------------------------------------------------
      1          6           0       -1.770989   -1.038662    0.178542
      2          1           0       -0.851751   -1.614285    0.028509
      3          1           0       -2.585462   -1.553648   -0.342254
      4          1           0       -2.000889   -1.046661    1.250762
      5          6           0       -1.604479    0.396413   -0.337067
      6          1           0       -1.410377    0.389163   -1.419577
      7          1           0       -2.565819    0.933380   -0.226627
      8          6           0       -0.531688    1.164002    0.354168
      9          1           0       -0.173588    2.103404   -0.055581
     10          1           0       -0.270420    0.943378    1.385194
     11          8           0        1.628434   -0.123678   -0.517860
     12          8           0        2.534222   -0.286979    0.293575
 ---------------------------------------------------------------------
                    Distance matrix (angstroms):
                    1          2          3          4          5
     1  C    0.000000
     2  H    1.094920   0.000000
     3  H    1.095356   1.773949   0.000000
     4  H    1.096619   1.771050   1.771006   0.000000
     5  C    1.533955   2.177878   2.182909   2.181927   0.000000
     6  H    2.173180   2.534328   2.513158   3.088852   1.099798
     7  H    2.164455   3.081188   2.489792   2.534243   1.106664
     8  C    2.533464   2.815559   3.476868   2.801689   1.489255
     9  H    3.532574   3.779972   4.390142   3.868911   2.245106
    10  H    2.763367   2.952995   3.818198   2.640615   2.246123
    11  O    3.588628   2.944783   4.453378   4.141486   3.279468
    12  O    4.371853   3.646480   5.312240   4.696867   4.241884
                    6          7          8          9         10
     6  H    0.000000
     7  H    1.747669   0.000000
     8  C    2.125710   2.127956   0.000000
     9  H    2.515702   2.668517   1.085636   0.000000
    10  H    3.077888   2.804804   1.086255   1.852261   0.000000
    11  O    3.210992   4.335199   2.661706   2.901875   2.892381
    12  O    4.353380   5.269754   3.392465   3.628784   3.251373
                   11         12
    11  O    0.000000
    12  O    1.227007   0.000000
 Stoichiometry    C3H7O2(2)
 Framework group  C1[X(C3H7O2)]
 Deg. of freedom    30
 Full point group                 C1      NOp   1
 Largest Abelian subgroup         C1      NOp   1
 Largest concise Abelian subgroup C1      NOp   1
                         Standard orientation:                         
 ---------------------------------------------------------------------
 Center     Atomic      Atomic             Coordinates (Angstroms)
 Number     Number       Type             X           Y           Z
 ---------------------------------------------------------------------
      1          6           0       -1.770989   -1.038662    0.178542
      2          1           0       -0.851751   -1.614285    0.028509
      3          1           0       -2.585462   -1.553648   -0.342254
      4          1           0       -2.000889   -1.046661    1.250762
      5          6           0       -1.604479    0.396413   -0.337067
      6          1           0       -1.410377    0.389163   -1.419577
      7          1           0       -2.565819    0.933380   -0.226627
      8          6           0       -0.531688    1.164002    0.354168
      9          1           0       -0.173588    2.103404   -0.055581
     10          1           0       -0.270420    0.943378    1.385194
     11          8           0        1.628434   -0.123678   -0.517860
     12          8           0        2.534222   -0.286979    0.293575
 ---------------------------------------------------------------------
 Rotational constants (GHZ):      8.4580268      2.0155451      1.7969328
 Leave Link  202 at Wed Apr  1 01:17:04 2015, MaxMem= 3758096384 cpu:       0.4
 (Enter /share/apps/g09/l301.exe)
 Standard basis: 6-31G(d) (6D, 7F)
 Ernie: Thresh=  0.10000D-02 Tol=  0.10000D-05 Strict=F.
 There are    89 symmetry adapted basis functions of A   symmetry.
 Integral buffers will be    131072 words long.
 Raffenetti 2 integral format.
 Two-electron integral symmetry is turned on.
    89 basis functions,   168 primitive gaussians,    89 cartesian basis functions
    21 alpha electrons       20 beta electrons
       nuclear repulsion energy       162.6964365141 Hartrees.
 IExCor=  402 DFT=T Ex+Corr=B3LYP ExCW=0 ScaHFX=  0.200000
 ScaDFX=  0.800000  0.720000  1.000000  0.810000 ScalE2=  1.000000  1.000000
 IRadAn=      0 IRanWt=     -1 IRanGd=            0 ICorTp=0
 NAtoms=   12 NActive=   12 NUniq=   12 SFac= 7.50D-01 NAtFMM=   80 NAOKFM=F Big=F
 Leave Link  301 at Wed Apr  1 01:17:04 2015, MaxMem= 3758096384 cpu:       0.5
 (Enter /share/apps/g09/l302.exe)
 NPDir=0 NMtPBC=     1 NCelOv=     1 NCel=       1 NClECP=     1 NCelD=      1
         NCelK=      1 NCelE2=     1 NClLst=     1 CellRange=     0.0.
 One-electron integrals computed using PRISM.
 NBasis=    89 RedAO= T  NBF=    89
 NBsUse=    89 1.00D-06 NBFU=    89
 Precomputing XC quadrature grid using
 IXCGrd= 2 IRadAn=           0 IRanWt=          -1 IRanGd=           0 AccXCQ= 1.00D-10.
 NRdTot=     743 NPtTot=       94340 NUsed=       99710 NTot=       99742
 NSgBfM=    89    89    89    89    89 NAtAll=    12    12.
 Leave Link  302 at Wed Apr  1 01:17:05 2015, MaxMem= 3758096384 cpu:       3.8
 (Enter /share/apps/g09/l303.exe)
 DipDrv:  MaxL=1.
 Leave Link  303 at Wed Apr  1 01:17:05 2015, MaxMem= 3758096384 cpu:       0.8
 (Enter /share/apps/g09/l401.exe)
 Harris functional with IExCor=  402 diagonalized for initial guess.
 ExpMin= 1.61D-01 ExpMax= 5.48D+03 ExpMxC= 8.25D+02 IAcc=1 IRadAn=         1 AccDes= 0.00D+00
 HarFok:  IExCor=  402 AccDes= 0.00D+00 IRadAn=         1 IDoV= 1
 ScaDFX=  1.000000  1.000000  1.000000  1.000000
 FoFCou: FMM=F IPFlag=           0 FMFlag=      100000 FMFlg1=           0
         NFxFlg=           0 DoJE=T BraDBF=F KetDBF=T FulRan=T
         Omega=  0.000000  0.000000  1.000000  0.000000  0.000000 ICntrl=     500 IOpCl=  0
         NMat0=    1 NMatS0=    1 NMatT0=    0 NMatD0=    1 NMtDS0=    0 NMtDT0=    0
         I1Cent=           4 NGrid=           0.
 Petite list used in FoFCou.
 Harris En= -268.817704284221    
 Initial guess orbital symmetries:
 Alpha Orbitals:
       Occupied  (A) (A) (A) (A) (A) (A) (A) (A) (A) (A) (A) (A)
                 (A) (A) (A) (A) (A) (A) (A) (A) (A)
       Virtual   (A) (A) (A) (A) (A) (A) (A) (A) (A) (A) (A) (A)
                 (A) (A) (A) (A) (A) (A) (A) (A) (A) (A) (A) (A)
                 (A) (A) (A) (A) (A) (A) (A) (A) (A) (A) (A) (A)
                 (A) (A) (A) (A) (A) (A) (A) (A) (A) (A) (A) (A)
                 (A) (A) (A) (A) (A) (A) (A) (A) (A) (A) (A) (A)
                 (A) (A) (A) (A) (A) (A) (A) (A)
 Beta  Orbitals:
       Occupied  (A) (A) (A) (A) (A) (A) (A) (A) (A) (A) (A) (A)
                 (A) (A) (A) (A) (A) (A) (A) (A)
       Virtual   (A) (A) (A) (A) (A) (A) (A) (A) (A) (A) (A) (A)
                 (A) (A) (A) (A) (A) (A) (A) (A) (A) (A) (A) (A)
                 (A) (A) (A) (A) (A) (A) (A) (A) (A) (A) (A) (A)
                 (A) (A) (A) (A) (A) (A) (A) (A) (A) (A) (A) (A)
                 (A) (A) (A) (A) (A) (A) (A) (A) (A) (A) (A) (A)
                 (A) (A) (A) (A) (A) (A) (A) (A) (A)
 The electronic state of the initial guess is 2-A.
 Initial guess <Sx>= 0.0000 <Sy>= 0.0000 <Sz>= 0.5000 <S**2>= 0.7500 S= 0.5000
 Leave Link  401 at Wed Apr  1 01:17:05 2015, MaxMem= 3758096384 cpu:       3.6
 (Enter /share/apps/g09/l508.exe)
 Direct SCF.
 Tight linear equation convergence will be used.
 UB3LYP wavefunction.
 Quadratic Convergence SCF Method.
 Line search only if initial step raises energy.
 Integral symmetry usage will be decided dynamically.
 ReadGW:  IGet=1 IStart=           2 Next=       99591 LGW=       99589.
 Pruned (  75, 302) grid will be used in CalDFT.
 Keep R1 and R2 ints in memory in canonical form, NReq=17125510.
 Symmetry not used in FoFDir.
 MinBra= 0 MaxBra= 2 Meth= 1.
 IRaf=       0 NMat=   1 IRICut=       1 DoRegI=T DoRafI=F ISym2E= 0 JSym2E=0.
 Iteration   1 EE= -268.355507187080                                    Grad=7.800D-01
 Gradient too large for Newton-Raphson -- use scaled steepest descent instead.
     ILin= 1 X=0.000D+00 Y=-2.683555071871D+02 DE= 0.00D+00
     ILin= 2 X=3.000D-01 Y=-2.686367478345D+02 DE=-2.81D-01
     ILin= 3 X=4.243D-01 Y=-2.686711564375D+02 DE=-3.16D-01
     ILin= 4 X=6.000D-01 Y=-2.686349802341D+02 DE=-2.79D-01
     An  expanding polynomial of degree  4 produced  0.4488
 Iteration   2 EE= -268.672097623558     Delta-E=       -0.316590436478 Grad=2.099D-01
 Gradient too large for Newton-Raphson -- use scaled steepest descent instead.
     ILin= 1 X=0.000D+00 Y=-2.686720976236D+02 DE= 0.00D+00
     ILin= 2 X=4.488D-01 Y=-2.687021900349D+02 DE=-3.01D-02
     ILin= 3 X=6.347D-01 Y=-2.687113396914D+02 DE=-3.92D-02
     ILin= 4 X=8.976D-01 Y=-2.687208242207D+02 DE=-4.87D-02
     ILin= 5 X=1.269D+00 Y=-2.687271143622D+02 DE=-5.50D-02
     ILin= 6 X=1.795D+00 Y=-2.687213185397D+02 DE=-4.92D-02
     An  expanding polynomial of degree  6 produced  1.3572
 Iteration   3 EE= -268.727355102639     Delta-E=       -0.055257479081 Grad=1.864D-01
 Gradient too large for Newton-Raphson -- use scaled steepest descent instead.
     ILin= 1 X=0.000D+00 Y=-2.687273551026D+02 DE= 0.00D+00
     ILin= 2 X=1.266D+00 Y=-2.684983920570D+02 DE= 2.29D-01
     ILin= 3 X=8.952D-01 Y=-2.686049407008D+02 DE= 1.22D-01
     ILin= 4 X=6.330D-01 Y=-2.686853630523D+02 DE= 4.20D-02
     ILin= 5 X=4.476D-01 Y=-2.687274535862D+02 DE=-9.85D-05
     A contracting polynomial of degree  5 produced  0.2150
 Iteration   4 EE= -268.748019023272     Delta-E=       -0.020663920633 Grad=1.682D-01
 Gradient too large for Newton-Raphson -- use scaled steepest descent instead.
     ILin= 1 X=0.000D+00 Y=-2.687480190233D+02 DE= 0.00D+00
     ILin= 2 X=1.357D+00 Y=-2.686420884608D+02 DE= 1.06D-01
     ILin= 3 X=9.597D-01 Y=-2.687107803881D+02 DE= 3.72D-02
     ILin= 4 X=6.786D-01 Y=-2.687409783081D+02 DE= 7.04D-03
     ILin= 5 X=4.798D-01 Y=-2.687527622375D+02 DE=-4.74D-03
     A contracting polynomial of degree  5 produced  0.2885
 Iteration   5 EE= -268.756502118479     Delta-E=       -0.008483095206 Grad=7.378D-02
 Gradient too large for Newton-Raphson -- use scaled steepest descent instead.
     ILin= 1 X=0.000D+00 Y=-2.687565021185D+02 DE= 0.00D+00
     ILin= 2 X=2.885D-01 Y=-2.687606697598D+02 DE=-4.17D-03
     ILin= 3 X=4.080D-01 Y=-2.687582962315D+02 DE=-1.79D-03
     An  expanding polynomial of degree  3 produced  0.2302
 Iteration   6 EE= -268.760985837027     Delta-E=       -0.004483718548 Grad=8.481D-02
 Gradient too large for Newton-Raphson -- use scaled steepest descent instead.
     ILin= 1 X=0.000D+00 Y=-2.687609858370D+02 DE= 0.00D+00
     ILin= 2 X=2.885D-01 Y=-2.687638446926D+02 DE=-2.86D-03
     ILin= 3 X=4.080D-01 Y=-2.687634945668D+02 DE=-2.51D-03
     An  expanding polynomial of degree  3 produced  0.3017
 Iteration   7 EE= -268.763850198860     Delta-E=       -0.002864361833 Grad=4.008D-02
 Gradient too large for Newton-Raphson -- use scaled steepest descent instead.
     ILin= 1 X=0.000D+00 Y=-2.687638501989D+02 DE= 0.00D+00
     ILin= 2 X=3.017D-01 Y=-2.687660567179D+02 DE=-2.21D-03
     ILin= 3 X=4.267D-01 Y=-2.687653843916D+02 DE=-1.53D-03
     An  expanding polynomial of degree  3 produced  0.2738
 Iteration   8 EE= -268.766085314034     Delta-E=       -0.002235115174 Grad=5.338D-02
 Gradient too large for Newton-Raphson -- use scaled steepest descent instead.
     ILin= 1 X=0.000D+00 Y=-2.687660853140D+02 DE= 0.00D+00
     ILin= 2 X=3.017D-01 Y=-2.687683710320D+02 DE=-2.29D-03
     ILin= 3 X=4.267D-01 Y=-2.687682225415D+02 DE=-2.14D-03
     An  expanding polynomial of degree  3 produced  0.3353
 Iteration   9 EE= -268.768393965760     Delta-E=       -0.002308651726 Grad=3.773D-02
 Gradient too large for Newton-Raphson -- use scaled steepest descent instead.
     ILin= 1 X=0.000D+00 Y=-2.687683939658D+02 DE= 0.00D+00
     ILin= 2 X=3.353D-01 Y=-2.687711989384D+02 DE=-2.80D-03
     ILin= 3 X=4.742D-01 Y=-2.687709621854D+02 DE=-2.57D-03
     An  expanding polynomial of degree  3 produced  0.3646
 Iteration  10 EE= -268.771211794059     Delta-E=       -0.002817828299 Grad=5.124D-02
 Gradient too large for Newton-Raphson -- use scaled steepest descent instead.
     ILin= 1 X=0.000D+00 Y=-2.687712117941D+02 DE= 0.00D+00
     ILin= 2 X=3.646D-01 Y=-2.687750093324D+02 DE=-3.80D-03
     ILin= 3 X=5.156D-01 Y=-2.687741721047D+02 DE=-2.96D-03
     An  expanding polynomial of degree  3 produced  0.3505
 Iteration  11 EE= -268.775017980793     Delta-E=       -0.003806186734 Grad=5.212D-02
 Gradient too large for Newton-Raphson -- use scaled steepest descent instead.
     ILin= 1 X=0.000D+00 Y=-2.687750179808D+02 DE= 0.00D+00
     ILin= 2 X=3.505D-01 Y=-2.687792044003D+02 DE=-4.19D-03
     ILin= 3 X=4.958D-01 Y=-2.687795253042D+02 DE=-4.51D-03
     ILin= 4 X=7.011D-01 Y=-2.687787876397D+02 DE=-3.77D-03
     An  expanding polynomial of degree  4 produced  0.4861
 Iteration  12 EE= -268.779526905313     Delta-E=       -0.004508924520 Grad=5.572D-02
 Gradient too large for Newton-Raphson -- use scaled steepest descent instead.
     ILin= 1 X=0.000D+00 Y=-2.687795269053D+02 DE= 0.00D+00
     ILin= 2 X=4.861D-01 Y=-2.687843348952D+02 DE=-4.81D-03
     ILin= 3 X=6.875D-01 Y=-2.687817426463D+02 DE=-2.22D-03
     An  expanding polynomial of degree  3 produced  0.3924
 Iteration  13 EE= -268.784722361929     Delta-E=       -0.005195456616 Grad=5.950D-02
 Gradient too large for Newton-Raphson -- use scaled steepest descent instead.
     ILin= 1 X=0.000D+00 Y=-2.687847223619D+02 DE= 0.00D+00
     ILin= 2 X=3.924D-01 Y=-2.687884938885D+02 DE=-3.77D-03
     ILin= 3 X=5.550D-01 Y=-2.687887693547D+02 DE=-4.05D-03
     ILin= 4 X=7.849D-01 Y=-2.687880093480D+02 DE=-3.29D-03
     An  expanding polynomial of degree  4 produced  0.5376
 Iteration  14 EE= -268.788773271747     Delta-E=       -0.004050909818 Grad=4.166D-02
 Gradient too large for Newton-Raphson -- use scaled steepest descent instead.
     ILin= 1 X=0.000D+00 Y=-2.687887732717D+02 DE= 0.00D+00
     ILin= 2 X=5.376D-01 Y=-2.687918316458D+02 DE=-3.06D-03
     ILin= 3 X=7.603D-01 Y=-2.687910351183D+02 DE=-2.26D-03
     An  expanding polynomial of degree  3 produced  0.5022
 Iteration  15 EE= -268.791855619585     Delta-E=       -0.003082347838 Grad=4.415D-02
 Gradient too large for Newton-Raphson -- use scaled steepest descent instead.
     ILin= 1 X=0.000D+00 Y=-2.687918556196D+02 DE= 0.00D+00
     ILin= 2 X=5.022D-01 Y=-2.687934603912D+02 DE=-1.60D-03
     ILin= 3 X=7.102D-01 Y=-2.687932544380D+02 DE=-1.40D-03
     An  expanding polynomial of degree  3 produced  0.5222
 Iteration  16 EE= -268.793462249582     Delta-E=       -0.001606629996 Grad=2.491D-02
 Gradient too large for Newton-Raphson -- use scaled steepest descent instead.
     ILin= 1 X=0.000D+00 Y=-2.687934622496D+02 DE= 0.00D+00
     ILin= 2 X=5.222D-01 Y=-2.687942886472D+02 DE=-8.26D-04
     ILin= 3 X=7.385D-01 Y=-2.687940729076D+02 DE=-6.11D-04
     An  expanding polynomial of degree  3 produced  0.4876
 Iteration  17 EE= -268.794293258816     Delta-E=       -0.000831009235 Grad=2.387D-02
 Gradient too large for Newton-Raphson -- use scaled steepest descent instead.
     ILin= 1 X=0.000D+00 Y=-2.687942932588D+02 DE= 0.00D+00
     ILin= 2 X=4.876D-01 Y=-2.687946843753D+02 DE=-3.91D-04
     ILin= 3 X=6.896D-01 Y=-2.687945794377D+02 DE=-2.86D-04
     An  expanding polynomial of degree  3 produced  0.4530
 Iteration  18 EE= -268.794686673168     Delta-E=       -0.000393414352 Grad=1.491D-02
 Gradient too large for Newton-Raphson -- use scaled steepest descent instead.
     ILin= 1 X=0.000D+00 Y=-2.687946866732D+02 DE= 0.00D+00
     ILin= 2 X=4.530D-01 Y=-2.687948855580D+02 DE=-1.99D-04
     ILin= 3 X=6.407D-01 Y=-2.687948527989D+02 DE=-1.66D-04
     An  expanding polynomial of degree  3 produced  0.4557
 Iteration  19 EE= -268.794885565557     Delta-E=       -0.000198892389 Grad=1.208D-02
 Gradient too large for Newton-Raphson -- use scaled steepest descent instead.
     ILin= 1 X=0.000D+00 Y=-2.687948855656D+02 DE= 0.00D+00
     ILin= 2 X=4.557D-01 Y=-2.687949883366D+02 DE=-1.03D-04
     ILin= 3 X=6.445D-01 Y=-2.687949680469D+02 DE=-8.25D-05
     An  expanding polynomial of degree  3 produced  0.4461
 Iteration  20 EE= -268.794988383511     Delta-E=       -0.000102817954 Grad=8.105D-03
 QCNR:  CnvC1=5.30D-09 CnvC2=5.30D-08
 LinEq1:  Iter=  0 NonCon=     1 RMS=4.13D-04 Max=1.62D-02
 AX will form     1 AO Fock derivatives at one time.
 LinEq1:  Iter=  1 NonCon=     1 RMS=5.12D-04 Max=1.53D-02
 LinEq1:  Iter=  2 NonCon=     1 RMS=3.26D-05 Max=7.90D-04
 LinEq1:  Iter=  3 NonCon=     1 RMS=1.17D-05 Max=2.91D-04
 LinEq1:  Iter=  4 NonCon=     1 RMS=8.70D-06 Max=2.22D-04
 LinEq1:  Iter=  5 NonCon=     1 RMS=8.94D-07 Max=1.66D-05
 LinEq1:  Iter=  6 NonCon=     1 RMS=2.28D-07 Max=2.52D-06
 LinEq1:  Iter=  7 NonCon=     1 RMS=8.15D-08 Max=7.01D-07
 LinEq1:  Iter=  8 NonCon=     1 RMS=3.35D-08 Max=3.25D-07
 LinEq1:  Iter=  9 NonCon=     1 RMS=1.34D-08 Max=1.24D-07
 LinEq1:  Iter= 10 NonCon=     1 RMS=6.82D-09 Max=6.51D-08
 LinEq1:  Iter= 11 NonCon=     0 RMS=2.23D-09 Max=2.14D-08
 Linear equations converged to 5.299D-09 5.299D-08 after    11 iterations.
 Angle between quadratic step and gradient=  60.53 degrees.
     ILin= 1 X=0.000D+00 Y=-2.687949883835D+02 DE= 0.00D+00
     ILin= 2 X=1.000D+00 Y=-2.687950977079D+02 DE=-1.09D-04
     ILin= 3 X=1.414D+00 Y=-2.687950764286D+02 DE=-8.80D-05
     An  expanding polynomial of degree  3 produced  0.9811
 Iteration  21 EE= -268.795097738966     Delta-E=       -0.000109355455 Grad=1.520D-04
 QCNR:  CnvC1=1.52D-09 CnvC2=1.52D-08
 LinEq1:  Iter=  0 NonCon=     1 RMS=8.22D-06 Max=3.18D-04
 LinEq1:  Iter=  1 NonCon=     1 RMS=8.37D-06 Max=2.57D-04
 LinEq1:  Iter=  2 NonCon=     1 RMS=4.70D-06 Max=1.18D-04
 LinEq1:  Iter=  3 NonCon=     1 RMS=1.58D-06 Max=2.47D-05
 LinEq1:  Iter=  4 NonCon=     1 RMS=9.13D-07 Max=1.06D-05
 LinEq1:  Iter=  5 NonCon=     1 RMS=2.56D-07 Max=2.93D-06
 LinEq1:  Iter=  6 NonCon=     1 RMS=8.64D-08 Max=1.07D-06
 LinEq1:  Iter=  7 NonCon=     1 RMS=5.27D-08 Max=9.14D-07
 LinEq1:  Iter=  8 NonCon=     1 RMS=1.71D-08 Max=2.73D-07
 LinEq1:  Iter=  9 NonCon=     1 RMS=4.66D-09 Max=8.61D-08
 LinEq1:  Iter= 10 NonCon=     1 RMS=1.91D-09 Max=1.44D-08
 LinEq1:  Iter= 11 NonCon=     0 RMS=9.67D-10 Max=1.23D-08
 Linear equations converged to 1.520D-09 1.520D-08 after    11 iterations.
 Angle between quadratic step and gradient=  56.12 degrees.
     ILin= 1 X=0.000D+00 Y=-2.687950977390D+02 DE= 0.00D+00
     ILin= 2 X=1.000D+00 Y=-2.687950977655D+02 DE=-2.66D-08
     ILin= 3 X=1.414D+00 Y=-2.687950977610D+02 DE=-2.20D-08
     An  expanding polynomial of degree  3 produced  0.9997
 Iteration  22 EE= -268.795097765533     Delta-E=       -0.000000026566 Grad=2.898D-08
 Rotation gradient small -- convergence achieved.
 SCF Done:  E(UB3LYP) =  -268.795097766     a.u. after   22 cycles
            Convg  =    0.2898D-07                    96 Fock formations.
              S**2 =  1.5921                  -V/T =  2.0093
 <Sx>= 0.0000 <Sy>= 0.0000 <Sz>= 0.5000 <S**2>= 1.5921 S= 0.8572
 <L.S>= 0.000000000000E+00
 Annihilation of the first spin contaminant:
 S**2 before annihilation     1.5921,   after     0.7739
 Leave Link  508 at Wed Apr  1 01:17:37 2015, MaxMem= 3758096384 cpu:     362.9
 (Enter /share/apps/g09/l601.exe)
 Copying SCF densities to generalized density rwf, IOpCl= 1 IROHF=0.

 **********************************************************************

            Population analysis using the SCF density.

 **********************************************************************

 Orbital symmetries:
 Alpha Orbitals:
       Occupied  (A) (A) (A) (A) (A) (A) (A) (A) (A) (A) (A) (A)
                 (A) (A) (A) (A) (A) (A) (A) (A) (A)
       Virtual   (A) (A) (A) (A) (A) (A) (A) (A) (A) (A) (A) (A)
                 (A) (A) (A) (A) (A) (A) (A) (A) (A) (A) (A) (A)
                 (A) (A) (A) (A) (A) (A) (A) (A) (A) (A) (A) (A)
                 (A) (A) (A) (A) (A) (A) (A) (A) (A) (A) (A) (A)
                 (A) (A) (A) (A) (A) (A) (A) (A) (A) (A) (A) (A)
                 (A) (A) (A) (A) (A) (A) (A) (A)
 Beta  Orbitals:
       Occupied  (A) (A) (A) (A) (A) (A) (A) (A) (A) (A) (A) (A)
                 (A) (A) (A) (A) (A) (A) (A) (A)
       Virtual   (A) (A) (A) (A) (A) (A) (A) (A) (A) (A) (A) (A)
                 (A) (A) (A) (A) (A) (A) (A) (A) (A) (A) (A) (A)
                 (A) (A) (A) (A) (A) (A) (A) (A) (A) (A) (A) (A)
                 (A) (A) (A) (A) (A) (A) (A) (A) (A) (A) (A) (A)
                 (A) (A) (A) (A) (A) (A) (A) (A) (A) (A) (A) (A)
                 (A) (A) (A) (A) (A) (A) (A) (A) (A)
 The electronic state is 2-A.
 Alpha  occ. eigenvalues --  -19.28818 -19.27691 -10.19450 -10.19025 -10.17788
 Alpha  occ. eigenvalues --   -1.26289  -0.81362  -0.77906  -0.66472  -0.57626
 Alpha  occ. eigenvalues --   -0.52888  -0.52381  -0.51857  -0.45292  -0.43956
 Alpha  occ. eigenvalues --   -0.40885  -0.35599  -0.35203  -0.34576  -0.28471
 Alpha  occ. eigenvalues --   -0.28057
 Alpha virt. eigenvalues --   -0.04417   0.10060   0.14259   0.14499   0.15375
 Alpha virt. eigenvalues --    0.16855   0.18520   0.19765   0.21127   0.24062
 Alpha virt. eigenvalues --    0.27900   0.50441   0.51255   0.53960   0.57235
 Alpha virt. eigenvalues --    0.58870   0.62386   0.66798   0.69871   0.72784
 Alpha virt. eigenvalues --    0.76352   0.78895   0.79532   0.84308   0.86597
 Alpha virt. eigenvalues --    0.87063   0.89161   0.90531   0.92135   0.92904
 Alpha virt. eigenvalues --    0.94964   0.95923   0.99412   1.00608   1.09590
 Alpha virt. eigenvalues --    1.23214   1.37663   1.43425   1.49686   1.51412
 Alpha virt. eigenvalues --    1.52637   1.54353   1.59766   1.61072   1.71608
 Alpha virt. eigenvalues --    1.85288   1.91184   1.92603   1.94037   1.94980
 Alpha virt. eigenvalues --    2.01540   2.08259   2.17713   2.24284   2.32940
 Alpha virt. eigenvalues --    2.36582   2.40532   2.42601   2.54960   2.55720
 Alpha virt. eigenvalues --    2.61665   2.68469   2.85208   3.22445   3.57563
 Alpha virt. eigenvalues --    4.13142   4.26477   4.45285
  Beta  occ. eigenvalues --  -19.26025 -19.24962 -10.20290 -10.19372 -10.17805
  Beta  occ. eigenvalues --   -1.20783  -0.78866  -0.73017  -0.68005  -0.58829
  Beta  occ. eigenvalues --   -0.48373  -0.45799  -0.44755  -0.43290  -0.42733
  Beta  occ. eigenvalues --   -0.41290  -0.36109  -0.35721  -0.34850  -0.20270
  Beta virt. eigenvalues --   -0.09304  -0.09218   0.09902   0.13261   0.14224
  Beta virt. eigenvalues --    0.15131   0.16854   0.18314   0.19407   0.23408
  Beta virt. eigenvalues --    0.25185   0.27370   0.50165   0.51059   0.53136
  Beta virt. eigenvalues --    0.56474   0.58273   0.59043   0.66596   0.70028
  Beta virt. eigenvalues --    0.74280   0.76306   0.80582   0.81505   0.85850
  Beta virt. eigenvalues --    0.86397   0.89339   0.89802   0.92096   0.93085
  Beta virt. eigenvalues --    0.94472   0.94571   0.95635   0.99334   1.03695
  Beta virt. eigenvalues --    1.10839   1.24366   1.39469   1.41945   1.50367
  Beta virt. eigenvalues --    1.53924   1.55942   1.57818   1.61356   1.64412
  Beta virt. eigenvalues --    1.67118   1.84122   1.91368   1.93587   1.97306
  Beta virt. eigenvalues --    1.99235   2.00846   2.06445   2.15149   2.24009
  Beta virt. eigenvalues --    2.32470   2.35349   2.41934   2.43896   2.58916
  Beta virt. eigenvalues --    2.59418   2.61137   2.68032   2.87593   3.26533
  Beta virt. eigenvalues --    3.61584   4.11978   4.25096   4.44796
          Condensed to atoms (all electrons):
              1          2          3          4          5          6
     1  C    5.062774   0.378668   0.371811   0.378312   0.378029  -0.035768
     2  H    0.378668   0.556616  -0.029134  -0.031467  -0.035063  -0.004702
     3  H    0.371811  -0.029134   0.572794  -0.030916  -0.028589  -0.002771
     4  H    0.378312  -0.031467  -0.030916   0.573867  -0.035580   0.005015
     5  C    0.378029  -0.035063  -0.028589  -0.035580   4.918437   0.377534
     6  H   -0.035768  -0.004702  -0.002771   0.005015   0.377534   0.589570
     7  H   -0.039890   0.005225  -0.002463  -0.004480   0.369048  -0.041730
     8  C   -0.046236  -0.001991   0.004415  -0.004154   0.390298  -0.041808
     9  H    0.003918   0.000021  -0.000155  -0.000006  -0.031612  -0.003432
    10  H   -0.005506   0.000202   0.000043   0.004144  -0.039169   0.004487
    11  O   -0.001305   0.003805   0.000014  -0.000013   0.000255   0.000100
    12  O    0.000049  -0.000120   0.000000   0.000003   0.000035   0.000009
              7          8          9         10         11         12
     1  C   -0.039890  -0.046236   0.003918  -0.005506  -0.001305   0.000049
     2  H    0.005225  -0.001991   0.000021   0.000202   0.003805  -0.000120
     3  H   -0.002463   0.004415  -0.000155   0.000043   0.000014   0.000000
     4  H   -0.004480  -0.004154  -0.000006   0.004144  -0.000013   0.000003
     5  C    0.369048   0.390298  -0.031612  -0.039169   0.000255   0.000035
     6  H   -0.041730  -0.041808  -0.003432   0.004487   0.000100   0.000009
     7  H    0.610788  -0.047973   0.000207   0.000666   0.000089  -0.000003
     8  C   -0.047973   5.270178   0.366725   0.371577   0.019206  -0.004956
     9  H    0.000207   0.366725   0.549825  -0.036835  -0.000340   0.000063
    10  H    0.000666   0.371577  -0.036835   0.546999  -0.000934   0.000847
    11  O    0.000089   0.019206  -0.000340  -0.000934   7.897856   0.108289
    12  O   -0.000003  -0.004956   0.000063   0.000847   0.108289   7.942287
 Mulliken atomic charges:
              1
     1  C   -0.444855
     2  H    0.157941
     3  H    0.144952
     4  H    0.145278
     5  C   -0.263623
     6  H    0.153496
     7  H    0.150517
     8  C   -0.275282
     9  H    0.151621
    10  H    0.153478
    11  O   -0.027022
    12  O   -0.046502
 Sum of Mulliken atomic charges =   0.00000
 Mulliken charges with hydrogens summed into heavy atoms:
              1
     1  C    0.003317
     5  C    0.040390
     8  C    0.029817
    11  O   -0.027022
    12  O   -0.046502
 Sum of Mulliken charges with hydrogens summed into heavy atoms =   0.00000
          Atomic-Atomic Spin Densities.
              1          2          3          4          5          6
     1  C   -0.012685   0.003154   0.001914  -0.000559  -0.006143  -0.005346
     2  H    0.003154  -0.002483  -0.001115   0.000936   0.000621   0.001102
     3  H    0.001914  -0.001115   0.000122   0.000466  -0.000391   0.000761
     4  H   -0.000559   0.000936   0.000466  -0.000661  -0.000569  -0.000311
     5  C   -0.006143   0.000621  -0.000391  -0.000569   0.056902  -0.005728
     6  H   -0.005346   0.001102   0.000761  -0.000311  -0.005728  -0.035296
     7  H    0.006422  -0.000693  -0.001482   0.001374  -0.012124   0.013785
     8  C    0.008329  -0.003538  -0.000272   0.000073   0.035475   0.012668
     9  H   -0.000035   0.000029   0.000001  -0.000019   0.000110  -0.000912
    10  H   -0.000736   0.000123   0.000045  -0.000211  -0.000469  -0.000257
    11  O   -0.000266   0.000700   0.000005   0.000008   0.000208  -0.000186
    12  O    0.000051  -0.000248   0.000000  -0.000003  -0.000028   0.000002
              7          8          9         10         11         12
     1  C    0.006422   0.008329  -0.000035  -0.000736  -0.000266   0.000051
     2  H   -0.000693  -0.003538   0.000029   0.000123   0.000700  -0.000248
     3  H   -0.001482  -0.000272   0.000001   0.000045   0.000005   0.000000
     4  H    0.001374   0.000073  -0.000019  -0.000211   0.000008  -0.000003
     5  C   -0.012124   0.035475   0.000110  -0.000469   0.000208  -0.000028
     6  H    0.013785   0.012668  -0.000912  -0.000257  -0.000186   0.000002
     7  H   -0.089204   0.027428   0.000693   0.000770  -0.000002   0.000001
     8  C    0.027428  -1.061374   0.006839   0.008578  -0.003225   0.002537
     9  H    0.000693   0.006839   0.040351  -0.002348  -0.000039  -0.000021
    10  H    0.000770   0.008578  -0.002348   0.039417  -0.000833   0.000130
    11  O   -0.000002  -0.003225  -0.000039  -0.000833   1.255259  -0.300288
    12  O    0.000001   0.002537  -0.000021   0.000130  -0.300288   1.235774
 Mulliken atomic spin densities:
              1
     1  C   -0.005899
     2  H   -0.001411
     3  H    0.000053
     4  H    0.000524
     5  C    0.067865
     6  H   -0.019720
     7  H   -0.053034
     8  C   -0.966482
     9  H    0.044648
    10  H    0.044208
    11  O    0.951342
    12  O    0.937906
 Sum of Mulliken atomic spin densities =   1.00000
 Electronic spatial extent (au):  <R**2>=            666.8832
 Charge=              0.0000 electrons
 Dipole moment (field-independent basis, Debye):
    X=             -1.3182    Y=              0.4284    Z=              0.0199  Tot=              1.3862
 Quadrupole moment (field-independent basis, Debye-Ang):
   XX=            -32.0166   YY=            -29.9759   ZZ=            -30.1988
   XY=              0.2225   XZ=              0.0357   YZ=             -0.0703
 Traceless Quadrupole moment (field-independent basis, Debye-Ang):
   XX=             -1.2861   YY=              0.7545   ZZ=              0.5316
   XY=              0.2225   XZ=              0.0357   YZ=             -0.0703
 Octapole moment (field-independent basis, Debye-Ang**2):
  XXX=             12.0602  YYY=             -0.1887  ZZZ=             -0.3985  XYY=              7.2297
  XXY=             -0.1243  XXZ=             -2.1880  XZZ=              5.7362  YZZ=             -0.5119
  YYZ=             -1.4197  XYZ=              0.1904
 Hexadecapole moment (field-independent basis, Debye-Ang**3):
 XXXX=           -585.1807 YYYY=           -164.8690 ZZZZ=            -68.6304 XXXY=             -2.0549
 XXXZ=             -1.6444 YYYX=             -3.9121 YYYZ=             -1.4929 ZZZX=             -0.4781
 ZZZY=             -0.3500 XXYY=           -123.9481 XXZZ=           -108.3203 YYZZ=            -40.8498
 XXYZ=              0.6943 YYXZ=              1.1095 ZZXY=             -0.7329
 N-N= 1.626964365141D+02 E-N=-1.420194800139D+03  KE= 3.969113154329D+02
                          Isotropic Fermi Contact Couplings
        Atom                 a.u.       MegaHertz       Gauss      10(-4) cm-1
     1  C(13)             -0.00765      -8.60370      -3.07001      -2.86989
     2  H(1)               0.00044       1.94471       0.69392       0.64869
     3  H(1)               0.00032       1.45198       0.51810       0.48433
     4  H(1)               0.00028       1.26325       0.45076       0.42137
     5  C(13)              0.02237      25.15333       8.97533       8.39025
     6  H(1)              -0.01051     -46.97314     -16.76118     -15.66855
     7  H(1)              -0.02787    -124.57609     -44.45185     -41.55411
     8  C(13)             -0.11446    -128.67460     -45.91430     -42.92123
     9  H(1)               0.01351      60.36741      21.54059      20.13640
    10  H(1)               0.01337      59.77936      21.33076      19.94025
    11  O(17)              0.10275     -62.28766     -22.22579     -20.77693
    12  O(17)              0.13028     -78.97558     -28.18045     -26.34342
 --------------------------------------------------------
       Center         ----  Spin Dipole Couplings  ----
                      3XX-RR        3YY-RR        3ZZ-RR
 --------------------------------------------------------
     1   Atom        0.012101     -0.014809      0.002709
     2   Atom        0.015480     -0.013438     -0.002042
     3   Atom        0.004261     -0.004778      0.000517
     4   Atom        0.005957     -0.006948      0.000991
     5   Atom       -0.001768     -0.001171      0.002939
     6   Atom        0.011972      0.000576     -0.012548
     7   Atom       -0.007876      0.003486      0.004390
     8   Atom       -0.318878      0.056705      0.262173
     9   Atom        0.018905     -0.045086      0.026181
    10   Atom        0.029314      0.034351     -0.063665
    11   Atom       -0.677107      1.077151     -0.400045
    12   Atom       -0.676751      1.196648     -0.519897
 --------------------------------------------------------
                        XY            XZ            YZ
 --------------------------------------------------------
     1   Atom       -0.008882     -0.000183      0.003944
     2   Atom        0.007276     -0.002618     -0.002309
     3   Atom       -0.001901     -0.000681     -0.001084
     4   Atom       -0.003759     -0.000348      0.003293
     5   Atom       -0.007165     -0.002659     -0.008465
     6   Atom       -0.006315     -0.005031     -0.007717
     7   Atom       -0.004058     -0.007114     -0.002760
     8   Atom        0.574891      0.408738     -0.292946
     9   Atom       -0.026845      0.032226      0.033620
    10   Atom        0.022305     -0.024671      0.020496
    11   Atom        0.331177     -1.614738      0.257544
    12   Atom        0.474109     -1.512879      0.097318
 --------------------------------------------------------


 ---------------------------------------------------------------------------------
              Anisotropic Spin Dipole Couplings in Principal Axis System
 ---------------------------------------------------------------------------------

       Atom             a.u.   MegaHertz   Gauss  10(-4) cm-1        Axes

              Baa    -0.0181    -2.435    -0.869    -0.812  0.2764  0.9447 -0.1763
     1 C(13)  Bbb     0.0032     0.433     0.155     0.145  0.1570  0.1366  0.9781
              Bcc     0.0149     2.001     0.714     0.668  0.9481 -0.2980 -0.1105
 
              Baa    -0.0154    -8.202    -2.927    -2.736 -0.2177  0.9680  0.1249
     2 H(1)   Bbb    -0.0023    -1.237    -0.441    -0.413  0.1793 -0.0861  0.9800
              Bcc     0.0177     9.439     3.368     3.148  0.9594  0.2357 -0.1549
 
              Baa    -0.0054    -2.884    -1.029    -0.962  0.2026  0.9589  0.1989
     3 H(1)   Bbb     0.0007     0.378     0.135     0.126  0.0705 -0.2168  0.9737
              Bcc     0.0047     2.505     0.894     0.836  0.9767 -0.1832 -0.1115
 
              Baa    -0.0089    -4.766    -1.701    -1.590  0.2270  0.9267 -0.2995
     4 H(1)   Bbb     0.0017     0.910     0.325     0.304  0.2815  0.2320  0.9311
              Bcc     0.0072     3.856     1.376     1.286  0.9323 -0.2956 -0.2082
 
              Baa    -0.0128    -1.712    -0.611    -0.571  0.5598  0.6859  0.4648
     5 C(13)  Bbb     0.0026     0.343     0.122     0.114  0.7902 -0.2731 -0.5487
              Bcc     0.0102     1.369     0.488     0.457  0.2494 -0.6745  0.6949
 
              Baa    -0.0179    -9.548    -3.407    -3.185  0.2392  0.4428  0.8641
     6 H(1)   Bbb     0.0030     1.612     0.575     0.538  0.2944  0.8150 -0.4991
              Bcc     0.0149     7.936     2.832     2.647  0.9253 -0.3738 -0.0645
 
              Baa    -0.0126    -6.720    -2.398    -2.242  0.8655  0.2887  0.4094
     7 H(1)   Bbb     0.0047     2.525     0.901     0.842 -0.3641  0.9238  0.1182
              Bcc     0.0079     4.195     1.497     1.399 -0.3441 -0.2513  0.9047
 
              Baa    -0.9453  -126.850   -45.263   -42.313  0.7477 -0.5414 -0.3845
     8 C(13)  Bbb     0.4698    63.044    22.496    21.029 -0.0716 -0.6414  0.7639
              Bcc     0.4755    63.806    22.768    21.283  0.6601  0.5436  0.5183
 
              Baa    -0.0737   -39.317   -14.029   -13.115  0.3815  0.8318 -0.4031
     9 H(1)   Bbb     0.0180     9.610     3.429     3.206  0.6903 -0.5464 -0.4743
              Bcc     0.0557    29.707    10.600     9.909  0.6148  0.0973  0.7826
 
              Baa    -0.0757   -40.413   -14.420   -13.480  0.2683 -0.2286  0.9358
    10 H(1)   Bbb     0.0215    11.445     4.084     3.818  0.6896 -0.6327 -0.3523
              Bcc     0.0543    28.968    10.337     9.663  0.6726  0.7399 -0.0121
 
              Baa    -2.2124   160.088    57.123    53.400  0.7317 -0.1261  0.6698
    11 O(17)  Bbb     1.0646   -77.032   -27.487   -25.695 -0.5574  0.4550  0.6945
              Bcc     1.1478   -83.056   -29.636   -27.704  0.3924  0.8815 -0.2626
 
              Baa    -2.1638   156.570    55.868    52.226  0.7267 -0.1221  0.6760
    12 O(17)  Bbb     0.7790   -56.370   -20.114   -18.803 -0.5564  0.4724  0.6835
              Bcc     1.3848  -100.200   -35.754   -33.423  0.4028  0.8729 -0.2754
 

 ---------------------------------------------------------------------------------

 No NMR shielding tensors so no spin-rotation constants.
 Leave Link  601 at Wed Apr  1 01:17:37 2015, MaxMem= 3758096384 cpu:       6.5
 (Enter /share/apps/g09/l701.exe)
 Compute integral first derivatives.
 ... and contract with generalized density number  0.
 Leave Link  701 at Wed Apr  1 01:17:38 2015, MaxMem= 3758096384 cpu:       4.3
 (Enter /share/apps/g09/l702.exe)
 L702 exits ... SP integral derivatives will be done elsewhere.
 Leave Link  702 at Wed Apr  1 01:17:38 2015, MaxMem= 3758096384 cpu:       0.2
 (Enter /share/apps/g09/l703.exe)
 Compute integral first derivatives, UseDBF=F ICtDFT=           0.
 Integral derivatives from FoFDir, PRISM(SPDF).
 Calling FoFJK, ICntrl=      2127 FMM=F ISym2X=0 I1Cent= 0 IOpClX= 1 NMat=1 NMatS=1 NMatT=0.
 FoFCou: FMM=F IPFlag=           0 FMFlag=      100000 FMFlg1=         800
         NFxFlg=           0 DoJE=F BraDBF=F KetDBF=F FulRan=T
         Omega=  0.000000  0.000000  1.000000  0.000000  0.000000 ICntrl=    2127 IOpCl=  1
         NMat0=    1 NMatS0=    1 NMatT0=    0 NMatD0=    1 NMtDS0=    0 NMtDT0=    0
         I1Cent=           0 NGrid=           0.
 Symmetry not used in FoFCou.
 Leave Link  703 at Wed Apr  1 01:17:39 2015, MaxMem= 3758096384 cpu:      11.1
 (Enter /share/apps/g09/l716.exe)
 Dipole        =-5.18604694D-01 1.68554842D-01 7.83712845D-03
 ***** Axes restored to original set *****
 -------------------------------------------------------------------
 Center     Atomic                   Forces (Hartrees/Bohr)
 Number     Number              X              Y              Z
 -------------------------------------------------------------------
      1        6          -0.000077983    0.000070526   -0.000102067
      2        1           0.000076832   -0.000050630    0.000007359
      3        1          -0.000006284   -0.000061568    0.000002889
      4        1           0.000015744   -0.000003205    0.000003411
      5        6           0.000157260    0.000055610   -0.000049272
      6        1          -0.000113624   -0.000095616   -0.000066199
      7        1          -0.000156682   -0.000096452   -0.000034517
      8        6           0.001847601   -0.000864804   -0.000549613
      9        1           0.000233916   -0.000069677   -0.000171997
     10        1           0.000182147   -0.000190421    0.000023587
     11        8           0.000514754    0.000859617    0.003418922
     12        8          -0.002673681    0.000446621   -0.002482502
 -------------------------------------------------------------------
 Cartesian Forces:  Max     0.003418922 RMS     0.000927248
 Leave Link  716 at Wed Apr  1 01:17:39 2015, MaxMem= 3758096384 cpu:       0.2
 (Enter /share/apps/g09/l103.exe)

 GradGradGradGradGradGradGradGradGradGradGradGradGradGradGradGradGradGrad
 Berny optimization.
 Internal  Forces:  Max     0.002622053 RMS     0.000348626
 Search for a local minimum.
 Step number   1 out of a maximum of  100
 All quantities printed in internal units (Hartrees-Bohrs-Radians)
 RMS Force = .33988D-03 SwitMx=.10000D-02 MixMth= 2
 Mixed Optimization -- En-DIIS/RFO-DIIS
 Second derivative matrix not updated -- first step.
     Eigenvalues ---    0.00377   0.00538   0.01088   0.02000   0.02272
     Eigenvalues ---    0.02666   0.03156   0.03628   0.03963   0.04870
     Eigenvalues ---    0.06599   0.07910   0.09529   0.10533   0.11249
     Eigenvalues ---    0.11678   0.13607   0.14365   0.16835   0.26914
     Eigenvalues ---    0.27358   0.30416   0.31269   0.31807   0.32191
     Eigenvalues ---    0.32956   0.34059   0.34201   0.714001000.00000
     Eigenvalues --- 1000.000001000.000001000.000001000.000001000.00000
     Eigenvalues --- 1000.000001000.000001000.000001000.000001000.00000
     Eigenvalues --- 1000.000001000.000001000.000001000.000001000.00000
     Eigenvalues --- 1000.000001000.000001000.000001000.000001000.00000
     Eigenvalues --- 1000.000001000.000001000.000001000.000001000.00000
     Eigenvalues --- 1000.000001000.000001000.000001000.000001000.00000
     Eigenvalues --- 1000.000001000.000001000.000001000.000001000.00000
     Eigenvalues --- 1000.000001000.000001000.000001000.000001000.00000
     Eigenvalues --- 1000.000001000.000001000.000001000.000001000.00000
     Eigenvalues --- 1000.000001000.000001000.000001000.000001000.00000
     Eigenvalues --- 1000.000001000.000001000.000001000.000001000.00000
     Eigenvalues --- 1000.000001000.000001000.000001000.000001000.00000
     Eigenvalues --- 1000.00000
 RFO step:  Lambda=-1.90359784D-05 EMin= 3.76998739D-03
 Linear search not attempted -- first point.
 Iteration  1 RMS(Cart)=  0.00095779 RMS(Int)=  0.00000230
 Iteration  2 RMS(Cart)=  0.00000132 RMS(Int)=  0.00000151
 Iteration  3 RMS(Cart)=  0.00000000 RMS(Int)=  0.00000151
 Iteration  1 RMS(Cart)=  0.00000002 RMS(Int)=  0.00000006
 Variable       Old X    -DE/DX   Delta X   Delta X   Delta X     New X
                                 (Linear)    (Quad)   (Total)
    R1        2.06910   0.00002   0.00000   0.00019   0.00019   2.06929
    R2        2.06992   0.00003   0.00000   0.00009   0.00009   2.07002
    R3        2.07231   0.00000   0.00000   0.00001   0.00001   2.07232
    R4        2.89876   0.00001   0.00000  -0.00001  -0.00001   2.89875
    R5        5.56483  -0.00004   0.00000  -0.00068  -0.00068   5.56415
    R6        2.07832  -0.00008   0.00000   0.00006   0.00006   2.07838
    R7        2.09129   0.00009   0.00000   0.00026   0.00026   2.09155
    R8        2.81428   0.00011   0.00000   0.00071   0.00071   2.81499
    R9        6.19730  -0.00013   0.00000   0.00058   0.00058   6.19788
   R10        6.06790   0.00008   0.00000   0.00276   0.00275   6.07065
   R11        2.05156   0.00011   0.00000   0.00018   0.00018   2.05173
   R12        2.05272   0.00022   0.00000   0.00027   0.00028   2.05300
   R13        5.02990  -0.00046   0.00000   0.00000   0.00000   5.02990
   R14        6.41083  -0.00124   0.00000  -0.00139  -0.00139   6.40944
   R15        5.48375  -0.00030   0.00000  -0.00471  -0.00471   5.47904
   R16        5.46581  -0.00029   0.00000  -0.00699  -0.00700   5.45881
   R17        6.14420  -0.00022   0.00000  -0.00785  -0.00785   6.13635
   R18        2.31871  -0.00262   0.00000  -0.00391  -0.00391   2.31479
    A1        1.88803  -0.00001   0.00000  -0.00016  -0.00016   1.88787
    A2        1.88194  -0.00002   0.00000  -0.00028  -0.00028   1.88166
    A3        1.93333  -0.00001   0.00000   0.00014   0.00014   1.93347
    A4        1.88133  -0.00001   0.00000  -0.00005  -0.00005   1.88128
    A5        1.93986   0.00002   0.00000   0.00052   0.00052   1.94038
    A6        1.93717   0.00002   0.00000  -0.00020  -0.00020   1.93697
    A7        2.05602  -0.00004   0.00000   0.00016   0.00016   2.05618
    A8        1.92180  -0.00006   0.00000  -0.00080  -0.00080   1.92099
    A9        1.90297  -0.00009   0.00000  -0.00059  -0.00059   1.90237
   A10        1.98709   0.00007   0.00000   0.00014   0.00014   1.98723
   A11        1.54797   0.00001   0.00000  -0.00030  -0.00030   1.54766
   A12        1.82837  -0.00004   0.00000  -0.00046  -0.00046   1.82792
   A13        1.91040  -0.00003   0.00000   0.00093   0.00093   1.91133
   A14        1.90641   0.00015   0.00000   0.00074   0.00074   1.90715
   A15        2.78993   0.00008   0.00000   0.00088   0.00088   2.79081
   A16        2.10415   0.00017   0.00000   0.00034   0.00033   2.10448
   A17        2.10497  -0.00027   0.00000   0.00027   0.00026   2.10523
   A18        2.00675  -0.00022   0.00000  -0.00066  -0.00066   2.00609
   A19        2.04277   0.00005   0.00000   0.00105   0.00104   2.04381
   A20        1.63610  -0.00007   0.00000  -0.00204  -0.00203   1.63406
   A21        0.70713   0.00002   0.00000   0.00004   0.00004   0.70717
   A22        0.84448  -0.00002   0.00000  -0.00023  -0.00023   0.84425
   A23        1.04787   0.00008   0.00000   0.00022   0.00022   1.04808
   A24        1.40596   0.00013   0.00000   0.00053   0.00052   1.40648
   A25        1.06070   0.00003   0.00000   0.00019   0.00019   1.06089
   A26        2.01715   0.00034   0.00000  -0.00040  -0.00040   2.01675
   A27        0.73376   0.00010   0.00000   0.00035   0.00035   0.73410
   A28        0.73480   0.00002   0.00000   0.00043   0.00043   0.73524
   A29        2.36368   0.00062   0.00000   0.00043   0.00043   2.36411
   A30        0.71773   0.00000   0.00000   0.00007   0.00008   0.71780
   A31        0.84260   0.00008   0.00000   0.00026   0.00026   0.84286
   A32        1.05244   0.00002   0.00000   0.00048   0.00048   1.05292
   A33        2.70357   0.00061   0.00000   0.00037   0.00037   2.70394
   A34        0.65076   0.00010   0.00000   0.00101   0.00101   0.65177
   A35        2.04340   0.00051   0.00000   0.00126   0.00126   2.04467
    D1        2.41924   0.00008   0.00000   0.00053   0.00053   2.41977
    D2       -1.83374   0.00005   0.00000   0.00024   0.00024  -1.83350
    D3        0.28911   0.00006   0.00000  -0.00009  -0.00009   0.28902
    D4        1.08693   0.00007   0.00000   0.00126   0.00126   1.08819
    D5        3.08377  -0.00007   0.00000  -0.00005  -0.00005   3.08372
    D6       -1.06595   0.00011   0.00000   0.00056   0.00055  -1.06539
    D7       -0.22850  -0.00006   0.00000   0.00014   0.00014  -0.22835
    D8       -1.01258   0.00007   0.00000   0.00102   0.00102  -1.01155
    D9        0.98426  -0.00007   0.00000  -0.00029  -0.00029   0.98397
   D10        3.11773   0.00011   0.00000   0.00032   0.00032   3.11805
   D11       -2.32800  -0.00005   0.00000  -0.00010  -0.00010  -2.32810
   D12       -3.10619   0.00006   0.00000   0.00088   0.00088  -3.10532
   D13       -1.10935  -0.00008   0.00000  -0.00044  -0.00044  -1.10979
   D14        1.02411   0.00010   0.00000   0.00017   0.00017   1.02428
   D15        1.86156  -0.00007   0.00000  -0.00025  -0.00024   1.86132
   D16       -0.19312  -0.00004   0.00000   0.00010   0.00010  -0.19303
   D17       -0.64046  -0.00005   0.00000  -0.00001  -0.00001  -0.64047
   D18        0.22150  -0.00011   0.00000  -0.00006  -0.00006   0.22145
   D19        0.07521  -0.00009   0.00000  -0.00040  -0.00040   0.07481
   D20        0.66485  -0.00004   0.00000   0.00058   0.00058   0.66543
   D21        2.09269   0.00055   0.00000   0.00122   0.00122   2.09392
   D22        2.91035   0.00001   0.00000  -0.00359  -0.00359   2.90675
   D23       -0.50527  -0.00017   0.00000   0.00367   0.00367  -0.50159
   D24        0.97273   0.00017   0.00000  -0.00052  -0.00051   0.97222
   D25        0.75128   0.00007   0.00000  -0.00336  -0.00336   0.74792
   D26       -2.66433  -0.00011   0.00000   0.00391   0.00391  -2.66042
   D27       -1.18633   0.00023   0.00000  -0.00028  -0.00028  -1.18661
   D28       -1.24127   0.00006   0.00000  -0.00372  -0.00372  -1.24499
   D29        1.62630  -0.00012   0.00000   0.00355   0.00355   1.62985
   D30        3.10430   0.00022   0.00000  -0.00064  -0.00064   3.10366
   D31        0.12151   0.00003   0.00000  -0.00006  -0.00006   0.12145
   D32       -2.61886  -0.00008   0.00000  -0.00095  -0.00095  -2.61981
   D33       -1.62420   0.00001   0.00000   0.00020   0.00020  -1.62400
   D34       -1.20585   0.00022   0.00000   0.00133   0.00133  -1.20452
   D35        2.77819  -0.00005   0.00000  -0.00083  -0.00083   2.77735
   D36        0.03782  -0.00016   0.00000  -0.00172  -0.00173   0.03609
   D37        1.03247  -0.00006   0.00000  -0.00057  -0.00057   1.03190
   D38        1.45082   0.00014   0.00000   0.00056   0.00056   1.45138
         Item               Value     Threshold  Converged?
 Maximum Force            0.002761     0.000450     NO 
 RMS     Force            0.000340     0.000300     NO 
 Maximum Displacement     0.004345     0.001800     NO 
 RMS     Displacement     0.000957     0.001200     YES
 Predicted change in Energy=-9.522358D-06
 GradGradGradGradGradGradGradGradGradGradGradGradGradGradGradGradGradGrad

 Leave Link  103 at Wed Apr  1 01:17:39 2015, MaxMem= 3758096384 cpu:       0.7
 (Enter /share/apps/g09/l202.exe)
                          Input orientation:                          
 ---------------------------------------------------------------------
 Center     Atomic      Atomic             Coordinates (Angstroms)
 Number     Number       Type             X           Y           Z
 ---------------------------------------------------------------------
      1          6           0       -1.770959   -1.038463    0.178302
      2          1           0       -0.851345   -1.613776    0.028651
      3          1           0       -2.585014   -1.554150   -0.342558
      4          1           0       -2.000995   -1.046612    1.250496
      5          6           0       -1.604906    0.396803   -0.336907
      6          1           0       -1.411583    0.389072   -1.419585
      7          1           0       -2.566974    0.932778   -0.226608
      8          6           0       -0.532110    1.164892    0.354573
      9          1           0       -0.171830    2.102967   -0.056548
     10          1           0       -0.268121    0.942081    1.384589
     11          8           0        1.628478   -0.122771   -0.516325
     12          8           0        2.532553   -0.286992    0.293705
 ---------------------------------------------------------------------
                    Distance matrix (angstroms):
                    1          2          3          4          5
     1  C    0.000000
     2  H    1.095021   0.000000
     3  H    1.095406   1.773967   0.000000
     4  H    1.096623   1.770953   1.771015   0.000000
     5  C    1.533950   2.178053   2.183314   2.181784   0.000000
     6  H    2.172614   2.534296   2.512577   3.088353   1.099830
     7  H    2.164113   3.081149   2.489695   2.533802   1.106802
     8  C    2.533888   2.815871   3.477585   2.801972   1.489629
     9  H    3.532839   3.779310   4.390873   3.869633   2.245730
    10  H    2.763369   2.951461   3.818665   2.641161   2.246747
    11  O    3.588478   2.944421   4.453376   4.141040   3.279775
    12  O    4.370154   3.644362   5.310368   4.695266   4.240733
                    6          7          8          9         10
     6  H    0.000000
     7  H    1.747495   0.000000
     8  C    2.126736   2.128925   0.000000
     9  H    2.516405   2.671138   1.085729   0.000000
    10  H    3.078428   2.807271   1.086401   1.853053   0.000000
    11  O    3.212450   4.335890   2.661706   2.899382   2.888680
    12  O    4.353003   5.269131   3.391730   3.626055   3.247217
                   11         12
    11  O    0.000000
    12  O    1.224936   0.000000
 Stoichiometry    C3H7O2(2)
 Framework group  C1[X(C3H7O2)]
 Deg. of freedom    30
 Full point group                 C1      NOp   1
 Largest Abelian subgroup         C1      NOp   1
 Largest concise Abelian subgroup C1      NOp   1
                         Standard orientation:                         
 ---------------------------------------------------------------------
 Center     Atomic      Atomic             Coordinates (Angstroms)
 Number     Number       Type             X           Y           Z
 ---------------------------------------------------------------------
      1          6           0       -1.770633   -1.038674    0.178183
      2          1           0       -0.851098   -1.614042    0.028251
      3          1           0       -2.584839   -1.554212   -0.342589
      4          1           0       -2.000447   -1.046971    1.250423
      5          6           0       -1.604565    0.396658   -0.336837
      6          1           0       -1.411467    0.389079   -1.419556
      7          1           0       -2.566565    0.932697   -0.226255
      8          6           0       -0.531562    1.164549    0.354541
      9          1           0       -0.171287    2.102658   -0.056509
     10          1           0       -0.267377    0.941555    1.384467
     11          8           0        1.628738   -0.123161   -0.517005
     12          8           0        2.532967   -0.287584    0.292812
 ---------------------------------------------------------------------
 Rotational constants (GHZ):      8.4593921      2.0165391      1.7974724
 Leave Link  202 at Wed Apr  1 01:17:39 2015, MaxMem= 3758096384 cpu:       0.4
 (Enter /share/apps/g09/l301.exe)
 Standard basis: 6-31G(d) (6D, 7F)
 Ernie: Thresh=  0.10000D-02 Tol=  0.10000D-05 Strict=F.
 There are    89 symmetry adapted basis functions of A   symmetry.
 Integral buffers will be    131072 words long.
 Raffenetti 2 integral format.
 Two-electron integral symmetry is turned on.
    89 basis functions,   168 primitive gaussians,    89 cartesian basis functions
    21 alpha electrons       20 beta electrons
       nuclear repulsion energy       162.7461519081 Hartrees.
 IExCor=  402 DFT=T Ex+Corr=B3LYP ExCW=0 ScaHFX=  0.200000
 ScaDFX=  0.800000  0.720000  1.000000  0.810000 ScalE2=  1.000000  1.000000
 IRadAn=      0 IRanWt=     -1 IRanGd=            0 ICorTp=0
 NAtoms=   12 NActive=   12 NUniq=   12 SFac= 7.50D-01 NAtFMM=   80 NAOKFM=F Big=F
 Leave Link  301 at Wed Apr  1 01:17:39 2015, MaxMem= 3758096384 cpu:       0.4
 (Enter /share/apps/g09/l302.exe)
 NPDir=0 NMtPBC=     1 NCelOv=     1 NCel=       1 NClECP=     1 NCelD=      1
         NCelK=      1 NCelE2=     1 NClLst=     1 CellRange=     0.0.
 One-electron integrals computed using PRISM.
 NBasis=    89 RedAO= T  NBF=    89
 NBsUse=    89 1.00D-06 NBFU=    89
 Precomputing XC quadrature grid using
 IXCGrd= 2 IRadAn=           0 IRanWt=          -1 IRanGd=           0 AccXCQ= 1.00D-10.
 NRdTot=     743 NPtTot=       94340 NUsed=       99710 NTot=       99742
 NSgBfM=    89    89    89    89    89 NAtAll=    12    12.
 Leave Link  302 at Wed Apr  1 01:17:40 2015, MaxMem= 3758096384 cpu:       3.3
 (Enter /share/apps/g09/l303.exe)
 DipDrv:  MaxL=1.
 Leave Link  303 at Wed Apr  1 01:17:40 2015, MaxMem= 3758096384 cpu:       0.7
 (Enter /share/apps/g09/l401.exe)
 Initial guess read from the read-write file.
 B after Tr=     0.000000    0.000000    0.000000
         Rot=    1.000000    0.000000    0.000000    0.000000 Ang=   0.00 deg.
 Guess basis will be translated and rotated to current coordinates.
 Initial guess orbital symmetries:
 Alpha Orbitals:
       Occupied  (A) (A) (A) (A) (A) (A) (A) (A) (A) (A) (A) (A)
                 (A) (A) (A) (A) (A) (A) (A) (A) (A)
       Virtual   (A) (A) (A) (A) (A) (A) (A) (A) (A) (A) (A) (A)
                 (A) (A) (A) (A) (A) (A) (A) (A) (A) (A) (A) (A)
                 (A) (A) (A) (A) (A) (A) (A) (A) (A) (A) (A) (A)
                 (A) (A) (A) (A) (A) (A) (A) (A) (A) (A) (A) (A)
                 (A) (A) (A) (A) (A) (A) (A) (A) (A) (A) (A) (A)
                 (A) (A) (A) (A) (A) (A) (A) (A)
 Beta  Orbitals:
       Occupied  (A) (A) (A) (A) (A) (A) (A) (A) (A) (A) (A) (A)
                 (A) (A) (A) (A) (A) (A) (A) (A)
       Virtual   (A) (A) (A) (A) (A) (A) (A) (A) (A) (A) (A) (A)
                 (A) (A) (A) (A) (A) (A) (A) (A) (A) (A) (A) (A)
                 (A) (A) (A) (A) (A) (A) (A) (A) (A) (A) (A) (A)
                 (A) (A) (A) (A) (A) (A) (A) (A) (A) (A) (A) (A)
                 (A) (A) (A) (A) (A) (A) (A) (A) (A) (A) (A) (A)
                 (A) (A) (A) (A) (A) (A) (A) (A) (A)
 The electronic state of the initial guess is 2-A.
 Initial guess <Sx>= 0.0000 <Sy>= 0.0000 <Sz>= 0.5000 <S**2>= 1.5922 S= 0.8573
 Leave Link  401 at Wed Apr  1 01:17:40 2015, MaxMem= 3758096384 cpu:       2.7
 (Enter /share/apps/g09/l508.exe)
 Direct SCF.
 Tight linear equation convergence will be used.
 UB3LYP wavefunction.
 Quadratic Convergence SCF Method.
 Line search only if initial step raises energy.
 Integral symmetry usage will be decided dynamically.
 ReadGW:  IGet=1 IStart=           2 Next=       99591 LGW=       99589.
 Pruned (  75, 302) grid will be used in CalDFT.
 Keep R1 and R2 ints in memory in canonical form, NReq=17125510.
 Symmetry not used in FoFDir.
 MinBra= 0 MaxBra= 2 Meth= 1.
 IRaf=       0 NMat=   1 IRICut=       1 DoRegI=T DoRafI=F ISym2E= 0 JSym2E=0.
 Iteration   1 EE= -268.795103452589                                    Grad=2.897D-03
 QCNR:  CnvC1=5.30D-09 CnvC2=5.30D-08
 LinEq1:  Iter=  0 NonCon=     1 RMS=5.13D-05 Max=1.18D-03
 AX will form     1 AO Fock derivatives at one time.
 LinEq1:  Iter=  1 NonCon=     1 RMS=1.08D-05 Max=2.78D-04
 LinEq1:  Iter=  2 NonCon=     1 RMS=9.44D-06 Max=2.72D-04
 LinEq1:  Iter=  3 NonCon=     1 RMS=1.06D-05 Max=2.91D-04
 LinEq1:  Iter=  4 NonCon=     1 RMS=7.59D-06 Max=2.12D-04
 LinEq1:  Iter=  5 NonCon=     1 RMS=3.71D-06 Max=5.70D-05
 LinEq1:  Iter=  6 NonCon=     1 RMS=1.87D-06 Max=3.53D-05
 LinEq1:  Iter=  7 NonCon=     1 RMS=6.84D-07 Max=8.30D-06
 LinEq1:  Iter=  8 NonCon=     1 RMS=3.59D-07 Max=3.39D-06
 LinEq1:  Iter=  9 NonCon=     1 RMS=1.30D-07 Max=1.21D-06
 LinEq1:  Iter= 10 NonCon=     1 RMS=4.60D-08 Max=6.01D-07
 LinEq1:  Iter= 11 NonCon=     1 RMS=1.40D-08 Max=1.21D-07
 LinEq1:  Iter= 12 NonCon=     1 RMS=5.76D-09 Max=5.38D-08
 LinEq1:  Iter= 13 NonCon=     0 RMS=2.95D-09 Max=4.44D-08
 Linear equations converged to 5.299D-09 5.299D-08 after    13 iterations.
 Angle between quadratic step and gradient=  46.17 degrees.
     ILin= 1 X=0.000D+00 Y=-2.687951034526D+02 DE= 0.00D+00
     ILin= 2 X=1.000D+00 Y=-2.687951102257D+02 DE=-6.77D-06
     ILin= 3 X=1.414D+00 Y=-2.687951090636D+02 DE=-5.61D-06
     An  expanding polynomial of degree  3 produced  1.0000
 Iteration   2 EE= -268.795110225718     Delta-E=       -0.000006773130 Grad=1.236D-06
 QCNR:  CnvC1=1.24D-11 CnvC2=1.24D-10
 LinEq1:  Iter=  0 NonCon=     1 RMS=6.00D-08 Max=2.83D-06
 LinEq1:  Iter=  1 NonCon=     1 RMS=2.22D-08 Max=2.80D-07
 LinEq1:  Iter=  2 NonCon=     1 RMS=7.65D-09 Max=8.95D-08
 LinEq1:  Iter=  3 NonCon=     1 RMS=3.65D-09 Max=7.25D-08
 LinEq1:  Iter=  4 NonCon=     1 RMS=2.10D-09 Max=7.31D-08
 LinEq1:  Iter=  5 NonCon=     1 RMS=2.52D-09 Max=7.68D-08
 LinEq1:  Iter=  6 NonCon=     1 RMS=1.17D-09 Max=2.02D-08
 LinEq1:  Iter=  7 NonCon=     1 RMS=7.05D-10 Max=1.02D-08
 LinEq1:  Iter=  8 NonCon=     1 RMS=2.41D-10 Max=3.02D-09
 LinEq1:  Iter=  9 NonCon=     1 RMS=8.43D-11 Max=1.36D-09
 LinEq1:  Iter= 10 NonCon=     1 RMS=2.95D-11 Max=3.09D-10
 LinEq1:  Iter= 11 NonCon=     1 RMS=1.68D-11 Max=1.49D-10
 LinEq1:  Iter= 12 NonCon=     0 RMS=6.06D-12 Max=7.62D-11
 Linear equations converged to 1.236D-11 1.236D-10 after    12 iterations.
 Angle between quadratic step and gradient=  57.16 degrees.
     ILin= 1 X=0.000D+00 Y=-2.687951102257D+02 DE= 0.00D+00
     ILin= 2 X=1.000D+00 Y=-2.687951102257D+02 DE=-3.13D-12
 Iteration   3 EE= -268.795110225722     Delta-E=       -0.000000000003 Grad=1.831D-11
 Rotation gradient small -- convergence achieved.
 SCF Done:  E(UB3LYP) =  -268.795110226     a.u. after    3 cycles
            Convg  =    0.1831D-10                    30 Fock formations.
              S**2 =  1.5934                  -V/T =  2.0092
 <Sx>= 0.0000 <Sy>= 0.0000 <Sz>= 0.5000 <S**2>= 1.5934 S= 0.8577
 <L.S>= 0.000000000000E+00
 Annihilation of the first spin contaminant:
 S**2 before annihilation     1.5934,   after     0.7739
 Leave Link  508 at Wed Apr  1 01:17:52 2015, MaxMem= 3758096384 cpu:     132.7
 (Enter /share/apps/g09/l701.exe)
 Compute integral first derivatives.
 ... and contract with generalized density number  0.
 Leave Link  701 at Wed Apr  1 01:17:53 2015, MaxMem= 3758096384 cpu:       3.7
 (Enter /share/apps/g09/l702.exe)
 L702 exits ... SP integral derivatives will be done elsewhere.
 Leave Link  702 at Wed Apr  1 01:17:53 2015, MaxMem= 3758096384 cpu:       0.2
 (Enter /share/apps/g09/l703.exe)
 Compute integral first derivatives, UseDBF=F ICtDFT=           0.
 Integral derivatives from FoFDir, PRISM(SPDF).
 Calling FoFJK, ICntrl=      2127 FMM=F ISym2X=0 I1Cent= 0 IOpClX= 1 NMat=1 NMatS=1 NMatT=0.
 FoFCou: FMM=F IPFlag=           0 FMFlag=      100000 FMFlg1=         800
         NFxFlg=           0 DoJE=F BraDBF=F KetDBF=F FulRan=T
         Omega=  0.000000  0.000000  1.000000  0.000000  0.000000 ICntrl=    2127 IOpCl=  1
         NMat0=    1 NMatS0=    1 NMatT0=    0 NMatD0=    1 NMtDS0=    0 NMtDT0=    0
         I1Cent=           0 NGrid=           0.
 Symmetry not used in FoFCou.
 Leave Link  703 at Wed Apr  1 01:17:54 2015, MaxMem= 3758096384 cpu:      11.6
 (Enter /share/apps/g09/l716.exe)
 Dipole        =-5.12062646D-01 1.65952021D-01 6.78603325D-03
 ***** Axes restored to original set *****
 -------------------------------------------------------------------
 Center     Atomic                   Forces (Hartrees/Bohr)
 Number     Number              X              Y              Z
 -------------------------------------------------------------------
      1        6           0.000015285    0.000000770    0.000003704
      2        1           0.000034356   -0.000014978   -0.000001452
      3        1           0.000007950   -0.000002550   -0.000002464
      4        1           0.000003018   -0.000019360    0.000009984
      5        6           0.000050199    0.000101648   -0.000030471
      6        1          -0.000017578   -0.000010924   -0.000035301
      7        1          -0.000046898   -0.000083147   -0.000009194
      8        6           0.001793541   -0.001027271   -0.000672362
      9        1           0.000157131   -0.000111969   -0.000073816
     10        1           0.000097750   -0.000094237   -0.000081373
     11        8          -0.001534094    0.001188696    0.001465389
     12        8          -0.000560660    0.000073322   -0.000572644
 -------------------------------------------------------------------
 Cartesian Forces:  Max     0.001793541 RMS     0.000562242
 Leave Link  716 at Wed Apr  1 01:17:54 2015, MaxMem= 3758096384 cpu:       0.2
 (Enter /share/apps/g09/l103.exe)

 GradGradGradGradGradGradGradGradGradGradGradGradGradGradGradGradGradGrad
 Berny optimization.
 Using GEDIIS/GDIIS optimizer.
 Internal  Forces:  Max     0.000705817 RMS     0.000152584
 Search for a local minimum.
 Step number   2 out of a maximum of  100
 All quantities printed in internal units (Hartrees-Bohrs-Radians)
 RMS Force = .79263D-04 SwitMx=.10000D-02 MixMth= 2
 Mixed Optimization -- En-DIIS/RFO-DIIS
 Swaping is turned off.
 Update second derivatives using D2CorX and points    1    2
 DE= -1.25D-05 DEPred=-9.52D-06 R= 1.31D+00
 SS=  1.41D+00  RLast= 1.63D-02 DXNew= 5.0454D-01 4.8998D-02
 Trust test= 1.31D+00 RLast= 1.63D-02 DXMaxT set to 3.00D-01
     Eigenvalues ---    0.00377   0.00535   0.00956   0.01872   0.02155
     Eigenvalues ---    0.02626   0.03162   0.03630   0.03963   0.04869
     Eigenvalues ---    0.06552   0.07938   0.09491   0.10564   0.11243
     Eigenvalues ---    0.11628   0.13621   0.14372   0.16821   0.26885
     Eigenvalues ---    0.27436   0.30403   0.31290   0.31815   0.32181
     Eigenvalues ---    0.32973   0.34058   0.34205   0.647171000.00000
     Eigenvalues --- 1000.000001000.000001000.000001000.000001000.00000
     Eigenvalues --- 1000.000001000.000001000.000001000.000001000.00000
     Eigenvalues --- 1000.000001000.000001000.000001000.000001000.00000
     Eigenvalues --- 1000.000001000.000001000.000001000.000001000.00000
     Eigenvalues --- 1000.000001000.000001000.000001000.000001000.00000
     Eigenvalues --- 1000.000001000.000001000.000001000.000001000.00000
     Eigenvalues --- 1000.000001000.000001000.000001000.000001000.00000
     Eigenvalues --- 1000.000001000.000001000.000001000.000001000.00000
     Eigenvalues --- 1000.000001000.000001000.000001000.000001000.00000
     Eigenvalues --- 1000.000001000.000001000.000001000.000001000.00000
[...]
 Second derivative matrix not updated -- analytic derivatives used.
     Eigenvalues ---    0.00010   0.00012   0.00063   0.00098   0.00122
     Eigenvalues ---    0.00396   0.00598   0.01057   0.01935   0.02448
     Eigenvalues ---    0.02886   0.03820   0.05309   0.07153   0.07902
     Eigenvalues ---    0.08224   0.09336   0.10723   0.12182   0.22425
     Eigenvalues ---    0.25355   0.28965   0.29758   0.30074   0.31290
     Eigenvalues ---    0.31976   0.33667   0.34380   0.562251000.00000
     Eigenvalues --- 1000.000001000.000001000.000001000.000001000.00000
     Eigenvalues --- 1000.000001000.000001000.000001000.000001000.00000
     Eigenvalues --- 1000.000001000.000001000.000001000.000001000.00000
     Eigenvalues --- 1000.000001000.000001000.000001000.000001000.00000
     Eigenvalues --- 1000.000001000.000001000.000001000.000001000.00000
     Eigenvalues --- 1000.000001000.000001000.000001000.000001000.00000
     Eigenvalues --- 1000.000001000.000001000.000001000.000001000.00000
     Eigenvalues --- 1000.000001000.000001000.000001000.000001000.00000
     Eigenvalues --- 1000.000001000.000001000.000001000.000001000.00000
     Eigenvalues --- 1000.000001000.000001000.000001000.000001000.00000
     Eigenvalues --- 1000.000001000.000001000.000001000.000001000.00000
     Eigenvalues --- 1000.000001000.000001000.000001000.000001000.00000
     Eigenvalues --- 1000.00000
 Angle between quadratic step and forces=  79.31 degrees.
 Linear search not attempted -- first point.
 Iteration  1 RMS(Cart)=  0.01276352 RMS(Int)=  0.00035558
 Iteration  2 RMS(Cart)=  0.00021863 RMS(Int)=  0.00017670
 Iteration  3 RMS(Cart)=  0.00000014 RMS(Int)=  0.00017670
 Iteration  1 RMS(Cart)=  0.00000479 RMS(Int)=  0.00001342
 Iteration  2 RMS(Cart)=  0.00000325 RMS(Int)=  0.00001481
 Iteration  3 RMS(Cart)=  0.00000221 RMS(Int)=  0.00001705
 Iteration  4 RMS(Cart)=  0.00000150 RMS(Int)=  0.00001897
 Iteration  5 RMS(Cart)=  0.00000102 RMS(Int)=  0.00002041
 Iteration  6 RMS(Cart)=  0.00000069 RMS(Int)=  0.00002143
 Variable       Old X    -DE/DX   Delta X   Delta X   Delta X     New X
                                 (Linear)    (Quad)   (Total)
    R1        2.06938  -0.00004   0.00000  -0.00007  -0.00011   2.06927
    R2        2.07004  -0.00001   0.00000  -0.00001  -0.00001   2.07003
    R3        2.07233   0.00001   0.00000   0.00003   0.00003   2.07236
    R4        2.89896   0.00000   0.00000   0.00026   0.00027   2.89922
    R5        5.55985  -0.00002   0.00000  -0.03412  -0.03416   5.52569
    R6        2.07849  -0.00005   0.00000  -0.00023  -0.00006   2.07843
    R7        2.09152  -0.00001   0.00000   0.00008   0.00008   2.09160
    R8        2.81494   0.00015   0.00000  -0.00004   0.00001   2.81496
    R9        6.19827  -0.00034   0.00000  -0.00205  -0.00204   6.19623
   R10        6.07329  -0.00013   0.00000   0.01362   0.01365   6.08695
   R11        2.05152   0.00013   0.00000  -0.00004  -0.00005   2.05147
   R12        2.05271   0.00010   0.00000   0.00009   0.00018   2.05289
   R13        5.02989  -0.00082   0.00000   0.00000  -0.00002   5.02988
   R14        6.41206  -0.00030   0.00000   0.00334   0.00339   6.41546
   R15        5.46668  -0.00049   0.00000  -0.00228  -0.00228   5.46440
   R16        5.44317  -0.00040   0.00000   0.00417   0.00388   5.44705
   R17        6.12293  -0.00001   0.00000  -0.00325  -0.00270   6.12023
   R18        2.31353   0.00036   0.00000   0.00025   0.00007   2.31360
    A1        1.88775   0.00004   0.00000   0.00027   0.00027   1.88802
    A2        1.88153  -0.00001   0.00000   0.00005   0.00004   1.88156
    A3        1.93379  -0.00004   0.00000  -0.00026  -0.00023   1.93356
    A4        1.88120  -0.00001   0.00000   0.00001   0.00001   1.88121
    A5        1.94034  -0.00002   0.00000  -0.00013  -0.00016   1.94018
    A6        1.93700   0.00004   0.00000   0.00008   0.00009   1.93709
    A7        2.05668  -0.00005   0.00000   0.00528   0.00526   2.06194
    A8        1.92069   0.00003   0.00000   0.00019   0.00029   1.92098
    A9        1.90169  -0.00001   0.00000  -0.00042  -0.00041   1.90129
   A10        1.98681  -0.00004   0.00000  -0.00029  -0.00030   1.98651
   A11        1.54623   0.00007   0.00000  -0.00876  -0.00880   1.53744
   A12        1.82778  -0.00007   0.00000   0.00043   0.00027   1.82806
   A13        1.91160  -0.00001   0.00000   0.00019   0.00007   1.91167
   A14        1.90846   0.00010   0.00000  -0.00005   0.00012   1.90857
   A15        2.79268  -0.00008   0.00000   0.00572   0.00570   2.79838
   A16        2.10591  -0.00004   0.00000   0.00061   0.00066   2.10657
   A17        2.10601  -0.00010   0.00000  -0.00044  -0.00036   2.10565
   A18        2.00506   0.00018   0.00000  -0.01216  -0.01257   1.99249
   A19        2.04522   0.00004   0.00000  -0.00018  -0.00027   2.04495
   A20        1.62886   0.00010   0.00000   0.01474   0.01477   1.64363
   A21        0.70743   0.00001   0.00000   0.00144   0.00143   0.70885
   A22        0.84429   0.00001   0.00000   0.00065   0.00067   0.84496
   A23        1.04861   0.00005   0.00000   0.00431   0.00431   1.05292
   A24        1.40778   0.00010   0.00000   0.00359   0.00358   1.41136
   A25        1.06144   0.00003   0.00000   0.00634   0.00637   1.06782
   A26        2.01538   0.00008   0.00000  -0.03629  -0.03648   1.97890
   A27        0.73481   0.00009   0.00000   0.00040   0.00042   0.73523
   A28        0.73591   0.00007   0.00000  -0.00005   0.00000   0.73591
   A29        2.36492   0.00016   0.00000  -0.01587  -0.01630   2.34863
   A30        0.71759   0.00005   0.00000  -0.00154  -0.00154   0.71604
   A31        0.84302   0.00008   0.00000  -0.00231  -0.00232   0.84070
   A32        1.05362   0.00008   0.00000  -0.00120  -0.00116   1.05246
   A33        2.70470   0.00017   0.00000  -0.01620  -0.01730   2.68740
   A34        0.65371   0.00010   0.00000  -0.00014  -0.00013   0.65358
   A35        2.04778   0.00010   0.00000   0.02038   0.02064   2.06842
    D1        2.42135   0.00003   0.00000   0.00951   0.00954   2.43089
    D2       -1.83214   0.00004   0.00000   0.00969   0.00971  -1.82243
    D3        0.29051   0.00005   0.00000   0.00966   0.00971   0.30022
    D4        1.08793   0.00007   0.00000  -0.00089  -0.00089   1.08704
    D5        3.08276   0.00000   0.00000  -0.00051  -0.00063   3.08213
    D6       -1.06546   0.00009   0.00000  -0.00108  -0.00099  -1.06645
    D7       -0.22928  -0.00006   0.00000  -0.00559  -0.00556  -0.23484
    D8       -1.01186   0.00005   0.00000  -0.00097  -0.00097  -1.01283
    D9        0.98297  -0.00001   0.00000  -0.00059  -0.00071   0.98226
   D10        3.11793   0.00008   0.00000  -0.00116  -0.00106   3.11687
   D11       -2.32907  -0.00007   0.00000  -0.00567  -0.00564  -2.33470
   D12       -3.10552   0.00005   0.00000  -0.00095  -0.00094  -3.10646
   D13       -1.11070  -0.00002   0.00000  -0.00056  -0.00068  -1.11138
   D14        1.02427   0.00007   0.00000  -0.00113  -0.00104   1.02323
   D15        1.86046  -0.00008   0.00000  -0.00564  -0.00561   1.85485
   D16       -0.19393  -0.00004   0.00000  -0.00612  -0.00614  -0.20007
   D17       -0.64137  -0.00005   0.00000  -0.00578  -0.00581  -0.64718
   D18        0.21990  -0.00002   0.00000  -0.01076  -0.01079   0.20911
   D19        0.07268  -0.00004   0.00000  -0.01305  -0.01307   0.05961
   D20        0.66506   0.00003   0.00000  -0.01255  -0.01253   0.65253
   D21        2.09576   0.00012   0.00000   0.00940   0.00950   2.10526
   D22        2.89771   0.00022   0.00000  -0.01395  -0.01398   2.88372
   D23       -0.49394  -0.00026   0.00000  -0.01405  -0.01392  -0.50786
   D24        0.97009  -0.00004   0.00000  -0.02472  -0.02445   0.94564
   D25        0.73938   0.00022   0.00000  -0.01414  -0.01420   0.72517
   D26       -2.65227  -0.00025   0.00000  -0.01423  -0.01414  -2.66640
   D27       -1.18824  -0.00003   0.00000  -0.02490  -0.02467  -1.21291
   D28       -1.25424   0.00025   0.00000  -0.01473  -0.01463  -1.26887
   D29        1.63730  -0.00022   0.00000  -0.01483  -0.01457   1.62274
   D30        3.10133   0.00000   0.00000  -0.02550  -0.02510   3.07623
   D31        0.12198   0.00003   0.00000   0.00349   0.00349   0.12547
   D32       -2.62142   0.00000   0.00000  -0.00712  -0.00713  -2.62854
   D33       -1.62332   0.00007   0.00000  -0.00756  -0.00758  -1.63090
   D34       -1.20035   0.00008   0.00000   0.05252   0.05225  -1.14810
   D35        2.77517  -0.00003   0.00000  -0.02064  -0.02067   2.75450
   D36        0.03177  -0.00006   0.00000  -0.03124  -0.03129   0.00048
   D37        1.02986   0.00001   0.00000  -0.03168  -0.03174   0.99812
   D38        1.45284   0.00002   0.00000   0.02839   0.02809   1.48093
         Item               Value     Threshold  Converged?
 Maximum Force            0.000109     0.000450     YES
 RMS     Force            0.000015     0.000300     YES
 Maximum Displacement     0.073489     0.001800     NO 
 RMS     Displacement     0.012815     0.001200     NO 
 Predicted change in Energy=-1.225818D-06
 GradGradGradGradGradGradGradGradGradGradGradGradGradGradGradGradGradGrad

 Leave Link  103 at Wed Apr  1 01:19:11 2015, MaxMem= 3758096384 cpu:      24.2
 (Enter /share/apps/g09/l9999.exe)
 1\1\GINC-COMPUTE-0-4\Freq\UB3LYP\6-31G(d)\C3H7O2(2)\HETANJIN\01-Apr-20
 15\0\\#P Geom=AllCheck Guess=TCheck SCRF=Check GenChk UB3LYP/6-31G(d) 
 Freq\\C3H7O2_62_b3631gd using cbs-qb3 to calculate energy\\0,2\C,-1.77
 02935452,-1.0380027502,0.1781566349\H,-0.8500983368,-1.6123205503,0.02
 79239371\H,-2.5839875504,-1.5545704047,-0.3424218956\H,-1.9997724366,-
 1.0468615529,1.2504731704\C,-1.6064666974,0.3977711516,-0.3366832446\H
 ,-1.4134856556,0.3903306592,-1.4194869357\H,-2.5697675552,0.9314757637
 ,-0.2262841103\C,-0.5342759784,1.1665895235,0.3548705762\H,-0.16835880
 2,2.1011481254,-0.0589760654\H,-0.2642519969,0.9393532265,1.3821883665
 \O,1.6274276202,-0.1207710669,-0.5137015276\O,2.5305249343,-0.28831512
 47,0.295725094\\Version=EM64L-G09RevA.01\State=2-A\HF=-268.7951143\S2=
 1.593985\S2-1=0.\S2A=0.774006\RMSD=0.000e+00\RMSF=6.038e-04\ZeroPoint=
 0.093863\Thermal=0.1015066\Dipole=-0.5078219,0.1638384,0.0050981\Dipol
 eDeriv=0.0906503,-0.0139383,0.0079953,0.0396193,0.0403333,0.0151463,-0
 .0720734,0.0032409,0.1223243,-0.0616301,0.10804,0.0225902,0.0506226,-0
 .0119025,0.0083778,0.0333623,0.0009934,0.0476822,-0.0740069,-0.1013672
 ,-0.0745712,-0.1096783,-0.0274417,-0.0233187,-0.0789156,-0.0439939,0.0
 102789,0.0564785,-0.0036358,0.0327779,0.0061035,0.0222973,-0.0125675,0
 .0581197,0.0304254,-0.1563923,-0.0157934,-0.0267559,-0.0431271,0.08058
 85,0.1000044,0.0246893,-0.0532463,0.0141712,0.0897246,0.0353066,-0.017
 3466,0.0352629,-0.1004621,0.0159968,0.0035123,-0.0054319,0.0271428,-0.
 1556711,-0.200923,0.0982401,-0.0049548,-0.0217125,-0.0284011,-0.003572
 8,-0.0260796,0.0003631,0.0615254,-0.143417,0.2032026,0.1094492,0.36059
 12,-0.075435,-0.1118722,0.3417584,-0.1403088,0.0928925,0.0453307,-0.08
 185,-0.0196022,-0.0859029,-0.0735817,0.0374412,-0.0231921,0.0471839,0.
 0251515,0.04513,-0.0383888,-0.038718,-0.0307141,0.0408175,0.0467136,-0
 .0453496,0.0147054,-0.0734559,1.2032652,-0.480465,-0.1507329,-0.359286
 ,0.1082038,0.0384171,0.7141323,-0.2809645,-0.1278134,-0.9803909,0.3542
 651,0.1236307,0.1702308,-0.1108911,-0.0229664,-0.8430842,0.3270411,0.0
 637531\Polar=77.3556275,-10.9834837,41.9941115,1.8605009,0.2399215,37.
 8641399\PG=C01 [X(C3H7O2)]\NImag=1\\0.58208127,-0.00845864,0.48923952,
 0.00712184,0.03453158,0.56484189,-0.24049936,0.11617699,0.03207816,0.2
 5825820,0.11460027,-0.11862280,-0.02038830,-0.12671155,0.13007809,0.03
 233167,-0.02071943,-0.05646530,-0.03580733,0.01973361,0.05576403,-0.19
 702102,-0.09100406,-0.09510788,-0.01950512,-0.01350357,-0.01409763,0.2
 1013940,-0.08989424,-0.10529032,-0.05866925,0.01239381,0.00914731,0.00
 984512,0.10056197,0.11449664,-0.09526253,-0.05978239,-0.11137329,0.004
 57379,0.00361065,0.00237244,0.10494125,0.06324413,0.11662981,-0.062228
 19,0.00050192,0.05369149,-0.00490511,-0.00061096,0.02863329,0.00647565
 ,0.00078006,-0.02534605,0.06103516,0.00053462,-0.04883604,-0.00306732,
 0.00203060,-0.00029230,-0.01726391,0.00468190,-0.00044453,-0.01482952,
 0.00013551,0.05307534,0.05362276,-0.00196904,-0.29905369,0.00059519,-0
 .00049196,-0.00332851,0.00359783,-0.00026960,-0.01456437,-0.05940780,0
 .00004298,0.32508352,-0.07657264,-0.00725751,0.00312013,0.00471017,0.0
 2608401,-0.01047829,-0.00139254,-0.02339382,0.01015880,-0.00150508,-0.
 00764373,0.00227194,0.48826171,-0.00896505,-0.17774679,0.03589753,-0.0
 0280370,-0.01772926,0.00682602,0.00030902,-0.01404980,0.00660719,0.000
 05360,-0.00070135,0.00048361,-0.00592730,0.47549987,0.00270457,0.03622
 198,-0.09756832,-0.00115329,-0.00496348,0.00135729,-0.00040515,-0.0168
 6312,0.00609021,0.00243929,0.03358696,-0.01074584,-0.00804972,0.000756
 96,0.55232813,-0.00135003,-0.00015559,0.00290606,0.00021365,-0.0001341
 7,-0.00071663,-0.00014549,-0.00002521,0.00027198,0.00082651,-0.0009337
 8,-0.00023595,-0.05245507,-0.00046174,0.04613278,0.06114500,-0.0067349
 1,0.00015164,0.03254793,0.00050283,0.00133678,-0.00051403,-0.00012670,
 0.00123207,-0.00060776,-0.00063240,-0.00638138,0.00243162,-0.00058595,
 -0.05099561,-0.00549950,0.00204944,0.05393899,0.00206486,0.00057692,-0
 .00947423,-0.00052901,-0.00006363,0.00038395,0.00032372,0.00019220,0.0
 0057844,0.00005098,0.00214860,0.00091066,0.04777113,-0.00227465,-0.289
 36773,-0.04881667,0.00356173,0.31750817,0.00380627,-0.00206134,-0.0001
 0803,0.00115808,-0.00121709,0.00020888,0.00061740,0.00051070,-0.000046
 19,0.00020118,0.00022203,-0.00049424,-0.21941763,0.10470098,0.02790490
 ,-0.00671392,0.00429330,0.00265118,0.24629787,0.02817162,-0.01843859,-
 0.00331037,-0.00136401,-0.00608322,0.00294708,-0.00014278,0.00114893,-
 0.00085019,-0.00023572,0.00153446,0.00015618,0.09127405,-0.09762609,-0
 .01332798,0.00163664,-0.00039027,-0.00067078,-0.10711219,0.11181384,-0
 .01007183,0.00726799,0.00112401,0.00005469,0.00236441,0.00004240,0.000
 26256,-0.00075364,0.00021449,-0.00063733,-0.00046650,0.00034731,0.0205
 8773,-0.01051407,-0.04690340,0.02975635,-0.01588345,-0.00523947,-0.024
 44899,0.01362115,0.05093978,-0.00669490,-0.00842918,-0.00043637,0.0009
 1513,0.00147732,-0.00006619,0.00067019,-0.00007717,-0.00003914,0.00053
 790,0.00117655,-0.00076890,-0.14046088,-0.07260556,-0.05981903,0.00025
 998,0.00201637,-0.00257937,-0.02599715,-0.01393539,-0.01644507,0.28305
 648,-0.02705198,-0.02183705,-0.01414414,-0.00033306,0.00215892,-0.0008
 1316,-0.00074565,-0.00539805,0.00198076,0.00013004,0.00166738,-0.00090
 367,-0.06833428,-0.11540729,-0.02355256,0.00023766,0.00201447,-0.00074
 352,0.00241717,0.00899738,0.00546310,0.19737714,0.44779149,0.00939881,
 0.00322421,0.00844889,-0.00007672,0.00068568,0.00017541,0.00059690,0.0
 0433387,-0.00080977,0.00115849,0.00087773,0.00060156,-0.06065827,-0.02
 875294,-0.11590913,-0.02785212,-0.01545524,-0.01599922,-0.00460610,0.0
 0203308,0.00015832,0.13775806,-0.14401007,0.53304552,-0.00294019,-0.00
 005346,-0.00366300,0.00015013,-0.00016843,-0.00005312,0.00019698,-0.00
 141601,0.00052255,-0.00008864,0.00021863,0.00007875,-0.00129440,-0.019
 05963,0.01184260,0.00070495,0.00064507,-0.00072200,0.00045704,0.001197
 17,0.00012819,-0.06430378,-0.09698312,0.02315661,0.06230252,-0.0029696
 8,-0.00026291,-0.00181343,0.00009869,0.00023482,-0.00001925,-0.0001228
 2,-0.00083494,0.00037940,0.00010097,0.00014441,0.00009177,-0.00016362,
 -0.00691825,0.00610174,0.00039352,0.00037467,0.00010132,-0.00078921,-0
 .00037530,0.00008745,-0.10260502,-0.26213059,0.10870283,0.10836335,0.2
 7078088,-0.00248356,-0.00088948,-0.00111742,0.00007543,0.00006517,-0.0
 0013802,-0.00027420,-0.00091650,0.00053603,-0.00026836,-0.00024910,0.0
 0035709,-0.00392618,-0.01301822,0.00778766,0.00098060,0.00017219,0.001
 08895,-0.00060015,-0.00005190,0.00024119,0.02480090,0.10545533,-0.0951
 4910,-0.02781663,-0.11327980,0.09191507,0.00109093,0.00110935,-0.00001
 135,0.00001970,-0.00007329,0.00010290,-0.00003192,0.00028157,0.0002359
 5,-0.00023455,-0.00042206,0.00073963,0.00140609,0.00464642,-0.02199267
 ,-0.00298135,-0.00182482,-0.00059474,-0.00089576,0.00023146,0.00070130
 ,-0.04971613,-0.00366310,-0.07579969,0.00550661,-0.00255013,0.00902611
 ,0.04616288,0.00090687,0.00166376,-0.00137881,0.00020313,-0.00025022,-
 0.00007577,0.00020598,0.00006390,0.00021989,-0.00020091,0.00019675,0.0
 0038633,-0.00374403,0.00530921,-0.01254326,-0.00246477,-0.00105105,-0.
 00273582,-0.00056914,-0.00031323,-0.00104774,-0.00285932,-0.05767896,0
 .06731597,0.00609031,-0.00080967,0.02349995,0.00200761,0.05319808,0.00
 067210,0.00124168,0.00074595,0.00003381,-0.00047742,-0.00006039,0.0001
 5618,-0.00003778,0.00031793,-0.00030270,-0.00074752,0.00035245,0.00026
 088,0.00324769,-0.00718862,-0.00236280,-0.00068649,-0.00053873,-0.0000
 5697,-0.00016228,-0.00088578,-0.08104413,0.07047126,-0.31148600,-0.003
 36968,-0.00039006,-0.00549479,0.08614938,-0.07245908,0.32429950,0.0008
 4819,-0.00184881,0.00163060,-0.00063432,0.00122040,-0.00005655,0.00008
 267,0.00106644,-0.00009167,-0.00023098,-0.00002429,-0.00016707,0.00313
 848,-0.00309307,0.00017301,0.00072247,0.00173688,0.00083540,0.00210973
 ,0.00254901,0.00101558,0.00586959,-0.00862487,-0.00556696,-0.00002197,
 -0.00057613,0.00044336,-0.00023609,0.00060171,-0.00120860,0.38501006,-
 0.00018169,0.00026655,-0.00043920,-0.00013905,-0.00018242,0.00009337,-
 0.00013822,-0.00020828,0.00004106,-0.00000993,0.00004235,0.00007676,-0
 .00165063,0.00127246,0.00023165,-0.00018548,-0.00042978,-0.00008038,-0
 .00079876,-0.00077302,-0.00032910,-0.00250514,0.00041595,0.00003839,0.
 00099486,-0.00001927,-0.00076041,0.00054030,-0.00053959,0.00008092,-0.
 06753919,0.01498001,0.00033569,-0.00089049,0.00096568,0.00005932,0.000
 81604,-0.00018479,0.00008024,0.00061445,-0.00006535,-0.00012159,-0.000
 10481,-0.00010983,0.00132422,-0.00136453,0.00015509,0.00005195,0.00132
 007,0.00091382,0.00067994,0.00135482,0.00076200,0.00186053,-0.00526578
 ,-0.01025804,0.00015416,-0.00043453,0.00003373,0.00260261,-0.00174971,
 -0.00128607,0.35461810,-0.05866282,0.34180379,-0.00052033,0.00148034,-
 0.00122167,0.00011885,-0.00096293,-0.00000099,-0.00008620,-0.00078811,
 0.00008126,0.00011616,0.00002403,0.00016785,-0.00441821,0.00320603,0.0
 0022271,-0.00022670,-0.00133912,-0.00045549,-0.00162311,-0.00226984,-0
 .00090318,-0.00413643,0.00557406,0.00249099,-0.00066925,0.00082009,0.0
 0004267,-0.00009041,-0.00017743,0.00107252,-0.39665783,0.07161293,-0.3
 6164518,0.40819345,0.00004281,-0.00028696,0.00023377,-0.00005467,0.000
 20430,-0.00003965,0.00002493,0.00013708,-0.00001323,-0.00001217,-0.000
 00509,-0.00003499,0.00134282,-0.00090711,-0.00014941,0.00004348,0.0001
 9945,-0.00001198,0.00040356,0.00050512,0.00019040,0.00096941,-0.000593
 66,0.00100649,0.00017127,-0.00018386,-0.00002721,-0.00028330,0.0002110
 0,-0.00008093,0.07453191,-0.01482496,0.06436730,-0.07718004,0.01554468
 ,-0.00043439,0.00118648,-0.00107418,0.00009595,-0.00089077,0.00008149,
 -0.00007381,-0.00071989,0.00007345,0.00011027,0.00007239,0.00014965,-0
 .00238238,0.00210540,-0.00003535,-0.00011556,-0.00138707,-0.00076461,-
 0.00108423,-0.00173882,-0.00080086,-0.00322129,0.00606244,0.00718154,-
 0.00025845,0.00047256,-0.00006041,-0.00115942,0.00056804,0.00122456,-0
 .35162521,0.05970978,-0.33273004,0.36014852,-0.06544056,0.32675475\\-0
 .00001683,0.00003353,-0.00000919,-0.00002174,-0.00002152,0.00000899,-0
 .00000708,-0.00000423,0.00000075,0.00000064,0.00000838,-0.00000543,0.0
 0000709,-0.00001673,0.00002203,-0.00000049,-0.00001711,0.00000137,0.00
 000012,0.00001390,-0.00000995,-0.00199524,0.00122976,0.00083482,-0.000
 03670,0.00001735,-0.00000080,0.00000673,-0.00001869,-0.00000913,0.0021
 8570,-0.00125673,-0.00073939,-0.00012220,0.00003209,-0.00009407\\\@


 QED = W**5 (WHICH WAS WHAT WE WANTED)
 Job cpu time:  0 days  0 hours  5 minutes 52.3 seconds.
 File lengths (MBytes):  RWF=     29 Int=      0 D2E=      0 Chk=      3 Scr=      1
 Normal termination of Gaussian 09 at Wed Apr  1 01:19:11 2015.
