 Entering Gaussian System, Link 0=/share/apps/g09/g09
 Input=C3H7OH_1_2_opt_631gd.gjf
 Output=C3H7OH_1_2_opt_631gd.log
 Initial command:
 /share/apps/g09/l1.exe /state/partition1/Gau-6725.inp -scrdir=/state/partition1/
 Entering Link 1 = /share/apps/g09/l1.exe PID=      6727.
  
 Copyright (c) 1988,1990,1992,1993,1995,1998,2003,2009, Gaussian, Inc.
                  All Rights Reserved.
  
 This is part of the Gaussian(R) 09 program.  It is based on
 the Gaussian(R) 03 system (copyright 2003, Gaussian, Inc.),
 the Gaussian(R) 98 system (copyright 1998, Gaussian, Inc.),
 the Gaussian(R) 94 system (copyright 1995, Gaussian, Inc.),
 the Gaussian 92(TM) system (copyright 1992, Gaussian, Inc.),
 the Gaussian 90(TM) system (copyright 1990, Gaussian, Inc.),
 the Gaussian 88(TM) system (copyright 1988, Gaussian, Inc.),
 the Gaussian 86(TM) system (copyright 1986, Carnegie Mellon
 University), and the Gaussian 82(TM) system (copyright 1983,
 Carnegie Mellon University). Gaussian is a federally registered
 trademark of Gaussian, Inc.
  
 This software contains proprietary and confidential information,
 including trade secrets, belonging to Gaussian, Inc.
  
 This software is provided under written license and may be
 used, copied, transmitted, or stored only in accord with that
 written license.
  
 The following legend is applicable only to US Government
 contracts under FAR:
  
                    RESTRICTED RIGHTS LEGEND
  
 Use, reproduction and disclosure by the US Government is
 subject to restrictions as set forth in subparagraphs (a)
 and (c) of the Commercial Computer Software - Restricted
 Rights clause in FAR 52.227-19.
  
 Gaussian, Inc.
 340 Quinnipiac St., Bldg. 40, Wallingford CT 06492
  
  
 ---------------------------------------------------------------
 Warning -- This program may not be used in any manner that
 competes with the business of Gaussian, Inc. or will provide
 assistance to any competitor of Gaussian, Inc.  The licensee
 of this program is prohibited from giving any competitor of
 Gaussian, Inc. access to this program.  By using this program,
 the user acknowledges that Gaussian, Inc. is engaged in the
 business of creating and licensing software in the field of
 computational chemistry and represents and warrants to the
 licensee that it is not a competitor of Gaussian, Inc. and that
 it will not use this program in any manner prohibited above.
 ---------------------------------------------------------------
  

 Cite this work as:
 Gaussian 09, Revision A.01,
 M. J. Frisch, G. W. Trucks, H. B. Schlegel, G. E. Scuseria, 
 M. A. Robb, J. R. Cheeseman, G. Scalmani, V. Barone, B. Mennucci, 
 G. A. Petersson, H. Nakatsuji, M. Caricato, X. Li, H. P. Hratchian, 
 A. F. Izmaylov, J. Bloino, G. Zheng, J. L. Sonnenberg, M. Hada, 
 M. Ehara, K. Toyota, R. Fukuda, J. Hasegawa, M. Ishida, T. Nakajima, 
 Y. Honda, O. Kitao, H. Nakai, T. Vreven, J. A. Montgomery, Jr., 
 J. E. Peralta, F. Ogliaro, M. Bearpark, J. J. Heyd, E. Brothers, 
 K. N. Kudin, V. N. Staroverov, R. Kobayashi, J. Normand, 
 K. Raghavachari, A. Rendell, J. C. Burant, S. S. Iyengar, J. Tomasi, 
 M. Cossi, N. Rega, J. M. Millam, M. Klene, J. E. Knox, J. B. Cross, 
 V. Bakken, C. Adamo, J. Jaramillo, R. Gomperts, R. E. Stratmann, 
 O. Yazyev, A. J. Austin, R. Cammi, C. Pomelli, J. W. Ochterski, 
 R. L. Martin, K. Morokuma, V. G. Zakrzewski, G. A. Voth, 
 P. Salvador, J. J. Dannenberg, S. Dapprich, A. D. Daniels, 
 O. Farkas, J. B. Foresman, J. V. Ortiz, J. Cioslowski, 
 and D. J. Fox, Gaussian, Inc., Wallingford CT, 2009.
 
 ******************************************
 Gaussian 09:  EM64L-G09RevA.01  8-May-2009
                23-Aug-2015 
 ******************************************
 %mem=28GB
 %nprocshared=12
 Will use up to   12 processors via shared memory.
 %chk=C3H7OH_1_2_opt_631gd.chk
 --------------------------
 #p b3lyp/6-31g(d) opt freq
 --------------------------
 1/14=-1,18=20,19=15,26=3,38=1/1,3;
 2/9=110,12=2,17=6,18=5,40=1/2;
 3/5=1,6=6,7=1,11=2,16=1,25=1,30=1,71=1,74=-5/1,2,3;
 4//1;
 5/5=2,38=5/2;
 6/7=2,8=2,9=2,10=2,28=1/1;
 7//1,2,3,16;
 1/14=-1,18=20,19=15/3(2);
 2/9=110/2;
 99//99;
 2/9=110/2;
 3/5=1,6=6,7=1,11=2,16=1,25=1,30=1,71=1,74=-5/1,2,3;
 4/5=5,16=3/1;
 5/5=2,38=5/2;
 7//1,2,3,16;
 1/14=-1,18=20,19=15/3(-5);
 2/9=110/2;
 6/7=2,8=2,9=2,10=2,19=2,28=1/1;
 99/9=1/99;
 Leave Link    1 at Sun Aug 23 11:16:00 2015, MaxMem= 3758096384 cpu:       0.4
 (Enter /share/apps/g09/l101.exe)
 -----------------------------
 using ub3lyp/6-31G(d) to scan
 -----------------------------
 Symbolic Z-matrix:
 Charge =  0 Multiplicity = 1
 C                    -1.86624   0.10518   0.04711 
 H                    -2.10948   0.678    -0.85603 
 H                    -1.99489   0.77328   0.90759 
 H                    -2.60404  -0.69913   0.13826 
 C                    -0.44131  -0.4537   -0.01891 
 H                    -0.23598  -1.04669   0.8855 
 H                    -0.33785  -1.13835  -0.87014 
 C                     0.62088   0.63923  -0.14671 
 H                     0.54238   1.3408    0.70172 
 H                     0.45397   1.22099  -1.06016 
 O                     1.9421    0.12278  -0.26405 
 H                     2.12178  -0.39563   0.53581 
 
 NAtoms=     12 NQM=     12 NQMF=      0 NMic=      0 NMicF=      0 NTot=     12.
                    Isotopes and Nuclear Properties:
 (Nuclear quadrupole moments (NQMom) in fm**2, nuclear magnetic moments (NMagM)
  in nuclear magnetons)

  Atom         1           2           3           4           5           6           7           8           9          10
 IAtWgt=          12           1           1           1          12           1           1          12           1           1
 AtmWgt=  12.0000000   1.0078250   1.0078250   1.0078250  12.0000000   1.0078250   1.0078250  12.0000000   1.0078250   1.0078250
 NucSpn=           0           1           1           1           0           1           1           0           1           1
 AtZEff=   0.0000000   0.0000000   0.0000000   0.0000000   0.0000000   0.0000000   0.0000000   0.0000000   0.0000000   0.0000000
 NQMom=    0.0000000   0.0000000   0.0000000   0.0000000   0.0000000   0.0000000   0.0000000   0.0000000   0.0000000   0.0000000
 NMagM=    0.0000000   2.7928460   2.7928460   2.7928460   0.0000000   2.7928460   2.7928460   0.0000000   2.7928460   2.7928460

  Atom        11          12
 IAtWgt=          16           1
 AtmWgt=  15.9949146   1.0078250
 NucSpn=           0           1
 AtZEff=   0.0000000   0.0000000
 NQMom=    0.0000000   0.0000000
 NMagM=    0.0000000   2.7928460
 Leave Link  101 at Sun Aug 23 11:16:00 2015, MaxMem= 3758096384 cpu:       1.2
 (Enter /share/apps/g09/l103.exe)

 GradGradGradGradGradGradGradGradGradGradGradGradGradGradGradGradGradGrad
 Berny optimization.
 Initialization pass.
                           ----------------------------
                           !    Initial Parameters    !
                           ! (Angstroms and Degrees)  !
 --------------------------                            --------------------------
 ! Name  Definition              Value          Derivative Info.                !
 --------------------------------------------------------------------------------
 ! R1    R(1,2)                  1.0968         estimate D2E/DX2                !
 ! R2    R(1,3)                  1.097          estimate D2E/DX2                !
 ! R3    R(1,4)                  1.0952         estimate D2E/DX2                !
 ! R4    R(1,5)                  1.532          estimate D2E/DX2                !
 ! R5    R(5,6)                  1.1008         estimate D2E/DX2                !
 ! R6    R(5,7)                  1.0973         estimate D2E/DX2                !
 ! R7    R(5,8)                  1.5294         estimate D2E/DX2                !
 ! R8    R(8,9)                  1.1037         estimate D2E/DX2                !
 ! R9    R(8,10)                 1.0958         estimate D2E/DX2                !
 ! R10   R(8,11)                 1.4234         estimate D2E/DX2                !
 ! R11   R(11,12)                0.97           estimate D2E/DX2                !
 ! A1    A(2,1,3)              107.5673         estimate D2E/DX2                !
 ! A2    A(2,1,4)              107.618          estimate D2E/DX2                !
 ! A3    A(2,1,5)              111.1802         estimate D2E/DX2                !
 ! A4    A(3,1,4)              107.6369         estimate D2E/DX2                !
 ! A5    A(3,1,5)              111.4111         estimate D2E/DX2                !
 ! A6    A(4,1,5)              111.2375         estimate D2E/DX2                !
 ! A7    A(1,5,6)              109.5481         estimate D2E/DX2                !
 ! A8    A(1,5,7)              110.4099         estimate D2E/DX2                !
 ! A9    A(1,5,8)              112.8843         estimate D2E/DX2                !
 ! A10   A(6,5,7)              106.4785         estimate D2E/DX2                !
 ! A11   A(6,5,8)              108.9092         estimate D2E/DX2                !
 ! A12   A(7,5,8)              108.3951         estimate D2E/DX2                !
 ! A13   A(5,8,9)              109.9136         estimate D2E/DX2                !
 ! A14   A(5,8,10)             110.0766         estimate D2E/DX2                !
 ! A15   A(5,8,11)             113.095          estimate D2E/DX2                !
 ! A16   A(9,8,10)             107.0074         estimate D2E/DX2                !
 ! A17   A(9,8,11)             111.1009         estimate D2E/DX2                !
 ! A18   A(10,8,11)            105.3848         estimate D2E/DX2                !
 ! A19   A(8,11,12)            107.331          estimate D2E/DX2                !
 ! D1    D(2,1,5,6)           -178.3784         estimate D2E/DX2                !
 ! D2    D(2,1,5,7)            -61.4237         estimate D2E/DX2                !
 ! D3    D(2,1,5,8)             60.0784         estimate D2E/DX2                !
 ! D4    D(3,1,5,6)             61.6465         estimate D2E/DX2                !
 ! D5    D(3,1,5,7)            178.6012         estimate D2E/DX2                !
 ! D6    D(3,1,5,8)            -59.8967         estimate D2E/DX2                !
 ! D7    D(4,1,5,6)            -58.4557         estimate D2E/DX2                !
 ! D8    D(4,1,5,7)             58.4989         estimate D2E/DX2                !
 ! D9    D(4,1,5,8)           -179.9989         estimate D2E/DX2                !
 ! D10   D(1,5,8,9)             57.6412         estimate D2E/DX2                !
 ! D11   D(1,5,8,10)           -59.98           estimate D2E/DX2                !
 ! D12   D(1,5,8,11)          -177.5562         estimate D2E/DX2                !
 ! D13   D(6,5,8,9)            -64.2624         estimate D2E/DX2                !
 ! D14   D(6,5,8,10)           178.1163         estimate D2E/DX2                !
 ! D15   D(6,5,8,11)            60.5401         estimate D2E/DX2                !
 ! D16   D(7,5,8,9)           -179.7239         estimate D2E/DX2                !
 ! D17   D(7,5,8,10)            62.6548         estimate D2E/DX2                !
 ! D18   D(7,5,8,11)           -54.9214         estimate D2E/DX2                !
 ! D19   D(5,8,11,12)          -60.0003         estimate D2E/DX2                !
 ! D20   D(9,8,11,12)           64.1555         estimate D2E/DX2                !
 ! D21   D(10,8,11,12)         179.7087         estimate D2E/DX2                !
 --------------------------------------------------------------------------------
 Trust Radius=3.00D-01 FncErr=1.00D-07 GrdErr=1.00D-06
 Number of steps in this run=  61 maximum allowed number of steps= 100.
 GradGradGradGradGradGradGradGradGradGradGradGradGradGradGradGradGradGrad

 Leave Link  103 at Sun Aug 23 11:16:01 2015, MaxMem= 3758096384 cpu:       0.1
 (Enter /share/apps/g09/l202.exe)
                          Input orientation:                          
 ---------------------------------------------------------------------
 Center     Atomic      Atomic             Coordinates (Angstroms)
 Number     Number       Type             X           Y           Z
 ---------------------------------------------------------------------
      1          6           0       -1.866243    0.105179    0.047113
      2          1           0       -2.109478    0.678001   -0.856034
      3          1           0       -1.994891    0.773280    0.907586
      4          1           0       -2.604036   -0.699127    0.138257
      5          6           0       -0.441306   -0.453703   -0.018906
      6          1           0       -0.235977   -1.046695    0.885495
      7          1           0       -0.337849   -1.138345   -0.870135
      8          6           0        0.620880    0.639226   -0.146712
      9          1           0        0.542376    1.340804    0.701724
     10          1           0        0.453973    1.220986   -1.060160
     11          8           0        1.942096    0.122776   -0.264045
     12          1           0        2.121777   -0.395632    0.535813
 ---------------------------------------------------------------------
                    Distance matrix (angstroms):
                    1          2          3          4          5
     1  C    0.000000
     2  H    1.096797   0.000000
     3  H    1.096961   1.769905   0.000000
     4  H    1.095241   1.769091   1.769437   0.000000
     5  C    1.532042   2.182736   2.185750   2.182277   0.000000
     6  H    2.165056   3.085045   2.531121   2.507363   1.100791
     7  H    2.173404   2.537318   3.091988   2.519002   1.097282
     8  C    2.551187   2.821258   2.823433   3.503210   1.529401
     9  H    2.785091   3.146148   2.608100   3.791929   2.169607
    10  H    2.802585   2.628266   3.173232   3.804531   2.165714
    11  O    3.821070   4.132067   4.158815   4.637315   2.464351
    12  H    4.048943   4.581860   4.295524   4.752207   2.623067
                    6          7          8          9         10
     6  H    0.000000
     7  H    1.760970   0.000000
     8  C    2.154527   2.145288   0.000000
     9  H    2.517887   3.064591   1.103729   0.000000
    10  H    3.066591   2.495904   1.095760   1.768165   0.000000
    11  O    2.726372   2.675055   1.423411   2.091774   2.013548
    12  H    2.470863   2.928835   1.946654   2.353135   2.818183
                   11         12
    11  O    0.000000
    12  H    0.969951   0.000000
 Stoichiometry    C3H8O
 Framework group  C1[X(C3H8O)]
 Deg. of freedom    30
 Full point group                 C1      NOp   1
 Largest Abelian subgroup         C1      NOp   1
 Largest concise Abelian subgroup C1      NOp   1
                         Standard orientation:                         
 ---------------------------------------------------------------------
 Center     Atomic      Atomic             Coordinates (Angstroms)
 Number     Number       Type             X           Y           Z
 ---------------------------------------------------------------------
      1          6           0        1.902627   -0.124919    0.017015
      2          1           0        2.052136   -0.822825   -0.815774
      3          1           0        2.041052   -0.686890    0.948869
      4          1           0        2.694853    0.629456   -0.036364
      5          6           0        0.515243    0.521960   -0.045158
      6          1           0        0.404864    1.237262    0.784239
      7          1           0        0.403545    1.099654   -0.971345
      8          6           0       -0.620916   -0.499341    0.026631
      9          1           0       -0.535334   -1.092354    0.953577
     10          1           0       -0.548643   -1.201912   -0.811140
     11          8           0       -1.910899    0.091656   -0.086355
     12          1           0       -2.007002    0.718162    0.647852
 ---------------------------------------------------------------------
 Rotational constants (GHZ):     26.0979562      3.7334978      3.5054050
 Leave Link  202 at Sun Aug 23 11:16:01 2015, MaxMem= 3758096384 cpu:       0.1
 (Enter /share/apps/g09/l301.exe)
 Standard basis: 6-31G(d) (6D, 7F)
 Ernie: Thresh=  0.10000D-02 Tol=  0.10000D-05 Strict=F.
 There are    76 symmetry adapted basis functions of A   symmetry.
 Integral buffers will be    131072 words long.
 Raffenetti 2 integral format.
 Two-electron integral symmetry is turned on.
    76 basis functions,   144 primitive gaussians,    76 cartesian basis functions
    17 alpha electrons       17 beta electrons
       nuclear repulsion energy       129.8282131958 Hartrees.
 IExCor=  402 DFT=T Ex+Corr=B3LYP ExCW=0 ScaHFX=  0.200000
 ScaDFX=  0.800000  0.720000  1.000000  0.810000 ScalE2=  1.000000  1.000000
 IRadAn=      0 IRanWt=     -1 IRanGd=            0 ICorTp=0
 NAtoms=   12 NActive=   12 NUniq=   12 SFac= 7.50D-01 NAtFMM=   80 NAOKFM=F Big=F
 Leave Link  301 at Sun Aug 23 11:16:01 2015, MaxMem= 3758096384 cpu:       0.6
 (Enter /share/apps/g09/l302.exe)
 NPDir=0 NMtPBC=     1 NCelOv=     1 NCel=       1 NClECP=     1 NCelD=      1
         NCelK=      1 NCelE2=     1 NClLst=     1 CellRange=     0.0.
 One-electron integrals computed using PRISM.
 NBasis=    76 RedAO= T  NBF=    76
 NBsUse=    76 1.00D-06 NBFU=    76
 Precomputing XC quadrature grid using
 IXCGrd= 2 IRadAn=           0 IRanWt=          -1 IRanGd=           0 AccXCQ= 1.00D-10.
 NRdTot=     744 NPtTot=       94170 NUsed=       99547 NTot=       99579
 NSgBfM=    76    76    76    76    76 NAtAll=    12    12.
 Leave Link  302 at Sun Aug 23 11:16:01 2015, MaxMem= 3758096384 cpu:       2.4
 (Enter /share/apps/g09/l303.exe)
 DipDrv:  MaxL=1.
 Leave Link  303 at Sun Aug 23 11:16:02 2015, MaxMem= 3758096384 cpu:       0.7
 (Enter /share/apps/g09/l401.exe)
 Harris functional with IExCor=  402 diagonalized for initial guess.
 ExpMin= 1.61D-01 ExpMax= 5.48D+03 ExpMxC= 8.25D+02 IAcc=1 IRadAn=         1 AccDes= 0.00D+00
 HarFok:  IExCor=  402 AccDes= 0.00D+00 IRadAn=         1 IDoV= 1
 ScaDFX=  1.000000  1.000000  1.000000  1.000000
 FoFCou: FMM=F IPFlag=           0 FMFlag=      100000 FMFlg1=           0
         NFxFlg=           0 DoJE=T BraDBF=F KetDBF=T FulRan=T
         Omega=  0.000000  0.000000  1.000000  0.000000  0.000000 ICntrl=     500 IOpCl=  0
         NMat0=    1 NMatS0=    1 NMatT0=    0 NMatD0=    1 NMtDS0=    0 NMtDT0=    0
         I1Cent=           4 NGrid=           0.
 Petite list used in FoFCou.
 Harris En= -194.411600293925    
 Initial guess orbital symmetries:
       Occupied  (A) (A) (A) (A) (A) (A) (A) (A) (A) (A) (A) (A)
                 (A) (A) (A) (A) (A)
       Virtual   (A) (A) (A) (A) (A) (A) (A) (A) (A) (A) (A) (A)
                 (A) (A) (A) (A) (A) (A) (A) (A) (A) (A) (A) (A)
                 (A) (A) (A) (A) (A) (A) (A) (A) (A) (A) (A) (A)
                 (A) (A) (A) (A) (A) (A) (A) (A) (A) (A) (A) (A)
                 (A) (A) (A) (A) (A) (A) (A) (A) (A) (A) (A)
 The electronic state of the initial guess is 1-A.
 Leave Link  401 at Sun Aug 23 11:16:02 2015, MaxMem= 3758096384 cpu:       2.8
 (Enter /share/apps/g09/l502.exe)
 Closed shell SCF:
 Requested convergence on RMS density matrix=1.00D-08 within 128 cycles.
 Requested convergence on MAX density matrix=1.00D-06.
 Requested convergence on             energy=1.00D-06.
 No special actions if energy rises.
 Using DIIS extrapolation, IDIIS=  1040.
 Integral symmetry usage will be decided dynamically.
        99426 words used for storage of precomputed grid.
 Keep R1 ints in memory in canonical form, NReq=5315617.
 IEnd=      136400 IEndB=      136400 NGot=  3758096384 MDV=  3753700248
 LenX=  3753700248 LenY=  3753694031
 Symmetry not used in FoFDir.
 MinBra= 0 MaxBra= 2 Meth= 1.
 IRaf=       0 NMat=   1 IRICut=       1 DoRegI=T DoRafI=F ISym2E= 0 JSym2E=0.
 Integral accuracy reduced to 1.0D-05 until final iterations.

 Cycle   1  Pass 0  IDiag  1:
 E= -194.180756228409    
 DIIS: error= 4.40D-02 at cycle   1 NSaved=   1.
 NSaved= 1 IEnMin= 1 EnMin= -194.180756228409     IErMin= 1 ErrMin= 4.40D-02
 ErrMax= 4.40D-02 EMaxC= 1.00D-01 BMatC= 1.66D-01 BMatP= 1.66D-01
 IDIUse=3 WtCom= 5.60D-01 WtEn= 4.40D-01
 Coeff-Com:  0.100D+01
 Coeff-En:   0.100D+01
 Coeff:      0.100D+01
 Gap=     0.304 Goal=   None    Shift=    0.000
 GapD=    0.304 DampG=1.000 DampE=0.500 DampFc=0.5000 IDamp=-1.
 Damping current iteration by 5.00D-01
 RMSDP=1.16D-02 MaxDP=1.41D-01              OVMax= 1.76D-01

 Cycle   2  Pass 0  IDiag  1:
 E= -194.254074789921     Delta-E=       -0.073318561512 Rises=F Damp=T
 DIIS: error= 7.67D-03 at cycle   2 NSaved=   2.
 NSaved= 2 IEnMin= 2 EnMin= -194.254074789921     IErMin= 2 ErrMin= 7.67D-03
 ErrMax= 7.67D-03 EMaxC= 1.00D-01 BMatC= 7.13D-03 BMatP= 1.66D-01
 IDIUse=3 WtCom= 9.23D-01 WtEn= 7.67D-02
 Coeff-Com:  0.991D-01 0.901D+00
 Coeff-En:   0.143D+00 0.857D+00
 Coeff:      0.102D+00 0.898D+00
 Gap=     0.340 Goal=   None    Shift=    0.000
 RMSDP=1.52D-03 MaxDP=1.51D-02 DE=-7.33D-02 OVMax= 8.53D-02

 Cycle   3  Pass 0  IDiag  1:
 E= -194.347147535881     Delta-E=       -0.093072745960 Rises=F Damp=F
 DIIS: error= 3.15D-03 at cycle   3 NSaved=   3.
 NSaved= 3 IEnMin= 3 EnMin= -194.347147535881     IErMin= 3 ErrMin= 3.15D-03
 ErrMax= 3.15D-03 EMaxC= 1.00D-01 BMatC= 1.22D-03 BMatP= 7.13D-03
 IDIUse=3 WtCom= 9.68D-01 WtEn= 3.15D-02
 Coeff-Com:  0.159D-01 0.250D+00 0.734D+00
 Coeff-En:   0.000D+00 0.000D+00 0.100D+01
 Coeff:      0.154D-01 0.242D+00 0.743D+00
 Gap=     0.336 Goal=   None    Shift=    0.000
 RMSDP=6.33D-04 MaxDP=1.13D-02 DE=-9.31D-02 OVMax= 9.98D-03

 Cycle   4  Pass 0  IDiag  1:
 E= -194.347515463271     Delta-E=       -0.000367927390 Rises=F Damp=F
 DIIS: error= 2.27D-03 at cycle   4 NSaved=   4.
 NSaved= 4 IEnMin= 4 EnMin= -194.347515463271     IErMin= 4 ErrMin= 2.27D-03
 ErrMax= 2.27D-03 EMaxC= 1.00D-01 BMatC= 7.57D-04 BMatP= 1.22D-03
 IDIUse=3 WtCom= 9.77D-01 WtEn= 2.27D-02
 Coeff-Com:  0.226D-02 0.465D-01 0.440D+00 0.511D+00
 Coeff-En:   0.000D+00 0.000D+00 0.392D+00 0.608D+00
 Coeff:      0.221D-02 0.455D-01 0.439D+00 0.513D+00
 Gap=     0.339 Goal=   None    Shift=    0.000
 RMSDP=3.16D-04 MaxDP=5.48D-03 DE=-3.68D-04 OVMax= 4.79D-03

 Cycle   5  Pass 0  IDiag  1:
 E= -194.348106887100     Delta-E=       -0.000591423828 Rises=F Damp=F
 DIIS: error= 2.26D-04 at cycle   5 NSaved=   5.
 NSaved= 5 IEnMin= 5 EnMin= -194.348106887100     IErMin= 5 ErrMin= 2.26D-04
 ErrMax= 2.26D-04 EMaxC= 1.00D-01 BMatC= 7.49D-06 BMatP= 7.57D-04
 IDIUse=3 WtCom= 9.98D-01 WtEn= 2.26D-03
 Coeff-Com:  0.482D-03-0.130D-02 0.886D-01 0.155D+00 0.757D+00
 Coeff-En:   0.000D+00 0.000D+00 0.000D+00 0.000D+00 0.100D+01
 Coeff:      0.481D-03-0.130D-02 0.884D-01 0.155D+00 0.757D+00
 Gap=     0.338 Goal=   None    Shift=    0.000
 RMSDP=3.77D-05 MaxDP=6.04D-04 DE=-5.91D-04 OVMax= 5.58D-04

 Cycle   6  Pass 0  IDiag  1:
 E= -194.348113153164     Delta-E=       -0.000006266064 Rises=F Damp=F
 DIIS: error= 7.26D-05 at cycle   6 NSaved=   6.
 NSaved= 6 IEnMin= 6 EnMin= -194.348113153164     IErMin= 6 ErrMin= 7.26D-05
 ErrMax= 7.26D-05 EMaxC= 1.00D-01 BMatC= 4.27D-07 BMatP= 7.49D-06
 IDIUse=1 WtCom= 1.00D+00 WtEn= 0.00D+00
 Coeff-Com:  0.265D-03-0.145D-02 0.375D-01 0.690D-01 0.371D+00 0.524D+00
 Coeff:      0.265D-03-0.145D-02 0.375D-01 0.690D-01 0.371D+00 0.524D+00
 Gap=     0.338 Goal=   None    Shift=    0.000
 RMSDP=7.74D-06 MaxDP=1.54D-04 DE=-6.27D-06 OVMax= 1.41D-04

 Initial convergence to 1.0D-05 achieved.  Increase integral accuracy.
 Cycle   7  Pass 1  IDiag  1:
 E= -194.348149332730     Delta-E=       -0.000036179566 Rises=F Damp=F
 DIIS: error= 9.92D-06 at cycle   1 NSaved=   1.
 NSaved= 1 IEnMin= 1 EnMin= -194.348149332730     IErMin= 1 ErrMin= 9.92D-06
 ErrMax= 9.92D-06 EMaxC= 1.00D-01 BMatC= 1.74D-08 BMatP= 1.74D-08
 IDIUse=1 WtCom= 1.00D+00 WtEn= 0.00D+00
 Coeff-Com:  0.100D+01
 Coeff:      0.100D+01
 Gap=     0.338 Goal=   None    Shift=    0.000
 RMSDP=7.74D-06 MaxDP=1.54D-04 DE=-3.62D-05 OVMax= 4.19D-05

 Cycle   8  Pass 1  IDiag  1:
 E= -194.348149342122     Delta-E=       -0.000000009392 Rises=F Damp=F
 DIIS: error= 1.16D-05 at cycle   2 NSaved=   2.
 NSaved= 2 IEnMin= 2 EnMin= -194.348149342122     IErMin= 1 ErrMin= 9.92D-06
 ErrMax= 1.16D-05 EMaxC= 1.00D-01 BMatC= 1.05D-08 BMatP= 1.74D-08
 IDIUse=1 WtCom= 1.00D+00 WtEn= 0.00D+00
 Coeff-Com:  0.423D+00 0.577D+00
 Coeff:      0.423D+00 0.577D+00
 Gap=     0.338 Goal=   None    Shift=    0.000
 RMSDP=1.39D-06 MaxDP=2.82D-05 DE=-9.39D-09 OVMax= 2.53D-05

 Cycle   9  Pass 1  IDiag  1:
 E= -194.348149351199     Delta-E=       -0.000000009077 Rises=F Damp=F
 DIIS: error= 3.09D-06 at cycle   3 NSaved=   3.
 NSaved= 3 IEnMin= 3 EnMin= -194.348149351199     IErMin= 3 ErrMin= 3.09D-06
 ErrMax= 3.09D-06 EMaxC= 1.00D-01 BMatC= 8.27D-10 BMatP= 1.05D-08
 IDIUse=1 WtCom= 1.00D+00 WtEn= 0.00D+00
 Coeff-Com: -0.987D-02 0.212D+00 0.798D+00
 Coeff:     -0.987D-02 0.212D+00 0.798D+00
 Gap=     0.338 Goal=   None    Shift=    0.000
 RMSDP=3.23D-07 MaxDP=6.52D-06 DE=-9.08D-09 OVMax= 5.47D-06

 Cycle  10  Pass 1  IDiag  1:
 E= -194.348149351963     Delta-E=       -0.000000000764 Rises=F Damp=F
 DIIS: error= 2.36D-07 at cycle   4 NSaved=   4.
 NSaved= 4 IEnMin= 4 EnMin= -194.348149351963     IErMin= 4 ErrMin= 2.36D-07
 ErrMax= 2.36D-07 EMaxC= 1.00D-01 BMatC= 6.75D-12 BMatP= 8.27D-10
 IDIUse=1 WtCom= 1.00D+00 WtEn= 0.00D+00
 Coeff-Com: -0.734D-02 0.587D-01 0.242D+00 0.707D+00
 Coeff:     -0.734D-02 0.587D-01 0.242D+00 0.707D+00
 Gap=     0.338 Goal=   None    Shift=    0.000
 RMSDP=4.03D-08 MaxDP=6.38D-07 DE=-7.64D-10 OVMax= 6.33D-07

 Cycle  11  Pass 1  IDiag  1:
 E= -194.348149351967     Delta-E=       -0.000000000004 Rises=F Damp=F
 DIIS: error= 1.47D-07 at cycle   5 NSaved=   5.
 NSaved= 5 IEnMin= 5 EnMin= -194.348149351967     IErMin= 5 ErrMin= 1.47D-07
 ErrMax= 1.47D-07 EMaxC= 1.00D-01 BMatC= 1.89D-12 BMatP= 6.75D-12
 IDIUse=1 WtCom= 1.00D+00 WtEn= 0.00D+00
 Coeff-Com: -0.312D-02 0.167D-01 0.732D-01 0.382D+00 0.531D+00
 Coeff:     -0.312D-02 0.167D-01 0.732D-01 0.382D+00 0.531D+00
 Gap=     0.338 Goal=   None    Shift=    0.000
 RMSDP=1.62D-08 MaxDP=2.99D-07 DE=-4.21D-12 OVMax= 2.85D-07

 Cycle  12  Pass 1  IDiag  1:
 E= -194.348149351969     Delta-E=       -0.000000000002 Rises=F Damp=F
 DIIS: error= 2.04D-08 at cycle   6 NSaved=   6.
 NSaved= 6 IEnMin= 6 EnMin= -194.348149351969     IErMin= 6 ErrMin= 2.04D-08
 ErrMax= 2.04D-08 EMaxC= 1.00D-01 BMatC= 6.52D-14 BMatP= 1.89D-12
 IDIUse=1 WtCom= 1.00D+00 WtEn= 0.00D+00
 Coeff-Com: -0.607D-03 0.167D-02 0.862D-02 0.976D-01 0.217D+00 0.676D+00
 Coeff:     -0.607D-03 0.167D-02 0.862D-02 0.976D-01 0.217D+00 0.676D+00
 Gap=     0.338 Goal=   None    Shift=    0.000
 RMSDP=3.91D-09 MaxDP=5.24D-08 DE=-2.22D-12 OVMax= 5.65D-08

 SCF Done:  E(RB3LYP) =  -194.348149352     A.U. after   12 cycles
             Convg  =    0.3906D-08             -V/T =  2.0094
 KE= 1.925293058302D+02 PE=-7.122233886406D+02 EE= 1.955177202626D+02
 Leave Link  502 at Sun Aug 23 11:16:04 2015, MaxMem= 3758096384 cpu:      19.6
 (Enter /share/apps/g09/l601.exe)
 Copying SCF densities to generalized density rwf, IOpCl= 0 IROHF=0.

 **********************************************************************

            Population analysis using the SCF density.

 **********************************************************************

 Orbital symmetries:
       Occupied  (A) (A) (A) (A) (A) (A) (A) (A) (A) (A) (A) (A)
                 (A) (A) (A) (A) (A)
       Virtual   (A) (A) (A) (A) (A) (A) (A) (A) (A) (A) (A) (A)
                 (A) (A) (A) (A) (A) (A) (A) (A) (A) (A) (A) (A)
                 (A) (A) (A) (A) (A) (A) (A) (A) (A) (A) (A) (A)
                 (A) (A) (A) (A) (A) (A) (A) (A) (A) (A) (A) (A)
                 (A) (A) (A) (A) (A) (A) (A) (A) (A) (A) (A)
 The electronic state is 1-A.
 Alpha  occ. eigenvalues --  -19.13781 -10.22508 -10.18293 -10.17929  -1.00943
 Alpha  occ. eigenvalues --   -0.77589  -0.67047  -0.59644  -0.50076  -0.45988
 Alpha  occ. eigenvalues --   -0.41982  -0.41251  -0.38439  -0.35266  -0.34268
 Alpha  occ. eigenvalues --   -0.31658  -0.26094
 Alpha virt. eigenvalues --    0.07726   0.09625   0.13445   0.14377   0.16750
 Alpha virt. eigenvalues --    0.17420   0.18749   0.19661   0.23076   0.23944
 Alpha virt. eigenvalues --    0.26311   0.51878   0.54156   0.54780   0.55257
 Alpha virt. eigenvalues --    0.60866   0.66852   0.68248   0.69817   0.76074
 Alpha virt. eigenvalues --    0.80572   0.86088   0.87211   0.89415   0.89787
 Alpha virt. eigenvalues --    0.92852   0.93552   0.95801   0.98997   1.03834
 Alpha virt. eigenvalues --    1.04994   1.17476   1.34977   1.42860   1.44496
 Alpha virt. eigenvalues --    1.52569   1.60369   1.64564   1.80831   1.83238
 Alpha virt. eigenvalues --    1.91406   1.94836   1.96768   1.98293   2.11550
 Alpha virt. eigenvalues --    2.16099   2.25483   2.26892   2.32665   2.40910
 Alpha virt. eigenvalues --    2.42948   2.49686   2.57838   2.73577   2.87287
 Alpha virt. eigenvalues --    3.75698   4.15004   4.29731   4.47009
          Condensed to atoms (all electrons):
              1          2          3          4          5          6
     1  C    5.092562   0.380339   0.378376   0.371305   0.324500  -0.034759
     2  H    0.380339   0.571291  -0.032665  -0.030801  -0.036242   0.005271
     3  H    0.378376  -0.032665   0.576121  -0.031073  -0.036020  -0.004509
     4  H    0.371305  -0.030801  -0.031073   0.567279  -0.022431  -0.003486
     5  C    0.324500  -0.036242  -0.036020  -0.022431   5.074526   0.368834
     6  H   -0.034759   0.005271  -0.004509  -0.003486   0.368834   0.622515
     7  H   -0.031477  -0.004432   0.005040  -0.002956   0.369866  -0.040641
     8  C   -0.035728  -0.004457  -0.004431   0.003394   0.375861  -0.039690
     9  H    0.002602  -0.000494   0.005365  -0.000171  -0.057744  -0.007138
    10  H   -0.001420   0.004794  -0.000447  -0.000156  -0.040767   0.006001
    11  O    0.003335   0.000005   0.000002  -0.000059  -0.043806  -0.001017
    12  H   -0.000045   0.000023   0.000002  -0.000002  -0.004785   0.006519
              7          8          9         10         11         12
     1  C   -0.031477  -0.035728   0.002602  -0.001420   0.003335  -0.000045
     2  H   -0.004432  -0.004457  -0.000494   0.004794   0.000005   0.000023
     3  H    0.005040  -0.004431   0.005365  -0.000447   0.000002   0.000002
     4  H   -0.002956   0.003394  -0.000171  -0.000156  -0.000059  -0.000002
     5  C    0.369866   0.375861  -0.057744  -0.040767  -0.043806  -0.004785
     6  H   -0.040641  -0.039690  -0.007138   0.006001  -0.001017   0.006519
     7  H    0.590048  -0.037008   0.006865  -0.007343   0.004501  -0.000901
     8  C   -0.037008   4.786314   0.361096   0.380011   0.267206  -0.033053
     9  H    0.006865   0.361096   0.663448  -0.047382  -0.036298  -0.005810
    10  H   -0.007343   0.380011  -0.047382   0.593307  -0.038880   0.007886
    11  O    0.004501   0.267206  -0.036298  -0.038880   8.225681   0.234475
    12  H   -0.000901  -0.033053  -0.005810   0.007886   0.234475   0.411008
 Mulliken atomic charges:
              1
     1  C   -0.449590
     2  H    0.147367
     3  H    0.144240
     4  H    0.149157
     5  C   -0.271791
     6  H    0.122099
     7  H    0.148438
     8  C   -0.019516
     9  H    0.115661
    10  H    0.144396
    11  O   -0.615145
    12  H    0.384683
 Sum of Mulliken atomic charges =   0.00000
 Mulliken charges with hydrogens summed into heavy atoms:
              1
     1  C   -0.008825
     5  C   -0.001254
     8  C    0.240541
    11  O   -0.230462
 Sum of Mulliken charges with hydrogens summed into heavy atoms =   0.00000
 Electronic spatial extent (au):  <R**2>=            386.0552
 Charge=              0.0000 electrons
 Dipole moment (field-independent basis, Debye):
    X=              1.1889    Y=              0.4854    Z=              1.1351  Tot=              1.7139
 Quadrupole moment (field-independent basis, Debye-Ang):
   XX=            -29.6974   YY=            -25.4615   ZZ=            -25.3694
   XY=             -1.4943   XZ=             -2.7744   YZ=              1.2128
 Traceless Quadrupole moment (field-independent basis, Debye-Ang):
   XX=             -2.8546   YY=              1.3812   ZZ=              1.4734
   XY=             -1.4943   XZ=             -2.7744   YZ=              1.2128
 Octapole moment (field-independent basis, Debye-Ang**2):
  XXX=             -1.7467  YYY=              1.2799  ZZZ=              0.4962  XYY=             -4.3804
  XXY=              5.1522  XXZ=              5.6251  XZZ=             -4.0737  YZZ=              0.2828
  YYZ=              0.3245  XYZ=             -2.2793
 Hexadecapole moment (field-independent basis, Debye-Ang**3):
 XXXX=           -382.0133 YYYY=            -76.1228 ZZZZ=            -46.7802 XXXY=             -8.7816
 XXXZ=            -12.7382 YYYX=             -2.6844 YYYZ=              1.7264 ZZZX=             -1.7801
 ZZZY=              0.9465 XXYY=            -69.3131 XXZZ=            -66.4679 YYZZ=            -18.6469
 XXYZ=              4.5980 YYXZ=             -1.6592 ZZXY=             -2.2282
 N-N= 1.298282131958D+02 E-N=-7.122233892793D+02  KE= 1.925293058302D+02
 No NMR shielding tensors so no spin-rotation constants.
 Leave Link  601 at Sun Aug 23 11:16:04 2015, MaxMem= 3758096384 cpu:       2.7
 (Enter /share/apps/g09/l701.exe)
 Compute integral first derivatives.
 ... and contract with generalized density number  0.
 Leave Link  701 at Sun Aug 23 11:16:05 2015, MaxMem= 3758096384 cpu:       4.2
 (Enter /share/apps/g09/l702.exe)
 L702 exits ... SP integral derivatives will be done elsewhere.
 Leave Link  702 at Sun Aug 23 11:16:05 2015, MaxMem= 3758096384 cpu:       0.2
 (Enter /share/apps/g09/l703.exe)
 Compute integral first derivatives, UseDBF=F ICtDFT=           0.
 Integral derivatives from FoFDir, PRISM(SPDF).
 Calling FoFJK, ICntrl=      2127 FMM=F ISym2X=0 I1Cent= 0 IOpClX= 0 NMat=1 NMatS=1 NMatT=0.
 FoFCou: FMM=F IPFlag=           0 FMFlag=      100000 FMFlg1=         800
         NFxFlg=           0 DoJE=F BraDBF=F KetDBF=F FulRan=T
         Omega=  0.000000  0.000000  1.000000  0.000000  0.000000 ICntrl=    2127 IOpCl=  0
         NMat0=    1 NMatS0=    1 NMatT0=    0 NMatD0=    1 NMtDS0=    0 NMtDT0=    0
         I1Cent=           0 NGrid=           0.
 Symmetry not used in FoFCou.
 Leave Link  703 at Sun Aug 23 11:16:06 2015, MaxMem= 3758096384 cpu:       6.9
 (Enter /share/apps/g09/l716.exe)
 Dipole        = 4.67741416D-01 1.90958700D-01 4.46593896D-01
 ***** Axes restored to original set *****
 -------------------------------------------------------------------
 Center     Atomic                   Forces (Hartrees/Bohr)
 Number     Number              X              Y              Z
 -------------------------------------------------------------------
      1        6          -0.000029547    0.000029810   -0.000001574
      2        1          -0.000024446   -0.000033955   -0.000003758
      3        1           0.000027875    0.000024549   -0.000002560
      4        1           0.000016210    0.000002135    0.000030375
      5        6          -0.000014498    0.000017940   -0.000239769
      6        1          -0.000041900   -0.000044242    0.000038856
      7        1           0.000018944    0.000040762    0.000015585
      8        6           0.000162972   -0.000069633    0.000238760
      9        1          -0.000039725   -0.000010526    0.000004775
     10        1           0.000014169    0.000057060   -0.000019004
     11        8          -0.000187726   -0.000177827   -0.000128156
     12        1           0.000097673    0.000163926    0.000066470
 -------------------------------------------------------------------
 Cartesian Forces:  Max     0.000239769 RMS     0.000089702
 Leave Link  716 at Sun Aug 23 11:16:06 2015, MaxMem= 3758096384 cpu:       0.3
 (Enter /share/apps/g09/l103.exe)

 GradGradGradGradGradGradGradGradGradGradGradGradGradGradGradGradGradGrad
 Berny optimization.
 Internal  Forces:  Max     0.000159548 RMS     0.000041697
 Search for a local minimum.
 Step number   1 out of a maximum of   61
 All quantities printed in internal units (Hartrees-Bohrs-Radians)
 RMS Force = .41697D-04 SwitMx=.10000D-02 MixMth= 2
 Mixed Optimization -- En-DIIS/RFO-DIIS
 Second derivative matrix not updated -- first step.
     Eigenvalues ---    0.00342   0.00377   0.01382   0.03503   0.04703
     Eigenvalues ---    0.04817   0.05445   0.05469   0.05785   0.08378
     Eigenvalues ---    0.11771   0.12233   0.14029   0.16000   0.16000
     Eigenvalues ---    0.16000   0.16000   0.21908   0.22022   0.29236
     Eigenvalues ---    0.29479   0.33273   0.33595   0.33984   0.34020
     Eigenvalues ---    0.34039   0.34155   0.34214   0.41951   0.53387
     Eigenvalues --- 1000.000001000.000001000.000001000.000001000.00000
     Eigenvalues --- 1000.000001000.000001000.000001000.000001000.00000
     Eigenvalues --- 1000.000001000.000001000.000001000.000001000.00000
     Eigenvalues --- 1000.000001000.000001000.000001000.000001000.00000
     Eigenvalues --- 1000.00000
 RFO step:  Lambda=-5.15888879D-06 EMin= 3.42091640D-03
 Linear search not attempted -- first point.
 Iteration  1 RMS(Cart)=  0.00331199 RMS(Int)=  0.00000865
 Iteration  2 RMS(Cart)=  0.00000864 RMS(Int)=  0.00000010
 Iteration  3 RMS(Cart)=  0.00000000 RMS(Int)=  0.00000010
 Variable       Old X    -DE/DX   Delta X   Delta X   Delta X     New X
                                 (Linear)    (Quad)   (Total)
    R1        2.07265  -0.00001   0.00000  -0.00004  -0.00004   2.07261
    R2        2.07296   0.00001   0.00000   0.00002   0.00002   2.07298
    R3        2.06971  -0.00001   0.00000  -0.00002  -0.00002   2.06969
    R4        2.89514   0.00001   0.00000   0.00004   0.00004   2.89518
    R5        2.08019   0.00005   0.00000   0.00015   0.00015   2.08034
    R6        2.07356  -0.00004   0.00000  -0.00011  -0.00011   2.07345
    R7        2.89015   0.00000   0.00000   0.00001   0.00001   2.89016
    R8        2.08575   0.00000   0.00000   0.00000   0.00000   2.08574
    R9        2.07069   0.00005   0.00000   0.00014   0.00014   2.07083
   R10        2.68986  -0.00008   0.00000  -0.00018  -0.00018   2.68967
   R11        1.83294  -0.00002   0.00000  -0.00004  -0.00004   1.83291
    A1        1.87740   0.00001   0.00000   0.00013   0.00013   1.87754
    A2        1.87829   0.00000   0.00000  -0.00001  -0.00001   1.87828
    A3        1.94046   0.00003   0.00000   0.00026   0.00026   1.94072
    A4        1.87862   0.00002   0.00000   0.00001   0.00001   1.87863
    A5        1.94449  -0.00003   0.00000  -0.00019  -0.00019   1.94430
    A6        1.94146  -0.00002   0.00000  -0.00020  -0.00020   1.94126
    A7        1.91198  -0.00004   0.00000  -0.00058  -0.00058   1.91139
    A8        1.92702   0.00002   0.00000   0.00036   0.00036   1.92738
    A9        1.97020   0.00002   0.00000   0.00011   0.00011   1.97031
   A10        1.85840   0.00001   0.00000   0.00002   0.00002   1.85842
   A11        1.90082   0.00001   0.00000  -0.00013  -0.00013   1.90069
   A12        1.89185  -0.00001   0.00000   0.00022   0.00022   1.89208
   A13        1.91836   0.00001   0.00000   0.00041   0.00041   1.91877
   A14        1.92120  -0.00005   0.00000  -0.00063  -0.00063   1.92057
   A15        1.97388   0.00005   0.00000   0.00030   0.00030   1.97418
   A16        1.86763  -0.00001   0.00000  -0.00027  -0.00027   1.86736
   A17        1.93908   0.00001   0.00000   0.00064   0.00064   1.93972
   A18        1.83931  -0.00003   0.00000  -0.00053  -0.00053   1.83878
   A19        1.87328   0.00006   0.00000   0.00036   0.00036   1.87364
    D1       -3.11329   0.00003   0.00000   0.00701   0.00701  -3.10628
    D2       -1.07205   0.00002   0.00000   0.00689   0.00689  -1.06516
    D3        1.04857   0.00004   0.00000   0.00752   0.00752   1.05608
    D4        1.07593   0.00002   0.00000   0.00679   0.00679   1.08272
    D5        3.11718   0.00001   0.00000   0.00668   0.00668   3.12385
    D6       -1.04539   0.00002   0.00000   0.00730   0.00730  -1.03809
    D7       -1.02025   0.00003   0.00000   0.00704   0.00704  -1.01321
    D8        1.02100   0.00002   0.00000   0.00692   0.00692   1.02792
    D9       -3.14157   0.00004   0.00000   0.00755   0.00755  -3.13403
   D10        1.00603  -0.00005   0.00000  -0.00085  -0.00085   1.00518
   D11       -1.04685  -0.00002   0.00000  -0.00038  -0.00038  -1.04723
   D12       -3.09894   0.00001   0.00000   0.00053   0.00053  -3.09841
   D13       -1.12159  -0.00002   0.00000  -0.00008  -0.00008  -1.12167
   D14        3.10872   0.00001   0.00000   0.00038   0.00038   3.10910
   D15        1.05662   0.00005   0.00000   0.00129   0.00129   1.05792
   D16       -3.13677  -0.00002   0.00000  -0.00015  -0.00015  -3.13693
   D17        1.09353   0.00001   0.00000   0.00031   0.00031   1.09385
   D18       -0.95856   0.00004   0.00000   0.00122   0.00122  -0.95734
   D19       -1.04720  -0.00016   0.00000  -0.00949  -0.00949  -1.05669
   D20        1.11973  -0.00009   0.00000  -0.00822  -0.00822   1.11150
   D21        3.13651  -0.00011   0.00000  -0.00853  -0.00853   3.12798
         Item               Value     Threshold  Converged?
 Maximum Force            0.000160     0.000450     YES
 RMS     Force            0.000042     0.000300     YES
 Maximum Displacement     0.009986     0.001800     NO 
 RMS     Displacement     0.003313     0.001200     NO 
 Predicted change in Energy=-2.579534D-06
 GradGradGradGradGradGradGradGradGradGradGradGradGradGradGradGradGradGrad

 Leave Link  103 at Sun Aug 23 11:16:07 2015, MaxMem= 3758096384 cpu:       7.6
 (Enter /share/apps/g09/l202.exe)
                          Input orientation:                          
 ---------------------------------------------------------------------
 Center     Atomic      Atomic             Coordinates (Angstroms)
 Number     Number       Type             X           Y           Z
 ---------------------------------------------------------------------
      1          6           0       -1.866572    0.105435    0.046735
      2          1           0       -2.112269    0.674201   -0.858283
      3          1           0       -1.992657    0.777333    0.904644
      4          1           0       -2.604169   -0.698376    0.143541
      5          6           0       -0.441939   -0.454147   -0.020434
      6          1           0       -0.237473   -1.048900    0.883103
      7          1           0       -0.338579   -1.137339   -0.872764
      8          6           0        0.621036    0.638340   -0.145501
      9          1           0        0.542695    1.338687    0.703964
     10          1           0        0.454328    1.221786   -1.057999
     11          8           0        1.941898    0.121655   -0.264588
     12          1           0        2.125023   -0.391924    0.537578
 ---------------------------------------------------------------------
                    Distance matrix (angstroms):
                    1          2          3          4          5
     1  C    0.000000
     2  H    1.096777   0.000000
     3  H    1.096974   1.769987   0.000000
     4  H    1.095231   1.769063   1.769446   0.000000
     5  C    1.532065   2.182925   2.185643   2.182149   0.000000
     6  H    2.164709   3.084860   2.533034   2.504210   1.100871
     7  H    2.173645   2.535324   3.092106   2.521599   1.097224
     8  C    2.551301   2.824942   2.820197   3.503184   1.529406
     9  H    2.785216   3.151347   2.604496   3.790310   2.169910
    10  H    2.802367   2.631949   3.168160   3.805933   2.165315
    11  O    3.821208   4.134495   4.156650   4.637428   2.464516
    12  H    4.052299   4.586905   4.296182   4.755463   2.627650
                    6          7          8          9         10
     6  H    0.000000
     7  H    1.760997   0.000000
     8  C    2.154493   2.145415   0.000000
     9  H    2.518199   3.064868   1.103727   0.000000
    10  H    3.066346   2.495694   1.095834   1.768046   0.000000
    11  O    2.727096   2.674980   1.423314   2.092135   2.013120
    12  H    2.476367   2.934969   1.946797   2.350842   2.818003
                   11         12
    11  O    0.000000
    12  H    0.969932   0.000000
 Stoichiometry    C3H8O
 Framework group  C1[X(C3H8O)]
 Deg. of freedom    30
 Full point group                 C1      NOp   1
 Largest Abelian subgroup         C1      NOp   1
 Largest concise Abelian subgroup C1      NOp   1
                         Standard orientation:                         
 ---------------------------------------------------------------------
 Center     Atomic      Atomic             Coordinates (Angstroms)
 Number     Number       Type             X           Y           Z
 ---------------------------------------------------------------------
      1          6           0        1.902775   -0.125126    0.016990
      2          1           0        2.055238   -0.817192   -0.820100
      3          1           0        2.038203   -0.693400    0.945470
      4          1           0        2.694932    0.629819   -0.028561
      5          6           0        0.515507    0.522073   -0.045013
      6          1           0        0.405685    1.236738    0.785114
      7          1           0        0.403780    1.100593   -0.970612
      8          6           0       -0.620982   -0.498884    0.026555
      9          1           0       -0.535452   -1.092953    0.952827
     10          1           0       -0.548598   -1.200769   -0.811879
     11          8           0       -1.910841    0.092054   -0.086929
     12          1           0       -2.010860    0.712352    0.651986
 ---------------------------------------------------------------------
 Rotational constants (GHZ):     26.1042328      3.7326059      3.5050412
 Leave Link  202 at Sun Aug 23 11:16:07 2015, MaxMem= 3758096384 cpu:       0.1
 (Enter /share/apps/g09/l301.exe)
 Standard basis: 6-31G(d) (6D, 7F)
 Ernie: Thresh=  0.10000D-02 Tol=  0.10000D-05 Strict=F.
 There are    76 symmetry adapted basis functions of A   symmetry.
 Integral buffers will be    131072 words long.
 Raffenetti 2 integral format.
 Two-electron integral symmetry is turned on.
    76 basis functions,   144 primitive gaussians,    76 cartesian basis functions
    17 alpha electrons       17 beta electrons
       nuclear repulsion energy       129.8237558364 Hartrees.
 IExCor=  402 DFT=T Ex+Corr=B3LYP ExCW=0 ScaHFX=  0.200000
 ScaDFX=  0.800000  0.720000  1.000000  0.810000 ScalE2=  1.000000  1.000000
 IRadAn=      0 IRanWt=     -1 IRanGd=            0 ICorTp=0
 NAtoms=   12 NActive=   12 NUniq=   12 SFac= 7.50D-01 NAtFMM=   80 NAOKFM=F Big=F
 Leave Link  301 at Sun Aug 23 11:16:07 2015, MaxMem= 3758096384 cpu:       0.5
 (Enter /share/apps/g09/l302.exe)
 NPDir=0 NMtPBC=     1 NCelOv=     1 NCel=       1 NClECP=     1 NCelD=      1
         NCelK=      1 NCelE2=     1 NClLst=     1 CellRange=     0.0.
 One-electron integrals computed using PRISM.
 NBasis=    76 RedAO= T  NBF=    76
 NBsUse=    76 1.00D-06 NBFU=    76
 Precomputing XC quadrature grid using
 IXCGrd= 2 IRadAn=           0 IRanWt=          -1 IRanGd=           0 AccXCQ= 1.00D-10.
 NRdTot=     744 NPtTot=       94170 NUsed=       99547 NTot=       99579
 NSgBfM=    76    76    76    76    76 NAtAll=    12    12.
 Leave Link  302 at Sun Aug 23 11:16:07 2015, MaxMem= 3758096384 cpu:       2.6
 (Enter /share/apps/g09/l303.exe)
 DipDrv:  MaxL=1.
 Leave Link  303 at Sun Aug 23 11:16:07 2015, MaxMem= 3758096384 cpu:       1.0
 (Enter /share/apps/g09/l401.exe)
 Initial guess read from the read-write file.
 B after Tr=     0.000000    0.000000    0.000000
         Rot=    1.000000    0.000000    0.000000    0.000000 Ang=   0.00 deg.
 Guess basis will be translated and rotated to current coordinates.
 Initial guess orbital symmetries:
       Occupied  (A) (A) (A) (A) (A) (A) (A) (A) (A) (A) (A) (A)
                 (A) (A) (A) (A) (A)
       Virtual   (A) (A) (A) (A) (A) (A) (A) (A) (A) (A) (A) (A)
                 (A) (A) (A) (A) (A) (A) (A) (A) (A) (A) (A) (A)
                 (A) (A) (A) (A) (A) (A) (A) (A) (A) (A) (A) (A)
                 (A) (A) (A) (A) (A) (A) (A) (A) (A) (A) (A) (A)
                 (A) (A) (A) (A) (A) (A) (A) (A) (A) (A) (A)
 The electronic state of the initial guess is 1-A.
 Leave Link  401 at Sun Aug 23 11:16:08 2015, MaxMem= 3758096384 cpu:       1.0
 (Enter /share/apps/g09/l502.exe)
 Closed shell SCF:
 Requested convergence on RMS density matrix=1.00D-08 within 128 cycles.
 Requested convergence on MAX density matrix=1.00D-06.
 Requested convergence on             energy=1.00D-06.
 No special actions if energy rises.
 Using DIIS extrapolation, IDIIS=  1040.
 Integral symmetry usage will be decided dynamically.
        99426 words used for storage of precomputed grid.
 Keep R1 ints in memory in canonical form, NReq=5315617.
 IEnd=      136400 IEndB=      136400 NGot=  3758096384 MDV=  3753700248
 LenX=  3753700248 LenY=  3753694031
 Symmetry not used in FoFDir.
 MinBra= 0 MaxBra= 2 Meth= 1.
 IRaf=       0 NMat=   1 IRICut=       1 DoRegI=T DoRafI=F ISym2E= 0 JSym2E=0.

 Cycle   1  Pass 1  IDiag  1:
 E= -194.348131038522    
 DIIS: error= 3.80D-04 at cycle   1 NSaved=   1.
 NSaved= 1 IEnMin= 1 EnMin= -194.348131038522     IErMin= 1 ErrMin= 3.80D-04
 ErrMax= 3.80D-04 EMaxC= 1.00D-01 BMatC= 1.14D-05 BMatP= 1.14D-05
 IDIUse=3 WtCom= 9.96D-01 WtEn= 3.80D-03
 Coeff-Com:  0.100D+01
 Coeff-En:   0.100D+01
 Coeff:      0.100D+01
 Gap=     0.338 Goal=   None    Shift=    0.000
 RMSDP=7.31D-05 MaxDP=1.19D-03              OVMax= 1.85D-03

 Cycle   2  Pass 1  IDiag  1:
 E= -194.348152611155     Delta-E=       -0.000021572634 Rises=F Damp=F
 DIIS: error= 3.28D-05 at cycle   2 NSaved=   2.
 NSaved= 2 IEnMin= 2 EnMin= -194.348152611155     IErMin= 2 ErrMin= 3.28D-05
 ErrMax= 3.28D-05 EMaxC= 1.00D-01 BMatC= 1.08D-07 BMatP= 1.14D-05
 IDIUse=1 WtCom= 1.00D+00 WtEn= 0.00D+00
 Coeff-Com: -0.805D-01 0.108D+01
 Coeff:     -0.805D-01 0.108D+01
 Gap=     0.338 Goal=   None    Shift=    0.000
 RMSDP=1.23D-05 MaxDP=1.53D-04 DE=-2.16D-05 OVMax= 3.19D-04

 Cycle   3  Pass 1  IDiag  1:
 E= -194.348152857884     Delta-E=       -0.000000246729 Rises=F Damp=F
 DIIS: error= 1.29D-05 at cycle   3 NSaved=   3.
 NSaved= 3 IEnMin= 3 EnMin= -194.348152857884     IErMin= 3 ErrMin= 1.29D-05
 ErrMax= 1.29D-05 EMaxC= 1.00D-01 BMatC= 2.59D-08 BMatP= 1.08D-07
 IDIUse=1 WtCom= 1.00D+00 WtEn= 0.00D+00
 Coeff-Com: -0.390D-01 0.451D+00 0.588D+00
 Coeff:     -0.390D-01 0.451D+00 0.588D+00
 Gap=     0.338 Goal=   None    Shift=    0.000
 RMSDP=2.40D-06 MaxDP=2.89D-05 DE=-2.47D-07 OVMax= 3.71D-05

 Cycle   4  Pass 1  IDiag  1:
 E= -194.348152878509     Delta-E=       -0.000000020625 Rises=F Damp=F
 DIIS: error= 4.26D-06 at cycle   4 NSaved=   4.
 NSaved= 4 IEnMin= 4 EnMin= -194.348152878509     IErMin= 4 ErrMin= 4.26D-06
 ErrMax= 4.26D-06 EMaxC= 1.00D-01 BMatC= 3.57D-09 BMatP= 2.59D-08
 IDIUse=1 WtCom= 1.00D+00 WtEn= 0.00D+00
 Coeff-Com: -0.913D-02 0.840D-01 0.278D+00 0.647D+00
 Coeff:     -0.913D-02 0.840D-01 0.278D+00 0.647D+00
 Gap=     0.338 Goal=   None    Shift=    0.000
 RMSDP=8.44D-07 MaxDP=1.37D-05 DE=-2.06D-08 OVMax= 1.56D-05

 Cycle   5  Pass 1  IDiag  1:
 E= -194.348152881353     Delta-E=       -0.000000002844 Rises=F Damp=F
 DIIS: error= 1.72D-06 at cycle   5 NSaved=   5.
 NSaved= 5 IEnMin= 5 EnMin= -194.348152881353     IErMin= 5 ErrMin= 1.72D-06
 ErrMax= 1.72D-06 EMaxC= 1.00D-01 BMatC= 3.23D-10 BMatP= 3.57D-09
 IDIUse=1 WtCom= 1.00D+00 WtEn= 0.00D+00
 Coeff-Com:  0.637D-03-0.145D-01 0.457D-01 0.274D+00 0.694D+00
 Coeff:      0.637D-03-0.145D-01 0.457D-01 0.274D+00 0.694D+00
 Gap=     0.338 Goal=   None    Shift=    0.000
 RMSDP=3.06D-07 MaxDP=5.68D-06 DE=-2.84D-09 OVMax= 6.55D-06

 Cycle   6  Pass 1  IDiag  1:
 E= -194.348152881582     Delta-E=       -0.000000000229 Rises=F Damp=F
 DIIS: error= 6.49D-07 at cycle   6 NSaved=   6.
 NSaved= 6 IEnMin= 6 EnMin= -194.348152881582     IErMin= 6 ErrMin= 6.49D-07
 ErrMax= 6.49D-07 EMaxC= 1.00D-01 BMatC= 5.12D-11 BMatP= 3.23D-10
 IDIUse=1 WtCom= 1.00D+00 WtEn= 0.00D+00
 Coeff-Com:  0.949D-03-0.132D-01 0.607D-02 0.106D+00 0.380D+00 0.520D+00
 Coeff:      0.949D-03-0.132D-01 0.607D-02 0.106D+00 0.380D+00 0.520D+00
 Gap=     0.338 Goal=   None    Shift=    0.000
 RMSDP=8.55D-08 MaxDP=1.48D-06 DE=-2.29D-10 OVMax= 1.40D-06

 Cycle   7  Pass 1  IDiag  1:
 E= -194.348152881626     Delta-E=       -0.000000000043 Rises=F Damp=F
 DIIS: error= 3.84D-08 at cycle   7 NSaved=   7.
 NSaved= 7 IEnMin= 7 EnMin= -194.348152881626     IErMin= 7 ErrMin= 3.84D-08
 ErrMax= 3.84D-08 EMaxC= 1.00D-01 BMatC= 1.98D-13 BMatP= 5.12D-11
 IDIUse=1 WtCom= 1.00D+00 WtEn= 0.00D+00
 Coeff-Com:  0.118D-03-0.141D-02-0.993D-03 0.474D-02 0.335D-01 0.775D-01
 Coeff-Com:  0.887D+00
 Coeff:      0.118D-03-0.141D-02-0.993D-03 0.474D-02 0.335D-01 0.775D-01
 Coeff:      0.887D+00
 Gap=     0.338 Goal=   None    Shift=    0.000
 RMSDP=1.23D-08 MaxDP=1.80D-07 DE=-4.34D-11 OVMax= 3.05D-07

 Cycle   8  Pass 1  IDiag  1:
 E= -194.348152881626     Delta-E=       -0.000000000001 Rises=F Damp=F
 DIIS: error= 1.36D-08 at cycle   8 NSaved=   8.
 NSaved= 8 IEnMin= 8 EnMin= -194.348152881626     IErMin= 8 ErrMin= 1.36D-08
 ErrMax= 1.36D-08 EMaxC= 1.00D-01 BMatC= 1.96D-14 BMatP= 1.98D-13
 IDIUse=1 WtCom= 1.00D+00 WtEn= 0.00D+00
 Coeff-Com: -0.194D-04 0.316D-03-0.756D-03-0.486D-02-0.123D-01-0.701D-02
 Coeff-Com:  0.252D+00 0.773D+00
 Coeff:     -0.194D-04 0.316D-03-0.756D-03-0.486D-02-0.123D-01-0.701D-02
 Coeff:      0.252D+00 0.773D+00
 Gap=     0.338 Goal=   None    Shift=    0.000
 RMSDP=3.13D-09 MaxDP=3.77D-08 DE=-5.68D-13 OVMax= 6.31D-08

 SCF Done:  E(RB3LYP) =  -194.348152882     A.U. after    8 cycles
             Convg  =    0.3133D-08             -V/T =  2.0094
 KE= 1.925292938519D+02 PE=-7.122154140268D+02 EE= 1.955142114569D+02
 Leave Link  502 at Sun Aug 23 11:16:09 2015, MaxMem= 3758096384 cpu:      18.0
 (Enter /share/apps/g09/l701.exe)
 Compute integral first derivatives.
 ... and contract with generalized density number  0.
 Leave Link  701 at Sun Aug 23 11:16:10 2015, MaxMem= 3758096384 cpu:       3.1
 (Enter /share/apps/g09/l702.exe)
 L702 exits ... SP integral derivatives will be done elsewhere.
 Leave Link  702 at Sun Aug 23 11:16:10 2015, MaxMem= 3758096384 cpu:       0.1
 (Enter /share/apps/g09/l703.exe)
 Compute integral first derivatives, UseDBF=F ICtDFT=           0.
 Integral derivatives from FoFDir, PRISM(SPDF).
 Calling FoFJK, ICntrl=      2127 FMM=F ISym2X=0 I1Cent= 0 IOpClX= 0 NMat=1 NMatS=1 NMatT=0.
 FoFCou: FMM=F IPFlag=           0 FMFlag=      100000 FMFlg1=         800
         NFxFlg=           0 DoJE=F BraDBF=F KetDBF=F FulRan=T
         Omega=  0.000000  0.000000  1.000000  0.000000  0.000000 ICntrl=    2127 IOpCl=  0
         NMat0=    1 NMatS0=    1 NMatT0=    0 NMatD0=    1 NMtDS0=    0 NMtDT0=    0
         I1Cent=           0 NGrid=           0.
 Symmetry not used in FoFCou.
 Leave Link  703 at Sun Aug 23 11:16:11 2015, MaxMem= 3758096384 cpu:       9.3
 (Enter /share/apps/g09/l716.exe)
 Dipole        = 4.64409653D-01 1.87427802D-01 4.49983116D-01
 ***** Axes restored to original set *****
 -------------------------------------------------------------------
 Center     Atomic                   Forces (Hartrees/Bohr)
 Number     Number              X              Y              Z
 -------------------------------------------------------------------
      1        6          -0.000003080    0.000016374   -0.000049760
      2        1          -0.000010510    0.000000466    0.000004605
      3        1           0.000009009    0.000010400    0.000005140
      4        1           0.000000712    0.000003671    0.000010770
      5        6           0.000009915   -0.000023651    0.000029052
      6        1          -0.000015394   -0.000031233   -0.000011938
      7        1           0.000012116    0.000033360   -0.000001539
      8        6           0.000058401    0.000019851   -0.000050696
      9        1          -0.000007480   -0.000063240    0.000025721
     10        1           0.000006630    0.000075497    0.000018629
     11        8          -0.000123240   -0.000154790   -0.000037030
     12        1           0.000062920    0.000113295    0.000057045
 -------------------------------------------------------------------
 Cartesian Forces:  Max     0.000154790 RMS     0.000048620
 Leave Link  716 at Sun Aug 23 11:16:11 2015, MaxMem= 3758096384 cpu:       0.1
 (Enter /share/apps/g09/l103.exe)

 GradGradGradGradGradGradGradGradGradGradGradGradGradGradGradGradGradGrad
 Berny optimization.
 Using GEDIIS/GDIIS optimizer.
 Internal  Forces:  Max     0.000097481 RMS     0.000025328
 Search for a local minimum.
 Step number   2 out of a maximum of   61
 All quantities printed in internal units (Hartrees-Bohrs-Radians)
 RMS Force = .25328D-04 SwitMx=.10000D-02 MixMth= 2
 Mixed Optimization -- En-DIIS/RFO-DIIS
 Swaping is turned off.
 Update second derivatives using D2CorX and points    1    2
 DE= -3.53D-06 DEPred=-2.58D-06 R= 1.37D+00
 SS=  1.41D+00  RLast= 2.62D-02 DXNew= 5.0454D-01 7.8740D-02
 Trust test= 1.37D+00 RLast= 2.62D-02 DXMaxT set to 3.00D-01
     Eigenvalues ---    0.00256   0.00379   0.00736   0.03618   0.04817
     Eigenvalues ---    0.05342   0.05443   0.05493   0.05784   0.08394
     Eigenvalues ---    0.11772   0.12215   0.14069   0.15959   0.16000
     Eigenvalues ---    0.16000   0.16011   0.21928   0.22294   0.29233
     Eigenvalues ---    0.29479   0.33285   0.33628   0.33967   0.34020
     Eigenvalues ---    0.34039   0.34131   0.34216   0.41877   0.53388
     Eigenvalues --- 1000.000001000.000001000.000001000.000001000.00000
     Eigenvalues --- 1000.000001000.000001000.000001000.000001000.00000
     Eigenvalues --- 1000.000001000.000001000.000001000.000001000.00000
     Eigenvalues --- 1000.000001000.000001000.000001000.000001000.00000
     Eigenvalues --- 1000.00000
 En-DIIS/RFO-DIIS IScMMF=        0 using points:     2    1
 RFO step:  Lambda=-3.55190702D-07.
 DIIS coeffs:      2.08929     -1.08929
 Iteration  1 RMS(Cart)=  0.00439057 RMS(Int)=  0.00002455
 Iteration  2 RMS(Cart)=  0.00002331 RMS(Int)=  0.00000012
 Iteration  3 RMS(Cart)=  0.00000000 RMS(Int)=  0.00000012
 Variable       Old X    -DE/DX   Delta X   Delta X   Delta X     New X
                                  (DIIS)     (GDIIS)  (Total)
    R1        2.07261   0.00000  -0.00004   0.00000  -0.00004   2.07257
    R2        2.07298   0.00001   0.00003   0.00003   0.00006   2.07304
    R3        2.06969   0.00000  -0.00002   0.00002   0.00000   2.06968
    R4        2.89518   0.00001   0.00005   0.00003   0.00008   2.89526
    R5        2.08034   0.00001   0.00016  -0.00006   0.00011   2.08045
    R6        2.07345  -0.00002  -0.00012  -0.00005  -0.00017   2.07328
    R7        2.89016   0.00000   0.00001   0.00000   0.00001   2.89017
    R8        2.08574  -0.00002   0.00000  -0.00013  -0.00014   2.08561
    R9        2.07083   0.00003   0.00015   0.00008   0.00023   2.07106
   R10        2.68967  -0.00005  -0.00020  -0.00011  -0.00031   2.68937
   R11        1.83291  -0.00001  -0.00004   0.00000  -0.00004   1.83287
    A1        1.87754   0.00000   0.00015  -0.00008   0.00007   1.87760
    A2        1.87828   0.00000  -0.00001   0.00006   0.00006   1.87834
    A3        1.94072   0.00002   0.00028   0.00017   0.00045   1.94117
    A4        1.87863   0.00000   0.00001  -0.00010  -0.00008   1.87855
    A5        1.94430  -0.00001  -0.00021  -0.00010  -0.00031   1.94399
    A6        1.94126  -0.00001  -0.00021   0.00003  -0.00018   1.94108
    A7        1.91139   0.00000  -0.00063   0.00063   0.00000   1.91139
    A8        1.92738   0.00001   0.00040  -0.00033   0.00006   1.92745
    A9        1.97031  -0.00001   0.00012  -0.00019  -0.00008   1.97023
   A10        1.85842   0.00000   0.00002  -0.00007  -0.00006   1.85836
   A11        1.90069   0.00002  -0.00014   0.00061   0.00047   1.90116
   A12        1.89208  -0.00001   0.00024  -0.00064  -0.00040   1.89168
   A13        1.91877  -0.00001   0.00045  -0.00071  -0.00026   1.91850
   A14        1.92057   0.00002  -0.00069   0.00092   0.00023   1.92079
   A15        1.97418  -0.00002   0.00032  -0.00042  -0.00010   1.97408
   A16        1.86736  -0.00001  -0.00029   0.00008  -0.00022   1.86714
   A17        1.93972   0.00001   0.00070  -0.00070  -0.00001   1.93971
   A18        1.83878   0.00002  -0.00058   0.00097   0.00038   1.83916
   A19        1.87364   0.00002   0.00039   0.00007   0.00046   1.87409
    D1       -3.10628   0.00001   0.00763   0.00007   0.00770  -3.09858
    D2       -1.06516   0.00001   0.00751   0.00017   0.00767  -1.05748
    D3        1.05608   0.00000   0.00819  -0.00103   0.00715   1.06324
    D4        1.08272   0.00001   0.00740   0.00012   0.00752   1.09024
    D5        3.12385   0.00001   0.00727   0.00022   0.00749   3.13134
    D6       -1.03809  -0.00001   0.00795  -0.00098   0.00697  -1.03112
    D7       -1.01321   0.00002   0.00767   0.00029   0.00796  -1.00525
    D8        1.02792   0.00002   0.00754   0.00038   0.00793   1.03585
    D9       -3.13403   0.00000   0.00822  -0.00082   0.00741  -3.12662
   D10        1.00518   0.00001  -0.00092   0.00241   0.00149   1.00668
   D11       -1.04723   0.00001  -0.00042   0.00220   0.00178  -1.04545
   D12       -3.09841  -0.00001   0.00058   0.00063   0.00121  -3.09720
   D13       -1.12167   0.00000  -0.00009   0.00130   0.00121  -1.12046
   D14        3.10910   0.00001   0.00041   0.00108   0.00150   3.11060
   D15        1.05792  -0.00001   0.00141  -0.00048   0.00092   1.05884
   D16       -3.13693   0.00001  -0.00016   0.00141   0.00124  -3.13568
   D17        1.09385   0.00001   0.00034   0.00119   0.00153   1.09537
   D18       -0.95734  -0.00001   0.00133  -0.00038   0.00095  -0.95638
   D19       -1.05669  -0.00007  -0.01034  -0.00613  -0.01646  -1.07315
   D20        1.11150  -0.00010  -0.00896  -0.00793  -0.01689   1.09461
   D21        3.12798  -0.00009  -0.00929  -0.00764  -0.01694   3.11104
         Item               Value     Threshold  Converged?
 Maximum Force            0.000097     0.000450     YES
 RMS     Force            0.000025     0.000300     YES
 Maximum Displacement     0.014104     0.001800     NO 
 RMS     Displacement     0.004392     0.001200     NO 
 Predicted change in Energy=-2.527270D-06
 GradGradGradGradGradGradGradGradGradGradGradGradGradGradGradGradGradGrad

 Leave Link  103 at Sun Aug 23 11:16:11 2015, MaxMem= 3758096384 cpu:       0.1
 (Enter /share/apps/g09/l202.exe)
                          Input orientation:                          
 ---------------------------------------------------------------------
 Center     Atomic      Atomic             Coordinates (Angstroms)
 Number     Number       Type             X           Y           Z
 ---------------------------------------------------------------------
      1          6           0       -1.867035    0.105861    0.046167
      2          1           0       -2.115057    0.670462   -0.860796
      3          1           0       -1.990267    0.781838    0.901321
      4          1           0       -2.604752   -0.697090    0.148981
      5          6           0       -0.442907   -0.455016   -0.021825
      6          1           0       -0.239325   -1.052072    0.880460
      7          1           0       -0.339906   -1.136340   -0.875577
      8          6           0        0.621075    0.636731   -0.144817
      9          1           0        0.544042    1.334559    0.706744
     10          1           0        0.454113    1.223312   -1.055402
     11          8           0        1.941128    0.118964   -0.266220
     12          1           0        2.130213   -0.384460    0.540962
 ---------------------------------------------------------------------
                    Distance matrix (angstroms):
                    1          2          3          4          5
     1  C    0.000000
     2  H    1.096755   0.000000
     3  H    1.097005   1.770038   0.000000
     4  H    1.095229   1.769081   1.769416   0.000000
     5  C    1.532105   2.183269   2.185482   2.182051   0.000000
     6  H    2.164785   3.085040   2.535638   2.501264   1.100927
     7  H    2.173659   2.532965   3.092000   2.524319   1.097134
     8  C    2.551272   2.828460   2.816836   3.503049   1.529410
     9  H    2.785561   3.157375   2.601169   3.788614   2.169668
    10  H    2.801763   2.635176   3.162065   3.807247   2.165574
    11  O    3.820977   4.136462   4.154326   4.637172   2.464307
    12  H    4.057490   4.593485   4.297495   4.761436   2.634892
                    6          7          8          9         10
     6  H    0.000000
     7  H    1.760933   0.000000
     8  C    2.154886   2.145058   0.000000
     9  H    2.517905   3.064383   1.103655   0.000000
    10  H    3.066886   2.496149   1.095955   1.767942   0.000000
    11  O    2.727742   2.673990   1.423152   2.091932   2.013357
    12  H    2.485090   2.945063   1.946952   2.344877   2.818265
                   11         12
    11  O    0.000000
    12  H    0.969913   0.000000
 Stoichiometry    C3H8O
 Framework group  C1[X(C3H8O)]
 Deg. of freedom    30
 Full point group                 C1      NOp   1
 Largest Abelian subgroup         C1      NOp   1
 Largest concise Abelian subgroup C1      NOp   1
                         Standard orientation:                         
 ---------------------------------------------------------------------
 Center     Atomic      Atomic             Coordinates (Angstroms)
 Number     Number       Type             X           Y           Z
 ---------------------------------------------------------------------
      1          6           0        1.902859   -0.125380    0.016892
      2          1           0        2.058212   -0.811630   -0.824415
      3          1           0        2.035294   -0.699968    0.941949
      4          1           0        2.695029    0.629985   -0.020761
      5          6           0        0.515766    0.522335   -0.044632
      6          1           0        0.406453    1.237014    0.785623
      7          1           0        0.403909    1.100957   -0.970045
      8          6           0       -0.620982   -0.498375    0.026454
      9          1           0       -0.536175   -1.091770    0.953139
     10          1           0       -0.547991   -1.201101   -0.811380
     11          8           0       -1.910435    0.092843   -0.088149
     12          1           0       -2.017110    0.702288    0.658797
 ---------------------------------------------------------------------
 Rotational constants (GHZ):     26.1083741      3.7320218      3.5051297
 Leave Link  202 at Sun Aug 23 11:16:11 2015, MaxMem= 3758096384 cpu:       0.1
 (Enter /share/apps/g09/l301.exe)
 Standard basis: 6-31G(d) (6D, 7F)
 Ernie: Thresh=  0.10000D-02 Tol=  0.10000D-05 Strict=F.
 There are    76 symmetry adapted basis functions of A   symmetry.
 Integral buffers will be    131072 words long.
 Raffenetti 2 integral format.
 Two-electron integral symmetry is turned on.
    76 basis functions,   144 primitive gaussians,    76 cartesian basis functions
    17 alpha electrons       17 beta electrons
       nuclear repulsion energy       129.8214694815 Hartrees.
 IExCor=  402 DFT=T Ex+Corr=B3LYP ExCW=0 ScaHFX=  0.200000
 ScaDFX=  0.800000  0.720000  1.000000  0.810000 ScalE2=  1.000000  1.000000
 IRadAn=      0 IRanWt=     -1 IRanGd=            0 ICorTp=0
 NAtoms=   12 NActive=   12 NUniq=   12 SFac= 7.50D-01 NAtFMM=   80 NAOKFM=F Big=F
 Leave Link  301 at Sun Aug 23 11:16:11 2015, MaxMem= 3758096384 cpu:       0.4
 (Enter /share/apps/g09/l302.exe)
 NPDir=0 NMtPBC=     1 NCelOv=     1 NCel=       1 NClECP=     1 NCelD=      1
         NCelK=      1 NCelE2=     1 NClLst=     1 CellRange=     0.0.
 One-electron integrals computed using PRISM.
 NBasis=    76 RedAO= T  NBF=    76
 NBsUse=    76 1.00D-06 NBFU=    76
 Precomputing XC quadrature grid using
 IXCGrd= 2 IRadAn=           0 IRanWt=          -1 IRanGd=           0 AccXCQ= 1.00D-10.
 NRdTot=     744 NPtTot=       94170 NUsed=       99547 NTot=       99579
 NSgBfM=    76    76    76    76    76 NAtAll=    12    12.
 Leave Link  302 at Sun Aug 23 11:16:11 2015, MaxMem= 3758096384 cpu:       1.9
 (Enter /share/apps/g09/l303.exe)
 DipDrv:  MaxL=1.
 Leave Link  303 at Sun Aug 23 11:16:11 2015, MaxMem= 3758096384 cpu:       0.2
 (Enter /share/apps/g09/l401.exe)
 Initial guess read from the read-write file.
 B after Tr=     0.000000    0.000000    0.000000
         Rot=    1.000000    0.000000    0.000000    0.000000 Ang=   0.00 deg.
 Guess basis will be translated and rotated to current coordinates.
 Initial guess orbital symmetries:
       Occupied  (A) (A) (A) (A) (A) (A) (A) (A) (A) (A) (A) (A)
                 (A) (A) (A) (A) (A)
       Virtual   (A) (A) (A) (A) (A) (A) (A) (A) (A) (A) (A) (A)
                 (A) (A) (A) (A) (A) (A) (A) (A) (A) (A) (A) (A)
                 (A) (A) (A) (A) (A) (A) (A) (A) (A) (A) (A) (A)
                 (A) (A) (A) (A) (A) (A) (A) (A) (A) (A) (A) (A)
                 (A) (A) (A) (A) (A) (A) (A) (A) (A) (A) (A)
 The electronic state of the initial guess is 1-A.
 Leave Link  401 at Sun Aug 23 11:16:12 2015, MaxMem= 3758096384 cpu:       3.3
 (Enter /share/apps/g09/l502.exe)
 Closed shell SCF:
 Requested convergence on RMS density matrix=1.00D-08 within 128 cycles.
 Requested convergence on MAX density matrix=1.00D-06.
 Requested convergence on             energy=1.00D-06.
 No special actions if energy rises.
 Using DIIS extrapolation, IDIIS=  1040.
 Integral symmetry usage will be decided dynamically.
        99426 words used for storage of precomputed grid.
 Keep R1 ints in memory in canonical form, NReq=5315617.
 IEnd=      136400 IEndB=      136400 NGot=  3758096384 MDV=  3753700248
 LenX=  3753700248 LenY=  3753694031
 Symmetry not used in FoFDir.
 MinBra= 0 MaxBra= 2 Meth= 1.
 IRaf=       0 NMat=   1 IRICut=       1 DoRegI=T DoRafI=F ISym2E= 0 JSym2E=0.

 Cycle   1  Pass 1  IDiag  1:
 E= -194.348114106269    
 DIIS: error= 6.55D-04 at cycle   1 NSaved=   1.
 NSaved= 1 IEnMin= 1 EnMin= -194.348114106269     IErMin= 1 ErrMin= 6.55D-04
 ErrMax= 6.55D-04 EMaxC= 1.00D-01 BMatC= 2.31D-05 BMatP= 2.31D-05
 IDIUse=3 WtCom= 9.93D-01 WtEn= 6.55D-03
 Coeff-Com:  0.100D+01
 Coeff-En:   0.100D+01
 Coeff:      0.100D+01
 Gap=     0.338 Goal=   None    Shift=    0.000
 RMSDP=1.12D-04 MaxDP=2.08D-03              OVMax= 3.20D-03

 Cycle   2  Pass 1  IDiag  1:
 E= -194.348154714968     Delta-E=       -0.000040608700 Rises=F Damp=F
 DIIS: error= 5.53D-05 at cycle   2 NSaved=   2.
 NSaved= 2 IEnMin= 2 EnMin= -194.348154714968     IErMin= 2 ErrMin= 5.53D-05
 ErrMax= 5.53D-05 EMaxC= 1.00D-01 BMatC= 2.18D-07 BMatP= 2.31D-05
 IDIUse=1 WtCom= 1.00D+00 WtEn= 0.00D+00
 Coeff-Com: -0.714D-01 0.107D+01
 Coeff:     -0.714D-01 0.107D+01
 Gap=     0.338 Goal=   None    Shift=    0.000
 RMSDP=1.91D-05 MaxDP=2.75D-04 DE=-4.06D-05 OVMax= 5.50D-04

 Cycle   3  Pass 1  IDiag  1:
 E= -194.348155209267     Delta-E=       -0.000000494299 Rises=F Damp=F
 DIIS: error= 1.90D-05 at cycle   3 NSaved=   3.
 NSaved= 3 IEnMin= 3 EnMin= -194.348155209267     IErMin= 3 ErrMin= 1.90D-05
 ErrMax= 1.90D-05 EMaxC= 1.00D-01 BMatC= 4.81D-08 BMatP= 2.18D-07
 IDIUse=1 WtCom= 1.00D+00 WtEn= 0.00D+00
 Coeff-Com: -0.340D-01 0.395D+00 0.639D+00
 Coeff:     -0.340D-01 0.395D+00 0.639D+00
 Gap=     0.338 Goal=   None    Shift=    0.000
 RMSDP=3.66D-06 MaxDP=4.88D-05 DE=-4.94D-07 OVMax= 5.89D-05

 Cycle   4  Pass 1  IDiag  1:
 E= -194.348155251656     Delta-E=       -0.000000042389 Rises=F Damp=F
 DIIS: error= 6.40D-06 at cycle   4 NSaved=   4.
 NSaved= 4 IEnMin= 4 EnMin= -194.348155251656     IErMin= 4 ErrMin= 6.40D-06
 ErrMax= 6.40D-06 EMaxC= 1.00D-01 BMatC= 5.44D-09 BMatP= 4.81D-08
 IDIUse=1 WtCom= 1.00D+00 WtEn= 0.00D+00
 Coeff-Com: -0.818D-02 0.714D-01 0.261D+00 0.675D+00
 Coeff:     -0.818D-02 0.714D-01 0.261D+00 0.675D+00
 Gap=     0.338 Goal=   None    Shift=    0.000
 RMSDP=1.18D-06 MaxDP=1.89D-05 DE=-4.24D-08 OVMax= 2.13D-05

 Cycle   5  Pass 1  IDiag  1:
 E= -194.348155256736     Delta-E=       -0.000000005081 Rises=F Damp=F
 DIIS: error= 1.60D-06 at cycle   5 NSaved=   5.
 NSaved= 5 IEnMin= 5 EnMin= -194.348155256736     IErMin= 5 ErrMin= 1.60D-06
 ErrMax= 1.60D-06 EMaxC= 1.00D-01 BMatC= 5.47D-10 BMatP= 5.44D-09
 IDIUse=1 WtCom= 1.00D+00 WtEn= 0.00D+00
 Coeff-Com:  0.111D-02-0.192D-01 0.168D-01 0.263D+00 0.738D+00
 Coeff:      0.111D-02-0.192D-01 0.168D-01 0.263D+00 0.738D+00
 Gap=     0.338 Goal=   None    Shift=    0.000
 RMSDP=4.05D-07 MaxDP=6.39D-06 DE=-5.08D-09 OVMax= 9.04D-06

 Cycle   6  Pass 1  IDiag  1:
 E= -194.348155257212     Delta-E=       -0.000000000476 Rises=F Damp=F
 DIIS: error= 1.01D-06 at cycle   6 NSaved=   6.
 NSaved= 6 IEnMin= 6 EnMin= -194.348155257212     IErMin= 6 ErrMin= 1.01D-06
 ErrMax= 1.01D-06 EMaxC= 1.00D-01 BMatC= 8.71D-11 BMatP= 5.47D-10
 IDIUse=1 WtCom= 1.00D+00 WtEn= 0.00D+00
 Coeff-Com:  0.944D-03-0.136D-01-0.103D-03 0.127D+00 0.426D+00 0.460D+00
 Coeff:      0.944D-03-0.136D-01-0.103D-03 0.127D+00 0.426D+00 0.460D+00
 Gap=     0.338 Goal=   None    Shift=    0.000
 RMSDP=1.08D-07 MaxDP=2.24D-06 DE=-4.76D-10 OVMax= 1.97D-06

 Cycle   7  Pass 1  IDiag  1:
 E= -194.348155257275     Delta-E=       -0.000000000063 Rises=F Damp=F
 DIIS: error= 9.24D-08 at cycle   7 NSaved=   7.
 NSaved= 7 IEnMin= 7 EnMin= -194.348155257275     IErMin= 7 ErrMin= 9.24D-08
 ErrMax= 9.24D-08 EMaxC= 1.00D-01 BMatC= 1.18D-12 BMatP= 8.71D-11
 IDIUse=1 WtCom= 1.00D+00 WtEn= 0.00D+00
 Coeff-Com:  0.202D-03-0.264D-02-0.168D-02 0.165D-01 0.710D-01 0.136D+00
 Coeff-Com:  0.780D+00
 Coeff:      0.202D-03-0.264D-02-0.168D-02 0.165D-01 0.710D-01 0.136D+00
 Coeff:      0.780D+00
 Gap=     0.338 Goal=   None    Shift=    0.000
 RMSDP=2.07D-08 MaxDP=3.23D-07 DE=-6.26D-11 OVMax= 4.43D-07

 Cycle   8  Pass 1  IDiag  1:
 E= -194.348155257277     Delta-E=       -0.000000000002 Rises=F Damp=F
 DIIS: error= 2.38D-08 at cycle   8 NSaved=   8.
 NSaved= 8 IEnMin= 8 EnMin= -194.348155257277     IErMin= 8 ErrMin= 2.38D-08
 ErrMax= 2.38D-08 EMaxC= 1.00D-01 BMatC= 4.94D-14 BMatP= 1.18D-12
 IDIUse=1 WtCom= 1.00D+00 WtEn= 0.00D+00
 Coeff-Com: -0.103D-04 0.188D-03-0.518D-03-0.441D-02-0.107D-01 0.348D-02
 Coeff-Com:  0.189D+00 0.823D+00
 Coeff:     -0.103D-04 0.188D-03-0.518D-03-0.441D-02-0.107D-01 0.348D-02
 Coeff:      0.189D+00 0.823D+00
 Gap=     0.338 Goal=   None    Shift=    0.000
 RMSDP=5.27D-09 MaxDP=6.64D-08 DE=-1.59D-12 OVMax= 1.12D-07

 SCF Done:  E(RB3LYP) =  -194.348155257     A.U. after    8 cycles
             Convg  =    0.5268D-08             -V/T =  2.0094
 KE= 1.925294929523D+02 PE=-7.122128675465D+02 EE= 1.955137498554D+02
 Leave Link  502 at Sun Aug 23 11:16:13 2015, MaxMem= 3758096384 cpu:      18.3
 (Enter /share/apps/g09/l701.exe)
 Compute integral first derivatives.
 ... and contract with generalized density number  0.
 Leave Link  701 at Sun Aug 23 11:16:14 2015, MaxMem= 3758096384 cpu:       3.0
 (Enter /share/apps/g09/l702.exe)
 L702 exits ... SP integral derivatives will be done elsewhere.
 Leave Link  702 at Sun Aug 23 11:16:14 2015, MaxMem= 3758096384 cpu:       0.1
 (Enter /share/apps/g09/l703.exe)
 Compute integral first derivatives, UseDBF=F ICtDFT=           0.
 Integral derivatives from FoFDir, PRISM(SPDF).
 Calling FoFJK, ICntrl=      2127 FMM=F ISym2X=0 I1Cent= 0 IOpClX= 0 NMat=1 NMatS=1 NMatT=0.
 FoFCou: FMM=F IPFlag=           0 FMFlag=      100000 FMFlg1=         800
         NFxFlg=           0 DoJE=F BraDBF=F KetDBF=F FulRan=T
         Omega=  0.000000  0.000000  1.000000  0.000000  0.000000 ICntrl=    2127 IOpCl=  0
         NMat0=    1 NMatS0=    1 NMatT0=    0 NMatD0=    1 NMtDS0=    0 NMtDT0=    0
         I1Cent=           0 NGrid=           0.
 Symmetry not used in FoFCou.
 Leave Link  703 at Sun Aug 23 11:16:15 2015, MaxMem= 3758096384 cpu:       8.8
 (Enter /share/apps/g09/l716.exe)
 Dipole        = 4.58564784D-01 1.80931203D-01 4.55904291D-01
 ***** Axes restored to original set *****
 -------------------------------------------------------------------
 Center     Atomic                   Forces (Hartrees/Bohr)
 Number     Number              X              Y              Z
 -------------------------------------------------------------------
      1        6           0.000016516   -0.000015925   -0.000005742
      2        1           0.000021257    0.000023972    0.000006248
      3        1          -0.000021078   -0.000002199    0.000010288
      4        1          -0.000017036    0.000010722   -0.000016960
      5        6          -0.000027965   -0.000032977    0.000047203
      6        1           0.000018898    0.000043421   -0.000051182
      7        1          -0.000007437   -0.000030490   -0.000021465
      8        6          -0.000042868    0.000066515   -0.000004592
      9        1          -0.000004081   -0.000005513    0.000021579
     10        1           0.000024443   -0.000013581    0.000048654
     11        8           0.000048483   -0.000086988   -0.000040930
     12        1          -0.000009132    0.000043044    0.000006899
 -------------------------------------------------------------------
 Cartesian Forces:  Max     0.000086988 RMS     0.000031972
 Leave Link  716 at Sun Aug 23 11:16:15 2015, MaxMem= 3758096384 cpu:       0.2
 (Enter /share/apps/g09/l103.exe)

 GradGradGradGradGradGradGradGradGradGradGradGradGradGradGradGradGradGrad
 Berny optimization.
 Using GEDIIS/GDIIS optimizer.
 Internal  Forces:  Max     0.000059124 RMS     0.000019852
 Search for a local minimum.
 Step number   3 out of a maximum of   61
 All quantities printed in internal units (Hartrees-Bohrs-Radians)
 RMS Force = .19852D-04 SwitMx=.10000D-02 MixMth= 2
 Mixed Optimization -- En-DIIS/RFO-DIIS
 Swaping is turned off.
 Update second derivatives using D2CorX and points    1    2    3
 DE= -2.38D-06 DEPred=-2.53D-06 R= 9.40D-01
 SS=  1.41D+00  RLast= 3.70D-02 DXNew= 5.0454D-01 1.1113D-01
 Trust test= 9.40D-01 RLast= 3.70D-02 DXMaxT set to 3.00D-01
     Eigenvalues ---    0.00289   0.00388   0.00578   0.03621   0.04817
     Eigenvalues ---    0.05336   0.05456   0.05491   0.05790   0.08407
     Eigenvalues ---    0.11772   0.12286   0.14071   0.15998   0.16000
     Eigenvalues ---    0.16004   0.16161   0.21927   0.22317   0.29233
     Eigenvalues ---    0.29488   0.33298   0.33720   0.34011   0.34025
     Eigenvalues ---    0.34039   0.34213   0.34301   0.42060   0.53391
     Eigenvalues --- 1000.000001000.000001000.000001000.000001000.00000
     Eigenvalues --- 1000.000001000.000001000.000001000.000001000.00000
     Eigenvalues --- 1000.000001000.000001000.000001000.000001000.00000
     Eigenvalues --- 1000.000001000.000001000.000001000.000001000.00000
     Eigenvalues --- 1000.00000
 En-DIIS/RFO-DIIS IScMMF=        0 using points:     3    2    1
 RFO step:  Lambda=-7.13968728D-08.
 DIIS coeffs:      1.12749     -0.14457      0.01709
 Iteration  1 RMS(Cart)=  0.00112004 RMS(Int)=  0.00000256
 Iteration  2 RMS(Cart)=  0.00000239 RMS(Int)=  0.00000001
 Iteration  3 RMS(Cart)=  0.00000000 RMS(Int)=  0.00000001
 Variable       Old X    -DE/DX   Delta X   Delta X   Delta X     New X
                                  (DIIS)     (GDIIS)  (Total)
    R1        2.07257   0.00000   0.00000  -0.00001  -0.00001   2.07255
    R2        2.07304   0.00001   0.00001   0.00003   0.00003   2.07307
    R3        2.06968   0.00001   0.00000   0.00001   0.00001   2.06970
    R4        2.89526   0.00000   0.00001   0.00001   0.00002   2.89527
    R5        2.08045  -0.00006   0.00001  -0.00017  -0.00016   2.08029
    R6        2.07328   0.00003  -0.00002   0.00010   0.00008   2.07336
    R7        2.89017   0.00002   0.00000   0.00008   0.00008   2.89025
    R8        2.08561   0.00001  -0.00002   0.00004   0.00003   2.08563
    R9        2.07106  -0.00005   0.00003  -0.00014  -0.00011   2.07094
   R10        2.68937   0.00005  -0.00004   0.00012   0.00008   2.68945
   R11        1.83287  -0.00002   0.00000  -0.00005  -0.00006   1.83281
[...]
 Angle between quadratic step and forces=  77.11 degrees.
 Linear search not attempted -- first point.
 Iteration  1 RMS(Cart)=  0.00019764 RMS(Int)=  0.00000002
 Iteration  2 RMS(Cart)=  0.00000002 RMS(Int)=  0.00000000
 Variable       Old X    -DE/DX   Delta X   Delta X   Delta X     New X
                                 (Linear)    (Quad)   (Total)
    R1        2.07258   0.00000   0.00000   0.00001   0.00001   2.07259
    R2        2.07307   0.00000   0.00000  -0.00001  -0.00001   2.07306
    R3        2.06970   0.00000   0.00000   0.00000   0.00000   2.06970
    R4        2.89522   0.00000   0.00000   0.00000   0.00000   2.89522
    R5        2.08021   0.00001   0.00000   0.00002   0.00002   2.08023
    R6        2.07338  -0.00001   0.00000  -0.00002  -0.00002   2.07337
    R7        2.89030   0.00000   0.00000  -0.00002  -0.00002   2.89028
    R8        2.08561   0.00000   0.00000  -0.00001  -0.00001   2.08559
    R9        2.07091   0.00000   0.00000   0.00000   0.00000   2.07091
   R10        2.68962   0.00000   0.00000   0.00001   0.00001   2.68963
   R11        1.83281   0.00000   0.00000   0.00000   0.00000   1.83281
    A1        1.87749   0.00000   0.00000   0.00000   0.00000   1.87749
    A2        1.87834   0.00000   0.00000  -0.00003  -0.00003   1.87831
    A3        1.94088   0.00001   0.00000   0.00004   0.00004   1.94093
    A4        1.87845   0.00000   0.00000   0.00002   0.00002   1.87848
    A5        1.94427   0.00000   0.00000  -0.00002  -0.00002   1.94425
    A6        1.94129   0.00000   0.00000  -0.00002  -0.00002   1.94127
    A7        1.91178   0.00000   0.00000   0.00000   0.00000   1.91177
    A8        1.92741   0.00000   0.00000   0.00000   0.00000   1.92741
    A9        1.97016   0.00000   0.00000   0.00001   0.00001   1.97017
   A10        1.85834   0.00000   0.00000  -0.00002  -0.00002   1.85832
   A11        1.90097   0.00000   0.00000   0.00000   0.00000   1.90097
   A12        1.89162   0.00000   0.00000   0.00001   0.00001   1.89163
   A13        1.91861   0.00000   0.00000   0.00003   0.00003   1.91864
   A14        1.92086   0.00000   0.00000   0.00002   0.00002   1.92088
   A15        1.97385   0.00000   0.00000  -0.00001  -0.00001   1.97384
   A16        1.86715   0.00000   0.00000   0.00002   0.00002   1.86717
   A17        1.93978   0.00000   0.00000   0.00000   0.00000   1.93977
   A18        1.83915  -0.00001   0.00000  -0.00005  -0.00005   1.83910
   A19        1.87399  -0.00001   0.00000  -0.00007  -0.00007   1.87392
    D1       -3.10269   0.00000   0.00000  -0.00029  -0.00029  -3.10298
    D2       -1.06141   0.00000   0.00000  -0.00031  -0.00031  -1.06173
    D3        1.05915   0.00000   0.00000  -0.00029  -0.00029   1.05886
    D4        1.08629   0.00000   0.00000  -0.00030  -0.00030   1.08599
    D5        3.12757   0.00000   0.00000  -0.00033  -0.00033   3.12724
    D6       -1.03505   0.00000   0.00000  -0.00030  -0.00030  -1.03536
    D7       -1.00941   0.00000   0.00000  -0.00031  -0.00031  -1.00972
    D8        1.03187   0.00000   0.00000  -0.00033  -0.00033   1.03154
    D9       -3.13075   0.00000   0.00000  -0.00031  -0.00031  -3.13106
   D10        1.00732   0.00000   0.00000  -0.00023  -0.00023   1.00710
   D11       -1.04491   0.00000   0.00000  -0.00028  -0.00028  -1.04519
   D12       -3.09655   0.00000   0.00000  -0.00022  -0.00022  -3.09677
   D13       -1.12012   0.00000   0.00000  -0.00023  -0.00023  -1.12034
   D14        3.11084   0.00000   0.00000  -0.00028  -0.00028   3.11055
   D15        1.05920   0.00000   0.00000  -0.00022  -0.00022   1.05897
   D16       -3.13517   0.00000   0.00000  -0.00022  -0.00022  -3.13539
   D17        1.09578   0.00000   0.00000  -0.00027  -0.00027   1.09551
   D18       -0.95586   0.00000   0.00000  -0.00021  -0.00021  -0.95607
   D19       -1.08057   0.00000   0.00000   0.00009   0.00009  -1.08049
   D20        1.08722   0.00000   0.00000   0.00011   0.00011   1.08733
   D21        3.10368   0.00000   0.00000   0.00010   0.00010   3.10378
         Item               Value     Threshold  Converged?
 Maximum Force            0.000013     0.000450     YES
 RMS     Force            0.000003     0.000300     YES
 Maximum Displacement     0.000495     0.001800     YES
 RMS     Displacement     0.000198     0.001200     YES
 Predicted change in Energy=-2.911450D-09
 Optimization completed.
    -- Stationary point found.
                           ----------------------------
                           !   Optimized Parameters   !
                           ! (Angstroms and Degrees)  !
 --------------------------                            --------------------------
 ! Name  Definition              Value          Derivative Info.                !
 --------------------------------------------------------------------------------
 ! R1    R(1,2)                  1.0968         -DE/DX =    0.0                 !
 ! R2    R(1,3)                  1.097          -DE/DX =    0.0                 !
 ! R3    R(1,4)                  1.0952         -DE/DX =    0.0                 !
 ! R4    R(1,5)                  1.5321         -DE/DX =    0.0                 !
 ! R5    R(5,6)                  1.1008         -DE/DX =    0.0                 !
 ! R6    R(5,7)                  1.0972         -DE/DX =    0.0                 !
 ! R7    R(5,8)                  1.5295         -DE/DX =    0.0                 !
 ! R8    R(8,9)                  1.1037         -DE/DX =    0.0                 !
 ! R9    R(8,10)                 1.0959         -DE/DX =    0.0                 !
 ! R10   R(8,11)                 1.4233         -DE/DX =    0.0                 !
 ! R11   R(11,12)                0.9699         -DE/DX =    0.0                 !
 ! A1    A(2,1,3)              107.5721         -DE/DX =    0.0                 !
 ! A2    A(2,1,4)              107.6212         -DE/DX =    0.0                 !
 ! A3    A(2,1,5)              111.2044         -DE/DX =    0.0                 !
 ! A4    A(3,1,4)              107.6274         -DE/DX =    0.0                 !
 ! A5    A(3,1,5)              111.3983         -DE/DX =    0.0                 !
 ! A6    A(4,1,5)              111.2275         -DE/DX =    0.0                 !
 ! A7    A(1,5,6)              109.5367         -DE/DX =    0.0                 !
 ! A8    A(1,5,7)              110.4327         -DE/DX =    0.0                 !
 ! A9    A(1,5,8)              112.8818         -DE/DX =    0.0                 !
 ! A10   A(6,5,7)              106.4748         -DE/DX =    0.0                 !
 ! A11   A(6,5,8)              108.9175         -DE/DX =    0.0                 !
 ! A12   A(7,5,8)              108.3816         -DE/DX =    0.0                 !
 ! A13   A(5,8,9)              109.9283         -DE/DX =    0.0                 !
 ! A14   A(5,8,10)             110.057          -DE/DX =    0.0                 !
 ! A15   A(5,8,11)             113.0933         -DE/DX =    0.0                 !
 ! A16   A(9,8,10)             106.9795         -DE/DX =    0.0                 !
 ! A17   A(9,8,11)             111.1411         -DE/DX =    0.0                 !
 ! A18   A(10,8,11)            105.3754         -DE/DX =    0.0                 !
 ! A19   A(8,11,12)            107.3716         -DE/DX =    0.0                 !
 ! D1    D(2,1,5,6)           -177.7712         -DE/DX =    0.0                 !
 ! D2    D(2,1,5,7)            -60.8145         -DE/DX =    0.0                 !
 ! D3    D(2,1,5,8)             60.6849         -DE/DX =    0.0                 !
 ! D4    D(3,1,5,6)             62.2398         -DE/DX =    0.0                 !
 ! D5    D(3,1,5,7)            179.1965         -DE/DX =    0.0                 !
 ! D6    D(3,1,5,8)            -59.3041         -DE/DX =    0.0                 !
 ! D7    D(4,1,5,6)            -57.835          -DE/DX =    0.0                 !
 ! D8    D(4,1,5,7)             59.1217         -DE/DX =    0.0                 !
 ! D9    D(4,1,5,8)           -179.3789         -DE/DX =    0.0                 !
 ! D10   D(1,5,8,9)             57.7154         -DE/DX =    0.0                 !
 ! D11   D(1,5,8,10)           -59.869          -DE/DX =    0.0                 !
 ! D12   D(1,5,8,11)          -177.4192         -DE/DX =    0.0                 !
 ! D13   D(6,5,8,9)            -64.1779         -DE/DX =    0.0                 !
 ! D14   D(6,5,8,10)           178.2377         -DE/DX =    0.0                 !
 ! D15   D(6,5,8,11)            60.6874         -DE/DX =    0.0                 !
 ! D16   D(7,5,8,9)           -179.6321         -DE/DX =    0.0                 !
 ! D17   D(7,5,8,10)            62.7835         -DE/DX =    0.0                 !
 ! D18   D(7,5,8,11)           -54.7668         -DE/DX =    0.0                 !
 ! D19   D(5,8,11,12)          -61.9122         -DE/DX =    0.0                 !
 ! D20   D(9,8,11,12)           62.293          -DE/DX =    0.0                 !
 ! D21   D(10,8,11,12)         177.8279         -DE/DX =    0.0                 !
 --------------------------------------------------------------------------------
 GradGradGradGradGradGradGradGradGradGradGradGradGradGradGradGradGradGrad

 Leave Link  103 at Sun Aug 23 11:16:44 2015, MaxMem= 3758096384 cpu:       0.5
 (Enter /share/apps/g09/l9999.exe)
 1\1\GINC-COMPUTE-0-2\Freq\RB3LYP\6-31G(d)\C3H8O1\HETANJIN\23-Aug-2015\
 0\\#P Geom=AllCheck Guess=TCheck SCRF=Check GenChk RB3LYP/6-31G(d) Fre
 q\\using ub3lyp/6-31G(d) to scan\\0,1\C,-1.867250131,0.1059909357,0.04
 63620844\H,-2.1134785228,0.6734437989,-0.8593181108\H,-1.9914753766,0.
 7796028676,0.9032612419\H,-2.6057250802,-0.6967102961,0.145704379\C,-0
 .4433654304,-0.4554704259,-0.0214699826\H,-0.2394744373,-1.0519279762,
 0.8809876264\H,-0.3407632303,-1.137370074,-0.8748778246\C,0.6209796887
 ,0.6359080518,-0.1454653024\H,0.5448372029,1.3340698766,0.705902887\H,
 0.453774715,1.2222180171,-1.0560843563\O,1.9407737899,0.1172812002,-0.
 2675771885\H,2.1324888122,-0.3802859758,0.5425705465\\Version=EM64L-G0
 9RevA.01\State=1-A\HF=-194.3481558\RMSD=1.035e-09\RMSF=5.954e-06\ZeroP
 oint=0.1091807\Thermal=0.1146629\Dipole=-0.4174381,-0.1474134,0.504147
 6\DipoleDeriv=0.0427,0.0095035,0.0046032,-0.049412,0.100582,0.0025731,
 0.004995,0.0035818,0.1243049,0.0182623,0.0280356,-0.0140374,0.060451,-
 0.0081695,0.0916262,-0.0501622,0.0967335,-0.0914071,0.0265178,0.013759
 8,-0.0042482,0.0516499,-0.0342775,-0.1064515,0.0293039,-0.1093719,-0.0
 77289,-0.1028715,-0.086899,0.0140311,-0.1072168,-0.053382,0.0150983,0.
 0184902,0.0139733,0.0659597,0.0056015,-0.0218297,0.0069143,-0.086009,0
 .0601048,-0.0049809,0.0247271,-0.0305031,0.1611288,-0.0385064,0.039816
 3,-0.0564526,0.0203491,-0.0495983,0.0956895,-0.0539245,0.121689,-0.111
 4566,-0.0029474,0.0182081,0.0271869,0.0076238,-0.0610237,-0.0937657,0.
 0228718,-0.1055314,-0.0691603,0.8241479,-0.1313286,-0.0308803,-0.05157
 71,0.4468574,0.0615712,-0.0188621,0.0668695,0.3604552,-0.0628478,0.029
 7676,0.0149059,0.013644,-0.1137603,-0.1077423,0.0341676,-0.1537818,-0.
 1244754,-0.0123318,0.0194738,-0.0272041,0.0141245,-0.0342536,0.08118,-
 0.0174992,0.1035259,-0.0957462,-1.0226366,0.0690757,0.0176097,0.066926
 5,-0.5107431,-0.1392163,0.000672,-0.1229451,-0.2595106,0.3249122,0.012
 4166,0.0475715,0.059446,0.2576637,0.1044185,0.0052204,0.1157603,0.1171
 966\Polar=40.6011274,-0.9331802,34.9149027,0.4358066,-1.1054529,34.621
 1618\PG=C01 [X(C3H8O1)]\NImag=0\\0.49325531,0.03870187,0.56215667,0.00
 310058,-0.00269531,0.57195505,-0.06094689,0.02766775,-0.04568842,0.066
 06046,0.02751255,-0.11873330,0.11067820,-0.03325731,0.12519993,-0.0459
 0711,0.11077672,-0.23060126,0.05052360,-0.12312716,0.24787984,-0.05207
 861,0.01537505,0.02007530,-0.00010130,-0.00499210,-0.00487631,0.056105
 09,0.01518462,-0.14679636,-0.12389147,-0.00235798,0.01232374,0.0140640
 3,-0.01947521,0.15652819,0.02031124,-0.12390600,-0.21075158,0.00240741
 ,-0.01764519,-0.02097515,-0.02278115,0.13814940,0.22599566,-0.16506110
 ,-0.13161010,0.01589580,0.00549812,0.00602787,0.00026156,0.00268418,0.
 00308239,-0.00127466,0.18076574,-0.13222094,-0.19553435,0.01796491,-0.
 01035702,-0.01242787,0.00046541,-0.01251952,-0.01478682,0.00283327,0.1
 4238315,0.20996019,0.01597920,0.01800546,-0.05153874,0.01976804,0.0210
 0085,-0.00182003,-0.01884653,-0.01994107,0.00326425,-0.01772196,-0.019
 65020,0.05035336,-0.17639168,0.03814255,0.00397375,-0.00716109,0.00309
 261,-0.00013719,-0.00298741,0.00181219,0.00088083,-0.02149187,0.011175
 33,0.00080118,0.46530690,0.03962081,-0.09943299,-0.00235154,0.01626169
 ,-0.00715964,-0.00167846,0.01982631,-0.00824701,0.00027388,-0.02479006
 ,0.01214032,0.00098715,-0.02166889,0.53746342,0.00417295,-0.00261556,-
 0.08184972,-0.02777286,0.01042075,0.00270355,0.02678652,-0.00977386,-0
 .00014298,0.00271189,-0.00141895,-0.00141060,0.00609112,0.01085886,0.5
 9720102,-0.00762581,0.01792251,-0.02784924,-0.00618808,0.00274320,0.00
 085199,0.00140858,-0.00033414,0.00052681,0.00119674,-0.00080215,-0.000
 18520,-0.05591858,0.02296971,-0.03614681,0.06467312,0.00291653,-0.0066
 0735,0.00967629,0.00226099,-0.00000081,-0.00028931,-0.00045921,-0.0000
 3645,0.00011426,-0.00006242,0.00065865,-0.00045697,0.02270497,-0.12046
 848,0.10674858,-0.02507670,0.13061159,0.00059091,-0.00151820,0.0019664
 0,0.00052833,-0.00050505,0.00160457,-0.00046684,0.00017859,0.00085052,
 -0.00063795,-0.00011757,0.00016094,-0.03737045,0.10695227,-0.22119678,
 0.04048957,-0.12077468,0.23757093,-0.00378699,0.02038477,0.02627787,0.
 00144991,-0.00041301,-0.00051337,-0.00615009,0.00260676,-0.00006239,0.
 00123012,-0.00078141,0.00007867,-0.05012518,0.01515872,0.01743178,0.00
 020312,-0.00415159,-0.00490792,0.05677271,0.00135767,-0.00706767,-0.00
 845262,-0.00040434,-0.00002923,0.00002545,0.00207995,0.00008239,0.0000
 9591,0.00009183,0.00062248,0.00035930,0.01346539,-0.14648330,-0.121938
 57,-0.00172593,0.01178809,0.01425534,-0.01501533,0.15977276,0.00015863
 ,0.00048956,0.00026412,0.00041397,0.00000601,0.00082926,-0.00008021,0.
 00049644,0.00161433,0.00046518,0.00011143,-0.00002434,0.01703558,-0.12
 314013,-0.21165264,0.00194178,-0.01656189,-0.02183569,-0.01979407,0.13
 548083,0.22571012,-0.02741820,-0.01705965,0.00254990,0.00116421,-0.000
 82184,0.00038185,0.00122808,-0.00099364,-0.00052412,-0.00250138,0.0016
 2880,-0.00004132,-0.11254298,-0.05922374,0.00496063,0.00231229,0.00537
 838,-0.00173625,0.00062713,0.00220980,0.00056644,0.45700701,0.00764971
 ,0.01451407,-0.00120490,0.00156300,0.00015236,0.00026784,0.00177589,0.
 00016877,-0.00062515,0.00624315,-0.00148863,-0.00034505,-0.04956960,-0
 .15316091,0.00653861,-0.01408088,-0.01626294,0.00174394,-0.01673932,-0
 .01916701,0.00186040,-0.02186087,0.54342689,0.00139197,-0.00000001,-0.
 00066175,-0.00177324,-0.00044143,-0.00004682,0.00156112,0.00048587,-0.
 00025837,-0.00018818,0.00000113,0.00000427,0.00165309,0.00793683,-0.08
 749654,0.02131142,0.02395050,-0.00289173,-0.01963498,-0.02239883,0.002
 11201,0.01807967,-0.02140729,0.62815424,0.00182464,-0.00016483,-0.0007
 4612,-0.00005945,-0.00001672,-0.00002927,-0.00033052,0.00038011,0.0004
 8610,0.00029782,0.00012150,0.00020384,0.00156817,-0.01485894,-0.018473
 80,0.00068798,0.00063934,0.00071524,-0.00339709,-0.00396419,0.00077257
 ,-0.04974999,0.00247906,-0.00039033,0.06382357,0.00098759,-0.00001631,
 -0.00023368,-0.00014345,0.00008647,0.00005136,-0.00081384,0.00065652,0
 .00045799,-0.00009674,0.00026582,0.00045562,-0.00190769,-0.01605649,-0
 .02205167,0.00121341,0.00100227,0.00024020,-0.00355313,-0.00320132,0.0
 0055752,0.00134428,-0.14280571,-0.11014417,-0.00894294,0.15580307,-0.0
 0012305,-0.00004828,0.00004457,0.00008634,-0.00004831,-0.00002300,-0.0
 0067693,0.00002398,0.00024891,-0.00029968,0.00021111,0.00019734,0.0011
 0099,0.00242715,0.00190345,-0.00045888,-0.00039322,0.00112159,0.000525
 04,0.00061027,0.00172496,0.00217562,-0.11156583,-0.20322851,-0.0097877
 0,0.12791442,0.21328827,0.00177678,-0.00022200,0.00056229,-0.00038772,
 0.00031830,-0.00049065,-0.00008837,-0.00000374,0.00002949,0.00023733,0
 .00011030,-0.00024756,0.00341336,-0.01229867,0.02002922,-0.00333818,-0
 .00394557,0.00026025,0.00072484,0.00083098,-0.00056050,-0.05139143,0.0
 1225671,-0.02100862,0.00222064,-0.00127577,-0.00026220,0.06991906,0.00
 108938,0.00037148,-0.00007862,-0.00072944,0.00055582,-0.00028458,-0.00
 014652,0.00006047,-0.00007860,0.00001536,0.00010130,-0.00040816,0.0014
 0693,-0.01349481,0.02230607,-0.00350916,-0.00305237,0.00045763,0.00101
 234,0.00085585,-0.00015056,0.01657892,-0.12161151,0.10874995,-0.003352
 59,0.01212083,-0.01736394,-0.02379379,0.13301520,-0.00018065,0.0000243
 2,0.00008042,0.00075594,-0.00007696,0.00021666,-0.00006073,0.00004915,
 -0.00004226,0.00025550,-0.00019930,0.00024213,-0.00043016,0.00068107,-
 0.00158660,0.00039898,0.00003019,0.00180311,0.00036596,0.00011819,0.00
 111429,-0.03023004,0.11380849,-0.24136238,-0.00267328,0.01291685,-0.02
 154749,0.03275732,-0.12488846,0.25267769,-0.00345361,-0.00931528,0.001
 16997,0.00019127,0.00009933,-0.00023568,0.00027247,0.00014717,0.000092
 67,-0.00311550,0.00134264,0.00010590,-0.04499807,0.01840775,0.00251103
 ,0.00330931,0.00108093,0.00130682,0.00253365,0.00120653,-0.00105977,-0
 .20399856,0.04451282,0.03762610,-0.01842756,0.01336543,0.00701323,-0.0
 1654784,0.00891402,-0.00239104,0.33537738,-0.00216905,-0.00237662,0.00
 034377,-0.00053603,0.00019049,-0.00028766,-0.00087035,0.00017566,0.000
 44041,-0.00112969,0.00046403,0.00002877,-0.01750200,0.01220994,0.00309
 062,0.00026518,0.00191014,-0.00159963,0.00165110,0.00297229,0.00117011
 ,0.06925095,-0.09260834,-0.00377470,0.02897825,-0.00783302,-0.00247268
 ,0.02428335,-0.00830413,-0.00089529,-0.14140716,0.22255890,0.00024409,
 0.00122357,0.00098908,0.00061446,-0.00026214,0.00026908,-0.00071137,0.
 00024834,0.00024094,0.00038053,-0.00015935,0.00056709,0.00533459,-0.00
 135728,0.00256657,-0.00014997,-0.00202102,0.00112281,0.00049831,0.0018
 3924,0.00049413,-0.00425134,0.01463155,-0.09483977,0.02886640,-0.00928
 521,0.00496118,-0.03076821,0.01200423,0.00583164,0.03549844,-0.2113408
 8,0.43584340,-0.00009385,0.00017734,0.00067832,0.00048055,-0.00029287,
 0.00017059,0.00003790,-0.00004853,-0.00009224,0.00025978,-0.00008068,0
 .00010575,0.00132844,0.00059530,-0.00230165,-0.00072049,-0.00128564,0.
 00122828,-0.00008213,-0.00013237,0.00014040,-0.01473619,0.02577033,-0.
 03862804,0.00154180,-0.00017714,0.00070724,-0.00653846,0.00251456,0.00
 143220,-0.05114294,0.03918546,-0.03555592,0.06966560,-0.00063073,-0.00
 047727,0.00024497,0.00003214,-0.00015796,0.00001636,0.00021954,-0.0001
 2911,-0.00011019,-0.00015474,0.00002488,-0.00003570,-0.00115178,0.0026
 8992,-0.00216486,0.00041495,0.00045767,0.00068716,-0.00015990,-0.00014
 533,-0.00031974,0.00356862,-0.01115704,0.01704213,-0.00129805,-0.00002
 211,0.00070532,0.00373990,-0.00061812,-0.00156825,0.06164582,-0.129359
 33,0.19447894,-0.06622576,0.13889379,0.00026124,0.00026372,0.00010341,
 0.00013644,0.00000043,-0.00003668,0.00007714,-0.00008940,-0.00004427,0
 .00015197,-0.00004187,0.00000432,0.00106667,-0.00158981,0.00096125,-0.
 00073043,-0.00002273,-0.00027667,-0.00026489,0.00000547,-0.00035055,0.
 00806896,-0.00370261,0.00051535,0.00105634,-0.00087924,0.00130874,-0.0
 0030083,-0.00026497,0.00257280,-0.08163767,0.21529715,-0.35804615,0.07
 211505,-0.20897614,0.35328845\\-0.00000224,-0.00000607,-0.00000261,0.0
 0000256,-0.00001174,0.00000092,-0.00000378,0.00000281,0.00000091,0.000
 00231,-0.00000448,0.00000978,-0.00000161,-0.00000188,0.00000682,0.0000
 0167,0.00000865,0.00000188,0.00000454,-0.00000682,0.00000174,0.0000060
 8,0.00000297,-0.00001720,-0.00000394,0.00000824,-0.00000358,-0.0000106
 4,-0.00000123,-0.00000270,-0.00000378,0.00000223,0.00000484,0.00000883
 ,0.00000731,-0.00000078\\\@


 THE WISE MAN HAS THE POWER TO REASON AWAY
 WHAT A FOOL BELIEVES.
                     - DOOBIE BROTHERS
 Job cpu time:  0 days  0 hours  3 minutes  1.8 seconds.
 File lengths (MBytes):  RWF=     13 Int=      0 D2E=      0 Chk=      2 Scr=      1
 Normal termination of Gaussian 09 at Sun Aug 23 11:16:44 2015.
