 Entering Gaussian System, Link 0=/share/apps/g09/g09
 Input=C4H9OOH_2_2_2_opt_631gd.gjf
 Output=C4H9OOH_2_2_2_opt_631gd.log
 Initial command:
 /share/apps/g09/l1.exe /state/partition1/Gau-26992.inp -scrdir=/state/partition1/
 Entering Link 1 = /share/apps/g09/l1.exe PID=     26993.
  
 Copyright (c) 1988,1990,1992,1993,1995,1998,2003,2009, Gaussian, Inc.
                  All Rights Reserved.
  
 This is part of the Gaussian(R) 09 program.  It is based on
 the Gaussian(R) 03 system (copyright 2003, Gaussian, Inc.),
 the Gaussian(R) 98 system (copyright 1998, Gaussian, Inc.),
 the Gaussian(R) 94 system (copyright 1995, Gaussian, Inc.),
 the Gaussian 92(TM) system (copyright 1992, Gaussian, Inc.),
 the Gaussian 90(TM) system (copyright 1990, Gaussian, Inc.),
 the Gaussian 88(TM) system (copyright 1988, Gaussian, Inc.),
 the Gaussian 86(TM) system (copyright 1986, Carnegie Mellon
 University), and the Gaussian 82(TM) system (copyright 1983,
 Carnegie Mellon University). Gaussian is a federally registered
 trademark of Gaussian, Inc.
  
 This software contains proprietary and confidential information,
 including trade secrets, belonging to Gaussian, Inc.
  
 This software is provided under written license and may be
 used, copied, transmitted, or stored only in accord with that
 written license.
  
 The following legend is applicable only to US Government
 contracts under FAR:
  
                    RESTRICTED RIGHTS LEGEND
  
 Use, reproduction and disclosure by the US Government is
 subject to restrictions as set forth in subparagraphs (a)
 and (c) of the Commercial Computer Software - Restricted
 Rights clause in FAR 52.227-19.
  
 Gaussian, Inc.
 340 Quinnipiac St., Bldg. 40, Wallingford CT 06492
  
  
 ---------------------------------------------------------------
 Warning -- This program may not be used in any manner that
 competes with the business of Gaussian, Inc. or will provide
 assistance to any competitor of Gaussian, Inc.  The licensee
 of this program is prohibited from giving any competitor of
 Gaussian, Inc. access to this program.  By using this program,
 the user acknowledges that Gaussian, Inc. is engaged in the
 business of creating and licensing software in the field of
 computational chemistry and represents and warrants to the
 licensee that it is not a competitor of Gaussian, Inc. and that
 it will not use this program in any manner prohibited above.
 ---------------------------------------------------------------
  

 Cite this work as:
 Gaussian 09, Revision A.01,
 M. J. Frisch, G. W. Trucks, H. B. Schlegel, G. E. Scuseria, 
 M. A. Robb, J. R. Cheeseman, G. Scalmani, V. Barone, B. Mennucci, 
 G. A. Petersson, H. Nakatsuji, M. Caricato, X. Li, H. P. Hratchian, 
 A. F. Izmaylov, J. Bloino, G. Zheng, J. L. Sonnenberg, M. Hada, 
 M. Ehara, K. Toyota, R. Fukuda, J. Hasegawa, M. Ishida, T. Nakajima, 
 Y. Honda, O. Kitao, H. Nakai, T. Vreven, J. A. Montgomery, Jr., 
 J. E. Peralta, F. Ogliaro, M. Bearpark, J. J. Heyd, E. Brothers, 
 K. N. Kudin, V. N. Staroverov, R. Kobayashi, J. Normand, 
 K. Raghavachari, A. Rendell, J. C. Burant, S. S. Iyengar, J. Tomasi, 
 M. Cossi, N. Rega, J. M. Millam, M. Klene, J. E. Knox, J. B. Cross, 
 V. Bakken, C. Adamo, J. Jaramillo, R. Gomperts, R. E. Stratmann, 
 O. Yazyev, A. J. Austin, R. Cammi, C. Pomelli, J. W. Ochterski, 
 R. L. Martin, K. Morokuma, V. G. Zakrzewski, G. A. Voth, 
 P. Salvador, J. J. Dannenberg, S. Dapprich, A. D. Daniels, 
 O. Farkas, J. B. Foresman, J. V. Ortiz, J. Cioslowski, 
 and D. J. Fox, Gaussian, Inc., Wallingford CT, 2009.
 
 ******************************************
 Gaussian 09:  EM64L-G09RevA.01  8-May-2009
                25-Aug-2015 
 ******************************************
 %mem=28GB
 %nprocshared=12
 Will use up to   12 processors via shared memory.
 %chk=C4H9OOH_2_2_2_opt_631gd.chk
 --------------------------
 #p b3lyp/6-31g(d) opt freq
 --------------------------
 1/14=-1,18=20,19=15,26=3,38=1/1,3;
 2/9=110,12=2,17=6,18=5,40=1/2;
 3/5=1,6=6,7=1,11=2,16=1,25=1,30=1,71=1,74=-5/1,2,3;
 4//1;
 5/5=2,38=5/2;
 6/7=2,8=2,9=2,10=2,28=1/1;
 7//1,2,3,16;
 1/14=-1,18=20,19=15/3(2);
 2/9=110/2;
 99//99;
 2/9=110/2;
 3/5=1,6=6,7=1,11=2,16=1,25=1,30=1,71=1,74=-5/1,2,3;
 4/5=5,16=3/1;
 5/5=2,38=5/2;
 7//1,2,3,16;
 1/14=-1,18=20,19=15/3(-5);
 2/9=110/2;
 6/7=2,8=2,9=2,10=2,19=2,28=1/1;
 99/9=1/99;
 Leave Link    1 at Tue Aug 25 00:35:31 2015, MaxMem= 3758096384 cpu:       0.3
 (Enter /share/apps/g09/l101.exe)
 -----------------------------
 using ub3lyp/6-31G(d) to scan
 -----------------------------
 Symbolic Z-matrix:
 Charge =  0 Multiplicity = 1
 C                    -0.38001  -0.05368   0.00566 
 O                     0.72409  -0.14606  -0.93021 
 O                     1.97678  -0.22157  -0.18928 
 H                     2.34787   0.65297  -0.40239 
 C                    -0.41408  -1.29638   0.90102 
 H                     0.49237  -1.3556    1.50919 
 H                    -1.2805   -1.26486   1.57146 
 H                    -0.47986  -2.20265   0.29014 
 C                    -0.27542   1.23692   0.8261 
 H                    -1.14659   1.35062   1.48054 
 H                     0.61986   1.22332   1.45463 
 H                    -0.22931   2.10995   0.16488 
 C                    -1.5848   -0.01483  -0.94193 
 H                    -1.61534  -0.9161   -1.56223 
 H                    -2.51281   0.04037  -0.36323 
 H                    -1.53467   0.85805  -1.60112 
 
 NAtoms=     16 NQM=     16 NQMF=      0 NMic=      0 NMicF=      0 NTot=     16.
                    Isotopes and Nuclear Properties:
 (Nuclear quadrupole moments (NQMom) in fm**2, nuclear magnetic moments (NMagM)
  in nuclear magnetons)

  Atom         1           2           3           4           5           6           7           8           9          10
 IAtWgt=          12          16          16           1          12           1           1           1          12           1
 AtmWgt=  12.0000000  15.9949146  15.9949146   1.0078250  12.0000000   1.0078250   1.0078250   1.0078250  12.0000000   1.0078250
 NucSpn=           0           0           0           1           0           1           1           1           0           1
 AtZEff=   0.0000000   0.0000000   0.0000000   0.0000000   0.0000000   0.0000000   0.0000000   0.0000000   0.0000000   0.0000000
 NQMom=    0.0000000   0.0000000   0.0000000   0.0000000   0.0000000   0.0000000   0.0000000   0.0000000   0.0000000   0.0000000
 NMagM=    0.0000000   0.0000000   0.0000000   2.7928460   0.0000000   2.7928460   2.7928460   2.7928460   0.0000000   2.7928460

  Atom        11          12          13          14          15          16
 IAtWgt=           1           1          12           1           1           1
 AtmWgt=   1.0078250   1.0078250  12.0000000   1.0078250   1.0078250   1.0078250
 NucSpn=           1           1           0           1           1           1
 AtZEff=   0.0000000   0.0000000   0.0000000   0.0000000   0.0000000   0.0000000
 NQMom=    0.0000000   0.0000000   0.0000000   0.0000000   0.0000000   0.0000000
 NMagM=    2.7928460   2.7928460   0.0000000   2.7928460   2.7928460   2.7928460
 Leave Link  101 at Tue Aug 25 00:35:31 2015, MaxMem= 3758096384 cpu:       0.7
 (Enter /share/apps/g09/l103.exe)

 GradGradGradGradGradGradGradGradGradGradGradGradGradGradGradGradGradGrad
 Berny optimization.
 Initialization pass.
                           ----------------------------
                           !    Initial Parameters    !
                           ! (Angstroms and Degrees)  !
 --------------------------                            --------------------------
 ! Name  Definition              Value          Derivative Info.                !
 --------------------------------------------------------------------------------
 ! R1    R(1,2)                  1.4503         estimate D2E/DX2                !
 ! R2    R(1,5)                  1.532          estimate D2E/DX2                !
 ! R3    R(1,9)                  1.5329         estimate D2E/DX2                !
 ! R4    R(1,13)                 1.5333         estimate D2E/DX2                !
 ! R5    R(2,3)                  1.4574         estimate D2E/DX2                !
 ! R6    R(3,4)                  0.9736         estimate D2E/DX2                !
 ! R7    R(5,6)                  1.0932         estimate D2E/DX2                !
 ! R8    R(5,7)                  1.096          estimate D2E/DX2                !
 ! R9    R(5,8)                  1.0949         estimate D2E/DX2                !
 ! R10   R(9,10)                 1.0955         estimate D2E/DX2                !
 ! R11   R(9,11)                 1.094          estimate D2E/DX2                !
 ! R12   R(9,12)                 1.0961         estimate D2E/DX2                !
 ! R13   R(13,14)                1.0945         estimate D2E/DX2                !
 ! R14   R(13,15)                1.0951         estimate D2E/DX2                !
 ! R15   R(13,16)                1.095          estimate D2E/DX2                !
 ! A1    A(2,1,5)              110.0222         estimate D2E/DX2                !
 ! A2    A(2,1,9)              110.308          estimate D2E/DX2                !
 ! A3    A(2,1,13)             101.5953         estimate D2E/DX2                !
 ! A4    A(5,1,9)              111.8176         estimate D2E/DX2                !
 ! A5    A(5,1,13)             111.3622         estimate D2E/DX2                !
 ! A6    A(9,1,13)             111.2883         estimate D2E/DX2                !
 ! A7    A(1,2,3)              109.2443         estimate D2E/DX2                !
 ! A8    A(2,3,4)               99.7753         estimate D2E/DX2                !
 ! A9    A(1,5,6)              110.5263         estimate D2E/DX2                !
 ! A10   A(1,5,7)              110.595          estimate D2E/DX2                !
 ! A11   A(1,5,8)              110.2832         estimate D2E/DX2                !
 ! A12   A(6,5,7)              108.4662         estimate D2E/DX2                !
 ! A13   A(6,5,8)              108.3831         estimate D2E/DX2                !
 ! A14   A(7,5,8)              108.5187         estimate D2E/DX2                !
 ! A15   A(1,9,10)             110.663          estimate D2E/DX2                !
 ! A16   A(1,9,11)             110.6638         estimate D2E/DX2                !
 ! A17   A(1,9,12)             110.523          estimate D2E/DX2                !
 ! A18   A(10,9,11)            107.9901         estimate D2E/DX2                !
 ! A19   A(10,9,12)            108.1283         estimate D2E/DX2                !
 ! A20   A(11,9,12)            108.7867         estimate D2E/DX2                !
 ! A21   A(1,13,14)            110.5673         estimate D2E/DX2                !
 ! A22   A(1,13,15)            109.9116         estimate D2E/DX2                !
 ! A23   A(1,13,16)            110.8722         estimate D2E/DX2                !
 ! A24   A(14,13,15)           108.5026         estimate D2E/DX2                !
 ! A25   A(14,13,16)           108.4526         estimate D2E/DX2                !
 ! A26   A(15,13,16)           108.4673         estimate D2E/DX2                !
 ! D1    D(5,1,2,3)            -60.7905         estimate D2E/DX2                !
 ! D2    D(9,1,2,3)             63.0329         estimate D2E/DX2                !
 ! D3    D(13,1,2,3)          -178.86           estimate D2E/DX2                !
 ! D4    D(2,1,5,6)             63.2711         estimate D2E/DX2                !
 ! D5    D(2,1,5,7)           -176.5963         estimate D2E/DX2                !
 ! D6    D(2,1,5,8)            -56.5561         estimate D2E/DX2                !
 ! D7    D(9,1,5,6)            -59.6699         estimate D2E/DX2                !
 ! D8    D(9,1,5,7)             60.4627         estimate D2E/DX2                !
 ! D9    D(9,1,5,8)           -179.4971         estimate D2E/DX2                !
 ! D10   D(13,1,5,6)           175.125          estimate D2E/DX2                !
 ! D11   D(13,1,5,7)           -64.7423         estimate D2E/DX2                !
 ! D12   D(13,1,5,8)            55.2979         estimate D2E/DX2                !
 ! D13   D(2,1,9,10)           175.6674         estimate D2E/DX2                !
 ! D14   D(2,1,9,11)           -64.6618         estimate D2E/DX2                !
 ! D15   D(2,1,9,12)            55.9152         estimate D2E/DX2                !
 ! D16   D(5,1,9,10)           -61.5541         estimate D2E/DX2                !
 ! D17   D(5,1,9,11)            58.1167         estimate D2E/DX2                !
 ! D18   D(5,1,9,12)           178.6937         estimate D2E/DX2                !
 ! D19   D(13,1,9,10)           63.6918         estimate D2E/DX2                !
 ! D20   D(13,1,9,11)         -176.6374         estimate D2E/DX2                !
 ! D21   D(13,1,9,12)          -56.0604         estimate D2E/DX2                !
 ! D22   D(2,1,13,14)           59.3531         estimate D2E/DX2                !
 ! D23   D(2,1,13,15)          179.1164         estimate D2E/DX2                !
 ! D24   D(2,1,13,16)          -60.9707         estimate D2E/DX2                !
 ! D25   D(5,1,13,14)          -57.7476         estimate D2E/DX2                !
 ! D26   D(5,1,13,15)           62.0157         estimate D2E/DX2                !
 ! D27   D(5,1,13,16)         -178.0714         estimate D2E/DX2                !
 ! D28   D(9,1,13,14)          176.7527         estimate D2E/DX2                !
 ! D29   D(9,1,13,15)          -63.484          estimate D2E/DX2                !
 ! D30   D(9,1,13,16)           56.4289         estimate D2E/DX2                !
 ! D31   D(1,2,3,4)           -110.0            estimate D2E/DX2                !
 --------------------------------------------------------------------------------
 Trust Radius=3.00D-01 FncErr=1.00D-07 GrdErr=1.00D-06
 Number of steps in this run=  82 maximum allowed number of steps= 100.
 GradGradGradGradGradGradGradGradGradGradGradGradGradGradGradGradGradGrad

 Leave Link  103 at Tue Aug 25 00:35:31 2015, MaxMem= 3758096384 cpu:       0.1
 (Enter /share/apps/g09/l202.exe)
                          Input orientation:                          
 ---------------------------------------------------------------------
 Center     Atomic      Atomic             Coordinates (Angstroms)
 Number     Number       Type             X           Y           Z
 ---------------------------------------------------------------------
      1          6           0       -0.380010   -0.053675    0.005658
      2          8           0        0.724089   -0.146056   -0.930214
      3          8           0        1.976779   -0.221573   -0.189280
      4          1           0        2.347866    0.652971   -0.402390
      5          6           0       -0.414080   -1.296380    0.901020
      6          1           0        0.492374   -1.355602    1.509190
      7          1           0       -1.280496   -1.264857    1.571460
      8          1           0       -0.479860   -2.202649    0.290138
      9          6           0       -0.275424    1.236916    0.826099
     10          1           0       -1.146593    1.350623    1.480544
     11          1           0        0.619855    1.223316    1.454628
     12          1           0       -0.229305    2.109948    0.164883
     13          6           0       -1.584796   -0.014825   -0.941933
     14          1           0       -1.615342   -0.916101   -1.562226
     15          1           0       -2.512806    0.040369   -0.363231
     16          1           0       -1.534670    0.858046   -1.601121
 ---------------------------------------------------------------------
                    Distance matrix (angstroms):
                    1          2          3          4          5
     1  C    0.000000
     2  O    1.450319   0.000000
     3  O    2.370790   1.457367   0.000000
     4  H    2.847307   1.885124   0.973627   0.000000
     5  C    1.532041   2.443786   2.839044   3.623147   0.000000
     6  H    2.171791   2.732652   2.524734   3.336368   1.093177
     7  H    2.174758   3.395357   3.846880   4.554027   1.095975
     8  H    2.170020   2.677373   3.192112   4.078014   1.094910
     9  C    1.532869   2.448729   2.868903   2.954967   2.538194
    10  H    2.176003   3.398713   3.874992   4.030310   2.806964
    11  H    2.174845   2.752002   2.575147   2.599968   2.779275
    12  H    2.174702   2.682863   3.229277   3.014364   3.489858
    13  C    1.533280   2.312641   3.646100   4.025281   2.531686
    14  H    2.174416   2.542704   3.907772   4.417491   2.766807
    15  H    2.166505   3.291461   4.500583   4.899280   2.791036
    16  H    2.178581   2.561314   3.935625   4.068550   3.486830
                    6          7          8          9         10
     6  H    0.000000
     7  H    1.776283   0.000000
     8  H    1.774490   1.778274   0.000000
     9  C    2.788777   2.797249   3.487070   0.000000
    10  H    3.163967   2.620483   3.806224   1.095519   0.000000
    11  H    2.582643   3.133048   3.781884   1.093964   1.771219
    12  H    3.786558   3.804309   4.321685   1.096138   1.774530
    13  C    3.481425   2.823530   2.743257   2.531254   2.815114
    14  H    3.750896   3.170763   2.525030   3.483527   3.823116
    15  H    3.806022   2.639173   3.096916   2.802161   2.642501
    16  H    4.322404   3.825780   3.749312   2.760551   3.144820
                   11         12         13         14         15
    11  H    0.000000
    12  H    1.780627   0.000000
    13  C    3.483817   2.752646   0.000000
    14  H    4.321414   3.749797   1.094530   0.000000
    15  H    3.810189   3.126730   1.095055   1.777038   0.000000
    16  H    3.756728   2.527846   1.094964   1.776406   1.776997
                   16
    16  H    0.000000
 Stoichiometry    C4H10O2
 Framework group  C1[X(C4H10O2)]
 Deg. of freedom    42
 Full point group                 C1      NOp   1
 Largest Abelian subgroup         C1      NOp   1
 Largest concise Abelian subgroup C1      NOp   1
                         Standard orientation:                         
 ---------------------------------------------------------------------
 Center     Atomic      Atomic             Coordinates (Angstroms)
 Number     Number       Type             X           Y           Z
 ---------------------------------------------------------------------
      1          6           0        0.387288    0.000337    0.036037
      2          8           0       -0.726028   -0.051328   -0.892017
      3          8           0       -1.973395    0.106592   -0.155094
      4          1           0       -2.332663   -0.794016   -0.243301
      5          6           0        0.409678    1.353777    0.753567
      6          1           0       -0.492383    1.482394    1.357537
      7          1           0        1.282147    1.426192    1.412895
      8          1           0        0.456189    2.169232    0.024391
      9          6           0        0.309722   -1.167826    1.025515
     10          1           0        1.188083   -1.178932    1.680131
     11          1           0       -0.580285   -1.081469    1.655744
     12          1           0        0.271538   -2.123353    0.489765
     13          6           0        1.584432   -0.150092   -0.910093
     14          1           0        1.595713    0.658635   -1.647541
     15          1           0        2.518073   -0.112745   -0.339073
     16          1           0        1.542257   -1.105240   -1.443813
 ---------------------------------------------------------------------
 Rotational constants (GHZ):      4.4216354      2.7552146      2.7513125
 Leave Link  202 at Tue Aug 25 00:35:31 2015, MaxMem= 3758096384 cpu:       0.1
 (Enter /share/apps/g09/l301.exe)
 Standard basis: 6-31G(d) (6D, 7F)
 Ernie: Thresh=  0.10000D-02 Tol=  0.10000D-05 Strict=F.
 There are   110 symmetry adapted basis functions of A   symmetry.
 Integral buffers will be    131072 words long.
 Raffenetti 2 integral format.
 Two-electron integral symmetry is turned on.
   110 basis functions,   208 primitive gaussians,   110 cartesian basis functions
    25 alpha electrons       25 beta electrons
       nuclear repulsion energy       269.4953693922 Hartrees.
 IExCor=  402 DFT=T Ex+Corr=B3LYP ExCW=0 ScaHFX=  0.200000
 ScaDFX=  0.800000  0.720000  1.000000  0.810000 ScalE2=  1.000000  1.000000
 IRadAn=      0 IRanWt=     -1 IRanGd=            0 ICorTp=0
 NAtoms=   16 NActive=   16 NUniq=   16 SFac= 7.50D-01 NAtFMM=   80 NAOKFM=F Big=F
 Leave Link  301 at Tue Aug 25 00:35:32 2015, MaxMem= 3758096384 cpu:       0.6
 (Enter /share/apps/g09/l302.exe)
 NPDir=0 NMtPBC=     1 NCelOv=     1 NCel=       1 NClECP=     1 NCelD=      1
         NCelK=      1 NCelE2=     1 NClLst=     1 CellRange=     0.0.
 One-electron integrals computed using PRISM.
 NBasis=   110 RedAO= T  NBF=   110
 NBsUse=   110 1.00D-06 NBFU=   110
 Precomputing XC quadrature grid using
 IXCGrd= 2 IRadAn=           0 IRanWt=          -1 IRanGd=           0 AccXCQ= 1.00D-10.
 NRdTot=     993 NPtTot=      125576 NUsed=      132748 NTot=      132780
 NSgBfM=   110   110   110   110   110 NAtAll=    16    16.
 Leave Link  302 at Tue Aug 25 00:35:32 2015, MaxMem= 3758096384 cpu:       2.0
 (Enter /share/apps/g09/l303.exe)
 DipDrv:  MaxL=1.
 Leave Link  303 at Tue Aug 25 00:35:32 2015, MaxMem= 3758096384 cpu:       0.4
 (Enter /share/apps/g09/l401.exe)
 Harris functional with IExCor=  402 diagonalized for initial guess.
 ExpMin= 1.61D-01 ExpMax= 5.48D+03 ExpMxC= 8.25D+02 IAcc=1 IRadAn=         1 AccDes= 0.00D+00
 HarFok:  IExCor=  402 AccDes= 0.00D+00 IRadAn=         1 IDoV= 1
 ScaDFX=  1.000000  1.000000  1.000000  1.000000
 FoFCou: FMM=F IPFlag=           0 FMFlag=      100000 FMFlg1=           0
         NFxFlg=           0 DoJE=T BraDBF=F KetDBF=T FulRan=T
         Omega=  0.000000  0.000000  1.000000  0.000000  0.000000 ICntrl=     500 IOpCl=  0
         NMat0=    1 NMatS0=    1 NMatT0=    0 NMatD0=    1 NMtDS0=    0 NMtDT0=    0
         I1Cent=           4 NGrid=           0.
 Petite list used in FoFCou.
 Harris En= -308.878983169069    
 Initial guess orbital symmetries:
       Occupied  (A) (A) (A) (A) (A) (A) (A) (A) (A) (A) (A) (A)
                 (A) (A) (A) (A) (A) (A) (A) (A) (A) (A) (A) (A)
                 (A)
       Virtual   (A) (A) (A) (A) (A) (A) (A) (A) (A) (A) (A) (A)
                 (A) (A) (A) (A) (A) (A) (A) (A) (A) (A) (A) (A)
                 (A) (A) (A) (A) (A) (A) (A) (A) (A) (A) (A) (A)
                 (A) (A) (A) (A) (A) (A) (A) (A) (A) (A) (A) (A)
                 (A) (A) (A) (A) (A) (A) (A) (A) (A) (A) (A) (A)
                 (A) (A) (A) (A) (A) (A) (A) (A) (A) (A) (A) (A)
                 (A) (A) (A) (A) (A) (A) (A) (A) (A) (A) (A) (A)
                 (A)
 The electronic state of the initial guess is 1-A.
 Leave Link  401 at Tue Aug 25 00:35:32 2015, MaxMem= 3758096384 cpu:       2.8
 (Enter /share/apps/g09/l502.exe)
 Closed shell SCF:
 Requested convergence on RMS density matrix=1.00D-08 within 128 cycles.
 Requested convergence on MAX density matrix=1.00D-06.
 Requested convergence on             energy=1.00D-06.
 No special actions if energy rises.
 Using DIIS extrapolation, IDIIS=  1040.
 Integral symmetry usage will be decided dynamically.
       132591 words used for storage of precomputed grid.
 Keep R1 ints in memory in canonical form, NReq=19758380.
 IEnd=      189203 IEndB=      189203 NGot=  3758096384 MDV=  3739297439
 LenX=  3739297439 LenY=  3739284898
 Symmetry not used in FoFDir.
 MinBra= 0 MaxBra= 2 Meth= 1.
 IRaf=       0 NMat=   1 IRICut=       1 DoRegI=T DoRafI=F ISym2E= 0 JSym2E=0.
 Integral accuracy reduced to 1.0D-05 until final iterations.

 Cycle   1  Pass 0  IDiag  1:
 E= -308.590916587479    
 DIIS: error= 5.02D-02 at cycle   1 NSaved=   1.
 NSaved= 1 IEnMin= 1 EnMin= -308.590916587479     IErMin= 1 ErrMin= 5.02D-02
 ErrMax= 5.02D-02 EMaxC= 1.00D-01 BMatC= 2.05D-01 BMatP= 2.05D-01
 IDIUse=3 WtCom= 4.98D-01 WtEn= 5.02D-01
 Coeff-Com:  0.100D+01
 Coeff-En:   0.100D+01
 Coeff:      0.100D+01
 Gap=     0.296 Goal=   None    Shift=    0.000
 GapD=    0.296 DampG=1.000 DampE=0.500 DampFc=0.5000 IDamp=-1.
 Damping current iteration by 5.00D-01
 RMSDP=8.16D-03 MaxDP=1.37D-01              OVMax= 1.69D-01

 Cycle   2  Pass 0  IDiag  1:
 E= -308.687784155427     Delta-E=       -0.096867567948 Rises=F Damp=T
 DIIS: error= 8.85D-03 at cycle   2 NSaved=   2.
 NSaved= 2 IEnMin= 2 EnMin= -308.687784155427     IErMin= 2 ErrMin= 8.85D-03
 ErrMax= 8.85D-03 EMaxC= 1.00D-01 BMatC= 8.37D-03 BMatP= 2.05D-01
 IDIUse=3 WtCom= 9.11D-01 WtEn= 8.85D-02
 Coeff-Com:  0.628D-01 0.937D+00
 Coeff-En:   0.100D+00 0.900D+00
 Coeff:      0.662D-01 0.934D+00
 Gap=     0.308 Goal=   None    Shift=    0.000
 RMSDP=1.22D-03 MaxDP=2.19D-02 DE=-9.69D-02 OVMax= 9.60D-02

 Cycle   3  Pass 0  IDiag  1:
 E= -308.799140127229     Delta-E=       -0.111355971802 Rises=F Damp=F
 DIIS: error= 6.34D-03 at cycle   3 NSaved=   3.
 NSaved= 3 IEnMin= 3 EnMin= -308.799140127229     IErMin= 3 ErrMin= 6.34D-03
 ErrMax= 6.34D-03 EMaxC= 1.00D-01 BMatC= 4.14D-03 BMatP= 8.37D-03
 IDIUse=3 WtCom= 9.37D-01 WtEn= 6.34D-02
 Coeff-Com:  0.112D-01 0.387D+00 0.602D+00
 Coeff-En:   0.000D+00 0.000D+00 0.100D+01
 Coeff:      0.105D-01 0.362D+00 0.627D+00
 Gap=     0.291 Goal=   None    Shift=    0.000
 RMSDP=7.29D-04 MaxDP=2.21D-02 DE=-1.11D-01 OVMax= 1.71D-02

 Cycle   4  Pass 0  IDiag  1:
 E= -308.800077765464     Delta-E=       -0.000937638235 Rises=F Damp=F
 DIIS: error= 5.08D-03 at cycle   4 NSaved=   4.
 NSaved= 4 IEnMin= 4 EnMin= -308.800077765464     IErMin= 4 ErrMin= 5.08D-03
 ErrMax= 5.08D-03 EMaxC= 1.00D-01 BMatC= 2.90D-03 BMatP= 4.14D-03
 IDIUse=3 WtCom= 9.49D-01 WtEn= 5.08D-02
 Coeff-Com: -0.237D-03 0.715D-01 0.447D+00 0.482D+00
 Coeff-En:   0.000D+00 0.000D+00 0.427D+00 0.573D+00
 Coeff:     -0.225D-03 0.679D-01 0.446D+00 0.486D+00
 Gap=     0.287 Goal=   None    Shift=    0.000
 RMSDP=3.57D-04 MaxDP=9.84D-03 DE=-9.38D-04 OVMax= 8.77D-03

 Cycle   5  Pass 0  IDiag  1:
 E= -308.802106670978     Delta-E=       -0.002028905514 Rises=F Damp=F
 DIIS: error= 5.19D-04 at cycle   5 NSaved=   5.
 NSaved= 5 IEnMin= 5 EnMin= -308.802106670978     IErMin= 5 ErrMin= 5.19D-04
 ErrMax= 5.19D-04 EMaxC= 1.00D-01 BMatC= 7.52D-05 BMatP= 2.90D-03
 IDIUse=3 WtCom= 9.95D-01 WtEn= 5.19D-03
 Coeff-Com: -0.156D-03 0.124D-01 0.188D+00 0.246D+00 0.554D+00
 Coeff-En:   0.000D+00 0.000D+00 0.000D+00 0.000D+00 0.100D+01
 Coeff:     -0.155D-03 0.123D-01 0.187D+00 0.244D+00 0.556D+00
 Gap=     0.286 Goal=   None    Shift=    0.000
 RMSDP=8.85D-05 MaxDP=1.84D-03 DE=-2.03D-03 OVMax= 2.04D-03

 Cycle   6  Pass 0  IDiag  1:
 E= -308.802162584561     Delta-E=       -0.000055913583 Rises=F Damp=F
 DIIS: error= 1.63D-04 at cycle   6 NSaved=   6.
 NSaved= 6 IEnMin= 6 EnMin= -308.802162584561     IErMin= 6 ErrMin= 1.63D-04
 ErrMax= 1.63D-04 EMaxC= 1.00D-01 BMatC= 8.94D-06 BMatP= 7.52D-05
 IDIUse=3 WtCom= 9.98D-01 WtEn= 1.63D-03
 Coeff-Com:  0.210D-03-0.155D-02 0.569D-01 0.850D-01 0.311D+00 0.549D+00
 Coeff-En:   0.000D+00 0.000D+00 0.000D+00 0.000D+00 0.544D-01 0.946D+00
 Coeff:      0.210D-03-0.155D-02 0.568D-01 0.849D-01 0.310D+00 0.550D+00
 Gap=     0.286 Goal=   None    Shift=    0.000
 RMSDP=2.34D-05 MaxDP=4.39D-04 DE=-5.59D-05 OVMax= 5.63D-04

 Cycle   7  Pass 0  IDiag  1:
 E= -308.802169830624     Delta-E=       -0.000007246064 Rises=F Damp=F
 DIIS: error= 1.42D-05 at cycle   7 NSaved=   7.
 NSaved= 7 IEnMin= 7 EnMin= -308.802169830624     IErMin= 7 ErrMin= 1.42D-05
 ErrMax= 1.42D-05 EMaxC= 1.00D-01 BMatC= 4.52D-08 BMatP= 8.94D-06
 IDIUse=1 WtCom= 1.00D+00 WtEn= 0.00D+00
 Coeff-Com:  0.910D-04-0.690D-03 0.114D-01 0.176D-01 0.699D-01 0.152D+00
 Coeff-Com:  0.750D+00
 Coeff:      0.910D-04-0.690D-03 0.114D-01 0.176D-01 0.699D-01 0.152D+00
 Coeff:      0.750D+00
 Gap=     0.286 Goal=   None    Shift=    0.000
 RMSDP=2.29D-06 MaxDP=3.28D-05 DE=-7.25D-06 OVMax= 4.19D-05

 Initial convergence to 1.0D-05 achieved.  Increase integral accuracy.
 Cycle   8  Pass 1  IDiag  1:
 E= -308.802152396946     Delta-E=        0.000017433679 Rises=F Damp=F
 DIIS: error= 1.72D-05 at cycle   1 NSaved=   1.
 NSaved= 1 IEnMin= 1 EnMin= -308.802152396946     IErMin= 1 ErrMin= 1.72D-05
 ErrMax= 1.72D-05 EMaxC= 1.00D-01 BMatC= 8.87D-08 BMatP= 8.87D-08
 IDIUse=1 WtCom= 1.00D+00 WtEn= 0.00D+00
 Coeff-Com:  0.100D+01
 Coeff:      0.100D+01
 Gap=     0.286 Goal=   None    Shift=    0.000
 RMSDP=2.29D-06 MaxDP=3.28D-05 DE= 1.74D-05 OVMax= 9.95D-05

 Cycle   9  Pass 1  IDiag  1:
 E= -308.802152508177     Delta-E=       -0.000000111231 Rises=F Damp=F
 DIIS: error= 4.35D-06 at cycle   2 NSaved=   2.
 NSaved= 2 IEnMin= 2 EnMin= -308.802152508177     IErMin= 2 ErrMin= 4.35D-06
 ErrMax= 4.35D-06 EMaxC= 1.00D-01 BMatC= 7.45D-09 BMatP= 8.87D-08
 IDIUse=1 WtCom= 1.00D+00 WtEn= 0.00D+00
 Coeff-Com:  0.997D-01 0.900D+00
 Coeff:      0.997D-01 0.900D+00
 Gap=     0.286 Goal=   None    Shift=    0.000
 RMSDP=1.54D-06 MaxDP=2.55D-05 DE=-1.11D-07 OVMax= 2.73D-05

 Cycle  10  Pass 1  IDiag  1:
 E= -308.802152508432     Delta-E=       -0.000000000254 Rises=F Damp=F
 DIIS: error= 5.53D-06 at cycle   3 NSaved=   3.
 NSaved= 3 IEnMin= 3 EnMin= -308.802152508432     IErMin= 2 ErrMin= 4.35D-06
 ErrMax= 5.53D-06 EMaxC= 1.00D-01 BMatC= 8.19D-09 BMatP= 7.45D-09
 IDIUse=1 WtCom= 1.00D+00 WtEn= 0.00D+00
 Coeff-Com: -0.174D-01 0.516D+00 0.501D+00
 Coeff:     -0.174D-01 0.516D+00 0.501D+00
 Gap=     0.286 Goal=   None    Shift=    0.000
 RMSDP=7.38D-07 MaxDP=1.57D-05 DE=-2.54D-10 OVMax= 1.62D-05

 Cycle  11  Pass 1  IDiag  1:
 E= -308.802152514650     Delta-E=       -0.000000006218 Rises=F Damp=F
 DIIS: error= 2.79D-06 at cycle   4 NSaved=   4.
 NSaved= 4 IEnMin= 4 EnMin= -308.802152514650     IErMin= 4 ErrMin= 2.79D-06
 ErrMax= 2.79D-06 EMaxC= 1.00D-01 BMatC= 7.06D-10 BMatP= 7.45D-09
 IDIUse=1 WtCom= 1.00D+00 WtEn= 0.00D+00
 Coeff-Com: -0.151D-01 0.268D+00 0.310D+00 0.438D+00
 Coeff:     -0.151D-01 0.268D+00 0.310D+00 0.438D+00
 Gap=     0.286 Goal=   None    Shift=    0.000
 RMSDP=2.08D-07 MaxDP=5.44D-06 DE=-6.22D-09 OVMax= 4.74D-06

 Cycle  12  Pass 1  IDiag  1:
 E= -308.802152515140     Delta-E=       -0.000000000491 Rises=F Damp=F
 DIIS: error= 4.97D-07 at cycle   5 NSaved=   5.
 NSaved= 5 IEnMin= 5 EnMin= -308.802152515140     IErMin= 5 ErrMin= 4.97D-07
 ErrMax= 4.97D-07 EMaxC= 1.00D-01 BMatC= 4.34D-11 BMatP= 7.06D-10
 IDIUse=1 WtCom= 1.00D+00 WtEn= 0.00D+00
 Coeff-Com: -0.571D-02 0.868D-01 0.110D+00 0.243D+00 0.566D+00
 Coeff:     -0.571D-02 0.868D-01 0.110D+00 0.243D+00 0.566D+00
 Gap=     0.286 Goal=   None    Shift=    0.000
 RMSDP=6.36D-08 MaxDP=8.73D-07 DE=-4.91D-10 OVMax= 1.14D-06

 Cycle  13  Pass 1  IDiag  1:
 E= -308.802152515176     Delta-E=       -0.000000000035 Rises=F Damp=F
 DIIS: error= 5.25D-08 at cycle   6 NSaved=   6.
 NSaved= 6 IEnMin= 6 EnMin= -308.802152515176     IErMin= 6 ErrMin= 5.25D-08
 ErrMax= 5.25D-08 EMaxC= 1.00D-01 BMatC= 8.53D-13 BMatP= 4.34D-11
 IDIUse=1 WtCom= 1.00D+00 WtEn= 0.00D+00
 Coeff-Com: -0.779D-03 0.615D-02 0.969D-02 0.394D-01 0.167D+00 0.778D+00
 Coeff:     -0.779D-03 0.615D-02 0.969D-02 0.394D-01 0.167D+00 0.778D+00
 Gap=     0.286 Goal=   None    Shift=    0.000
 RMSDP=1.10D-08 MaxDP=1.86D-07 DE=-3.55D-11 OVMax= 2.46D-07

 Cycle  14  Pass 1  IDiag  1:
 E= -308.802152515177     Delta-E=       -0.000000000001 Rises=F Damp=F
 DIIS: error= 2.92D-08 at cycle   7 NSaved=   7.
 NSaved= 7 IEnMin= 7 EnMin= -308.802152515177     IErMin= 7 ErrMin= 2.92D-08
 ErrMax= 2.92D-08 EMaxC= 1.00D-01 BMatC= 1.51D-13 BMatP= 8.53D-13
 IDIUse=1 WtCom= 1.00D+00 WtEn= 0.00D+00
 Coeff-Com: -0.990D-04-0.109D-02-0.769D-03 0.661D-02 0.505D-01 0.377D+00
 Coeff-Com:  0.568D+00
 Coeff:     -0.990D-04-0.109D-02-0.769D-03 0.661D-02 0.505D-01 0.377D+00
 Coeff:      0.568D+00
 Gap=     0.286 Goal=   None    Shift=    0.000
 RMSDP=3.93D-09 MaxDP=7.36D-08 DE=-1.02D-12 OVMax= 9.53D-08

 SCF Done:  E(RB3LYP) =  -308.802152515     A.U. after   14 cycles
             Convg  =    0.3926D-08             -V/T =  2.0092
 KE= 3.059900783298D+02 PE=-1.260079237280D+03 EE= 3.757916370431D+02
 Leave Link  502 at Tue Aug 25 00:35:36 2015, MaxMem= 3758096384 cpu:      37.9
 (Enter /share/apps/g09/l601.exe)
 Copying SCF densities to generalized density rwf, IOpCl= 0 IROHF=0.

 **********************************************************************

            Population analysis using the SCF density.

 **********************************************************************

 Orbital symmetries:
       Occupied  (A) (A) (A) (A) (A) (A) (A) (A) (A) (A) (A) (A)
                 (A) (A) (A) (A) (A) (A) (A) (A) (A) (A) (A) (A)
                 (A)
       Virtual   (A) (A) (A) (A) (A) (A) (A) (A) (A) (A) (A) (A)
                 (A) (A) (A) (A) (A) (A) (A) (A) (A) (A) (A) (A)
                 (A) (A) (A) (A) (A) (A) (A) (A) (A) (A) (A) (A)
                 (A) (A) (A) (A) (A) (A) (A) (A) (A) (A) (A) (A)
                 (A) (A) (A) (A) (A) (A) (A) (A) (A) (A) (A) (A)
                 (A) (A) (A) (A) (A) (A) (A) (A) (A) (A) (A) (A)
                 (A) (A) (A) (A) (A) (A) (A) (A) (A) (A) (A) (A)
                 (A)
 The electronic state is 1-A.
 Alpha  occ. eigenvalues --  -19.19347 -19.19137 -10.24341 -10.17860 -10.17626
 Alpha  occ. eigenvalues --  -10.16944  -1.10146  -0.90787  -0.77436  -0.69205
 Alpha  occ. eigenvalues --   -0.68834  -0.55893  -0.50448  -0.47209  -0.45427
 Alpha  occ. eigenvalues --   -0.43655  -0.41116  -0.38810  -0.38444  -0.37114
 Alpha  occ. eigenvalues --   -0.36698  -0.34639  -0.32990  -0.28723  -0.25507
 Alpha virt. eigenvalues --    0.03111   0.07501   0.10944   0.12480   0.14865
 Alpha virt. eigenvalues --    0.15451   0.16466   0.16965   0.19420   0.19758
 Alpha virt. eigenvalues --    0.21153   0.22369   0.22667   0.25853   0.26084
 Alpha virt. eigenvalues --    0.50073   0.50188   0.54480   0.56845   0.57590
 Alpha virt. eigenvalues --    0.60061   0.64770   0.69262   0.69707   0.73393
 Alpha virt. eigenvalues --    0.73682   0.79006   0.82750   0.85674   0.88676
 Alpha virt. eigenvalues --    0.89118   0.89469   0.90146   0.91883   0.92956
 Alpha virt. eigenvalues --    0.94133   0.94703   0.96308   0.98603   0.99881
 Alpha virt. eigenvalues --    1.03370   1.07329   1.13065   1.17635   1.31417
 Alpha virt. eigenvalues --    1.36522   1.37456   1.41772   1.47543   1.57979
 Alpha virt. eigenvalues --    1.61572   1.69276   1.72111   1.72822   1.79830
 Alpha virt. eigenvalues --    1.82902   1.86385   1.87607   1.92616   1.98713
 Alpha virt. eigenvalues --    2.04342   2.08558   2.10678   2.15029   2.22326
 Alpha virt. eigenvalues --    2.22936   2.25505   2.26408   2.29140   2.33100
 Alpha virt. eigenvalues --    2.34672   2.38113   2.49750   2.58704   2.62577
 Alpha virt. eigenvalues --    2.73177   2.75401   2.85991   3.09516   3.58998
 Alpha virt. eigenvalues --    3.86404   4.18203   4.30259   4.31572   4.64737
          Condensed to atoms (all electrons):
              1          2          3          4          5          6
     1  C    4.641140   0.176945  -0.038265  -0.001209   0.375718  -0.025735
     2  O    0.176945   8.232219   0.070576  -0.020064  -0.051790  -0.004763
     3  O   -0.038265   0.070576   8.148810   0.216523  -0.006884   0.008320
     4  H   -0.001209  -0.020064   0.216523   0.391298   0.000200  -0.000327
     5  C    0.375718  -0.051790  -0.006884   0.000200   5.189536   0.370519
     6  H   -0.025735  -0.004763   0.008320  -0.000327   0.370519   0.537487
     7  H   -0.024096   0.003143   0.000117  -0.000013   0.353007  -0.029639
     8  H   -0.025571   0.001838  -0.000212   0.000022   0.362390  -0.026457
     9  C    0.359156  -0.049524  -0.002499   0.003511  -0.082082  -0.004772
    10  H   -0.022856   0.003004   0.000313  -0.000096  -0.000055   0.000159
    11  H   -0.029636  -0.004313   0.010653  -0.000179  -0.005182   0.003465
    12  H   -0.026272   0.002074  -0.000412   0.000237   0.005956  -0.000026
    13  C    0.384172  -0.046292   0.004215  -0.000357  -0.059612   0.004972
    14  H   -0.024890   0.001004  -0.000062   0.000016  -0.007000  -0.000052
    15  H   -0.028228   0.003204  -0.000081   0.000008  -0.001920   0.000008
    16  H   -0.024498   0.000822  -0.000066  -0.000017   0.006046  -0.000178
              7          8          9         10         11         12
     1  C   -0.024096  -0.025571   0.359156  -0.022856  -0.029636  -0.026272
     2  O    0.003143   0.001838  -0.049524   0.003004  -0.004313   0.002074
     3  O    0.000117  -0.000212  -0.002499   0.000313   0.010653  -0.000412
     4  H   -0.000013   0.000022   0.003511  -0.000096  -0.000179   0.000237
     5  C    0.353007   0.362390  -0.082082  -0.000055  -0.005182   0.005956
     6  H   -0.029639  -0.026457  -0.004772   0.000159   0.003465  -0.000026
     7  H    0.589871  -0.027797  -0.000330   0.000961   0.000134  -0.000091
     8  H   -0.027797   0.559638   0.005842  -0.000093  -0.000009  -0.000198
     9  C   -0.000330   0.005842   5.216109   0.354774   0.366584   0.358986
    10  H    0.000961  -0.000093   0.354774   0.574196  -0.027852  -0.026832
    11  H    0.000134  -0.000009   0.366584  -0.027852   0.556850  -0.029683
    12  H   -0.000091  -0.000198   0.358986  -0.026832  -0.029683   0.574504
    13  C   -0.003239  -0.005621  -0.056078  -0.002604   0.005420  -0.005936
    14  H    0.000232   0.004646   0.006133  -0.000100  -0.000178  -0.000080
    15  H    0.001879   0.000057  -0.002177   0.001630  -0.000016   0.000075
    16  H   -0.000106  -0.000062  -0.007324   0.000257  -0.000057   0.004758
             13         14         15         16
     1  C    0.384172  -0.024890  -0.028228  -0.024498
     2  O   -0.046292   0.001004   0.003204   0.000822
     3  O    0.004215  -0.000062  -0.000081  -0.000066
     4  H   -0.000357   0.000016   0.000008  -0.000017
     5  C   -0.059612  -0.007000  -0.001920   0.006046
     6  H    0.004972  -0.000052   0.000008  -0.000178
     7  H   -0.003239   0.000232   0.001879  -0.000106
     8  H   -0.005621   0.004646   0.000057  -0.000062
     9  C   -0.056078   0.006133  -0.002177  -0.007324
    10  H   -0.002604  -0.000100   0.001630   0.000257
    11  H    0.005420  -0.000178  -0.000016  -0.000057
    12  H   -0.005936  -0.000080   0.000075   0.004758
    13  C    5.148274   0.364771   0.365037   0.362842
    14  H    0.364771   0.550917  -0.027014  -0.028920
    15  H    0.365037  -0.027014   0.566231  -0.027613
    16  H    0.362842  -0.028920  -0.027613   0.560647
 Mulliken atomic charges:
              1
     1  C    0.334125
     2  O   -0.318082
     3  O   -0.411047
     4  H    0.410448
     5  C   -0.448848
     6  H    0.167020
     7  H    0.135967
     8  H    0.151585
     9  C   -0.466308
    10  H    0.145191
    11  H    0.154001
    12  H    0.142941
    13  C   -0.459961
    14  H    0.160578
    15  H    0.148922
    16  H    0.153469
 Sum of Mulliken atomic charges =   0.00000
 Mulliken charges with hydrogens summed into heavy atoms:
              1
     1  C    0.334125
     2  O   -0.318082
     3  O   -0.000599
     5  C    0.005724
     9  C   -0.024175
    13  C    0.003007
 Sum of Mulliken charges with hydrogens summed into heavy atoms =   0.00000
 Electronic spatial extent (au):  <R**2>=            608.4748
 Charge=              0.0000 electrons
 Dipole moment (field-independent basis, Debye):
    X=              0.7637    Y=             -1.3782    Z=              0.8946  Tot=              1.8119
 Quadrupole moment (field-independent basis, Debye-Ang):
   XX=            -35.7756   YY=            -36.7809   ZZ=            -39.1221
   XY=              3.7647   XZ=             -0.7596   YZ=              0.3907
 Traceless Quadrupole moment (field-independent basis, Debye-Ang):
   XX=              1.4506   YY=              0.4453   ZZ=             -1.8959
   XY=              3.7647   XZ=             -0.7596   YZ=              0.3907
 Octapole moment (field-independent basis, Debye-Ang**2):
  XXX=            -18.3872  YYY=             -1.4322  ZZZ=             -3.0064  XYY=             -6.6721
  XXY=             -9.4620  XXZ=             -0.4350  XZZ=             -2.2875  YZZ=              0.2269
  YYZ=             -3.3069  XYZ=             -1.2646
 Hexadecapole moment (field-independent basis, Debye-Ang**3):
 XXXX=           -326.1734 YYYY=           -216.6486 ZZZZ=           -205.6068 XXXY=             23.9213
 XXXZ=              8.6142 YYYX=              3.2329 YYYZ=              0.9530 ZZZX=              1.9555
 ZZZY=              0.2780 XXYY=            -89.8618 XXZZ=            -91.3532 YYZZ=            -70.4587
 XXYZ=              2.6132 YYXZ=              0.1697 ZZXY=              0.7772
 N-N= 2.694953693922D+02 E-N=-1.260079238353D+03  KE= 3.059900783298D+02
 No NMR shielding tensors so no spin-rotation constants.
 Leave Link  601 at Tue Aug 25 00:35:36 2015, MaxMem= 3758096384 cpu:       1.7
 (Enter /share/apps/g09/l701.exe)
 Compute integral first derivatives.
 ... and contract with generalized density number  0.
 Leave Link  701 at Tue Aug 25 00:35:36 2015, MaxMem= 3758096384 cpu:       1.7
 (Enter /share/apps/g09/l702.exe)
 L702 exits ... SP integral derivatives will be done elsewhere.
 Leave Link  702 at Tue Aug 25 00:35:36 2015, MaxMem= 3758096384 cpu:       0.2
 (Enter /share/apps/g09/l703.exe)
 Compute integral first derivatives, UseDBF=F ICtDFT=           0.
 Integral derivatives from FoFDir, PRISM(SPDF).
 Calling FoFJK, ICntrl=      2127 FMM=F ISym2X=0 I1Cent= 0 IOpClX= 0 NMat=1 NMatS=1 NMatT=0.
 FoFCou: FMM=F IPFlag=           0 FMFlag=      100000 FMFlg1=         800
         NFxFlg=           0 DoJE=F BraDBF=F KetDBF=F FulRan=T
         Omega=  0.000000  0.000000  1.000000  0.000000  0.000000 ICntrl=    2127 IOpCl=  0
         NMat0=    1 NMatS0=    1 NMatT0=    0 NMatD0=    1 NMtDS0=    0 NMtDT0=    0
         I1Cent=           0 NGrid=           0.
 Symmetry not used in FoFCou.
 Leave Link  703 at Tue Aug 25 00:35:37 2015, MaxMem= 3758096384 cpu:      10.5
 (Enter /share/apps/g09/l716.exe)
 Dipole        = 3.00477565D-01-5.42206300D-01 3.51981705D-01
 ***** Axes restored to original set *****
 -------------------------------------------------------------------
 Center     Atomic                   Forces (Hartrees/Bohr)
 Number     Number              X              Y              Z
 -------------------------------------------------------------------
      1        6           0.000052094   -0.000145667   -0.000117293
      2        8          -0.000044588    0.000105332    0.000080811
      3        8          -0.000060069    0.000026872    0.000005602
      4        1           0.000056597   -0.000013984   -0.000042752
      5        6          -0.000017999    0.000030802    0.000018974
      6        1          -0.000006931   -0.000041786    0.000029187
      7        1          -0.000007312    0.000024258   -0.000032807
      8        1           0.000025041   -0.000011170   -0.000015732
      9        6          -0.000037711    0.000015033    0.000044080
     10        1           0.000020607   -0.000033494   -0.000011976
     11        1           0.000047741    0.000038372    0.000017309
     12        1           0.000011784    0.000010738   -0.000017738
     13        6          -0.000077220    0.000004391   -0.000057608
     14        1           0.000036277    0.000012134    0.000057058
     15        1          -0.000019586   -0.000022258   -0.000018692
     16        1           0.000021274    0.000000426    0.000061577
 -------------------------------------------------------------------
 Cartesian Forces:  Max     0.000145667 RMS     0.000046386
 Leave Link  716 at Tue Aug 25 00:35:38 2015, MaxMem= 3758096384 cpu:       0.3
 (Enter /share/apps/g09/l103.exe)

 GradGradGradGradGradGradGradGradGradGradGradGradGradGradGradGradGradGrad
 Berny optimization.
 Internal  Forces:  Max     0.000124779 RMS     0.000035805
 Search for a local minimum.
 Step number   1 out of a maximum of   82
 All quantities printed in internal units (Hartrees-Bohrs-Radians)
 RMS Force = .35805D-04 SwitMx=.10000D-02 MixMth= 2
 Mixed Optimization -- En-DIIS/RFO-DIIS
 Second derivative matrix not updated -- first step.
     Eigenvalues ---    0.00326   0.00331   0.00342   0.00536   0.01026
     Eigenvalues ---    0.04062   0.05550   0.05555   0.05585   0.05588
     Eigenvalues ---    0.05622   0.05644   0.05738   0.07058   0.15986
     Eigenvalues ---    0.16000   0.16000   0.16000   0.16000   0.16000
     Eigenvalues ---    0.16000   0.16000   0.16000   0.16000   0.16000
     Eigenvalues ---    0.16784   0.25000   0.29123   0.29160   0.29236
     Eigenvalues ---    0.34113   0.34131   0.34182   0.34235   0.34245
     Eigenvalues ---    0.34251   0.34294   0.34358   0.34448   0.37296
     Eigenvalues ---    0.38203   0.526431000.000001000.000001000.00000
     Eigenvalues --- 1000.000001000.000001000.000001000.000001000.00000
     Eigenvalues --- 1000.000001000.000001000.000001000.000001000.00000
     Eigenvalues --- 1000.000001000.000001000.000001000.000001000.00000
     Eigenvalues --- 1000.000001000.000001000.000001000.000001000.00000
     Eigenvalues --- 1000.000001000.000001000.000001000.000001000.00000
     Eigenvalues --- 1000.000001000.00000
 RFO step:  Lambda=-3.79638885D-06 EMin= 3.25717817D-03
 Linear search not attempted -- first point.
 Iteration  1 RMS(Cart)=  0.00489477 RMS(Int)=  0.00005267
 Iteration  2 RMS(Cart)=  0.00004805 RMS(Int)=  0.00000003
 Iteration  3 RMS(Cart)=  0.00000000 RMS(Int)=  0.00000003
 Variable       Old X    -DE/DX   Delta X   Delta X   Delta X     New X
                                 (Linear)    (Quad)   (Total)
    R1        2.74071  -0.00007   0.00000  -0.00019  -0.00019   2.74052
    R2        2.89514   0.00000   0.00000   0.00000   0.00000   2.89514
    R3        2.89670   0.00005   0.00000   0.00015   0.00015   2.89686
    R4        2.89748   0.00000   0.00000   0.00001   0.00001   2.89749
    R5        2.75402  -0.00002   0.00000  -0.00005  -0.00005   2.75397
    R6        1.83989   0.00001   0.00000   0.00002   0.00002   1.83991
    R7        2.06581   0.00001   0.00000   0.00003   0.00003   2.06584
    R8        2.07109  -0.00001   0.00000  -0.00003  -0.00003   2.07107
    R9        2.06908   0.00001   0.00000   0.00004   0.00004   2.06912
   R10        2.07023  -0.00003   0.00000  -0.00009  -0.00009   2.07014
   R11        2.06729   0.00005   0.00000   0.00014   0.00014   2.06743
   R12        2.07140   0.00002   0.00000   0.00007   0.00007   2.07147
   R13        2.06836  -0.00004   0.00000  -0.00012  -0.00012   2.06824
   R14        2.06935   0.00000   0.00000   0.00001   0.00001   2.06937
   R15        2.06918  -0.00004   0.00000  -0.00010  -0.00010   2.06908
    A1        1.92025   0.00005   0.00000   0.00056   0.00056   1.92081
    A2        1.92524  -0.00004   0.00000  -0.00021  -0.00021   1.92503
    A3        1.77317  -0.00001   0.00000  -0.00009  -0.00009   1.77308
    A4        1.95158   0.00001   0.00000   0.00006   0.00006   1.95165
    A5        1.94364  -0.00005   0.00000  -0.00033  -0.00033   1.94331
    A6        1.94235   0.00003   0.00000   0.00000   0.00000   1.94235
    A7        1.90667   0.00008   0.00000   0.00034   0.00034   1.90701
    A8        1.74141   0.00005   0.00000   0.00032   0.00032   1.74172
    A9        1.92905   0.00009   0.00000   0.00061   0.00061   1.92966
   A10        1.93025  -0.00007   0.00000  -0.00051  -0.00051   1.92974
   A11        1.92481  -0.00001   0.00000  -0.00006  -0.00006   1.92475
   A12        1.89309   0.00000   0.00000   0.00001   0.00001   1.89310
   A13        1.89164  -0.00003   0.00000  -0.00009  -0.00009   1.89155
   A14        1.89401   0.00003   0.00000   0.00004   0.00004   1.89405
   A15        1.93143  -0.00003   0.00000  -0.00015  -0.00015   1.93128
   A16        1.93145   0.00005   0.00000   0.00031   0.00031   1.93176
   A17        1.92899  -0.00002   0.00000  -0.00019  -0.00019   1.92880
   A18        1.88478   0.00000   0.00000   0.00010   0.00010   1.88488
   A19        1.88720   0.00003   0.00000   0.00015   0.00015   1.88735
   A20        1.89869  -0.00002   0.00000  -0.00023  -0.00023   1.89846
   A21        1.92976  -0.00007   0.00000  -0.00050  -0.00050   1.92927
   A22        1.91832   0.00006   0.00000   0.00039   0.00039   1.91871
   A23        1.93508  -0.00006   0.00000  -0.00034  -0.00034   1.93475
   A24        1.89373   0.00000   0.00000  -0.00003  -0.00003   1.89370
   A25        1.89285   0.00006   0.00000   0.00037   0.00037   1.89322
   A26        1.89311   0.00001   0.00000   0.00011   0.00011   1.89323
    D1       -1.06099  -0.00001   0.00000   0.00009   0.00009  -1.06091
    D2        1.10013   0.00000   0.00000   0.00041   0.00041   1.10054
    D3       -3.12170   0.00002   0.00000   0.00027   0.00027  -3.12143
    D4        1.10429   0.00001   0.00000   0.00268   0.00268   1.10697
    D5       -3.08219   0.00001   0.00000   0.00275   0.00275  -3.07943
    D6       -0.98709   0.00000   0.00000   0.00244   0.00244  -0.98465
    D7       -1.04144   0.00002   0.00000   0.00251   0.00251  -1.03893
    D8        1.05527   0.00002   0.00000   0.00258   0.00258   1.05786
    D9       -3.13281   0.00000   0.00000   0.00227   0.00227  -3.13055
   D10        3.05651   0.00001   0.00000   0.00271   0.00271   3.05921
   D11       -1.12997   0.00001   0.00000   0.00278   0.00278  -1.12718
   D12        0.96513  -0.00001   0.00000   0.00247   0.00247   0.96760
   D13        3.06597  -0.00002   0.00000   0.00156   0.00156   3.06754
   D14       -1.12856   0.00000   0.00000   0.00179   0.00179  -1.12677
   D15        0.97590  -0.00002   0.00000   0.00159   0.00159   0.97749
   D16       -1.07432   0.00003   0.00000   0.00218   0.00218  -1.07215
   D17        1.01433   0.00004   0.00000   0.00240   0.00240   1.01673
   D18        3.11879   0.00003   0.00000   0.00220   0.00220   3.12099
   D19        1.11163  -0.00001   0.00000   0.00179   0.00179   1.11343
   D20       -3.08290   0.00001   0.00000   0.00202   0.00202  -3.08088
   D21       -0.97844   0.00000   0.00000   0.00182   0.00182  -0.97662
   D22        1.03591   0.00002   0.00000  -0.00171  -0.00171   1.03419
   D23        3.12617   0.00001   0.00000  -0.00181  -0.00181   3.12436
   D24       -1.06414   0.00002   0.00000  -0.00163  -0.00163  -1.06577
   D25       -1.00789  -0.00002   0.00000  -0.00217  -0.00217  -1.01006
   D26        1.08238  -0.00003   0.00000  -0.00227  -0.00227   1.08011
   D27       -3.10793  -0.00002   0.00000  -0.00209  -0.00209  -3.11002
   D28        3.08492  -0.00002   0.00000  -0.00201  -0.00201   3.08291
   D29       -1.10801  -0.00002   0.00000  -0.00210  -0.00210  -1.11011
   D30        0.98487  -0.00001   0.00000  -0.00192  -0.00192   0.98295
   D31       -1.91986  -0.00012   0.00000  -0.02327  -0.02327  -1.94313
         Item               Value     Threshold  Converged?
 Maximum Force            0.000125     0.000450     YES
 RMS     Force            0.000036     0.000300     YES
 Maximum Displacement     0.027241     0.001800     NO 
 RMS     Displacement     0.004893     0.001200     NO 
 Predicted change in Energy=-1.898188D-06
 GradGradGradGradGradGradGradGradGradGradGradGradGradGradGradGradGradGrad

 Leave Link  103 at Tue Aug 25 00:35:38 2015, MaxMem= 3758096384 cpu:       0.2
 (Enter /share/apps/g09/l202.exe)
                          Input orientation:                          
 ---------------------------------------------------------------------
 Center     Atomic      Atomic             Coordinates (Angstroms)
 Number     Number       Type             X           Y           Z
 ---------------------------------------------------------------------
      1          6           0       -0.380355   -0.053148    0.006793
      2          8           0        0.724436   -0.144262   -0.928232
      3          8           0        1.976819   -0.219682   -0.186824
      4          1           0        2.357833    0.646292   -0.416805
      5          6           0       -0.415076   -1.296151    0.901714
      6          1           0        0.489327   -1.354496    1.513048
      7          1           0       -1.283866   -1.265897    1.569110
      8          1           0       -0.477542   -2.202339    0.290329
      9          6           0       -0.277117    1.237330    0.827735
     10          1           0       -1.148034    1.349337    1.482729
     11          1           0        0.618706    1.225206    1.455647
     12          1           0       -0.232770    2.110607    0.166661
     13          6           0       -1.584374   -0.014653   -0.941799
     14          1           0       -1.612332   -0.914951   -1.563516
     15          1           0       -2.513231    0.037735   -0.364181
     16          1           0       -1.534843    0.859543   -1.599183
 ---------------------------------------------------------------------
                    Distance matrix (angstroms):
                    1          2          3          4          5
     1  C    0.000000
     2  O    1.450220   0.000000
     3  O    2.370968   1.457339   0.000000
     4  H    2.857678   1.885343   0.973640   0.000000
     5  C    1.532040   2.444185   2.839870   3.633263   0.000000
     6  H    2.172247   2.734920   2.527845   3.349448   1.093196
     7  H    2.174380   3.395300   3.848368   4.567526   1.095960
     8  H    2.169991   2.676812   3.191002   4.080942   1.094930
     9  C    1.532951   2.448536   2.869223   2.973410   2.538313
    10  H    2.175933   3.398488   3.874782   4.048902   2.805960
    11  H    2.175199   2.751273   2.574856   2.620263   2.780789
    12  H    2.174667   2.683183   3.230709   3.032470   3.489920
    13  C    1.533288   2.312485   3.646110   4.031558   2.531411
    14  H    2.174015   2.541266   3.906492   4.417537   2.766965
    15  H    2.166804   3.291468   4.500918   4.909213   2.789982
    16  H    2.178304   2.561668   3.935893   4.073871   3.486457
                    6          7          8          9         10
     6  H    0.000000
     7  H    1.776290   0.000000
     8  H    1.774462   1.778304   0.000000
     9  C    2.788307   2.798093   3.487162   0.000000
    10  H    3.161105   2.620183   3.806019   1.095472   0.000000
    11  H    2.583582   3.136599   3.782565   1.094039   1.771303
    12  H    3.786967   3.804267   4.321656   1.096174   1.774620
    13  C    3.481622   2.821451   2.743937   2.531330   2.815883
    14  H    3.751722   3.169291   2.526234   3.483273   3.823896
    15  H    3.804951   2.635984   3.096828   2.803551   2.644833
    16  H    4.322640   3.823423   3.750102   2.759443   3.144471
                   11         12         13         14         15
    11  H    0.000000
    12  H    1.780570   0.000000
    13  C    3.484044   2.751772   0.000000
    14  H    4.321244   3.748427   1.094464   0.000000
    15  H    3.811941   3.127154   1.095062   1.776973   0.000000
    16  H    3.755459   2.525621   1.094909   1.776543   1.777031
                   16
    16  H    0.000000
 Stoichiometry    C4H10O2
 Framework group  C1[X(C4H10O2)]
 Deg. of freedom    42
 Full point group                 C1      NOp   1
 Largest Abelian subgroup         C1      NOp   1
 Largest concise Abelian subgroup C1      NOp   1
                         Standard orientation:                         
 ---------------------------------------------------------------------
 Center     Atomic      Atomic             Coordinates (Angstroms)
 Number     Number       Type             X           Y           Z
 ---------------------------------------------------------------------
      1          6           0        0.387450    0.000508    0.035901
      2          8           0       -0.727203   -0.058445   -0.889956
      3          8           0       -1.973650    0.105654   -0.152883
      4          1           0       -2.343745   -0.789431   -0.252013
      5          6           0        0.411812    1.359426    0.742933
      6          1           0       -0.487659    1.492666    1.349790
      7          1           0        1.287107    1.437007    1.397890
      8          1           0        0.455007    2.169258    0.007285
      9          6           0        0.311198   -1.160080    1.034480
     10          1           0        1.189731   -1.165148    1.688861
     11          1           0       -0.578848   -1.070083    1.664273
     12          1           0        0.273832   -2.119704    0.505972
     13          6           0        1.583067   -0.157439   -0.910948
     14          1           0        1.591751    0.644616   -1.655585
     15          1           0        2.517919   -0.113831   -0.342343
     16          1           0        1.540566   -1.117514   -1.435615
 ---------------------------------------------------------------------
 Rotational constants (GHZ):      4.4216544      2.7543204      2.7502289
 Leave Link  202 at Tue Aug 25 00:35:38 2015, MaxMem= 3758096384 cpu:       0.1
 (Enter /share/apps/g09/l301.exe)
 Standard basis: 6-31G(d) (6D, 7F)
 Ernie: Thresh=  0.10000D-02 Tol=  0.10000D-05 Strict=F.
 There are   110 symmetry adapted basis functions of A   symmetry.
 Integral buffers will be    131072 words long.
 Raffenetti 2 integral format.
 Two-electron integral symmetry is turned on.
   110 basis functions,   208 primitive gaussians,   110 cartesian basis functions
    25 alpha electrons       25 beta electrons
       nuclear repulsion energy       269.4713139045 Hartrees.
 IExCor=  402 DFT=T Ex+Corr=B3LYP ExCW=0 ScaHFX=  0.200000
 ScaDFX=  0.800000  0.720000  1.000000  0.810000 ScalE2=  1.000000  1.000000
 IRadAn=      0 IRanWt=     -1 IRanGd=            0 ICorTp=0
 NAtoms=   16 NActive=   16 NUniq=   16 SFac= 7.50D-01 NAtFMM=   80 NAOKFM=F Big=F
 Leave Link  301 at Tue Aug 25 00:35:38 2015, MaxMem= 3758096384 cpu:       0.6
 (Enter /share/apps/g09/l302.exe)
 NPDir=0 NMtPBC=     1 NCelOv=     1 NCel=       1 NClECP=     1 NCelD=      1
         NCelK=      1 NCelE2=     1 NClLst=     1 CellRange=     0.0.
 One-electron integrals computed using PRISM.
 NBasis=   110 RedAO= T  NBF=   110
 NBsUse=   110 1.00D-06 NBFU=   110
 Precomputing XC quadrature grid using
 IXCGrd= 2 IRadAn=           0 IRanWt=          -1 IRanGd=           0 AccXCQ= 1.00D-10.
 NRdTot=     993 NPtTot=      125576 NUsed=      132748 NTot=      132780
 NSgBfM=   110   110   110   110   110 NAtAll=    16    16.
 Leave Link  302 at Tue Aug 25 00:35:38 2015, MaxMem= 3758096384 cpu:       2.0
 (Enter /share/apps/g09/l303.exe)
 DipDrv:  MaxL=1.
 Leave Link  303 at Tue Aug 25 00:35:38 2015, MaxMem= 3758096384 cpu:       0.3
 (Enter /share/apps/g09/l401.exe)
 Initial guess read from the read-write file.
 B after Tr=     0.000000    0.000000    0.000000
         Rot=    1.000000    0.000000    0.000000    0.000000 Ang=   0.00 deg.
 Guess basis will be translated and rotated to current coordinates.
 Initial guess orbital symmetries:
       Occupied  (A) (A) (A) (A) (A) (A) (A) (A) (A) (A) (A) (A)
                 (A) (A) (A) (A) (A) (A) (A) (A) (A) (A) (A) (A)
                 (A)
       Virtual   (A) (A) (A) (A) (A) (A) (A) (A) (A) (A) (A) (A)
                 (A) (A) (A) (A) (A) (A) (A) (A) (A) (A) (A) (A)
                 (A) (A) (A) (A) (A) (A) (A) (A) (A) (A) (A) (A)
                 (A) (A) (A) (A) (A) (A) (A) (A) (A) (A) (A) (A)
                 (A) (A) (A) (A) (A) (A) (A) (A) (A) (A) (A) (A)
                 (A) (A) (A) (A) (A) (A) (A) (A) (A) (A) (A) (A)
                 (A) (A) (A) (A) (A) (A) (A) (A) (A) (A) (A) (A)
                 (A)
 The electronic state of the initial guess is 1-A.
 Generating alternative initial guess.
 Harris functional with IExCor=  402 diagonalized for initial guess.
 ExpMin= 1.61D-01 ExpMax= 5.48D+03 ExpMxC= 8.25D+02 IAcc=1 IRadAn=         1 AccDes= 0.00D+00
 HarFok:  IExCor=  402 AccDes= 0.00D+00 IRadAn=         1 IDoV= 1
 ScaDFX=  1.000000  1.000000  1.000000  1.000000
 FoFCou: FMM=F IPFlag=           0 FMFlag=      100000 FMFlg1=           0
         NFxFlg=           0 DoJE=T BraDBF=F KetDBF=T FulRan=T
         Omega=  0.000000  0.000000  1.000000  0.000000  0.000000 ICntrl=     500 IOpCl=  0
         NMat0=    1 NMatS0=    1 NMatT0=    0 NMatD0=    1 NMtDS0=    0 NMtDT0=    0
         I1Cent=           4 NGrid=           0.
 Petite list used in FoFCou.
 Harris En= -308.878986351121    
 Leave Link  401 at Tue Aug 25 00:35:38 2015, MaxMem= 3758096384 cpu:       3.5
 (Enter /share/apps/g09/l502.exe)
 Closed shell SCF:
 Requested convergence on RMS density matrix=1.00D-08 within 128 cycles.
 Requested convergence on MAX density matrix=1.00D-06.
 Requested convergence on             energy=1.00D-06.
 No special actions if energy rises.
 Using DIIS extrapolation, IDIIS=  1040.
 Integral symmetry usage will be decided dynamically.
       132591 words used for storage of precomputed grid.
 Keep R1 ints in memory in canonical form, NReq=19758380.
 IEnd=      189203 IEndB=      189203 NGot=  3758096384 MDV=  3739297439
 LenX=  3739297439 LenY=  3739284898
 Symmetry not used in FoFDir.
 MinBra= 0 MaxBra= 2 Meth= 1.
 IRaf=       0 NMat=   1 IRICut=       1 DoRegI=T DoRafI=F ISym2E= 0 JSym2E=0.
 Integral accuracy reduced to 1.0D-05 until final iterations.

 Cycle   1  Pass 0  IDiag  1:
 E= -308.802043811657    
 DIIS: error= 5.68D-04 at cycle   1 NSaved=   1.
 NSaved= 1 IEnMin= 1 EnMin= -308.802043811657     IErMin= 1 ErrMin= 5.68D-04
 ErrMax= 5.68D-04 EMaxC= 1.00D-01 BMatC= 6.22D-05 BMatP= 6.22D-05
 IDIUse=3 WtCom= 9.94D-01 WtEn= 5.68D-03
 Coeff-Com:  0.100D+01
 Coeff-En:   0.100D+01
 Coeff:      0.100D+01
 Gap=     0.285 Goal=   None    Shift=    0.000
 RMSDP=1.17D-04 MaxDP=2.25D-03              OVMax= 2.92D-03

 Cycle   2  Pass 0  IDiag  1:
 E= -308.802161263762     Delta-E=       -0.000117452106 Rises=F Damp=F
 DIIS: error= 5.74D-05 at cycle   2 NSaved=   2.
 NSaved= 2 IEnMin= 2 EnMin= -308.802161263762     IErMin= 2 ErrMin= 5.74D-05
 ErrMax= 5.74D-05 EMaxC= 1.00D-01 BMatC= 8.17D-07 BMatP= 6.22D-05
 IDIUse=1 WtCom= 1.00D+00 WtEn= 0.00D+00
 Coeff-Com: -0.708D-01 0.107D+01
 Coeff:     -0.708D-01 0.107D+01
 Gap=     0.285 Goal=   None    Shift=    0.000
 RMSDP=1.99D-05 MaxDP=2.75D-04 DE=-1.17D-04 OVMax= 4.78D-04

 Cycle   3  Pass 0  IDiag  1:
 E= -308.802162282606     Delta-E=       -0.000001018843 Rises=F Damp=F
 DIIS: error= 7.26D-05 at cycle   3 NSaved=   3.
 NSaved= 3 IEnMin= 3 EnMin= -308.802162282606     IErMin= 2 ErrMin= 5.74D-05
 ErrMax= 7.26D-05 EMaxC= 1.00D-01 BMatC= 6.00D-07 BMatP= 8.17D-07
 IDIUse=1 WtCom= 1.00D+00 WtEn= 0.00D+00
 Coeff-Com: -0.439D-01 0.554D+00 0.490D+00
 Coeff:     -0.439D-01 0.554D+00 0.490D+00
 Gap=     0.285 Goal=   None    Shift=    0.000
 RMSDP=7.23D-06 MaxDP=1.82D-04 DE=-1.02D-06 OVMax= 1.43D-04

 Initial convergence to 1.0D-05 achieved.  Increase integral accuracy.
 Cycle   4  Pass 1  IDiag  1:
 E= -308.802154412552     Delta-E=        0.000007870054 Rises=F Damp=F
 DIIS: error= 2.41D-05 at cycle   1 NSaved=   1.
 NSaved= 1 IEnMin= 1 EnMin= -308.802154412552     IErMin= 1 ErrMin= 2.41D-05
 ErrMax= 2.41D-05 EMaxC= 1.00D-01 BMatC= 1.69D-07 BMatP= 1.69D-07
 IDIUse=1 WtCom= 1.00D+00 WtEn= 0.00D+00
 Coeff-Com:  0.100D+01
 Coeff:      0.100D+01
 Gap=     0.285 Goal=   None    Shift=    0.000
 RMSDP=7.23D-06 MaxDP=1.82D-04 DE= 7.87D-06 OVMax= 1.60D-04

 Cycle   5  Pass 1  IDiag  1:
 E= -308.802154352678     Delta-E=        0.000000059874 Rises=F Damp=F
 DIIS: error= 5.13D-05 at cycle   2 NSaved=   2.
 NSaved= 2 IEnMin= 1 EnMin= -308.802154412552     IErMin= 1 ErrMin= 2.41D-05
 ErrMax= 5.13D-05 EMaxC= 1.00D-01 BMatC= 3.32D-07 BMatP= 1.69D-07
 IDIUse=1 WtCom= 1.00D+00 WtEn= 0.00D+00
 Coeff-Com:  0.599D+00 0.401D+00
 Coeff:      0.599D+00 0.401D+00
 Gap=     0.285 Goal=   None    Shift=    0.000
 RMSDP=4.33D-06 MaxDP=1.26D-04 DE= 5.99D-08 OVMax= 1.10D-04

 Cycle   6  Pass 1  IDiag  1:
 E= -308.802154577083     Delta-E=       -0.000000224405 Rises=F Damp=F
 DIIS: error= 1.45D-05 at cycle   3 NSaved=   3.
 NSaved= 3 IEnMin= 3 EnMin= -308.802154577083     IErMin= 3 ErrMin= 1.45D-05
 ErrMax= 1.45D-05 EMaxC= 1.00D-01 BMatC= 2.16D-08 BMatP= 1.69D-07
 IDIUse=1 WtCom= 1.00D+00 WtEn= 0.00D+00
 Coeff-Com:  0.312D-01 0.202D+00 0.767D+00
 Coeff:      0.312D-01 0.202D+00 0.767D+00
 Gap=     0.285 Goal=   None    Shift=    0.000
 RMSDP=1.27D-06 MaxDP=3.13D-05 DE=-2.24D-07 OVMax= 2.82D-05

 Cycle   7  Pass 1  IDiag  1:
 E= -308.802154590839     Delta-E=       -0.000000013757 Rises=F Damp=F
 DIIS: error= 3.01D-06 at cycle   4 NSaved=   4.
 NSaved= 4 IEnMin= 4 EnMin= -308.802154590839     IErMin= 4 ErrMin= 3.01D-06
 ErrMax= 3.01D-06 EMaxC= 1.00D-01 BMatC= 2.55D-09 BMatP= 2.16D-08
 IDIUse=1 WtCom= 1.00D+00 WtEn= 0.00D+00
 Coeff-Com: -0.139D-01 0.907D-01 0.429D+00 0.494D+00
 Coeff:     -0.139D-01 0.907D-01 0.429D+00 0.494D+00
 Gap=     0.285 Goal=   None    Shift=    0.000
 RMSDP=4.87D-07 MaxDP=8.13D-06 DE=-1.38D-08 OVMax= 1.05D-05

 Cycle   8  Pass 1  IDiag  1:
 E= -308.802154592993     Delta-E=       -0.000000002154 Rises=F Damp=F
 DIIS: error= 5.42D-07 at cycle   5 NSaved=   5.
 NSaved= 5 IEnMin= 5 EnMin= -308.802154592993     IErMin= 5 ErrMin= 5.42D-07
 ErrMax= 5.42D-07 EMaxC= 1.00D-01 BMatC= 9.57D-11 BMatP= 2.55D-09
 IDIUse=1 WtCom= 1.00D+00 WtEn= 0.00D+00
 Coeff-Com: -0.754D-02 0.297D-01 0.151D+00 0.233D+00 0.594D+00
 Coeff:     -0.754D-02 0.297D-01 0.151D+00 0.233D+00 0.594D+00
 Gap=     0.285 Goal=   None    Shift=    0.000
 RMSDP=9.15D-08 MaxDP=1.41D-06 DE=-2.15D-09 OVMax= 1.75D-06

 Cycle   9  Pass 1  IDiag  1:
 E= -308.802154593076     Delta-E=       -0.000000000083 Rises=F Damp=F
 DIIS: error= 5.60D-08 at cycle   6 NSaved=   6.
 NSaved= 6 IEnMin= 6 EnMin= -308.802154593076     IErMin= 6 ErrMin= 5.60D-08
 ErrMax= 5.60D-08 EMaxC= 1.00D-01 BMatC= 6.86D-13 BMatP= 9.57D-11
 IDIUse=1 WtCom= 1.00D+00 WtEn= 0.00D+00
 Coeff-Com: -0.961D-03 0.170D-02 0.100D-01 0.225D-01 0.999D-01 0.867D+00
 Coeff:     -0.961D-03 0.170D-02 0.100D-01 0.225D-01 0.999D-01 0.867D+00
 Gap=     0.285 Goal=   None    Shift=    0.000
 RMSDP=1.23D-08 MaxDP=1.68D-07 DE=-8.30D-11 OVMax= 3.85D-07

 Cycle  10  Pass 1  IDiag  1:
 E= -308.802154593075     Delta-E=        0.000000000002 Rises=F Damp=F
 DIIS: error= 3.39D-08 at cycle   7 NSaved=   7.
 NSaved= 7 IEnMin= 6 EnMin= -308.802154593076     IErMin= 7 ErrMin= 3.39D-08
 ErrMax= 3.39D-08 EMaxC= 1.00D-01 BMatC= 1.66D-13 BMatP= 6.86D-13
 IDIUse=1 WtCom= 1.00D+00 WtEn= 0.00D+00
 Coeff-Com: -0.106D-03-0.384D-03-0.151D-02 0.118D-03 0.173D-01 0.369D+00
 Coeff-Com:  0.616D+00
 Coeff:     -0.106D-03-0.384D-03-0.151D-02 0.118D-03 0.173D-01 0.369D+00
 Coeff:      0.616D+00
 Gap=     0.285 Goal=   None    Shift=    0.000
 RMSDP=4.43D-09 MaxDP=9.06D-08 DE= 1.59D-12 OVMax= 1.08D-07

 SCF Done:  E(RB3LYP) =  -308.802154593     A.U. after   10 cycles
             Convg  =    0.4426D-08             -V/T =  2.0092
 KE= 3.059895570137D+02 PE=-1.260036594195D+03 EE= 3.757735686833D+02
 Leave Link  502 at Tue Aug 25 00:35:41 2015, MaxMem= 3758096384 cpu:      31.9
 (Enter /share/apps/g09/l701.exe)
 Compute integral first derivatives.
 ... and contract with generalized density number  0.
 Leave Link  701 at Tue Aug 25 00:35:41 2015, MaxMem= 3758096384 cpu:       1.8
 (Enter /share/apps/g09/l702.exe)
 L702 exits ... SP integral derivatives will be done elsewhere.
 Leave Link  702 at Tue Aug 25 00:35:41 2015, MaxMem= 3758096384 cpu:       0.2
 (Enter /share/apps/g09/l703.exe)
 Compute integral first derivatives, UseDBF=F ICtDFT=           0.
 Integral derivatives from FoFDir, PRISM(SPDF).
 Calling FoFJK, ICntrl=      2127 FMM=F ISym2X=0 I1Cent= 0 IOpClX= 0 NMat=1 NMatS=1 NMatT=0.
 FoFCou: FMM=F IPFlag=           0 FMFlag=      100000 FMFlg1=         800
         NFxFlg=           0 DoJE=F BraDBF=F KetDBF=F FulRan=T
         Omega=  0.000000  0.000000  1.000000  0.000000  0.000000 ICntrl=    2127 IOpCl=  0
         NMat0=    1 NMatS0=    1 NMatT0=    0 NMatD0=    1 NMtDS0=    0 NMtDT0=    0
         I1Cent=           0 NGrid=           0.
 Symmetry not used in FoFCou.
 Leave Link  703 at Tue Aug 25 00:35:42 2015, MaxMem= 3758096384 cpu:      10.8
 (Enter /share/apps/g09/l716.exe)
 Dipole        = 2.92745527D-01-5.36041007D-01 3.43859630D-01
 ***** Axes restored to original set *****
 -------------------------------------------------------------------
 Center     Atomic                   Forces (Hartrees/Bohr)
 Number     Number              X              Y              Z
 -------------------------------------------------------------------
      1        6           0.000193170    0.000072012    0.000015574
      2        8          -0.000159932    0.000081055   -0.000143587
      3        8           0.000082127   -0.000098029    0.000189641
      4        1          -0.000158253    0.000011818   -0.000026525
      5        6           0.000029299    0.000008763   -0.000019945
      6        1           0.000004410   -0.000021230    0.000023686
      7        1           0.000004273    0.000001165   -0.000009448
      8        1           0.000014229   -0.000006159   -0.000008819
      9        6          -0.000001293    0.000010937    0.000055025
     10        1          -0.000026625   -0.000007612    0.000010748
     11        1           0.000010276   -0.000010040   -0.000065140
     12        1           0.000009605   -0.000017959    0.000008915
     13        6          -0.000015336   -0.000012278   -0.000048479
     14        1           0.000002785   -0.000008524    0.000002689
     15        1           0.000012203   -0.000005167    0.000001474
     16        1          -0.000000939    0.000001249    0.000014193
 -------------------------------------------------------------------
 Cartesian Forces:  Max     0.000193170 RMS     0.000062697
 Leave Link  716 at Tue Aug 25 00:35:42 2015, MaxMem= 3758096384 cpu:       0.2
 (Enter /share/apps/g09/l103.exe)

 GradGradGradGradGradGradGradGradGradGradGradGradGradGradGradGradGradGrad
 Berny optimization.
 Using GEDIIS/GDIIS optimizer.
 Internal  Forces:  Max     0.000398774 RMS     0.000063681
 Search for a local minimum.
 Step number   2 out of a maximum of   82
 All quantities printed in internal units (Hartrees-Bohrs-Radians)
 RMS Force = .63681D-04 SwitMx=.10000D-02 MixMth= 2
 Mixed Optimization -- En-DIIS/RFO-DIIS
 Swaping is turned off.
 Update second derivatives using D2CorX and points    1    2
 DE= -2.08D-06 DEPred=-1.90D-06 R= 1.09D+00
 SS=  1.41D+00  RLast= 2.59D-02 DXNew= 5.0454D-01 7.7837D-02
 Trust test= 1.09D+00 RLast= 2.59D-02 DXMaxT set to 3.00D-01
     Eigenvalues ---    0.00287   0.00328   0.00338   0.00737   0.01091
     Eigenvalues ---    0.04096   0.05531   0.05560   0.05587   0.05590
     Eigenvalues ---    0.05614   0.05643   0.05740   0.07072   0.15145
     Eigenvalues ---    0.15988   0.16000   0.16000   0.16000   0.16000
     Eigenvalues ---    0.16000   0.16000   0.16000   0.16000   0.16780
     Eigenvalues ---    0.17278   0.28758   0.29118   0.29234   0.29639
     Eigenvalues ---    0.34123   0.34129   0.34208   0.34217   0.34242
     Eigenvalues ---    0.34251   0.34295   0.34417   0.34500   0.37307
     Eigenvalues ---    0.38668   0.527291000.000001000.000001000.00000
     Eigenvalues --- 1000.000001000.000001000.000001000.000001000.00000
     Eigenvalues --- 1000.000001000.000001000.000001000.000001000.00000
     Eigenvalues --- 1000.000001000.000001000.000001000.000001000.00000
     Eigenvalues --- 1000.000001000.000001000.000001000.000001000.00000
     Eigenvalues --- 1000.000001000.000001000.000001000.000001000.00000
     Eigenvalues --- 1000.000001000.00000
 En-DIIS/RFO-DIIS IScMMF=        0 using points:     2    1
 RFO step:  Lambda=-5.88121382D-07.
 DIIS coeffs:      0.64960      0.35040
 Iteration  1 RMS(Cart)=  0.00179899 RMS(Int)=  0.00000400
 Iteration  2 RMS(Cart)=  0.00000382 RMS(Int)=  0.00000001
 Iteration  3 RMS(Cart)=  0.00000000 RMS(Int)=  0.00000001
 Variable       Old X    -DE/DX   Delta X   Delta X   Delta X     New X
                                  (DIIS)     (GDIIS)  (Total)
    R1        2.74052  -0.00019   0.00007  -0.00043  -0.00037   2.74015
    R2        2.89514   0.00001   0.00000   0.00001   0.00001   2.89515
    R3        2.89686  -0.00002  -0.00005   0.00005   0.00000   2.89686
    R4        2.89749   0.00002  -0.00001   0.00005   0.00005   2.89754
    R5        2.75397   0.00002   0.00002   0.00001   0.00003   2.75400
    R6        1.83991  -0.00005  -0.00001  -0.00005  -0.00006   1.83985
    R7        2.06584   0.00002  -0.00001   0.00005   0.00004   2.06588
    R8        2.07107   0.00000   0.00001  -0.00002  -0.00001   2.07105
    R9        2.06912   0.00001  -0.00001   0.00003   0.00002   2.06914
   R10        2.07014   0.00002   0.00003  -0.00001   0.00002   2.07017
   R11        2.06743  -0.00003  -0.00005   0.00003  -0.00002   2.06741
   R12        2.07147  -0.00002  -0.00002   0.00001  -0.00001   2.07145
   R13        2.06824   0.00001   0.00004  -0.00006  -0.00002   2.06822
   R14        2.06937  -0.00001   0.00000  -0.00001  -0.00002   2.06935
   R15        2.06908  -0.00001   0.00004  -0.00007  -0.00004   2.06904
    A1        1.92081  -0.00001  -0.00020   0.00019  -0.00001   1.92080
    A2        1.92503  -0.00001   0.00007  -0.00019  -0.00011   1.92491
    A3        1.77308   0.00000   0.00003  -0.00010  -0.00007   1.77301
    A4        1.95165   0.00000  -0.00002   0.00005   0.00003   1.95168
    A5        1.94331  -0.00001   0.00011  -0.00017  -0.00006   1.94326
    A6        1.94235   0.00003   0.00000   0.00020   0.00020   1.94255
    A7        1.90701  -0.00040  -0.00012  -0.00084  -0.00096   1.90605
    A8        1.74172  -0.00026  -0.00011  -0.00088  -0.00099   1.74074
    A9        1.92966   0.00004  -0.00022   0.00054   0.00033   1.92999
   A10        1.92974  -0.00002   0.00018  -0.00039  -0.00022   1.92952
   A11        1.92475   0.00000   0.00002  -0.00004  -0.00002   1.92472
   A12        1.89310  -0.00001   0.00000  -0.00005  -0.00005   1.89304
   A13        1.89155  -0.00002   0.00003  -0.00008  -0.00005   1.89150
   A14        1.89405   0.00001  -0.00001   0.00003   0.00001   1.89406
   A15        1.93128   0.00001   0.00005   0.00003   0.00008   1.93136
   A16        1.93176  -0.00005  -0.00011  -0.00005  -0.00016   1.93160
   A17        1.92880  -0.00001   0.00006  -0.00019  -0.00013   1.92867
   A18        1.88488   0.00004  -0.00003   0.00031   0.00028   1.88516
   A19        1.88735   0.00001  -0.00005   0.00019   0.00014   1.88749
   A20        1.89846   0.00000   0.00008  -0.00028  -0.00020   1.89826
   A21        1.92927  -0.00001   0.00017  -0.00031  -0.00013   1.92913
   A22        1.91871  -0.00001  -0.00014   0.00018   0.00004   1.91875
   A23        1.93475   0.00000   0.00012  -0.00020  -0.00009   1.93466
   A24        1.89370   0.00000   0.00001  -0.00002  -0.00001   1.89369
   A25        1.89322   0.00001  -0.00013   0.00028   0.00016   1.89338
   A26        1.89323   0.00001  -0.00004   0.00008   0.00004   1.89326
    D1       -1.06091   0.00002  -0.00003   0.00161   0.00158  -1.05933
    D2        1.10054   0.00001  -0.00014   0.00168   0.00153   1.10207
    D3       -3.12143   0.00004  -0.00009   0.00178   0.00168  -3.11974
    D4        1.10697   0.00001  -0.00094   0.00236   0.00142   1.10839
    D5       -3.07943   0.00001  -0.00096   0.00239   0.00143  -3.07801
    D6       -0.98465   0.00000  -0.00085   0.00215   0.00129  -0.98336
    D7       -1.03893   0.00002  -0.00088   0.00243   0.00156  -1.03738
    D8        1.05786   0.00002  -0.00091   0.00246   0.00156   1.05942
    D9       -3.13055   0.00001  -0.00079   0.00222   0.00142  -3.12912
   D10        3.05921  -0.00001  -0.00095   0.00225   0.00131   3.06052
   D11       -1.12718  -0.00001  -0.00098   0.00229   0.00131  -1.12587
   D12        0.96760  -0.00001  -0.00086   0.00204   0.00118   0.96877
   D13        3.06754   0.00001  -0.00055   0.00231   0.00176   3.06930
   D14       -1.12677   0.00003  -0.00063   0.00269   0.00206  -1.12471
   D15        0.97749   0.00000  -0.00056   0.00218   0.00162   0.97912
   D16       -1.07215   0.00000  -0.00076   0.00245   0.00169  -1.07046
   D17        1.01673   0.00002  -0.00084   0.00283   0.00199   1.01872
   D18        3.12099  -0.00001  -0.00077   0.00232   0.00155   3.12254
   D19        1.11343   0.00000  -0.00063   0.00242   0.00179   1.11522
   D20       -3.08088   0.00003  -0.00071   0.00280   0.00209  -3.07879
   D21       -0.97662  -0.00001  -0.00064   0.00229   0.00166  -0.97496
   D22        1.03419   0.00000   0.00060  -0.00103  -0.00043   1.03377
   D23        3.12436  -0.00001   0.00063  -0.00113  -0.00049   3.12387
   D24       -1.06577  -0.00001   0.00057  -0.00105  -0.00048  -1.06624
   D25       -1.01006   0.00001   0.00076  -0.00112  -0.00035  -1.01041
   D26        1.08011   0.00001   0.00079  -0.00122  -0.00042   1.07969
   D27       -3.11002   0.00000   0.00073  -0.00114  -0.00040  -3.11042
   D28        3.08291   0.00000   0.00070  -0.00121  -0.00051   3.08240
   D29       -1.11011   0.00000   0.00074  -0.00131  -0.00057  -1.11068
   D30        0.98295  -0.00001   0.00067  -0.00123  -0.00056   0.98239
   D31       -1.94313   0.00009   0.00815  -0.00256   0.00559  -1.93753
         Item               Value     Threshold  Converged?
 Maximum Force            0.000399     0.000450     YES
 RMS     Force            0.000064     0.000300     YES
 Maximum Displacement     0.009334     0.001800     NO 
 RMS     Displacement     0.001800     0.001200     NO 
 Predicted change in Energy=-7.978787D-07
 GradGradGradGradGradGradGradGradGradGradGradGradGradGradGradGradGradGrad

 Leave Link  103 at Tue Aug 25 00:35:42 2015, MaxMem= 3758096384 cpu:       0.1
 (Enter /share/apps/g09/l202.exe)
                          Input orientation:                          
 ---------------------------------------------------------------------
 Center     Atomic      Atomic             Coordinates (Angstroms)
 Number     Number       Type             X           Y           Z
 ---------------------------------------------------------------------
      1          6           0       -0.380230   -0.052969    0.006368
      2          8           0        0.724030   -0.144182   -0.928972
      3          8           0        1.975862   -0.221735   -0.186822
      4          1           0        2.354755    0.646430   -0.411866
      5          6           0       -0.414647   -1.295934    0.901365
      6          1           0        0.489242   -1.353828    1.513539
      7          1           0       -1.284020   -1.266102    1.568008
      8          1           0       -0.476083   -2.202208    0.289983
      9          6           0       -0.276407    1.237557    0.827158
     10          1           0       -1.146117    1.348937    1.483882
     11          1           0        0.620833    1.226079    1.453037
     12          1           0       -0.233889    2.110793    0.165923
     13          6           0       -1.584595   -0.014617   -0.941831
     14          1           0       -1.612389   -0.914840   -1.563647
     15          1           0       -2.513291    0.037329   -0.363932
     16          1           0       -1.535471    0.859762   -1.598968
 ---------------------------------------------------------------------
                    Distance matrix (angstroms):
                    1          2          3          4          5
     1  C    0.000000
     2  O    1.450025   0.000000
     3  O    2.370016   1.457354   0.000000
     4  H    2.853809   1.884604   0.973609   0.000000
     5  C    1.532046   2.444024   2.837708   3.628628   0.000000
     6  H    2.172505   2.735731   2.526440   3.344900   1.093217
     7  H    2.174223   3.394979   3.846682   4.562715   1.095953
     8  H    2.169989   2.676115   3.187734   4.076883   1.094940
     9  C    1.532950   2.448280   2.868868   2.967765   2.538345
    10  H    2.175999   3.398341   3.873631   4.042708   2.805302
    11  H    2.175073   2.749952   2.573210   2.611579   2.781567
[...]
    D5       -3.07801   0.00000   0.00000   0.00127   0.00127  -3.07674
    D6       -0.98336   0.00000   0.00000   0.00116   0.00116  -0.98220
    D7       -1.03738   0.00000   0.00000   0.00102   0.00102  -1.03635
    D8        1.05942   0.00000   0.00000   0.00110   0.00110   1.06052
    D9       -3.12912   0.00000   0.00000   0.00099   0.00099  -3.12813
   D10        3.06052   0.00000   0.00000   0.00122   0.00122   3.06175
   D11       -1.12587   0.00001   0.00000   0.00130   0.00130  -1.12457
   D12        0.96877   0.00000   0.00000   0.00119   0.00119   0.96997
   D13        3.06930   0.00000   0.00000   0.00086   0.00086   3.07016
   D14       -1.12471   0.00000   0.00000   0.00071   0.00071  -1.12400
   D15        0.97912  -0.00001   0.00000   0.00063   0.00063   0.97974
   D16       -1.07046   0.00002   0.00000   0.00111   0.00111  -1.06935
   D17        1.01872   0.00001   0.00000   0.00095   0.00095   1.01967
   D18        3.12254   0.00001   0.00000   0.00087   0.00087   3.12342
   D19        1.11522   0.00000   0.00000   0.00078   0.00078   1.11600
   D20       -3.07879  -0.00001   0.00000   0.00062   0.00062  -3.07817
   D21       -0.97496  -0.00001   0.00000   0.00054   0.00054  -0.97442
   D22        1.03377   0.00001   0.00000   0.00150   0.00150   1.03527
   D23        3.12387   0.00001   0.00000   0.00156   0.00156   3.12543
   D24       -1.06624   0.00000   0.00000   0.00149   0.00149  -1.06475
   D25       -1.01041   0.00000   0.00000   0.00136   0.00136  -1.00905
   D26        1.07969   0.00000   0.00000   0.00142   0.00142   1.08111
   D27       -3.11042   0.00000   0.00000   0.00135   0.00135  -3.10908
   D28        3.08240   0.00001   0.00000   0.00158   0.00158   3.08398
   D29       -1.11068   0.00001   0.00000   0.00164   0.00164  -1.10905
   D30        0.98239   0.00001   0.00000   0.00157   0.00157   0.98396
   D31       -1.93753   0.00000   0.00000   0.00051   0.00051  -1.93703
         Item               Value     Threshold  Converged?
 Maximum Force            0.000120     0.000450     YES
 RMS     Force            0.000019     0.000300     YES
 Maximum Displacement     0.002717     0.001800     NO 
 RMS     Displacement     0.000831     0.001200     YES
 Predicted change in Energy=-8.633587D-08
 GradGradGradGradGradGradGradGradGradGradGradGradGradGradGradGradGradGrad

 Leave Link  103 at Tue Aug 25 00:36:12 2015, MaxMem= 3758096384 cpu:       0.1
 (Enter /share/apps/g09/l9999.exe)
 1\1\GINC-COMPUTE-0-3\Freq\RB3LYP\6-31G(d)\C4H10O2\HETANJIN\25-Aug-2015
 \0\\#P Geom=AllCheck Guess=TCheck SCRF=Check GenChk RB3LYP/6-31G(d) Fr
 eq\\using ub3lyp/6-31G(d) to scan\\0,1\C,-0.3802303847,-0.0529694516,0
 .0063679488\O,0.7240303549,-0.1441824996,-0.9289720572\O,1.9758615626,
 -0.2217348488,-0.1868222995\H,2.3547554969,0.646429808,-0.4118658402\C
 ,-0.414647229,-1.2959342119,0.9013647879\H,0.4892419613,-1.3538277215,
 1.5135386729\H,-1.2840200996,-1.2661021417,1.5680080717\H,-0.476082967
 3,-2.2022078335,0.2899831108\C,-0.2764074755,1.2375571332,0.8271583473
 \H,-1.1461171772,1.3489371981,1.4838821621\H,0.6208325745,1.2260791979
 ,1.4530372258\H,-0.2338892976,2.110792818,0.1659230192\C,-1.5845949605
 ,-0.0146170088,-0.9418306827\H,-1.6123887699,-0.9148401284,-1.56364729
 74\H,-2.5132911984,0.0373291238,-0.363932147\H,-1.5354713905,0.8597615
 666,-1.5989680226\\Version=EM64L-G09RevA.01\State=1-A\HF=-308.8021548\
 RMSD=1.903e-09\RMSF=2.532e-05\ZeroPoint=0.1395425\Thermal=0.1475196\Di
 pole=-0.2826458,0.585081,0.2692154\DipoleDeriv=0.5321002,0.0049601,-0.
 1098263,-0.0036472,0.4777825,0.0117733,-0.2627257,0.0066244,0.4705467,
 -0.1773246,-0.0135409,0.1857673,0.0499591,-0.3754544,0.032092,0.247635
 4,0.001616,-0.3919665,-0.5663258,0.0664133,0.0423729,-0.0180899,-0.083
 9464,-0.1055547,-0.0032402,-0.087137,-0.3003792,0.2827142,-0.0204778,-
 0.0449588,-0.0193372,0.1293536,0.0627572,-0.0688405,0.0715271,0.281730
 1,0.0336229,0.0317112,-0.0551913,-0.0147131,-0.0481105,0.0900898,0.018
 6479,0.0434454,0.0013905,-0.0335676,0.0234329,-0.0972672,-0.0043953,0.
 048237,0.0107355,-0.087087,0.0198364,0.0000043,-0.0745903,-0.0061946,0
 .1127629,0.016618,0.0424672,-0.0098439,0.1021165,0.0117655,-0.0130978,
 0.0666587,-0.0167671,-0.0053133,-0.0111059,-0.104838,-0.0584411,-0.011
 8031,-0.0953544,-0.0117328,0.0145535,-0.044042,-0.0405993,0.0065421,-0
 .0532456,-0.091288,0.0279107,-0.0512534,0.0040297,-0.0650246,0.024077,
 0.1070644,0.0060367,0.0486181,-0.0055047,0.0973165,-0.0218233,-0.00418
 56,-0.0516836,-0.0286586,-0.1120784,0.0008921,0.0404804,-0.0034022,-0.
 0895508,-0.0100662,0.0021306,0.0598982,-0.0144694,0.0054373,-0.0110988
 ,-0.1091493,0.0677468,0.0001656,0.1075665,-0.0285415,-0.0477131,0.0005
 167,-0.0326642,0.0038506,0.0613943,-0.0066967,0.0109083,0.0002606,0.02
 83805,0.0628116,0.0057131,-0.0125811,-0.0163501,-0.0705707,-0.1000166,
 -0.0342711,-0.079721,-0.0088008,-0.0923752,0.0059343,0.0593767,0.00963
 75,0.0682816,-0.0036769,0.0809301,-0.0062028,-0.0074767,0.0562455,-0.0
 186079,-0.0023015,0.0052014,-0.0712999,0.10923,-0.0281126,0.0889163,-0
 .0220316\Polar=58.3657524,1.4384381,49.620883,1.6677808,-0.6239337,47.
 931828\PG=C01 [X(C4H10O2)]\NImag=0\\0.45137847,0.00716447,0.50441315,0
 .05212788,-0.00422754,0.50991456,-0.09208924,0.00121960,0.06734033,0.3
 5743338,0.00100183,-0.06058484,-0.00291350,0.00837890,0.08199322,0.024
 75464,-0.00523845,-0.15361450,0.00674996,0.00544769,0.30039846,-0.0421
 6023,0.00571001,-0.02657158,-0.16447556,0.01301909,-0.07154241,0.29396
 415,0.00134348,-0.00630937,-0.00326025,-0.02359207,-0.03620872,0.00538
 876,0.14814853,0.44688599,0.00761348,0.00045179,0.01660963,-0.08259550
 ,0.02277557,-0.10427128,0.04486638,-0.13557658,0.12685352,-0.00418874,
 -0.00431349,-0.00384199,-0.03038302,-0.02802058,0.00249433,-0.08238510
 ,-0.12505754,0.01802051,0.11759455,0.00053630,0.00118826,0.00254356,0.
 00911720,0.01014778,-0.00197061,-0.16668814,-0.40620649,0.11237512,0.1
 5554840,0.39554384,0.00097945,0.00118001,-0.00239014,-0.02612040,-0.02
 094780,-0.00249424,0.04253191,0.13157542,-0.04269335,-0.01777904,-0.11
 134718,0.04710795,-0.07755055,0.00518491,-0.01034552,-0.01503126,-0.02
 344210,0.03294947,0.00248714,-0.00207029,0.00061077,0.00001996,0.00055
 943,0.00016105,0.59130966,0.00252324,-0.15462397,0.04795044,-0.0049917
 9,0.00482320,0.00141585,-0.00038540,-0.00027091,0.00168329,0.00029720,
 -0.00027875,-0.00007769,-0.00460761,0.51375779,-0.00472460,0.04409070,
 -0.10744084,0.01536753,0.02004593,-0.02517237,0.00085036,0.00036874,0.
 00035028,-0.00048429,-0.00009886,-0.00099783,0.00504744,0.05800334,0.5
 5213824,0.00142031,0.00000615,0.00075207,-0.00031144,0.00068980,-0.000
 77597,-0.00134001,-0.00120167,0.00188123,0.00007012,-0.00011665,0.0001
 9879,-0.23578428,0.01119891,-0.12648600,0.25434954,0.02528520,-0.00098
 468,0.01479845,0.00082207,0.00097147,-0.00145985,-0.00126115,-0.000097
 28,-0.00034176,-0.00000274,-0.00000301,-0.00001391,0.00924405,-0.05074
 720,0.00504933,-0.01102289,0.05278395,-0.01718975,0.00020526,-0.012088
 15,-0.00114913,-0.00068246,0.00048859,0.00085738,-0.00021213,0.0003499
 7,0.00006577,-0.00022885,0.00063869,-0.12414124,0.00566960,-0.13264162
 ,0.13782554,-0.00858421,0.14089891,-0.00144404,0.00126528,-0.00112513,
 0.00047031,-0.00053476,-0.00077126,0.00021868,-0.00021684,0.00053521,0
 .00010941,-0.00004113,0.00027587,-0.21538808,0.00642822,0.12721589,-0.
 02002819,0.00100552,0.01770623,0.23242586,-0.02185350,0.00372722,0.013
 05576,-0.00258927,-0.00436989,0.00657750,0.00071862,0.00022653,-0.0003
 8596,0.00005378,0.00021183,0.00005592,0.00802414,-0.05068110,-0.005930
 30,0.00067602,-0.00114765,-0.00107541,-0.00846565,0.05053512,0.0150644
 4,-0.00483701,-0.01081095,0.00146463,0.00516807,-0.00427921,-0.0008450
 3,-0.00039560,0.00060080,-0.00005559,-0.00023571,0.00015465,0.12628558
 ,-0.00443838,-0.14495345,-0.01478657,0.00052380,0.01357147,-0.14041296
 ,0.00440637,0.15532842,-0.00180999,-0.00082830,0.00020114,0.00045819,-
 0.00017661,-0.00058472,-0.00048252,-0.00006784,0.00029843,-0.00005607,
 0.00005884,-0.00006307,-0.05080389,-0.01195039,-0.00954014,0.00014838,
 -0.02376579,-0.01532631,0.00265821,0.02295362,0.01430024,0.04875890,-0
 .00067213,-0.02453010,-0.01769259,0.00055638,0.00314920,-0.00054719,-0
 .00037247,-0.00006809,0.00022232,0.00011166,-0.00004807,-0.00010841,-0
 .01241381,-0.22784808,-0.12309568,-0.00036220,0.00243716,0.00160051,0.
 00061044,0.00075602,0.00065363,0.01297544,0.24906524,0.00091200,0.0176
 5403,0.01099187,-0.00097459,-0.00114510,0.00181042,-0.00013559,-0.0000
 5049,-0.00001068,-0.00001522,0.00007035,0.00002025,-0.00892671,-0.1261
 9266,-0.13610242,0.00072737,-0.01427533,-0.01003725,-0.00267756,-0.015
 35568,-0.01093201,0.01044847,0.13480663,0.14469771,-0.08006805,-0.0145
 5370,-0.01459682,-0.01099778,0.02732048,0.03103810,0.00237228,0.001183
 79,0.00018715,0.00036439,-0.00010277,0.00073088,0.00295724,-0.00004535
 ,-0.00195734,0.00002030,0.00083521,0.00040879,-0.00023139,0.00006684,-
 0.00002542,0.00015966,-0.00010818,0.00024758,0.58771857,-0.01154593,-0
 .15650865,-0.04281207,0.00751651,-0.00057865,-0.00652525,-0.00017571,-
 0.00053636,-0.00174001,-0.00019488,0.00021165,-0.00009587,-0.00385589,
 -0.03086860,-0.01221446,-0.00012709,0.00144480,-0.00106478,0.00028953,
 0.00047417,-0.00078701,-0.00007113,-0.00342989,0.00282716,-0.00572786,
 0.50370726,-0.00861567,-0.03886829,-0.10197664,0.01221651,-0.02344334,
 -0.02338081,0.00056318,-0.00075927,-0.00215069,-0.00012115,-0.00025847
 ,0.00153031,-0.00029781,0.01473945,0.01259804,0.00013029,0.00043770,0.
 00022263,0.00022725,-0.00050164,0.00027429,0.00016247,0.00524749,-0.00
 222903,-0.00269087,-0.05411689,0.55725670,0.00114738,-0.00106195,-0.00
 249798,0.00057399,-0.00032317,-0.00171892,0.00012671,0.00076489,0.0013
 5704,0.00046817,-0.00017159,-0.00053472,-0.00027523,-0.00023270,0.0002
 7454,-0.00005777,-0.00001097,0.00012724,0.00059555,0.00007871,-0.00025
 462,0.00016474,0.00015021,-0.00021661,-0.21703478,0.02065978,0.1268604
 9,0.23423832,0.02297096,0.00083829,-0.01326114,0.00194318,-0.00530446,
 -0.00633920,-0.00079199,0.00054771,0.00018824,0.00019374,-0.00020947,0
 .00000284,0.00001120,0.00062023,0.00048056,0.00006560,-0.00006280,-0.0
 0005641,-0.00026017,-0.00091836,0.00028100,-0.00023623,0.00038452,0.00
 008397,0.01922659,-0.05261860,-0.01486524,-0.02141094,0.05301848,0.014
 19872,0.00205114,-0.01027988,0.00052243,-0.00538359,-0.00361217,-0.000
 85825,0.00090194,0.00093157,-0.00001151,0.00011232,-0.00022724,0.00002
 273,0.00079109,0.00021187,-0.00010817,0.00003773,0.00001778,-0.0002747
 6,-0.00009530,0.00061892,-0.00026249,0.00005584,-0.00001707,0.12625454
 ,-0.01605134,-0.14260595,-0.13928525,0.01803373,0.15261424,-0.00159568
 ,-0.00008915,-0.00115836,-0.00069211,-0.00060498,-0.00071261,-0.001121
 42,0.00156128,0.00231824,-0.00010098,0.00019322,0.00010694,-0.00001459
 ,0.00033812,0.00004526,0.00034416,-0.00040865,0.00016562,-0.00009126,-
 0.00008245,-0.00009857,0.00020678,-0.00004457,0.00016886,-0.22985025,0
 .00270532,-0.12591748,-0.02045903,0.00062880,-0.01553450,0.24932475,-0
 .02615687,0.00128493,-0.01564176,-0.00076283,0.00113520,0.00137413,0.0
 0131978,-0.00000640,0.00040456,0.00024781,0.00000124,0.00007755,-0.000
 60616,0.00159031,-0.00047702,0.00026185,-0.00068869,0.00038979,0.00000
 459,-0.00005660,-0.00000906,0.00029345,0.00026368,0.00010008,0.0046621
 3,-0.04989042,0.00556783,0.00214078,-0.00108075,0.00200187,-0.00404468
 ,0.05167736,-0.01584113,0.00109066,-0.01102573,-0.00099780,0.00043448,
 0.00012498,0.00059719,0.00130608,0.00186725,0.00105702,-0.00033528,-0.
 00103008,0.00056839,0.00096882,0.00021503,0.00010669,-0.00032102,0.000
 64070,0.00014392,0.00003686,0.00000281,0.00020168,0.00003295,-0.000061
 48,-0.12491489,0.00460324,-0.13546707,0.01719606,-0.00018006,0.0134982
 2,0.13830690,-0.00313129,0.14378881,-0.00204335,-0.00144341,0.00246514
 ,0.00056948,0.00039239,-0.00053498,-0.00041429,-0.00000806,0.00016955,
 -0.00031695,0.00027690,0.00003259,0.00015609,-0.00037791,-0.00046649,0
 .00017453,-0.00027797,0.00020785,0.00017946,0.00024475,-0.00028783,0.0
 0058406,-0.00020922,0.00010555,-0.05076903,-0.00781252,0.00443207,0.00
 006218,-0.02219055,0.01569138,0.00311703,0.02268580,-0.01650930,0.0487
 0080,-0.00218850,-0.02419666,0.01996746,-0.00030946,0.00351551,0.00029
 015,0.00042310,0.00000072,0.00003689,0.00042801,-0.00039801,-0.0000888
 4,-0.00033948,-0.00393478,-0.00536076,0.00004785,0.00029436,-0.0000739
 8,-0.00013574,0.00039508,-0.00004023,-0.00006483,-0.00168365,0.0011105
 8,-0.00777627,-0.21160339,0.12612129,-0.00053248,0.00384356,-0.0028500
 3,0.00054204,0.00045466,-0.00052137,0.00939739,0.23170400,-0.00096013,
 -0.01531413,0.01077104,-0.00087611,0.00124386,0.00172351,-0.00012706,0
 .00004923,0.00013430,-0.00011490,0.00012580,-0.00000153,-0.00005408,-0
 .00266889,-0.00167536,0.00015042,-0.00014671,-0.00005089,-0.00022862,-
 0.00008302,0.00000434,-0.00001281,-0.00090392,0.00078625,0.00572475,0.
 12848890,-0.14880763,-0.00081093,0.01486064,-0.01167026,0.00253711,0.0
 1351939,-0.01096518,-0.00554481,-0.13876254,0.15864846,-0.13140424,0.0
 0128397,-0.04890670,-0.04442850,0.00253858,-0.01526684,-0.00598883,-0.
 00076710,0.00323970,-0.00104497,0.00066401,-0.00040598,0.00102660,0.00
 377342,-0.00490003,0.00056322,-0.00140999,0.00150157,-0.00011895,-0.00
 030657,0.00063384,0.00001238,-0.00071233,0.00038953,-0.00164516,-0.004
 08852,-0.00637041,-0.00007658,0.00041508,0.00057047,0.00064788,0.00102
 514,0.00111279,0.00003761,0.00089553,0.00032223,0.51895999,0.00147071,
 -0.08020987,0.00139007,0.00254222,0.00172791,0.00126167,0.00046424,0.0
 0030190,0.00022839,0.00022569,-0.00010576,-0.00047224,0.02297167,-0.00
 300407,0.01845099,0.00032243,-0.00441861,0.00378107,0.00010309,0.00078
 050,-0.00083652,0.00072549,0.00073646,0.00052603,-0.02392584,-0.001191
 48,-0.01846658,-0.00006449,0.00087322,0.00073763,-0.00116096,-0.004920
 60,-0.00373926,-0.00064827,0.00072659,-0.00052879,0.00166631,0.5920277
 9,-0.05432819,0.00140701,-0.12376991,0.00730649,-0.00036019,0.01298874
 ,0.01266017,0.00061651,0.00103412,0.00102073,-0.00091070,0.00045321,-0
 .01866060,0.00483764,-0.01551805,0.00027751,0.00287561,-0.00207390,-0.
 00035571,-0.00068571,0.00042760,0.00044555,-0.00160708,0.00100619,-0.0
 1763037,-0.00328572,-0.01406907,-0.00028212,0.00067252,0.00039732,-0.0
 0016909,-0.00276167,-0.00176268,0.00070916,0.00153035,0.00096264,-0.05
 850493,0.00200669,0.54212820,-0.00070833,-0.02350514,-0.01538522,0.000
 66752,-0.00049380,-0.00045160,0.00076004,0.00059513,0.00060320,0.00020
 910,-0.00012579,-0.00001039,0.00065996,-0.00098439,0.00091712,-0.00006
 506,-0.00001938,0.00027188,0.00002411,0.00012352,0.00007685,0.00012620
 ,0.00063065,-0.00012314,-0.00450348,0.00115549,-0.00231973,0.00017587,
 0.00006058,-0.00020138,-0.00004107,-0.00134882,-0.00119587,-0.00005405
 ,0.00019614,0.00016030,-0.04845131,-0.00229459,-0.00156011,0.04997576,
 -0.00061299,-0.00001713,0.00102483,0.00041216,0.00006336,0.00004918,-0
 .00028290,0.00034683,0.00029648,0.00009381,-0.00003661,-0.00000250,0.0
 0020675,0.00074080,0.00075742,-0.00009872,0.00013112,0.00001549,-0.000
 04003,0.00000023,0.00009529,0.00021149,0.00038840,0.00002710,-0.000588
 91,0.00081819,-0.00009794,0.00014545,-0.00003787,0.00009841,0.00018350
 ,0.00017627,-0.00027629,0.00023841,0.00041033,0.00007937,-0.00396336,-
 0.23320066,-0.12421845,0.00347156,0.25025089,0.00092026,-0.01799204,-0
 .01307339,0.00151698,0.00033769,0.00101142,-0.00002610,0.00057315,0.00
 004457,0.00020502,-0.00003677,-0.00003206,0.00079893,-0.00145146,0.000
 48309,0.00003321,0.00030005,0.00038442,-0.00009950,0.00003998,-0.00007
 326,-0.00033549,0.00109302,-0.00005926,-0.00404294,0.00149159,-0.00199
 607,0.00007486,0.00034613,0.00028591,-0.00022362,-0.00142810,-0.000480
 84,-0.00004033,-0.00019605,0.00018259,-0.00302375,-0.12277229,-0.13440
 171,0.00535589,0.13661760,0.14405876,-0.02030836,0.00118561,0.01760937
 ,-0.00269715,0.00003457,-0.00511723,-0.00228947,-0.00031325,0.00039907
 ,-0.00027635,0.00036437,-0.00010844,0.00074538,-0.00027517,0.00112194,
 0.00031649,-0.00026926,-0.00010269,0.00045188,0.00043573,-0.00082185,-
 0.00003367,0.00001064,-0.00009141,0.00072606,0.00022639,0.00100713,0.0
 0035446,-0.00048845,-0.00076376,0.00036150,0.00021736,-0.00010440,-0.0
 0007706,0.00000513,-0.00010108,-0.23857559,0.01074159,0.11950009,0.002
 02950,0.00044299,-0.00130595,0.25934931,0.00033512,-0.00192004,-0.0007
 0691,0.00010498,-0.00064734,0.00022533,-0.00008760,0.00114057,-0.00022
 391,0.00029975,-0.00002573,0.00017617,0.00021439,-0.00008321,-0.000219
 59,-0.00016560,-0.00007109,-0.00005020,0.00014948,0.00009884,0.0004928
 4,0.00013343,-0.00004361,-0.00007313,-0.00027313,-0.00010478,0.0001236
 7,-0.00017004,0.00010935,-0.00032070,0.00015263,-0.00006360,0.00006807
 ,-0.00018510,-0.00003224,0.00004898,0.01070582,-0.04861099,-0.00666792
 ,0.02448854,0.00000289,-0.01378884,-0.01189795,0.04770806,-0.01760571,
 0.00102250,0.01191075,-0.00119690,-0.00000575,-0.00272903,-0.00287640,
 -0.00006958,0.00031446,-0.00030332,0.00015793,-0.00008684,0.00035016,-
 0.00000827,0.00043932,0.00008681,-0.00028161,0.00027934,-0.00021524,0.
 00026013,-0.00024814,0.00004897,0.00008103,-0.00004125,0.00034897,-0.0
 0001430,0.00035296,-0.00020878,-0.00023394,-0.00005439,0.00014084,0.00
 029213,0.00025328,0.00001608,-0.00008729,-0.00004748,0.12161570,-0.006
 82209,-0.12441325,0.01506618,0.00085292,-0.00960775,-0.13109669,0.0074
 0008,0.13378420,0.00142463,0.02277514,-0.01606664,0.00093318,0.0002203
 6,-0.00050996,0.00072843,-0.00030246,0.00049553,-0.00008350,-0.0000725
 9,0.00000455,-0.00451415,-0.00070841,-0.00228120,0.00017971,0.00125672
 ,-0.00122876,0.00016843,-0.00007829,-0.00023714,-0.00009135,-0.0001505
 1,0.00016147,0.00078143,0.00104650,0.00073372,-0.00000397,-0.00013739,
 0.00003982,-0.00003570,0.00006066,0.00027274,0.00009349,-0.00058843,-0
 .00006427,-0.04951352,-0.01313927,0.00957141,-0.00080476,0.00018078,0.
 00019253,-0.00007691,-0.02380471,0.01582932,0.05081457,0.00039859,-0.0
 0156655,-0.00021482,-0.00036778,0.00016707,0.00005030,0.00024199,0.000
 25338,-0.00039441,0.00008938,0.00000732,0.00008654,0.00091882,0.000808
 35,0.00014966,-0.00017380,0.00015814,0.00036668,-0.00016184,-0.0000319
 4,-0.00004149,-0.00019066,0.00047080,-0.00011352,-0.00019304,0.0006747
 5,-0.00085978,0.00003851,-0.00000305,-0.00012073,0.00013054,0.00012340
 ,-0.00003659,-0.00008261,0.00050393,-0.00000817,-0.01171999,-0.2215123
 4,0.12655111,-0.00194971,-0.02003702,0.01686635,-0.00042029,0.00254293
 ,-0.00254389,0.01344190,0.23744083,0.00269430,0.01732437,-0.01372773,0
 .00142557,-0.00057154,0.00100748,0.00005583,-0.00045594,0.00003552,-0.
 00013636,0.00003734,0.00004824,-0.00436854,-0.00122217,-0.00193393,-0.
 00001323,0.00140173,-0.00060069,0.00005636,-0.00031951,0.00031373,0.00
 001807,0.00016146,0.00017775,0.00091790,0.00129682,0.00044804,-0.00008
 030,-0.00001362,-0.00010888,0.00002445,-0.00027842,0.00040198,-0.00044
 563,-0.00107564,0.00000521,0.00799280,0.12525524,-0.14338946,-0.001203
 98,-0.01531893,0.01327359,-0.00002410,0.01351605,-0.01010619,-0.006913
 12,-0.13973724,0.15415532\\-0.00005577,0.00000082,0.00001676,0.0000963
 2,-0.00000235,0.00002375,-0.00011198,-0.00002891,-0.00001462,-0.000007
 52,0.00000866,-0.00001706,0.00000125,0.00000494,-0.00000889,0.00001040
 ,0.00000595,0.00000524,0.00000161,0.00000698,0.00000308,-0.00000629,-0
 .00000204,0.00000885,0.00002022,-0.00001808,-0.00000767,-0.00000052,-0
 .00000052,-0.00001140,0.00001298,0.00002248,0.00001308,0.00000627,0.00
 000064,-0.00001061,0.00002740,0.00000210,-0.00001290,-0.00000106,0.000
 00582,0.00000543,-0.00000200,-0.00000427,0.00000066,0.00000869,-0.0000
 0222,0.00000630\\\@


 THE ONLY DIFFERENCE BETWEEN ECCENTRICS AND JOGGERS
 IS THAT JOGGERS WEAR SWEATBANDS WHEN THEY RUN IN THE RAIN.
 Job cpu time:  0 days  0 hours  4 minutes 49.9 seconds.
 File lengths (MBytes):  RWF=     29 Int=      0 D2E=      0 Chk=      3 Scr=      1
 Normal termination of Gaussian 09 at Tue Aug 25 00:36:12 2015.
