 Entering Gaussian System, Link 0=/share/apps/g09/g09
 Input=C4H9OH_1_1_opt_631gd.gjf
 Output=C4H9OH_1_1_opt_631gd.log
 Initial command:
 /share/apps/g09/l1.exe /state/partition1/Gau-12928.inp -scrdir=/state/partition1/
 Entering Link 1 = /share/apps/g09/l1.exe PID=     12930.
  
 Copyright (c) 1988,1990,1992,1993,1995,1998,2003,2009, Gaussian, Inc.
                  All Rights Reserved.
  
 This is part of the Gaussian(R) 09 program.  It is based on
 the Gaussian(R) 03 system (copyright 2003, Gaussian, Inc.),
 the Gaussian(R) 98 system (copyright 1998, Gaussian, Inc.),
 the Gaussian(R) 94 system (copyright 1995, Gaussian, Inc.),
 the Gaussian 92(TM) system (copyright 1992, Gaussian, Inc.),
 the Gaussian 90(TM) system (copyright 1990, Gaussian, Inc.),
 the Gaussian 88(TM) system (copyright 1988, Gaussian, Inc.),
 the Gaussian 86(TM) system (copyright 1986, Carnegie Mellon
 University), and the Gaussian 82(TM) system (copyright 1983,
 Carnegie Mellon University). Gaussian is a federally registered
 trademark of Gaussian, Inc.
  
 This software contains proprietary and confidential information,
 including trade secrets, belonging to Gaussian, Inc.
  
 This software is provided under written license and may be
 used, copied, transmitted, or stored only in accord with that
 written license.
  
 The following legend is applicable only to US Government
 contracts under FAR:
  
                    RESTRICTED RIGHTS LEGEND
  
 Use, reproduction and disclosure by the US Government is
 subject to restrictions as set forth in subparagraphs (a)
 and (c) of the Commercial Computer Software - Restricted
 Rights clause in FAR 52.227-19.
  
 Gaussian, Inc.
 340 Quinnipiac St., Bldg. 40, Wallingford CT 06492
  
  
 ---------------------------------------------------------------
 Warning -- This program may not be used in any manner that
 competes with the business of Gaussian, Inc. or will provide
 assistance to any competitor of Gaussian, Inc.  The licensee
 of this program is prohibited from giving any competitor of
 Gaussian, Inc. access to this program.  By using this program,
 the user acknowledges that Gaussian, Inc. is engaged in the
 business of creating and licensing software in the field of
 computational chemistry and represents and warrants to the
 licensee that it is not a competitor of Gaussian, Inc. and that
 it will not use this program in any manner prohibited above.
 ---------------------------------------------------------------
  

 Cite this work as:
 Gaussian 09, Revision A.01,
 M. J. Frisch, G. W. Trucks, H. B. Schlegel, G. E. Scuseria, 
 M. A. Robb, J. R. Cheeseman, G. Scalmani, V. Barone, B. Mennucci, 
 G. A. Petersson, H. Nakatsuji, M. Caricato, X. Li, H. P. Hratchian, 
 A. F. Izmaylov, J. Bloino, G. Zheng, J. L. Sonnenberg, M. Hada, 
 M. Ehara, K. Toyota, R. Fukuda, J. Hasegawa, M. Ishida, T. Nakajima, 
 Y. Honda, O. Kitao, H. Nakai, T. Vreven, J. A. Montgomery, Jr., 
 J. E. Peralta, F. Ogliaro, M. Bearpark, J. J. Heyd, E. Brothers, 
 K. N. Kudin, V. N. Staroverov, R. Kobayashi, J. Normand, 
 K. Raghavachari, A. Rendell, J. C. Burant, S. S. Iyengar, J. Tomasi, 
 M. Cossi, N. Rega, J. M. Millam, M. Klene, J. E. Knox, J. B. Cross, 
 V. Bakken, C. Adamo, J. Jaramillo, R. Gomperts, R. E. Stratmann, 
 O. Yazyev, A. J. Austin, R. Cammi, C. Pomelli, J. W. Ochterski, 
 R. L. Martin, K. Morokuma, V. G. Zakrzewski, G. A. Voth, 
 P. Salvador, J. J. Dannenberg, S. Dapprich, A. D. Daniels, 
 O. Farkas, J. B. Foresman, J. V. Ortiz, J. Cioslowski, 
 and D. J. Fox, Gaussian, Inc., Wallingford CT, 2009.
 
 ******************************************
 Gaussian 09:  EM64L-G09RevA.01  8-May-2009
                22-Aug-2015 
 ******************************************
 %mem=28GB
 %nprocshared=12
 Will use up to   12 processors via shared memory.
 %chk=C4H9OH_1_1_opt_631gd.chk
 --------------------------
 #p b3lyp/6-31g(d) opt freq
 --------------------------
 1/14=-1,18=20,19=15,26=3,38=1/1,3;
 2/9=110,12=2,17=6,18=5,40=1/2;
 3/5=1,6=6,7=1,11=2,16=1,25=1,30=1,71=1,74=-5/1,2,3;
 4//1;
 5/5=2,38=5/2;
 6/7=2,8=2,9=2,10=2,28=1/1;
 7//1,2,3,16;
 1/14=-1,18=20,19=15/3(2);
 2/9=110/2;
 99//99;
 2/9=110/2;
 3/5=1,6=6,7=1,11=2,16=1,25=1,30=1,71=1,74=-5/1,2,3;
 4/5=5,16=3/1;
 5/5=2,38=5/2;
 7//1,2,3,16;
 1/14=-1,18=20,19=15/3(-5);
 2/9=110/2;
 6/7=2,8=2,9=2,10=2,19=2,28=1/1;
 99/9=1/99;
 Leave Link    1 at Sat Aug 22 22:05:30 2015, MaxMem= 3758096384 cpu:       0.5
 (Enter /share/apps/g09/l101.exe)
 -----------------------------
 using ub3lyp/6-31G(d) to scan
 -----------------------------
 Symbolic Z-matrix:
 Charge =  0 Multiplicity = 1
 C                    -3.13542  -0.08333   0. 
 H                    -2.77876  -1.09214   0. 
 H                    -2.77874   0.42106  -0.87365 
 H                    -4.20542  -0.08332   0. 
 C                    -2.62207   0.64262   1.2574 
 H                    -2.97713   1.652     1.25643 
 H                    -2.98034   0.13935   2.13106 
 C                    -1.08208   0.64017   1.25881 
 H                    -0.72381   1.14311   0.38497 
 H                    -0.72702  -0.36921   1.26017 
 C                    -0.56873   1.36659   2.51595 
 H                    -0.92707   0.8637    3.38978 
 H                    -0.92372   2.37599   2.51455 
 O                     0.86126   1.36421   2.51731 
 H                     1.18172   1.81696   3.30084 
 
 NAtoms=     15 NQM=     15 NQMF=      0 NMic=      0 NMicF=      0 NTot=     15.
                    Isotopes and Nuclear Properties:
 (Nuclear quadrupole moments (NQMom) in fm**2, nuclear magnetic moments (NMagM)
  in nuclear magnetons)

  Atom         1           2           3           4           5           6           7           8           9          10
 IAtWgt=          12           1           1           1          12           1           1          12           1           1
 AtmWgt=  12.0000000   1.0078250   1.0078250   1.0078250  12.0000000   1.0078250   1.0078250  12.0000000   1.0078250   1.0078250
 NucSpn=           0           1           1           1           0           1           1           0           1           1
 AtZEff=   0.0000000   0.0000000   0.0000000   0.0000000   0.0000000   0.0000000   0.0000000   0.0000000   0.0000000   0.0000000
 NQMom=    0.0000000   0.0000000   0.0000000   0.0000000   0.0000000   0.0000000   0.0000000   0.0000000   0.0000000   0.0000000
 NMagM=    0.0000000   2.7928460   2.7928460   2.7928460   0.0000000   2.7928460   2.7928460   0.0000000   2.7928460   2.7928460

  Atom        11          12          13          14          15
 IAtWgt=          12           1           1          16           1
 AtmWgt=  12.0000000   1.0078250   1.0078250  15.9949146   1.0078250
 NucSpn=           0           1           1           0           1
 AtZEff=   0.0000000   0.0000000   0.0000000   0.0000000   0.0000000
 NQMom=    0.0000000   0.0000000   0.0000000   0.0000000   0.0000000
 NMagM=    0.0000000   2.7928460   2.7928460   0.0000000   2.7928460
 Leave Link  101 at Sat Aug 22 22:05:32 2015, MaxMem= 3758096384 cpu:       0.6
 (Enter /share/apps/g09/l103.exe)

 GradGradGradGradGradGradGradGradGradGradGradGradGradGradGradGradGradGrad
 Berny optimization.
 Initialization pass.
                           ----------------------------
                           !    Initial Parameters    !
                           ! (Angstroms and Degrees)  !
 --------------------------                            --------------------------
 ! Name  Definition              Value          Derivative Info.                !
 --------------------------------------------------------------------------------
 ! R1    R(1,2)                  1.07           estimate D2E/DX2                !
 ! R2    R(1,3)                  1.07           estimate D2E/DX2                !
 ! R3    R(1,4)                  1.07           estimate D2E/DX2                !
 ! R4    R(1,5)                  1.54           estimate D2E/DX2                !
 ! R5    R(5,6)                  1.07           estimate D2E/DX2                !
 ! R6    R(5,7)                  1.07           estimate D2E/DX2                !
 ! R7    R(5,8)                  1.54           estimate D2E/DX2                !
 ! R8    R(8,9)                  1.07           estimate D2E/DX2                !
 ! R9    R(8,10)                 1.07           estimate D2E/DX2                !
 ! R10   R(8,11)                 1.54           estimate D2E/DX2                !
 ! R11   R(11,12)                1.07           estimate D2E/DX2                !
 ! R12   R(11,13)                1.07           estimate D2E/DX2                !
 ! R13   R(11,14)                1.43           estimate D2E/DX2                !
 ! R14   R(14,15)                0.96           estimate D2E/DX2                !
 ! A1    A(2,1,3)              109.4712         estimate D2E/DX2                !
 ! A2    A(2,1,4)              109.4712         estimate D2E/DX2                !
 ! A3    A(2,1,5)              109.4712         estimate D2E/DX2                !
 ! A4    A(3,1,4)              109.4712         estimate D2E/DX2                !
 ! A5    A(3,1,5)              109.4713         estimate D2E/DX2                !
 ! A6    A(4,1,5)              109.4712         estimate D2E/DX2                !
 ! A7    A(1,5,6)              109.4712         estimate D2E/DX2                !
 ! A8    A(1,5,7)              109.4712         estimate D2E/DX2                !
 ! A9    A(1,5,8)              109.4712         estimate D2E/DX2                !
 ! A10   A(6,5,7)              109.4712         estimate D2E/DX2                !
 ! A11   A(6,5,8)              109.4713         estimate D2E/DX2                !
 ! A12   A(7,5,8)              109.4712         estimate D2E/DX2                !
 ! A13   A(5,8,9)              109.4712         estimate D2E/DX2                !
 ! A14   A(5,8,10)             109.4712         estimate D2E/DX2                !
 ! A15   A(5,8,11)             109.4712         estimate D2E/DX2                !
 ! A16   A(9,8,10)             109.4712         estimate D2E/DX2                !
 ! A17   A(9,8,11)             109.4713         estimate D2E/DX2                !
 ! A18   A(10,8,11)            109.4712         estimate D2E/DX2                !
 ! A19   A(8,11,12)            109.4712         estimate D2E/DX2                !
 ! A20   A(8,11,13)            109.4712         estimate D2E/DX2                !
 ! A21   A(8,11,14)            109.4712         estimate D2E/DX2                !
 ! A22   A(12,11,13)           109.4712         estimate D2E/DX2                !
 ! A23   A(12,11,14)           109.4713         estimate D2E/DX2                !
 ! A24   A(13,11,14)           109.4712         estimate D2E/DX2                !
 ! A25   A(11,14,15)           109.5            estimate D2E/DX2                !
 ! D1    D(2,1,5,6)            179.8889         estimate D2E/DX2                !
 ! D2    D(2,1,5,7)            -60.1111         estimate D2E/DX2                !
 ! D3    D(2,1,5,8)             59.8889         estimate D2E/DX2                !
 ! D4    D(3,1,5,6)             59.8889         estimate D2E/DX2                !
 ! D5    D(3,1,5,7)            179.8889         estimate D2E/DX2                !
 ! D6    D(3,1,5,8)            -60.1111         estimate D2E/DX2                !
 ! D7    D(4,1,5,6)            -60.1111         estimate D2E/DX2                !
 ! D8    D(4,1,5,7)             59.8889         estimate D2E/DX2                !
 ! D9    D(4,1,5,8)            179.8889         estimate D2E/DX2                !
 ! D10   D(1,5,8,9)             59.9786         estimate D2E/DX2                !
 ! D11   D(1,5,8,10)           -60.0214         estimate D2E/DX2                !
 ! D12   D(1,5,8,11)           179.9786         estimate D2E/DX2                !
 ! D13   D(6,5,8,9)            -60.0214         estimate D2E/DX2                !
 ! D14   D(6,5,8,10)           179.9786         estimate D2E/DX2                !
 ! D15   D(6,5,8,11)            59.9786         estimate D2E/DX2                !
 ! D16   D(7,5,8,9)            179.9786         estimate D2E/DX2                !
 ! D17   D(7,5,8,10)            59.9786         estimate D2E/DX2                !
 ! D18   D(7,5,8,11)           -60.0214         estimate D2E/DX2                !
 ! D19   D(5,8,11,12)           59.9953         estimate D2E/DX2                !
 ! D20   D(5,8,11,13)          -60.0047         estimate D2E/DX2                !
 ! D21   D(5,8,11,14)          179.9953         estimate D2E/DX2                !
 ! D22   D(9,8,11,12)          179.9953         estimate D2E/DX2                !
 ! D23   D(9,8,11,13)           59.9953         estimate D2E/DX2                !
 ! D24   D(9,8,11,14)          -60.0047         estimate D2E/DX2                !
 ! D25   D(10,8,11,12)         -60.0047         estimate D2E/DX2                !
 ! D26   D(10,8,11,13)         179.9953         estimate D2E/DX2                !
 ! D27   D(10,8,11,14)          59.9953         estimate D2E/DX2                !
 ! D28   D(8,11,14,15)        -179.9992         estimate D2E/DX2                !
 ! D29   D(12,11,14,15)        -59.9992         estimate D2E/DX2                !
 ! D30   D(13,11,14,15)         60.0008         estimate D2E/DX2                !
 --------------------------------------------------------------------------------
 Trust Radius=3.00D-01 FncErr=1.00D-07 GrdErr=1.00D-06
 Number of steps in this run=  79 maximum allowed number of steps= 100.
 GradGradGradGradGradGradGradGradGradGradGradGradGradGradGradGradGradGrad

 Leave Link  103 at Sat Aug 22 22:05:32 2015, MaxMem= 3758096384 cpu:       0.1
 (Enter /share/apps/g09/l202.exe)
                          Input orientation:                          
 ---------------------------------------------------------------------
 Center     Atomic      Atomic             Coordinates (Angstroms)
 Number     Number       Type             X           Y           Z
 ---------------------------------------------------------------------
      1          6           0       -3.135417   -0.083333    0.000000
      2          1           0       -2.778762   -1.092143    0.000000
      3          1           0       -2.778744    0.421065   -0.873652
      4          1           0       -4.205417   -0.083320    0.000000
      5          6           0       -2.622075    0.642623    1.257405
      6          1           0       -2.977131    1.651996    1.256428
      7          1           0       -2.980344    0.139355    2.131055
      8          6           0       -1.082077    0.640166    1.258813
      9          1           0       -0.723809    1.143107    0.384974
     10          1           0       -0.727021   -0.369207    1.260167
     11          6           0       -0.568734    1.366592    2.515946
     12          1           0       -0.927071    0.863698    3.389784
     13          1           0       -0.923722    2.375989    2.514551
     14          8           0        0.861263    1.364215    2.517309
     15          1           0        1.181724    1.816959    3.300845
 ---------------------------------------------------------------------
                    Distance matrix (angstroms):
                    1          2          3          4          5
     1  C    0.000000
     2  H    1.070000   0.000000
     3  H    1.070000   1.747302   0.000000
     4  H    1.070000   1.747303   1.747303   0.000000
     5  C    1.540000   2.148263   2.148263   2.148263   0.000000
     6  H    2.148263   3.024609   2.468154   2.469538   1.070000
     7  H    2.148263   2.469538   3.024610   2.468154   1.070000
     8  C    2.514809   2.732077   2.733878   3.444313   1.540000
     9  H    2.732803   3.060618   2.515600   3.711324   2.148263
    10  H    2.733151   2.514021   3.063866   3.710659   2.148263
    11  C    3.875581   4.154466   4.155423   4.653783   2.514809
    12  H    4.155033   4.329517   4.669208   4.809889   2.732939
    13  H    4.154856   4.668199   4.329290   4.810477   2.733016
    14  O    4.940212   5.061653   5.063378   5.839816   3.773817
    15  H    5.757117   5.919789   5.921169   6.597570   4.474773
                    6          7          8          9         10
     6  H    0.000000
     7  H    1.747303   0.000000
     8  C    2.148263   2.148263   0.000000
     9  H    2.468979   3.024610   1.070000   0.000000
    10  H    3.024611   2.468713   1.070000   1.747303   0.000000
    11  C    2.732804   2.733151   1.540000   2.148263   2.148263
    12  H    3.061923   2.514956   2.148263   3.024610   2.468875
    13  H    2.514663   3.062563   2.148263   2.468817   3.024610
    14  O    4.050421   4.050607   2.425826   2.666120   2.666047
    15  H    4.637126   4.637410   3.267955   3.547877   3.547815
                   11         12         13         14         15
    11  C    0.000000
    12  H    1.070000   0.000000
    13  H    1.070000   1.747303   0.000000
    14  O    1.430000   2.051796   2.051796   0.000000
    15  H    1.970533   2.315952   2.315961   0.960000   0.000000
 Stoichiometry    C4H10O
 Framework group  C1[X(C4H10O)]
 Deg. of freedom    39
 Full point group                 C1      NOp   1
 Largest Abelian subgroup         C1      NOp   1
 Largest concise Abelian subgroup C1      NOp   1
                         Standard orientation:                         
 ---------------------------------------------------------------------
 Center     Atomic      Atomic             Coordinates (Angstroms)
 Number     Number       Type             X           Y           Z
 ---------------------------------------------------------------------
      1          6           0        2.505244   -0.292437    0.000135
      2          1           0        2.526108   -0.911364   -0.872444
      3          1           0        2.527759   -0.908277    0.874855
      4          1           0        3.356666    0.355619   -0.001815
      5          6           0        1.217397    0.551986   -0.000141
      6          1           0        1.195604    1.169497    0.873417
      7          1           0        1.195811    1.169243   -0.873885
      8          6           0       -0.008015   -0.380733   -0.000151
      9          1           0        0.013769   -0.998250    0.873404
     10          1           0        0.013581   -0.997985   -0.873898
     11          6           0       -1.295862    0.463690    0.000115
     12          1           0       -1.317606    1.081267   -0.873399
     13          1           0       -1.317497    1.080882    0.873904
     14          8           0       -2.433744   -0.402406   -0.000004
     15          1           0       -3.236822    0.123584    0.000148
 ---------------------------------------------------------------------
 Rotational constants (GHZ):     19.0011886      1.9814999      1.8763738
 Leave Link  202 at Sat Aug 22 22:05:32 2015, MaxMem= 3758096384 cpu:       0.1
 (Enter /share/apps/g09/l301.exe)
 Standard basis: 6-31G(d) (6D, 7F)
 Ernie: Thresh=  0.10000D-02 Tol=  0.10000D-05 Strict=F.
 There are    95 symmetry adapted basis functions of A   symmetry.
 Integral buffers will be    131072 words long.
 Raffenetti 2 integral format.
 Two-electron integral symmetry is turned on.
    95 basis functions,   180 primitive gaussians,    95 cartesian basis functions
    21 alpha electrons       21 beta electrons
       nuclear repulsion energy       185.5345645616 Hartrees.
 IExCor=  402 DFT=T Ex+Corr=B3LYP ExCW=0 ScaHFX=  0.200000
 ScaDFX=  0.800000  0.720000  1.000000  0.810000 ScalE2=  1.000000  1.000000
 IRadAn=      0 IRanWt=     -1 IRanGd=            0 ICorTp=0
 NAtoms=   15 NActive=   15 NUniq=   15 SFac= 7.50D-01 NAtFMM=   80 NAOKFM=F Big=F
 Leave Link  301 at Sat Aug 22 22:05:33 2015, MaxMem= 3758096384 cpu:       0.6
 (Enter /share/apps/g09/l302.exe)
 NPDir=0 NMtPBC=     1 NCelOv=     1 NCel=       1 NClECP=     1 NCelD=      1
         NCelK=      1 NCelE2=     1 NClLst=     1 CellRange=     0.0.
 One-electron integrals computed using PRISM.
 NBasis=    95 RedAO= T  NBF=    95
 NBsUse=    95 1.00D-06 NBFU=    95
 Precomputing XC quadrature grid using
 IXCGrd= 2 IRadAn=           0 IRanWt=          -1 IRanGd=           0 AccXCQ= 1.00D-10.
 NRdTot=     937 NPtTot=      118552 NUsed=      125319 NTot=      125351
 NSgBfM=    95    95    95    95    95 NAtAll=    15    15.
 Leave Link  302 at Sat Aug 22 22:05:34 2015, MaxMem= 3758096384 cpu:       3.7
 (Enter /share/apps/g09/l303.exe)
 DipDrv:  MaxL=1.
 Leave Link  303 at Sat Aug 22 22:05:34 2015, MaxMem= 3758096384 cpu:       0.3
 (Enter /share/apps/g09/l401.exe)
 Harris functional with IExCor=  402 diagonalized for initial guess.
 ExpMin= 1.61D-01 ExpMax= 5.48D+03 ExpMxC= 8.25D+02 IAcc=1 IRadAn=         1 AccDes= 0.00D+00
 HarFok:  IExCor=  402 AccDes= 0.00D+00 IRadAn=         1 IDoV= 1
 ScaDFX=  1.000000  1.000000  1.000000  1.000000
 FoFCou: FMM=F IPFlag=           0 FMFlag=      100000 FMFlg1=           0
         NFxFlg=           0 DoJE=T BraDBF=F KetDBF=T FulRan=T
         Omega=  0.000000  0.000000  1.000000  0.000000  0.000000 ICntrl=     500 IOpCl=  0
         NMat0=    1 NMatS0=    1 NMatT0=    0 NMatD0=    1 NMtDS0=    0 NMtDT0=    0
         I1Cent=           4 NGrid=           0.
 Petite list used in FoFCou.
 Harris En= -233.744603998021    
 Initial guess orbital symmetries:
       Occupied  (A) (A) (A) (A) (A) (A) (A) (A) (A) (A) (A) (A)
                 (A) (A) (A) (A) (A) (A) (A) (A) (A)
       Virtual   (A) (A) (A) (A) (A) (A) (A) (A) (A) (A) (A) (A)
                 (A) (A) (A) (A) (A) (A) (A) (A) (A) (A) (A) (A)
                 (A) (A) (A) (A) (A) (A) (A) (A) (A) (A) (A) (A)
                 (A) (A) (A) (A) (A) (A) (A) (A) (A) (A) (A) (A)
                 (A) (A) (A) (A) (A) (A) (A) (A) (A) (A) (A) (A)
                 (A) (A) (A) (A) (A) (A) (A) (A) (A) (A) (A) (A)
                 (A) (A)
 The electronic state of the initial guess is 1-A.
 Leave Link  401 at Sat Aug 22 22:05:35 2015, MaxMem= 3758096384 cpu:       3.7
 (Enter /share/apps/g09/l502.exe)
 Closed shell SCF:
 Requested convergence on RMS density matrix=1.00D-08 within 128 cycles.
 Requested convergence on MAX density matrix=1.00D-06.
 Requested convergence on             energy=1.00D-06.
 No special actions if energy rises.
 Using DIIS extrapolation, IDIIS=  1040.
 Integral symmetry usage will be decided dynamically.
       125171 words used for storage of precomputed grid.
 Keep R1 ints in memory in canonical form, NReq=11485363.
 IEnd=      172267 IEndB=      172267 NGot=  3758096384 MDV=  3747550770
 LenX=  3747550770 LenY=  3747541304
 Symmetry not used in FoFDir.
 MinBra= 0 MaxBra= 2 Meth= 1.
 IRaf=       0 NMat=   1 IRICut=       1 DoRegI=T DoRafI=F ISym2E= 0 JSym2E=0.
 Integral accuracy reduced to 1.0D-05 until final iterations.

 Cycle   1  Pass 0  IDiag  1:
 E= -233.435154167843    
 DIIS: error= 5.39D-02 at cycle   1 NSaved=   1.
 NSaved= 1 IEnMin= 1 EnMin= -233.435154167843     IErMin= 1 ErrMin= 5.39D-02
 ErrMax= 5.39D-02 EMaxC= 1.00D-01 BMatC= 2.13D-01 BMatP= 2.13D-01
 IDIUse=3 WtCom= 4.61D-01 WtEn= 5.39D-01
 Coeff-Com:  0.100D+01
 Coeff-En:   0.100D+01
 Coeff:      0.100D+01
 Gap=     0.321 Goal=   None    Shift=    0.000
 GapD=    0.321 DampG=1.000 DampE=0.500 DampFc=0.5000 IDamp=-1.
 Damping current iteration by 5.00D-01
 RMSDP=1.09D-02 MaxDP=1.46D-01              OVMax= 1.81D-01

 Cycle   2  Pass 0  IDiag  1:
 E= -233.531739355829     Delta-E=       -0.096585187986 Rises=F Damp=T
 DIIS: error= 9.48D-03 at cycle   2 NSaved=   2.
 NSaved= 2 IEnMin= 2 EnMin= -233.531739355829     IErMin= 2 ErrMin= 9.48D-03
 ErrMax= 9.48D-03 EMaxC= 1.00D-01 BMatC= 8.89D-03 BMatP= 2.13D-01
 IDIUse=3 WtCom= 9.05D-01 WtEn= 9.48D-02
 Coeff-Com:  0.920D-01 0.908D+00
 Coeff-En:   0.132D+00 0.868D+00
 Coeff:      0.958D-01 0.904D+00
 Gap=     0.346 Goal=   None    Shift=    0.000
 RMSDP=1.51D-03 MaxDP=2.12D-02 DE=-9.66D-02 OVMax= 9.50D-02

 Cycle   3  Pass 0  IDiag  1:
 E= -233.652618032129     Delta-E=       -0.120878676301 Rises=F Damp=F
 DIIS: error= 4.63D-03 at cycle   3 NSaved=   3.
 NSaved= 3 IEnMin= 3 EnMin= -233.652618032129     IErMin= 3 ErrMin= 4.63D-03
 ErrMax= 4.63D-03 EMaxC= 1.00D-01 BMatC= 2.13D-03 BMatP= 8.89D-03
 IDIUse=3 WtCom= 9.54D-01 WtEn= 4.63D-02
 Coeff-Com:  0.145D-01 0.293D+00 0.693D+00
 Coeff-En:   0.000D+00 0.000D+00 0.100D+01
 Coeff:      0.139D-01 0.279D+00 0.707D+00
 Gap=     0.336 Goal=   None    Shift=    0.000
 RMSDP=6.30D-04 MaxDP=1.38D-02 DE=-1.21D-01 OVMax= 1.42D-02

 Cycle   4  Pass 0  IDiag  1:
 E= -233.653532344091     Delta-E=       -0.000914311962 Rises=F Damp=F
 DIIS: error= 3.51D-03 at cycle   4 NSaved=   4.
 NSaved= 4 IEnMin= 4 EnMin= -233.653532344091     IErMin= 4 ErrMin= 3.51D-03
 ErrMax= 3.51D-03 EMaxC= 1.00D-01 BMatC= 9.90D-04 BMatP= 2.13D-03
 IDIUse=3 WtCom= 9.65D-01 WtEn= 3.51D-02
 Coeff-Com:  0.259D-03 0.469D-01 0.408D+00 0.545D+00
 Coeff-En:   0.000D+00 0.000D+00 0.326D+00 0.674D+00
 Coeff:      0.250D-03 0.452D-01 0.405D+00 0.550D+00
 Gap=     0.340 Goal=   None    Shift=    0.000
 RMSDP=2.85D-04 MaxDP=5.96D-03 DE=-9.14D-04 OVMax= 5.85D-03

 Cycle   5  Pass 0  IDiag  1:
 E= -233.654295041358     Delta-E=       -0.000762697267 Rises=F Damp=F
 DIIS: error= 2.95D-04 at cycle   5 NSaved=   5.
 NSaved= 5 IEnMin= 5 EnMin= -233.654295041358     IErMin= 5 ErrMin= 2.95D-04
 ErrMax= 2.95D-04 EMaxC= 1.00D-01 BMatC= 1.16D-05 BMatP= 9.90D-04
 IDIUse=3 WtCom= 9.97D-01 WtEn= 2.95D-03
 Coeff-Com:  0.246D-04 0.131D-02 0.982D-01 0.180D+00 0.720D+00
 Coeff-En:   0.000D+00 0.000D+00 0.000D+00 0.000D+00 0.100D+01
 Coeff:      0.246D-04 0.131D-02 0.980D-01 0.180D+00 0.721D+00
 Gap=     0.340 Goal=   None    Shift=    0.000
 RMSDP=4.31D-05 MaxDP=5.79D-04 DE=-7.63D-04 OVMax= 7.59D-04

 Cycle   6  Pass 0  IDiag  1:
 E= -233.654304366526     Delta-E=       -0.000009325168 Rises=F Damp=F
 DIIS: error= 9.81D-05 at cycle   6 NSaved=   6.
 NSaved= 6 IEnMin= 6 EnMin= -233.654304366526     IErMin= 6 ErrMin= 9.81D-05
 ErrMax= 9.81D-05 EMaxC= 1.00D-01 BMatC= 1.13D-06 BMatP= 1.16D-05
 IDIUse=1 WtCom= 1.00D+00 WtEn= 0.00D+00
 Coeff-Com:  0.597D-04-0.969D-03 0.369D-01 0.739D-01 0.362D+00 0.528D+00
 Coeff:      0.597D-04-0.969D-03 0.369D-01 0.739D-01 0.362D+00 0.528D+00
 Gap=     0.340 Goal=   None    Shift=    0.000
 RMSDP=1.04D-05 MaxDP=1.58D-04 DE=-9.33D-06 OVMax= 2.30D-04

 Cycle   7  Pass 0  IDiag  1:
 E= -233.654305411297     Delta-E=       -0.000001044771 Rises=F Damp=F
 DIIS: error= 1.22D-05 at cycle   7 NSaved=   7.
 NSaved= 7 IEnMin= 7 EnMin= -233.654305411297     IErMin= 7 ErrMin= 1.22D-05
 ErrMax= 1.22D-05 EMaxC= 1.00D-01 BMatC= 1.98D-08 BMatP= 1.13D-06
 IDIUse=1 WtCom= 1.00D+00 WtEn= 0.00D+00
 Coeff-Com:  0.513D-04-0.426D-03 0.559D-02 0.124D-01 0.714D-01 0.166D+00
 Coeff-Com:  0.744D+00
 Coeff:      0.513D-04-0.426D-03 0.559D-02 0.124D-01 0.714D-01 0.166D+00
 Coeff:      0.744D+00
 Gap=     0.340 Goal=   None    Shift=    0.000
 RMSDP=1.78D-06 MaxDP=2.06D-05 DE=-1.04D-06 OVMax= 3.16D-05

 Initial convergence to 1.0D-05 achieved.  Increase integral accuracy.
 Cycle   8  Pass 1  IDiag  1:
 E= -233.654447682506     Delta-E=       -0.000142271209 Rises=F Damp=F
 DIIS: error= 1.19D-05 at cycle   1 NSaved=   1.
 NSaved= 1 IEnMin= 1 EnMin= -233.654447682506     IErMin= 1 ErrMin= 1.19D-05
 ErrMax= 1.19D-05 EMaxC= 1.00D-01 BMatC= 1.72D-08 BMatP= 1.72D-08
 IDIUse=1 WtCom= 1.00D+00 WtEn= 0.00D+00
 Coeff-Com:  0.100D+01
 Coeff:      0.100D+01
 Gap=     0.340 Goal=   None    Shift=    0.000
 RMSDP=1.78D-06 MaxDP=2.06D-05 DE=-1.42D-04 OVMax= 3.67D-05

 Cycle   9  Pass 1  IDiag  1:
 E= -233.654447705963     Delta-E=       -0.000000023457 Rises=F Damp=F
 DIIS: error= 2.37D-06 at cycle   2 NSaved=   2.
 NSaved= 2 IEnMin= 2 EnMin= -233.654447705963     IErMin= 2 ErrMin= 2.37D-06
 ErrMax= 2.37D-06 EMaxC= 1.00D-01 BMatC= 6.52D-10 BMatP= 1.72D-08
 IDIUse=1 WtCom= 1.00D+00 WtEn= 0.00D+00
 Coeff-Com:  0.263D-01 0.974D+00
 Coeff:      0.263D-01 0.974D+00
 Gap=     0.340 Goal=   None    Shift=    0.000
 RMSDP=5.68D-07 MaxDP=7.24D-06 DE=-2.35D-08 OVMax= 8.93D-06

 Cycle  10  Pass 1  IDiag  1:
 E= -233.654447705945     Delta-E=        0.000000000018 Rises=F Damp=F
 DIIS: error= 2.70D-06 at cycle   3 NSaved=   3.
 NSaved= 3 IEnMin= 2 EnMin= -233.654447705963     IErMin= 2 ErrMin= 2.37D-06
 ErrMax= 2.70D-06 EMaxC= 1.00D-01 BMatC= 7.74D-10 BMatP= 6.52D-10
 IDIUse=1 WtCom= 1.00D+00 WtEn= 0.00D+00
 Coeff-Com: -0.203D-01 0.530D+00 0.490D+00
 Coeff:     -0.203D-01 0.530D+00 0.490D+00
 Gap=     0.340 Goal=   None    Shift=    0.000
 RMSDP=2.53D-07 MaxDP=4.36D-06 DE= 1.85D-11 OVMax= 4.70D-06

 Cycle  11  Pass 1  IDiag  1:
 E= -233.654447706606     Delta-E=       -0.000000000662 Rises=F Damp=F
 DIIS: error= 4.92D-07 at cycle   4 NSaved=   4.
 NSaved= 4 IEnMin= 4 EnMin= -233.654447706606     IErMin= 4 ErrMin= 4.92D-07
 ErrMax= 4.92D-07 EMaxC= 1.00D-01 BMatC= 1.67D-11 BMatP= 6.52D-10
 IDIUse=1 WtCom= 1.00D+00 WtEn= 0.00D+00
 Coeff-Com: -0.101D-01 0.205D+00 0.223D+00 0.582D+00
 Coeff:     -0.101D-01 0.205D+00 0.223D+00 0.582D+00
 Gap=     0.340 Goal=   None    Shift=    0.000
 RMSDP=5.27D-08 MaxDP=9.66D-07 DE=-6.62D-10 OVMax= 1.03D-06

 Cycle  12  Pass 1  IDiag  1:
 E= -233.654447706618     Delta-E=       -0.000000000011 Rises=F Damp=F
 DIIS: error= 1.75D-07 at cycle   5 NSaved=   5.
 NSaved= 5 IEnMin= 5 EnMin= -233.654447706618     IErMin= 5 ErrMin= 1.75D-07
 ErrMax= 1.75D-07 EMaxC= 1.00D-01 BMatC= 1.66D-12 BMatP= 1.67D-11
 IDIUse=1 WtCom= 1.00D+00 WtEn= 0.00D+00
 Coeff-Com: -0.321D-02 0.551D-01 0.658D-01 0.282D+00 0.600D+00
 Coeff:     -0.321D-02 0.551D-01 0.658D-01 0.282D+00 0.600D+00
 Gap=     0.340 Goal=   None    Shift=    0.000
 RMSDP=1.26D-08 MaxDP=2.69D-07 DE=-1.13D-11 OVMax= 2.46D-07

 Cycle  13  Pass 1  IDiag  1:
 E= -233.654447706619     Delta-E=       -0.000000000002 Rises=F Damp=F
 DIIS: error= 1.86D-08 at cycle   6 NSaved=   6.
 NSaved= 6 IEnMin= 6 EnMin= -233.654447706619     IErMin= 6 ErrMin= 1.86D-08
 ErrMax= 1.86D-08 EMaxC= 1.00D-01 BMatC= 5.37D-14 BMatP= 1.66D-12
 IDIUse=1 WtCom= 1.00D+00 WtEn= 0.00D+00
 Coeff-Com: -0.182D-03 0.412D-03 0.190D-02 0.445D-01 0.197D+00 0.757D+00
 Coeff:     -0.182D-03 0.412D-03 0.190D-02 0.445D-01 0.197D+00 0.757D+00
 Gap=     0.340 Goal=   None    Shift=    0.000
 RMSDP=2.56D-09 MaxDP=4.10D-08 DE=-1.76D-12 OVMax= 4.75D-08

 SCF Done:  E(RB3LYP) =  -233.654447707     A.U. after   13 cycles
             Convg  =    0.2563D-08             -V/T =  2.0081
 KE= 2.317681163436D+02 PE=-9.147841272350D+02 EE= 2.638269986233D+02
 Leave Link  502 at Sat Aug 22 22:05:41 2015, MaxMem= 3758096384 cpu:      60.3
 (Enter /share/apps/g09/l601.exe)
 Copying SCF densities to generalized density rwf, IOpCl= 0 IROHF=0.

 **********************************************************************

            Population analysis using the SCF density.

 **********************************************************************

 Orbital symmetries:
       Occupied  (A) (A) (A) (A) (A) (A) (A) (A) (A) (A) (A) (A)
                 (A) (A) (A) (A) (A) (A) (A) (A) (A)
       Virtual   (A) (A) (A) (A) (A) (A) (A) (A) (A) (A) (A) (A)
                 (A) (A) (A) (A) (A) (A) (A) (A) (A) (A) (A) (A)
                 (A) (A) (A) (A) (A) (A) (A) (A) (A) (A) (A) (A)
                 (A) (A) (A) (A) (A) (A) (A) (A) (A) (A) (A) (A)
                 (A) (A) (A) (A) (A) (A) (A) (A) (A) (A) (A) (A)
                 (A) (A) (A) (A) (A) (A) (A) (A) (A) (A) (A) (A)
                 (A) (A)
 The electronic state is 1-A.
 Alpha  occ. eigenvalues --  -19.12968 -10.21740 -10.17364 -10.16879 -10.16341
 Alpha  occ. eigenvalues --   -1.00304  -0.79192  -0.71503  -0.62381  -0.58344
 Alpha  occ. eigenvalues --   -0.49861  -0.48397  -0.43515  -0.42415  -0.39577
 Alpha  occ. eigenvalues --   -0.37019  -0.34408  -0.33640  -0.33097  -0.30819
 Alpha  occ. eigenvalues --   -0.25817
 Alpha virt. eigenvalues --    0.08174   0.09620   0.13494   0.13925   0.15662
 Alpha virt. eigenvalues --    0.18214   0.19397   0.19452   0.20596   0.21224
 Alpha virt. eigenvalues --    0.21906   0.24345   0.26251   0.27873   0.50339
 Alpha virt. eigenvalues --    0.52722   0.55142   0.55194   0.57366   0.60469
 Alpha virt. eigenvalues --    0.65226   0.67374   0.68938   0.73316   0.78036
 Alpha virt. eigenvalues --    0.81710   0.86070   0.86603   0.89569   0.91408
 Alpha virt. eigenvalues --    0.92641   0.94614   0.95061   0.98056   0.98279
 Alpha virt. eigenvalues --    0.99221   1.01200   1.02339   1.11994   1.23365
 Alpha virt. eigenvalues --    1.34110   1.41245   1.42305   1.44786   1.53302
 Alpha virt. eigenvalues --    1.57814   1.73502   1.75476   1.80340   1.86539
 Alpha virt. eigenvalues --    1.88620   1.94462   1.97449   2.01052   2.04871
 Alpha virt. eigenvalues --    2.07727   2.08899   2.21569   2.29397   2.31189
 Alpha virt. eigenvalues --    2.34273   2.41964   2.45085   2.45511   2.49982
 Alpha virt. eigenvalues --    2.56373   2.62776   2.78632   2.88981   3.77293
 Alpha virt. eigenvalues --    4.15925   4.27400   4.38228   4.53127
          Condensed to atoms (all electrons):
              1          2          3          4          5          6
     1  C    5.047405   0.383594   0.383587   0.375109   0.378841  -0.037820
     2  H    0.383594   0.566590  -0.031706  -0.030432  -0.035766   0.005557
     3  H    0.383587  -0.031706   0.566580  -0.030428  -0.035725  -0.004769
     4  H    0.375109  -0.030432  -0.030428   0.574134  -0.031072  -0.002622
     5  C    0.378841  -0.035766  -0.035725  -0.031072   4.976755   0.380361
     6  H   -0.037820   0.005557  -0.004769  -0.002622   0.380361   0.600673
     7  H   -0.037829  -0.004729   0.005556  -0.002658   0.380367  -0.039306
     8  C   -0.045711  -0.004982  -0.004957   0.004616   0.363917  -0.039360
     9  H   -0.003800  -0.000456   0.005080   0.000009  -0.036152  -0.005750
    10  H   -0.003824   0.005098  -0.000454   0.000008  -0.036117   0.006059
    11  C    0.003886   0.000048   0.000046  -0.000165  -0.037109  -0.004252
    12  H   -0.000076   0.000008   0.000005   0.000007  -0.001040  -0.000731
    13  H   -0.000076   0.000005   0.000008   0.000007  -0.001046   0.005767
    14  O   -0.000042  -0.000001  -0.000001   0.000000   0.002372  -0.000015
    15  H    0.000003   0.000000   0.000000   0.000000  -0.000293   0.000002
              7          8          9         10         11         12
     1  C   -0.037829  -0.045711  -0.003800  -0.003824   0.003886  -0.000076
     2  H   -0.004729  -0.004982  -0.000456   0.005098   0.000048   0.000008
     3  H    0.005556  -0.004957   0.005080  -0.000454   0.000046   0.000005
     4  H   -0.002658   0.004616   0.000009   0.000008  -0.000165   0.000007
     5  C    0.380367   0.363917  -0.036152  -0.036117  -0.037109  -0.001040
     6  H   -0.039306  -0.039360  -0.005750   0.006059  -0.004252  -0.000731
     7  H    0.600663  -0.039341   0.006059  -0.005755  -0.004251   0.005762
     8  C   -0.039341   5.022635   0.372965   0.372947   0.383741  -0.042596
     9  H    0.006059   0.372965   0.586262  -0.038439  -0.034353   0.006888
    10  H   -0.005755   0.372947  -0.038439   0.586243  -0.034345  -0.008280
    11  C   -0.004251   0.383741  -0.034353  -0.034345   4.789616   0.366864
    12  H    0.005762  -0.042596   0.006888  -0.008280   0.366864   0.658267
    13  H   -0.000729  -0.042592  -0.008281   0.006888   0.366863  -0.060179
    14  O   -0.000016  -0.046732   0.003394   0.003395   0.248767  -0.040756
    15  H    0.000002   0.006371  -0.000129  -0.000129  -0.020475  -0.003946
             13         14         15
     1  C   -0.000076  -0.000042   0.000003
     2  H    0.000005  -0.000001   0.000000
     3  H    0.000008  -0.000001   0.000000
     4  H    0.000007   0.000000   0.000000
     5  C   -0.001046   0.002372  -0.000293
     6  H    0.005767  -0.000015   0.000002
     7  H   -0.000729  -0.000016   0.000002
     8  C   -0.042592  -0.046732   0.006371
     9  H   -0.008281   0.003394  -0.000129
    10  H    0.006888   0.003395  -0.000129
    11  C    0.366863   0.248767  -0.020475
    12  H   -0.060179  -0.040756  -0.003946
    13  H    0.658266  -0.040756  -0.003946
    14  O   -0.040756   8.273590   0.230668
    15  H   -0.003946   0.230668   0.403924
 Mulliken atomic charges:
              1
     1  C   -0.443248
     2  H    0.147174
     3  H    0.147177
     4  H    0.143486
     5  C   -0.268291
     6  H    0.136205
     7  H    0.136205
     8  C   -0.260918
     9  H    0.146703
    10  H    0.146705
    11  C   -0.024882
    12  H    0.119803
    13  H    0.119803
    14  O   -0.633870
    15  H    0.387947
 Sum of Mulliken atomic charges =   0.00000
 Mulliken charges with hydrogens summed into heavy atoms:
              1
     1  C   -0.005410
     5  C    0.004120
     8  C    0.032490
    11  C    0.214724
    14  O   -0.245923
 Sum of Mulliken charges with hydrogens summed into heavy atoms =   0.00000
 Electronic spatial extent (au):  <R**2>=            663.0963
 Charge=              0.0000 electrons
 Dipole moment (field-independent basis, Debye):
    X=             -0.0181    Y=              1.5694    Z=              0.0003  Tot=              1.5695
 Quadrupole moment (field-independent basis, Debye-Ang):
   XX=            -30.2532   YY=            -33.6622   ZZ=            -32.4555
   XY=             -4.0874   XZ=             -0.0011   YZ=              0.0001
 Traceless Quadrupole moment (field-independent basis, Debye-Ang):
   XX=              1.8704   YY=             -1.5386   ZZ=             -0.3318
   XY=             -4.0874   XZ=             -0.0011   YZ=              0.0001
 Octapole moment (field-independent basis, Debye-Ang**2):
  XXX=            -34.4515  YYY=             -1.0204  ZZZ=              0.0027  XYY=             -2.0967
  XXY=             11.7335  XXZ=              0.0023  XZZ=             -2.6546  YZZ=             -0.4150
  YYZ=             -0.0019  XYZ=             -0.0013
 Hexadecapole moment (field-independent basis, Debye-Ang**3):
 XXXX=           -593.0156 YYYY=           -103.4529 ZZZZ=            -57.6172 XXXY=            -19.9602
 XXXZ=             -0.0187 YYYX=              1.8409 YYYZ=              0.0031 ZZZX=              0.0070
 ZZZY=             -0.0015 XXYY=           -135.0870 XXZZ=           -125.5750 YYZZ=            -24.7888
 XXYZ=             -0.0056 YYXZ=             -0.0041 ZZXY=             -0.7856
 N-N= 1.855345645616D+02 E-N=-9.147841289492D+02  KE= 2.317681163436D+02
 No NMR shielding tensors so no spin-rotation constants.
 Leave Link  601 at Sat Aug 22 22:05:41 2015, MaxMem= 3758096384 cpu:       5.6
 (Enter /share/apps/g09/l701.exe)
 Compute integral first derivatives.
 ... and contract with generalized density number  0.
 Leave Link  701 at Sat Aug 22 22:05:42 2015, MaxMem= 3758096384 cpu:       4.0
 (Enter /share/apps/g09/l702.exe)
 L702 exits ... SP integral derivatives will be done elsewhere.
 Leave Link  702 at Sat Aug 22 22:05:42 2015, MaxMem= 3758096384 cpu:       0.3
 (Enter /share/apps/g09/l703.exe)
 Compute integral first derivatives, UseDBF=F ICtDFT=           0.
 Integral derivatives from FoFDir, PRISM(SPDF).
 Calling FoFJK, ICntrl=      2127 FMM=F ISym2X=0 I1Cent= 0 IOpClX= 0 NMat=1 NMatS=1 NMatT=0.
 FoFCou: FMM=F IPFlag=           0 FMFlag=      100000 FMFlg1=         800
         NFxFlg=           0 DoJE=F BraDBF=F KetDBF=F FulRan=T
         Omega=  0.000000  0.000000  1.000000  0.000000  0.000000 ICntrl=    2127 IOpCl=  0
         NMat0=    1 NMatS0=    1 NMatT0=    0 NMatD0=    1 NMtDS0=    0 NMtDT0=    0
         I1Cent=           0 NGrid=           0.
 Symmetry not used in FoFCou.
 Leave Link  703 at Sat Aug 22 22:05:43 2015, MaxMem= 3758096384 cpu:      10.9
 (Enter /share/apps/g09/l716.exe)
 Dipole        =-7.12222056D-03 6.17432819D-01 1.35449128D-04
 ***** Axes restored to original set *****
 -------------------------------------------------------------------
 Center     Atomic                   Forces (Hartrees/Bohr)
 Number     Number              X              Y              Z
 -------------------------------------------------------------------
      1        6           0.002919686    0.013242939    0.022911774
      2        1           0.004349364   -0.017285106   -0.003024451
      3        1           0.004361051    0.006013160   -0.016482723
      4        1          -0.018073966   -0.002358966   -0.004101925
      5        6           0.019588466   -0.015037588   -0.025920807
      6        1          -0.007964203    0.017159877    0.002919598
      7        1          -0.008002098   -0.006009972    0.016315665
      8        6          -0.015345690    0.017455786    0.030094234
      9        1           0.008661377    0.006913989   -0.014619365
     10        1           0.008609567   -0.016146072   -0.001273162
     11        6           0.021615511   -0.011571798   -0.019913342
     12        1          -0.010468141   -0.008446113    0.017041273
     13        1          -0.010406881    0.019018089    0.001146675
     14        8           0.000309416   -0.007350403   -0.012699504
     15        1          -0.000153458    0.004402178    0.007606059
 -------------------------------------------------------------------
 Cartesian Forces:  Max     0.030094234 RMS     0.013398100
 Leave Link  716 at Sat Aug 22 22:05:43 2015, MaxMem= 3758096384 cpu:       0.3
 (Enter /share/apps/g09/l103.exe)

 GradGradGradGradGradGradGradGradGradGradGradGradGradGradGradGradGradGrad
 Berny optimization.
 Internal  Forces:  Max     0.021390856 RMS     0.007438839
 Search for a local minimum.
 Step number   1 out of a maximum of   79
 All quantities printed in internal units (Hartrees-Bohrs-Radians)
 RMS Force = .74388D-02 SwitMx=.10000D-02 MixMth= 1
 Mixed Optimization -- RFO/linear search
 Second derivative matrix not updated -- first step.
     Eigenvalues ---    0.00237   0.00237   0.00237   0.01295   0.03840
     Eigenvalues ---    0.03840   0.04896   0.04896   0.05139   0.05720
     Eigenvalues ---    0.05720   0.05816   0.07655   0.07655   0.11239
     Eigenvalues ---    0.11701   0.11701   0.13704   0.16000   0.16000
     Eigenvalues ---    0.16000   0.16000   0.21948   0.21948   0.22071
     Eigenvalues ---    0.28519   0.28519   0.28519   0.37230   0.37230
     Eigenvalues ---    0.37230   0.37230   0.37230   0.37230   0.37230
     Eigenvalues ---    0.37230   0.37230   0.40989   0.554731000.00000
     Eigenvalues --- 1000.000001000.000001000.000001000.000001000.00000
     Eigenvalues --- 1000.000001000.000001000.000001000.000001000.00000
     Eigenvalues --- 1000.000001000.000001000.000001000.000001000.00000
     Eigenvalues --- 1000.000001000.000001000.000001000.000001000.00000
     Eigenvalues --- 1000.000001000.000001000.000001000.000001000.00000
     Eigenvalues --- 1000.000001000.000001000.000001000.00000
 RFO step:  Lambda=-1.16837380D-02 EMin= 2.36824124D-03
 Linear search not attempted -- first point.
 Iteration  1 RMS(Cart)=  0.03487129 RMS(Int)=  0.00052747
 Iteration  2 RMS(Cart)=  0.00054199 RMS(Int)=  0.00019452
 Iteration  3 RMS(Cart)=  0.00000034 RMS(Int)=  0.00019452
 Variable       Old X    -DE/DX   Delta X   Delta X   Delta X     New X
                                 (Linear)    (Quad)   (Total)
    R1        2.02201   0.01774   0.00000   0.04621   0.04621   2.06822
    R2        2.02201   0.01774   0.00000   0.04621   0.04621   2.06822
    R3        2.02201   0.01808   0.00000   0.04708   0.04708   2.06908
    R4        2.91018   0.00289   0.00000   0.00975   0.00975   2.91993
    R5        2.02201   0.01883   0.00000   0.04903   0.04903   2.07104
    R6        2.02201   0.01883   0.00000   0.04903   0.04903   2.07104
    R7        2.91018   0.00283   0.00000   0.00955   0.00955   2.91972
    R8        2.02201   0.01809   0.00000   0.04711   0.04711   2.06912
    R9        2.02201   0.01809   0.00000   0.04710   0.04710   2.06911
   R10        2.91018  -0.00714   0.00000  -0.02404  -0.02404   2.88614
   R11        2.02201   0.02139   0.00000   0.05571   0.05571   2.07771
   R12        2.02201   0.02139   0.00000   0.05571   0.05571   2.07771
   R13        2.70231   0.00016   0.00000   0.00038   0.00038   2.70269
   R14        1.81414   0.00823   0.00000   0.01453   0.01453   1.82867
    A1        1.91063  -0.00351   0.00000  -0.02290  -0.02301   1.88763
    A2        1.91063  -0.00412   0.00000  -0.02279  -0.02313   1.88750
    A3        1.91063   0.00316   0.00000   0.01778   0.01755   1.92818
    A4        1.91063  -0.00412   0.00000  -0.02279  -0.02313   1.88750
    A5        1.91063   0.00316   0.00000   0.01781   0.01757   1.92820
    A6        1.91063   0.00544   0.00000   0.03289   0.03253   1.94316
    A7        1.91063  -0.00222   0.00000  -0.00446  -0.00480   1.90583
    A8        1.91063  -0.00222   0.00000  -0.00442  -0.00476   1.90587
    A9        1.91063   0.00909   0.00000   0.04933   0.04896   1.95959
   A10        1.91063  -0.00042   0.00000  -0.03401  -0.03416   1.87647
   A11        1.91063  -0.00211   0.00000  -0.00324  -0.00353   1.90710
   A12        1.91063  -0.00211   0.00000  -0.00320  -0.00350   1.90713
   A13        1.91063  -0.00111   0.00000   0.00631   0.00640   1.91703
   A14        1.91063  -0.00112   0.00000   0.00628   0.00637   1.91700
   A15        1.91063   0.00832   0.00000   0.04395   0.04373   1.95436
   A16        1.91063  -0.00003   0.00000  -0.02571  -0.02605   1.88458
   A17        1.91063  -0.00303   0.00000  -0.01541  -0.01596   1.89467
   A18        1.91063  -0.00303   0.00000  -0.01542  -0.01597   1.89466
   A19        1.91063   0.00035   0.00000  -0.00491  -0.00484   1.90579
   A20        1.91063   0.00035   0.00000  -0.00491  -0.00483   1.90580
   A21        1.91063  -0.00606   0.00000  -0.02242  -0.02232   1.88831
   A22        1.91063  -0.00192   0.00000  -0.01935  -0.01966   1.89097
   A23        1.91063   0.00364   0.00000   0.02579   0.02569   1.93633
   A24        1.91063   0.00364   0.00000   0.02580   0.02569   1.93633
   A25        1.91114  -0.00557   0.00000  -0.03247  -0.03247   1.87866
    D1        3.13965   0.00141   0.00000   0.02076   0.02071  -3.12283
    D2       -1.04914  -0.00183   0.00000  -0.02634  -0.02642  -1.07555
    D3        1.04526  -0.00021   0.00000  -0.00276  -0.00282   1.04244
    D4        1.04526   0.00184   0.00000   0.02701   0.02709   1.07235
    D5        3.13965  -0.00140   0.00000  -0.02008  -0.02003   3.11962
    D6       -1.04914   0.00022   0.00000   0.00350   0.00356  -1.04557
    D7       -1.04914   0.00162   0.00000   0.02388   0.02390  -1.02524
    D8        1.04526  -0.00161   0.00000  -0.02321  -0.02323   1.02203
    D9        3.13965   0.00001   0.00000   0.00037   0.00037   3.14002
   D10        1.04682  -0.00070   0.00000  -0.01190  -0.01207   1.03476
   D11       -1.04757   0.00070   0.00000   0.01188   0.01204  -1.03553
   D12        3.14122   0.00000   0.00000   0.00000   0.00000   3.14122
   D13       -1.04757  -0.00225   0.00000  -0.03466  -0.03487  -1.08244
   D14        3.14122  -0.00085   0.00000  -0.01088  -0.01076   3.13046
   D15        1.04682  -0.00155   0.00000  -0.02276  -0.02280   1.02403
   D16        3.14122   0.00085   0.00000   0.01093   0.01080  -3.13116
   D17        1.04682   0.00225   0.00000   0.03471   0.03491   1.08174
   D18       -1.04757   0.00155   0.00000   0.02283   0.02287  -1.02470
   D19        1.04712  -0.00096   0.00000  -0.01488  -0.01487   1.03225
   D20       -1.04728   0.00096   0.00000   0.01484   0.01483  -1.03245
   D21        3.14151   0.00000   0.00000  -0.00002  -0.00002   3.14149
   D22        3.14151   0.00091   0.00000   0.01033   0.01013  -3.13155
   D23        1.04711   0.00284   0.00000   0.04004   0.03983   1.08694
   D24       -1.04728   0.00188   0.00000   0.02518   0.02497  -1.02231
   D25       -1.04728  -0.00284   0.00000  -0.04004  -0.03982  -1.08710
   D26        3.14151  -0.00091   0.00000  -0.01033  -0.01013   3.13138
   D27        1.04712  -0.00188   0.00000  -0.02519  -0.02498   1.02214
   D28       -3.14158   0.00000   0.00000   0.00001   0.00001  -3.14157
   D29       -1.04718  -0.00106   0.00000  -0.00394  -0.00424  -1.05142
   D30        1.04721   0.00106   0.00000   0.00395   0.00424   1.05145
         Item               Value     Threshold  Converged?
 Maximum Force            0.021391     0.000450     NO 
 RMS     Force            0.007439     0.000300     NO 
 Maximum Displacement     0.087466     0.001800     NO 
 RMS     Displacement     0.034658     0.001200     NO 
 Predicted change in Energy=-6.128218D-03
 GradGradGradGradGradGradGradGradGradGradGradGradGradGradGradGradGradGrad

 Leave Link  103 at Sat Aug 22 22:05:43 2015, MaxMem= 3758096384 cpu:       0.1
 (Enter /share/apps/g09/l202.exe)
                          Input orientation:                          
 ---------------------------------------------------------------------
 Center     Atomic      Atomic             Coordinates (Angstroms)
 Number     Number       Type             X           Y           Z
 ---------------------------------------------------------------------
      1          6           0       -3.154644   -0.089516   -0.010724
      2          1           0       -2.804660   -1.126251   -0.033548
      3          1           0       -2.804145    0.408792   -0.919937
      4          1           0       -4.249391   -0.098734   -0.027330
      5          6           0       -2.617531    0.634813    1.244016
      6          1           0       -2.995578    1.663425    1.255811
      7          1           0       -2.998735    0.133024    2.140673
      8          6           0       -1.073363    0.658561    1.290546
      9          1           0       -0.682673    1.167695    0.403408
     10          1           0       -0.685859   -0.365501    1.290606
     11          6           0       -0.549962    1.376354    2.532883
     12          1           0       -0.927987    0.866891    3.430880
     13          1           0       -0.924637    2.410011    2.537900
     14          8           0        0.879494    1.350910    2.494279
     15          1           0        1.202338    1.807285    3.284162
 ---------------------------------------------------------------------
                    Distance matrix (angstroms):
                    1          2          3          4          5
     1  C    0.000000
     2  H    1.094454   0.000000
     3  H    1.094454   1.772581   0.000000
     4  H    1.094912   1.772872   1.772869   0.000000
     5  C    1.545159   2.183697   2.183713   2.194853   0.000000
     6  H    2.168460   3.079154   2.518855   2.514698   1.095948
     7  H    2.168488   2.520055   3.079163   2.513581   1.095948
     8  C    2.566058   2.817121   2.818551   3.521001   1.545051
     9  H    2.804055   3.155305   2.613009   3.809312   2.175835
    10  H    2.804377   2.611790   3.158032   3.808791   2.175812
    11  C    3.924675   4.234768   4.235502   4.734591   2.546743
    12  H    4.209199   4.415516   4.760192   4.891153   2.773228
    13  H    4.209044   4.759410   4.415208   4.891646   2.773329
    14  O    4.962271   5.108740   5.110152   5.896223   3.782213
    15  H    5.782509   5.972342   5.973452   6.657345   4.486455
                    6          7          8          9         10
     6  H    0.000000
     7  H    1.767800   0.000000
     8  C    2.169302   2.169323   0.000000
     9  H    2.514332   3.074537   1.094930   0.000000
    10  H    3.074501   2.514068   1.094926   1.771390   0.000000
    11  C    2.773870   2.774200   1.527277   2.143785   2.143777
    12  H    3.104887   2.547782   2.155357   3.052253   2.481570
    13  H    2.547536   3.105534   2.155363   2.481522   3.052249
    14  O    4.080153   4.080311   2.396241   2.616424   2.616338
    15  H    4.664482   4.664733   3.236183   3.501583   3.501507
                   11         12         13         14         15
    11  C    0.000000
    12  H    1.099479   0.000000
    13  H    1.099479   1.782875   0.000000
    14  O    1.430204   2.092482   2.092483   0.000000
    15  H    1.954655   2.333271   2.333282   0.967688   0.000000
 Stoichiometry    C4H10O
 Framework group  C1[X(C4H10O)]
 Deg. of freedom    39
 Full point group                 C1      NOp   1
 Largest Abelian subgroup         C1      NOp   1
 Largest concise Abelian subgroup C1      NOp   1
                         Standard orientation:                         
 ---------------------------------------------------------------------
 Center     Atomic      Atomic             Coordinates (Angstroms)
 Number     Number       Type             X           Y           Z
 ---------------------------------------------------------------------
      1          6           0        2.530098   -0.295142    0.000123
      2          1           0        2.574642   -0.936981   -0.885251
      3          1           0        2.575977   -0.934355    0.887327
      4          1           0        3.414788    0.349956   -0.001496
      5          6           0        1.227884    0.536575   -0.000147
      6          1           0        1.213933    1.184478    0.883668
      7          1           0        1.214107    1.184251   -0.884132
      8          6           0       -0.035306   -0.353108   -0.000131
      9          1           0       -0.036281   -0.996996    0.885464
     10          1           0       -0.036465   -0.996714   -0.885926
     11          6           0       -1.318132    0.475705    0.000127
     12          1           0       -1.332837    1.119316   -0.891167
     13          1           0       -1.332746    1.118918    0.891708
     14          8           0       -2.430520   -0.423224   -0.000019
     15          1           0       -3.238220    0.109731    0.000127
 ---------------------------------------------------------------------
 Rotational constants (GHZ):     18.6567049      1.9544496      1.8513074
 Leave Link  202 at Sat Aug 22 22:05:43 2015, MaxMem= 3758096384 cpu:       0.5
 (Enter /share/apps/g09/l301.exe)
 Standard basis: 6-31G(d) (6D, 7F)
 Ernie: Thresh=  0.10000D-02 Tol=  0.10000D-05 Strict=F.
 There are    95 symmetry adapted basis functions of A   symmetry.
 Integral buffers will be    131072 words long.
 Raffenetti 2 integral format.
 Two-electron integral symmetry is turned on.
    95 basis functions,   180 primitive gaussians,    95 cartesian basis functions
    21 alpha electrons       21 beta electrons
       nuclear repulsion energy       184.0465633694 Hartrees.
 IExCor=  402 DFT=T Ex+Corr=B3LYP ExCW=0 ScaHFX=  0.200000
 ScaDFX=  0.800000  0.720000  1.000000  0.810000 ScalE2=  1.000000  1.000000
 IRadAn=      0 IRanWt=     -1 IRanGd=            0 ICorTp=0
 NAtoms=   15 NActive=   15 NUniq=   15 SFac= 7.50D-01 NAtFMM=   80 NAOKFM=F Big=F
 Leave Link  301 at Sat Aug 22 22:05:43 2015, MaxMem= 3758096384 cpu:       0.6
 (Enter /share/apps/g09/l302.exe)
 NPDir=0 NMtPBC=     1 NCelOv=     1 NCel=       1 NClECP=     1 NCelD=      1
         NCelK=      1 NCelE2=     1 NClLst=     1 CellRange=     0.0.
 One-electron integrals computed using PRISM.
 NBasis=    95 RedAO= T  NBF=    95
 NBsUse=    95 1.00D-06 NBFU=    95
 Precomputing XC quadrature grid using
 IXCGrd= 2 IRadAn=           0 IRanWt=          -1 IRanGd=           0 AccXCQ= 1.00D-10.
 NRdTot=     937 NPtTot=      118552 NUsed=      125319 NTot=      125351
 NSgBfM=    95    95    95    95    95 NAtAll=    15    15.
 Leave Link  302 at Sat Aug 22 22:05:43 2015, MaxMem= 3758096384 cpu:       3.8
 (Enter /share/apps/g09/l303.exe)
 DipDrv:  MaxL=1.
 Leave Link  303 at Sat Aug 22 22:05:44 2015, MaxMem= 3758096384 cpu:       0.8
 (Enter /share/apps/g09/l401.exe)
 Initial guess read from the read-write file.
 B after Tr=     0.000000    0.000000    0.000000
         Rot=    1.000000    0.000000    0.000000    0.000000 Ang=   0.00 deg.
 Guess basis will be translated and rotated to current coordinates.
 Initial guess orbital symmetries:
       Occupied  (A) (A) (A) (A) (A) (A) (A) (A) (A) (A) (A) (A)
                 (A) (A) (A) (A) (A) (A) (A) (A) (A)
       Virtual   (A) (A) (A) (A) (A) (A) (A) (A) (A) (A) (A) (A)
                 (A) (A) (A) (A) (A) (A) (A) (A) (A) (A) (A) (A)
                 (A) (A) (A) (A) (A) (A) (A) (A) (A) (A) (A) (A)
                 (A) (A) (A) (A) (A) (A) (A) (A) (A) (A) (A) (A)
                 (A) (A) (A) (A) (A) (A) (A) (A) (A) (A) (A) (A)
                 (A) (A) (A) (A) (A) (A) (A) (A) (A) (A) (A) (A)
                 (A) (A)
 The electronic state of the initial guess is 1-A.
 Generating alternative initial guess.
 Harris functional with IExCor=  402 diagonalized for initial guess.
 ExpMin= 1.61D-01 ExpMax= 5.48D+03 ExpMxC= 8.25D+02 IAcc=1 IRadAn=         1 AccDes= 0.00D+00
 HarFok:  IExCor=  402 AccDes= 0.00D+00 IRadAn=         1 IDoV= 1
 ScaDFX=  1.000000  1.000000  1.000000  1.000000
 FoFCou: FMM=F IPFlag=           0 FMFlag=      100000 FMFlg1=           0
         NFxFlg=           0 DoJE=T BraDBF=F KetDBF=T FulRan=T
         Omega=  0.000000  0.000000  1.000000  0.000000  0.000000 ICntrl=     500 IOpCl=  0
         NMat0=    1 NMatS0=    1 NMatT0=    0 NMatD0=    1 NMtDS0=    0 NMtDT0=    0
         I1Cent=           4 NGrid=           0.
 Petite list used in FoFCou.
 Harris En= -233.734380043615    
 Leave Link  401 at Sat Aug 22 22:05:44 2015, MaxMem= 3758096384 cpu:       5.6
 (Enter /share/apps/g09/l502.exe)
 Closed shell SCF:
 Requested convergence on RMS density matrix=1.00D-08 within 128 cycles.
 Requested convergence on MAX density matrix=1.00D-06.
 Requested convergence on             energy=1.00D-06.
 No special actions if energy rises.
 Using DIIS extrapolation, IDIIS=  1040.
 Integral symmetry usage will be decided dynamically.
       125171 words used for storage of precomputed grid.
 Keep R1 ints in memory in canonical form, NReq=11485363.
 IEnd=      172267 IEndB=      172267 NGot=  3758096384 MDV=  3747550770
 LenX=  3747550770 LenY=  3747541304
 Symmetry not used in FoFDir.
 MinBra= 0 MaxBra= 2 Meth= 1.
 IRaf=       0 NMat=   1 IRICut=       1 DoRegI=T DoRafI=F ISym2E= 0 JSym2E=0.
 Integral accuracy reduced to 1.0D-05 until final iterations.

 Cycle   1  Pass 0  IDiag  1:
 E= -233.658927738088    
 DIIS: error= 3.21D-03 at cycle   1 NSaved=   1.
 NSaved= 1 IEnMin= 1 EnMin= -233.658927738088     IErMin= 1 ErrMin= 3.21D-03
 ErrMax= 3.21D-03 EMaxC= 1.00D-01 BMatC= 1.07D-03 BMatP= 1.07D-03
 IDIUse=3 WtCom= 9.68D-01 WtEn= 3.21D-02
 Coeff-Com:  0.100D+01
 Coeff-En:   0.100D+01
 Coeff:      0.100D+01
 Gap=     0.340 Goal=   None    Shift=    0.000
 GapD=    0.340 DampG=1.000 DampE=1.000 DampFc=1.0000 IDamp=-1.
 RMSDP=5.82D-04 MaxDP=8.48D-03              OVMax= 1.26D-02

 Cycle   2  Pass 0  IDiag  1:
 E= -233.660244048945     Delta-E=       -0.001316310857 Rises=F Damp=F
 DIIS: error= 2.41D-03 at cycle   2 NSaved=   2.
 NSaved= 2 IEnMin= 2 EnMin= -233.660244048945     IErMin= 2 ErrMin= 2.41D-03
 ErrMax= 2.41D-03 EMaxC= 1.00D-01 BMatC= 3.55D-04 BMatP= 1.07D-03
 IDIUse=3 WtCom= 9.76D-01 WtEn= 2.41D-02
 Coeff-Com:  0.316D+00 0.684D+00
 Coeff-En:   0.000D+00 0.100D+01
 Coeff:      0.308D+00 0.692D+00
 Gap=     0.340 Goal=   None    Shift=    0.000
 RMSDP=3.01D-04 MaxDP=4.95D-03 DE=-1.32D-03 OVMax= 5.49D-03

 Cycle   3  Pass 0  IDiag  1:
 E= -233.660523195342     Delta-E=       -0.000279146396 Rises=F Damp=F
 DIIS: error= 1.19D-03 at cycle   3 NSaved=   3.
 NSaved= 3 IEnMin= 3 EnMin= -233.660523195342     IErMin= 3 ErrMin= 1.19D-03
 ErrMax= 1.19D-03 EMaxC= 1.00D-01 BMatC= 9.81D-05 BMatP= 3.55D-04
 IDIUse=3 WtCom= 9.88D-01 WtEn= 1.19D-02
 Coeff-Com: -0.402D-02 0.340D+00 0.664D+00
 Coeff-En:   0.000D+00 0.192D+00 0.808D+00
 Coeff:     -0.398D-02 0.338D+00 0.666D+00
 Gap=     0.340 Goal=   None    Shift=    0.000
 RMSDP=1.01D-04 MaxDP=1.74D-03 DE=-2.79D-04 OVMax= 1.98D-03

 Cycle   4  Pass 0  IDiag  1:
 E= -233.660620831053     Delta-E=       -0.000097635711 Rises=F Damp=F
 DIIS: error= 2.36D-04 at cycle   4 NSaved=   4.
 NSaved= 4 IEnMin= 4 EnMin= -233.660620831053     IErMin= 4 ErrMin= 2.36D-04
 ErrMax= 2.36D-04 EMaxC= 1.00D-01 BMatC= 2.48D-06 BMatP= 9.81D-05
 IDIUse=3 WtCom= 9.98D-01 WtEn= 2.36D-03
 Coeff-Com: -0.716D-02 0.125D+00 0.270D+00 0.612D+00
 Coeff-En:   0.000D+00 0.000D+00 0.000D+00 0.100D+01
 Coeff:     -0.714D-02 0.125D+00 0.270D+00 0.613D+00
 Gap=     0.340 Goal=   None    Shift=    0.000
 RMSDP=2.01D-05 MaxDP=4.55D-04 DE=-9.76D-05 OVMax= 4.40D-04

 Cycle   5  Pass 0  IDiag  1:
 E= -233.660622333630     Delta-E=       -0.000001502577 Rises=F Damp=F
 DIIS: error= 1.10D-04 at cycle   5 NSaved=   5.
 NSaved= 5 IEnMin= 5 EnMin= -233.660622333630     IErMin= 5 ErrMin= 1.10D-04
 ErrMax= 1.10D-04 EMaxC= 1.00D-01 BMatC= 5.64D-07 BMatP= 2.48D-06
 IDIUse=3 WtCom= 9.99D-01 WtEn= 1.10D-03
 Coeff-Com: -0.394D-02 0.294D-01 0.702D-01 0.342D+00 0.562D+00
 Coeff-En:   0.000D+00 0.000D+00 0.000D+00 0.158D+00 0.842D+00
 Coeff:     -0.394D-02 0.294D-01 0.701D-01 0.342D+00 0.562D+00
 Gap=     0.340 Goal=   None    Shift=    0.000
 RMSDP=6.87D-06 MaxDP=1.61D-04 DE=-1.50D-06 OVMax= 1.59D-04

 Initial convergence to 1.0D-05 achieved.  Increase integral accuracy.
 Cycle   6  Pass 1  IDiag  1:
 E= -233.660722707150     Delta-E=       -0.000100373520 Rises=F Damp=F
 DIIS: error= 1.04D-05 at cycle   1 NSaved=   1.
 NSaved= 1 IEnMin= 1 EnMin= -233.660722707150     IErMin= 1 ErrMin= 1.04D-05
 ErrMax= 1.04D-05 EMaxC= 1.00D-01 BMatC= 2.09D-08 BMatP= 2.09D-08
 IDIUse=1 WtCom= 1.00D+00 WtEn= 0.00D+00
 Coeff-Com:  0.100D+01
 Coeff:      0.100D+01
 Gap=     0.340 Goal=   None    Shift=    0.000
 RMSDP=6.87D-06 MaxDP=1.61D-04 DE=-1.00D-04 OVMax= 5.28D-05

 Cycle   7  Pass 1  IDiag  1:
 E= -233.660722721314     Delta-E=       -0.000000014164 Rises=F Damp=F
 DIIS: error= 1.21D-05 at cycle   2 NSaved=   2.
 NSaved= 2 IEnMin= 2 EnMin= -233.660722721314     IErMin= 1 ErrMin= 1.04D-05
 ErrMax= 1.21D-05 EMaxC= 1.00D-01 BMatC= 1.49D-08 BMatP= 2.09D-08
 IDIUse=1 WtCom= 1.00D+00 WtEn= 0.00D+00
 Coeff-Com:  0.446D+00 0.554D+00
 Coeff:      0.446D+00 0.554D+00
 Gap=     0.340 Goal=   None    Shift=    0.000
 RMSDP=1.31D-06 MaxDP=2.98D-05 DE=-1.42D-08 OVMax= 3.08D-05

 Cycle   8  Pass 1  IDiag  1:
 E= -233.660722731417     Delta-E=       -0.000000010102 Rises=F Damp=F
 DIIS: error= 6.06D-06 at cycle   3 NSaved=   3.
 NSaved= 3 IEnMin= 3 EnMin= -233.660722731417     IErMin= 3 ErrMin= 6.06D-06
 ErrMax= 6.06D-06 EMaxC= 1.00D-01 BMatC= 2.23D-09 BMatP= 1.49D-08
 IDIUse=1 WtCom= 1.00D+00 WtEn= 0.00D+00
 Coeff-Com:  0.222D-02 0.275D+00 0.723D+00
 Coeff:      0.222D-02 0.275D+00 0.723D+00
 Gap=     0.340 Goal=   None    Shift=    0.000
 RMSDP=4.45D-07 MaxDP=1.04D-05 DE=-1.01D-08 OVMax= 9.01D-06

 Cycle   9  Pass 1  IDiag  1:
 E= -233.660722733018     Delta-E=       -0.000000001602 Rises=F Damp=F
 DIIS: error= 1.12D-06 at cycle   4 NSaved=   4.
 NSaved= 4 IEnMin= 4 EnMin= -233.660722733018     IErMin= 4 ErrMin= 1.12D-06
 ErrMax= 1.12D-06 EMaxC= 1.00D-01 BMatC= 8.68D-11 BMatP= 2.23D-09
 IDIUse=1 WtCom= 1.00D+00 WtEn= 0.00D+00
 Coeff-Com: -0.110D-01 0.118D+00 0.348D+00 0.545D+00
 Coeff:     -0.110D-01 0.118D+00 0.348D+00 0.545D+00
 Gap=     0.340 Goal=   None    Shift=    0.000
 RMSDP=1.08D-07 MaxDP=1.64D-06 DE=-1.60D-09 OVMax= 2.22D-06

 Cycle  10  Pass 1  IDiag  1:
 E= -233.660722733091     Delta-E=       -0.000000000073 Rises=F Damp=F
 DIIS: error= 1.68D-07 at cycle   5 NSaved=   5.
 NSaved= 5 IEnMin= 5 EnMin= -233.660722733091     IErMin= 5 ErrMin= 1.68D-07
 ErrMax= 1.68D-07 EMaxC= 1.00D-01 BMatC= 4.80D-12 BMatP= 8.68D-11
 IDIUse=1 WtCom= 1.00D+00 WtEn= 0.00D+00
 Coeff-Com: -0.521D-02 0.355D-01 0.111D+00 0.251D+00 0.608D+00
 Coeff:     -0.521D-02 0.355D-01 0.111D+00 0.251D+00 0.608D+00
 Gap=     0.340 Goal=   None    Shift=    0.000
 RMSDP=2.18D-08 MaxDP=3.01D-07 DE=-7.28D-11 OVMax= 4.68D-07

 Cycle  11  Pass 1  IDiag  1:
 E= -233.660722733095     Delta-E=       -0.000000000004 Rises=F Damp=F
 DIIS: error= 1.86D-08 at cycle   6 NSaved=   6.
 NSaved= 6 IEnMin= 6 EnMin= -233.660722733095     IErMin= 6 ErrMin= 1.86D-08
 ErrMax= 1.86D-08 EMaxC= 1.00D-01 BMatC= 3.38D-14 BMatP= 4.80D-12
 IDIUse=1 WtCom= 1.00D+00 WtEn= 0.00D+00
 Coeff-Com: -0.695D-03 0.357D-02 0.117D-01 0.297D-01 0.116D+00 0.839D+00
 Coeff:     -0.695D-03 0.357D-02 0.117D-01 0.297D-01 0.116D+00 0.839D+00
 Gap=     0.340 Goal=   None    Shift=    0.000
 RMSDP=3.03D-09 MaxDP=4.43D-08 DE=-4.04D-12 OVMax= 5.72D-08

 SCF Done:  E(RB3LYP) =  -233.660722733     A.U. after   11 cycles
             Convg  =    0.3030D-08             -V/T =  2.0096
 KE= 2.314296491470D+02 PE=-9.115282234884D+02 EE= 2.623912882389D+02
 Leave Link  502 at Sat Aug 22 22:05:47 2015, MaxMem= 3758096384 cpu:      37.3
 (Enter /share/apps/g09/l701.exe)
 Compute integral first derivatives.
 ... and contract with generalized density number  0.
 Leave Link  701 at Sat Aug 22 22:05:48 2015, MaxMem= 3758096384 cpu:       3.1
 (Enter /share/apps/g09/l702.exe)
 L702 exits ... SP integral derivatives will be done elsewhere.
 Leave Link  702 at Sat Aug 22 22:05:48 2015, MaxMem= 3758096384 cpu:       0.1
 (Enter /share/apps/g09/l703.exe)
 Compute integral first derivatives, UseDBF=F ICtDFT=           0.
 Integral derivatives from FoFDir, PRISM(SPDF).
 Calling FoFJK, ICntrl=      2127 FMM=F ISym2X=0 I1Cent= 0 IOpClX= 0 NMat=1 NMatS=1 NMatT=0.
 FoFCou: FMM=F IPFlag=           0 FMFlag=      100000 FMFlg1=         800
         NFxFlg=           0 DoJE=F BraDBF=F KetDBF=F FulRan=T
         Omega=  0.000000  0.000000  1.000000  0.000000  0.000000 ICntrl=    2127 IOpCl=  0
         NMat0=    1 NMatS0=    1 NMatT0=    0 NMatD0=    1 NMtDS0=    0 NMtDT0=    0
         I1Cent=           0 NGrid=           0.
 Symmetry not used in FoFCou.
 Leave Link  703 at Sat Aug 22 22:05:49 2015, MaxMem= 3758096384 cpu:      11.6
 (Enter /share/apps/g09/l716.exe)
 Dipole        =-4.29970080D-02 6.05080893D-01 1.31836358D-04
 ***** Axes restored to original set *****
 -------------------------------------------------------------------
 Center     Atomic                   Forces (Hartrees/Bohr)
 Number     Number              X              Y              Z
 -------------------------------------------------------------------
      1        6           0.002420954    0.004083329    0.007070180
      2        1           0.000011202   -0.001226005   -0.001008697
      3        1           0.000020679   -0.000268189   -0.001564594
      4        1          -0.000454038   -0.000108006   -0.000197579
      5        6           0.005190589   -0.004870495   -0.008408789
      6        1          -0.001302125    0.001179955    0.001387438
      7        1          -0.001292588    0.000612133    0.001712027
      8        6          -0.007386142    0.002994260    0.005141013
      9        1           0.001421154   -0.000619824   -0.001577829
     10        1           0.001421094   -0.001064359   -0.001322253
     11        6           0.004420796   -0.003066381   -0.005280640
     12        1          -0.000817429    0.000653495    0.002248780
     13        1          -0.000815263    0.001626727    0.001685340
     14        8          -0.003452318   -0.000550368   -0.000964374
     15        1           0.000613436    0.000623729    0.001079977
 -------------------------------------------------------------------
 Cartesian Forces:  Max     0.008408789 RMS     0.002955761
 Leave Link  716 at Sat Aug 22 22:05:49 2015, MaxMem= 3758096384 cpu:       0.2
 (Enter /share/apps/g09/l103.exe)

 GradGradGradGradGradGradGradGradGradGradGradGradGradGradGradGradGradGrad
 Berny optimization.
 Using GEDIIS/GDIIS optimizer.
 Internal  Forces:  Max     0.005350551 RMS     0.001221910
 Search for a local minimum.
 Step number   2 out of a maximum of   79
 All quantities printed in internal units (Hartrees-Bohrs-Radians)
 RMS Force = .12219D-02 SwitMx=.10000D-02 MixMth= 1
 Mixed Optimization -- RFO/linear search
 Update second derivatives using D2CorX and points    1    2
 DE= -6.28D-03 DEPred=-6.13D-03 R= 1.02D+00
 SS=  1.41D+00  RLast= 2.21D-01 DXNew= 5.0454D-01 6.6278D-01
 Trust test= 1.02D+00 RLast= 2.21D-01 DXMaxT set to 5.05D-01
 Use linear search instead of GDIIS.
     Eigenvalues ---    0.00237   0.00237   0.00237   0.01295   0.03500
     Eigenvalues ---    0.03547   0.04657   0.04789   0.05239   0.05431
     Eigenvalues ---    0.05532   0.05902   0.08106   0.08176   0.11101
     Eigenvalues ---    0.12051   0.12102   0.13614   0.15744   0.16000
     Eigenvalues ---    0.16000   0.16145   0.21544   0.21985   0.22015
     Eigenvalues ---    0.27767   0.28519   0.28811   0.36767   0.37230
     Eigenvalues ---    0.37230   0.37230   0.37230   0.37230   0.37230
     Eigenvalues ---    0.37230   0.37687   0.41622   0.553581000.00000
     Eigenvalues --- 1000.000001000.000001000.000001000.000001000.00000
     Eigenvalues --- 1000.000001000.000001000.000001000.000001000.00000
     Eigenvalues --- 1000.000001000.000001000.000001000.000001000.00000
     Eigenvalues --- 1000.000001000.000001000.000001000.000001000.00000
     Eigenvalues --- 1000.000001000.000001000.000001000.000001000.00000
     Eigenvalues --- 1000.000001000.000001000.000001000.00000
 RFO step:  Lambda=-5.05932736D-04 EMin= 2.36824163D-03
 Quartic linear search produced a step of  0.11085.
 Iteration  1 RMS(Cart)=  0.00842013 RMS(Int)=  0.00008289
 Iteration  2 RMS(Cart)=  0.00009920 RMS(Int)=  0.00004320
 Iteration  3 RMS(Cart)=  0.00000001 RMS(Int)=  0.00004320
 Variable       Old X    -DE/DX   Delta X   Delta X   Delta X     New X
                                 (Linear)    (Quad)   (Total)
    R1        2.06822   0.00119   0.00512   0.00018   0.00530   2.07352
    R2        2.06822   0.00118   0.00512   0.00017   0.00529   2.07351
    R3        2.06908   0.00046   0.00522  -0.00205   0.00317   2.07225
    R4        2.91993  -0.00535   0.00108  -0.02150  -0.02042   2.89951
    R5        2.07104   0.00157   0.00544   0.00112   0.00656   2.07760
    R6        2.07104   0.00157   0.00544   0.00112   0.00655   2.07759
    R7        2.91972  -0.00455   0.00106  -0.01837  -0.01732   2.90241
    R8        2.06912   0.00150   0.00522   0.00104   0.00626   2.07538
    R9        2.06911   0.00150   0.00522   0.00104   0.00626   2.07537
   R10        2.88614  -0.00136  -0.00267  -0.00353  -0.00620   2.87994
   R11        2.07771   0.00181   0.00618   0.00136   0.00754   2.08525
   R12        2.07771   0.00181   0.00618   0.00136   0.00753   2.08525
   R13        2.70269  -0.00284   0.00004  -0.00771  -0.00767   2.69502
   R14        1.82867   0.00138   0.00161   0.00170   0.00331   1.83198
    A1        1.88763  -0.00119  -0.00255  -0.00584  -0.00845   1.87918
    A2        1.88750  -0.00059  -0.00256  -0.00281  -0.00541   1.88209
    A3        1.92818   0.00122   0.00195   0.00743   0.00932   1.93750
    A4        1.88750  -0.00059  -0.00256  -0.00280  -0.00540   1.88209
    A5        1.92820   0.00122   0.00195   0.00742   0.00932   1.93752
    A6        1.94316  -0.00017   0.00361  -0.00388  -0.00032   1.94285
    A7        1.90583   0.00009  -0.00053   0.00324   0.00263   1.90847
    A8        1.90587   0.00009  -0.00053   0.00323   0.00262   1.90849
    A9        1.95959   0.00039   0.00543   0.00299   0.00832   1.96791
   A10        1.87647  -0.00080  -0.00379  -0.01679  -0.02058   1.85589
   A11        1.90710   0.00009  -0.00039   0.00321   0.00275   1.90985
   A12        1.90713   0.00009  -0.00039   0.00319   0.00273   1.90986
   A13        1.91703  -0.00019   0.00071   0.00211   0.00278   1.91981
   A14        1.91700  -0.00019   0.00071   0.00212   0.00278   1.91979
   A15        1.95436   0.00169   0.00485   0.01069   0.01542   1.96978
   A16        1.88458  -0.00062  -0.00289  -0.01901  -0.02194   1.86264
   A17        1.89467  -0.00038  -0.00177   0.00148  -0.00044   1.89423
   A18        1.89466  -0.00039  -0.00177   0.00148  -0.00044   1.89422
   A19        1.90579   0.00121  -0.00054   0.01030   0.00977   1.91556
   A20        1.90580   0.00121  -0.00054   0.01030   0.00976   1.91556
   A21        1.88831  -0.00084  -0.00247   0.00013  -0.00234   1.88597
   A22        1.89097  -0.00141  -0.00218  -0.01546  -0.01770   1.87327
   A23        1.93633  -0.00005   0.00285  -0.00232   0.00050   1.93683
   A24        1.93633  -0.00005   0.00285  -0.00232   0.00050   1.93683
   A25        1.87866   0.00030  -0.00360   0.00438   0.00078   1.87944
    D1       -3.12283   0.00048   0.00230   0.01082   0.01314  -3.10969
    D2       -1.07555  -0.00038  -0.00293  -0.00568  -0.00861  -1.08416
    D3        1.04244   0.00005  -0.00031   0.00255   0.00224   1.04468
    D4        1.07235   0.00039   0.00300   0.00856   0.01157   1.08392
    D5        3.11962  -0.00047  -0.00222  -0.00794  -0.01017   3.10945
    D6       -1.04557  -0.00004   0.00039   0.00029   0.00068  -1.04489
    D7       -1.02524   0.00044   0.00265   0.00969   0.01235  -1.01289
    D8        1.02203  -0.00043  -0.00257  -0.00681  -0.00940   1.01264
    D9        3.14002   0.00000   0.00004   0.00142   0.00146   3.14148
   D10        1.03476  -0.00050  -0.00134  -0.01016  -0.01154   1.02321
   D11       -1.03553   0.00050   0.00134   0.01055   0.01192  -1.02360
   D12        3.14122   0.00000   0.00000   0.00019   0.00019   3.14141
   D13       -1.08244  -0.00093  -0.00387  -0.01846  -0.02238  -1.10482
   D14        3.13046   0.00007  -0.00119   0.00225   0.00109   3.13155
   D15        1.02403  -0.00043  -0.00253  -0.00810  -0.01064   1.01338
   D16       -3.13116  -0.00007   0.00120  -0.00190  -0.00073  -3.13190
   D17        1.08174   0.00093   0.00387   0.01881   0.02273   1.10447
   D18       -1.02470   0.00043   0.00254   0.00845   0.01100  -1.01370
   D19        1.03225  -0.00015  -0.00165  -0.00334  -0.00499   1.02726
   D20       -1.03245   0.00015   0.00164   0.00335   0.00499  -1.02746
   D21        3.14149   0.00000   0.00000   0.00000   0.00000   3.14149
   D22       -3.13155   0.00043   0.00112   0.00715   0.00825  -3.12329
   D23        1.08694   0.00073   0.00441   0.01384   0.01823   1.10517
   D24       -1.02231   0.00058   0.00277   0.01050   0.01324  -1.00906
   D25       -1.08710  -0.00073  -0.00441  -0.01384  -0.01823  -1.10533
   D26        3.13138  -0.00043  -0.00112  -0.00715  -0.00825   3.12313
   D27        1.02214  -0.00058  -0.00277  -0.01049  -0.01324   1.00890
   D28       -3.14157   0.00000   0.00000   0.00000   0.00000  -3.14157
   D29       -1.05142   0.00092  -0.00047   0.01132   0.01081  -1.04061
   D30        1.05145  -0.00092   0.00047  -0.01132  -0.01081   1.04064
         Item               Value     Threshold  Converged?
 Maximum Force            0.005351     0.000450     NO 
 RMS     Force            0.001222     0.000300     NO 
 Maximum Displacement     0.028293     0.001800     NO 
 RMS     Displacement     0.008406     0.001200     NO 
 Predicted change in Energy=-2.991178D-04
 GradGradGradGradGradGradGradGradGradGradGradGradGradGradGradGradGradGrad

 Leave Link  103 at Sat Aug 22 22:05:50 2015, MaxMem= 3758096384 cpu:       5.2
 (Enter /share/apps/g09/l202.exe)
                          Input orientation:                          
 ---------------------------------------------------------------------
 Center     Atomic      Atomic             Coordinates (Angstroms)
 Number     Number       Type             X           Y           Z
 ---------------------------------------------------------------------
      1          6           0       -3.147920   -0.088216   -0.008270
      2          1           0       -2.803220   -1.129483   -0.038570
      3          1           0       -2.800628    0.404373   -0.925174
      4          1           0       -4.244328   -0.096712   -0.026173
      5          6           0       -2.615981    0.631321    1.238143
      6          1           0       -3.003537    1.659972    1.258082
      7          1           0       -3.006305    0.136317    2.138883
      8          6           0       -1.081520    0.662337    1.296610
      9          1           0       -0.681777    1.164090    0.405213
     10          1           0       -0.684584   -0.361623    1.287556
     11          6           0       -0.550500    1.376736    2.533632
     12          1           0       -0.925390    0.876469    3.442934
     13          1           0       -0.922413    2.415460    2.552872
     14          8           0        0.874459    1.345596    2.484553
     15          1           0        1.206311    1.801125    3.273337
 ---------------------------------------------------------------------
                    Distance matrix (angstroms):
                    1          2          3          4          5
     1  C    0.000000
     2  H    1.097257   0.000000
     3  H    1.097255   1.771662   0.000000
     4  H    1.096587   1.773009   1.773009   0.000000
     5  C    1.534352   2.182998   2.183012   2.186330   0.000000
     6  H    2.163482   3.082611   2.526719   2.504958   1.099418
     7  H    2.163501   2.526815   3.082629   2.504889   1.099415
     8  C    2.556571   2.820918   2.821029   3.511306   1.535888
     9  H    2.796623   3.155620   2.614695   3.803615   2.172270
    10  H    2.796773   2.614734   3.156036   3.803661   2.172250
    11  C    3.918410   4.239351   4.239328   4.729483   2.549538
    12  H    4.216760   4.435195   4.777003   4.898687   2.789139
    13  H    4.216719   4.776989   4.434971   4.898734   2.789236
    14  O    4.944645   5.100734   5.100824   5.880984   3.774506
    15  H    5.770432   5.969382   5.969420   6.648159   4.485574
                    6          7          8          9         10
     6  H    0.000000
     7  H    1.759926   0.000000
     8  C    2.165850   2.165853   0.000000
     9  H    2.522667   3.076582   1.098243   0.000000
    10  H    3.076565   2.522517   1.098241   1.762479   0.000000
    11  C    2.779323   2.779468   1.523998   2.143039   2.143029
    12  H    3.115468   2.564874   2.162622   3.061016   2.497301
    13  H    2.564823   3.115844   2.162625   2.497253   3.061009
    14  O    4.079450   4.079482   2.388284   2.603549   2.603461
    15  H    4.669475   4.669551   3.230860   3.492395   3.492318
                   11         12         13         14         15
    11  C    0.000000
    12  H    1.103467   0.000000
    13  H    1.103466   1.777838   0.000000
    14  O    1.426144   2.092375   2.092374   0.000000
    15  H    1.952858   2.329785   2.329795   0.969440   0.000000
 Stoichiometry    C4H10O
 Framework group  C1[X(C4H10O)]
 Deg. of freedom    39
 Full point group                 C1      NOp   1
 Largest Abelian subgroup         C1      NOp   1
 Largest concise Abelian subgroup C1      NOp   1
                         Standard orientation:                         
 ---------------------------------------------------------------------
 Center     Atomic      Atomic             Coordinates (Angstroms)
 Number     Number       Type             X           Y           Z
 ---------------------------------------------------------------------
      1          6           0        2.521570   -0.295984    0.000054
      2          1           0        2.575758   -0.941394   -0.885656
      3          1           0        2.575813   -0.941053    0.886006
      4          1           0        3.407935    0.349665   -0.000098
      5          6           0        1.229135    0.530967   -0.000083
      6          1           0        1.218339    1.190035    0.879823
      7          1           0        1.218391    1.189877   -0.880103
      8          6           0       -0.034587   -0.341935   -0.000037
      9          1           0       -0.038271   -0.997380    0.881164
     10          1           0       -0.038375   -0.997273   -0.881315
     11          6           0       -1.319833    0.477036    0.000077
     12          1           0       -1.345780    1.130437   -0.888761
     13          1           0       -1.345770    1.130214    0.889078
     14          8           0       -2.421289   -0.428880   -0.000029
     15          1           0       -3.235436    0.097405    0.000028
 ---------------------------------------------------------------------
[...]
 ! A6    A(4,1,5)              111.4056         -DE/DX =    0.0                 !
 ! A7    A(1,5,6)              109.3669         -DE/DX =    0.0                 !
 ! A8    A(1,5,7)              109.3664         -DE/DX =    0.0                 !
 ! A9    A(1,5,8)              112.9123         -DE/DX =   -0.0001              !
 ! A10   A(6,5,7)              106.072          -DE/DX =    0.0                 !
 ! A11   A(6,5,8)              109.447          -DE/DX =    0.0                 !
 ! A12   A(7,5,8)              109.4462         -DE/DX =    0.0                 !
 ! A13   A(5,8,9)              110.072          -DE/DX =    0.0                 !
 ! A14   A(5,8,10)             110.0723         -DE/DX =    0.0                 !
 ! A15   A(5,8,11)             113.1298         -DE/DX =   -0.0001              !
 ! A16   A(9,8,10)             106.5035         -DE/DX =    0.0                 !
 ! A17   A(9,8,11)             108.4134         -DE/DX =    0.0                 !
 ! A18   A(10,8,11)            108.4129         -DE/DX =    0.0                 !
 ! A19   A(8,11,12)            109.7236         -DE/DX =    0.0001              !
 ! A20   A(8,11,13)            109.7235         -DE/DX =    0.0001              !
 ! A21   A(8,11,14)            108.087          -DE/DX =   -0.0001              !
 ! A22   A(12,11,13)           107.1317         -DE/DX =    0.0                 !
 ! A23   A(12,11,14)           111.0862         -DE/DX =    0.0                 !
 ! A24   A(13,11,14)           111.086          -DE/DX =    0.0                 !
 ! A25   A(11,14,15)           107.8695         -DE/DX =    0.0                 !
 ! D1    D(2,1,5,6)           -178.0375         -DE/DX =    0.0                 !
 ! D2    D(2,1,5,7)            -62.2773         -DE/DX =    0.0                 !
 ! D3    D(2,1,5,8)             59.8419         -DE/DX =    0.0                 !
 ! D4    D(3,1,5,6)             62.2735         -DE/DX =    0.0                 !
 ! D5    D(3,1,5,7)            178.0337         -DE/DX =    0.0                 !
 ! D6    D(3,1,5,8)            -59.8471         -DE/DX =    0.0                 !
 ! D7    D(4,1,5,6)            -57.8819         -DE/DX =    0.0                 !
 ! D8    D(4,1,5,7)             57.8782         -DE/DX =    0.0                 !
 ! D9    D(4,1,5,8)            179.9975         -DE/DX =    0.0                 !
 ! D10   D(1,5,8,9)             58.5494         -DE/DX =    0.0                 !
 ! D11   D(1,5,8,10)           -58.5488         -DE/DX =    0.0                 !
 ! D12   D(1,5,8,11)          -179.9994         -DE/DX =    0.0                 !
 ! D13   D(6,5,8,9)            -63.5262         -DE/DX =    0.0                 !
 ! D14   D(6,5,8,10)           179.3756         -DE/DX =    0.0                 !
 ! D15   D(6,5,8,11)            57.9249         -DE/DX =    0.0                 !
 ! D16   D(7,5,8,9)           -179.3761         -DE/DX =    0.0                 !
 ! D17   D(7,5,8,10)            63.5256         -DE/DX =    0.0                 !
 ! D18   D(7,5,8,11)           -57.925          -DE/DX =    0.0                 !
 ! D19   D(5,8,11,12)           58.7239         -DE/DX =    0.0                 !
 ! D20   D(5,8,11,13)          -58.7255         -DE/DX =    0.0                 !
 ! D21   D(5,8,11,14)         -180.0007         -DE/DX =    0.0                 !
 ! D22   D(9,8,11,12)         -178.8954         -DE/DX =    0.0                 !
 ! D23   D(9,8,11,13)           63.6553         -DE/DX =    0.0                 !
 ! D24   D(9,8,11,14)          -57.6199         -DE/DX =    0.0                 !
 ! D25   D(10,8,11,12)         -63.6568         -DE/DX =    0.0                 !
 ! D26   D(10,8,11,13)         178.8939         -DE/DX =    0.0                 !
 ! D27   D(10,8,11,14)          57.6187         -DE/DX =    0.0                 !
 ! D28   D(8,11,14,15)         180.0003         -DE/DX =    0.0                 !
 ! D29   D(12,11,14,15)        -59.5729         -DE/DX =    0.0                 !
 ! D30   D(13,11,14,15)         59.5736         -DE/DX =    0.0                 !
 --------------------------------------------------------------------------------
 GradGradGradGradGradGradGradGradGradGradGradGradGradGradGradGradGradGrad

 Leave Link  103 at Sat Aug 22 22:06:35 2015, MaxMem= 3758096384 cpu:       9.0
 (Enter /share/apps/g09/l9999.exe)
 1\1\GINC-COMPUTE-0-14\Freq\RB3LYP\6-31G(d)\C4H10O1\HETANJIN\22-Aug-201
 5\0\\#P Geom=AllCheck Guess=TCheck SCRF=Check GenChk RB3LYP/6-31G(d) F
 req\\using ub3lyp/6-31G(d) to scan\\0,1\C,-3.1470302942,-0.0879510491,
 -0.0076952415\H,-2.8034117681,-1.1291419208,-0.0399485292\H,-2.8006760
 063,0.4026543516,-0.925592153\H,-4.2429012584,-0.0971613677,-0.0270078
 559\C,-2.6157011452,0.6306576124,1.2368291006\H,-3.0051695658,1.658644
 1969,1.258416449\H,-3.0079417462,0.1375604492,2.1378873267\C,-1.083606
 7985,0.6636679416,1.2987772209\H,-0.6810632288,1.1644466906,0.40807597
 48\H,-0.6838516058,-0.3592060178,1.2890403918\C,-0.5501607609,1.376784
 0304,2.5338361342\H,-0.9261971456,0.8778920401,3.443432487\H,-0.923358
 165,2.4150281285,2.5546703225\O,0.8738259281,1.3446774739,2.4828501332
 \H,1.2099088507,1.7992077103,3.2700552189\\Version=EM64L-G09RevA.01\St
 ate=1-A\HF=-233.6610861\RMSD=1.202e-09\RMSF=1.033e-04\ZeroPoint=0.1377
 437\Thermal=0.1445509\Dipole=-0.3134179,0.2561553,0.4420365\DipoleDeri
 v=0.0706536,-0.0312452,-0.0542282,0.0008811,0.1198622,-0.0153782,0.001
 3418,-0.0154791,0.1019913,0.0339244,0.0833649,0.0021129,0.0458328,-0.1
 467573,-0.034756,-0.0204746,-0.0036667,0.0242877,0.0335483,-0.0399327,
 0.0737547,-0.04083,-0.0014608,0.0795961,0.0298737,0.0486245,-0.1206359
 ,-0.1944168,-0.0277939,-0.0488747,-0.014884,0.0502013,-0.0248553,-0.02
 65445,-0.024894,0.0214032,0.154376,0.0105269,0.0181347,-0.0205792,0.15
 89686,-0.0349597,-0.0356671,-0.0348575,0.1187381,-0.0250918,0.0476078,
 -0.0132394,0.0766967,-0.1694392,-0.0361952,-0.006408,-0.0305981,0.0187
 323,-0.025463,-0.03525,0.0350381,-0.0438528,0.0009889,0.0672263,0.0636
 404,0.061564,-0.1513274,0.0412761,-0.0155815,-0.0272987,-0.050467,0.11
 45588,-0.0630634,-0.0876382,-0.0629561,0.0417722,-0.0056602,-0.028078,
 0.0487304,-0.0422577,0.0034807,0.06335,0.0581856,0.0569302,-0.1131887,
 -0.005298,0.0559081,-0.0001363,0.0711858,-0.1365044,-0.0233407,-0.0076
 907,-0.0169234,0.0264357,0.8651224,0.0201676,0.0361612,0.0499476,0.442
 5143,-0.0382977,0.0876646,-0.0383909,0.3986282,-0.0968982,-0.0484314,0
 .0523615,-0.0494564,-0.0422643,0.0964868,0.0696692,0.0720954,-0.174640
 2,-0.0964323,0.0692196,-0.0160756,0.0847695,-0.2150103,-0.0269235,-0.0
 082616,-0.0025782,-0.0023611,-1.0016829,-0.05223,-0.0918636,-0.0347563
 ,-0.4591642,0.1081584,-0.0616422,0.1081014,-0.3349911,0.2520422,-0.008
 2521,-0.0145767,-0.0322299,0.2800257,-0.1170479,-0.0560486,-0.1169713,
 0.1451557\Polar=51.3140717,2.9318634,43.7924976,5.1005294,3.1807923,47
 .4762369\PG=C01 [X(C4H10O1)]\NImag=0\\0.56971231,-0.01562196,0.5514715
 6,-0.02703012,-0.03688407,0.50889407,-0.07677956,0.07897762,0.00192957
 ,0.07825056,0.07845376,-0.28315761,-0.00319687,-0.08648073,0.30807387,
 0.00169239,-0.00272934,-0.04955705,-0.00004211,0.00645918,0.05228258,-
 0.07719700,-0.03796097,0.06990807,0.00342184,0.00490041,-0.01040204,0.
 07871465,-0.03790599,-0.10494271,0.09950969,-0.01154641,-0.01368812,0.
 02639557,0.04336262,0.11014001,0.06933472,0.09904335,-0.22735629,-0.00
 094042,-0.00025311,0.00133876,-0.07552183,-0.10709153,0.24975416,-0.31
 242803,-0.00030955,-0.00134515,-0.00933869,0.00001653,0.00037910,-0.00
 942506,0.00034646,0.00018482,0.33882740,0.00012843,-0.04974327,0.00056
 333,0.03257827,0.00167179,-0.00013467,-0.01619628,-0.00038968,-0.00088
 961,0.00107950,0.04921257,-0.00058745,0.00056197,-0.04909841,0.0000376
 2,0.00034727,-0.00100706,0.02823259,-0.00142098,0.00114093,0.00276449,
 0.00184796,0.05135101,-0.09186974,-0.01784803,-0.03090272,0.00325844,0
 .00469681,0.00930769,0.00329266,0.00575942,0.00879140,-0.00936439,-0.0
 1697653,-0.02938700,0.48195752,-0.01709134,-0.10658442,-0.04426300,-0.
 01185611,-0.01516846,-0.02843968,0.00616802,0.00812883,0.01277956,0.00
 052595,-0.00081146,0.00098771,-0.01695580,0.57252092,-0.02959487,-0.04
 426536,-0.15767494,0.00029931,-0.00063701,-0.00084661,-0.01012331,-0.0
 1497351,-0.02417833,0.00088489,0.00093348,0.00023542,-0.02967486,-0.03
 435660,0.53284293,0.00403849,-0.01235752,-0.00029230,-0.00014694,-0.00
 137170,-0.00257572,0.00013122,0.00062673,0.00037811,0.00051304,-0.0000
 2464,0.00068792,-0.08010741,0.08146503,0.00225724,0.08965272,0.0047441
 3,-0.01510595,-0.00058931,-0.00153153,0.00014366,-0.00306288,0.0001974
 5,0.00097247,-0.00019199,-0.00052255,0.00029965,0.00026951,0.08132462,
 -0.26992089,-0.00020202,-0.08934987,0.29429278,0.00941200,-0.02825217,
 -0.00125448,-0.00215905,-0.00311966,-0.00449687,0.00073945,0.00054454,
 0.00116210,0.00008107,0.00077450,0.00110874,0.00189191,0.00027732,-0.0
 5130996,0.00100178,0.00360173,0.05361289,0.00407345,0.00590218,-0.0108
 5255,0.00013067,0.00001754,0.00073160,-0.00014640,-0.00154381,-0.00247
 815,0.00051586,0.00060776,0.00032344,-0.08054679,-0.03890614,0.0722015
 5,0.00415765,0.00490933,-0.01017080,0.09014659,0.00582376,0.00773645,-
 0.01504531,0.00054372,0.00096080,0.00053766,-0.00110277,-0.00066133,-0
 .00358220,0.00032953,0.00045349,0.00086412,-0.03915364,-0.10554553,0.0
 9452540,-0.01135657,-0.01466754,0.02606478,0.04566363,0.11015787,0.008
 88584,0.01256404,-0.02413236,0.00053783,-0.00019921,0.00117394,-0.0024
 0839,-0.00352650,-0.00369241,-0.00041212,0.00036158,0.00095248,0.07189
 625,0.09404721,-0.21524834,-0.00081273,0.00049067,0.00059667,-0.077448
 76,-0.10197557,0.23725768,-0.01569047,-0.00315795,-0.00551078,0.001218
 51,0.00103806,0.00148135,0.00122197,0.00076348,0.00164181,0.00082116,-
 0.00014921,-0.00025642,-0.18669612,-0.00003836,-0.00039629,-0.01395264
 ,0.00036549,0.00002739,-0.01404724,-0.00012124,0.00030493,0.49910815,-
 0.01829846,-0.00036027,-0.00057058,-0.00115167,0.00017990,0.00005410,0
 .00099795,0.00042772,0.00091032,-0.00172060,-0.00160642,-0.00318791,0.
 00094074,-0.08221164,0.00001909,0.03342896,0.00097581,0.00064836,-0.01
 741480,-0.00047681,-0.00068954,-0.01653080,0.58155957,-0.03169715,-0.0
 0052307,-0.00106772,0.00049260,0.00076788,0.00098961,-0.00075085,0.000
 20295,0.00073813,-0.00297396,-0.00318281,-0.00528065,0.00129590,0.0000
 1585,-0.08218926,-0.00089383,0.00020281,-0.00053244,0.02850125,-0.0002
 9390,0.00101389,-0.02891390,-0.03359287,0.54276276,0.00161908,0.000114
 06,0.00149348,-0.00003299,-0.00001913,-0.00015502,0.00001687,0.0000373
 7,-0.00118883,0.00032654,0.00046370,-0.00012946,-0.01405261,-0.0168974
 8,0.02790011,0.00152667,0.00042884,-0.00006973,-0.00678888,0.00001702,
 -0.00049715,-0.08124678,-0.04120250,0.07459061,0.09006687,0.00002220,-
 0.00012912,0.00053062,-0.00000257,-0.00000977,0.00011395,-0.00030874,0
 .00009392,-0.00042901,0.00009605,0.00003857,-0.00030603,0.00020992,-0.
 00051451,-0.00014195,-0.00034073,0.00067428,-0.00062822,0.00001883,0.0
 0133744,-0.00052694,-0.04171983,-0.10877463,0.09700908,0.04724009,0.11
 286261,-0.00046030,-0.00041110,0.00091946,0.00000771,-0.00003400,0.000
 01173,0.00026879,0.00033283,0.00044001,0.00007966,-0.00007126,0.000231
 59,-0.00035600,-0.00131637,0.00129131,0.00039991,-0.00023265,0.0001693
 9,-0.00089812,-0.00059625,0.00084419,0.07304147,0.09548992,-0.21536808
 ,-0.08073640,-0.10383626,0.23705165,0.00162025,0.00123330,0.00084635,0
 .00001620,-0.00104753,-0.00055958,-0.00003317,-0.00012496,-0.00009411,
 0.00032494,-0.00034327,0.00033820,-0.01396281,0.03265053,-0.00074629,-
 0.00679100,-0.00041608,-0.00024668,0.00152694,-0.00027571,0.00033835,-
 0.08078628,0.08467055,0.00146386,0.00448241,-0.01151201,-0.00053046,0.
 08955258,-0.00041289,0.00060451,0.00000952,0.00038717,0.00039729,0.000
 50858,0.00000803,-0.00002785,-0.00004434,0.00002099,0.00034759,0.00010
 521,-0.00037077,0.00138391,-0.00017119,-0.00076431,0.00145588,-0.00053
 052,0.00051459,0.00066665,-0.00023680,0.08358856,-0.27253153,0.0016155
 6,0.00523176,-0.01434037,0.00014095,-0.09297449,0.29644509,-0.00020559
 ,0.00095693,0.00018456,-0.00013435,-0.00025676,0.00013734,0.00000175,0
 .00010310,0.00003000,0.00012327,-0.00012955,-0.00007579,-0.00001397,0.
 00105354,-0.00069689,-0.00044492,-0.00046011,0.00072791,-0.00009536,-0
 .00063242,0.00017677,0.00024684,0.00313975,-0.05207100,-0.01016511,0.0
 2545268,0.00037049,0.00072184,0.00140236,0.05398324,-0.00546204,0.0004
 9671,0.00084494,0.00007244,-0.00003651,0.00025313,0.00007310,0.0002379
 0,0.00009389,-0.00028681,-0.00077813,-0.00134873,-0.01511854,-0.015736
 14,-0.02726002,0.00048923,-0.00033076,-0.00036625,0.00048492,-0.000155
 97,-0.00047028,-0.08188966,-0.01753816,-0.03032596,0.00336379,0.005918
 34,0.01100808,0.00333439,0.00653019,0.01054571,0.48174033,0.00164308,-
 0.00094081,0.00005434,-0.00017680,0.00037090,-0.00006184,-0.00007559,0
 .00005169,-0.00018004,0.00045214,0.00080680,0.00031082,-0.00331402,0.0
 0009608,0.00235968,0.00222619,-0.00010863,0.00110737,-0.00028142,-0.00
 020635,-0.00040703,-0.00981338,-0.11165230,-0.04791194,0.00524571,0.00
 752720,0.01411755,-0.01144735,-0.01773399,-0.03040950,-0.01175685,0.57
 698120,0.00282752,0.00005085,-0.00087246,-0.00018920,0.00000384,-0.000
 08693,-0.00024849,-0.00024431,0.00023159,0.00077916,0.00030694,0.00116
 121,-0.00577580,0.00232023,0.00272036,0.00095831,-0.00035091,0.0001951
 9,0.00241066,0.00104365,0.00029716,-0.01696578,-0.04793667,-0.16693016
 ,-0.01017780,-0.01581237,-0.02709846,-0.00052466,-0.00042048,-0.001808
 45,-0.02067517,-0.02022930,0.55360213,0.00012147,0.00008673,-0.0001675
 4,0.00000512,0.00000352,0.00002683,-0.00010634,-0.00006686,0.00005865,
 -0.00000450,0.00000581,0.00005103,0.00106100,0.00050953,-0.00022609,0.
 00000393,0.00003565,-0.00001849,0.00000226,-0.00024974,0.00008911,0.00
 466529,0.00575496,-0.00925853,-0.00073641,-0.00166349,-0.00241460,0.00
 005847,-0.00018690,0.00071135,-0.06968828,-0.03055337,0.05440141,0.089
 49448,0.00020721,0.00006233,-0.00017610,0.00000533,-0.00001036,-0.0000
 0484,-0.00004446,-0.00008419,0.00003886,-0.00000013,-0.00001284,0.0001
 0934,0.00061083,0.00027670,0.00024264,-0.00020959,0.00001789,0.0000123
 3,0.00010989,0.00019038,0.00019904,0.00430410,0.00776717,-0.01470951,-
 0.00117717,-0.00036084,-0.00340436,0.00054244,0.00127534,0.00050024,-0
 .03076810,-0.11060177,0.09347403,0.03794905,0.11072073,-0.00038980,-0.
 00034908,0.00030652,0.00004939,0.00000447,-0.00003135,0.00013722,0.000
 06124,0.00038427,-0.00013805,-0.00008512,-0.00002553,0.00172578,0.0007
 7445,0.00002375,-0.00008947,-0.00007884,0.00004147,-0.00128976,-0.0005
 4470,0.00058492,0.00745537,0.01404721,-0.02455110,-0.00212307,-0.00339
 554,-0.00385952,0.00043294,-0.00017348,0.00153993,0.05613691,0.0916321
 6,-0.21557252,-0.06761083,-0.10035578,0.23361244,0.00011979,-0.0001875
 8,-0.00000841,-0.00010573,0.00008475,-0.00002831,0.00000521,0.00002143
 ,0.00001645,-0.00000466,0.00004109,0.00003023,0.00106026,-0.00045375,0
 .00033064,0.00000073,0.00020287,-0.00017299,0.00000424,-0.00003372,0.0
 0002153,0.00463472,-0.01090730,0.00037740,0.00005933,0.00071242,0.0001
 9028,-0.00073581,-0.00125565,-0.00264972,-0.06934291,0.06183344,0.0006
 4192,0.00660894,-0.00791226,-0.00049347,0.08906939,-0.00044006,0.00047
 451,-0.00011345,0.00014163,0.00022377,0.00023918,0.00004006,-0.0000261
 4,-0.00000452,-0.00011950,-0.00003263,-0.00009690,0.00118631,-0.000355
 11,0.00041283,-0.00117037,0.00063881,-0.00028944,0.00002729,0.00006438
 ,-0.00005211,0.00425591,-0.01620215,0.00024407,0.00010832,0.00133056,-
 0.00014077,-0.00124567,-0.00004162,-0.00321040,0.06344766,-0.26982971,
 0.00027113,0.00345744,-0.01563017,0.00050189,-0.07697724,0.29023572,-0
 .00001437,0.00005990,-0.00010401,0.00003022,0.00021656,0.00007570,0.00
 002924,-0.00001385,-0.00001568,-0.00006872,0.00009808,-0.00000558,0.00
 139065,-0.00012436,0.00065619,-0.00054717,0.00045747,0.00013800,-0.000
 22615,0.00003964,-0.00000533,0.00737921,-0.02855649,-0.00055109,0.0006
 8532,0.00053256,0.00148389,-0.00208283,-0.00322092,-0.00417938,0.00132
 670,0.00210862,-0.05669022,-0.00701708,0.02772530,0.00060313,-0.000779
 64,0.00261707,0.05452315,-0.00111555,0.00052120,0.00089636,0.00001431,
 -0.00024705,-0.00013744,0.00001460,0.00000391,-0.00028307,-0.00041207,
 -0.00031108,-0.00053931,0.00087636,-0.00212196,-0.00366705,0.00045665,
 -0.00017489,0.00008456,0.00045928,0.00016013,-0.00010924,-0.02838235,-
 0.00247574,-0.00438218,0.00118818,0.00091135,0.00011170,0.00118549,-0.
 00035778,0.00085117,-0.22837815,0.01897156,0.03229361,-0.03290559,-0.0
 0290715,0.00567588,-0.03279665,0.00648417,0.00024516,0.40901396,-0.001
 18057,0.00056635,0.00013499,0.00009988,0.00003226,0.00013741,0.0000117
 8,0.00000149,-0.00012382,-0.00020223,-0.00021626,-0.00037165,-0.000481
 01,-0.00197277,-0.00331350,-0.00067629,0.00036783,-0.00023108,0.000408
 16,0.00006859,-0.00010987,-0.02170630,0.00288244,-0.00038783,0.0003372
 2,0.00028290,0.00002682,0.00013319,0.00168314,0.00225788,-0.00503102,-
 0.07378338,-0.01357792,-0.01574230,0.00658912,-0.00146205,0.03406143,0
 .00830477,-0.00288298,0.06431121,0.16945380,-0.00204695,0.00014036,0.0
 0072249,0.00007092,-0.00010692,0.00000891,0.00012222,0.00011940,0.0000
 3937,-0.00035107,-0.00037201,-0.00064626,-0.00082891,-0.00331869,-0.00
 580036,0.00008265,0.00006057,-0.00012668,-0.00054551,-0.00040072,0.000
 16998,-0.03764217,-0.00032645,0.00238195,0.00035047,0.00145429,0.00299
 892,0.00046874,0.00083073,0.00160148,-0.00922026,-0.01350139,-0.089322
 85,0.03010274,-0.00398861,0.00588442,0.00131516,-0.00040351,0.00405960
 ,0.11238751,0.21316713,0.41536415,-0.00076245,0.00011175,0.00019080,0.
 00001582,-0.00000874,0.00002813,0.00001587,0.00002871,0.00000656,-0.00
 006474,-0.00012545,-0.00021715,0.00021217,-0.00126198,-0.00218495,0.00
 002764,0.00011732,-0.00003417,0.00002744,-0.00008843,0.00008482,-0.008
 97825,0.00144688,0.00247473,0.00020794,0.00041818,0.00028829,0.0002073
 9,0.00004151,0.00050710,-0.01939182,-0.02295333,-0.03975569,0.00142017
 ,-0.00070999,0.00052096,0.00142313,0.00080406,-0.00035053,-0.08921848,
 -0.05434315,-0.09426555,0.11485815,-0.00007132,0.00004845,0.00003621,0
 .00001219,-0.00001992,-0.00001238,0.00000249,0.00000390,0.00001809,0.0
 0000739,-0.00001789,-0.00002042,0.00037115,0.00067836,-0.00043197,-0.0
 0012531,-0.00003604,0.00002017,-0.00003302,-0.00007851,0.00006103,-0.0
 0107852,0.00002315,0.00054372,0.00007220,-0.00001823,-0.00006505,0.000
 15707,0.00041597,0.00023227,0.00550084,-0.00097693,0.00110129,0.000659
 98,-0.00019948,-0.00057681,0.00077006,0.00084500,0.00094341,-0.0827678
 8,-0.11426027,-0.19335417,0.07652266,0.11359243,-0.00012587,0.00003679
 ,0.00009062,0.00000996,0.00000434,0.00000728,0.00001559,0.00000139,-0.
 00001659,0.00001260,-0.00002085,-0.00004209,0.00063968,-0.00043714,0.0
 0017472,-0.00010979,0.00008595,-0.00003193,-0.00016335,-0.00000417,0.0
 0001075,-0.00189301,0.00055177,0.00065516,0.00022258,-0.00001684,0.000
 51343,0.00017434,0.00018482,0.00007979,0.00945730,0.00101051,0.0001744
 1,0.00127205,0.00033739,0.00105918,0.00120893,0.00002495,0.00001164,-0
 .14342766,-0.19326352,-0.33733512,0.13270665,0.19150460,0.33464877\\0.
 00000942,0.00004691,0.00008201,0.00002399,-0.00007768,0.00000170,0.000
 02418,0.00004040,-0.00006524,-0.00010692,-0.00001210,-0.00002071,-0.00
 002970,-0.00006272,-0.00011145,-0.00002452,0.00005809,0.00001195,-0.00
 002354,-0.00001844,0.00005479,0.00004450,0.00015716,0.00027263,0.00002
 311,0.00003417,-0.00003187,0.00002392,-0.00004466,0.00001426,-0.000195
 23,-0.00015749,-0.00027133,-0.00009291,-0.00004721,0.00005335,-0.00009
 238,0.00006981,-0.00001481,0.00033648,-0.00005470,-0.00009402,0.000079
 60,0.00006846,0.00011873\\\@


 THE SECRET OF SUCCESS IN LIFE IS TO EAT WHAT YOU LIKE, AND LET THE FOOD
 FIGHT IT OUT INSIDE YOU. -- FROM A FORTUNE COOKIE
 Job cpu time:  0 days  0 hours  5 minutes 36.7 seconds.
 File lengths (MBytes):  RWF=     21 Int=      0 D2E=      0 Chk=      3 Scr=      1
 Normal termination of Gaussian 09 at Sat Aug 22 22:06:35 2015.
