 Entering Gaussian System, Link 0=/share/apps/g09/g09
 Input=C4H9OH_2_2_1_opt_631gd.gjf
 Output=C4H9OH_2_2_1_opt_631gd.log
 Initial command:
 /share/apps/g09/l1.exe /state/partition1/Gau-1107.inp -scrdir=/state/partition1/
 Entering Link 1 = /share/apps/g09/l1.exe PID=      1109.
  
 Copyright (c) 1988,1990,1992,1993,1995,1998,2003,2009, Gaussian, Inc.
                  All Rights Reserved.
  
 This is part of the Gaussian(R) 09 program.  It is based on
 the Gaussian(R) 03 system (copyright 2003, Gaussian, Inc.),
 the Gaussian(R) 98 system (copyright 1998, Gaussian, Inc.),
 the Gaussian(R) 94 system (copyright 1995, Gaussian, Inc.),
 the Gaussian 92(TM) system (copyright 1992, Gaussian, Inc.),
 the Gaussian 90(TM) system (copyright 1990, Gaussian, Inc.),
 the Gaussian 88(TM) system (copyright 1988, Gaussian, Inc.),
 the Gaussian 86(TM) system (copyright 1986, Carnegie Mellon
 University), and the Gaussian 82(TM) system (copyright 1983,
 Carnegie Mellon University). Gaussian is a federally registered
 trademark of Gaussian, Inc.
  
 This software contains proprietary and confidential information,
 including trade secrets, belonging to Gaussian, Inc.
  
 This software is provided under written license and may be
 used, copied, transmitted, or stored only in accord with that
 written license.
  
 The following legend is applicable only to US Government
 contracts under FAR:
  
                    RESTRICTED RIGHTS LEGEND
  
 Use, reproduction and disclosure by the US Government is
 subject to restrictions as set forth in subparagraphs (a)
 and (c) of the Commercial Computer Software - Restricted
 Rights clause in FAR 52.227-19.
  
 Gaussian, Inc.
 340 Quinnipiac St., Bldg. 40, Wallingford CT 06492
  
  
 ---------------------------------------------------------------
 Warning -- This program may not be used in any manner that
 competes with the business of Gaussian, Inc. or will provide
 assistance to any competitor of Gaussian, Inc.  The licensee
 of this program is prohibited from giving any competitor of
 Gaussian, Inc. access to this program.  By using this program,
 the user acknowledges that Gaussian, Inc. is engaged in the
 business of creating and licensing software in the field of
 computational chemistry and represents and warrants to the
 licensee that it is not a competitor of Gaussian, Inc. and that
 it will not use this program in any manner prohibited above.
 ---------------------------------------------------------------
  

 Cite this work as:
 Gaussian 09, Revision A.01,
 M. J. Frisch, G. W. Trucks, H. B. Schlegel, G. E. Scuseria, 
 M. A. Robb, J. R. Cheeseman, G. Scalmani, V. Barone, B. Mennucci, 
 G. A. Petersson, H. Nakatsuji, M. Caricato, X. Li, H. P. Hratchian, 
 A. F. Izmaylov, J. Bloino, G. Zheng, J. L. Sonnenberg, M. Hada, 
 M. Ehara, K. Toyota, R. Fukuda, J. Hasegawa, M. Ishida, T. Nakajima, 
 Y. Honda, O. Kitao, H. Nakai, T. Vreven, J. A. Montgomery, Jr., 
 J. E. Peralta, F. Ogliaro, M. Bearpark, J. J. Heyd, E. Brothers, 
 K. N. Kudin, V. N. Staroverov, R. Kobayashi, J. Normand, 
 K. Raghavachari, A. Rendell, J. C. Burant, S. S. Iyengar, J. Tomasi, 
 M. Cossi, N. Rega, J. M. Millam, M. Klene, J. E. Knox, J. B. Cross, 
 V. Bakken, C. Adamo, J. Jaramillo, R. Gomperts, R. E. Stratmann, 
 O. Yazyev, A. J. Austin, R. Cammi, C. Pomelli, J. W. Ochterski, 
 R. L. Martin, K. Morokuma, V. G. Zakrzewski, G. A. Voth, 
 P. Salvador, J. J. Dannenberg, S. Dapprich, A. D. Daniels, 
 O. Farkas, J. B. Foresman, J. V. Ortiz, J. Cioslowski, 
 and D. J. Fox, Gaussian, Inc., Wallingford CT, 2009.
 
 ******************************************
 Gaussian 09:  EM64L-G09RevA.01  8-May-2009
                22-Aug-2015 
 ******************************************
 %mem=28GB
 %nprocshared=12
 Will use up to   12 processors via shared memory.
 %chk=C4H9OH_2_2_1_opt_631gd.chk
 --------------------------
 #p b3lyp/6-31g(d) opt freq
 --------------------------
 1/14=-1,18=20,19=15,26=3,38=1/1,3;
 2/9=110,12=2,17=6,18=5,40=1/2;
 3/5=1,6=6,7=1,11=2,16=1,25=1,30=1,71=1,74=-5/1,2,3;
 4//1;
 5/5=2,38=5/2;
 6/7=2,8=2,9=2,10=2,28=1/1;
 7//1,2,3,16;
 1/14=-1,18=20,19=15/3(2);
 2/9=110/2;
 99//99;
 2/9=110/2;
 3/5=1,6=6,7=1,11=2,16=1,25=1,30=1,71=1,74=-5/1,2,3;
 4/5=5,16=3/1;
 5/5=2,38=5/2;
 7//1,2,3,16;
 1/14=-1,18=20,19=15/3(-5);
 2/9=110/2;
 6/7=2,8=2,9=2,10=2,19=2,28=1/1;
 99/9=1/99;
 Leave Link    1 at Sat Aug 22 22:05:30 2015, MaxMem= 3758096384 cpu:       0.6
 (Enter /share/apps/g09/l101.exe)
 -----------------------------
 using ub3lyp/6-31G(d) to scan
 -----------------------------
 Symbolic Z-matrix:
 Charge =  0 Multiplicity = 1
 C                    -2.15625   0.125     0. 
 H                    -1.7996   -0.88381   0. 
 H                    -1.79958   0.6294   -0.87365 
 H                    -3.22625   0.12501   0. 
 C                    -1.64291   0.85096   1.2574 
 C                    -0.10291   0.8485    1.25881 
 H                     0.25536   1.35144   0.38497 
 H                     0.25376   1.35322   2.13228 
 H                     0.25215  -0.16087   1.26017 
 C                    -2.15392   2.3037    1.256 
 H                    -3.22392   2.3054    1.25476 
 H                    -1.79746   2.80802   2.12978 
 H                    -1.79545   2.80704   0.38248 
 O                    -2.12172   0.17836   2.42499 
 H                    -1.80356  -0.72738   2.42618 
 
 NAtoms=     15 NQM=     15 NQMF=      0 NMic=      0 NMicF=      0 NTot=     15.
                    Isotopes and Nuclear Properties:
 (Nuclear quadrupole moments (NQMom) in fm**2, nuclear magnetic moments (NMagM)
  in nuclear magnetons)

  Atom         1           2           3           4           5           6           7           8           9          10
 IAtWgt=          12           1           1           1          12          12           1           1           1          12
 AtmWgt=  12.0000000   1.0078250   1.0078250   1.0078250  12.0000000  12.0000000   1.0078250   1.0078250   1.0078250  12.0000000
 NucSpn=           0           1           1           1           0           0           1           1           1           0
 AtZEff=   0.0000000   0.0000000   0.0000000   0.0000000   0.0000000   0.0000000   0.0000000   0.0000000   0.0000000   0.0000000
 NQMom=    0.0000000   0.0000000   0.0000000   0.0000000   0.0000000   0.0000000   0.0000000   0.0000000   0.0000000   0.0000000
 NMagM=    0.0000000   2.7928460   2.7928460   2.7928460   0.0000000   0.0000000   2.7928460   2.7928460   2.7928460   0.0000000

  Atom        11          12          13          14          15
 IAtWgt=           1           1           1          16           1
 AtmWgt=   1.0078250   1.0078250   1.0078250  15.9949146   1.0078250
 NucSpn=           1           1           1           0           1
 AtZEff=   0.0000000   0.0000000   0.0000000   0.0000000   0.0000000
 NQMom=    0.0000000   0.0000000   0.0000000   0.0000000   0.0000000
 NMagM=    2.7928460   2.7928460   2.7928460   0.0000000   2.7928460
 Leave Link  101 at Sat Aug 22 22:05:30 2015, MaxMem= 3758096384 cpu:       0.6
 (Enter /share/apps/g09/l103.exe)

 GradGradGradGradGradGradGradGradGradGradGradGradGradGradGradGradGradGrad
 Berny optimization.
 Initialization pass.
                           ----------------------------
                           !    Initial Parameters    !
                           ! (Angstroms and Degrees)  !
 --------------------------                            --------------------------
 ! Name  Definition              Value          Derivative Info.                !
 --------------------------------------------------------------------------------
 ! R1    R(1,2)                  1.07           estimate D2E/DX2                !
 ! R2    R(1,3)                  1.07           estimate D2E/DX2                !
 ! R3    R(1,4)                  1.07           estimate D2E/DX2                !
 ! R4    R(1,5)                  1.54           estimate D2E/DX2                !
 ! R5    R(5,6)                  1.54           estimate D2E/DX2                !
 ! R6    R(5,10)                 1.54           estimate D2E/DX2                !
 ! R7    R(5,14)                 1.43           estimate D2E/DX2                !
 ! R8    R(6,7)                  1.07           estimate D2E/DX2                !
 ! R9    R(6,8)                  1.07           estimate D2E/DX2                !
 ! R10   R(6,9)                  1.07           estimate D2E/DX2                !
 ! R11   R(10,11)                1.07           estimate D2E/DX2                !
 ! R12   R(10,12)                1.07           estimate D2E/DX2                !
 ! R13   R(10,13)                1.07           estimate D2E/DX2                !
 ! R14   R(14,15)                0.96           estimate D2E/DX2                !
 ! A1    A(2,1,3)              109.4712         estimate D2E/DX2                !
 ! A2    A(2,1,4)              109.4712         estimate D2E/DX2                !
 ! A3    A(2,1,5)              109.4712         estimate D2E/DX2                !
 ! A4    A(3,1,4)              109.4712         estimate D2E/DX2                !
 ! A5    A(3,1,5)              109.4713         estimate D2E/DX2                !
 ! A6    A(4,1,5)              109.4712         estimate D2E/DX2                !
 ! A7    A(1,5,6)              109.4712         estimate D2E/DX2                !
 ! A8    A(1,5,10)             109.4712         estimate D2E/DX2                !
 ! A9    A(1,5,14)             109.4712         estimate D2E/DX2                !
 ! A10   A(6,5,10)             109.4713         estimate D2E/DX2                !
 ! A11   A(6,5,14)             109.4712         estimate D2E/DX2                !
 ! A12   A(10,5,14)            109.4712         estimate D2E/DX2                !
 ! A13   A(5,6,7)              109.4712         estimate D2E/DX2                !
 ! A14   A(5,6,8)              109.4712         estimate D2E/DX2                !
 ! A15   A(5,6,9)              109.4712         estimate D2E/DX2                !
 ! A16   A(7,6,8)              109.4713         estimate D2E/DX2                !
 ! A17   A(7,6,9)              109.4712         estimate D2E/DX2                !
 ! A18   A(8,6,9)              109.4712         estimate D2E/DX2                !
 ! A19   A(5,10,11)            109.4712         estimate D2E/DX2                !
 ! A20   A(5,10,12)            109.4712         estimate D2E/DX2                !
 ! A21   A(5,10,13)            109.4712         estimate D2E/DX2                !
 ! A22   A(11,10,12)           109.4713         estimate D2E/DX2                !
 ! A23   A(11,10,13)           109.4712         estimate D2E/DX2                !
 ! A24   A(12,10,13)           109.4712         estimate D2E/DX2                !
 ! A25   A(5,14,15)            109.5            estimate D2E/DX2                !
 ! D1    D(2,1,5,6)             59.8889         estimate D2E/DX2                !
 ! D2    D(2,1,5,10)           179.8889         estimate D2E/DX2                !
 ! D3    D(2,1,5,14)           -60.1111         estimate D2E/DX2                !
 ! D4    D(3,1,5,6)            -60.1111         estimate D2E/DX2                !
 ! D5    D(3,1,5,10)            59.8889         estimate D2E/DX2                !
 ! D6    D(3,1,5,14)           179.8889         estimate D2E/DX2                !
 ! D7    D(4,1,5,6)            179.8889         estimate D2E/DX2                !
 ! D8    D(4,1,5,10)           -60.1111         estimate D2E/DX2                !
 ! D9    D(4,1,5,14)            59.8889         estimate D2E/DX2                !
 ! D10   D(1,5,6,7)             59.9786         estimate D2E/DX2                !
 ! D11   D(1,5,6,8)            179.9786         estimate D2E/DX2                !
 ! D12   D(1,5,6,9)            -60.0214         estimate D2E/DX2                !
 ! D13   D(10,5,6,7)           -60.0214         estimate D2E/DX2                !
 ! D14   D(10,5,6,8)            59.9786         estimate D2E/DX2                !
 ! D15   D(10,5,6,9)           179.9786         estimate D2E/DX2                !
 ! D16   D(14,5,6,7)           179.9786         estimate D2E/DX2                !
 ! D17   D(14,5,6,8)           -60.0214         estimate D2E/DX2                !
 ! D18   D(14,5,6,9)            59.9786         estimate D2E/DX2                !
 ! D19   D(1,5,10,11)           59.9855         estimate D2E/DX2                !
 ! D20   D(1,5,10,12)          179.9855         estimate D2E/DX2                !
 ! D21   D(1,5,10,13)          -60.0145         estimate D2E/DX2                !
 ! D22   D(6,5,10,11)          179.9855         estimate D2E/DX2                !
 ! D23   D(6,5,10,12)          -60.0145         estimate D2E/DX2                !
 ! D24   D(6,5,10,13)           59.9855         estimate D2E/DX2                !
 ! D25   D(14,5,10,11)         -60.0145         estimate D2E/DX2                !
 ! D26   D(14,5,10,12)          59.9855         estimate D2E/DX2                !
 ! D27   D(14,5,10,13)         179.9855         estimate D2E/DX2                !
 ! D28   D(1,5,14,15)           59.9865         estimate D2E/DX2                !
 ! D29   D(6,5,14,15)          -60.0134         estimate D2E/DX2                !
 ! D30   D(10,5,14,15)         179.9865         estimate D2E/DX2                !
 --------------------------------------------------------------------------------
 Trust Radius=3.00D-01 FncErr=1.00D-07 GrdErr=1.00D-06
 Number of steps in this run=  79 maximum allowed number of steps= 100.
 GradGradGradGradGradGradGradGradGradGradGradGradGradGradGradGradGradGrad

 Leave Link  103 at Sat Aug 22 22:05:30 2015, MaxMem= 3758096384 cpu:       0.1
 (Enter /share/apps/g09/l202.exe)
                          Input orientation:                          
 ---------------------------------------------------------------------
 Center     Atomic      Atomic             Coordinates (Angstroms)
 Number     Number       Type             X           Y           Z
 ---------------------------------------------------------------------
      1          6           0       -2.156250    0.125000    0.000000
      2          1           0       -1.799596   -0.883810    0.000000
      3          1           0       -1.799577    0.629398   -0.873652
      4          1           0       -3.226250    0.125013    0.000000
      5          6           0       -1.642908    0.850956    1.257405
      6          6           0       -0.102910    0.848499    1.258813
      7          1           0        0.255358    1.351441    0.384974
      8          1           0        0.253763    1.353224    2.132276
      9          1           0        0.252145   -0.160873    1.260167
     10          6           0       -2.153924    2.303699    1.255998
     11          1           0       -3.223922    2.305405    1.254765
     12          1           0       -1.797459    2.808024    2.129777
     13          1           0       -1.795447    2.807040    0.382476
     14          8           0       -2.121716    0.178364    2.424994
     15          1           0       -1.803562   -0.727382    2.426181
 ---------------------------------------------------------------------
                    Distance matrix (angstroms):
                    1          2          3          4          5
     1  C    0.000000
     2  H    1.070000   0.000000
     3  H    1.070000   1.747302   0.000000
     4  H    1.070000   1.747303   1.747303   0.000000
     5  C    1.540000   2.148263   2.148263   2.148263   0.000000
     6  C    2.514809   2.732077   2.733878   3.444313   1.540000
     7  H    2.732803   3.060618   2.515600   3.711324   2.148263
     8  H    3.444314   3.710418   3.711567   4.262111   2.148263
     9  H    2.733151   2.514021   3.063866   3.710659   2.148263
    10  C    2.514809   3.444313   2.732078   2.733877   1.540000
    11  H    2.732860   3.711365   3.060704   2.515660   2.148263
    12  H    3.444314   4.262111   3.710390   3.711595   2.148263
    13  H    2.733095   3.710617   2.513960   3.063781   2.148263
    14  O    2.425826   2.666940   3.344886   2.665227   1.430000
    15  H    2.595631   2.431222   3.567880   2.938873   1.970533
                    6          7          8          9         10
     6  C    0.000000
     7  H    1.070000   0.000000
     8  H    1.070000   1.747303   0.000000
     9  H    1.070000   1.747303   1.747303   0.000000
    10  C    2.514810   2.733151   2.732805   3.444315   0.000000
    11  H    3.444314   3.711060   3.710925   4.262112   1.070000
    12  H    2.733095   3.062683   2.514749   3.710991   1.070000
    13  H    2.732861   2.514871   3.061804   3.710996   1.070000
    14  O    2.425826   3.344886   2.666248   2.665918   2.425826
    15  H    2.595837   3.567518   2.940729   2.430320   3.267955
                   11         12         13         14         15
    11  H    0.000000
    12  H    1.747303   0.000000
    13  H    1.747303   1.747303   0.000000
    14  O    2.666195   2.665971   3.344887   0.000000
    15  H    3.547877   3.547815   4.082761   0.960000   0.000000
 Stoichiometry    C4H10O
 Framework group  C1[X(C4H10O)]
 Deg. of freedom    39
 Full point group                 C1      NOp   1
 Largest Abelian subgroup         C1      NOp   1
 Largest concise Abelian subgroup C1      NOp   1
                         Standard orientation:                         
 ---------------------------------------------------------------------
 Center     Atomic      Atomic             Coordinates (Angstroms)
 Number     Number       Type             X           Y           Z
 ---------------------------------------------------------------------
      1          6           0        0.540126   -1.257240   -0.653890
      2          1           0        1.608896   -1.256035   -0.602610
      3          1           0        0.232218   -1.258217   -1.678630
      4          1           0        0.160654   -2.131004   -0.166616
      5          6           0       -0.008789    0.000000    0.045852
      6          6           0        0.539585    1.257569   -0.653724
      7          1           0        0.233611    1.257383   -1.679043
      8          1           0        0.157899    2.131106   -0.167771
      9          1           0        1.608256    1.257985   -0.600425
     10          6           0       -1.546900   -0.000327   -0.030389
     11          1           0       -1.927901   -0.874220    0.455460
     12          1           0       -1.928300    0.873083    0.456016
     13          1           0       -1.853187   -0.000070   -1.055615
     14          8           0        0.400547   -0.000002    1.416014
     15          1           0        1.359346   -0.000011    1.464023
 ---------------------------------------------------------------------
 Rotational constants (GHZ):      4.7098135      4.6435779      4.5303549
 Leave Link  202 at Sat Aug 22 22:05:31 2015, MaxMem= 3758096384 cpu:       0.1
 (Enter /share/apps/g09/l301.exe)
 Standard basis: 6-31G(d) (6D, 7F)
 Ernie: Thresh=  0.10000D-02 Tol=  0.10000D-05 Strict=F.
 There are    95 symmetry adapted basis functions of A   symmetry.
 Integral buffers will be    131072 words long.
 Raffenetti 2 integral format.
 Two-electron integral symmetry is turned on.
    95 basis functions,   180 primitive gaussians,    95 cartesian basis functions
    21 alpha electrons       21 beta electrons
       nuclear repulsion energy       199.8839968703 Hartrees.
 IExCor=  402 DFT=T Ex+Corr=B3LYP ExCW=0 ScaHFX=  0.200000
 ScaDFX=  0.800000  0.720000  1.000000  0.810000 ScalE2=  1.000000  1.000000
 IRadAn=      0 IRanWt=     -1 IRanGd=            0 ICorTp=0
 NAtoms=   15 NActive=   15 NUniq=   15 SFac= 7.50D-01 NAtFMM=   80 NAOKFM=F Big=F
 Leave Link  301 at Sat Aug 22 22:05:31 2015, MaxMem= 3758096384 cpu:       0.6
 (Enter /share/apps/g09/l302.exe)
 NPDir=0 NMtPBC=     1 NCelOv=     1 NCel=       1 NClECP=     1 NCelD=      1
         NCelK=      1 NCelE2=     1 NClLst=     1 CellRange=     0.0.
 One-electron integrals computed using PRISM.
 NBasis=    95 RedAO= T  NBF=    95
 NBsUse=    95 1.00D-06 NBFU=    95
 Precomputing XC quadrature grid using
 IXCGrd= 2 IRadAn=           0 IRanWt=          -1 IRanGd=           0 AccXCQ= 1.00D-10.
 NRdTot=     926 NPtTot=      117530 NUsed=      124220 NTot=      124252
 NSgBfM=    95    95    95    95    95 NAtAll=    15    15.
 Leave Link  302 at Sat Aug 22 22:05:31 2015, MaxMem= 3758096384 cpu:       2.7
 (Enter /share/apps/g09/l303.exe)
 DipDrv:  MaxL=1.
 Leave Link  303 at Sat Aug 22 22:05:31 2015, MaxMem= 3758096384 cpu:       0.4
 (Enter /share/apps/g09/l401.exe)
 Harris functional with IExCor=  402 diagonalized for initial guess.
 ExpMin= 1.61D-01 ExpMax= 5.48D+03 ExpMxC= 8.25D+02 IAcc=1 IRadAn=         1 AccDes= 0.00D+00
 HarFok:  IExCor=  402 AccDes= 0.00D+00 IRadAn=         1 IDoV= 1
 ScaDFX=  1.000000  1.000000  1.000000  1.000000
 FoFCou: FMM=F IPFlag=           0 FMFlag=      100000 FMFlg1=           0
         NFxFlg=           0 DoJE=T BraDBF=F KetDBF=T FulRan=T
         Omega=  0.000000  0.000000  1.000000  0.000000  0.000000 ICntrl=     500 IOpCl=  0
         NMat0=    1 NMatS0=    1 NMatT0=    0 NMatD0=    1 NMtDS0=    0 NMtDT0=    0
         I1Cent=           4 NGrid=           0.
 Petite list used in FoFCou.
 Harris En= -233.767062927976    
 Initial guess orbital symmetries:
       Occupied  (A) (A) (A) (A) (A) (A) (A) (A) (A) (A) (A) (A)
                 (A) (A) (A) (A) (A) (A) (A) (A) (A)
       Virtual   (A) (A) (A) (A) (A) (A) (A) (A) (A) (A) (A) (A)
                 (A) (A) (A) (A) (A) (A) (A) (A) (A) (A) (A) (A)
                 (A) (A) (A) (A) (A) (A) (A) (A) (A) (A) (A) (A)
                 (A) (A) (A) (A) (A) (A) (A) (A) (A) (A) (A) (A)
                 (A) (A) (A) (A) (A) (A) (A) (A) (A) (A) (A) (A)
                 (A) (A) (A) (A) (A) (A) (A) (A) (A) (A) (A) (A)
                 (A) (A)
 The electronic state of the initial guess is 1-A.
 Leave Link  401 at Sat Aug 22 22:05:32 2015, MaxMem= 3758096384 cpu:       3.1
 (Enter /share/apps/g09/l502.exe)
 Closed shell SCF:
 Requested convergence on RMS density matrix=1.00D-08 within 128 cycles.
 Requested convergence on MAX density matrix=1.00D-06.
 Requested convergence on             energy=1.00D-06.
 No special actions if energy rises.
 Using DIIS extrapolation, IDIIS=  1040.
 Integral symmetry usage will be decided dynamically.
       124072 words used for storage of precomputed grid.
 Keep R1 ints in memory in canonical form, NReq=11484264.
 IEnd=      171168 IEndB=      171168 NGot=  3758096384 MDV=  3747551869
 LenX=  3747551869 LenY=  3747542403
 Symmetry not used in FoFDir.
 MinBra= 0 MaxBra= 2 Meth= 1.
 IRaf=       0 NMat=   1 IRICut=       1 DoRegI=T DoRafI=F ISym2E= 0 JSym2E=0.
 Integral accuracy reduced to 1.0D-05 until final iterations.

 Cycle   1  Pass 0  IDiag  1:
 E= -233.415051599980    
 DIIS: error= 5.89D-02 at cycle   1 NSaved=   1.
 NSaved= 1 IEnMin= 1 EnMin= -233.415051599980     IErMin= 1 ErrMin= 5.89D-02
 ErrMax= 5.89D-02 EMaxC= 1.00D-01 BMatC= 2.50D-01 BMatP= 2.50D-01
 IDIUse=3 WtCom= 4.11D-01 WtEn= 5.89D-01
 Coeff-Com:  0.100D+01
 Coeff-En:   0.100D+01
 Coeff:      0.100D+01
 Gap=     0.238 Goal=   None    Shift=    0.000
 GapD=    0.238 DampG=1.000 DampE=0.500 DampFc=0.5000 IDamp=-1.
 Damping current iteration by 5.00D-01
 RMSDP=1.10D-02 MaxDP=1.42D-01              OVMax= 1.80D-01

 Cycle   2  Pass 0  IDiag  1:
 E= -233.529038805866     Delta-E=       -0.113987205886 Rises=F Damp=T
 DIIS: error= 8.30D-03 at cycle   2 NSaved=   2.
 NSaved= 2 IEnMin= 2 EnMin= -233.529038805866     IErMin= 2 ErrMin= 8.30D-03
 ErrMax= 8.30D-03 EMaxC= 1.00D-01 BMatC= 7.60D-03 BMatP= 2.50D-01
 IDIUse=3 WtCom= 9.17D-01 WtEn= 8.30D-02
 Coeff-Com:  0.760D-01 0.924D+00
 Coeff-En:   0.112D+00 0.888D+00
 Coeff:      0.790D-01 0.921D+00
 Gap=     0.327 Goal=   None    Shift=    0.000
 RMSDP=1.58D-03 MaxDP=1.67D-02 DE=-1.14D-01 OVMax= 1.02D-01

 Cycle   3  Pass 0  IDiag  1:
 E= -233.663537009104     Delta-E=       -0.134498203237 Rises=F Damp=F
 DIIS: error= 4.30D-03 at cycle   3 NSaved=   3.
 NSaved= 3 IEnMin= 3 EnMin= -233.663537009104     IErMin= 3 ErrMin= 4.30D-03
 ErrMax= 4.30D-03 EMaxC= 1.00D-01 BMatC= 1.92D-03 BMatP= 7.60D-03
 IDIUse=3 WtCom= 9.57D-01 WtEn= 4.30D-02
 Coeff-Com:  0.169D-01 0.292D+00 0.691D+00
 Coeff-En:   0.000D+00 0.000D+00 0.100D+01
 Coeff:      0.162D-01 0.279D+00 0.705D+00
 Gap=     0.319 Goal=   None    Shift=    0.000
 RMSDP=6.54D-04 MaxDP=1.39D-02 DE=-1.34D-01 OVMax= 1.42D-02

 Cycle   4  Pass 0  IDiag  1:
 E= -233.664216228597     Delta-E=       -0.000679219494 Rises=F Damp=F
 DIIS: error= 3.00D-03 at cycle   4 NSaved=   4.
 NSaved= 4 IEnMin= 4 EnMin= -233.664216228597     IErMin= 4 ErrMin= 3.00D-03
 ErrMax= 3.00D-03 EMaxC= 1.00D-01 BMatC= 1.05D-03 BMatP= 1.92D-03
 IDIUse=3 WtCom= 9.70D-01 WtEn= 3.00D-02
 Coeff-Com:  0.143D-02 0.253D-01 0.423D+00 0.550D+00
 Coeff-En:   0.000D+00 0.000D+00 0.369D+00 0.631D+00
 Coeff:      0.139D-02 0.245D-01 0.422D+00 0.553D+00
 Gap=     0.324 Goal=   None    Shift=    0.000
 RMSDP=2.98D-04 MaxDP=6.32D-03 DE=-6.79D-04 OVMax= 6.47D-03

 Cycle   5  Pass 0  IDiag  1:
 E= -233.665014603361     Delta-E=       -0.000798374763 Rises=F Damp=F
 DIIS: error= 3.19D-04 at cycle   5 NSaved=   5.
 NSaved= 5 IEnMin= 5 EnMin= -233.665014603361     IErMin= 5 ErrMin= 3.19D-04
 ErrMax= 3.19D-04 EMaxC= 1.00D-01 BMatC= 7.40D-06 BMatP= 1.05D-03
 IDIUse=3 WtCom= 9.97D-01 WtEn= 3.19D-03
 Coeff-Com:  0.370D-03-0.335D-03 0.114D+00 0.178D+00 0.708D+00
 Coeff-En:   0.000D+00 0.000D+00 0.000D+00 0.000D+00 0.100D+01
 Coeff:      0.369D-03-0.334D-03 0.114D+00 0.178D+00 0.709D+00
 Gap=     0.323 Goal=   None    Shift=    0.000
 RMSDP=4.01D-05 MaxDP=7.73D-04 DE=-7.98D-04 OVMax= 6.33D-04

 Cycle   6  Pass 0  IDiag  1:
 E= -233.665019881970     Delta-E=       -0.000005278610 Rises=F Damp=F
 DIIS: error= 1.11D-04 at cycle   6 NSaved=   6.
 NSaved= 6 IEnMin= 6 EnMin= -233.665019881970     IErMin= 6 ErrMin= 1.11D-04
 ErrMax= 1.11D-04 EMaxC= 1.00D-01 BMatC= 1.47D-06 BMatP= 7.40D-06
 IDIUse=3 WtCom= 9.99D-01 WtEn= 1.11D-03
 Coeff-Com:  0.242D-03-0.158D-02 0.415D-01 0.693D-01 0.380D+00 0.510D+00
 Coeff-En:   0.000D+00 0.000D+00 0.000D+00 0.000D+00 0.896D-01 0.910D+00
 Coeff:      0.242D-03-0.158D-02 0.414D-01 0.692D-01 0.380D+00 0.511D+00
 Gap=     0.323 Goal=   None    Shift=    0.000
 RMSDP=1.22D-05 MaxDP=3.05D-04 DE=-5.28D-06 OVMax= 2.45D-04

 Cycle   7  Pass 0  IDiag  1:
 E= -233.665021209867     Delta-E=       -0.000001327896 Rises=F Damp=F
 DIIS: error= 9.62D-06 at cycle   7 NSaved=   7.
 NSaved= 7 IEnMin= 7 EnMin= -233.665021209867     IErMin= 7 ErrMin= 9.62D-06
 ErrMax= 9.62D-06 EMaxC= 1.00D-01 BMatC= 9.51D-09 BMatP= 1.47D-06
 IDIUse=1 WtCom= 1.00D+00 WtEn= 0.00D+00
 Coeff-Com:  0.714D-04-0.311D-03 0.340D-02 0.563D-02 0.399D-01 0.105D+00
 Coeff-Com:  0.847D+00
 Coeff:      0.714D-04-0.311D-03 0.340D-02 0.563D-02 0.399D-01 0.105D+00
 Coeff:      0.847D+00
 Gap=     0.323 Goal=   None    Shift=    0.000
 RMSDP=1.76D-06 MaxDP=1.86D-05 DE=-1.33D-06 OVMax= 2.53D-05

 Initial convergence to 1.0D-05 achieved.  Increase integral accuracy.
 Cycle   8  Pass 1  IDiag  1:
 E= -233.665006421448     Delta-E=        0.000014788419 Rises=F Damp=F
 DIIS: error= 1.44D-05 at cycle   1 NSaved=   1.
 NSaved= 1 IEnMin= 1 EnMin= -233.665006421448     IErMin= 1 ErrMin= 1.44D-05
 ErrMax= 1.44D-05 EMaxC= 1.00D-01 BMatC= 2.25D-08 BMatP= 2.25D-08
 IDIUse=1 WtCom= 1.00D+00 WtEn= 0.00D+00
 Coeff-Com:  0.100D+01
 Coeff:      0.100D+01
 Gap=     0.323 Goal=   None    Shift=    0.000
 RMSDP=1.76D-06 MaxDP=1.86D-05 DE= 1.48D-05 OVMax= 4.60D-05

 Cycle   9  Pass 1  IDiag  1:
 E= -233.665006449903     Delta-E=       -0.000000028455 Rises=F Damp=F
 DIIS: error= 2.83D-06 at cycle   2 NSaved=   2.
 NSaved= 2 IEnMin= 2 EnMin= -233.665006449903     IErMin= 2 ErrMin= 2.83D-06
 ErrMax= 2.83D-06 EMaxC= 1.00D-01 BMatC= 1.01D-09 BMatP= 2.25D-08
 IDIUse=1 WtCom= 1.00D+00 WtEn= 0.00D+00
 Coeff-Com:  0.339D-01 0.966D+00
 Coeff:      0.339D-01 0.966D+00
 Gap=     0.323 Goal=   None    Shift=    0.000
 RMSDP=7.03D-07 MaxDP=1.45D-05 DE=-2.85D-08 OVMax= 1.33D-05

 Cycle  10  Pass 1  IDiag  1:
 E= -233.665006449432     Delta-E=        0.000000000472 Rises=F Damp=F
 DIIS: error= 3.96D-06 at cycle   3 NSaved=   3.
 NSaved= 3 IEnMin= 2 EnMin= -233.665006449903     IErMin= 2 ErrMin= 2.83D-06
 ErrMax= 3.96D-06 EMaxC= 1.00D-01 BMatC= 1.76D-09 BMatP= 1.01D-09
 IDIUse=1 WtCom= 1.00D+00 WtEn= 0.00D+00
 Coeff-Com: -0.227D-01 0.582D+00 0.441D+00
 Coeff:     -0.227D-01 0.582D+00 0.441D+00
 Gap=     0.323 Goal=   None    Shift=    0.000
 RMSDP=3.85D-07 MaxDP=8.62D-06 DE= 4.72D-10 OVMax= 8.43D-06

 Cycle  11  Pass 1  IDiag  1:
 E= -233.665006450759     Delta-E=       -0.000000001327 Rises=F Damp=F
 DIIS: error= 4.00D-07 at cycle   4 NSaved=   4.
 NSaved= 4 IEnMin= 4 EnMin= -233.665006450759     IErMin= 4 ErrMin= 4.00D-07
 ErrMax= 4.00D-07 EMaxC= 1.00D-01 BMatC= 1.38D-11 BMatP= 1.01D-09
 IDIUse=1 WtCom= 1.00D+00 WtEn= 0.00D+00
 Coeff-Com: -0.828D-02 0.147D+00 0.148D+00 0.714D+00
 Coeff:     -0.828D-02 0.147D+00 0.148D+00 0.714D+00
 Gap=     0.323 Goal=   None    Shift=    0.000
 RMSDP=4.26D-08 MaxDP=7.64D-07 DE=-1.33D-09 OVMax= 7.22D-07

 Cycle  12  Pass 1  IDiag  1:
 E= -233.665006450770     Delta-E=       -0.000000000011 Rises=F Damp=F
 DIIS: error= 1.27D-07 at cycle   5 NSaved=   5.
 NSaved= 5 IEnMin= 5 EnMin= -233.665006450770     IErMin= 5 ErrMin= 1.27D-07
 ErrMax= 1.27D-07 EMaxC= 1.00D-01 BMatC= 1.39D-12 BMatP= 1.38D-11
 IDIUse=1 WtCom= 1.00D+00 WtEn= 0.00D+00
 Coeff-Com: -0.230D-02 0.319D-01 0.423D-01 0.309D+00 0.620D+00
 Coeff:     -0.230D-02 0.319D-01 0.423D-01 0.309D+00 0.620D+00
 Gap=     0.323 Goal=   None    Shift=    0.000
 RMSDP=1.21D-08 MaxDP=2.15D-07 DE=-1.06D-11 OVMax= 2.68D-07

 Cycle  13  Pass 1  IDiag  1:
 E= -233.665006450771     Delta-E=       -0.000000000001 Rises=F Damp=F
 DIIS: error= 2.34D-08 at cycle   6 NSaved=   6.
 NSaved= 6 IEnMin= 6 EnMin= -233.665006450771     IErMin= 6 ErrMin= 2.34D-08
 ErrMax= 2.34D-08 EMaxC= 1.00D-01 BMatC= 7.10D-14 BMatP= 1.39D-12
 IDIUse=1 WtCom= 1.00D+00 WtEn= 0.00D+00
 Coeff-Com: -0.126D-03-0.151D-02 0.230D-02 0.448D-01 0.219D+00 0.735D+00
 Coeff:     -0.126D-03-0.151D-02 0.230D-02 0.448D-01 0.219D+00 0.735D+00
 Gap=     0.323 Goal=   None    Shift=    0.000
 RMSDP=2.89D-09 MaxDP=5.52D-08 DE=-9.66D-13 OVMax= 6.11D-08

 SCF Done:  E(RB3LYP) =  -233.665006451     A.U. after   13 cycles
             Convg  =    0.2892D-08             -V/T =  2.0081
 KE= 2.317789145377D+02 PE=-9.434163694544D+02 EE= 2.780884515957D+02
 Leave Link  502 at Sat Aug 22 22:05:35 2015, MaxMem= 3758096384 cpu:      37.8
 (Enter /share/apps/g09/l601.exe)
 Copying SCF densities to generalized density rwf, IOpCl= 0 IROHF=0.

 **********************************************************************

            Population analysis using the SCF density.

 **********************************************************************

 Orbital symmetries:
       Occupied  (A) (A) (A) (A) (A) (A) (A) (A) (A) (A) (A) (A)
                 (A) (A) (A) (A) (A) (A) (A) (A) (A)
       Virtual   (A) (A) (A) (A) (A) (A) (A) (A) (A) (A) (A) (A)
                 (A) (A) (A) (A) (A) (A) (A) (A) (A) (A) (A) (A)
                 (A) (A) (A) (A) (A) (A) (A) (A) (A) (A) (A) (A)
                 (A) (A) (A) (A) (A) (A) (A) (A) (A) (A) (A) (A)
                 (A) (A) (A) (A) (A) (A) (A) (A) (A) (A) (A) (A)
                 (A) (A) (A) (A) (A) (A) (A) (A) (A) (A) (A) (A)
                 (A) (A)
 The electronic state is 1-A.
 Alpha  occ. eigenvalues --  -19.13118 -10.23576 -10.16336 -10.16335 -10.16270
 Alpha  occ. eigenvalues --   -1.00958  -0.78594  -0.69149  -0.69082  -0.56865
 Alpha  occ. eigenvalues --   -0.48322  -0.45084  -0.44405  -0.41198  -0.40087
 Alpha  occ. eigenvalues --   -0.38613  -0.37059  -0.35100  -0.34470  -0.30481
 Alpha  occ. eigenvalues --   -0.25581
 Alpha virt. eigenvalues --    0.06749   0.11975   0.13111   0.16244   0.16918
 Alpha virt. eigenvalues --    0.16953   0.17437   0.20946   0.21104   0.21856
 Alpha virt. eigenvalues --    0.23411   0.24945   0.25293   0.25780   0.50257
 Alpha virt. eigenvalues --    0.50321   0.55436   0.55883   0.57144   0.60907
 Alpha virt. eigenvalues --    0.65254   0.68693   0.69121   0.74133   0.74162
 Alpha virt. eigenvalues --    0.84536   0.86264   0.90075   0.90916   0.92163
 Alpha virt. eigenvalues --    0.92422   0.93444   0.95482   0.95671   0.97522
 Alpha virt. eigenvalues --    1.00361   1.00811   1.04379   1.06001   1.17725
 Alpha virt. eigenvalues --    1.36613   1.40051   1.44091   1.44901   1.58051
 Alpha virt. eigenvalues --    1.72979   1.74808   1.75414   1.76257   1.84535
 Alpha virt. eigenvalues --    1.86000   1.89505   1.92550   2.11156   2.12006
 Alpha virt. eigenvalues --    2.16726   2.23495   2.25132   2.26087   2.28562
 Alpha virt. eigenvalues --    2.29031   2.30207   2.36152   2.42114   2.60194
 Alpha virt. eigenvalues --    2.64916   2.72717   2.73057   2.90263   3.77994
 Alpha virt. eigenvalues --    4.19753   4.31853   4.32180   4.62337
          Condensed to atoms (all electrons):
              1          2          3          4          5          6
     1  C    5.202342   0.361911   0.347072   0.367497   0.382678  -0.079394
     2  H    0.361911   0.587532  -0.027883  -0.030548  -0.027292  -0.007418
     3  H    0.347072  -0.027883   0.587251  -0.026937  -0.024307   0.000296
     4  H    0.367497  -0.030548  -0.026937   0.556410  -0.026730   0.006824
     5  C    0.382678  -0.027292  -0.024307  -0.026730   4.557455   0.382647
     6  C   -0.079394  -0.007418   0.000296   0.006824   0.382647   5.202317
     7  H    0.000281   0.000159   0.000353  -0.000161  -0.024312   0.347067
     8  H    0.006822  -0.000106  -0.000162  -0.000230  -0.026733   0.367521
     9  H   -0.007401   0.004964   0.000157  -0.000107  -0.027263   0.361886
    10  C   -0.071659   0.006429  -0.002106  -0.006949   0.395568  -0.071678
    11  H   -0.007034  -0.000086   0.000295   0.004853  -0.025695   0.006588
    12  H    0.006587  -0.000240  -0.000176  -0.000084  -0.025684  -0.007035
    13  H   -0.002532  -0.000028   0.001872   0.000090  -0.027145  -0.002527
    14  O   -0.055932  -0.001615   0.004155   0.001927   0.253472  -0.055929
    15  H   -0.005726   0.005166  -0.000105  -0.000538  -0.021002  -0.005731
              7          8          9         10         11         12
     1  C    0.000281   0.006822  -0.007401  -0.071659  -0.007034   0.006587
     2  H    0.000159  -0.000106   0.004964   0.006429  -0.000086  -0.000240
     3  H    0.000353  -0.000162   0.000157  -0.002106   0.000295  -0.000176
     4  H   -0.000161  -0.000230  -0.000107  -0.006949   0.004853  -0.000084
     5  C   -0.024312  -0.026733  -0.027263   0.395568  -0.025695  -0.025684
     6  C    0.347067   0.367521   0.361886  -0.071678   0.006588  -0.007035
     7  H    0.587282  -0.026956  -0.027874  -0.002085  -0.000176   0.000293
     8  H   -0.026956   0.556428  -0.030535  -0.006962  -0.000083   0.004862
     9  H   -0.027874  -0.030535   0.587507   0.006426  -0.000241  -0.000086
    10  C   -0.002085  -0.006962   0.006426   5.138909   0.366320   0.366310
    11  H   -0.000176  -0.000083  -0.000241   0.366320   0.557081  -0.027798
    12  H    0.000293   0.004862  -0.000086   0.366310  -0.027798   0.557064
    13  H    0.001867   0.000090  -0.000028   0.367214  -0.028972  -0.028967
    14  O    0.004154   0.001922  -0.001625  -0.052865   0.001221   0.001221
    15  H   -0.000105  -0.000538   0.005177   0.007922  -0.000221  -0.000221
             13         14         15
     1  C   -0.002532  -0.055932  -0.005726
     2  H   -0.000028  -0.001615   0.005166
     3  H    0.001872   0.004155  -0.000105
     4  H    0.000090   0.001927  -0.000538
     5  C   -0.027145   0.253472  -0.021002
     6  C   -0.002527  -0.055929  -0.005731
     7  H    0.001867   0.004154  -0.000105
     8  H    0.000090   0.001922  -0.000538
     9  H   -0.000028  -0.001625   0.005177
    10  C    0.367214  -0.052865   0.007922
    11  H   -0.028972   0.001221  -0.000221
    12  H   -0.028967   0.001221  -0.000221
    13  H    0.573531   0.002981  -0.000284
    14  O    0.002981   8.303608   0.229892
    15  H   -0.000284   0.229892   0.400962
 Mulliken atomic charges:
              1
     1  C   -0.445512
     2  H    0.129057
     3  H    0.140225
     4  H    0.154683
     5  C    0.284343
     6  C   -0.445432
     7  H    0.140215
     8  H    0.154661
     9  H    0.129042
    10  C   -0.440794
    11  H    0.153949
    12  H    0.153956
    13  H    0.142840
    14  O   -0.636586
    15  H    0.385353
 Sum of Mulliken atomic charges =   0.00000
 Mulliken charges with hydrogens summed into heavy atoms:
              1
     1  C   -0.021547
     5  C    0.284343
     6  C   -0.021514
    10  C    0.009951
    14  O   -0.251233
 Sum of Mulliken charges with hydrogens summed into heavy atoms =   0.00000
 Electronic spatial extent (au):  <R**2>=            445.7899
 Charge=              0.0000 electrons
 Dipole moment (field-independent basis, Debye):
    X=              0.8919    Y=             -0.0001    Z=             -1.1594  Tot=              1.4628
 Quadrupole moment (field-independent basis, Debye-Ang):
   XX=            -29.9305   YY=            -33.2095   ZZ=            -35.1295
   XY=             -0.0001   XZ=              2.0441   YZ=             -0.0001
 Traceless Quadrupole moment (field-independent basis, Debye-Ang):
   XX=              2.8260   YY=             -0.4530   ZZ=             -2.3730
   XY=             -0.0001   XZ=              2.0441   YZ=             -0.0001
 Octapole moment (field-independent basis, Debye-Ang**2):
  XXX=              8.0903  YYY=             -0.0022  ZZZ=              0.9826  XYY=             -1.0884
  XXY=              0.0025  XXZ=              7.0149  XZZ=              2.6151  YZZ=             -0.0011
  YYZ=              3.3649  XYZ=             -0.0009
 Hexadecapole moment (field-independent basis, Debye-Ang**3):
 XXXX=           -202.6681 YYYY=           -206.9984 ZZZZ=           -169.8915 XXXY=              0.0023
 XXXZ=             10.0866 YYYX=             -0.0040 YYYZ=             -0.0034 ZZZX=             11.1374
 ZZZY=              0.0011 XXYY=            -69.6263 XXZZ=            -55.9683 YYZZ=            -64.8246
 XXYZ=              0.0016 YYXZ=              0.9218 ZZXY=              0.0008
 N-N= 1.998839968703D+02 E-N=-9.434163704997D+02  KE= 2.317789145377D+02
 No NMR shielding tensors so no spin-rotation constants.
 Leave Link  601 at Sat Aug 22 22:05:36 2015, MaxMem= 3758096384 cpu:       2.5
 (Enter /share/apps/g09/l701.exe)
 Compute integral first derivatives.
 ... and contract with generalized density number  0.
 Leave Link  701 at Sat Aug 22 22:05:36 2015, MaxMem= 3758096384 cpu:       2.5
 (Enter /share/apps/g09/l702.exe)
 L702 exits ... SP integral derivatives will be done elsewhere.
 Leave Link  702 at Sat Aug 22 22:05:36 2015, MaxMem= 3758096384 cpu:       0.2
 (Enter /share/apps/g09/l703.exe)
 Compute integral first derivatives, UseDBF=F ICtDFT=           0.
 Integral derivatives from FoFDir, PRISM(SPDF).
 Calling FoFJK, ICntrl=      2127 FMM=F ISym2X=0 I1Cent= 0 IOpClX= 0 NMat=1 NMatS=1 NMatT=0.
 FoFCou: FMM=F IPFlag=           0 FMFlag=      100000 FMFlg1=         800
         NFxFlg=           0 DoJE=F BraDBF=F KetDBF=F FulRan=T
         Omega=  0.000000  0.000000  1.000000  0.000000  0.000000 ICntrl=    2127 IOpCl=  0
         NMat0=    1 NMatS0=    1 NMatT0=    0 NMatD0=    1 NMtDS0=    0 NMtDT0=    0
         I1Cent=           0 NGrid=           0.
 Symmetry not used in FoFCou.
 Leave Link  703 at Sat Aug 22 22:05:37 2015, MaxMem= 3758096384 cpu:       9.7
 (Enter /share/apps/g09/l716.exe)
 Dipole        = 3.50898783D-01-2.16086602D-05-4.56143724D-01
 ***** Axes restored to original set *****
 -------------------------------------------------------------------
 Center     Atomic                   Forces (Hartrees/Bohr)
 Number     Number              X              Y              Z
 -------------------------------------------------------------------
      1        6           0.005843070    0.012564478    0.019085165
      2        1           0.005131879   -0.018270283   -0.002968605
      3        1           0.004740422    0.005390358   -0.016850832
      4        1          -0.017476421   -0.001601191   -0.001486525
      5        6           0.007983581   -0.003578356   -0.010975145
      6        6          -0.023453659    0.002254402    0.001122663
      7        1           0.009661496    0.007101063   -0.013847162
      8        1           0.007802159    0.007324010    0.013991822
      9        1           0.009293393   -0.016800691   -0.000383090
     10        6           0.004274144   -0.026550562    0.008280082
     11        1          -0.017580607    0.002508797    0.000605840
     12        1           0.004179667    0.010173098    0.013954496
     13        1           0.005242738    0.008532875   -0.013446868
     14        8          -0.010656901    0.018601600    0.006705277
     15        1           0.005015041   -0.007649598   -0.003787119
 -------------------------------------------------------------------
 Cartesian Forces:  Max     0.026550562 RMS     0.011200924
 Leave Link  716 at Sat Aug 22 22:05:38 2015, MaxMem= 3758096384 cpu:       0.2
 (Enter /share/apps/g09/l103.exe)

 GradGradGradGradGradGradGradGradGradGradGradGradGradGradGradGradGradGrad
 Berny optimization.
 Internal  Forces:  Max     0.018934131 RMS     0.007018929
 Search for a local minimum.
 Step number   1 out of a maximum of   79
 All quantities printed in internal units (Hartrees-Bohrs-Radians)
 RMS Force = .70189D-02 SwitMx=.10000D-02 MixMth= 1
 Mixed Optimization -- RFO/linear search
 Second derivative matrix not updated -- first step.
     Eigenvalues ---    0.00237   0.00237   0.00237   0.01295   0.04739
     Eigenvalues ---    0.05720   0.05720   0.05720   0.05720   0.05720
     Eigenvalues ---    0.05720   0.05952   0.05952   0.16000   0.16000
     Eigenvalues ---    0.16000   0.16000   0.16000   0.16000   0.16000
     Eigenvalues ---    0.16000   0.16000   0.16000   0.16044   0.16044
     Eigenvalues ---    0.28519   0.28519   0.28519   0.37230   0.37230
     Eigenvalues ---    0.37230   0.37230   0.37230   0.37230   0.37230
     Eigenvalues ---    0.37230   0.37230   0.40989   0.554731000.00000
     Eigenvalues --- 1000.000001000.000001000.000001000.000001000.00000
     Eigenvalues --- 1000.000001000.000001000.000001000.000001000.00000
     Eigenvalues --- 1000.000001000.000001000.000001000.000001000.00000
     Eigenvalues --- 1000.000001000.000001000.000001000.000001000.00000
     Eigenvalues --- 1000.000001000.000001000.000001000.000001000.00000
     Eigenvalues --- 1000.000001000.000001000.000001000.00000
 RFO step:  Lambda=-1.13205533D-02 EMin= 2.36821237D-03
 Linear search not attempted -- first point.
 Iteration  1 RMS(Cart)=  0.03961268 RMS(Int)=  0.00061357
 Iteration  2 RMS(Cart)=  0.00067987 RMS(Int)=  0.00018948
 Iteration  3 RMS(Cart)=  0.00000035 RMS(Int)=  0.00018948
 Variable       Old X    -DE/DX   Delta X   Delta X   Delta X     New X
                                 (Linear)    (Quad)   (Total)
    R1        2.02201   0.01893   0.00000   0.04936   0.04936   2.07136
    R2        2.02201   0.01788   0.00000   0.04662   0.04662   2.06862
    R3        2.02201   0.01748   0.00000   0.04556   0.04556   2.06756
    R4        2.91018   0.00331   0.00000   0.01115   0.01115   2.92133
    R5        2.91018   0.00331   0.00000   0.01115   0.01115   2.92133
    R6        2.91018  -0.00376   0.00000  -0.01267  -0.01267   2.89750
    R7        2.70231  -0.00088   0.00000  -0.00210  -0.00210   2.70021
    R8        2.02201   0.01788   0.00000   0.04662   0.04662   2.06863
    R9        2.02201   0.01748   0.00000   0.04556   0.04556   2.06756
   R10        2.02201   0.01893   0.00000   0.04935   0.04935   2.07135
   R11        2.02201   0.01759   0.00000   0.04584   0.04584   2.06785
   R12        2.02201   0.01759   0.00000   0.04584   0.04584   2.06785
   R13        2.02201   0.01674   0.00000   0.04364   0.04364   2.06565
   R14        1.81414   0.00888   0.00000   0.01569   0.01569   1.82983
    A1        1.91063  -0.00392   0.00000  -0.02325  -0.02350   1.88714
    A2        1.91063  -0.00272   0.00000  -0.01849  -0.01853   1.89210
    A3        1.91063   0.00315   0.00000   0.01690   0.01675   1.92738
    A4        1.91063  -0.00265   0.00000  -0.01247  -0.01269   1.89795
    A5        1.91063   0.00460   0.00000   0.02814   0.02790   1.93854
    A6        1.91063   0.00154   0.00000   0.00917   0.00904   1.91967
    A7        1.91063  -0.00140   0.00000   0.02160   0.02091   1.93154
    A8        1.91063   0.00247   0.00000   0.01944   0.01873   1.92936
    A9        1.91063   0.00189   0.00000   0.00888   0.00868   1.91932
   A10        1.91063   0.00247   0.00000   0.01943   0.01872   1.92935
   A11        1.91063   0.00189   0.00000   0.00888   0.00868   1.91931
   A12        1.91063  -0.00732   0.00000  -0.07823  -0.07795   1.83268
   A13        1.91063   0.00460   0.00000   0.02814   0.02790   1.93853
   A14        1.91063   0.00156   0.00000   0.00927   0.00913   1.91977
   A15        1.91063   0.00314   0.00000   0.01683   0.01668   1.92731
   A16        1.91063  -0.00265   0.00000  -0.01247  -0.01269   1.89794
   A17        1.91063  -0.00392   0.00000  -0.02325  -0.02349   1.88714
   A18        1.91063  -0.00272   0.00000  -0.01851  -0.01855   1.89208
   A19        1.91063   0.00284   0.00000   0.01651   0.01642   1.92706
   A20        1.91063   0.00283   0.00000   0.01648   0.01639   1.92703
   A21        1.91063   0.00013   0.00000   0.00088   0.00086   1.91150
   A22        1.91063  -0.00287   0.00000  -0.01700  -0.01714   1.89350
   A23        1.91063  -0.00147   0.00000  -0.00844  -0.00846   1.90218
   A24        1.91063  -0.00147   0.00000  -0.00843  -0.00846   1.90218
   A25        1.91114  -0.00797   0.00000  -0.04652  -0.04652   1.86461
    D1        1.04526  -0.00029   0.00000  -0.00912  -0.00910   1.03616
    D2        3.13965   0.00340   0.00000   0.03981   0.04002  -3.10352
    D3       -1.04914  -0.00290   0.00000  -0.03865  -0.03871  -1.08784
    D4       -1.04914  -0.00023   0.00000  -0.00822  -0.00826  -1.05740
    D5        1.04526   0.00346   0.00000   0.04071   0.04085   1.08611
    D6        3.13965  -0.00284   0.00000  -0.03776  -0.03787   3.10178
    D7        3.13965  -0.00075   0.00000  -0.01580  -0.01589   3.12377
    D8       -1.04914   0.00294   0.00000   0.03313   0.03323  -1.01591
    D9        1.04526  -0.00336   0.00000  -0.04534  -0.04550   0.99976
   D10        1.04682   0.00023   0.00000   0.00863   0.00868   1.05550
   D11        3.14122   0.00076   0.00000   0.01627   0.01636  -3.12561
   D12       -1.04757   0.00030   0.00000   0.00957   0.00956  -1.03801
   D13       -1.04757  -0.00346   0.00000  -0.04030  -0.04044  -1.08801
   D14        1.04682  -0.00293   0.00000  -0.03267  -0.03276   1.01406
   D15        3.14122  -0.00339   0.00000  -0.03936  -0.03956   3.10166
   D16        3.14122   0.00284   0.00000   0.03817   0.03829  -3.10368
   D17       -1.04757   0.00337   0.00000   0.04581   0.04596  -1.00161
   D18        1.04682   0.00291   0.00000   0.03911   0.03917   1.08599
   D19        1.04695  -0.00064   0.00000  -0.02485  -0.02494   1.02200
   D20        3.14134  -0.00068   0.00000  -0.02547  -0.02550   3.11584
   D21       -1.04745  -0.00066   0.00000  -0.02517  -0.02523  -1.07268
   D22        3.14134   0.00068   0.00000   0.02541   0.02545  -3.11640
   D23       -1.04745   0.00064   0.00000   0.02479   0.02489  -1.02256
   D24        1.04695   0.00066   0.00000   0.02509   0.02516   1.07210
   D25       -1.04745   0.00002   0.00000   0.00028   0.00025  -1.04720
   D26        1.04694  -0.00002   0.00000  -0.00034  -0.00031   1.04664
   D27        3.14134   0.00000   0.00000  -0.00004  -0.00004   3.14130
   D28        1.04696   0.00030   0.00000   0.01868   0.01845   1.06541
   D29       -1.04743  -0.00030   0.00000  -0.01865  -0.01843  -1.06586
   D30        3.14136   0.00000   0.00000   0.00002   0.00002   3.14138
         Item               Value     Threshold  Converged?
 Maximum Force            0.018934     0.000450     NO 
 RMS     Force            0.007019     0.000300     NO 
 Maximum Displacement     0.130312     0.001800     NO 
 RMS     Displacement     0.039834     0.001200     NO 
 Predicted change in Energy=-6.011716D-03
 GradGradGradGradGradGradGradGradGradGradGradGradGradGradGradGradGradGrad

 Leave Link  103 at Sat Aug 22 22:05:38 2015, MaxMem= 3758096384 cpu:       0.1
 (Enter /share/apps/g09/l202.exe)
                          Input orientation:                          
 ---------------------------------------------------------------------
 Center     Atomic      Atomic             Coordinates (Angstroms)
 Number     Number       Type             X           Y           Z
 ---------------------------------------------------------------------
      1          6           0       -2.161468    0.114798   -0.013740
      2          1           0       -1.811973   -0.924086   -0.020681
      3          1           0       -1.814602    0.596935   -0.933264
      4          1           0       -3.255562    0.111265   -0.009755
      5          6           0       -1.630849    0.854323    1.235801
      6          6           0       -0.085145    0.846461    1.259138
      7          1           0        0.324316    1.348972    0.377023
      8          1           0        0.278081    1.358047    2.155475
      9          1           0        0.292046   -0.182639    1.271140
     10          6           0       -2.162282    2.292004    1.276297
     11          1           0       -3.256500    2.294300    1.285517
     12          1           0       -1.806599    2.805163    2.174939
     13          1           0       -1.812923    2.835522    0.394599
     14          8           0       -2.139899    0.238240    2.420301
     15          1           0       -1.818897   -0.675306    2.421385
 ---------------------------------------------------------------------
                    Distance matrix (angstroms):
                    1          2          3          4          5
     1  C    0.000000
     2  H    1.096118   0.000000
     3  H    1.094668   1.773787   0.000000
     4  H    1.094107   1.776519   1.779076   0.000000
     5  C    1.545899   2.185015   2.191999   2.177897   0.000000
     6  C    2.542964   2.784728   2.803554   3.493157   1.545901
     7  H    2.802678   3.144630   2.618661   3.807498   2.191996
     8  H    3.493216   3.783135   3.807745   4.327738   2.177970
     9  H    2.785518   2.577875   3.147236   3.783198   2.184963
    10  C    2.530696   3.485413   2.806475   2.757682   1.533294
    11  H    2.763583   3.761757   3.143741   2.538380   2.172268
    12  H    3.486303   4.327594   3.812776   3.758918   2.172244
    13  H    2.773187   3.782475   2.602787   3.109065   2.160075
    14  O    2.437264   2.723404   3.388345   2.676938   1.428891
    15  H    2.582915   2.454715   3.587797   2.931406   1.944411
                    6          7          8          9         10
     6  C    0.000000
     7  H    1.094670   0.000000
     8  H    1.094108   1.779075   0.000000
     9  H    1.096113   1.773786   1.776501   0.000000
    10  C    2.530689   2.807343   2.756919   3.485342   0.000000
    11  H    3.486320   3.813299   3.758545   4.327541   1.094259
    12  H    2.763803   3.145440   2.537797   3.761399   1.094258
    13  H    2.772906   2.603446   3.107396   3.782659   1.093094
    14  O    2.437263   3.388372   2.677822   2.722511   2.350998
    15  H    2.583116   3.587545   2.933010   2.453949   3.199073
                   11         12         13         14         15
    11  H    0.000000
    12  H    1.776025   0.000000
    13  H    1.780610   1.780610   0.000000
    14  O    2.600368   2.600074   3.310023   0.000000
    15  H    3.489335   3.489205   4.053864   0.968303   0.000000
 Stoichiometry    C4H10O
 Framework group  C1[X(C4H10O)]
 Deg. of freedom    39
 Full point group                 C1      NOp   1
 Largest Abelian subgroup         C1      NOp   1
 Largest concise Abelian subgroup C1      NOp   1
                         Standard orientation:                         
 ---------------------------------------------------------------------
 Center     Atomic      Atomic             Coordinates (Angstroms)
 Number     Number       Type             X           Y           Z
 ---------------------------------------------------------------------
      1          6           0        0.698565   -1.270957   -0.504584
      2          1           0        1.747629   -1.287258   -0.187295
      3          1           0        0.672943   -1.309240   -1.598282
      4          1           0        0.204284   -2.163676   -0.109858
      5          6           0       -0.005298   -0.000003    0.023675
      6          6           0        0.696774    1.272007   -0.504431
      7          1           0        0.672778    1.309421   -1.598198
      8          1           0        0.200143    2.164060   -0.111148
      9          1           0        1.745303    1.290615   -0.185521
     10          6           0       -1.486452   -0.001015   -0.372776
     11          1           0       -1.987082   -0.889542    0.023825
     12          1           0       -1.988424    0.886483    0.024429
     13          1           0       -1.572897   -0.000710   -1.462446
     14          8           0       -0.004790   -0.000087    1.452566
     15          1           0        0.922117    0.000344    1.732662
 ---------------------------------------------------------------------
 Rotational constants (GHZ):      4.6681663      4.6601499      4.4546595
 Leave Link  202 at Sat Aug 22 22:05:38 2015, MaxMem= 3758096384 cpu:       0.1
 (Enter /share/apps/g09/l301.exe)
 Standard basis: 6-31G(d) (6D, 7F)
 Ernie: Thresh=  0.10000D-02 Tol=  0.10000D-05 Strict=F.
 There are    95 symmetry adapted basis functions of A   symmetry.
 Integral buffers will be    131072 words long.
 Raffenetti 2 integral format.
 Two-electron integral symmetry is turned on.
    95 basis functions,   180 primitive gaussians,    95 cartesian basis functions
    21 alpha electrons       21 beta electrons
       nuclear repulsion energy       198.6707841875 Hartrees.
 IExCor=  402 DFT=T Ex+Corr=B3LYP ExCW=0 ScaHFX=  0.200000
 ScaDFX=  0.800000  0.720000  1.000000  0.810000 ScalE2=  1.000000  1.000000
 IRadAn=      0 IRanWt=     -1 IRanGd=            0 ICorTp=0
 NAtoms=   15 NActive=   15 NUniq=   15 SFac= 7.50D-01 NAtFMM=   80 NAOKFM=F Big=F
 Leave Link  301 at Sat Aug 22 22:05:38 2015, MaxMem= 3758096384 cpu:       0.5
 (Enter /share/apps/g09/l302.exe)
 NPDir=0 NMtPBC=     1 NCelOv=     1 NCel=       1 NClECP=     1 NCelD=      1
         NCelK=      1 NCelE2=     1 NClLst=     1 CellRange=     0.0.
 One-electron integrals computed using PRISM.
 NBasis=    95 RedAO= T  NBF=    95
 NBsUse=    95 1.00D-06 NBFU=    95
 Precomputing XC quadrature grid using
 IXCGrd= 2 IRadAn=           0 IRanWt=          -1 IRanGd=           0 AccXCQ= 1.00D-10.
 NRdTot=     926 NPtTot=      117530 NUsed=      124220 NTot=      124252
 NSgBfM=    95    95    95    95    95 NAtAll=    15    15.
 Leave Link  302 at Sat Aug 22 22:05:38 2015, MaxMem= 3758096384 cpu:       3.5
 (Enter /share/apps/g09/l303.exe)
 DipDrv:  MaxL=1.
 Leave Link  303 at Sat Aug 22 22:05:38 2015, MaxMem= 3758096384 cpu:       0.3
 (Enter /share/apps/g09/l401.exe)
 Initial guess read from the read-write file.
 B after Tr=     0.000000    0.000000    0.000000
         Rot=    1.000000    0.000000    0.000000    0.000000 Ang=   0.00 deg.
 Guess basis will be translated and rotated to current coordinates.
 Initial guess orbital symmetries:
       Occupied  (A) (A) (A) (A) (A) (A) (A) (A) (A) (A) (A) (A)
                 (A) (A) (A) (A) (A) (A) (A) (A) (A)
       Virtual   (A) (A) (A) (A) (A) (A) (A) (A) (A) (A) (A) (A)
                 (A) (A) (A) (A) (A) (A) (A) (A) (A) (A) (A) (A)
                 (A) (A) (A) (A) (A) (A) (A) (A) (A) (A) (A) (A)
                 (A) (A) (A) (A) (A) (A) (A) (A) (A) (A) (A) (A)
                 (A) (A) (A) (A) (A) (A) (A) (A) (A) (A) (A) (A)
                 (A) (A) (A) (A) (A) (A) (A) (A) (A) (A) (A) (A)
                 (A) (A)
 The electronic state of the initial guess is 1-A.
 Generating alternative initial guess.
 Harris functional with IExCor=  402 diagonalized for initial guess.
 ExpMin= 1.61D-01 ExpMax= 5.48D+03 ExpMxC= 8.25D+02 IAcc=1 IRadAn=         1 AccDes= 0.00D+00
 HarFok:  IExCor=  402 AccDes= 0.00D+00 IRadAn=         1 IDoV= 1
 ScaDFX=  1.000000  1.000000  1.000000  1.000000
 FoFCou: FMM=F IPFlag=           0 FMFlag=      100000 FMFlg1=           0
         NFxFlg=           0 DoJE=T BraDBF=F KetDBF=T FulRan=T
         Omega=  0.000000  0.000000  1.000000  0.000000  0.000000 ICntrl=     500 IOpCl=  0
         NMat0=    1 NMatS0=    1 NMatT0=    0 NMatD0=    1 NMtDS0=    0 NMtDT0=    0
         I1Cent=           4 NGrid=           0.
 Petite list used in FoFCou.
 Harris En= -233.754015938679    
 Leave Link  401 at Sat Aug 22 22:05:39 2015, MaxMem= 3758096384 cpu:       8.3
 (Enter /share/apps/g09/l502.exe)
 Closed shell SCF:
 Requested convergence on RMS density matrix=1.00D-08 within 128 cycles.
 Requested convergence on MAX density matrix=1.00D-06.
 Requested convergence on             energy=1.00D-06.
 No special actions if energy rises.
 Using DIIS extrapolation, IDIIS=  1040.
 Integral symmetry usage will be decided dynamically.
       124072 words used for storage of precomputed grid.
 Keep R1 ints in memory in canonical form, NReq=11484264.
 IEnd=      171168 IEndB=      171168 NGot=  3758096384 MDV=  3747551869
 LenX=  3747551869 LenY=  3747542403
 Symmetry not used in FoFDir.
 MinBra= 0 MaxBra= 2 Meth= 1.
 IRaf=       0 NMat=   1 IRICut=       1 DoRegI=T DoRafI=F ISym2E= 0 JSym2E=0.
 Integral accuracy reduced to 1.0D-05 until final iterations.

 Cycle   1  Pass 0  IDiag  1:
 E= -233.588238774258    
 DIIS: error= 1.94D-02 at cycle   1 NSaved=   1.
 NSaved= 1 IEnMin= 1 EnMin= -233.588238774258     IErMin= 1 ErrMin= 1.94D-02
 ErrMax= 1.94D-02 EMaxC= 1.00D-01 BMatC= 4.29D-02 BMatP= 4.29D-02
 IDIUse=3 WtCom= 8.06D-01 WtEn= 1.94D-01
 Coeff-Com:  0.100D+01
 Coeff-En:   0.100D+01
 Coeff:      0.100D+01
 Recover alternate guess density for next cycle.
 RMSDP=5.86D-03 MaxDP=6.58D-02              OVMax= 0.00D+00

 Cycle   2  Pass 0  IDiag  1:
 E= -233.436270887410     Delta-E=        0.151967886848 Rises=F Damp=F
 Switch densities from cycles 1 and 2 for lowest energy.
 DIIS: error= 5.51D-02 at cycle   2 NSaved=   2.
 NSaved= 2 IEnMin= 1 EnMin= -233.588238774258     IErMin= 1 ErrMin= 1.94D-02
 ErrMax= 5.51D-02 EMaxC= 1.00D+00 BMatC= 2.33D-01 BMatP= 4.29D-02
 IDIUse=1 WtCom= 1.00D+00 WtEn= 0.00D+00
 Coeff-Com:  0.880D+00 0.120D+00
 Coeff:      0.880D+00 0.120D+00
 Gap=     0.312 Goal=   None    Shift=    0.000
 RMSDP=3.25D-03 MaxDP=4.87D-02 DE= 1.52D-01 OVMax= 1.04D-01

 Cycle   3  Pass 0  IDiag  1:
 E= -233.660633131982     Delta-E=       -0.224362244572 Rises=F Damp=F
 DIIS: error= 1.02D-02 at cycle   3 NSaved=   3.
 NSaved= 3 IEnMin= 3 EnMin= -233.660633131982     IErMin= 3 ErrMin= 1.02D-02
 ErrMax= 1.02D-02 EMaxC= 1.00D+00 BMatC= 1.11D-02 BMatP= 4.29D-02
 IDIUse=1 WtCom= 1.00D+00 WtEn= 0.00D+00
 Coeff-Com: -0.285D-01 0.177D+00 0.851D+00
 Coeff:     -0.285D-01 0.177D+00 0.851D+00
 Gap=     0.331 Goal=   None    Shift=    0.000
 RMSDP=1.15D-03 MaxDP=2.22D-02 DE=-2.24D-01 OVMax= 2.18D-02

 Cycle   4  Pass 0  IDiag  1:
 E= -233.669795508950     Delta-E=       -0.009162376968 Rises=F Damp=F
 DIIS: error= 3.53D-03 at cycle   4 NSaved=   4.
 NSaved= 4 IEnMin= 4 EnMin= -233.669795508950     IErMin= 4 ErrMin= 3.53D-03
 ErrMax= 3.53D-03 EMaxC= 1.00D+00 BMatC= 1.24D-03 BMatP= 1.11D-02
 IDIUse=1 WtCom= 1.00D+00 WtEn= 0.00D+00
 Coeff-Com: -0.313D-01 0.875D-01 0.446D+00 0.498D+00
 Coeff:     -0.313D-01 0.875D-01 0.446D+00 0.498D+00
 Gap=     0.324 Goal=   None    Shift=    0.000
 RMSDP=3.60D-04 MaxDP=8.34D-03 DE=-9.16D-03 OVMax= 7.59D-03

 Cycle   5  Pass 0  IDiag  1:
 E= -233.670683536819     Delta-E=       -0.000888027869 Rises=F Damp=F
 DIIS: error= 8.37D-04 at cycle   5 NSaved=   5.
 NSaved= 5 IEnMin= 5 EnMin= -233.670683536819     IErMin= 5 ErrMin= 8.37D-04
 ErrMax= 8.37D-04 EMaxC= 1.00D+00 BMatC= 7.68D-05 BMatP= 1.24D-03
 IDIUse=1 WtCom= 1.00D+00 WtEn= 0.00D+00
 Coeff-Com: -0.501D-02 0.716D-02 0.494D-01 0.215D+00 0.733D+00
 Coeff:     -0.501D-02 0.716D-02 0.494D-01 0.215D+00 0.733D+00
 Gap=     0.324 Goal=   None    Shift=    0.000
 RMSDP=8.52D-05 MaxDP=1.44D-03 DE=-8.88D-04 OVMax= 1.49D-03

 Cycle   6  Pass 0  IDiag  1:
 E= -233.670746094985     Delta-E=       -0.000062558166 Rises=F Damp=F
 DIIS: error= 6.01D-05 at cycle   6 NSaved=   6.
 NSaved= 6 IEnMin= 6 EnMin= -233.670746094985     IErMin= 6 ErrMin= 6.01D-05
 ErrMax= 6.01D-05 EMaxC= 1.00D+00 BMatC= 4.10D-07 BMatP= 7.68D-05
 IDIUse=1 WtCom= 1.00D+00 WtEn= 0.00D+00
 Coeff-Com: -0.522D-03 0.266D-03 0.344D-02 0.414D-01 0.170D+00 0.786D+00
 Coeff:     -0.522D-03 0.266D-03 0.344D-02 0.414D-01 0.170D+00 0.786D+00
 Gap=     0.324 Goal=   None    Shift=    0.000
 RMSDP=1.06D-05 MaxDP=1.22D-04 DE=-6.26D-05 OVMax= 2.04D-04

 Cycle   7  Pass 0  IDiag  1:
 E= -233.670746468818     Delta-E=       -0.000000373834 Rises=F Damp=F
 DIIS: error= 1.78D-05 at cycle   7 NSaved=   7.
 NSaved= 7 IEnMin= 7 EnMin= -233.670746468818     IErMin= 7 ErrMin= 1.78D-05
 ErrMax= 1.78D-05 EMaxC= 1.00D+00 BMatC= 4.23D-08 BMatP= 4.10D-07
 IDIUse=1 WtCom= 1.00D+00 WtEn= 0.00D+00
 Coeff-Com: -0.140D-03-0.134D-04 0.463D-03 0.141D-01 0.605D-01 0.344D+00
 Coeff-Com:  0.581D+00
 Coeff:     -0.140D-03-0.134D-04 0.463D-03 0.141D-01 0.605D-01 0.344D+00
 Coeff:      0.581D+00
 Gap=     0.324 Goal=   None    Shift=    0.000
 RMSDP=2.49D-06 MaxDP=3.94D-05 DE=-3.74D-07 OVMax= 4.46D-05

 Initial convergence to 1.0D-05 achieved.  Increase integral accuracy.
 Cycle   8  Pass 1  IDiag  1:
 E= -233.670716266858     Delta-E=        0.000030201960 Rises=F Damp=F
 DIIS: error= 1.53D-05 at cycle   1 NSaved=   1.
 NSaved= 1 IEnMin= 1 EnMin= -233.670716266858     IErMin= 1 ErrMin= 1.53D-05
 ErrMax= 1.53D-05 EMaxC= 1.00D+00 BMatC= 2.14D-08 BMatP= 2.14D-08
 IDIUse=1 WtCom= 1.00D+00 WtEn= 0.00D+00
 Coeff-Com:  0.100D+01
 Coeff:      0.100D+01
 Gap=     0.325 Goal=   None    Shift=    0.000
 RMSDP=2.49D-06 MaxDP=3.94D-05 DE= 3.02D-05 OVMax= 5.68D-05

 Cycle   9  Pass 1  IDiag  1:
 E= -233.670716290468     Delta-E=       -0.000000023609 Rises=F Damp=F
 DIIS: error= 5.60D-06 at cycle   2 NSaved=   2.
 NSaved= 2 IEnMin= 2 EnMin= -233.670716290468     IErMin= 2 ErrMin= 5.60D-06
 ErrMax= 5.60D-06 EMaxC= 1.00D+00 BMatC= 3.68D-09 BMatP= 2.14D-08
 IDIUse=1 WtCom= 1.00D+00 WtEn= 0.00D+00
 Coeff-Com:  0.202D+00 0.798D+00
 Coeff:      0.202D+00 0.798D+00
 Gap=     0.324 Goal=   None    Shift=    0.000
 RMSDP=1.06D-06 MaxDP=2.06D-05 DE=-2.36D-08 OVMax= 2.38D-05

 Cycle  10  Pass 1  IDiag  1:
 E= -233.670716291726     Delta-E=       -0.000000001258 Rises=F Damp=F
 DIIS: error= 4.40D-06 at cycle   3 NSaved=   3.
 NSaved= 3 IEnMin= 3 EnMin= -233.670716291726     IErMin= 3 ErrMin= 4.40D-06
 ErrMax= 4.40D-06 EMaxC= 1.00D+00 BMatC= 2.41D-09 BMatP= 3.68D-09
 IDIUse=1 WtCom= 1.00D+00 WtEn= 0.00D+00
 Coeff-Com: -0.186D-01 0.447D+00 0.571D+00
 Coeff:     -0.186D-01 0.447D+00 0.571D+00
 Gap=     0.324 Goal=   None    Shift=    0.000
 RMSDP=5.04D-07 MaxDP=8.55D-06 DE=-1.26D-09 OVMax= 1.11D-05

 Cycle  11  Pass 1  IDiag  1:
 E= -233.670716293958     Delta-E=       -0.000000002232 Rises=F Damp=F
 DIIS: error= 4.39D-07 at cycle   4 NSaved=   4.
 NSaved= 4 IEnMin= 4 EnMin= -233.670716293958     IErMin= 4 ErrMin= 4.39D-07
 ErrMax= 4.39D-07 EMaxC= 1.00D+00 BMatC= 2.41D-11 BMatP= 2.41D-09
 IDIUse=1 WtCom= 1.00D+00 WtEn= 0.00D+00
 Coeff-Com: -0.106D-01 0.183D+00 0.250D+00 0.578D+00
 Coeff:     -0.106D-01 0.183D+00 0.250D+00 0.578D+00
 Gap=     0.324 Goal=   None    Shift=    0.000
 RMSDP=6.66D-08 MaxDP=1.21D-06 DE=-2.23D-09 OVMax= 1.24D-06

 Cycle  12  Pass 1  IDiag  1:
 E= -233.670716293977     Delta-E=       -0.000000000018 Rises=F Damp=F
 DIIS: error= 2.22D-07 at cycle   5 NSaved=   5.
 NSaved= 5 IEnMin= 5 EnMin= -233.670716293977     IErMin= 5 ErrMin= 2.22D-07
 ErrMax= 2.22D-07 EMaxC= 1.00D+00 BMatC= 4.39D-12 BMatP= 2.41D-11
 IDIUse=1 WtCom= 1.00D+00 WtEn= 0.00D+00
 Coeff-Com: -0.280D-02 0.378D-01 0.575D-01 0.317D+00 0.591D+00
 Coeff:     -0.280D-02 0.378D-01 0.575D-01 0.317D+00 0.591D+00
 Gap=     0.324 Goal=   None    Shift=    0.000
 RMSDP=1.89D-08 MaxDP=4.46D-07 DE=-1.83D-11 OVMax= 3.47D-07

 Cycle  13  Pass 1  IDiag  1:
 E= -233.670716293979     Delta-E=       -0.000000000002 Rises=F Damp=F
 DIIS: error= 2.85D-08 at cycle   6 NSaved=   6.
 NSaved= 6 IEnMin= 6 EnMin= -233.670716293979     IErMin= 6 ErrMin= 2.85D-08
 ErrMax= 2.85D-08 EMaxC= 1.00D+00 BMatC= 9.44D-14 BMatP= 4.39D-12
 IDIUse=1 WtCom= 1.00D+00 WtEn= 0.00D+00
 Coeff-Com: -0.498D-03 0.239D-02 0.522D-02 0.755D-01 0.197D+00 0.720D+00
 Coeff:     -0.498D-03 0.239D-02 0.522D-02 0.755D-01 0.197D+00 0.720D+00
 Gap=     0.324 Goal=   None    Shift=    0.000
 RMSDP=4.19D-09 MaxDP=6.10D-08 DE=-1.88D-12 OVMax= 6.59D-08

 SCF Done:  E(RB3LYP) =  -233.670716294     A.U. after   13 cycles
             Convg  =    0.4187D-08             -V/T =  2.0095
 KE= 2.314697517858D+02 PE=-9.407631537174D+02 EE= 2.769519014501D+02
 Leave Link  502 at Sat Aug 22 22:05:44 2015, MaxMem= 3758096384 cpu:      47.4
 (Enter /share/apps/g09/l701.exe)
 Compute integral first derivatives.
 ... and contract with generalized density number  0.
 Leave Link  701 at Sat Aug 22 22:05:44 2015, MaxMem= 3758096384 cpu:       2.3
 (Enter /share/apps/g09/l702.exe)
 L702 exits ... SP integral derivatives will be done elsewhere.
 Leave Link  702 at Sat Aug 22 22:05:44 2015, MaxMem= 3758096384 cpu:       0.2
 (Enter /share/apps/g09/l703.exe)
 Compute integral first derivatives, UseDBF=F ICtDFT=           0.
 Integral derivatives from FoFDir, PRISM(SPDF).
 Calling FoFJK, ICntrl=      2127 FMM=F ISym2X=0 I1Cent= 0 IOpClX= 0 NMat=1 NMatS=1 NMatT=0.
 FoFCou: FMM=F IPFlag=           0 FMFlag=      100000 FMFlg1=         800
         NFxFlg=           0 DoJE=F BraDBF=F KetDBF=F FulRan=T
         Omega=  0.000000  0.000000  1.000000  0.000000  0.000000 ICntrl=    2127 IOpCl=  0
         NMat0=    1 NMatS0=    1 NMatT0=    0 NMatD0=    1 NMtDS0=    0 NMtDT0=    0
         I1Cent=           0 NGrid=           0.
 Symmetry not used in FoFCou.
 Leave Link  703 at Sat Aug 22 22:05:45 2015, MaxMem= 3758096384 cpu:      10.0
 (Enter /share/apps/g09/l716.exe)
 Dipole        = 4.79943797D-01 2.32799625D-04-3.42733026D-01
 ***** Axes restored to original set *****
 -------------------------------------------------------------------
 Center     Atomic                   Forces (Hartrees/Bohr)
 Number     Number              X              Y              Z
 -------------------------------------------------------------------
      1        6           0.001622890    0.003246408    0.005439296
      2        1           0.000232423   -0.001179477   -0.000762408
      3        1           0.000121138   -0.000408829   -0.001075504
      4        1          -0.000488589   -0.000362072   -0.000199431
      5        6           0.002248777    0.003085907   -0.005440129
      6        6          -0.006512905    0.000384135    0.000446618
      7        1           0.001030691   -0.000083632   -0.000514104
      8        1           0.000494814   -0.000020807    0.000407741
      9        1           0.001101547   -0.000875009   -0.000235376
     10        6           0.001903242   -0.003156235   -0.001295610
     11        1          -0.000262470    0.000134703    0.000061495
     12        1          -0.000026448    0.000216887    0.000206807
     13        1          -0.000606832    0.002616406   -0.000513502
     14        8          -0.001050668   -0.000982264    0.002283303
     15        1           0.000192389   -0.002616120    0.001190804
 -------------------------------------------------------------------
 Cartesian Forces:  Max     0.006512905 RMS     0.001976280
 Leave Link  716 at Sat Aug 22 22:05:45 2015, MaxMem= 3758096384 cpu:       0.2
 (Enter /share/apps/g09/l103.exe)

 GradGradGradGradGradGradGradGradGradGradGradGradGradGradGradGradGradGrad
 Berny optimization.
 Using GEDIIS/GDIIS optimizer.
 Internal  Forces:  Max     0.004734821 RMS     0.001178484
 Search for a local minimum.
 Step number   2 out of a maximum of   79
 All quantities printed in internal units (Hartrees-Bohrs-Radians)
 RMS Force = .11785D-02 SwitMx=.10000D-02 MixMth= 1
 Mixed Optimization -- RFO/linear search
 Update second derivatives using D2CorX and points    1    2
 DE= -5.71D-03 DEPred=-6.01D-03 R= 9.50D-01
 SS=  1.41D+00  RLast= 2.43D-01 DXNew= 5.0454D-01 7.2947D-01
 Trust test= 9.50D-01 RLast= 2.43D-01 DXMaxT set to 5.05D-01
 Use linear search instead of GDIIS.
     Eigenvalues ---    0.00237   0.00237   0.00237   0.01295   0.04365
     Eigenvalues ---    0.05476   0.05479   0.05551   0.05579   0.05580
     Eigenvalues ---    0.05638   0.06143   0.06539   0.15247   0.16000
     Eigenvalues ---    0.16000   0.16000   0.16000   0.16000   0.16000
     Eigenvalues ---    0.16000   0.16000   0.16013   0.16294   0.16956
     Eigenvalues ---    0.28227   0.28519   0.28686   0.35564   0.37230
     Eigenvalues ---    0.37230   0.37230   0.37230   0.37230   0.37230
     Eigenvalues ---    0.37230   0.37393   0.42235   0.552171000.00000
     Eigenvalues --- 1000.000001000.000001000.000001000.000001000.00000
     Eigenvalues --- 1000.000001000.000001000.000001000.000001000.00000
     Eigenvalues --- 1000.000001000.000001000.000001000.000001000.00000
     Eigenvalues --- 1000.000001000.000001000.000001000.000001000.00000
     Eigenvalues --- 1000.000001000.000001000.000001000.000001000.00000
     Eigenvalues --- 1000.000001000.000001000.000001000.00000
 RFO step:  Lambda=-4.27321832D-04 EMin= 2.36824137D-03
 Quartic linear search produced a step of  0.02265.
 Iteration  1 RMS(Cart)=  0.01027589 RMS(Int)=  0.00008977
 Iteration  2 RMS(Cart)=  0.00008328 RMS(Int)=  0.00001534
 Iteration  3 RMS(Cart)=  0.00000000 RMS(Int)=  0.00001534
 Variable       Old X    -DE/DX   Delta X   Delta X   Delta X     New X
                                 (Linear)    (Quad)   (Total)
    R1        2.07136   0.00120   0.00112   0.00403   0.00515   2.07651
    R2        2.06862   0.00076   0.00106   0.00280   0.00386   2.07248
    R3        2.06756   0.00049   0.00103   0.00203   0.00306   2.07063
    R4        2.92133  -0.00388   0.00025  -0.01372  -0.01347   2.90786
    R5        2.92133  -0.00388   0.00025  -0.01372  -0.01347   2.90786
    R6        2.89750  -0.00057  -0.00029  -0.00223  -0.00252   2.89499
    R7        2.70021   0.00473  -0.00005   0.01177   0.01172   2.71193
    R8        2.06863   0.00076   0.00106   0.00280   0.00386   2.07248
    R9        2.06756   0.00049   0.00103   0.00203   0.00306   2.07063
   R10        2.07135   0.00120   0.00112   0.00403   0.00515   2.07650
   R11        2.06785   0.00026   0.00104   0.00142   0.00246   2.07031
   R12        2.06785   0.00026   0.00104   0.00142   0.00246   2.07031
   R13        2.06565   0.00152   0.00099   0.00482   0.00581   2.07146
   R14        1.82983   0.00254   0.00036   0.00491   0.00527   1.83510
    A1        1.88714  -0.00097  -0.00053  -0.00750  -0.00804   1.87909
    A2        1.89210  -0.00054  -0.00042  -0.00412  -0.00455   1.88755
    A3        1.92738   0.00073   0.00038   0.00419   0.00456   1.93194
    A4        1.89795  -0.00045  -0.00029  -0.00165  -0.00196   1.89599
    A5        1.93854   0.00092   0.00063   0.00651   0.00712   1.94566
    A6        1.91967   0.00023   0.00020   0.00209   0.00228   1.92195
    A7        1.93154   0.00006   0.00047  -0.00071  -0.00028   1.93126
    A8        1.92936   0.00009   0.00042   0.00373   0.00414   1.93350
    A9        1.91932  -0.00033   0.00020  -0.00528  -0.00510   1.91422
   A10        1.92935   0.00010   0.00042   0.00374   0.00414   1.93349
   A11        1.91931  -0.00033   0.00020  -0.00529  -0.00511   1.91421
   A12        1.83268   0.00041  -0.00177   0.00388   0.00214   1.83482
   A13        1.93853   0.00092   0.00063   0.00651   0.00712   1.94565
   A14        1.91977   0.00022   0.00021   0.00208   0.00227   1.92204
   A15        1.92731   0.00074   0.00038   0.00420   0.00457   1.93188
   A16        1.89794  -0.00045  -0.00029  -0.00164  -0.00195   1.89599
   A17        1.88714  -0.00097  -0.00053  -0.00750  -0.00805   1.87910
   A18        1.89208  -0.00054  -0.00042  -0.00413  -0.00455   1.88753
   A19        1.92706  -0.00042   0.00037  -0.00380  -0.00347   1.92359
   A20        1.92703  -0.00042   0.00037  -0.00382  -0.00348   1.92354
   A21        1.91150   0.00341   0.00002   0.02445   0.02443   1.93593
   A22        1.89350  -0.00012  -0.00039  -0.00621  -0.00663   1.88686
   A23        1.90218  -0.00126  -0.00019  -0.00551  -0.00574   1.89644
   A24        1.90218  -0.00126  -0.00019  -0.00551  -0.00574   1.89644
   A25        1.86461   0.00250  -0.00105   0.01526   0.01421   1.87882
    D1        1.03616  -0.00032  -0.00021  -0.01656  -0.01676   1.01940
    D2       -3.10352  -0.00010   0.00091  -0.00971  -0.00880  -3.11231
    D3       -1.08784   0.00027  -0.00088  -0.00593  -0.00681  -1.09465
    D4       -1.05740  -0.00020  -0.00019  -0.01416  -0.01435  -1.07175
    D5        1.08611   0.00003   0.00093  -0.00731  -0.00638   1.07973
    D6        3.10178   0.00039  -0.00086  -0.00353  -0.00439   3.09739
    D7        3.12377  -0.00038  -0.00036  -0.01770  -0.01807   3.10570
    D8       -1.01591  -0.00016   0.00075  -0.01086  -0.01010  -1.02601
    D9        0.99976   0.00021  -0.00103  -0.00707  -0.00811   0.99165
   D10        1.05550   0.00020   0.00020   0.01577   0.01596   1.07146
   D11       -3.12561   0.00039   0.00037   0.01931   0.01968  -3.10593
   D12       -1.03801   0.00033   0.00022   0.01816   0.01837  -1.01964
   D13       -1.08801  -0.00003  -0.00092   0.00892   0.00800  -1.08002
   D14        1.01406   0.00016  -0.00074   0.01246   0.01172   1.02578
   D15        3.10166   0.00010  -0.00090   0.01131   0.01041   3.11207
   D16       -3.10368  -0.00039   0.00087   0.00514   0.00601  -3.09767
   D17       -1.00161  -0.00020   0.00104   0.00868   0.00973  -0.99187
   D18        1.08599  -0.00026   0.00089   0.00753   0.00842   1.09441
   D19        1.02200   0.00024  -0.00057   0.00414   0.00357   1.02558
   D20        3.11584  -0.00045  -0.00058  -0.00850  -0.00909   3.10675
   D21       -1.07268  -0.00010  -0.00057  -0.00218  -0.00276  -1.07544
   D22       -3.11640   0.00045   0.00058   0.00839   0.00897  -3.10743
   D23       -1.02256  -0.00024   0.00056  -0.00426  -0.00369  -1.02625
   D24        1.07210   0.00010   0.00057   0.00207   0.00264   1.07474
   D25       -1.04720   0.00035   0.00001   0.00626   0.00627  -1.04093
   D26        1.04664  -0.00035  -0.00001  -0.00638  -0.00639   1.04025
   D27        3.14130   0.00000   0.00000  -0.00006  -0.00006   3.14124
   D28        1.06541  -0.00018   0.00042  -0.00387  -0.00345   1.06197
   D29       -1.06586   0.00018  -0.00042   0.00395   0.00353  -1.06233
   D30        3.14138   0.00000   0.00000   0.00004   0.00004   3.14141
         Item               Value     Threshold  Converged?
 Maximum Force            0.004735     0.000450     NO 
 RMS     Force            0.001178     0.000300     NO 
 Maximum Displacement     0.049731     0.001800     NO 
 RMS     Displacement     0.010277     0.001200     NO 
 Predicted change in Energy=-2.169559D-04
 GradGradGradGradGradGradGradGradGradGradGradGradGradGradGradGradGradGrad

 Leave Link  103 at Sat Aug 22 22:05:45 2015, MaxMem= 3758096384 cpu:       0.3
 (Enter /share/apps/g09/l202.exe)
                          Input orientation:                          
 ---------------------------------------------------------------------
 Center     Atomic      Atomic             Coordinates (Angstroms)
 Number     Number       Type             X           Y           Z
 ---------------------------------------------------------------------
      1          6           0       -2.157221    0.115864   -0.009319
      2          1           0       -1.800034   -0.923246   -0.020414
      3          1           0       -1.820706    0.593360   -0.937503
      4          1           0       -3.252805    0.100101   -0.000993
      5          6           0       -1.629109    0.859131    1.230227
      6          6           0       -0.090649    0.844237    1.257441
      7          1           0        0.331389    1.351629    0.381534
      8          1           0        0.275277    1.343749    2.161437
      9          1           0        0.287612   -0.187441    1.259555
     10          6           0       -2.159544    2.295795    1.269510
     11          1           0       -3.254997    2.294565    1.284873
     12          1           0       -1.806874    2.804892    2.173222
     13          1           0       -1.821747    2.861839    0.393680
     14          8           0       -2.139446    0.238834    2.419462
     15          1           0       -1.823402   -0.679311    2.431463
 ---------------------------------------------------------------------
                    Distance matrix (angstroms):
                    1          2          3          4          5
     1  C    0.000000
     2  H    1.098842   0.000000
     3  H    1.096710   1.772448   0.000000
     4  H    1.095729   1.777121   1.780804   0.000000
     5  C    1.538772   2.184075   2.192349   2.174492   0.000000
     6  C    2.530994   2.771084   2.806032   3.483766   1.538773
     7  H    2.805898   3.143180   2.635591   3.815638   2.192347
     8  H    3.483810   3.769172   3.815712   4.320894   2.174556
     9  H    2.771145   2.556951   3.143520   3.769113   2.184032
    10  C    2.527352   3.486456   2.807846   2.762330   1.531962
    11  H    2.761664   3.764970   3.144876   2.543449   2.169555
    12  H    3.480963   4.325633   3.816762   3.759498   2.169522
    13  H    2.795591   3.807730   2.630217   3.135424   2.178935
    14  O    2.431956   2.723715   3.390648   2.667848   1.435093
    15  H    2.588658   2.464092   3.601337   2.927032   1.961510
                    6          7          8          9         10
     6  C    0.000000
     7  H    1.096711   0.000000
     8  H    1.095729   1.780805   0.000000
     9  H    1.098838   1.772448   1.777100   0.000000
    10  C    2.527349   2.807970   2.762296   3.486421   0.000000
    11  H    3.480992   3.816715   3.759688   4.325630   1.095562
    12  H    2.761929   3.145519   2.543705   3.765066   1.095560
    13  H    2.795264   2.629995   3.134816   3.807524   1.096170
    14  O    2.431949   3.390647   2.668014   2.723547   2.356668
    15  H    2.588814   3.601395   2.927480   2.464079   3.211601
                   11         12         13         14         15
    11  H    0.000000
    12  H    1.773882   0.000000
    13  H    1.780514   1.780515   0.000000
    14  O    2.599572   2.599210   3.329396   0.000000
    15  H    3.494005   3.493800   4.085621   0.971091   0.000000
 Stoichiometry    C4H10O
 Framework group  C1[X(C4H10O)]
 Deg. of freedom    39
 Full point group                 C1      NOp   1
 Largest Abelian subgroup         C1      NOp   1
 Largest concise Abelian subgroup C1      NOp   1
                         Standard orientation:                         
 ---------------------------------------------------------------------
 Center     Atomic      Atomic             Coordinates (Angstroms)
 Number     Number       Type             X           Y           Z
 ---------------------------------------------------------------------
[...]
 ! A7    A(1,5,6)              110.9264         -DE/DX =    0.0                 !
 ! A8    A(1,5,10)             110.9114         -DE/DX =    0.0                 !
 ! A9    A(1,5,14)             109.5599         -DE/DX =    0.0                 !
 ! A10   A(6,5,10)             110.911          -DE/DX =    0.0                 !
 ! A11   A(6,5,14)             109.5598         -DE/DX =    0.0                 !
 ! A12   A(10,5,14)            104.7878         -DE/DX =    0.0                 !
 ! A13   A(5,6,7)              111.5554         -DE/DX =    0.0                 !
 ! A14   A(5,6,8)              110.2407         -DE/DX =    0.0                 !
 ! A15   A(5,6,9)              110.762          -DE/DX =    0.0                 !
 ! A16   A(7,6,8)              108.5324         -DE/DX =    0.0                 !
 ! A17   A(7,6,9)              107.5346         -DE/DX =    0.0                 !
 ! A18   A(8,6,9)              108.0977         -DE/DX =    0.0                 !
 ! A19   A(5,10,11)            110.2342         -DE/DX =    0.0                 !
 ! A20   A(5,10,12)            110.2344         -DE/DX =    0.0                 !
 ! A21   A(5,10,13)            110.9524         -DE/DX =    0.0                 !
 ! A22   A(11,10,12)           108.1083         -DE/DX =    0.0                 !
 ! A23   A(11,10,13)           108.6191         -DE/DX =    0.0                 !
 ! A24   A(12,10,13)           108.6191         -DE/DX =    0.0                 !
 ! A25   A(5,14,15)            107.2642         -DE/DX =    0.0                 !
 ! D1    D(2,1,5,6)             58.2131         -DE/DX =    0.0                 !
 ! D2    D(2,1,5,10)          -178.0642         -DE/DX =    0.0                 !
 ! D3    D(2,1,5,14)           -62.8676         -DE/DX =    0.0                 !
 ! D4    D(3,1,5,6)            -61.5347         -DE/DX =    0.0                 !
 ! D5    D(3,1,5,10)            62.188          -DE/DX =    0.0                 !
 ! D6    D(3,1,5,14)           177.3846         -DE/DX =    0.0                 !
 ! D7    D(4,1,5,6)            177.8083         -DE/DX =    0.0                 !
 ! D8    D(4,1,5,10)           -58.469          -DE/DX =    0.0                 !
 ! D9    D(4,1,5,14)            56.7276         -DE/DX =    0.0                 !
 ! D10   D(1,5,6,7)             61.5342         -DE/DX =    0.0                 !
 ! D11   D(1,5,6,8)           -177.8091         -DE/DX =    0.0                 !
 ! D12   D(1,5,6,9)            -58.2142         -DE/DX =    0.0                 !
 ! D13   D(10,5,6,7)           -62.1888         -DE/DX =    0.0                 !
 ! D14   D(10,5,6,8)            58.4679         -DE/DX =    0.0                 !
 ! D15   D(10,5,6,9)           178.0629         -DE/DX =    0.0                 !
 ! D16   D(14,5,6,7)          -177.3851         -DE/DX =    0.0                 !
 ! D17   D(14,5,6,8)           -56.7283         -DE/DX =    0.0                 !
 ! D18   D(14,5,6,9)            62.8666         -DE/DX =    0.0                 !
 ! D19   D(1,5,10,11)           58.4985         -DE/DX =    0.0                 !
 ! D20   D(1,5,10,12)          177.7679         -DE/DX =    0.0                 !
 ! D21   D(1,5,10,13)          -61.8668         -DE/DX =    0.0                 !
 ! D22   D(6,5,10,11)         -177.77           -DE/DX =    0.0                 !
 ! D23   D(6,5,10,12)          -58.5006         -DE/DX =    0.0                 !
 ! D24   D(6,5,10,13)           61.8648         -DE/DX =    0.0                 !
 ! D25   D(14,5,10,11)         -59.636          -DE/DX =    0.0                 !
 ! D26   D(14,5,10,12)          59.6335         -DE/DX =    0.0                 !
 ! D27   D(14,5,10,13)         179.9988         -DE/DX =    0.0                 !
 ! D28   D(1,5,14,15)           60.9475         -DE/DX =    0.0                 !
 ! D29   D(6,5,14,15)          -60.9559         -DE/DX =    0.0                 !
 ! D30   D(10,5,14,15)         179.9961         -DE/DX =    0.0                 !
 --------------------------------------------------------------------------------
 GradGradGradGradGradGradGradGradGradGradGradGradGradGradGradGradGradGrad

 Leave Link  103 at Sat Aug 22 22:06:39 2015, MaxMem= 3758096384 cpu:      20.7
 (Enter /share/apps/g09/l9999.exe)
 1\1\GINC-COMPUTE-0-0\Freq\RB3LYP\6-31G(d)\C4H10O1\HETANJIN\22-Aug-2015
 \0\\#P Geom=AllCheck Guess=TCheck SCRF=Check GenChk RB3LYP/6-31G(d) Fr
 eq\\using ub3lyp/6-31G(d) to scan\\0,1\C,-2.1576151939,0.1160293057,-0
 .0088039813\H,-1.8019060396,-0.9229587026,-0.0197100415\H,-1.823029488
 5,0.5894647047,-0.9392499352\H,-3.2524148064,0.1006514286,-0.000274613
 \C,-1.6268781483,0.8604106207,1.225825985\C,-0.0910378803,0.8443924104
 ,1.2580209098\H,0.3354439026,1.3502086179,0.3839026934\H,0.2741435815,
 1.343602315,2.161529416\H,0.2875633576,-0.1865260325,1.2611650755\C,-2
 .1592969826,2.2947938191,1.2696762644\H,-3.25409236,2.2920200509,1.286
 1943796\H,-1.8065872245,2.8021847727,2.1735616169\H,-1.8242042687,2.86
 38082308,0.3959237614\O,-2.1401595387,0.2415418686,2.41896788\H,-1.822
 1837846,-0.6756255254,2.4274451176\\Version=EM64L-G09RevA.01\State=1-A
 \HF=-233.6709581\RMSD=1.509e-09\RMSF=1.330e-05\ZeroPoint=0.136171\Ther
 mal=0.1429022\Dipole=0.3431548,-0.2578717,-0.4116132\DipoleDeriv=0.029
 7399,-0.0425606,-0.0777698,-0.0277882,0.0460509,-0.1022821,-0.024786,-
 0.0134441,-0.03076,0.025982,0.0823378,-0.0081848,0.057265,-0.1697243,-
 0.0286996,-0.0203026,0.0115605,0.0246228,0.0353345,-0.0348991,0.061259
 6,-0.0349771,0.0125078,0.0861889,0.0359699,0.0565646,-0.1061613,-0.152
 4738,-0.0170725,-0.0287046,-0.0007222,0.052463,-0.0157731,0.0021062,-0
 .0147487,0.0407888,0.5048144,0.0939038,-0.0580122,0.0850158,0.449796,-
 0.1084722,-0.0529072,-0.1229746,0.6593304,-0.0904904,-0.036606,0.02931
 09,0.0133732,0.0775901,-0.0133376,-0.0608999,0.0034483,0.0579294,0.006
 1399,-0.0295918,0.0447802,-0.0464809,0.0139486,0.0796361,0.0798261,0.0
 815811,-0.0784151,0.0001373,-0.0242864,-0.0465813,-0.0404851,0.0169456
 ,-0.0794225,-0.0774811,-0.0801947,-0.0763051,-0.0106224,0.0458106,0.00
 1211,0.094717,-0.1648492,0.0054808,-0.0003732,0.0041015,0.0563547,0.04
 79274,0.0554335,-0.0173307,0.0195419,-0.0230351,0.0140443,0.0033052,-0
 .0445063,0.0770363,-0.1529444,0.0332792,0.0000669,-0.0027178,0.0342228
 ,-0.0016078,-0.0037127,-0.0042524,0.0664302,0.0364892,-0.0303247,-0.06
 50896,-0.0134373,-0.0155011,-0.0720712,-0.0503237,-0.1005984,-0.073273
 5,0.0344537,-0.0355876,0.0630354,-0.012549,-0.0073315,0.0594973,0.0497
 898,0.097081,-0.0764787,-0.5897918,-0.1861379,0.0793388,-0.1839889,-0.
 4050583,0.1842071,0.0781131,0.187708,-0.8420739,0.2753045,0.1263016,0.
 0226703,0.0932336,0.0819748,-0.0073884,0.0416761,-0.0613259,0.300975\P
 olar=46.4049358,-0.8363902,48.8985524,0.3506432,-0.1147932,45.8190141\
 PG=C01 [X(C4H10O1)]\NImag=0\\0.57736568,-0.01727845,0.55110095,-0.0346
 3193,-0.04551599,0.51014953,-0.07796175,0.08071971,-0.00070070,0.07958
 267,0.07994302,-0.27724136,0.00046099,-0.08822078,0.30296707,0.0001199
 7,0.00077846,-0.04918163,0.00170780,0.00129281,0.05100608,-0.07519492,
 -0.03633855,0.06834078,0.00318315,0.00470254,-0.01073089,0.07631121,-0
 .03644314,-0.10007858,0.09745973,-0.01054641,-0.01292742,0.02681915,0.
 04046682,0.10495120,0.06718537,0.09578240,-0.23633078,-0.00069911,-0.0
 0025427,0.00108852,-0.07535311,-0.10642581,0.25638415,-0.31575879,-0.0
 0183069,0.00430526,-0.00907096,-0.00023748,0.00035835,-0.00779107,0.00
 029016,-0.00002459,0.34225742,-0.00101921,-0.04972907,0.00006947,0.032
 03214,0.00151548,-0.00066177,-0.01505638,-0.00051595,-0.00083932,0.002
 64597,0.05025631,0.00651060,0.00093495,-0.04867884,-0.00069320,0.00021
 593,-0.00091979,0.02843470,-0.00129035,0.00090400,-0.00438515,0.001967
 26,0.04977531,-0.09578112,-0.01875834,-0.03021744,0.00298740,0.0059868
 3,0.00987485,0.00236599,0.00653317,0.01094100,-0.01360301,-0.01792713,
 -0.02866298,0.50021688,-0.01913634,-0.10873001,-0.03688238,-0.01199191
 ,-0.01799511,-0.02658101,0.00679905,0.00753148,0.01550680,-0.00017578,
 -0.00129190,-0.00030250,-0.01961149,0.53077418,-0.03333398,-0.04684335
 ,-0.12947770,0.00047464,0.00277451,-0.00088682,-0.00802206,-0.01106684
 ,-0.01702911,0.00176137,0.00130740,-0.00024229,0.01222303,0.01476107,0
 .47237390,-0.01741158,-0.00166005,-0.00754153,0.00086059,0.00119286,0.
 00143384,-0.00012880,0.00003011,0.00052679,0.00064442,-0.00038756,-0.0
 0085370,-0.17655901,0.00232889,-0.00939847,0.46740882,-0.01791356,0.00
 062479,-0.00402809,-0.00098074,0.00023617,0.00025780,0.00014072,0.0000
 5340,0.00047942,-0.00186082,-0.00158571,-0.00270836,0.00938240,-0.0812
 1218,-0.00370409,0.00370804,0.57955831,-0.02984031,-0.00192375,-0.0001
 1737,0.00031078,0.00063361,0.00071379,0.00018942,0.00050490,0.00063856
 ,-0.00301407,-0.00289950,-0.00472852,-0.01678663,-0.00154045,-0.076214
 29,-0.00185948,0.00265902,0.59164576,0.00102393,0.00003859,0.00005182,
 -0.00008847,0.00004365,-0.00008138,-0.00043252,-0.00021914,-0.00092230
 ,0.00029505,0.00038267,-0.00003787,-0.00486138,-0.01568129,0.02666082,
 -0.08858946,-0.04588166,0.07807581,0.09279613,-0.00002432,-0.00014505,
 0.00017413,-0.00013337,0.00001256,0.00009785,-0.00024207,0.00030071,-0
 .00042381,0.00010096,0.00000175,-0.00020821,0.00070859,-0.00154643,-0.
 00085219,-0.04686837,-0.10545126,0.09739136,0.05084237,0.11021477,-0.0
 0018584,-0.00008341,-0.00031592,-0.00001323,-0.00010564,0.00000145,-0.
 00046661,-0.00024902,0.00038674,0.00016718,-0.00002269,0.00020428,-0.0
 0157316,-0.00112287,-0.00072322,0.07985827,0.09729052,-0.21756232,-0.0
 8804236,-0.10809713,0.23463400,-0.00699742,0.00087846,0.00153489,0.000
 11041,-0.00011670,0.00026213,0.00019193,0.00029049,0.00005719,-0.00086
 970,-0.00117998,-0.00187042,-0.01173985,-0.01604710,-0.03050383,-0.075
 69983,-0.03885532,-0.06963650,0.00423320,0.00747510,0.01057665,0.08233
 195,-0.00032274,0.00035183,0.00039459,0.00018162,0.00047208,0.00021651
 ,0.00005736,-0.00003329,-0.00023861,-0.00008593,0.00051823,-0.00021761
 ,0.00025904,-0.00070847,0.00068052,-0.03918820,-0.10605422,-0.10125649
 ,0.00656502,0.00814288,0.01355263,0.04229482,0.11049548,-0.00078188,0.
 00064719,0.00097570,0.00015664,-0.00002370,0.00000808,0.00023430,0.000
 02617,0.00034245,-0.00015026,-0.00028200,0.00007967,0.00075118,-0.0000
 6746,-0.00269043,-0.07211708,-0.10134174,-0.23241382,-0.00853628,-0.01
 251479,-0.01977946,0.07882256,0.11175850,0.24946299,0.00147565,0.00123
 705,0.00115759,0.00002754,-0.00109036,-0.00045253,-0.00004888,-0.00008
 534,-0.00002330,0.00032022,-0.00027734,0.00026889,-0.01149930,0.034313
 97,-0.00050354,-0.07725709,0.07963058,0.00001413,0.00440013,-0.0127174
 0,-0.00121126,0.00343012,-0.01064156,0.00124201,0.08410627,-0.00047784
 ,0.00035243,-0.00022501,0.00016852,0.00082805,0.00042404,0.00001230,0.
 00001361,-0.00013704,0.00003746,0.00033859,0.00006503,-0.00135872,-0.0
 0246320,0.00105640,0.08004102,-0.27768006,0.00062446,0.00469183,-0.013
 84705,-0.00070406,0.00443963,-0.01343001,0.00106433,-0.08915206,0.3017
 4980,-0.00022870,0.00089856,-0.00001749,-0.00018851,-0.00025463,0.0001
 4215,-0.00011311,0.00010749,-0.00003902,0.00015395,-0.00014831,-0.0000
 6826,0.00026907,0.00154892,-0.00193108,-0.00059534,-0.00029101,-0.0494
 4443,-0.00995664,0.02549870,0.00079137,0.01007295,-0.02609783,0.001524
 14,0.00039563,-0.00072075,0.04769507,0.00450797,-0.00982118,0.00001186
 ,-0.00058736,-0.00246790,-0.00223490,0.00002530,0.00026358,0.00035242,
 0.00030299,-0.00125431,-0.00033798,-0.09507940,0.04152959,-0.00054066,
 -0.01731008,0.03425184,0.00033747,0.00121366,0.00021974,-0.00011947,0.
 00144686,0.00040858,0.00044090,-0.00691991,0.00096992,-0.00013862,0.57
 679104,0.00491520,-0.02162635,-0.00809802,-0.00087685,-0.00011414,-0.0
 0166127,0.00009886,0.00032361,0.00109582,0.00084877,0.00082377,0.00122
 937,0.03509576,-0.17051834,-0.00565646,0.00794954,-0.00231387,-0.00140
 945,-0.00050446,-0.00005251,0.00030268,-0.00143520,0.00046314,-0.00014
 329,-0.00185667,0.00153876,-0.00015491,0.03823772,0.49464932,0.0083071
 5,-0.02835810,-0.00079242,-0.00165949,-0.00394557,-0.00462678,0.000434
 82,0.00013801,0.00059035,0.00065376,0.00060755,0.00075253,0.00315647,-
 0.01615076,-0.07664163,-0.00130748,-0.00001646,0.00171210,0.00030935,-
 0.00018975,-0.00022245,-0.00070080,0.00090260,-0.00003021,-0.00000380,
 0.00011368,0.00005284,0.00047987,-0.00723085,0.59393767,0.00030774,-0.
 00096970,-0.00040533,0.00038032,0.00002542,-0.00005390,0.00000402,0.00
 007524,-0.00005216,0.00079638,0.00039535,0.00046859,-0.01367949,-0.001
 21880,0.00051396,0.00069812,0.00336438,0.00010930,0.00027821,-0.000168
 51,0.00000071,0.00030358,-0.00014355,0.00007639,-0.00081593,0.00025946
 ,-0.00002028,-0.31534470,-0.00324409,0.00350845,0.34235419,0.00096110,
 0.00149289,0.00075583,-0.00027135,0.00023517,0.00025057,-0.00009207,-0
 .00004386,-0.00005440,-0.00067912,-0.00037885,-0.00042895,0.03397117,0
 .00026847,-0.00073619,0.00079590,-0.00622802,0.00010944,-0.00013612,0.
 00000893,-0.00024387,-0.00008257,-0.00003583,0.00020465,0.00221991,-0.
 00010049,0.00010031,-0.00603478,-0.04917463,-0.00009319,0.00292840,0.0
 5208103,0.00093629,0.00012763,-0.00002934,-0.00020932,0.00013946,-0.00
 007155,0.00012387,-0.00006002,-0.00005328,-0.00016546,-0.00044604,0.00
 009114,0.00145887,0.00029617,-0.00160209,-0.00000007,-0.00019453,-0.00
 001864,-0.00033505,-0.00005661,0.00014394,0.00036957,0.00002628,0.0002
 5026,0.00008047,0.00003651,0.00062094,0.00353186,-0.00065211,-0.049846
 31,-0.00427022,0.00137910,0.04806398,-0.00066143,0.00194486,-0.0001062
 2,0.00075929,0.00049349,0.00043061,-0.00012519,-0.00003224,-0.00023025
 ,0.00036777,0.00030129,0.00012268,0.00296610,0.00552326,0.01102493,0.0
 0082685,0.00027417,0.00111977,-0.00007178,0.00004018,0.00007898,-0.000
 23244,0.00026155,-0.00028777,0.00008595,-0.00026324,-0.00009397,-0.079
 01540,-0.04015214,-0.07322436,-0.00927197,-0.01503201,-0.02833307,0.08
 129739,0.00300957,-0.00577911,0.00168426,-0.00056587,-0.00119554,-0.00
 178877,0.00020136,0.00022600,-0.00003121,0.00004058,0.00015636,0.00028
 256,-0.01146100,-0.01543663,-0.02848026,-0.00158944,0.00096750,-0.0003
 8241,0.00006828,0.00000977,0.00010644,0.00096656,0.00028365,0.00053650
 ,-0.00016119,0.00020881,0.00036758,-0.03922453,-0.10323657,-0.09854513
 ,-0.00027188,-0.00040978,0.00037493,0.04154760,0.11173097,0.00086774,-
 0.00046487,0.00089213,-0.00018817,-0.00025502,0.00014075,-0.00004744,0
 .00021543,0.00033024,-0.00005569,0.00013516,-0.00000619,-0.00038491,0.
 00018235,-0.00254459,-0.00026066,0.00035587,-0.00002340,-0.00001731,-0
 .00011484,-0.00003106,0.00055885,-0.00004958,0.00045856,0.00017344,0.0
 0016100,0.00024916,-0.07217850,-0.10102330,-0.23211393,0.00053856,0.00
 150213,0.00164186,0.07998396,0.11115273,0.24947249,-0.00000540,-0.0004
 1154,0.00012651,-0.00011436,-0.00004098,-0.00020492,0.00030448,-0.0000
 5690,-0.00007517,0.00000866,-0.00007662,0.00013769,0.00226816,0.004189
 21,-0.01016651,0.00008511,-0.00006479,-0.00028603,-0.00029749,0.000361
 38,0.00010048,-0.00003505,0.00004916,-0.00006704,0.00017821,-0.0002368
 1,0.00003874,-0.07504329,-0.04220564,0.06645152,-0.00784855,-0.0173183
 4,0.02725349,0.00323508,0.00720560,-0.00905594,0.07656217,-0.00045409,
 0.00084472,0.00064484,0.00020849,0.00041897,-0.00014828,0.00008709,-0.
 00025268,-0.00106896,0.00003922,-0.00008021,-0.00005349,-0.01272820,-0
 .01009624,0.02513567,-0.00077452,0.00084239,0.00028319,0.00086273,0.00
 024383,-0.00040114,0.00008395,-0.00001461,-0.00008882,-0.00016166,0.00
 018319,-0.00035249,-0.04066767,-0.12017546,0.10715434,-0.00022800,-0.0
 0038110,-0.00094817,0.00623108,0.00916187,-0.01218008,0.04514420,0.128
 25513,-0.00002522,-0.00030294,-0.00018517,-0.00009792,0.00013368,0.000
 23989,0.00001288,-0.00033649,0.00041388,-0.00007915,-0.00001669,-0.000
 00216,-0.00043994,-0.00246030,-0.00035488,0.00029806,0.00000403,-0.000
 27392,-0.00035877,-0.00008067,0.00052013,0.00006334,0.00011988,-0.0000
 2389,-0.00025486,-0.00010489,0.00018313,0.06556726,0.10966239,-0.21918
 471,-0.00026211,-0.00140589,0.00073392,0.00919418,0.01456634,-0.019892
 70,-0.07334374,-0.12006129,0.23617698,0.00528907,0.00202572,-0.0022916
 7,-0.00052414,-0.00026488,-0.00015835,0.00147483,-0.00029533,-0.002008
 16,0.00257231,0.00108169,0.00126449,-0.09052992,0.00588370,0.03640825,
 -0.01919626,-0.02241974,0.04155409,-0.00985196,-0.00028844,0.00114023,
 0.00384887,0.00051620,0.00028794,0.00317023,-0.00011558,-0.00024862,0.
 00574850,0.00435086,-0.00778242,0.00159557,-0.00109455,-0.00057636,-0.
 00004118,0.00016523,0.00002134,-0.00016093,0.00281465,-0.00045167,0.16
 538287,0.00382408,0.00553024,-0.00573687,-0.00026170,0.00261141,-0.000
 00067,-0.00053174,0.00065529,-0.00262259,0.00099337,0.00002432,0.00045
 546,-0.01973037,-0.10670525,0.05550681,-0.00565398,-0.00338397,0.00919
 710,-0.00191358,0.00157789,0.00008710,0.00148711,-0.00015957,0.0001384
 3,-0.00017315,0.00223627,-0.00077649,-0.01326577,-0.02979507,0.0402139
 7,-0.00073918,0.00225166,0.00010888,-0.00107513,0.00278054,0.00046714,
 0.00285803,-0.00785559,0.00017280,-0.13123669,0.56223154,0.01647917,0.
 02249012,-0.04823296,0.00134210,0.00045949,0.00334607,-0.00333912,-0.0
 0522474,-0.00832279,0.00053423,0.00133229,0.00307709,0.05113188,0.0137
 1784,-0.15744377,0.01211036,0.01125478,-0.01483301,0.00354180,-0.00034
 797,0.00208147,0.00051071,0.00070151,0.00198452,-0.00171741,-0.0013253
 6,0.00002686,0.00234568,0.01147622,-0.00791297,-0.00012609,-0.00103335
 ,0.00017660,0.00007983,0.00016508,0.00128430,-0.00047646,0.00024297,0.
 00119173,-0.09476514,-0.07399460,0.25819005,-0.00019761,0.00022413,0.0
 0036611,0.00045568,0.00005129,-0.00027070,-0.00013953,-0.00027107,0.00
 032539,-0.00047168,0.00033943,-0.00036634,0.00252794,-0.01670498,0.003
 40206,0.00162820,-0.00277551,-0.00028775,-0.00004727,0.00069416,-0.000
 31055,-0.00032263,-0.00021136,-0.00007163,-0.00065321,0.00098410,0.000
 65345,-0.00073617,-0.00122166,0.00137697,0.00024252,-0.00013558,0.0001
 3513,-0.00011904,0.00006913,0.00004472,0.00086319,-0.00045729,0.000177
 67,-0.06877786,0.16541869,0.01234847,0.06574744,0.00041673,0.00303168,
 -0.00115747,0.00053850,0.00017661,0.00070458,-0.00030531,-0.00020352,-
 0.00076841,-0.00012667,-0.00005313,0.00005890,0.00963829,-0.02187038,-
 0.00388298,0.00007576,0.00162675,-0.00199103,0.00084110,0.00052921,-0.
 00030954,-0.00019925,-0.00029129,0.00008603,-0.00108478,0.00007128,0.0
 0027485,-0.00314483,-0.00079167,0.00539966,-0.00006454,0.00041439,-0.0
 0013148,-0.00006274,0.00053217,-0.00008411,0.00060404,-0.00109421,0.00
 011003,0.13887716,-0.43199971,0.02008572,-0.14600347,0.44992183,-0.001
 37844,0.00183310,0.00134225,0.00045767,-0.00127164,-0.00100020,0.00030
 156,-0.00061762,0.00069608,-0.00005971,-0.00010280,-0.00023798,-0.0117
 4130,0.03909459,-0.00459200,-0.00029349,-0.00001718,0.00091952,-0.0003
 5164,-0.00027605,-0.00012895,-0.00011730,-0.00049291,-0.00014857,0.000
 83454,-0.00032833,0.00021462,0.00248282,0.00226319,-0.00567407,-0.0000
 2587,-0.00030619,-0.00010144,0.00024071,-0.00000864,0.00014239,-0.0004
 3262,0.00184171,0.00045777,0.02760607,-0.02321647,-0.03461320,-0.01752
 300,-0.01839476,0.04272379\\-0.00000553,0.00002512,0.00001230,-0.00000
 151,0.00001540,-0.00001161,-0.00001134,-0.00000591,0.00000898,0.000015
 53,-0.00001021,-0.00001266,0.00001931,-0.00002113,-0.00002033,-0.00001
 988,0.00001976,0.00000322,-0.00000078,-0.00000214,0.00001543,0.0000096
 2,-0.00001212,-0.00001595,0.00000275,0.00001702,-0.00000896,0.00000182
 ,0.00001030,-0.00000836,0.00000847,-0.00000454,0.00000694,-0.00000644,
 -0.00000920,-0.00000198,-0.00001608,-0.00000194,0.00002750,0.00000555,
 -0.00003276,0.00001096,-0.00000150,0.00001234,-0.00000547\\\@


 FORGIVE MY NONSENSE AS I ALSO FORGIVE THOSE WHO THINK THEY TALK SENSE

                                                       -- ROBERT FROST
 Job cpu time:  0 days  0 hours  5 minutes 18.9 seconds.
 File lengths (MBytes):  RWF=     21 Int=      0 D2E=      0 Chk=      3 Scr=      1
 Normal termination of Gaussian 09 at Sat Aug 22 22:06:39 2015.
