 Entering Gaussian System, Link 0=/share/apps/g09/g09
 Input=C4H9OH_1_2_2_opt_631gd.gjf
 Output=C4H9OH_1_2_2_opt_631gd.log
 Initial command:
 /share/apps/g09/l1.exe /state/partition1/Gau-11895.inp -scrdir=/state/partition1/
 Entering Link 1 = /share/apps/g09/l1.exe PID=     11896.
  
 Copyright (c) 1988,1990,1992,1993,1995,1998,2003,2009, Gaussian, Inc.
                  All Rights Reserved.
  
 This is part of the Gaussian(R) 09 program.  It is based on
 the Gaussian(R) 03 system (copyright 2003, Gaussian, Inc.),
 the Gaussian(R) 98 system (copyright 1998, Gaussian, Inc.),
 the Gaussian(R) 94 system (copyright 1995, Gaussian, Inc.),
 the Gaussian 92(TM) system (copyright 1992, Gaussian, Inc.),
 the Gaussian 90(TM) system (copyright 1990, Gaussian, Inc.),
 the Gaussian 88(TM) system (copyright 1988, Gaussian, Inc.),
 the Gaussian 86(TM) system (copyright 1986, Carnegie Mellon
 University), and the Gaussian 82(TM) system (copyright 1983,
 Carnegie Mellon University). Gaussian is a federally registered
 trademark of Gaussian, Inc.
  
 This software contains proprietary and confidential information,
 including trade secrets, belonging to Gaussian, Inc.
  
 This software is provided under written license and may be
 used, copied, transmitted, or stored only in accord with that
 written license.
  
 The following legend is applicable only to US Government
 contracts under FAR:
  
                    RESTRICTED RIGHTS LEGEND
  
 Use, reproduction and disclosure by the US Government is
 subject to restrictions as set forth in subparagraphs (a)
 and (c) of the Commercial Computer Software - Restricted
 Rights clause in FAR 52.227-19.
  
 Gaussian, Inc.
 340 Quinnipiac St., Bldg. 40, Wallingford CT 06492
  
  
 ---------------------------------------------------------------
 Warning -- This program may not be used in any manner that
 competes with the business of Gaussian, Inc. or will provide
 assistance to any competitor of Gaussian, Inc.  The licensee
 of this program is prohibited from giving any competitor of
 Gaussian, Inc. access to this program.  By using this program,
 the user acknowledges that Gaussian, Inc. is engaged in the
 business of creating and licensing software in the field of
 computational chemistry and represents and warrants to the
 licensee that it is not a competitor of Gaussian, Inc. and that
 it will not use this program in any manner prohibited above.
 ---------------------------------------------------------------
  

 Cite this work as:
 Gaussian 09, Revision A.01,
 M. J. Frisch, G. W. Trucks, H. B. Schlegel, G. E. Scuseria, 
 M. A. Robb, J. R. Cheeseman, G. Scalmani, V. Barone, B. Mennucci, 
 G. A. Petersson, H. Nakatsuji, M. Caricato, X. Li, H. P. Hratchian, 
 A. F. Izmaylov, J. Bloino, G. Zheng, J. L. Sonnenberg, M. Hada, 
 M. Ehara, K. Toyota, R. Fukuda, J. Hasegawa, M. Ishida, T. Nakajima, 
 Y. Honda, O. Kitao, H. Nakai, T. Vreven, J. A. Montgomery, Jr., 
 J. E. Peralta, F. Ogliaro, M. Bearpark, J. J. Heyd, E. Brothers, 
 K. N. Kudin, V. N. Staroverov, R. Kobayashi, J. Normand, 
 K. Raghavachari, A. Rendell, J. C. Burant, S. S. Iyengar, J. Tomasi, 
 M. Cossi, N. Rega, J. M. Millam, M. Klene, J. E. Knox, J. B. Cross, 
 V. Bakken, C. Adamo, J. Jaramillo, R. Gomperts, R. E. Stratmann, 
 O. Yazyev, A. J. Austin, R. Cammi, C. Pomelli, J. W. Ochterski, 
 R. L. Martin, K. Morokuma, V. G. Zakrzewski, G. A. Voth, 
 P. Salvador, J. J. Dannenberg, S. Dapprich, A. D. Daniels, 
 O. Farkas, J. B. Foresman, J. V. Ortiz, J. Cioslowski, 
 and D. J. Fox, Gaussian, Inc., Wallingford CT, 2009.
 
 ******************************************
 Gaussian 09:  EM64L-G09RevA.01  8-May-2009
                23-Aug-2015 
 ******************************************
 %mem=28GB
 %nprocshared=12
 Will use up to   12 processors via shared memory.
 %chk=C4H9OH_1_2_2_opt_631gd.chk
 --------------------------
 #p b3lyp/6-31g(d) opt freq
 --------------------------
 1/14=-1,18=20,19=15,26=3,38=1/1,3;
 2/9=110,12=2,17=6,18=5,40=1/2;
 3/5=1,6=6,7=1,11=2,16=1,25=1,30=1,71=1,74=-5/1,2,3;
 4//1;
 5/5=2,38=5/2;
 6/7=2,8=2,9=2,10=2,28=1/1;
 7//1,2,3,16;
 1/14=-1,18=20,19=15/3(2);
 2/9=110/2;
 99//99;
 2/9=110/2;
 3/5=1,6=6,7=1,11=2,16=1,25=1,30=1,71=1,74=-5/1,2,3;
 4/5=5,16=3/1;
 5/5=2,38=5/2;
 7//1,2,3,16;
 1/14=-1,18=20,19=15/3(-5);
 2/9=110/2;
 6/7=2,8=2,9=2,10=2,19=2,28=1/1;
 99/9=1/99;
 Leave Link    1 at Sun Aug 23 11:16:00 2015, MaxMem= 3758096384 cpu:       0.6
 (Enter /share/apps/g09/l101.exe)
 -----------------------------
 using ub3lyp/6-31G(d) to scan
 -----------------------------
 Symbolic Z-matrix:
 Charge =  0 Multiplicity = 1
 C                     1.69562  -0.77802  -0.04897 
 H                     1.63034  -1.78582  -0.47714 
 H                     1.91637  -0.88315   1.02121 
 H                     2.54931  -0.27175  -0.51338 
 C                     0.39957   0.01532  -0.26509 
 H                     0.22253   0.08411  -1.35192 
 C                    -0.79496  -0.7368    0.34059 
 H                    -0.67976  -0.80103   1.42928 
 H                    -0.81994  -1.76931  -0.04634 
 C                     0.50138   1.43952   0.29417 
 H                    -0.44491   1.97427   0.16963 
 H                     0.73432   1.41827   1.36696 
 H                     1.29256   2.00818  -0.2082 
 O                    -2.04513  -0.087     0.13286 
 H                    -2.20469  -0.06601  -0.82382 
 
 NAtoms=     15 NQM=     15 NQMF=      0 NMic=      0 NMicF=      0 NTot=     15.
                    Isotopes and Nuclear Properties:
 (Nuclear quadrupole moments (NQMom) in fm**2, nuclear magnetic moments (NMagM)
  in nuclear magnetons)

  Atom         1           2           3           4           5           6           7           8           9          10
 IAtWgt=          12           1           1           1          12           1          12           1           1          12
 AtmWgt=  12.0000000   1.0078250   1.0078250   1.0078250  12.0000000   1.0078250  12.0000000   1.0078250   1.0078250  12.0000000
 NucSpn=           0           1           1           1           0           1           0           1           1           0
 AtZEff=   0.0000000   0.0000000   0.0000000   0.0000000   0.0000000   0.0000000   0.0000000   0.0000000   0.0000000   0.0000000
 NQMom=    0.0000000   0.0000000   0.0000000   0.0000000   0.0000000   0.0000000   0.0000000   0.0000000   0.0000000   0.0000000
 NMagM=    0.0000000   2.7928460   2.7928460   2.7928460   0.0000000   2.7928460   0.0000000   2.7928460   2.7928460   0.0000000

  Atom        11          12          13          14          15
 IAtWgt=           1           1           1          16           1
 AtmWgt=   1.0078250   1.0078250   1.0078250  15.9949146   1.0078250
 NucSpn=           1           1           1           0           1
 AtZEff=   0.0000000   0.0000000   0.0000000   0.0000000   0.0000000
 NQMom=    0.0000000   0.0000000   0.0000000   0.0000000   0.0000000
 NMagM=    2.7928460   2.7928460   2.7928460   0.0000000   2.7928460
 Leave Link  101 at Sun Aug 23 11:16:00 2015, MaxMem= 3758096384 cpu:       0.7
 (Enter /share/apps/g09/l103.exe)

 GradGradGradGradGradGradGradGradGradGradGradGradGradGradGradGradGradGrad
 Berny optimization.
 Initialization pass.
                           ----------------------------
                           !    Initial Parameters    !
                           ! (Angstroms and Degrees)  !
 --------------------------                            --------------------------
 ! Name  Definition              Value          Derivative Info.                !
 --------------------------------------------------------------------------------
 ! R1    R(1,2)                  1.0969         estimate D2E/DX2                !
 ! R2    R(1,3)                  1.0978         estimate D2E/DX2                !
 ! R3    R(1,4)                  1.0958         estimate D2E/DX2                !
 ! R4    R(1,5)                  1.5349         estimate D2E/DX2                !
 ! R5    R(5,6)                  1.1033         estimate D2E/DX2                !
 ! R6    R(5,7)                  1.536          estimate D2E/DX2                !
 ! R7    R(5,10)                 1.5335         estimate D2E/DX2                !
 ! R8    R(7,8)                  1.0967         estimate D2E/DX2                !
 ! R9    R(7,9)                  1.1029         estimate D2E/DX2                !
 ! R10   R(7,14)                 1.4242         estimate D2E/DX2                !
 ! R11   R(10,11)                1.094          estimate D2E/DX2                !
 ! R12   R(10,12)                1.098          estimate D2E/DX2                !
 ! R13   R(10,13)                1.0962         estimate D2E/DX2                !
 ! R14   R(14,15)                0.9701         estimate D2E/DX2                !
 ! A1    A(2,1,3)              107.7286         estimate D2E/DX2                !
 ! A2    A(2,1,4)              107.7823         estimate D2E/DX2                !
 ! A3    A(2,1,5)              111.6949         estimate D2E/DX2                !
 ! A4    A(3,1,4)              107.5025         estimate D2E/DX2                !
 ! A5    A(3,1,5)              110.8898         estimate D2E/DX2                !
 ! A6    A(4,1,5)              111.0612         estimate D2E/DX2                !
 ! A7    A(1,5,6)              107.844          estimate D2E/DX2                !
 ! A8    A(1,5,7)              110.3684         estimate D2E/DX2                !
 ! A9    A(1,5,10)             111.8782         estimate D2E/DX2                !
 ! A10   A(6,5,7)              107.1074         estimate D2E/DX2                !
 ! A11   A(6,5,10)             108.18           estimate D2E/DX2                !
 ! A12   A(7,5,10)             111.2594         estimate D2E/DX2                !
 ! A13   A(5,7,8)              109.7812         estimate D2E/DX2                !
 ! A14   A(5,7,9)              109.7352         estimate D2E/DX2                !
 ! A15   A(5,7,14)             113.686          estimate D2E/DX2                !
 ! A16   A(8,7,9)              107.2073         estimate D2E/DX2                !
 ! A17   A(8,7,14)             105.2915         estimate D2E/DX2                !
 ! A18   A(9,7,14)             110.8601         estimate D2E/DX2                !
 ! A19   A(5,10,11)            110.7944         estimate D2E/DX2                !
 ! A20   A(5,10,12)            110.6365         estimate D2E/DX2                !
 ! A21   A(5,10,13)            111.2576         estimate D2E/DX2                !
 ! A22   A(11,10,12)           107.7089         estimate D2E/DX2                !
 ! A23   A(11,10,13)           108.5747         estimate D2E/DX2                !
 ! A24   A(12,10,13)           107.7392         estimate D2E/DX2                !
 ! A25   A(7,14,15)            107.3424         estimate D2E/DX2                !
 ! D1    D(2,1,5,6)            -59.4138         estimate D2E/DX2                !
 ! D2    D(2,1,5,7)             57.2757         estimate D2E/DX2                !
 ! D3    D(2,1,5,10)          -178.261          estimate D2E/DX2                !
 ! D4    D(3,1,5,6)           -179.5874         estimate D2E/DX2                !
 ! D5    D(3,1,5,7)            -62.8979         estimate D2E/DX2                !
 ! D6    D(3,1,5,10)            61.5654         estimate D2E/DX2                !
 ! D7    D(4,1,5,6)             60.9454         estimate D2E/DX2                !
 ! D8    D(4,1,5,7)            177.6349         estimate D2E/DX2                !
 ! D9    D(4,1,5,10)           -57.9018         estimate D2E/DX2                !
 ! D10   D(1,5,7,8)             64.7322         estimate D2E/DX2                !
 ! D11   D(1,5,7,9)            -52.8501         estimate D2E/DX2                !
 ! D12   D(1,5,7,14)          -177.6339         estimate D2E/DX2                !
 ! D13   D(6,5,7,8)           -178.1216         estimate D2E/DX2                !
 ! D14   D(6,5,7,9)             64.2961         estimate D2E/DX2                !
 ! D15   D(6,5,7,14)           -60.4876         estimate D2E/DX2                !
 ! D16   D(10,5,7,8)           -60.0852         estimate D2E/DX2                !
 ! D17   D(10,5,7,9)          -177.6675         estimate D2E/DX2                !
 ! D18   D(10,5,7,14)           57.5488         estimate D2E/DX2                !
 ! D19   D(1,5,10,11)         -177.554          estimate D2E/DX2                !
 ! D20   D(1,5,10,12)          -58.1673         estimate D2E/DX2                !
 ! D21   D(1,5,10,13)           61.5589         estimate D2E/DX2                !
 ! D22   D(6,5,10,11)           63.798          estimate D2E/DX2                !
 ! D23   D(6,5,10,12)         -176.8153         estimate D2E/DX2                !
 ! D24   D(6,5,10,13)          -57.0891         estimate D2E/DX2                !
 ! D25   D(7,5,10,11)          -53.5888         estimate D2E/DX2                !
 ! D26   D(7,5,10,12)           65.7979         estimate D2E/DX2                !
 ! D27   D(7,5,10,13)         -174.476          estimate D2E/DX2                !
 ! D28   D(5,7,14,15)           63.4089         estimate D2E/DX2                !
 ! D29   D(8,7,14,15)         -176.3882         estimate D2E/DX2                !
 ! D30   D(9,7,14,15)          -60.769          estimate D2E/DX2                !
 --------------------------------------------------------------------------------
 Trust Radius=3.00D-01 FncErr=1.00D-07 GrdErr=1.00D-06
 Number of steps in this run=  79 maximum allowed number of steps= 100.
 GradGradGradGradGradGradGradGradGradGradGradGradGradGradGradGradGradGrad

 Leave Link  103 at Sun Aug 23 11:16:01 2015, MaxMem= 3758096384 cpu:       0.1
 (Enter /share/apps/g09/l202.exe)
                          Input orientation:                          
 ---------------------------------------------------------------------
 Center     Atomic      Atomic             Coordinates (Angstroms)
 Number     Number       Type             X           Y           Z
 ---------------------------------------------------------------------
      1          6           0        1.695619   -0.778017   -0.048969
      2          1           0        1.630339   -1.785824   -0.477143
      3          1           0        1.916371   -0.883150    1.021214
      4          1           0        2.549313   -0.271749   -0.513382
      5          6           0        0.399568    0.015321   -0.265086
      6          1           0        0.222528    0.084114   -1.351920
      7          6           0       -0.794961   -0.736803    0.340585
      8          1           0       -0.679760   -0.801031    1.429283
      9          1           0       -0.819938   -1.769308   -0.046344
     10          6           0        0.501378    1.439523    0.294171
     11          1           0       -0.444908    1.974269    0.169631
     12          1           0        0.734315    1.418268    1.366955
     13          1           0        1.292555    2.008175   -0.208202
     14          8           0       -2.045128   -0.087003    0.132860
     15          1           0       -2.204686   -0.066014   -0.823818
 ---------------------------------------------------------------------
                    Distance matrix (angstroms):
                    1          2          3          4          5
     1  C    0.000000
     2  H    1.096936   0.000000
     3  H    1.097760   1.772486   0.000000
     4  H    1.095801   1.771511   1.769014   0.000000
     5  C    1.534875   2.191778   2.182317   2.182994   0.000000
     6  H    2.147312   2.498767   3.071884   2.498742   1.103306
     7  C    2.521198   2.766081   2.799285   3.482772   1.536043
     8  H    2.797889   3.152909   2.629289   3.805391   2.168471
     9  H    2.703829   2.487914   3.067954   3.716539   2.172543
    10  C    2.541936   3.503190   2.815245   2.788303   1.533455
    11  H    3.493525   4.343186   3.803377   3.804795   2.177061
    12  H    2.784352   3.803914   2.610233   3.112241   2.178044
    13  H    2.819695   3.818489   3.203181   2.621188   2.184520
    14  O    3.808379   4.094772   4.137209   4.643344   2.478986
    15  H    4.039767   4.217268   4.588569   4.768564   2.664758
                    6          7          8          9         10
     6  H    0.000000
     7  C    2.138635   0.000000
     8  H    3.054946   1.096658   0.000000
     9  H    2.495283   1.102907   1.770504   0.000000
    10  C    2.150467   2.533583   2.775545   3.486893   0.000000
    11  H    2.516600   2.738918   3.056823   3.768509   1.094039
    12  H    3.071510   2.834864   2.632258   3.817559   1.097988
    13  H    2.480939   3.491961   3.803028   4.331074   1.096223
    14  O    2.715901   1.424187   2.013648   2.088864   2.973381
    15  H    2.488533   1.947593   2.818176   2.328777   3.292313
                   11         12         13         14         15
    11  H    0.000000
    12  H    1.770110   0.000000
    13  H    1.778394   1.772214   0.000000
    14  O    2.609770   3.393248   3.955531   0.000000
    15  H    2.871674   3.954783   4.112413   0.970120   0.000000
 Stoichiometry    C4H10O
 Framework group  C1[X(C4H10O)]
 Deg. of freedom    39
 Full point group                 C1      NOp   1
 Largest Abelian subgroup         C1      NOp   1
 Largest concise Abelian subgroup C1      NOp   1
                         Standard orientation:                         
 ---------------------------------------------------------------------
 Center     Atomic      Atomic             Coordinates (Angstroms)
 Number     Number       Type             X           Y           Z
 ---------------------------------------------------------------------
      1          6           0        1.715257   -0.790463   -0.004273
      2          1           0        1.645542   -1.826572   -0.357667
      3          1           0        1.890384   -0.817853    1.079081
      4          1           0        2.597703   -0.336889   -0.469397
      5          6           0        0.446397    0.007919   -0.333545
      6          1           0        0.314823   -0.002995   -1.428923
      7          6           0       -0.787527   -0.673702    0.276580
      8          1           0       -0.717704   -0.656953    1.370885
      9          1           0       -0.819176   -1.732037   -0.032177
     10          6           0        0.556311    1.468450    0.120606
     11          1           0       -0.372423    2.009548   -0.083324
     12          1           0        0.745316    1.524654    1.200742
     13          1           0        1.379181    1.982481   -0.389651
     14          8           0       -2.013988   -0.018625   -0.031600
     15          1           0       -2.134375   -0.067607   -0.992974
 ---------------------------------------------------------------------
 Rotational constants (GHZ):      7.5062893      3.4704805      2.6332522
 Leave Link  202 at Sun Aug 23 11:16:01 2015, MaxMem= 3758096384 cpu:       0.1
 (Enter /share/apps/g09/l301.exe)
 Standard basis: 6-31G(d) (6D, 7F)
 Ernie: Thresh=  0.10000D-02 Tol=  0.10000D-05 Strict=F.
 There are    95 symmetry adapted basis functions of A   symmetry.
 Integral buffers will be    131072 words long.
 Raffenetti 2 integral format.
 Two-electron integral symmetry is turned on.
    95 basis functions,   180 primitive gaussians,    95 cartesian basis functions
    21 alpha electrons       21 beta electrons
       nuclear repulsion energy       192.3074993440 Hartrees.
 IExCor=  402 DFT=T Ex+Corr=B3LYP ExCW=0 ScaHFX=  0.200000
 ScaDFX=  0.800000  0.720000  1.000000  0.810000 ScalE2=  1.000000  1.000000
 IRadAn=      0 IRanWt=     -1 IRanGd=            0 ICorTp=0
 NAtoms=   15 NActive=   15 NUniq=   15 SFac= 7.50D-01 NAtFMM=   80 NAOKFM=F Big=F
 Leave Link  301 at Sun Aug 23 11:16:01 2015, MaxMem= 3758096384 cpu:       0.6
 (Enter /share/apps/g09/l302.exe)
 NPDir=0 NMtPBC=     1 NCelOv=     1 NCel=       1 NClECP=     1 NCelD=      1
         NCelK=      1 NCelE2=     1 NClLst=     1 CellRange=     0.0.
 One-electron integrals computed using PRISM.
 NBasis=    95 RedAO= T  NBF=    95
 NBsUse=    95 1.00D-06 NBFU=    95
 Precomputing XC quadrature grid using
 IXCGrd= 2 IRadAn=           0 IRanWt=          -1 IRanGd=           0 AccXCQ= 1.00D-10.
 NRdTot=     929 NPtTot=      117676 NUsed=      124387 NTot=      124419
 NSgBfM=    95    95    95    95    95 NAtAll=    15    15.
 Leave Link  302 at Sun Aug 23 11:16:01 2015, MaxMem= 3758096384 cpu:       2.6
 (Enter /share/apps/g09/l303.exe)
 DipDrv:  MaxL=1.
 Leave Link  303 at Sun Aug 23 11:16:02 2015, MaxMem= 3758096384 cpu:       0.9
 (Enter /share/apps/g09/l401.exe)
 Harris functional with IExCor=  402 diagonalized for initial guess.
 ExpMin= 1.61D-01 ExpMax= 5.48D+03 ExpMxC= 8.25D+02 IAcc=1 IRadAn=         1 AccDes= 0.00D+00
 HarFok:  IExCor=  402 AccDes= 0.00D+00 IRadAn=         1 IDoV= 1
 ScaDFX=  1.000000  1.000000  1.000000  1.000000
 FoFCou: FMM=F IPFlag=           0 FMFlag=      100000 FMFlg1=           0
         NFxFlg=           0 DoJE=T BraDBF=F KetDBF=T FulRan=T
         Omega=  0.000000  0.000000  1.000000  0.000000  0.000000 ICntrl=     500 IOpCl=  0
         NMat0=    1 NMatS0=    1 NMatT0=    0 NMatD0=    1 NMtDS0=    0 NMtDT0=    0
         I1Cent=           4 NGrid=           0.
 Petite list used in FoFCou.
 Harris En= -233.736591533712    
 Initial guess orbital symmetries:
       Occupied  (A) (A) (A) (A) (A) (A) (A) (A) (A) (A) (A) (A)
                 (A) (A) (A) (A) (A) (A) (A) (A) (A)
       Virtual   (A) (A) (A) (A) (A) (A) (A) (A) (A) (A) (A) (A)
                 (A) (A) (A) (A) (A) (A) (A) (A) (A) (A) (A) (A)
                 (A) (A) (A) (A) (A) (A) (A) (A) (A) (A) (A) (A)
                 (A) (A) (A) (A) (A) (A) (A) (A) (A) (A) (A) (A)
                 (A) (A) (A) (A) (A) (A) (A) (A) (A) (A) (A) (A)
                 (A) (A) (A) (A) (A) (A) (A) (A) (A) (A) (A) (A)
                 (A) (A)
 The electronic state of the initial guess is 1-A.
 Leave Link  401 at Sun Aug 23 11:16:02 2015, MaxMem= 3758096384 cpu:       3.6
 (Enter /share/apps/g09/l502.exe)
 Closed shell SCF:
 Requested convergence on RMS density matrix=1.00D-08 within 128 cycles.
 Requested convergence on MAX density matrix=1.00D-06.
 Requested convergence on             energy=1.00D-06.
 No special actions if energy rises.
 Using DIIS extrapolation, IDIIS=  1040.
 Integral symmetry usage will be decided dynamically.
       124239 words used for storage of precomputed grid.
 Keep R1 ints in memory in canonical form, NReq=11484431.
 IEnd=      171335 IEndB=      171335 NGot=  3758096384 MDV=  3747551702
 LenX=  3747551702 LenY=  3747542236
 Symmetry not used in FoFDir.
 MinBra= 0 MaxBra= 2 Meth= 1.
 IRaf=       0 NMat=   1 IRICut=       1 DoRegI=T DoRafI=F ISym2E= 0 JSym2E=0.
 Integral accuracy reduced to 1.0D-05 until final iterations.

 Cycle   1  Pass 0  IDiag  1:
 E= -233.452814593821    
 DIIS: error= 5.05D-02 at cycle   1 NSaved=   1.
 NSaved= 1 IEnMin= 1 EnMin= -233.452814593821     IErMin= 1 ErrMin= 5.05D-02
 ErrMax= 5.05D-02 EMaxC= 1.00D-01 BMatC= 2.05D-01 BMatP= 2.05D-01
 IDIUse=3 WtCom= 4.95D-01 WtEn= 5.05D-01
 Coeff-Com:  0.100D+01
 Coeff-En:   0.100D+01
 Coeff:      0.100D+01
 Gap=     0.275 Goal=   None    Shift=    0.000
 GapD=    0.275 DampG=1.000 DampE=0.500 DampFc=0.5000 IDamp=-1.
 Damping current iteration by 5.00D-01
 RMSDP=1.07D-02 MaxDP=1.43D-01              OVMax= 1.81D-01

 Cycle   2  Pass 0  IDiag  1:
 E= -233.543976736289     Delta-E=       -0.091162142468 Rises=F Damp=T
 DIIS: error= 7.95D-03 at cycle   2 NSaved=   2.
 NSaved= 2 IEnMin= 2 EnMin= -233.543976736289     IErMin= 2 ErrMin= 7.95D-03
 ErrMax= 7.95D-03 EMaxC= 1.00D-01 BMatC= 9.16D-03 BMatP= 2.05D-01
 IDIUse=3 WtCom= 9.20D-01 WtEn= 7.95D-02
 Coeff-Com:  0.101D+00 0.899D+00
 Coeff-En:   0.152D+00 0.848D+00
 Coeff:      0.105D+00 0.895D+00
 Gap=     0.337 Goal=   None    Shift=    0.000
 RMSDP=1.58D-03 MaxDP=1.89D-02 DE=-9.12D-02 OVMax= 9.29D-02

 Cycle   3  Pass 0  IDiag  1:
 E= -233.661923476211     Delta-E=       -0.117946739922 Rises=F Damp=F
 DIIS: error= 2.94D-03 at cycle   3 NSaved=   3.
 NSaved= 3 IEnMin= 3 EnMin= -233.661923476211     IErMin= 3 ErrMin= 2.94D-03
 ErrMax= 2.94D-03 EMaxC= 1.00D-01 BMatC= 1.62D-03 BMatP= 9.16D-03
 IDIUse=3 WtCom= 9.71D-01 WtEn= 2.94D-02
 Coeff-Com:  0.155D-01 0.256D+00 0.728D+00
 Coeff-En:   0.000D+00 0.000D+00 0.100D+01
 Coeff:      0.151D-01 0.249D+00 0.736D+00
 Gap=     0.332 Goal=   None    Shift=    0.000
 RMSDP=5.84D-04 MaxDP=1.16D-02 DE=-1.18D-01 OVMax= 1.07D-02

 Cycle   4  Pass 0  IDiag  1:
 E= -233.662574358192     Delta-E=       -0.000650881980 Rises=F Damp=F
 DIIS: error= 2.06D-03 at cycle   4 NSaved=   4.
 NSaved= 4 IEnMin= 4 EnMin= -233.662574358192     IErMin= 4 ErrMin= 2.06D-03
 ErrMax= 2.06D-03 EMaxC= 1.00D-01 BMatC= 8.40D-04 BMatP= 1.62D-03
 IDIUse=3 WtCom= 9.79D-01 WtEn= 2.06D-02
 Coeff-Com:  0.156D-02 0.495D-01 0.421D+00 0.528D+00
 Coeff-En:   0.000D+00 0.000D+00 0.340D+00 0.660D+00
 Coeff:      0.153D-02 0.485D-01 0.419D+00 0.531D+00
 Gap=     0.335 Goal=   None    Shift=    0.000
 RMSDP=2.76D-04 MaxDP=5.90D-03 DE=-6.51D-04 OVMax= 5.03D-03

 Cycle   5  Pass 0  IDiag  1:
 E= -233.663214408734     Delta-E=       -0.000640050542 Rises=F Damp=F
 DIIS: error= 3.31D-04 at cycle   5 NSaved=   5.
 NSaved= 5 IEnMin= 5 EnMin= -233.663214408734     IErMin= 5 ErrMin= 3.31D-04
 ErrMax= 3.31D-04 EMaxC= 1.00D-01 BMatC= 2.01D-05 BMatP= 8.40D-04
 IDIUse=3 WtCom= 9.97D-01 WtEn= 3.31D-03
 Coeff-Com:  0.184D-03 0.210D-02 0.116D+00 0.209D+00 0.673D+00
 Coeff-En:   0.000D+00 0.000D+00 0.000D+00 0.000D+00 0.100D+01
 Coeff:      0.184D-03 0.209D-02 0.116D+00 0.208D+00 0.674D+00
 Gap=     0.334 Goal=   None    Shift=    0.000
 RMSDP=5.69D-05 MaxDP=1.13D-03 DE=-6.40D-04 OVMax= 9.34D-04

 Cycle   6  Pass 0  IDiag  1:
 E= -233.663230189634     Delta-E=       -0.000015780899 Rises=F Damp=F
 DIIS: error= 1.10D-04 at cycle   6 NSaved=   6.
 NSaved= 6 IEnMin= 6 EnMin= -233.663230189634     IErMin= 6 ErrMin= 1.10D-04
 ErrMax= 1.10D-04 EMaxC= 1.00D-01 BMatC= 2.01D-06 BMatP= 2.01D-05
 IDIUse=3 WtCom= 9.99D-01 WtEn= 1.10D-03
 Coeff-Com:  0.141D-03-0.126D-02 0.428D-01 0.865D-01 0.351D+00 0.521D+00
 Coeff-En:   0.000D+00 0.000D+00 0.000D+00 0.000D+00 0.000D+00 0.100D+01
 Coeff:      0.141D-03-0.126D-02 0.428D-01 0.864D-01 0.351D+00 0.521D+00
 Gap=     0.334 Goal=   None    Shift=    0.000
 RMSDP=1.36D-05 MaxDP=3.36D-04 DE=-1.58D-05 OVMax= 3.06D-04

 Cycle   7  Pass 0  IDiag  1:
 E= -233.663231990554     Delta-E=       -0.000001800920 Rises=F Damp=F
 DIIS: error= 9.58D-06 at cycle   7 NSaved=   7.
 NSaved= 7 IEnMin= 7 EnMin= -233.663231990554     IErMin= 7 ErrMin= 9.58D-06
 ErrMax= 9.58D-06 EMaxC= 1.00D-01 BMatC= 2.31D-08 BMatP= 2.01D-06
 IDIUse=1 WtCom= 1.00D+00 WtEn= 0.00D+00
 Coeff-Com:  0.728D-04-0.520D-03 0.722D-02 0.158D-01 0.715D-01 0.155D+00
 Coeff-Com:  0.751D+00
 Coeff:      0.728D-04-0.520D-03 0.722D-02 0.158D-01 0.715D-01 0.155D+00
 Coeff:      0.751D+00
 Gap=     0.334 Goal=   None    Shift=    0.000
 RMSDP=2.32D-06 MaxDP=2.98D-05 DE=-1.80D-06 OVMax= 3.91D-05

 Initial convergence to 1.0D-05 achieved.  Increase integral accuracy.
 Cycle   8  Pass 1  IDiag  1:
 E= -233.663206566259     Delta-E=        0.000025424295 Rises=F Damp=F
 DIIS: error= 1.11D-05 at cycle   1 NSaved=   1.
 NSaved= 1 IEnMin= 1 EnMin= -233.663206566259     IErMin= 1 ErrMin= 1.11D-05
 ErrMax= 1.11D-05 EMaxC= 1.00D-01 BMatC= 1.84D-08 BMatP= 1.84D-08
 IDIUse=1 WtCom= 1.00D+00 WtEn= 0.00D+00
 Coeff-Com:  0.100D+01
 Coeff:      0.100D+01
 Gap=     0.334 Goal=   None    Shift=    0.000
 RMSDP=2.32D-06 MaxDP=2.98D-05 DE= 2.54D-05 OVMax= 6.01D-05

 Cycle   9  Pass 1  IDiag  1:
 E= -233.663206592129     Delta-E=       -0.000000025871 Rises=F Damp=F
 DIIS: error= 2.68D-06 at cycle   2 NSaved=   2.
 NSaved= 2 IEnMin= 2 EnMin= -233.663206592129     IErMin= 2 ErrMin= 2.68D-06
 ErrMax= 2.68D-06 EMaxC= 1.00D-01 BMatC= 1.01D-09 BMatP= 1.84D-08
 IDIUse=1 WtCom= 1.00D+00 WtEn= 0.00D+00
 Coeff-Com:  0.611D-01 0.939D+00
 Coeff:      0.611D-01 0.939D+00
 Gap=     0.334 Goal=   None    Shift=    0.000
 RMSDP=7.10D-07 MaxDP=9.77D-06 DE=-2.59D-08 OVMax= 1.28D-05

 Cycle  10  Pass 1  IDiag  1:
 E= -233.663206592510     Delta-E=       -0.000000000381 Rises=F Damp=F
 DIIS: error= 2.72D-06 at cycle   3 NSaved=   3.
 NSaved= 3 IEnMin= 3 EnMin= -233.663206592510     IErMin= 2 ErrMin= 2.68D-06
 ErrMax= 2.72D-06 EMaxC= 1.00D-01 BMatC= 7.25D-10 BMatP= 1.01D-09
 IDIUse=1 WtCom= 1.00D+00 WtEn= 0.00D+00
 Coeff-Com: -0.171D-01 0.459D+00 0.559D+00
 Coeff:     -0.171D-01 0.459D+00 0.559D+00
 Gap=     0.334 Goal=   None    Shift=    0.000
 RMSDP=2.97D-07 MaxDP=4.71D-06 DE=-3.81D-10 OVMax= 5.99D-06

 Cycle  11  Pass 1  IDiag  1:
 E= -233.663206593202     Delta-E=       -0.000000000693 Rises=F Damp=F
 DIIS: error= 3.70D-07 at cycle   4 NSaved=   4.
 NSaved= 4 IEnMin= 4 EnMin= -233.663206593202     IErMin= 4 ErrMin= 3.70D-07
 ErrMax= 3.70D-07 EMaxC= 1.00D-01 BMatC= 2.22D-11 BMatP= 7.25D-10
 IDIUse=1 WtCom= 1.00D+00 WtEn= 0.00D+00
 Coeff-Com: -0.987D-02 0.166D+00 0.247D+00 0.596D+00
 Coeff:     -0.987D-02 0.166D+00 0.247D+00 0.596D+00
 Gap=     0.334 Goal=   None    Shift=    0.000
 RMSDP=5.44D-08 MaxDP=9.25D-07 DE=-6.93D-10 OVMax= 1.03D-06

 Cycle  12  Pass 1  IDiag  1:
 E= -233.663206593223     Delta-E=       -0.000000000021 Rises=F Damp=F
 DIIS: error= 9.24D-08 at cycle   5 NSaved=   5.
 NSaved= 5 IEnMin= 5 EnMin= -233.663206593223     IErMin= 5 ErrMin= 9.24D-08
 ErrMax= 9.24D-08 EMaxC= 1.00D-01 BMatC= 1.48D-12 BMatP= 2.22D-11
 IDIUse=1 WtCom= 1.00D+00 WtEn= 0.00D+00
 Coeff-Com: -0.295D-02 0.416D-01 0.707D-01 0.260D+00 0.630D+00
 Coeff:     -0.295D-02 0.416D-01 0.707D-01 0.260D+00 0.630D+00
 Gap=     0.334 Goal=   None    Shift=    0.000
 RMSDP=1.46D-08 MaxDP=3.36D-07 DE=-2.09D-11 OVMax= 2.72D-07

 Cycle  13  Pass 1  IDiag  1:
 E= -233.663206593224     Delta-E=        0.000000000000 Rises=F Damp=F
 DIIS: error= 3.43D-08 at cycle   6 NSaved=   6.
 NSaved= 6 IEnMin= 6 EnMin= -233.663206593224     IErMin= 6 ErrMin= 3.43D-08
 ErrMax= 3.43D-08 EMaxC= 1.00D-01 BMatC= 2.70D-13 BMatP= 1.48D-12
 IDIUse=1 WtCom= 1.00D+00 WtEn= 0.00D+00
 Coeff-Com: -0.413D-03 0.195D-02 0.791D-02 0.648D-01 0.339D+00 0.587D+00
 Coeff:     -0.413D-03 0.195D-02 0.791D-02 0.648D-01 0.339D+00 0.587D+00
 Gap=     0.334 Goal=   None    Shift=    0.000
 RMSDP=5.42D-09 MaxDP=8.97D-08 DE=-1.71D-13 OVMax= 9.55D-08

 SCF Done:  E(RB3LYP) =  -233.663206593     A.U. after   13 cycles
             Convg  =    0.5416D-08             -V/T =  2.0096
 KE= 2.314429700566D+02 PE=-9.279688681832D+02 EE= 2.705551921894D+02
 Leave Link  502 at Sun Aug 23 11:16:07 2015, MaxMem= 3758096384 cpu:      45.3
 (Enter /share/apps/g09/l601.exe)
 Copying SCF densities to generalized density rwf, IOpCl= 0 IROHF=0.

 **********************************************************************

            Population analysis using the SCF density.

 **********************************************************************

 Orbital symmetries:
       Occupied  (A) (A) (A) (A) (A) (A) (A) (A) (A) (A) (A) (A)
                 (A) (A) (A) (A) (A) (A) (A) (A) (A)
       Virtual   (A) (A) (A) (A) (A) (A) (A) (A) (A) (A) (A) (A)
                 (A) (A) (A) (A) (A) (A) (A) (A) (A) (A) (A) (A)
                 (A) (A) (A) (A) (A) (A) (A) (A) (A) (A) (A) (A)
                 (A) (A) (A) (A) (A) (A) (A) (A) (A) (A) (A) (A)
                 (A) (A) (A) (A) (A) (A) (A) (A) (A) (A) (A) (A)
                 (A) (A) (A) (A) (A) (A) (A) (A) (A) (A) (A) (A)
                 (A) (A)
 The electronic state is 1-A.
 Alpha  occ. eigenvalues --  -19.14012 -10.22389 -10.18850 -10.17635 -10.16813
 Alpha  occ. eigenvalues --   -1.01124  -0.79506  -0.68086  -0.66833  -0.57196
 Alpha  occ. eigenvalues --   -0.49162  -0.46675  -0.43906  -0.40833  -0.39524
 Alpha  occ. eigenvalues --   -0.38134  -0.35936  -0.33895  -0.32995  -0.31242
 Alpha  occ. eigenvalues --   -0.26139
 Alpha virt. eigenvalues --    0.07280   0.09555   0.12934   0.14810   0.15671
 Alpha virt. eigenvalues --    0.15919   0.17536   0.18164   0.18625   0.21283
 Alpha virt. eigenvalues --    0.23691   0.24500   0.25807   0.26796   0.51022
 Alpha virt. eigenvalues --    0.51938   0.52966   0.53853   0.56662   0.64367
 Alpha virt. eigenvalues --    0.68655   0.68717   0.71547   0.73142   0.76396
 Alpha virt. eigenvalues --    0.80100   0.84349   0.86378   0.86951   0.89889
 Alpha virt. eigenvalues --    0.90332   0.90972   0.93843   0.94024   0.96930
 Alpha virt. eigenvalues --    0.98191   0.98486   1.03296   1.08204   1.18125
 Alpha virt. eigenvalues --    1.35542   1.40076   1.43981   1.46927   1.57129
 Alpha virt. eigenvalues --    1.61864   1.64493   1.74314   1.79419   1.83297
 Alpha virt. eigenvalues --    1.90498   1.91985   1.96836   1.99722   2.04462
 Alpha virt. eigenvalues --    2.10577   2.12078   2.18382   2.23891   2.25523
 Alpha virt. eigenvalues --    2.27877   2.35373   2.42304   2.49322   2.52364
 Alpha virt. eigenvalues --    2.54968   2.70457   2.76341   2.88626   3.77309
 Alpha virt. eigenvalues --    4.15964   4.28941   4.32957   4.56447
          Condensed to atoms (all electrons):
              1          2          3          4          5          6
     1  C    5.127895   0.370167   0.374379   0.368782   0.338098  -0.041872
     2  H    0.370167   0.579791  -0.031544  -0.030310  -0.031996  -0.003352
     3  H    0.374379  -0.031544   0.576911  -0.031436  -0.035030   0.005909
     4  H    0.368782  -0.030310  -0.031436   0.571403  -0.023997  -0.004321
     5  C    0.338098  -0.031996  -0.035030  -0.023997   4.977387   0.370346
     6  H   -0.041872  -0.003352   0.005909  -0.004321   0.370346   0.655610
     7  C   -0.039988  -0.003678  -0.006135   0.003926   0.371225  -0.047616
     8  H   -0.002229  -0.000302   0.004981  -0.000211  -0.040050   0.006650
     9  H    0.001340   0.005739  -0.000451  -0.000165  -0.054995  -0.005855
    10  C   -0.048593   0.005277  -0.005580  -0.003165   0.372347  -0.050456
    11  H    0.005565  -0.000166  -0.000017  -0.000076  -0.031508  -0.002413
    12  H   -0.005593  -0.000013   0.005114  -0.000270  -0.035678   0.005929
    13  H   -0.003362  -0.000052  -0.000225   0.003602  -0.030273  -0.004311
    14  O    0.003267   0.000015  -0.000001  -0.000061  -0.046214  -0.001599
    15  H   -0.000032  -0.000008   0.000023  -0.000002  -0.004086   0.006550
              7          8          9         10         11         12
     1  C   -0.039988  -0.002229   0.001340  -0.048593   0.005565  -0.005593
     2  H   -0.003678  -0.000302   0.005739   0.005277  -0.000166  -0.000013
     3  H   -0.006135   0.004981  -0.000451  -0.005580  -0.000017   0.005114
     4  H    0.003926  -0.000211  -0.000165  -0.003165  -0.000076  -0.000270
     5  C    0.371225  -0.040050  -0.054995   0.372347  -0.031508  -0.035678
     6  H   -0.047616   0.006650  -0.005855  -0.050456  -0.002413   0.005929
     7  C    4.833562   0.372748   0.361064  -0.046648  -0.007554  -0.005194
     8  H    0.372748   0.597082  -0.044331  -0.009071  -0.000219   0.005131
     9  H    0.361064  -0.044331   0.655448   0.006655   0.000400  -0.000064
    10  C   -0.046648  -0.009071   0.006655   5.108141   0.368788   0.373255
    11  H   -0.007554  -0.000219   0.000400   0.368788   0.554344  -0.028847
    12  H   -0.005194   0.005131  -0.000064   0.373255  -0.028847   0.580212
    13  H    0.004822  -0.000066  -0.000156   0.370531  -0.029577  -0.031995
    14  O    0.264075  -0.039083  -0.034707  -0.003954   0.013792  -0.000123
    15  H   -0.032713   0.007938  -0.006211  -0.000771  -0.000111   0.000082
             13         14         15
     1  C   -0.003362   0.003267  -0.000032
     2  H   -0.000052   0.000015  -0.000008
     3  H   -0.000225  -0.000001   0.000023
     4  H    0.003602  -0.000061  -0.000002
     5  C   -0.030273  -0.046214  -0.004086
     6  H   -0.004311  -0.001599   0.006550
     7  C    0.004822   0.264075  -0.032713
     8  H   -0.000066  -0.039083   0.007938
     9  H   -0.000156  -0.034707  -0.006211
    10  C    0.370531  -0.003954  -0.000771
    11  H   -0.029577   0.013792  -0.000111
    12  H   -0.031995  -0.000123   0.000082
    13  H    0.583880   0.000119  -0.000049
    14  O    0.000119   8.225180   0.233418
    15  H   -0.000049   0.233418   0.410504
 Mulliken atomic charges:
              1
     1  C   -0.447826
     2  H    0.140430
     3  H    0.143101
     4  H    0.146301
     5  C   -0.095576
     6  H    0.110799
     7  C   -0.021896
     8  H    0.141030
     9  H    0.116289
    10  C   -0.436756
    11  H    0.157599
    12  H    0.138051
    13  H    0.137112
    14  O   -0.614124
    15  H    0.385466
 Sum of Mulliken atomic charges =   0.00000
 Mulliken charges with hydrogens summed into heavy atoms:
              1
     1  C   -0.017994
     5  C    0.015223
     7  C    0.235422
    10  C   -0.003994
    14  O   -0.228658
 Sum of Mulliken charges with hydrogens summed into heavy atoms =   0.00000
 Electronic spatial extent (au):  <R**2>=            520.3545
 Charge=              0.0000 electrons
 Dipole moment (field-independent basis, Debye):
    X=              0.9713    Y=             -0.5882    Z=             -1.2070  Tot=              1.6572
 Quadrupole moment (field-independent basis, Debye-Ang):
   XX=            -36.1660   YY=            -33.2981   ZZ=            -30.7658
   XY=              0.7561   XZ=              3.1684   YZ=             -0.0658
 Traceless Quadrupole moment (field-independent basis, Debye-Ang):
   XX=             -2.7560   YY=              0.1119   ZZ=              2.6441
   XY=              0.7561   XZ=              3.1684   YZ=             -0.0658
 Octapole moment (field-independent basis, Debye-Ang**2):
  XXX=             -2.1417  YYY=             -1.5817  ZZZ=             -1.2439  XYY=             -3.4346
  XXY=              0.2546  XXZ=             -8.7508  XZZ=             -6.9891  YZZ=             -0.3405
  YYZ=             -1.0325  XYZ=             -0.2645
 Hexadecapole moment (field-independent basis, Debye-Ang**3):
 XXXX=           -399.6729 YYYY=           -216.4969 ZZZZ=            -68.7807 XXXY=              3.1494
 XXXZ=             17.7390 YYYX=             -0.5006 YYYZ=              0.3330 ZZZX=              6.8342
 ZZZY=             -0.0316 XXYY=           -100.8508 XXZZ=            -66.8268 YYZZ=            -48.6886
 XXYZ=             -0.6736 YYXZ=              0.1382 ZZXY=              0.8700
 N-N= 1.923074993440D+02 E-N=-9.279688698791D+02  KE= 2.314429700566D+02
 No NMR shielding tensors so no spin-rotation constants.
 Leave Link  601 at Sun Aug 23 11:16:07 2015, MaxMem= 3758096384 cpu:       1.9
 (Enter /share/apps/g09/l701.exe)
 Compute integral first derivatives.
 ... and contract with generalized density number  0.
 Leave Link  701 at Sun Aug 23 11:16:08 2015, MaxMem= 3758096384 cpu:       5.1
 (Enter /share/apps/g09/l702.exe)
 L702 exits ... SP integral derivatives will be done elsewhere.
 Leave Link  702 at Sun Aug 23 11:16:08 2015, MaxMem= 3758096384 cpu:       0.2
 (Enter /share/apps/g09/l703.exe)
 Compute integral first derivatives, UseDBF=F ICtDFT=           0.
 Integral derivatives from FoFDir, PRISM(SPDF).
 Calling FoFJK, ICntrl=      2127 FMM=F ISym2X=0 I1Cent= 0 IOpClX= 0 NMat=1 NMatS=1 NMatT=0.
 FoFCou: FMM=F IPFlag=           0 FMFlag=      100000 FMFlg1=         800
         NFxFlg=           0 DoJE=F BraDBF=F KetDBF=F FulRan=T
         Omega=  0.000000  0.000000  1.000000  0.000000  0.000000 ICntrl=    2127 IOpCl=  0
         NMat0=    1 NMatS0=    1 NMatT0=    0 NMatD0=    1 NMtDS0=    0 NMtDT0=    0
         I1Cent=           0 NGrid=           0.
 Symmetry not used in FoFCou.
 Leave Link  703 at Sun Aug 23 11:16:09 2015, MaxMem= 3758096384 cpu:      11.7
 (Enter /share/apps/g09/l716.exe)
 Dipole        = 3.82152616D-01-2.31426148D-01-4.74869899D-01
 ***** Axes restored to original set *****
 -------------------------------------------------------------------
 Center     Atomic                   Forces (Hartrees/Bohr)
 Number     Number              X              Y              Z
 -------------------------------------------------------------------
      1        6           0.000003566    0.000024205    0.000043730
      2        1          -0.000000988    0.000028820   -0.000004753
      3        1           0.000006695    0.000008499    0.000019442
      4        1           0.000008124    0.000001939   -0.000005555
      5        6          -0.000010845   -0.000087209   -0.000072144
      6        1          -0.000007468    0.000012578   -0.000003764
      7        6           0.000028250    0.000063159    0.000053696
      8        1           0.000007646   -0.000003007    0.000006705
      9        1          -0.000015441   -0.000015990    0.000004241
     10        6          -0.000011898   -0.000035622   -0.000087203
     11        1           0.000004399    0.000017640    0.000027171
     12        1          -0.000008229    0.000017192    0.000031031
     13        1           0.000011845   -0.000002287    0.000005206
     14        8          -0.000029392   -0.000068960   -0.000027846
     15        1           0.000013735    0.000039044    0.000010043
 -------------------------------------------------------------------
 Cartesian Forces:  Max     0.000087209 RMS     0.000031694
 Leave Link  716 at Sun Aug 23 11:16:09 2015, MaxMem= 3758096384 cpu:       0.3
 (Enter /share/apps/g09/l103.exe)

 GradGradGradGradGradGradGradGradGradGradGradGradGradGradGradGradGradGrad
 Berny optimization.
 Internal  Forces:  Max     0.000047859 RMS     0.000016005
 Search for a local minimum.
 Step number   1 out of a maximum of   79
 All quantities printed in internal units (Hartrees-Bohrs-Radians)
 RMS Force = .16005D-04 SwitMx=.10000D-02 MixMth= 2
 Mixed Optimization -- En-DIIS/RFO-DIIS
 Second derivative matrix not updated -- first step.
     Eigenvalues ---    0.00289   0.00305   0.00323   0.01372   0.03434
     Eigenvalues ---    0.04603   0.04685   0.04895   0.05393   0.05463
     Eigenvalues ---    0.05491   0.05563   0.05746   0.11816   0.14062
     Eigenvalues ---    0.16000   0.16000   0.16000   0.16000   0.16000
     Eigenvalues ---    0.16000   0.16000   0.16742   0.17006   0.22043
     Eigenvalues ---    0.28872   0.28978   0.29107   0.33319   0.33363
     Eigenvalues ---    0.33906   0.33931   0.34023   0.34054   0.34103
     Eigenvalues ---    0.34151   0.34350   0.41836   0.533531000.00000
     Eigenvalues --- 1000.000001000.000001000.000001000.000001000.00000
     Eigenvalues --- 1000.000001000.000001000.000001000.000001000.00000
     Eigenvalues --- 1000.000001000.000001000.000001000.000001000.00000
     Eigenvalues --- 1000.000001000.000001000.000001000.000001000.00000
     Eigenvalues --- 1000.000001000.000001000.000001000.000001000.00000
     Eigenvalues --- 1000.000001000.000001000.000001000.00000
 RFO step:  Lambda=-3.60397793D-07 EMin= 2.89170635D-03
 Linear search not attempted -- first point.
 Iteration  1 RMS(Cart)=  0.00084603 RMS(Int)=  0.00000060
 Iteration  2 RMS(Cart)=  0.00000056 RMS(Int)=  0.00000002
 Variable       Old X    -DE/DX   Delta X   Delta X   Delta X     New X
                                 (Linear)    (Quad)   (Total)
    R1        2.07291  -0.00002   0.00000  -0.00006  -0.00006   2.07285
    R2        2.07446   0.00002   0.00000   0.00005   0.00005   2.07451
    R3        2.07076   0.00001   0.00000   0.00003   0.00003   2.07079
    R4        2.90049  -0.00001   0.00000  -0.00004  -0.00004   2.90045
    R5        2.08495   0.00001   0.00000   0.00002   0.00002   2.08496
    R6        2.90270   0.00000   0.00000   0.00001   0.00001   2.90271
    R7        2.89781  -0.00001   0.00000  -0.00003  -0.00003   2.89778
    R8        2.07238   0.00001   0.00000   0.00002   0.00002   2.07240
    R9        2.08419   0.00001   0.00000   0.00004   0.00004   2.08423
   R10        2.69132   0.00001   0.00000   0.00002   0.00002   2.69134
   R11        2.06743   0.00000   0.00000   0.00000   0.00000   2.06743
   R12        2.07490   0.00003   0.00000   0.00010   0.00010   2.07500
   R13        2.07156   0.00000   0.00000   0.00001   0.00001   2.07157
   R14        1.83326  -0.00001   0.00000  -0.00002  -0.00002   1.83324
    A1        1.88022   0.00001   0.00000   0.00014   0.00014   1.88036
    A2        1.88116   0.00000   0.00000  -0.00009  -0.00009   1.88107
    A3        1.94944  -0.00002   0.00000  -0.00014  -0.00014   1.94930
    A4        1.87627   0.00000   0.00000   0.00002   0.00002   1.87630
    A5        1.93539   0.00001   0.00000   0.00008   0.00008   1.93547
    A6        1.93838   0.00000   0.00000  -0.00001  -0.00001   1.93838
    A7        1.88223   0.00002   0.00000   0.00029   0.00029   1.88253
    A8        1.92629   0.00003   0.00000   0.00010   0.00010   1.92639
    A9        1.95264  -0.00005   0.00000  -0.00043  -0.00043   1.95221
   A10        1.86938   0.00000   0.00000   0.00021   0.00021   1.86959
   A11        1.88810   0.00001   0.00000  -0.00003  -0.00003   1.88806
   A12        1.94184   0.00001   0.00000  -0.00010  -0.00010   1.94175
   A13        1.91604   0.00001   0.00000   0.00015   0.00015   1.91620
   A14        1.91524   0.00000   0.00000  -0.00006  -0.00006   1.91518
   A15        1.98420   0.00001   0.00000   0.00004   0.00004   1.98424
   A16        1.87112   0.00000   0.00000  -0.00003  -0.00003   1.87109
   A17        1.83768   0.00000   0.00000   0.00012   0.00012   1.83780
   A18        1.93487  -0.00002   0.00000  -0.00021  -0.00021   1.93467
   A19        1.93373   0.00005   0.00000   0.00034   0.00034   1.93406
   A20        1.93097   0.00000   0.00000  -0.00005  -0.00005   1.93092
   A21        1.94181  -0.00001   0.00000   0.00000   0.00000   1.94181
   A22        1.87988  -0.00003   0.00000  -0.00028  -0.00028   1.87960
   A23        1.89499  -0.00001   0.00000   0.00010   0.00010   1.89508
   A24        1.88040  -0.00001   0.00000  -0.00013  -0.00013   1.88027
   A25        1.87348   0.00002   0.00000   0.00014   0.00014   1.87361
    D1       -1.03697   0.00000   0.00000   0.00055   0.00055  -1.03642
    D2        0.99965   0.00002   0.00000   0.00102   0.00102   1.00067
    D3       -3.11124   0.00001   0.00000   0.00065   0.00065  -3.11059
    D4       -3.13439  -0.00001   0.00000   0.00041   0.00041  -3.13398
    D5       -1.09778   0.00001   0.00000   0.00089   0.00089  -1.09689
    D6        1.07452   0.00000   0.00000   0.00052   0.00052   1.07504
    D7        1.06370  -0.00001   0.00000   0.00033   0.00033   1.06403
    D8        3.10031   0.00001   0.00000   0.00081   0.00081   3.10112
    D9       -1.01058   0.00000   0.00000   0.00044   0.00044  -1.01013
   D10        1.12979  -0.00003   0.00000  -0.00153  -0.00153   1.12826
   D11       -0.92241  -0.00003   0.00000  -0.00154  -0.00154  -0.92395
   D12       -3.10030  -0.00002   0.00000  -0.00125  -0.00125  -3.10155
   D13       -3.10881   0.00000   0.00000  -0.00101  -0.00101  -3.10982
   D14        1.12218   0.00000   0.00000  -0.00102  -0.00102   1.12116
   D15       -1.05571   0.00001   0.00000  -0.00073  -0.00073  -1.05644
   D16       -1.04868   0.00001   0.00000  -0.00097  -0.00097  -1.04966
   D17       -3.10088   0.00001   0.00000  -0.00099  -0.00099  -3.10187
   D18        1.00442   0.00002   0.00000  -0.00069  -0.00069   1.00372
   D19       -3.09890   0.00000   0.00000  -0.00036  -0.00036  -3.09927
   D20       -1.01521   0.00000   0.00000  -0.00052  -0.00052  -1.01573
   D21        1.07440  -0.00001   0.00000  -0.00072  -0.00072   1.07369
   D22        1.11349   0.00001   0.00000  -0.00045  -0.00045   1.11304
   D23       -3.08601   0.00000   0.00000  -0.00060  -0.00060  -3.08661
   D24       -0.99639  -0.00001   0.00000  -0.00080  -0.00080  -0.99719
   D25       -0.93530   0.00001   0.00000  -0.00063  -0.00063  -0.93593
   D26        1.14839   0.00000   0.00000  -0.00079  -0.00079   1.14760
   D27       -3.04518  -0.00001   0.00000  -0.00098  -0.00098  -3.04616
   D28        1.10669  -0.00003   0.00000  -0.00215  -0.00215   1.10455
   D29       -3.07855  -0.00002   0.00000  -0.00186  -0.00186  -3.08041
   D30       -1.06062  -0.00003   0.00000  -0.00193  -0.00193  -1.06255
         Item               Value     Threshold  Converged?
 Maximum Force            0.000048     0.000450     YES
 RMS     Force            0.000016     0.000300     YES
 Maximum Displacement     0.003993     0.001800     NO 
 RMS     Displacement     0.000846     0.001200     YES
 Predicted change in Energy=-1.802062D-07
 GradGradGradGradGradGradGradGradGradGradGradGradGradGradGradGradGradGrad

 Leave Link  103 at Sun Aug 23 11:16:09 2015, MaxMem= 3758096384 cpu:       0.2
 (Enter /share/apps/g09/l202.exe)
                          Input orientation:                          
 ---------------------------------------------------------------------
 Center     Atomic      Atomic             Coordinates (Angstroms)
 Number     Number       Type             X           Y           Z
 ---------------------------------------------------------------------
      1          6           0        1.695745   -0.777786   -0.048719
      2          1           0        1.631087   -1.785467   -0.477199
      3          1           0        1.916080   -0.882988    1.021570
      4          1           0        2.549421   -0.271072   -0.512710
      5          6           0        0.399434    0.014928   -0.265402
      6          1           0        0.222418    0.083566   -1.352259
      7          6           0       -0.794946   -0.737146    0.340638
      8          1           0       -0.679201   -0.802091    1.429244
      9          1           0       -0.820457   -1.769435   -0.046894
     10          6           0        0.501132    1.439216    0.293615
     11          1           0       -0.444899    1.974323    0.168711
     12          1           0        0.733447    1.418094    1.366590
     13          1           0        1.292827    2.007583   -0.208277
     14          8           0       -2.045118   -0.087053    0.133798
     15          1           0       -2.204366   -0.063901   -0.822870
 ---------------------------------------------------------------------
                    Distance matrix (angstroms):
                    1          2          3          4          5
     1  C    0.000000
     2  H    1.096903   0.000000
     3  H    1.097785   1.772568   0.000000
     4  H    1.095815   1.771438   1.769061   0.000000
     5  C    1.534851   2.191632   2.182375   2.182980   0.000000
     6  H    2.147518   2.498672   3.072096   2.499110   1.103315
     7  C    2.521268   2.766490   2.799035   3.482846   1.536048
     8  H    2.797380   3.152616   2.628351   3.804888   2.168594
     9  H    2.704560   2.489074   3.068556   3.717278   2.172518
    10  C    2.541533   3.502789   2.815071   2.787603   1.533440
    11  H    3.493385   4.343149   3.803395   3.804220   2.177288
    12  H    2.784064   3.803699   2.610103   3.111722   2.178036
    13  H    2.818880   3.817587   3.202556   2.619919   2.184511
    14  O    3.808475   4.095414   4.136755   4.643450   2.479032
    15  H    4.039778   4.218291   4.588130   4.768397   2.663975
                    6          7          8          9         10
     6  H    0.000000
     7  C    2.138808   0.000000
     8  H    3.055171   1.096667   0.000000
     9  H    2.495031   1.102929   1.770507   0.000000
    10  C    2.150435   2.533492   2.776022   3.486830   0.000000
    11  H    2.516670   2.739372   3.058156   3.768721   1.094036
    12  H    3.071524   2.834365   2.632247   3.817447   1.098040
    13  H    2.481192   3.491940   3.803241   4.331037   1.096229
    14  O    2.716468   1.424197   2.013750   2.088745   2.972950
    15  H    2.488229   1.947685   2.818345   2.329418   3.290231
                   11         12         13         14         15
    11  H    0.000000
    12  H    1.769972   0.000000
    13  H    1.778459   1.772177   0.000000
    14  O    2.609827   3.392001   3.955553   0.000000
    15  H    2.869376   3.952315   4.110855   0.970108   0.000000
 Stoichiometry    C4H10O
 Framework group  C1[X(C4H10O)]
 Deg. of freedom    39
 Full point group                 C1      NOp   1
 Largest Abelian subgroup         C1      NOp   1
 Largest concise Abelian subgroup C1      NOp   1
                         Standard orientation:                         
 ---------------------------------------------------------------------
 Center     Atomic      Atomic             Coordinates (Angstroms)
 Number     Number       Type             X           Y           Z
 ---------------------------------------------------------------------
      1          6           0        1.715498   -0.789929   -0.004057
      2          1           0        1.646616   -1.825810   -0.358177
      3          1           0        1.889956   -0.817792    1.079419
      4          1           0        2.597976   -0.335590   -0.468407
      5          6           0        0.446377    0.007788   -0.333825
      6          1           0        0.315078   -0.002853   -1.429248
      7          6           0       -0.787478   -0.674142    0.276109
      8          1           0       -0.717378   -0.658561    1.370422
      9          1           0       -0.819444   -1.732175   -0.033726
     10          6           0        0.555924    1.468216    0.120694
     11          1           0       -0.372544    2.009623   -0.083608
     12          1           0        0.744048    1.524160    1.201052
     13          1           0        1.379348    1.982288   -0.388641
     14          8           0       -2.013975   -0.018715   -0.031228
     15          1           0       -2.133779   -0.065168   -0.992789
 ---------------------------------------------------------------------
 Rotational constants (GHZ):      7.5081023      3.4704592      2.6334218
 Leave Link  202 at Sun Aug 23 11:16:09 2015, MaxMem= 3758096384 cpu:       0.3
 (Enter /share/apps/g09/l301.exe)
 Standard basis: 6-31G(d) (6D, 7F)
 Ernie: Thresh=  0.10000D-02 Tol=  0.10000D-05 Strict=F.
 There are    95 symmetry adapted basis functions of A   symmetry.
 Integral buffers will be    131072 words long.
 Raffenetti 2 integral format.
 Two-electron integral symmetry is turned on.
    95 basis functions,   180 primitive gaussians,    95 cartesian basis functions
    21 alpha electrons       21 beta electrons
       nuclear repulsion energy       192.3109201278 Hartrees.
 IExCor=  402 DFT=T Ex+Corr=B3LYP ExCW=0 ScaHFX=  0.200000
 ScaDFX=  0.800000  0.720000  1.000000  0.810000 ScalE2=  1.000000  1.000000
 IRadAn=      0 IRanWt=     -1 IRanGd=            0 ICorTp=0
 NAtoms=   15 NActive=   15 NUniq=   15 SFac= 7.50D-01 NAtFMM=   80 NAOKFM=F Big=F
 Leave Link  301 at Sun Aug 23 11:16:09 2015, MaxMem= 3758096384 cpu:       0.5
 (Enter /share/apps/g09/l302.exe)
 NPDir=0 NMtPBC=     1 NCelOv=     1 NCel=       1 NClECP=     1 NCelD=      1
         NCelK=      1 NCelE2=     1 NClLst=     1 CellRange=     0.0.
 One-electron integrals computed using PRISM.
 NBasis=    95 RedAO= T  NBF=    95
 NBsUse=    95 1.00D-06 NBFU=    95
 Precomputing XC quadrature grid using
 IXCGrd= 2 IRadAn=           0 IRanWt=          -1 IRanGd=           0 AccXCQ= 1.00D-10.
 NRdTot=     929 NPtTot=      117676 NUsed=      124387 NTot=      124419
 NSgBfM=    95    95    95    95    95 NAtAll=    15    15.
 Leave Link  302 at Sun Aug 23 11:16:09 2015, MaxMem= 3758096384 cpu:       2.5
 (Enter /share/apps/g09/l303.exe)
 DipDrv:  MaxL=1.
 Leave Link  303 at Sun Aug 23 11:16:09 2015, MaxMem= 3758096384 cpu:       0.5
 (Enter /share/apps/g09/l401.exe)
 Initial guess read from the read-write file.
 B after Tr=     0.000000    0.000000    0.000000
         Rot=    1.000000    0.000000    0.000000    0.000000 Ang=   0.00 deg.
 Guess basis will be translated and rotated to current coordinates.
 Initial guess orbital symmetries:
       Occupied  (A) (A) (A) (A) (A) (A) (A) (A) (A) (A) (A) (A)
                 (A) (A) (A) (A) (A) (A) (A) (A) (A)
       Virtual   (A) (A) (A) (A) (A) (A) (A) (A) (A) (A) (A) (A)
                 (A) (A) (A) (A) (A) (A) (A) (A) (A) (A) (A) (A)
                 (A) (A) (A) (A) (A) (A) (A) (A) (A) (A) (A) (A)
                 (A) (A) (A) (A) (A) (A) (A) (A) (A) (A) (A) (A)
                 (A) (A) (A) (A) (A) (A) (A) (A) (A) (A) (A) (A)
                 (A) (A) (A) (A) (A) (A) (A) (A) (A) (A) (A) (A)
                 (A) (A)
 The electronic state of the initial guess is 1-A.
 Leave Link  401 at Sun Aug 23 11:16:10 2015, MaxMem= 3758096384 cpu:       2.5
 (Enter /share/apps/g09/l502.exe)
 Closed shell SCF:
 Requested convergence on RMS density matrix=1.00D-08 within 128 cycles.
 Requested convergence on MAX density matrix=1.00D-06.
 Requested convergence on             energy=1.00D-06.
 No special actions if energy rises.
 Using DIIS extrapolation, IDIIS=  1040.
 Integral symmetry usage will be decided dynamically.
       124239 words used for storage of precomputed grid.
 Keep R1 ints in memory in canonical form, NReq=11484431.
 IEnd=      171335 IEndB=      171335 NGot=  3758096384 MDV=  3747551702
 LenX=  3747551702 LenY=  3747542236
 Symmetry not used in FoFDir.
 MinBra= 0 MaxBra= 2 Meth= 1.
 IRaf=       0 NMat=   1 IRICut=       1 DoRegI=T DoRafI=F ISym2E= 0 JSym2E=0.

 Cycle   1  Pass 1  IDiag  1:
 E= -233.663205134746    
 DIIS: error= 1.16D-04 at cycle   1 NSaved=   1.
 NSaved= 1 IEnMin= 1 EnMin= -233.663205134746     IErMin= 1 ErrMin= 1.16D-04
 ErrMax= 1.16D-04 EMaxC= 1.00D-01 BMatC= 8.82D-07 BMatP= 8.82D-07
 IDIUse=3 WtCom= 9.99D-01 WtEn= 1.16D-03
 Coeff-Com:  0.100D+01
 Coeff-En:   0.100D+01
 Coeff:      0.100D+01
 Gap=     0.334 Goal=   None    Shift=    0.000
 RMSDP=1.65D-05 MaxDP=4.69D-04              OVMax= 5.12D-04

 Cycle   2  Pass 1  IDiag  1:
 E= -233.663206740913     Delta-E=       -0.000001606166 Rises=F Damp=F
 DIIS: error= 1.15D-05 at cycle   2 NSaved=   2.
 NSaved= 2 IEnMin= 2 EnMin= -233.663206740913     IErMin= 2 ErrMin= 1.15D-05
 ErrMax= 1.15D-05 EMaxC= 1.00D-01 BMatC= 9.34D-09 BMatP= 8.82D-07
 IDIUse=1 WtCom= 1.00D+00 WtEn= 0.00D+00
 Coeff-Com: -0.724D-01 0.107D+01
 Coeff:     -0.724D-01 0.107D+01
 Gap=     0.334 Goal=   None    Shift=    0.000
 RMSDP=2.80D-06 MaxDP=5.98D-05 DE=-1.61D-06 OVMax= 9.01D-05

 Cycle   3  Pass 1  IDiag  1:
 E= -233.663206757245     Delta-E=       -0.000000016333 Rises=F Damp=F
 DIIS: error= 5.60D-06 at cycle   3 NSaved=   3.
 NSaved= 3 IEnMin= 3 EnMin= -233.663206757245     IErMin= 3 ErrMin= 5.60D-06
 ErrMax= 5.60D-06 EMaxC= 1.00D-01 BMatC= 5.37D-09 BMatP= 9.34D-09
 IDIUse=1 WtCom= 1.00D+00 WtEn= 0.00D+00
 Coeff-Com: -0.432D-01 0.540D+00 0.504D+00
 Coeff:     -0.432D-01 0.540D+00 0.504D+00
 Gap=     0.334 Goal=   None    Shift=    0.000
 RMSDP=7.85D-07 MaxDP=1.50D-05 DE=-1.63D-08 OVMax= 1.75D-05

 Cycle   4  Pass 1  IDiag  1:
 E= -233.663206761324     Delta-E=       -0.000000004079 Rises=F Damp=F
 DIIS: error= 1.48D-06 at cycle   4 NSaved=   4.
 NSaved= 4 IEnMin= 4 EnMin= -233.663206761324     IErMin= 4 ErrMin= 1.48D-06
 ErrMax= 1.48D-06 EMaxC= 1.00D-01 BMatC= 3.60D-10 BMatP= 5.37D-09
 IDIUse=1 WtCom= 1.00D+00 WtEn= 0.00D+00
 Coeff-Com: -0.104D-01 0.100D+00 0.220D+00 0.689D+00
 Coeff:     -0.104D-01 0.100D+00 0.220D+00 0.689D+00
 Gap=     0.334 Goal=   None    Shift=    0.000
 RMSDP=2.41D-07 MaxDP=4.64D-06 DE=-4.08D-09 OVMax= 5.52D-06

 Cycle   5  Pass 1  IDiag  1:
 E= -233.663206761590     Delta-E=       -0.000000000266 Rises=F Damp=F
 DIIS: error= 4.35D-07 at cycle   5 NSaved=   5.
 NSaved= 5 IEnMin= 5 EnMin= -233.663206761590     IErMin= 5 ErrMin= 4.35D-07
 ErrMax= 4.35D-07 EMaxC= 1.00D-01 BMatC= 3.32D-11 BMatP= 3.60D-10
 IDIUse=1 WtCom= 1.00D+00 WtEn= 0.00D+00
 Coeff-Com: -0.509D-03-0.405D-02 0.439D-01 0.287D+00 0.674D+00
 Coeff:     -0.509D-03-0.405D-02 0.439D-01 0.287D+00 0.674D+00
 Gap=     0.334 Goal=   None    Shift=    0.000
 RMSDP=7.38D-08 MaxDP=1.15D-06 DE=-2.66D-10 OVMax= 1.68D-06

 Cycle   6  Pass 1  IDiag  1:
 E= -233.663206761616     Delta-E=       -0.000000000026 Rises=F Damp=F
 DIIS: error= 1.24D-07 at cycle   6 NSaved=   6.
 NSaved= 6 IEnMin= 6 EnMin= -233.663206761616     IErMin= 6 ErrMin= 1.24D-07
 ErrMax= 1.24D-07 EMaxC= 1.00D-01 BMatC= 4.36D-12 BMatP= 3.32D-11
 IDIUse=1 WtCom= 1.00D+00 WtEn= 0.00D+00
 Coeff-Com:  0.677D-03-0.101D-01-0.121D-03 0.687D-01 0.325D+00 0.616D+00
 Coeff:      0.677D-03-0.101D-01-0.121D-03 0.687D-01 0.325D+00 0.616D+00
 Gap=     0.334 Goal=   None    Shift=    0.000
 RMSDP=2.02D-08 MaxDP=3.64D-07 DE=-2.58D-11 OVMax= 4.70D-07

 Cycle   7  Pass 1  IDiag  1:
 E= -233.663206761619     Delta-E=       -0.000000000003 Rises=F Damp=F
 DIIS: error= 1.81D-08 at cycle   7 NSaved=   7.
 NSaved= 7 IEnMin= 7 EnMin= -233.663206761619     IErMin= 7 ErrMin= 1.81D-08
 ErrMax= 1.81D-08 EMaxC= 1.00D-01 BMatC= 6.36D-14 BMatP= 4.36D-12
 IDIUse=1 WtCom= 1.00D+00 WtEn= 0.00D+00
 Coeff-Com:  0.216D-03-0.283D-02-0.206D-02 0.652D-02 0.668D-01 0.178D+00
 Coeff-Com:  0.754D+00
 Coeff:      0.216D-03-0.283D-02-0.206D-02 0.652D-02 0.668D-01 0.178D+00
 Coeff:      0.754D+00
 Gap=     0.334 Goal=   None    Shift=    0.000
 RMSDP=4.20D-09 MaxDP=6.39D-08 DE=-2.90D-12 OVMax= 9.95D-08

 SCF Done:  E(RB3LYP) =  -233.663206762     A.U. after    7 cycles
             Convg  =    0.4203D-08             -V/T =  2.0096
 KE= 2.314428867013D+02 PE=-9.279753775217D+02 EE= 2.705583639310D+02
 Leave Link  502 at Sun Aug 23 11:16:13 2015, MaxMem= 3758096384 cpu:      31.2
 (Enter /share/apps/g09/l701.exe)
 Compute integral first derivatives.
 ... and contract with generalized density number  0.
 Leave Link  701 at Sun Aug 23 11:16:13 2015, MaxMem= 3758096384 cpu:       4.7
 (Enter /share/apps/g09/l702.exe)
 L702 exits ... SP integral derivatives will be done elsewhere.
 Leave Link  702 at Sun Aug 23 11:16:13 2015, MaxMem= 3758096384 cpu:       0.2
 (Enter /share/apps/g09/l703.exe)
 Compute integral first derivatives, UseDBF=F ICtDFT=           0.
 Integral derivatives from FoFDir, PRISM(SPDF).
 Calling FoFJK, ICntrl=      2127 FMM=F ISym2X=0 I1Cent= 0 IOpClX= 0 NMat=1 NMatS=1 NMatT=0.
 FoFCou: FMM=F IPFlag=           0 FMFlag=      100000 FMFlg1=         800
         NFxFlg=           0 DoJE=F BraDBF=F KetDBF=F FulRan=T
         Omega=  0.000000  0.000000  1.000000  0.000000  0.000000 ICntrl=    2127 IOpCl=  0
         NMat0=    1 NMatS0=    1 NMatT0=    0 NMatD0=    1 NMtDS0=    0 NMtDT0=    0
         I1Cent=           0 NGrid=           0.
 Symmetry not used in FoFCou.
 Leave Link  703 at Sun Aug 23 11:16:14 2015, MaxMem= 3758096384 cpu:      11.1
 (Enter /share/apps/g09/l716.exe)
 Dipole        = 3.82777359D-01-2.30113153D-01-4.75152562D-01
 ***** Axes restored to original set *****
 -------------------------------------------------------------------
 Center     Atomic                   Forces (Hartrees/Bohr)
 Number     Number              X              Y              Z
 -------------------------------------------------------------------
      1        6           0.000002812   -0.000002608    0.000002791
      2        1           0.000007508   -0.000003628    0.000005493
      3        1          -0.000005234    0.000011399   -0.000002243
      4        1          -0.000001209    0.000001867   -0.000000729
      5        6          -0.000006011   -0.000014375    0.000008982
      6        1           0.000001269   -0.000010600    0.000004918
      7        6           0.000006083    0.000013849   -0.000022051
      8        1           0.000004397    0.000018451   -0.000004561
      9        1           0.000001579   -0.000015494    0.000015783
     10        6          -0.000005785    0.000006170   -0.000022250
     11        1           0.000002002    0.000009975    0.000005793
     12        1          -0.000007512    0.000009226    0.000002208
     13        1          -0.000000676   -0.000000490   -0.000004729
     14        8          -0.000019487   -0.000042413    0.000013269
     15        1           0.000020263    0.000018670   -0.000002674
 -------------------------------------------------------------------
 Cartesian Forces:  Max     0.000042413 RMS     0.000011863
 Leave Link  716 at Sun Aug 23 11:16:14 2015, MaxMem= 3758096384 cpu:       0.2
 (Enter /share/apps/g09/l103.exe)

 GradGradGradGradGradGradGradGradGradGradGradGradGradGradGradGradGradGrad
 Berny optimization.
 Using GEDIIS/GDIIS optimizer.
 Internal  Forces:  Max     0.000023573 RMS     0.000007332
 Search for a local minimum.
 Step number   2 out of a maximum of   79
 All quantities printed in internal units (Hartrees-Bohrs-Radians)
 RMS Force = .73323D-05 SwitMx=.10000D-02 MixMth= 2
 Mixed Optimization -- En-DIIS/RFO-DIIS
 Swaping is turned off.
 Update second derivatives using D2CorX and points    1    2
 DE= -1.68D-07 DEPred=-1.80D-07 R= 9.34D-01
 Trust test= 9.34D-01 RLast= 5.65D-03 DXMaxT set to 3.00D-01
     Eigenvalues ---    0.00300   0.00310   0.00332   0.00754   0.03547
     Eigenvalues ---    0.04664   0.04712   0.05223   0.05404   0.05450
     Eigenvalues ---    0.05560   0.05656   0.05747   0.11846   0.14059
     Eigenvalues ---    0.15286   0.16000   0.16000   0.16000   0.16000
     Eigenvalues ---    0.16000   0.16305   0.16765   0.17583   0.22062
     Eigenvalues ---    0.28899   0.28969   0.29454   0.33310   0.33346
     Eigenvalues ---    0.33853   0.33974   0.34037   0.34102   0.34143
     Eigenvalues ---    0.34350   0.34513   0.41932   0.533661000.00000
     Eigenvalues --- 1000.000001000.000001000.000001000.000001000.00000
     Eigenvalues --- 1000.000001000.000001000.000001000.000001000.00000
     Eigenvalues --- 1000.000001000.000001000.000001000.000001000.00000
     Eigenvalues --- 1000.000001000.000001000.000001000.000001000.00000
     Eigenvalues --- 1000.000001000.000001000.000001000.000001000.00000
     Eigenvalues --- 1000.000001000.000001000.000001000.00000
 En-DIIS/RFO-DIIS IScMMF=        0 using points:     2    1
 RFO step:  Lambda=-2.01494975D-08.
 DIIS coeffs:      1.40023     -0.40023
 Iteration  1 RMS(Cart)=  0.00049122 RMS(Int)=  0.00000062
 Iteration  2 RMS(Cart)=  0.00000060 RMS(Int)=  0.00000001
 Variable       Old X    -DE/DX   Delta X   Delta X   Delta X     New X
                                  (DIIS)     (GDIIS)  (Total)
    R1        2.07285   0.00000  -0.00003   0.00002  -0.00001   2.07284
    R2        2.07451  -0.00001   0.00002  -0.00003  -0.00001   2.07450
    R3        2.07079   0.00000   0.00001   0.00000   0.00001   2.07080
    R4        2.90045   0.00000  -0.00002  -0.00001  -0.00002   2.90042
    R5        2.08496  -0.00001   0.00001  -0.00002  -0.00002   2.08495
    R6        2.90271  -0.00001   0.00000  -0.00006  -0.00005   2.90266
    R7        2.89778   0.00002  -0.00001   0.00009   0.00008   2.89786
    R8        2.07240  -0.00001   0.00001  -0.00003  -0.00003   2.07237
    R9        2.08423   0.00001   0.00002   0.00004   0.00005   2.08429
   R10        2.69134  -0.00001   0.00001  -0.00003  -0.00002   2.69132
   R11        2.06743   0.00000   0.00000   0.00000  -0.00001   2.06742
   R12        2.07500   0.00001   0.00004   0.00002   0.00006   2.07506
   R13        2.07157   0.00000   0.00000   0.00000   0.00001   2.07158
   R14        1.83324   0.00000  -0.00001   0.00000  -0.00001   1.83323
    A1        1.88036   0.00000   0.00005   0.00003   0.00008   1.88044
    A2        1.88107   0.00000  -0.00004  -0.00001  -0.00005   1.88102
    A3        1.94930   0.00001  -0.00006   0.00009   0.00003   1.94934
    A4        1.87630   0.00001   0.00001   0.00002   0.00003   1.87633
    A5        1.93547  -0.00001   0.00003  -0.00010  -0.00007   1.93541
    A6        1.93838   0.00000   0.00000  -0.00003  -0.00003   1.93835
    A7        1.88253   0.00000   0.00012  -0.00008   0.00003   1.88256
    A8        1.92639   0.00000   0.00004  -0.00002   0.00002   1.92640
    A9        1.95221  -0.00001  -0.00017  -0.00003  -0.00020   1.95201
   A10        1.86959   0.00000   0.00009  -0.00005   0.00004   1.86963
   A11        1.88806   0.00000  -0.00001   0.00007   0.00005   1.88812
   A12        1.94175   0.00001  -0.00004   0.00011   0.00007   1.94182
   A13        1.91620  -0.00001   0.00006  -0.00010  -0.00004   1.91616
   A14        1.91518   0.00000  -0.00003   0.00004   0.00002   1.91519
   A15        1.98424   0.00001   0.00002   0.00009   0.00011   1.98434
   A16        1.87109   0.00000  -0.00001  -0.00001  -0.00002   1.87107
   A17        1.83780  -0.00001   0.00005  -0.00008  -0.00004   1.83776
   A18        1.93467   0.00000  -0.00008   0.00005  -0.00003   1.93463
   A19        1.93406   0.00002   0.00013   0.00022   0.00036   1.93442
   A20        1.93092   0.00000  -0.00002  -0.00002  -0.00004   1.93088
   A21        1.94181   0.00000   0.00000  -0.00003  -0.00003   1.94178
   A22        1.87960  -0.00001  -0.00011  -0.00015  -0.00026   1.87934
   A23        1.89508  -0.00001   0.00004   0.00000   0.00004   1.89513
   A24        1.88027   0.00000  -0.00005  -0.00004  -0.00009   1.88018
   A25        1.87361  -0.00001   0.00005  -0.00009  -0.00003   1.87358
    D1       -1.03642   0.00000   0.00022  -0.00019   0.00003  -1.03639
    D2        1.00067   0.00000   0.00041  -0.00030   0.00011   1.00078
    D3       -3.11059   0.00000   0.00026  -0.00020   0.00006  -3.11052
    D4       -3.13398   0.00000   0.00016  -0.00022  -0.00005  -3.13403
    D5       -1.09689  -0.00001   0.00036  -0.00033   0.00002  -1.09686
    D6        1.07504   0.00000   0.00021  -0.00023  -0.00002   1.07502
    D7        1.06403   0.00000   0.00013  -0.00016  -0.00003   1.06401
    D8        3.10112   0.00000   0.00032  -0.00027   0.00005   3.10118
    D9       -1.01013   0.00000   0.00018  -0.00017   0.00001  -1.01013
   D10        1.12826   0.00000  -0.00061   0.00071   0.00010   1.12836
   D11       -0.92395   0.00000  -0.00062   0.00076   0.00014  -0.92381
   D12       -3.10155   0.00000  -0.00050   0.00059   0.00009  -3.10146
   D13       -3.10982   0.00000  -0.00040   0.00058   0.00017  -3.10964
   D14        1.12116   0.00000  -0.00041   0.00062   0.00021   1.12137
   D15       -1.05644   0.00000  -0.00029   0.00046   0.00016  -1.05627
   D16       -1.04966   0.00000  -0.00039   0.00069   0.00030  -1.04936
   D17       -3.10187   0.00001  -0.00039   0.00073   0.00034  -3.10153
   D18        1.00372   0.00000  -0.00028   0.00057   0.00029   1.00401
   D19       -3.09927   0.00000  -0.00015  -0.00028  -0.00043  -3.09969
   D20       -1.01573   0.00000  -0.00021  -0.00034  -0.00055  -1.01628
   D21        1.07369   0.00000  -0.00029  -0.00042  -0.00071   1.07298
   D22        1.11304   0.00000  -0.00018  -0.00020  -0.00038   1.11266
   D23       -3.08661   0.00000  -0.00024  -0.00026  -0.00050  -3.08711
   D24       -0.99719   0.00000  -0.00032  -0.00035  -0.00067  -0.99786
   D25       -0.93593   0.00000  -0.00025  -0.00025  -0.00050  -0.93643
   D26        1.14760   0.00000  -0.00031  -0.00031  -0.00062   1.14698
   D27       -3.04616   0.00000  -0.00039  -0.00039  -0.00079  -3.04695
   D28        1.10455  -0.00001  -0.00086  -0.00182  -0.00268   1.10186
   D29       -3.08041  -0.00002  -0.00074  -0.00196  -0.00270  -3.08311
   D30       -1.06255  -0.00002  -0.00077  -0.00199  -0.00276  -1.06531
         Item               Value     Threshold  Converged?
 Maximum Force            0.000024     0.000450     YES
 RMS     Force            0.000007     0.000300     YES
 Maximum Displacement     0.002443     0.001800     NO 
 RMS     Displacement     0.000491     0.001200     YES
 Predicted change in Energy=-9.223214D-08
 GradGradGradGradGradGradGradGradGradGradGradGradGradGradGradGradGradGrad

 Leave Link  103 at Sun Aug 23 11:16:15 2015, MaxMem= 3758096384 cpu:       0.7
 (Enter /share/apps/g09/l202.exe)
                          Input orientation:                          
 ---------------------------------------------------------------------
 Center     Atomic      Atomic             Coordinates (Angstroms)
 Number     Number       Type             X           Y           Z
 ---------------------------------------------------------------------
      1          6           0        1.695679   -0.777696   -0.048802
      2          1           0        1.631229   -1.785411   -0.477221
      3          1           0        1.916048   -0.882699    1.021493
      4          1           0        2.549222   -0.270848   -0.512902
      5          6           0        0.399227    0.014763   -0.265481
      6          1           0        0.222119    0.083310   -1.352319
      7          6           0       -0.794969   -0.737398    0.340745
      8          1           0       -0.679144   -0.802062    1.429345
      9          1           0       -0.820283   -1.769819   -0.046532
     10          6           0        0.501003    1.439106    0.293498
     11          1           0       -0.444749    1.974672    0.168479
     12          1           0        0.732914    1.417959    1.366595
     13          1           0        1.293123    2.007206   -0.208033
     14          8           0       -2.045334   -0.087704    0.133884
     15          1           0       -2.203479   -0.062608   -0.822912
 ---------------------------------------------------------------------
                    Distance matrix (angstroms):
                    1          2          3          4          5
     1  C    0.000000
     2  H    1.096898   0.000000
     3  H    1.097779   1.772612   0.000000
     4  H    1.095819   1.771407   1.769079   0.000000
     5  C    1.534838   2.191641   2.182312   2.182950   0.000000
     6  H    2.147526   2.498701   3.072060   2.499091   1.103306
     7  C    2.521249   2.766557   2.798954   3.482814   1.536020
     8  H    2.797373   3.152745   2.628283   3.804847   2.168530
     9  H    2.704510   2.489106   3.068414   3.717254   2.172527
    10  C    2.541384   3.502703   2.814802   2.787368   1.533482
    11  H    3.493448   4.343368   3.803363   3.804012   2.177581
    12  H    2.784091   3.803709   2.609967   3.111841   2.178067
    13  H    2.818348   3.817162   3.201769   2.619210   2.184532
    14  O    3.808496   4.095459   4.136716   4.643471   2.479087
    15  H    4.039063   4.218121   4.587471   4.767351   2.662855
                    6          7          8          9         10
     6  H    0.000000
     7  C    2.138807   0.000000
     8  H    3.055130   1.096653   0.000000
     9  H    2.495149   1.102958   1.770505   0.000000
    10  C    2.150505   2.533564   2.775920   3.486920   0.000000
    11  H    2.516901   2.740010   3.058591   3.769412   1.094033
    12  H    3.071594   2.834141   2.631793   3.817233   1.098074
    13  H    2.481494   3.492011   3.803003   4.331106   1.096232
    14  O    2.716504   1.424187   2.013704   2.088734   2.973291
    15  H    2.486985   1.947650   2.818343   2.330358   3.288729
                   11         12         13         14         15
    11  H    0.000000
    12  H    1.769831   0.000000
    13  H    1.778488   1.772146   0.000000
    14  O    2.610836   3.391940   3.956116   0.000000
    15  H    2.868187   3.950750   4.109554   0.970103   0.000000
 Stoichiometry    C4H10O
 Framework group  C1[X(C4H10O)]
 Deg. of freedom    39
 Full point group                 C1      NOp   1
 Largest Abelian subgroup         C1      NOp   1
 Largest concise Abelian subgroup C1      NOp   1
                         Standard orientation:                         
 ---------------------------------------------------------------------
 Center     Atomic      Atomic             Coordinates (Angstroms)
 Number     Number       Type             X           Y           Z
 ---------------------------------------------------------------------
      1          6           0        1.715369   -0.790030   -0.004080
      2          1           0        1.646511   -1.825902   -0.358218
      3          1           0        1.889774   -0.817819    1.079401
      4          1           0        2.597849   -0.335704   -0.468447
      5          6           0        0.446287    0.007718   -0.333866
      6          1           0        0.314979   -0.002894   -1.429278
      7          6           0       -0.787579   -0.674090    0.276113
      8          1           0       -0.717476   -0.658334    1.370410
      9          1           0       -0.819549   -1.732207   -0.033537
     10          6           0        0.556174    1.468137    0.120742
     11          1           0       -0.371877    2.010191   -0.083727
     12          1           0        0.743813    1.523946    1.201225
     13          1           0        1.380144    1.981838   -0.388089
     14          8           0       -2.014120   -0.018787   -0.031266
     15          1           0       -2.132708   -0.063230   -0.993067
 ---------------------------------------------------------------------
 Rotational constants (GHZ):      7.5081753      3.4703506      2.6334007
 Leave Link  202 at Sun Aug 23 11:16:15 2015, MaxMem= 3758096384 cpu:       0.1
 (Enter /share/apps/g09/l301.exe)
 Standard basis: 6-31G(d) (6D, 7F)
 Ernie: Thresh=  0.10000D-02 Tol=  0.10000D-05 Strict=F.
 There are    95 symmetry adapted basis functions of A   symmetry.
 Integral buffers will be    131072 words long.
 Raffenetti 2 integral format.
 Two-electron integral symmetry is turned on.
    95 basis functions,   180 primitive gaussians,    95 cartesian basis functions
    21 alpha electrons       21 beta electrons
       nuclear repulsion energy       192.3107829982 Hartrees.
 IExCor=  402 DFT=T Ex+Corr=B3LYP ExCW=0 ScaHFX=  0.200000
 ScaDFX=  0.800000  0.720000  1.000000  0.810000 ScalE2=  1.000000  1.000000
 IRadAn=      0 IRanWt=     -1 IRanGd=            0 ICorTp=0
 NAtoms=   15 NActive=   15 NUniq=   15 SFac= 7.50D-01 NAtFMM=   80 NAOKFM=F Big=F
 Leave Link  301 at Sun Aug 23 11:16:15 2015, MaxMem= 3758096384 cpu:       0.4
 (Enter /share/apps/g09/l302.exe)
 NPDir=0 NMtPBC=     1 NCelOv=     1 NCel=       1 NClECP=     1 NCelD=      1
         NCelK=      1 NCelE2=     1 NClLst=     1 CellRange=     0.0.
 One-electron integrals computed using PRISM.
 NBasis=    95 RedAO= T  NBF=    95
 NBsUse=    95 1.00D-06 NBFU=    95
 Precomputing XC quadrature grid using
 IXCGrd= 2 IRadAn=           0 IRanWt=          -1 IRanGd=           0 AccXCQ= 1.00D-10.
 NRdTot=     929 NPtTot=      117676 NUsed=      124387 NTot=      124419
 NSgBfM=    95    95    95    95    95 NAtAll=    15    15.
 Leave Link  302 at Sun Aug 23 11:16:15 2015, MaxMem= 3758096384 cpu:       2.5
 (Enter /share/apps/g09/l303.exe)
 DipDrv:  MaxL=1.
 Leave Link  303 at Sun Aug 23 11:16:15 2015, MaxMem= 3758096384 cpu:       0.3
 (Enter /share/apps/g09/l401.exe)
 Initial guess read from the read-write file.
 B after Tr=     0.000000    0.000000    0.000000
         Rot=    1.000000    0.000000    0.000000    0.000000 Ang=   0.00 deg.
 Guess basis will be translated and rotated to current coordinates.
 Initial guess orbital symmetries:
       Occupied  (A) (A) (A) (A) (A) (A) (A) (A) (A) (A) (A) (A)
                 (A) (A) (A) (A) (A) (A) (A) (A) (A)
       Virtual   (A) (A) (A) (A) (A) (A) (A) (A) (A) (A) (A) (A)
                 (A) (A) (A) (A) (A) (A) (A) (A) (A) (A) (A) (A)
                 (A) (A) (A) (A) (A) (A) (A) (A) (A) (A) (A) (A)
                 (A) (A) (A) (A) (A) (A) (A) (A) (A) (A) (A) (A)
                 (A) (A) (A) (A) (A) (A) (A) (A) (A) (A) (A) (A)
                 (A) (A) (A) (A) (A) (A) (A) (A) (A) (A) (A) (A)
                 (A) (A)
 The electronic state of the initial guess is 1-A.
 Leave Link  401 at Sun Aug 23 11:16:15 2015, MaxMem= 3758096384 cpu:       1.6
 (Enter /share/apps/g09/l502.exe)
 Closed shell SCF:
 Requested convergence on RMS density matrix=1.00D-08 within 128 cycles.
 Requested convergence on MAX density matrix=1.00D-06.
 Requested convergence on             energy=1.00D-06.
 No special actions if energy rises.
 Using DIIS extrapolation, IDIIS=  1040.
 Integral symmetry usage will be decided dynamically.
       124239 words used for storage of precomputed grid.
[...]
 ! A9    A(1,5,10)             111.8432         -DE/DX =    0.0                 !
 ! A10   A(6,5,7)              107.1204         -DE/DX =    0.0                 !
 ! A11   A(6,5,10)             108.1803         -DE/DX =    0.0                 !
 ! A12   A(7,5,10)             111.2592         -DE/DX =    0.0                 !
 ! A13   A(5,7,8)              109.7858         -DE/DX =    0.0                 !
 ! A14   A(5,7,9)              109.7334         -DE/DX =    0.0                 !
 ! A15   A(5,7,14)             113.6935         -DE/DX =    0.0                 !
 ! A16   A(8,7,9)              107.2053         -DE/DX =    0.0                 !
 ! A17   A(8,7,14)             105.2944         -DE/DX =    0.0                 !
 ! A18   A(9,7,14)             110.8489         -DE/DX =    0.0                 !
 ! A19   A(5,10,11)            110.8346         -DE/DX =    0.0                 !
 ! A20   A(5,10,12)            110.6303         -DE/DX =    0.0                 !
 ! A21   A(5,10,13)            111.2558         -DE/DX =    0.0                 !
 ! A22   A(11,10,12)           107.6784         -DE/DX =    0.0                 !
 ! A23   A(11,10,13)           108.5818         -DE/DX =    0.0                 !
 ! A24   A(12,10,13)           107.7284         -DE/DX =    0.0                 !
 ! A25   A(7,14,15)            107.3464         -DE/DX =    0.0                 !
 ! D1    D(2,1,5,6)            -59.3905         -DE/DX =    0.0                 !
 ! D2    D(2,1,5,7)             57.3286         -DE/DX =    0.0                 !
 ! D3    D(2,1,5,10)          -178.2278         -DE/DX =    0.0                 !
 ! D4    D(3,1,5,6)           -179.5756         -DE/DX =    0.0                 !
 ! D5    D(3,1,5,7)            -62.8565         -DE/DX =    0.0                 !
 ! D6    D(3,1,5,10)            61.5871         -DE/DX =    0.0                 !
 ! D7    D(4,1,5,6)             60.9552         -DE/DX =    0.0                 !
 ! D8    D(4,1,5,7)            177.6742         -DE/DX =    0.0                 !
 ! D9    D(4,1,5,10)           -57.8822         -DE/DX =    0.0                 !
 ! D10   D(1,5,7,8)             64.6447         -DE/DX =    0.0                 !
 ! D11   D(1,5,7,9)            -52.9368         -DE/DX =    0.0                 !
 ! D12   D(1,5,7,14)          -177.7099         -DE/DX =    0.0                 !
 ! D13   D(6,5,7,8)           -178.1776         -DE/DX =    0.0                 !
 ! D14   D(6,5,7,9)             64.2409         -DE/DX =    0.0                 !
 ! D15   D(6,5,7,14)           -60.5321         -DE/DX =    0.0                 !
 ! D16   D(10,5,7,8)           -60.1332         -DE/DX =    0.0                 !
 ! D17   D(10,5,7,9)          -177.7146         -DE/DX =    0.0                 !
 ! D18   D(10,5,7,14)           57.5123         -DE/DX =    0.0                 !
 ! D19   D(1,5,10,11)         -177.5997         -DE/DX =    0.0                 !
 ! D20   D(1,5,10,12)          -58.2292         -DE/DX =    0.0                 !
 ! D21   D(1,5,10,13)           61.478          -DE/DX =    0.0                 !
 ! D22   D(6,5,10,11)           63.7527         -DE/DX =    0.0                 !
 ! D23   D(6,5,10,12)         -176.8768         -DE/DX =    0.0                 !
 ! D24   D(6,5,10,13)          -57.1696         -DE/DX =    0.0                 !
 ! D25   D(7,5,10,11)          -53.65           -DE/DX =    0.0                 !
 ! D26   D(7,5,10,12)           65.7205         -DE/DX =    0.0                 !
 ! D27   D(7,5,10,13)         -174.5723         -DE/DX =    0.0                 !
 ! D28   D(5,7,14,15)           63.0249         -DE/DX =    0.0                 !
 ! D29   D(8,7,14,15)         -176.7603         -DE/DX =    0.0                 !
 ! D30   D(9,7,14,15)          -61.1474         -DE/DX =    0.0                 !
 --------------------------------------------------------------------------------
 GradGradGradGradGradGradGradGradGradGradGradGradGradGradGradGradGradGrad

 Leave Link  103 at Sun Aug 23 11:16:54 2015, MaxMem= 3758096384 cpu:       0.1
 (Enter /share/apps/g09/l9999.exe)
 1\1\GINC-COMPUTE-0-6\Freq\RB3LYP\6-31G(d)\C4H10O1\HETANJIN\23-Aug-2015
 \0\\#P Geom=AllCheck Guess=TCheck SCRF=Check GenChk RB3LYP/6-31G(d) Fr
 eq\\using ub3lyp/6-31G(d) to scan\\0,1\C,1.6957098065,-0.7777010642,-0
 .048770595\H,1.6313137813,-1.7855055442,-0.4769913655\H,1.9161766219,-
 0.8824943867,1.0215169717\H,2.549161759,-0.2708523162,-0.513031854\C,0
 .3991627007,0.0146277095,-0.2654513048\H,0.2220593256,0.0830922308,-1.
 3523013173\C,-0.7949563333,-0.7376078533,0.3407601463\H,-0.6790568209,
 -0.8023174737,1.429351312\H,-0.8202634771,-1.7700095403,-0.0465834016\
 C,0.5007921377,1.4390138718,0.293417078\H,-0.4450245436,1.9744722271,0
 .1683861496\H,0.7327237379,1.4179505224,1.3665057341\H,1.2928187704,2.
 0071691747,-0.2081928613\O,-2.0453213195,-0.0878930408,0.1340554845\H,
 -2.2026911467,-0.061173517,-0.8228351767\\Version=EM64L-G09RevA.01\Sta
 te=1-A\HF=-233.6632069\RMSD=7.076e-10\RMSF=7.256e-06\ZeroPoint=0.13743
 05\Thermal=0.1441205\Dipole=0.3683994,-0.1832059,-0.5062684\DipoleDeri
 v=0.0333427,0.0224216,-0.0078202,-0.0017221,0.0625848,0.0038696,0.0328
 117,-0.0120328,0.1236695,0.0376413,-0.0090791,-0.0205352,0.0296031,-0.
 1584294,-0.074695,-0.0105762,-0.0777403,0.0255328,0.0307557,0.0182264,
 -0.0098137,0.0194787,0.0469559,0.0020202,-0.0637195,0.0317081,-0.15031
 34,-0.1166093,-0.0484376,0.0566067,-0.0799419,0.0100289,0.0529599,0.06
 93785,0.0428774,0.0233474,0.0277458,-0.0132975,0.0136926,-0.059916,0.1
 055508,0.0315284,0.05349,0.0144845,0.142593,-0.0369682,0.0060686,-0.06
 70565,-0.0030799,-0.027954,0.0018951,-0.0534459,0.0055945,-0.2113661,0
 .7712619,-0.1327121,0.0722171,-0.0845056,0.4506803,-0.018416,0.0318936
 ,-0.0359869,0.320183,-0.0095712,0.0111786,-0.0368014,0.0142699,0.03689
 52,-0.0035409,-0.0135233,0.0311678,-0.1537599,-0.0529952,-0.0017092,-0
 .012169,0.0059836,-0.2422454,-0.0479431,0.0056925,-0.0928969,-0.001941
 3,0.0399997,0.022183,0.0004014,0.0184038,0.0001204,-0.034929,0.0139325
 ,0.0066131,0.120949,-0.0531683,0.119489,-0.0156998,0.0955011,-0.001533
 5,-0.0042645,-0.0266881,0.0003029,0.0507717,0.0504753,-0.0112662,-0.04
 43561,0.0054694,0.0284803,0.0370849,-0.0462676,-0.0221777,-0.1526398,-
 0.0654105,-0.1145347,0.0692386,-0.0861327,-0.0391131,0.0240969,0.07550
 21,0.0435289,0.0051428,-0.9957296,0.0885648,-0.049974,0.0650268,-0.570
 1733,0.0404365,-0.054892,0.0650612,-0.2022691,0.3392302,0.0429045,0.05
 20696,0.0615619,0.2981521,-0.010103,-0.0135885,-0.0005039,0.0601005\Po
 lar=49.4470499,-0.7312522,47.1487478,0.8894074,0.0991998,44.4372606\PG
 =C01 [X(C4H10O1)]\NImag=0\\0.50492387,0.04892514,0.55071814,-0.0164019
 9,0.00987511,0.56881262,-0.05115726,-0.01722550,-0.00755915,0.05369165
 ,-0.01703442,-0.26720084,-0.09423482,0.01687858,0.29128730,-0.00707213
 ,-0.09422070,-0.09109181,0.00876836,0.10410757,0.09338632,-0.05845749,
 0.00396596,-0.04731984,-0.00140493,-0.00000496,-0.00245820,0.06248394,
 0.00363284,-0.05222393,0.02177611,-0.00558891,0.00444054,-0.03071871,-
 0.00714171,0.05184280,-0.04720742,0.02195129,-0.29624135,-0.00157305,0
 .00127879,-0.01156919,0.05389926,-0.02496642,0.32241885,-0.20449887,-0
 .09656136,0.08761133,-0.00123514,-0.00093362,0.00010124,0.00604842,0.0
 0382855,-0.00254492,0.22367091,-0.09717977,-0.10752639,0.05348442,-0.0
 2315334,-0.01362779,0.01429598,-0.00108083,-0.00171741,0.00048434,0.10
 403714,0.11445268,0.08785538,0.05327982,-0.09773294,-0.01186260,-0.006
 19952,0.00617737,0.02590745,0.01599451,-0.01322072,-0.09538065,-0.0594
 7796,0.10146627,-0.15492618,0.04233689,-0.01412002,0.00343585,-0.00204
 192,0.00087603,-0.00625735,0.00308781,-0.00212483,-0.02306904,0.015000
 91,-0.00549677,0.47486730,0.04527718,-0.10675326,0.00967776,0.02597415
 ,-0.01524757,0.00620264,0.00236493,-0.00240552,0.00051958,-0.01444643,
 0.00848981,-0.00332732,-0.00509737,0.48576126,-0.01414192,0.00921989,-
 0.08366390,0.01303270,-0.00676541,0.00131417,-0.02955513,0.01747814,-0
 .00517190,0.01291248,-0.00920048,0.00187276,0.02010503,-0.00634983,0.5
 8007896,-0.00678464,0.00355475,-0.03005478,0.00114372,-0.00018003,0.00
 062667,-0.00495636,0.00343864,-0.00099264,0.00104150,-0.00096829,0.000
 14663,-0.05474398,0.00179699,-0.03583042,0.06304886,0.00408789,-0.0022
 3607,0.01732683,-0.00069849,0.00039923,0.00016032,0.00321172,-0.001278
 12,0.00058675,-0.00043379,0.00051328,-0.00066659,0.00105366,-0.0501488
 1,0.01464724,-0.00204664,0.05872290,-0.00095124,0.00063365,-0.00480396
 ,-0.00018074,0.00059101,0.00046726,-0.00071557,0.00055351,0.00140805,-
 0.00049621,-0.00017552,0.00056073,-0.03691037,0.01451888,-0.28119381,0
 .03995131,-0.01630613,0.30898964,-0.02979416,-0.00665277,0.00955810,0.
 00082035,-0.00136200,-0.00006939,0.00115131,-0.00077684,0.00091600,-0.
 00153469,0.00129727,-0.00078157,-0.11974523,-0.04343581,0.03456969,0.0
 0104888,0.00231916,-0.00334950,0.44790597,0.01353790,0.01029704,-0.007
 91886,0.00202536,-0.00052405,-0.00086881,0.00032935,0.00007531,0.00016
 417,0.00517324,-0.00277943,0.00046884,-0.03956749,-0.11137247,0.022396
 59,-0.00298933,-0.00212552,0.00227283,-0.00382212,0.54879091,-0.003725
 05,-0.00516783,0.00296799,0.00066946,0.00001689,-0.00014583,-0.0022836
 6,-0.00007356,-0.00001125,-0.00296675,0.00085351,-0.00011127,0.0266842
 9,0.02444080,-0.10509563,0.02877328,0.01937291,-0.01777314,0.02522361,
 0.03031085,0.62282550,0.00180722,-0.00023964,0.00067195,-0.00009362,0.
 00001318,0.00001078,-0.00033247,0.00015544,-0.00069304,0.00020434,-0.0
 0006140,-0.00032770,0.00230824,-0.00168464,0.02628818,-0.00406184,-0.0
 0297437,0.00228424,-0.04898117,-0.00076225,-0.01340272,0.06560904,0.00
 056441,-0.00000820,-0.00030136,-0.00011921,0.00006079,-0.00010887,-0.0
 0004689,0.00035417,-0.00025013,0.00004284,-0.00007632,-0.00014370,-0.0
 0015070,-0.00083052,0.01810741,-0.00240453,-0.00100944,0.00199434,-0.0
 0144626,-0.05452692,0.00298001,-0.00518880,0.05507206,-0.00067733,0.00
 011103,0.00002043,0.00000155,0.00005849,0.00002110,0.00087776,-0.00030
 060,0.00056994,0.00027059,-0.00002620,0.00045771,-0.00046297,0.0005081
 2,-0.01494721,0.00243459,0.00140627,0.00020048,-0.02308645,0.00891198,
 -0.30714177,0.02791692,-0.01403460,0.33203051,0.00127098,-0.00127992,-
 0.00058554,-0.00059982,0.00045597,0.00029633,-0.00005091,0.00003328,-0
 .00003772,0.00031802,0.00022083,0.00007734,-0.00080943,-0.02331472,-0.
 01036767,0.00084601,0.00078454,0.00042007,-0.05043367,-0.01762135,-0.0
 0862265,0.00168150,-0.00284348,-0.00014028,0.06394839,0.00096710,-0.00
 000426,-0.00037490,-0.00077421,0.00096363,0.00023980,-0.00008522,0.000
 05045,0.00002966,-0.00007438,0.00049194,0.00031448,-0.00238579,-0.0168
 1780,-0.00915801,0.00075709,0.00056840,0.00042181,-0.01777141,-0.25418
 087,-0.08124779,-0.00116431,0.00246025,-0.00038534,0.00799501,0.282634
 40,-0.00051696,0.00009938,0.00018308,-0.00018461,-0.00014154,0.0001832
 0,0.00009879,-0.00013694,-0.00002833,-0.00022481,0.00011165,-0.0001130
 4,0.00354772,0.01400362,0.00535846,-0.00100044,-0.00023940,0.00096176,
 -0.00646629,-0.08286475,-0.09207828,-0.00246895,-0.03059836,-0.0109340
 3,0.00501288,0.08943468,0.08784820,0.00135351,0.02996084,0.01151249,-0
 .00538014,0.00455866,-0.00068193,0.00095213,-0.00042369,0.00043943,0.0
 0106244,0.00048321,0.00026260,-0.08100364,-0.00799971,-0.00332918,-0.0
 0044729,-0.00586636,-0.00217879,-0.00185094,-0.02871359,-0.00961436,0.
 00099413,0.00098528,-0.00065182,-0.00451994,-0.00304227,0.00188855,0.5
 8863974,0.00373504,-0.02216077,-0.00676170,0.00154734,-0.00057217,0.00
 032865,-0.00145786,0.00105633,-0.00047452,-0.00149075,0.00135433,0.000
 07381,-0.00471778,-0.16899612,-0.03717091,-0.00007378,-0.00056764,-0.0
 0022821,-0.01044060,-0.02309058,-0.00433634,0.00129302,0.00106019,-0.0
 0099596,-0.00163925,-0.00003399,0.00043436,-0.00729363,0.48991318,0.00
 168350,0.00267392,0.00206925,-0.00124219,0.00162285,0.00027301,-0.0003
 5657,0.00161159,0.00065572,0.00010750,-0.00038446,-0.00010616,-0.00194
 245,-0.03836984,-0.09833068,-0.00273112,-0.03294145,-0.01309448,-0.001
 29097,0.01320149,0.00634446,0.00017028,0.00135380,0.00084347,0.0034310
 4,0.00291394,-0.00062409,-0.00504785,-0.03904580,0.55679750,0.00038488
 ,-0.00033396,0.00051294,0.00016055,-0.00021224,-0.00016826,0.00001214,
 -0.00013645,0.00001300,0.00024002,-0.00016607,-0.00016199,0.00411456,-
 0.00095617,0.00059129,0.00029864,0.00041096,0.00039141,-0.00059425,0.0
 0019860,0.00066168,-0.00003992,0.00006034,-0.00001706,0.00004976,0.000
 27858,-0.00016206,-0.25173460,0.11360440,-0.02815508,0.27157838,-0.002
 48974,-0.00580734,-0.00315085,0.00185241,-0.00121941,0.00014981,-0.000
 30116,0.00018556,0.00007225,-0.00006953,0.00025058,-0.00018626,0.02752
 125,-0.01465554,0.00563607,-0.00039067,0.00122189,-0.00020159,0.003239
 53,-0.00051611,0.00081826,-0.00024894,-0.00001852,0.00001909,-0.000111
 81,0.00040503,-0.00005269,0.11118986,-0.11076808,0.01578785,-0.1235665
 4,0.12040650,-0.00074083,-0.00216770,-0.00062529,0.00052119,-0.0006116
 7,0.00059092,0.00024140,-0.00034467,0.00036059,-0.00040573,0.00009276,
 -0.00006414,0.01227308,-0.00584864,0.00120155,0.00039987,0.00068409,0.
 00033763,-0.00021731,0.00059824,0.00035134,-0.00008308,-0.00000902,-0.
 00002887,0.00010275,0.00001021,-0.00007818,-0.02757586,0.01604893,-0.0
 5469018,0.03102701,-0.01522915,0.05451142,0.00029212,0.00004031,0.0010
 9228,-0.00010389,-0.00011942,-0.00006570,0.00030433,0.00008624,-0.0000
 7212,-0.00001535,0.00000732,0.00015162,-0.00165837,-0.00007267,-0.0021
 5461,0.00077385,-0.00041870,-0.00002333,0.00019053,0.00043194,-0.00161
 447,-0.00000108,-0.00026593,0.00038450,0.00001253,-0.00003372,0.000239
 38,-0.06176731,0.00174152,-0.05342198,-0.00457361,0.00029538,-0.029206
 94,0.06053805,-0.00089994,0.00185268,-0.00077150,-0.00022093,0.0002662
 3,0.00036624,0.00034381,-0.00016003,0.00064564,0.00016388,-0.00011973,
 0.00005717,-0.00681873,0.00022751,-0.03253469,-0.00065230,-0.00602608,
 -0.00275399,0.00068521,0.00169289,-0.00136772,-0.00014364,-0.00005725,
 0.00091847,0.00030512,0.00022257,0.00037656,0.00177207,-0.04946064,0.0
 0965735,0.00176376,-0.00084236,0.01613285,-0.00151025,0.05326257,-0.00
 037572,0.00103028,0.00050029,0.00011049,-0.00004353,0.00048527,0.00064
 373,-0.00068015,0.00043607,0.00002801,-0.00005396,-0.00009108,-0.00281
 466,-0.00035881,-0.01372199,-0.00016031,-0.00289448,0.00046128,0.00072
 467,0.00088762,0.00027076,-0.00061903,-0.00049111,0.00060438,0.0000084
 9,-0.00010716,0.00038891,-0.05292363,0.00897051,-0.29425348,-0.0004476
 1,0.00055728,-0.00282974,0.05942717,-0.00727300,0.32164054,0.00067681,
 0.00060203,-0.00028561,0.00011369,-0.00010420,-0.00014410,0.00001023,0
 .00005578,-0.00003185,0.00043634,-0.00020168,0.00007322,-0.00174030,0.
 00026061,0.00022234,-0.00002406,-0.00017835,-0.00035926,-0.00006788,0.
 00049251,-0.00085260,0.00001660,0.00007872,0.00007794,-0.00002966,-0.0
 0008809,0.00011861,-0.18696425,-0.09644868,0.08828335,-0.01907049,-0.0
 1540875,0.01392035,0.00617739,0.00505442,-0.00352051,0.20020714,-0.001
 34858,0.00135035,0.00083254,0.00012738,0.00042964,-0.00031129,0.000085
 98,-0.00008388,-0.00002777,0.00110078,-0.00023310,-0.00028741,-0.02326
 278,-0.01609582,0.01618736,0.00021339,0.00141846,-0.00023645,0.0024346
 2,-0.00608215,-0.00380879,0.00033704,0.00018509,-0.00005039,-0.0018682
 9,-0.00116127,0.00058711,-0.09589987,-0.11612580,0.06227617,0.01104775
 ,0.00950399,-0.00905468,0.00002823,-0.00088155,0.00066866,0.10706515,0
 .12653466,-0.00020548,0.00049671,0.00003803,-0.00025466,0.00008221,-0.
 00004133,0.00014022,0.00000306,-0.00002111,-0.00003346,0.00022329,0.00
 021815,-0.01071238,-0.00753756,0.00589147,-0.00031218,0.00068785,0.000
 80846,0.00031948,-0.00250220,-0.00086083,-0.00014547,-0.00031020,0.000
 39823,-0.00052754,-0.00042091,0.00057299,0.08859539,0.06305351,-0.1064
 4669,-0.00380459,-0.00346061,0.00167871,0.02454538,0.01637562,-0.01409
 748,-0.09770766,-0.06682274,0.11171133,-0.00513176,-0.00762939,0.00480
 019,0.00061849,0.00015041,0.00004806,0.00007746,-0.00002056,-0.0002919
 6,-0.00290832,0.00181611,-0.00061870,-0.04172947,0.02174757,-0.0095176
 1,0.00351382,0.00107885,0.00027840,-0.18590161,0.06788171,0.00516249,-
 0.01345758,0.00729948,-0.00666724,-0.01313594,0.01527208,-0.00077722,0
 .00084413,0.00209061,0.00035238,-0.00071000,-0.00110580,0.00000212,-0.
 00038278,-0.00006674,-0.00038286,0.00010230,-0.00010869,0.00006975,0.3
 0129811,-0.00142614,-0.00021692,0.00022693,-0.00079952,0.00078683,0.00
 042038,-0.00019653,-0.00004871,-0.00000783,-0.00024693,0.00053298,0.00
 013939,-0.00446884,0.00799165,-0.00065069,-0.00018969,0.00006184,-0.00
 106553,0.06820130,-0.10260331,-0.00662586,0.00689486,-0.00136783,0.003
 29164,0.03960257,-0.01591909,0.00777635,0.00095677,-0.00157910,-0.0004
 8990,-0.00197105,0.00229239,0.00019233,-0.00052760,0.00014439,-0.00038
 410,-0.00125431,0.00134539,0.00012355,-0.12334931,0.12110391,0.0018471
 7,0.00188134,-0.00026439,-0.00018573,0.00022293,-0.00006357,0.00075665
 ,-0.00021936,0.00048875,0.00080816,-0.00015554,0.00063144,0.00992069,-
 0.00672792,0.00338114,-0.00034436,-0.00138269,0.00302258,-0.04057972,0
 .01737013,-0.09982840,-0.03734227,0.01984000,-0.00445859,0.00941970,-0
 .00126698,0.00722480,-0.00052956,0.00008550,0.00083357,-0.00009816,-0.
 00046052,-0.00060375,0.00060337,0.00021339,0.00020636,0.00013992,-0.00
 001802,0.00011059,0.09315887,-0.01844026,0.57134468,0.00004097,0.00053
 662,0.00056766,-0.00000951,-0.00006397,-0.00006778,0.00041957,-0.00023
 042,0.00030186,0.00023941,-0.00005140,0.00015573,0.00095705,-0.0004139
 2,-0.00282517,-0.00069709,-0.00033008,0.00183959,-0.01221343,0.0034055
 2,-0.04409257,-0.00565338,0.00343473,-0.00026068,0.00145219,0.00014951
 ,0.00089541,-0.00017796,-0.00044961,0.00016015,-0.00011605,-0.00040549
 ,-0.00025802,0.00021360,0.00022425,0.00030175,0.00015614,0.00004790,0.
 00003319,-0.04309685,0.01877443,-0.03757474,0.05848535,-0.00034892,-0.
 00008024,0.00031428,0.00017491,-0.00024236,-0.00004301,0.00001340,-0.0
 0008756,-0.00000580,-0.00008964,-0.00000544,-0.00003926,-0.00048912,0.
 00085320,-0.00184269,0.00013438,0.00048568,-0.00001860,0.00753072,-0.0
 0305473,0.02383466,0.00377445,-0.00129753,0.00056800,-0.00071851,0.000
 32060,0.00120996,-0.00066758,-0.00002913,0.00013250,-0.00002191,-0.000
 43856,-0.00049387,0.00031736,-0.00012121,0.00017196,0.00007484,-0.0001
 0400,0.00000842,0.01494368,-0.01252442,-0.01094198,-0.02462807,0.01632
 570,0.00063002,0.00030382,-0.00016805,-0.00006105,0.00001575,0.0000131
 0,0.00012371,0.00002350,-0.00007412,0.00021323,-0.00007183,0.00005491,
 0.00117760,-0.00135149,0.00302662,-0.00090609,-0.00044152,-0.00035248,
 0.00452965,-0.00242813,-0.00971365,-0.00226011,0.00197181,0.00236422,0
 .00151279,-0.00040349,0.00113455,-0.00016548,0.00001819,-0.00027121,-0
 .00018250,-0.00029893,-0.00011201,0.00011545,-0.00004239,-0.00000009,0
 .00006584,0.00006568,0.00003949,-0.08561667,0.01549359,-0.48202523,0.0
 8082362,-0.01285457,0.48608395\\-0.00000188,0.00000140,0.00000789,-0.0
 0000165,0.00000392,-0.00000933,-0.00000119,-0.00000480,-0.00000194,0.0
 0000150,-0.00000196,-0.00000307,-0.00000256,-0.00001584,-0.00001322,-0
 .00000336,0.00000856,0.00000538,0.00000395,0.00000847,0.00000355,-0.00
 000084,-0.00000622,-0.00000360,-0.00000385,-0.00000083,-0.00000857,-0.
 00000391,-0.00000907,-0.00001814,0.00000526,0.00000636,0.00001598,0.00
 000161,-0.00000277,0.00001500,0.00000755,-0.00000180,0.00000980,0.0000
 0166,0.00000964,-0.00000689,-0.00000228,0.00000493,0.00000715\\\@


 CHARLIE BROWN -- WHICH DO YOU THINK LASTS LONGER IN LIFE, THE GOOD THINGS 
                  OR THE BAD THINGS?
 LINUS --         GOOD THINGS LAST EIGHT SECONDS ..
                  BAD THINGS LAST THREE WEEKS
 CHARLIE BROWN -- WHAT ABOUT IN BETWEEN?
 SNOOPY --        IN BETWEEN YOU SHOULD TAKE A NAP ...
 Job cpu time:  0 days  0 hours  5 minutes  0.5 seconds.
 File lengths (MBytes):  RWF=     21 Int=      0 D2E=      0 Chk=      3 Scr=      1
 Normal termination of Gaussian 09 at Sun Aug 23 11:16:54 2015.
