 Entering Gaussian System, Link 0=/home/hetanjin/apps/g09D01/g09/g09
 Input=O2_M06.gjf
 Output=O2_M06.log
 Initial command:
 /home/hetanjin/apps/g09D01/g09/l1.exe "/state/partition1/Gau-4548.inp" -scrdir="/state/partition1/"
 Entering Link 1 = /home/hetanjin/apps/g09D01/g09/l1.exe PID=      4549.
  
 Copyright (c) 1988,1990,1992,1993,1995,1998,2003,2009,2013,
            Gaussian, Inc.  All Rights Reserved.
  
 This is part of the Gaussian(R) 09 program.  It is based on
 the Gaussian(R) 03 system (copyright 2003, Gaussian, Inc.),
 the Gaussian(R) 98 system (copyright 1998, Gaussian, Inc.),
 the Gaussian(R) 94 system (copyright 1995, Gaussian, Inc.),
 the Gaussian 92(TM) system (copyright 1992, Gaussian, Inc.),
 the Gaussian 90(TM) system (copyright 1990, Gaussian, Inc.),
 the Gaussian 88(TM) system (copyright 1988, Gaussian, Inc.),
 the Gaussian 86(TM) system (copyright 1986, Carnegie Mellon
 University), and the Gaussian 82(TM) system (copyright 1983,
 Carnegie Mellon University). Gaussian is a federally registered
 trademark of Gaussian, Inc.
  
 This software contains proprietary and confidential information,
 including trade secrets, belonging to Gaussian, Inc.
  
 This software is provided under written license and may be
 used, copied, transmitted, or stored only in accord with that
 written license.
  
 The following legend is applicable only to US Government
 contracts under FAR:
  
                    RESTRICTED RIGHTS LEGEND
  
 Use, reproduction and disclosure by the US Government is
 subject to restrictions as set forth in subparagraphs (a)
 and (c) of the Commercial Computer Software - Restricted
 Rights clause in FAR 52.227-19.
  
 Gaussian, Inc.
 340 Quinnipiac St., Bldg. 40, Wallingford CT 06492
  
  
 ---------------------------------------------------------------
 Warning -- This program may not be used in any manner that
 competes with the business of Gaussian, Inc. or will provide
 assistance to any competitor of Gaussian, Inc.  The licensee
 of this program is prohibited from giving any competitor of
 Gaussian, Inc. access to this program.  By using this program,
 the user acknowledges that Gaussian, Inc. is engaged in the
 business of creating and licensing software in the field of
 computational chemistry and represents and warrants to the
 licensee that it is not a competitor of Gaussian, Inc. and that
 it will not use this program in any manner prohibited above.
 ---------------------------------------------------------------
  

 Cite this work as:
 Gaussian 09, Revision D.01,
 M. J. Frisch, G. W. Trucks, H. B. Schlegel, G. E. Scuseria, 
 M. A. Robb, J. R. Cheeseman, G. Scalmani, V. Barone, B. Mennucci, 
 G. A. Petersson, H. Nakatsuji, M. Caricato, X. Li, H. P. Hratchian, 
 A. F. Izmaylov, J. Bloino, G. Zheng, J. L. Sonnenberg, M. Hada, 
 M. Ehara, K. Toyota, R. Fukuda, J. Hasegawa, M. Ishida, T. Nakajima, 
 Y. Honda, O. Kitao, H. Nakai, T. Vreven, J. A. Montgomery, Jr., 
 J. E. Peralta, F. Ogliaro, M. Bearpark, J. J. Heyd, E. Brothers, 
 K. N. Kudin, V. N. Staroverov, T. Keith, R. Kobayashi, J. Normand, 
 K. Raghavachari, A. Rendell, J. C. Burant, S. S. Iyengar, J. Tomasi, 
 M. Cossi, N. Rega, J. M. Millam, M. Klene, J. E. Knox, J. B. Cross, 
 V. Bakken, C. Adamo, J. Jaramillo, R. Gomperts, R. E. Stratmann, 
 O. Yazyev, A. J. Austin, R. Cammi, C. Pomelli, J. W. Ochterski, 
 R. L. Martin, K. Morokuma, V. G. Zakrzewski, G. A. Voth, 
 P. Salvador, J. J. Dannenberg, S. Dapprich, A. D. Daniels, 
 O. Farkas, J. B. Foresman, J. V. Ortiz, J. Cioslowski, 
 and D. J. Fox, Gaussian, Inc., Wallingford CT, 2013.
 
 ******************************************
 Gaussian 09:  ES64L-G09RevD.01 24-Apr-2013
                 8-Aug-2015 
 ******************************************
 -------------------------
 # m062x/def2tzvp opt freq
 -------------------------
 1/14=-1,18=20,19=15,26=3,38=1/1,3;
 2/9=110,12=2,17=6,18=5,40=1/2;
 3/5=44,7=101,11=2,16=1,25=1,30=1,71=1,74=-55/1,2,3;
 4//1;
 5/5=2,38=5/2;
 6/7=2,8=2,9=2,10=2,28=1/1;
 7//1,2,3,16;
 1/14=-1,18=20,19=15,26=3/3(2);
 2/9=110/2;
 99//99;
 2/9=110/2;
 3/5=44,7=101,11=2,16=1,25=1,30=1,71=1,74=-55/1,2,3;
 4/5=5,16=3,69=1/1;
 5/5=2,38=5/2;
 7//1,2,3,16;
 1/14=-1,18=20,19=15,26=3/3(-5);
 2/9=110/2;
 6/7=2,8=2,9=2,10=2,19=2,28=1/1;
 99/9=1/99;
 -------------------
 Title Card Required
 -------------------
 Symbolic Z-matrix:
 Charge =  0 Multiplicity = 3
 O                    -2.67708  -0.39583   0. 
 O                    -3.83868  -0.39583   0. 
 

 GradGradGradGradGradGradGradGradGradGradGradGradGradGradGradGradGradGrad
 Berny optimization.
 Initialization pass.
                           ----------------------------
                           !    Initial Parameters    !
                           ! (Angstroms and Degrees)  !
 --------------------------                            --------------------------
 ! Name  Definition              Value          Derivative Info.                !
 --------------------------------------------------------------------------------
 ! R1    R(1,2)                  1.1616         estimate D2E/DX2                !
 --------------------------------------------------------------------------------
 Trust Radius=3.00D-01 FncErr=1.00D-07 GrdErr=1.00D-06
 Number of steps in this run=     20 maximum allowed number of steps=    100.
 GradGradGradGradGradGradGradGradGradGradGradGradGradGradGradGradGradGrad

                          Input orientation:                          
 ---------------------------------------------------------------------
 Center     Atomic      Atomic             Coordinates (Angstroms)
 Number     Number       Type             X           Y           Z
 ---------------------------------------------------------------------
      1          8           0       -2.677083   -0.395833    0.000000
      2          8           0       -3.838683   -0.395833    0.000000
 ---------------------------------------------------------------------
 Stoichiometry    O2(3)
 Framework group  D*H[C*(O.O)]
 Deg. of freedom     1
 Full point group                 D*H     NOp   8
 Largest Abelian subgroup         D2H     NOp   8
 Largest concise Abelian subgroup C2      NOp   2
                         Standard orientation:                         
 ---------------------------------------------------------------------
 Center     Atomic      Atomic             Coordinates (Angstroms)
 Number     Number       Type             X           Y           Z
 ---------------------------------------------------------------------
      1          8           0        0.000000    0.000000    0.580800
      2          8           0        0.000000    0.000000   -0.580800
 ---------------------------------------------------------------------
 Rotational constants (GHZ):      0.0000000     46.8330086     46.8330086
 Standard basis: def2TZVP (5D, 7F)
 There are    17 symmetry adapted cartesian basis functions of AG  symmetry.
 There are     3 symmetry adapted cartesian basis functions of B1G symmetry.
 There are     8 symmetry adapted cartesian basis functions of B2G symmetry.
 There are     8 symmetry adapted cartesian basis functions of B3G symmetry.
 There are     3 symmetry adapted cartesian basis functions of AU  symmetry.
 There are    17 symmetry adapted cartesian basis functions of B1U symmetry.
 There are     8 symmetry adapted cartesian basis functions of B2U symmetry.
 There are     8 symmetry adapted cartesian basis functions of B3U symmetry.
 There are    14 symmetry adapted basis functions of AG  symmetry.
 There are     3 symmetry adapted basis functions of B1G symmetry.
 There are     7 symmetry adapted basis functions of B2G symmetry.
 There are     7 symmetry adapted basis functions of B3G symmetry.
 There are     3 symmetry adapted basis functions of AU  symmetry.
 There are    14 symmetry adapted basis functions of B1U symmetry.
 There are     7 symmetry adapted basis functions of B2U symmetry.
 There are     7 symmetry adapted basis functions of B3U symmetry.
    62 basis functions,   102 primitive gaussians,    72 cartesian basis functions
     9 alpha electrons        7 beta electrons
       nuclear repulsion energy        29.1557690683 Hartrees.
 NAtoms=    2 NActive=    2 NUniq=    1 SFac= 4.00D+00 NAtFMM=   60 NAOKFM=F Big=F
 Integral buffers will be    131072 words long.
 Raffenetti 2 integral format.
 Two-electron integral symmetry is turned on.
 One-electron integrals computed using PRISM.
   8 Symmetry operations used in ECPInt.
 ECPInt:  NShTT=     253 NPrTT=     864 LenC2=     253 LenP2D=     799.
 LDataN:  DoStor=T MaxTD1= 6 Len=  172
 NBasis=    62 RedAO= T EigKep=  1.71D-03  NBF=    14     3     7     7     3    14     7     7
 NBsUse=    62 1.00D-06 EigRej= -1.00D+00 NBFU=    14     3     7     7     3    14     7     7
 ExpMin= 1.75D-01 ExpMax= 2.70D+04 ExpMxC= 9.22D+02 IAcc=1 IRadAn=         1 AccDes= 0.00D+00
 Harris functional with IExCor= 1009 and IRadAn=       1 diagonalized for initial guess.
 HarFok:  IExCor= 1009 AccDes= 0.00D+00 IRadAn=         1 IDoV= 1 UseB2=F ITyADJ=14
 ICtDFT=  3500011 ScaDFX=  1.000000  1.000000  1.000000  1.000000
 FoFCou: FMM=F IPFlag=           0 FMFlag=      100000 FMFlg1=           0
         NFxFlg=           0 DoJE=T BraDBF=F KetDBF=T FulRan=T
         wScrn=  0.000000 ICntrl=     500 IOpCl=  0 I1Cent=   200000004 NGrid=           0
         NMat0=    1 NMatS0=      1 NMatT0=    0 NMatD0=    1 NMtDS0=    0 NMtDT0=    0
 Petite list used in FoFCou.
 Initial guess orbital symmetries:
 Alpha Orbitals:
       Occupied  (SGG) (SGU) (SGG) (SGU) (SGG) (PIU) (PIU) (PIG)
                 (PIG)
       Virtual   (SGU) (SGG) (PIU) (PIU) (SGG) (SGU) (PIG) (PIG)
                 (SGU) (DLTG) (DLTG) (PIU) (PIU) (DLTU) (DLTU)
                 (SGG) (SGU) (PIG) (PIG) (PIU) (PIU) (SGG) (SGU)
                 (PIG) (PIG) (SGG) (SGU) (DLTG) (DLTG) (PIU) (PIU)
                 (PHIU) (PHIU) (SGG) (PHIG) (PHIG) (DLTU) (DLTU)
                 (DLTG) (DLTG) (DLTU) (DLTU) (PIG) (PIG) (SGU)
                 (PIU) (PIU) (PIG) (PIG) (SGG) (SGU) (SGG) (SGU)
 Beta  Orbitals:
       Occupied  (SGG) (SGU) (SGG) (SGU) (SGG) (PIU) (PIU)
       Virtual   (PIG) (PIG) (SGU) (SGG) (PIU) (PIU) (SGG) (SGU)
                 (PIG) (PIG) (SGU) (DLTG) (DLTG) (PIU) (PIU) (DLTU)
                 (DLTU) (SGG) (SGU) (PIG) (PIG) (PIU) (PIU) (SGG)
                 (SGU) (PIG) (PIG) (SGG) (SGU) (DLTG) (DLTG) (PIU)
                 (PIU) (PHIU) (PHIU) (SGG) (PHIG) (PHIG) (DLTU)
                 (DLTU) (DLTG) (DLTG) (DLTU) (DLTU) (PIG) (PIG)
                 (SGU) (PIU) (PIU) (PIG) (PIG) (SGG) (SGU) (SGG)
                 (SGU)
 The electronic state of the initial guess is 3-SGG.
 Initial guess <Sx>= 0.0000 <Sy>= 0.0000 <Sz>= 1.0000 <S**2>= 2.0000 S= 1.0000
 Keep R1 and R2 ints in memory in symmetry-blocked form, NReq=3909808.
 Requested convergence on RMS density matrix=1.00D-08 within 128 cycles.
 Requested convergence on MAX density matrix=1.00D-06.
 Requested convergence on             energy=1.00D-06.
 No special actions if energy rises.
 Integral accuracy reduced to 1.0D-05 until final iterations.
 Initial convergence to 1.0D-05 achieved.  Increase integral accuracy.
 SCF Done:  E(UM062X) =  -150.325918650     A.U. after   12 cycles
            NFock= 12  Conv=0.47D-08     -V/T= 2.0025
 <Sx>= 0.0000 <Sy>= 0.0000 <Sz>= 1.0000 <S**2>= 2.0114 S= 1.0038
 <L.S>= 0.000000000000E+00
 Annihilation of the first spin contaminant:
 S**2 before annihilation     2.0114,   after     2.0001

 **********************************************************************

            Population analysis using the SCF density.

 **********************************************************************

 Orbital symmetries:
 Alpha Orbitals:
       Occupied  (SGG) (SGU) (SGG) (SGU) (PIU) (PIU) (SGG) (PIG)
                 (PIG)
       Virtual   (SGU) (SGG) (PIU) (PIU) (SGG) (SGU) (PIG) (PIG)
                 (SGU) (DLTG) (DLTG) (PIU) (PIU) (DLTU) (DLTU)
                 (SGG) (PIG) (PIG) (SGU) (PIU) (PIU) (SGG) (SGU)
                 (PIG) (PIG) (SGG) (SGU) (DLTG) (DLTG) (PIU) (PIU)
                 (PHIU) (PHIU) (SGG) (PHIG) (PHIG) (DLTU) (DLTU)
                 (DLTG) (DLTG) (DLTU) (DLTU) (PIG) (PIG) (SGU)
                 (PIU) (PIU) (PIG) (PIG) (SGG) (SGU) (SGG) (SGU)
 Beta  Orbitals:
       Occupied  (SGG) (SGU) (SGG) (SGU) (SGG) (PIU) (PIU)
       Virtual   (PIG) (PIG) (SGU) (SGG) (PIU) (PIU) (SGG) (PIG)
                 (PIG) (SGU) (SGU) (DLTG) (DLTG) (PIU) (PIU) (DLTU)
                 (DLTU) (SGG) (PIG) (PIG) (SGU) (PIU) (PIU) (SGG)
                 (SGU) (PIG) (PIG) (SGG) (SGU) (DLTG) (DLTG) (PIU)
                 (PIU) (PHIU) (PHIU) (SGG) (PHIG) (PHIG) (DLTU)
                 (DLTU) (DLTG) (DLTG) (DLTU) (DLTU) (PIG) (PIG)
                 (SGU) (PIU) (PIU) (PIG) (PIG) (SGG) (SGU) (SGG)
                 (SGU)
 The electronic state is 3-SGG.
 Alpha  occ. eigenvalues --  -19.78351 -19.78305  -1.48539  -0.95159  -0.68789
 Alpha  occ. eigenvalues --   -0.68789  -0.65286  -0.38546  -0.38546
 Alpha virt. eigenvalues --    0.26725   0.37161   0.41331   0.41331   0.47165
 Alpha virt. eigenvalues --    0.52476   0.53493   0.53493   0.79389   1.25426
 Alpha virt. eigenvalues --    1.25426   1.37084   1.37084   1.68161   1.68171
 Alpha virt. eigenvalues --    1.88085   2.16898   2.16898   2.19126   2.45050
 Alpha virt. eigenvalues --    2.45050   2.55209   2.78869   2.81492   2.81492
 Alpha virt. eigenvalues --    3.00155   4.24619   4.56891   4.56926   4.66635
 Alpha virt. eigenvalues --    4.66635   4.90219   4.90219   5.10920   5.19458
 Alpha virt. eigenvalues --    5.19458   5.79567   5.79592   6.02958   6.02998
 Alpha virt. eigenvalues --    6.24889   6.24895   6.32862   6.32862   6.35960
 Alpha virt. eigenvalues --    6.46117   6.46117   7.30994   7.30994   7.50351
 Alpha virt. eigenvalues --    8.55614  43.18060  43.66458
  Beta  occ. eigenvalues --  -19.75908 -19.75823  -1.41564  -0.84446  -0.59912
  Beta  occ. eigenvalues --   -0.55549  -0.55549
  Beta virt. eigenvalues --   -0.03823  -0.03823   0.27842   0.37055   0.42837
  Beta virt. eigenvalues --    0.42837   0.46029   0.55099   0.55099   0.55594
  Beta virt. eigenvalues --    0.79856   1.27784   1.27786   1.40762   1.40762
  Beta virt. eigenvalues --    1.72805   1.72809   1.88867   2.19652   2.19652
  Beta virt. eigenvalues --    2.20093   2.52236   2.52236   2.58698   2.81838
  Beta virt. eigenvalues --    2.87483   2.87483   3.03048   4.25918   4.59185
  Beta virt. eigenvalues --    4.59188   4.66422   4.66422   4.92858   4.92858
  Beta virt. eigenvalues --    5.12543   5.22473   5.22473   5.81957   5.81965
  Beta virt. eigenvalues --    6.13905   6.13912   6.35560   6.35565   6.37548
  Beta virt. eigenvalues --    6.37548   6.40228   6.49909   6.49909   7.30627
  Beta virt. eigenvalues --    7.30627   7.52572   8.54874  43.18163  43.66641
          Condensed to atoms (all electrons):
               1          2
     1  O    7.913077   0.086923
     2  O    0.086923   7.913077
          Atomic-Atomic Spin Densities.
               1          2
     1  O    1.460804  -0.460804
     2  O   -0.460804   1.460804
 Mulliken charges and spin densities:
               1          2
     1  O    0.000000   1.000000
     2  O    0.000000   1.000000
 Sum of Mulliken charges =   0.00000   2.00000
 Mulliken charges and spin densities with hydrogens summed into heavy atoms:
               1          2
     1  O    0.000000   1.000000
     2  O    0.000000   1.000000
 Electronic spatial extent (au):  <R**2>=             41.8885
 Charge=              0.0000 electrons
 Dipole moment (field-independent basis, Debye):
    X=              0.0000    Y=              0.0000    Z=              0.0000  Tot=              0.0000
 Quadrupole moment (field-independent basis, Debye-Ang):
   XX=             -9.9256   YY=             -9.9256   ZZ=            -10.5661
   XY=              0.0000   XZ=              0.0000   YZ=              0.0000
 Traceless Quadrupole moment (field-independent basis, Debye-Ang):
   XX=              0.2135   YY=              0.2135   ZZ=             -0.4270
   XY=              0.0000   XZ=              0.0000   YZ=              0.0000
 Octapole moment (field-independent basis, Debye-Ang**2):
  XXX=              0.0000  YYY=              0.0000  ZZZ=              0.0000  XYY=              0.0000
  XXY=              0.0000  XXZ=              0.0000  XZZ=              0.0000  YZZ=              0.0000
  YYZ=              0.0000  XYZ=              0.0000
 Hexadecapole moment (field-independent basis, Debye-Ang**3):
 XXXX=             -7.0479 YYYY=             -7.0479 ZZZZ=            -27.3285 XXXY=              0.0000
 XXXZ=              0.0000 YYYX=              0.0000 YYYZ=              0.0000 ZZZX=              0.0000
 ZZZY=              0.0000 XXYY=             -2.3493 XXZZ=             -5.9637 YYZZ=             -5.9637
 XXYZ=              0.0000 YYXZ=              0.0000 ZZXY=              0.0000
 N-N= 2.915576906832D+01 E-N=-4.138471307344D+02  KE= 1.499447047542D+02
 Symmetry AG   KE= 6.971149875854D+01
 Symmetry B1G  KE= 5.541806100353D-34
 Symmetry B2G  KE= 3.079406733000D+00
 Symmetry B3G  KE= 3.079406733000D+00
 Symmetry AU   KE= 2.050350374844D-33
 Symmetry B1U  KE= 6.501163650317D+01
 Symmetry B2U  KE= 4.531378013237D+00
 Symmetry B3U  KE= 4.531378013237D+00
                          Isotropic Fermi Contact Couplings
        Atom                 a.u.       MegaHertz       Gauss      10(-4) cm-1
     1  O(17)              0.15070     -45.67584     -16.29827     -15.23582
     2  O(17)              0.15070     -45.67584     -16.29827     -15.23582
 --------------------------------------------------------
       Center         ----  Spin Dipole Couplings  ----
                      3XX-RR        3YY-RR        3ZZ-RR
 --------------------------------------------------------
     1   Atom        1.277977      1.277977     -2.555953
     2   Atom        1.277977      1.277977     -2.555953
 --------------------------------------------------------
                        XY            XZ            YZ
 --------------------------------------------------------
     1   Atom        0.000000      0.000000      0.000000
     2   Atom        0.000000      0.000000      0.000000
 --------------------------------------------------------


 ---------------------------------------------------------------------------------
              Anisotropic Spin Dipole Couplings in Principal Axis System
 ---------------------------------------------------------------------------------

       Atom             a.u.   MegaHertz   Gauss  10(-4) cm-1        Axes

              Baa    -2.5560   184.947    65.994    61.692  0.0000  0.0000  1.0000
     1 O(17)  Bbb     1.2780   -92.473   -32.997   -30.846  1.0000  0.0000  0.0000
              Bcc     1.2780   -92.473   -32.997   -30.846  0.0000  1.0000  0.0000
 
              Baa    -2.5560   184.947    65.994    61.692  0.0000  0.0000  1.0000
     2 O(17)  Bbb     1.2780   -92.473   -32.997   -30.846  1.0000  0.0000  0.0000
              Bcc     1.2780   -92.473   -32.997   -30.846  0.0000  1.0000  0.0000
 

 ---------------------------------------------------------------------------------

   8 Symmetry operations used in ECPInt.
 ECPInt:  NShTT=     253 NPrTT=     864 LenC2=     253 LenP2D=     799.
 LDataN:  DoStor=T MaxTD1= 7 Len=  274
 Calling FoFJK, ICntrl=      2127 FMM=F ISym2X=1 I1Cent= 0 IOpClX= 1 NMat=1 NMatS=1 NMatT=0.
 ***** Axes restored to original set *****
 -------------------------------------------------------------------
 Center     Atomic                   Forces (Hartrees/Bohr)
 Number     Number              X              Y              Z
 -------------------------------------------------------------------
      1        8           0.052139053    0.000000000    0.000000000
      2        8          -0.052139053    0.000000000    0.000000000
 -------------------------------------------------------------------
 Cartesian Forces:  Max     0.052139053 RMS     0.030102497

 GradGradGradGradGradGradGradGradGradGradGradGradGradGradGradGradGradGrad
 Berny optimization.
 FormGI is forming the generalized inverse of G from B-inverse, IUseBI=4.
 Internal  Forces:  Max     0.052139053 RMS     0.052139053
 Search for a local minimum.
 Step number   1 out of a maximum of   20
 All quantities printed in internal units (Hartrees-Bohrs-Radians)
 Mixed Optimization -- RFO/linear search
 Second derivative matrix not updated -- first step.
 The second derivative matrix:
                          R1
           R1           1.26752
 ITU=  0
     Eigenvalues ---    1.26752
 RFO step:  Lambda=-2.14110223D-03 EMin= 1.26752312D+00
 Linear search not attempted -- first point.
 Iteration  1 RMS(Cart)=  0.02903750 RMS(Int)=  0.00000000
 Iteration  2 RMS(Cart)=  0.00000000 RMS(Int)=  0.00000000
 ClnCor:  largest displacement from symmetrization is 1.26D-18 for atom     2.
 Variable       Old X    -DE/DX   Delta X   Delta X   Delta X     New X
                                 (Linear)    (Quad)   (Total)
    R1        2.19511   0.05214   0.00000   0.04107   0.04107   2.23617
         Item               Value     Threshold  Converged?
 Maximum Force            0.052139     0.000450     NO 
 RMS     Force            0.052139     0.000300     NO 
 Maximum Displacement     0.020533     0.001800     NO 
 RMS     Displacement     0.029038     0.001200     NO 
 Predicted change in Energy=-1.072356D-03
 GradGradGradGradGradGradGradGradGradGradGradGradGradGradGradGradGradGrad

                          Input orientation:                          
 ---------------------------------------------------------------------
 Center     Atomic      Atomic             Coordinates (Angstroms)
 Number     Number       Type             X           Y           Z
 ---------------------------------------------------------------------
      1          8           0       -2.666218   -0.395833    0.000000
      2          8           0       -3.849549   -0.395833    0.000000
 ---------------------------------------------------------------------
 Stoichiometry    O2(3)
 Framework group  D*H[C*(O.O)]
 Deg. of freedom     1
 Full point group                 D*H     NOp   8
 Largest Abelian subgroup         D2H     NOp   8
 Largest concise Abelian subgroup C2      NOp   2
                         Standard orientation:                         
 ---------------------------------------------------------------------
 Center     Atomic      Atomic             Coordinates (Angstroms)
 Number     Number       Type             X           Y           Z
 ---------------------------------------------------------------------
      1          8           0        0.000000    0.000000    0.591665
      2          8           0        0.000000    0.000000   -0.591665
 ---------------------------------------------------------------------
 Rotational constants (GHZ):      0.0000000     45.1287121     45.1287121
 Standard basis: def2TZVP (5D, 7F)
 There are    17 symmetry adapted cartesian basis functions of AG  symmetry.
 There are     3 symmetry adapted cartesian basis functions of B1G symmetry.
 There are     8 symmetry adapted cartesian basis functions of B2G symmetry.
 There are     8 symmetry adapted cartesian basis functions of B3G symmetry.
 There are     3 symmetry adapted cartesian basis functions of AU  symmetry.
 There are    17 symmetry adapted cartesian basis functions of B1U symmetry.
 There are     8 symmetry adapted cartesian basis functions of B2U symmetry.
 There are     8 symmetry adapted cartesian basis functions of B3U symmetry.
 There are    14 symmetry adapted basis functions of AG  symmetry.
 There are     3 symmetry adapted basis functions of B1G symmetry.
 There are     7 symmetry adapted basis functions of B2G symmetry.
 There are     7 symmetry adapted basis functions of B3G symmetry.
 There are     3 symmetry adapted basis functions of AU  symmetry.
 There are    14 symmetry adapted basis functions of B1U symmetry.
 There are     7 symmetry adapted basis functions of B2U symmetry.
 There are     7 symmetry adapted basis functions of B3U symmetry.
    62 basis functions,   102 primitive gaussians,    72 cartesian basis functions
     9 alpha electrons        7 beta electrons
       nuclear repulsion energy        28.6203501263 Hartrees.
 NAtoms=    2 NActive=    2 NUniq=    1 SFac= 4.00D+00 NAtFMM=   60 NAOKFM=F Big=F
 Integral buffers will be    131072 words long.
 Raffenetti 2 integral format.
 Two-electron integral symmetry is turned on.
 One-electron integrals computed using PRISM.
   8 Symmetry operations used in ECPInt.
 ECPInt:  NShTT=     253 NPrTT=     864 LenC2=     253 LenP2D=     795.
 LDataN:  DoStor=T MaxTD1= 6 Len=  172
 NBasis=    62 RedAO= T EigKep=  2.10D-03  NBF=    14     3     7     7     3    14     7     7
 NBsUse=    62 1.00D-06 EigRej= -1.00D+00 NBFU=    14     3     7     7     3    14     7     7
 Initial guess from the checkpoint file:  "/state/partition1/Gau-4549.chk"
 B after Tr=     0.000000    0.000000    0.000000
         Rot=    1.000000    0.000000    0.000000    0.000000 Ang=   0.00 deg.
 Initial guess orbital symmetries:
 Alpha Orbitals:
       Occupied  (SGG) (SGU) (SGG) (SGU) (PIU) (PIU) (SGG) (PIG)
                 (PIG)
       Virtual   (SGG) (SGG) (SGG) (DLTG) (SGG) (DLTG) (SGG) (SGG)
                 (DLTG) (SGG) (SGG) (DLTG) (DLTG) (DLTG) (PIG)
                 (PIG) (PHIG) (PIG) (PIG) (PIG) (PIG) (PIG) (PHIG)
                 (PIG) (PIG) (PIG) (DLTU) (DLTU) (DLTU) (SGU) (SGU)
                 (SGU) (DLTU) (SGU) (DLTU) (SGU) (SGU) (DLTU) (SGU)
                 (SGU) (SGU) (PIU) (PIU) (PIU) (PHIU) (PIU) (PIU)
                 (PIU) (PIU) (PIU) (PHIU) (PIU) (PIU)
 Beta  Orbitals:
       Occupied  (SGG) (SGU) (SGG) (SGU) (SGG) (PIU) (PIU)
       Virtual   (SGG) (SGG) (SGG) (DLTG) (SGG) (DLTG) (SGG) (SGG)
                 (DLTG) (SGG) (SGG) (DLTG) (DLTG) (DLTG) (PIG)
                 (PIG) (PHIG) (PIG) (PIG) (PIG) (PIG) (PIG) (PIG)
                 (PHIG) (PIG) (PIG) (PIG) (PIG) (DLTU) (DLTU) (DLTU)
                 (SGU) (SGU) (SGU) (DLTU) (SGU) (DLTU) (SGU) (SGU)
                 (DLTU) (SGU) (SGU) (SGU) (PIU) (PIU) (PIU) (PHIU)
                 (PIU) (PIU) (PIU) (PIU) (PIU) (PHIU) (PIU) (PIU)
 Initial guess <Sx>= 0.0000 <Sy>= 0.0000 <Sz>= 1.0000 <S**2>= 2.0115 S= 1.0038
 ExpMin= 1.75D-01 ExpMax= 2.70D+04 ExpMxC= 9.22D+02 IAcc=1 IRadAn=         1 AccDes= 0.00D+00
 Harris functional with IExCor= 1009 and IRadAn=       1 diagonalized for initial guess.
 HarFok:  IExCor= 1009 AccDes= 0.00D+00 IRadAn=         1 IDoV= 1 UseB2=F ITyADJ=14
 ICtDFT=  3500011 ScaDFX=  1.000000  1.000000  1.000000  1.000000
 FoFCou: FMM=F IPFlag=           0 FMFlag=      100000 FMFlg1=           0
         NFxFlg=           0 DoJE=T BraDBF=F KetDBF=T FulRan=T
         wScrn=  0.000000 ICntrl=     500 IOpCl=  0 I1Cent=   200000004 NGrid=           0
         NMat0=    1 NMatS0=      1 NMatT0=    0 NMatD0=    1 NMtDS0=    0 NMtDT0=    0
 Petite list used in FoFCou.
 Keep R1 and R2 ints in memory in symmetry-blocked form, NReq=3909808.
 Requested convergence on RMS density matrix=1.00D-08 within 128 cycles.
 Requested convergence on MAX density matrix=1.00D-06.
 Requested convergence on             energy=1.00D-06.
 No special actions if energy rises.
 Integral accuracy reduced to 1.0D-05 until final iterations.
 Initial convergence to 1.0D-05 achieved.  Increase integral accuracy.
 SCF Done:  E(UM062X) =  -150.327149173     A.U. after   10 cycles
            NFock= 10  Conv=0.40D-08     -V/T= 2.0032
 <Sx>= 0.0000 <Sy>= 0.0000 <Sz>= 1.0000 <S**2>= 2.0119 S= 1.0040
 <L.S>= 0.000000000000E+00
 Annihilation of the first spin contaminant:
 S**2 before annihilation     2.0119,   after     2.0001
   8 Symmetry operations used in ECPInt.
 ECPInt:  NShTT=     253 NPrTT=     864 LenC2=     253 LenP2D=     795.
 LDataN:  DoStor=T MaxTD1= 7 Len=  274
 Calling FoFJK, ICntrl=      2127 FMM=F ISym2X=1 I1Cent= 0 IOpClX= 1 NMat=1 NMatS=1 NMatT=0.
 ***** Axes restored to original set *****
 -------------------------------------------------------------------
 Center     Atomic                   Forces (Hartrees/Bohr)
 Number     Number              X              Y              Z
 -------------------------------------------------------------------
      1        8           0.008830239    0.000000000    0.000000000
      2        8          -0.008830239    0.000000000    0.000000000
 -------------------------------------------------------------------
 Cartesian Forces:  Max     0.008830239 RMS     0.005098141

 GradGradGradGradGradGradGradGradGradGradGradGradGradGradGradGradGradGrad
 Berny optimization.
 Using GEDIIS/GDIIS optimizer.
 Internal  Forces:  Max     0.008830239 RMS     0.008830239
 Search for a local minimum.
 Step number   2 out of a maximum of   20
 All quantities printed in internal units (Hartrees-Bohrs-Radians)
 Mixed Optimization -- RFO/linear search
 Update second derivatives using D2CorX and points    1    2
 DE= -1.23D-03 DEPred=-1.07D-03 R= 1.15D+00
 TightC=F SS=  1.41D+00  RLast= 4.11D-02 DXNew= 5.0454D-01 1.2320D-01
 Trust test= 1.15D+00 RLast= 4.11D-02 DXMaxT set to 3.00D-01
 The second derivative matrix:
                          R1
           R1           1.05463
 ITU=  1  0
 Use linear search instead of GDIIS.
     Eigenvalues ---    1.05463
 RFO step:  Lambda= 0.00000000D+00 EMin= 1.05463466D+00
 Quartic linear search produced a step of  0.22320.
 Iteration  1 RMS(Cart)=  0.00648119 RMS(Int)=  0.00000000
 Iteration  2 RMS(Cart)=  0.00000000 RMS(Int)=  0.00000000
 ClnCor:  largest displacement from symmetrization is 2.81D-19 for atom     1.
 Variable       Old X    -DE/DX   Delta X   Delta X   Delta X     New X
                                 (Linear)    (Quad)   (Total)
    R1        2.23617   0.00883   0.00917   0.00000   0.00917   2.24534
         Item               Value     Threshold  Converged?
 Maximum Force            0.008830     0.000450     NO 
 RMS     Force            0.008830     0.000300     NO 
 Maximum Displacement     0.004583     0.001800     NO 
 RMS     Displacement     0.006481     0.001200     NO 
 Predicted change in Energy=-3.663528D-05
 GradGradGradGradGradGradGradGradGradGradGradGradGradGradGradGradGradGrad

                          Input orientation:                          
 ---------------------------------------------------------------------
 Center     Atomic      Atomic             Coordinates (Angstroms)
 Number     Number       Type             X           Y           Z
 ---------------------------------------------------------------------
      1          8           0       -2.663793   -0.395833    0.000000
      2          8           0       -3.851974   -0.395833    0.000000
 ---------------------------------------------------------------------
 Stoichiometry    O2(3)
 Framework group  D*H[C*(O.O)]
 Deg. of freedom     1
 Full point group                 D*H     NOp   8
 Largest Abelian subgroup         D2H     NOp   8
 Largest concise Abelian subgroup C2      NOp   2
                         Standard orientation:                         
 ---------------------------------------------------------------------
 Center     Atomic      Atomic             Coordinates (Angstroms)
 Number     Number       Type             X           Y           Z
 ---------------------------------------------------------------------
      1          8           0        0.000000    0.000000    0.594091
      2          8           0        0.000000    0.000000   -0.594091
 ---------------------------------------------------------------------
 Rotational constants (GHZ):      0.0000000     44.7610202     44.7610202
 Standard basis: def2TZVP (5D, 7F)
 There are    17 symmetry adapted cartesian basis functions of AG  symmetry.
 There are     3 symmetry adapted cartesian basis functions of B1G symmetry.
 There are     8 symmetry adapted cartesian basis functions of B2G symmetry.
 There are     8 symmetry adapted cartesian basis functions of B3G symmetry.
 There are     3 symmetry adapted cartesian basis functions of AU  symmetry.
 There are    17 symmetry adapted cartesian basis functions of B1U symmetry.
 There are     8 symmetry adapted cartesian basis functions of B2U symmetry.
 There are     8 symmetry adapted cartesian basis functions of B3U symmetry.
 There are    14 symmetry adapted basis functions of AG  symmetry.
 There are     3 symmetry adapted basis functions of B1G symmetry.
 There are     7 symmetry adapted basis functions of B2G symmetry.
 There are     7 symmetry adapted basis functions of B3G symmetry.
 There are     3 symmetry adapted basis functions of AU  symmetry.
 There are    14 symmetry adapted basis functions of B1U symmetry.
 There are     7 symmetry adapted basis functions of B2U symmetry.
 There are     7 symmetry adapted basis functions of B3U symmetry.
    62 basis functions,   102 primitive gaussians,    72 cartesian basis functions
     9 alpha electrons        7 beta electrons
       nuclear repulsion energy        28.5035176826 Hartrees.
 NAtoms=    2 NActive=    2 NUniq=    1 SFac= 4.00D+00 NAtFMM=   60 NAOKFM=F Big=F
 Integral buffers will be    131072 words long.
 Raffenetti 2 integral format.
 Two-electron integral symmetry is turned on.
 One-electron integrals computed using PRISM.
   8 Symmetry operations used in ECPInt.
 ECPInt:  NShTT=     253 NPrTT=     864 LenC2=     253 LenP2D=     795.
 LDataN:  DoStor=T MaxTD1= 6 Len=  172
 NBasis=    62 RedAO= T EigKep=  2.21D-03  NBF=    14     3     7     7     3    14     7     7
 NBsUse=    62 1.00D-06 EigRej= -1.00D+00 NBFU=    14     3     7     7     3    14     7     7
 Initial guess from the checkpoint file:  "/state/partition1/Gau-4549.chk"
 B after Tr=     0.000000    0.000000    0.000000
         Rot=    1.000000    0.000000    0.000000    0.000000 Ang=   0.00 deg.
 Initial guess orbital symmetries:
 Alpha Orbitals:
       Occupied  (SGG) (SGU) (SGG) (SGU) (PIU) (PIU) (SGG) (PIG)
                 (PIG)
       Virtual   (SGG) (SGG) (SGG) (DLTG) (SGG) (DLTG) (SGG) (SGG)
                 (DLTG) (SGG) (SGG) (DLTG) (DLTG) (DLTG) (PIG)
                 (PIG) (PHIG) (PIG) (PIG) (PIG) (PIG) (PIG) (PHIG)
                 (PIG) (PIG) (PIG) (DLTU) (DLTU) (DLTU) (SGU) (SGU)
                 (SGU) (DLTU) (SGU) (DLTU) (SGU) (SGU) (DLTU) (SGU)
                 (SGU) (SGU) (PIU) (PIU) (PIU) (PHIU) (PIU) (PIU)
                 (PIU) (PIU) (PIU) (PHIU) (PIU) (PIU)
 Beta  Orbitals:
       Occupied  (SGG) (SGU) (SGG) (SGU) (SGG) (PIU) (PIU)
       Virtual   (SGG) (SGG) (SGG) (DLTG) (SGG) (DLTG) (SGG) (SGG)
                 (DLTG) (SGG) (SGG) (DLTG) (DLTG) (DLTG) (PIG)
                 (PIG) (PHIG) (PIG) (PIG) (PIG) (PIG) (PIG) (PIG)
                 (PHIG) (PIG) (PIG) (PIG) (PIG) (DLTU) (DLTU) (DLTU)
                 (SGU) (SGU) (SGU) (DLTU) (SGU) (DLTU) (SGU) (SGU)
                 (DLTU) (SGU) (SGU) (SGU) (PIU) (PIU) (PIU) (PHIU)
                 (PIU) (PIU) (PIU) (PIU) (PIU) (PHIU) (PIU) (PIU)
 Initial guess <Sx>= 0.0000 <Sy>= 0.0000 <Sz>= 1.0000 <S**2>= 2.0120 S= 1.0040
 Keep R1 and R2 ints in memory in symmetry-blocked form, NReq=3909794.
 Requested convergence on RMS density matrix=1.00D-08 within 128 cycles.
 Requested convergence on MAX density matrix=1.00D-06.
 Requested convergence on             energy=1.00D-06.
 No special actions if energy rises.
 SCF Done:  E(UM062X) =  -150.327189402     A.U. after    7 cycles
            NFock=  7  Conv=0.47D-08     -V/T= 2.0033
 <Sx>= 0.0000 <Sy>= 0.0000 <Sz>= 1.0000 <S**2>= 2.0121 S= 1.0040
 <L.S>= 0.000000000000E+00
 Annihilation of the first spin contaminant:
 S**2 before annihilation     2.0121,   after     2.0001
   8 Symmetry operations used in ECPInt.
 ECPInt:  NShTT=     253 NPrTT=     864 LenC2=     253 LenP2D=     795.
 LDataN:  DoStor=T MaxTD1= 7 Len=  274
 Calling FoFJK, ICntrl=      2127 FMM=F ISym2X=1 I1Cent= 0 IOpClX= 1 NMat=1 NMatS=1 NMatT=0.
 ***** Axes restored to original set *****
 -------------------------------------------------------------------
 Center     Atomic                   Forces (Hartrees/Bohr)
 Number     Number              X              Y              Z
 -------------------------------------------------------------------
      1        8          -0.000003160    0.000000000    0.000000000
      2        8           0.000003160    0.000000000    0.000000000
 -------------------------------------------------------------------
 Cartesian Forces:  Max     0.000003160 RMS     0.000001824

 GradGradGradGradGradGradGradGradGradGradGradGradGradGradGradGradGradGrad
 Berny optimization.
 Using GEDIIS/GDIIS optimizer.
 Internal  Forces:  Max     0.000003160 RMS     0.000003160
 Search for a local minimum.
 Step number   3 out of a maximum of   20
 All quantities printed in internal units (Hartrees-Bohrs-Radians)
 Mixed Optimization -- En-DIIS/RFO-DIIS
 Update second derivatives using D2CorX and points    2    3
 DE= -4.02D-05 DEPred=-3.66D-05 R= 1.10D+00
 TightC=F SS=  1.41D+00  RLast= 9.17D-03 DXNew= 5.0454D-01 2.7497D-02
 Trust test= 1.10D+00 RLast= 9.17D-03 DXMaxT set to 3.00D-01
 The second derivative matrix:
                          R1
           R1           0.96374
 ITU=  1  1
 Use linear search instead of GDIIS.
     Eigenvalues ---    0.96374
 RFO step:  Lambda= 0.00000000D+00 EMin= 9.63735315D-01
 Quartic linear search produced a step of -0.00036.
 Iteration  1 RMS(Cart)=  0.00000236 RMS(Int)=  0.00000000
 Iteration  2 RMS(Cart)=  0.00000000 RMS(Int)=  0.00000000
 ClnCor:  largest displacement from symmetrization is 1.02D-22 for atom     1.
 Variable       Old X    -DE/DX   Delta X   Delta X   Delta X     New X
                                 (Linear)    (Quad)   (Total)
    R1        2.24534   0.00000   0.00000   0.00000   0.00000   2.24533
         Item               Value     Threshold  Converged?
 Maximum Force            0.000003     0.000450     YES
 RMS     Force            0.000003     0.000300     YES
 Maximum Displacement     0.000002     0.001800     YES
 RMS     Displacement     0.000002     0.001200     YES
 Predicted change in Energy=-5.178028D-12
 Optimization completed.
    -- Stationary point found.
                           ----------------------------
                           !   Optimized Parameters   !
                           ! (Angstroms and Degrees)  !
 --------------------------                            --------------------------
 ! Name  Definition              Value          Derivative Info.                !
 --------------------------------------------------------------------------------
 ! R1    R(1,2)                  1.1882         -DE/DX =    0.0                 !
 --------------------------------------------------------------------------------
 GradGradGradGradGradGradGradGradGradGradGradGradGradGradGradGradGradGrad

                          Input orientation:                          
 ---------------------------------------------------------------------
 Center     Atomic      Atomic             Coordinates (Angstroms)
 Number     Number       Type             X           Y           Z
 ---------------------------------------------------------------------
      1          8           0       -2.663793   -0.395833    0.000000
      2          8           0       -3.851974   -0.395833    0.000000
 ---------------------------------------------------------------------
 Stoichiometry    O2(3)
 Framework group  D*H[C*(O.O)]
 Deg. of freedom     1
 Full point group                 D*H     NOp   8
 Largest Abelian subgroup         D2H     NOp   8
 Largest concise Abelian subgroup C2      NOp   2
                         Standard orientation:                         
 ---------------------------------------------------------------------
 Center     Atomic      Atomic             Coordinates (Angstroms)
 Number     Number       Type             X           Y           Z
 ---------------------------------------------------------------------
      1          8           0        0.000000    0.000000    0.594091
      2          8           0        0.000000    0.000000   -0.594091
 ---------------------------------------------------------------------
 Rotational constants (GHZ):      0.0000000     44.7610202     44.7610202

 **********************************************************************

            Population analysis using the SCF density.

 **********************************************************************

 Orbital symmetries:
 Alpha Orbitals:
       Occupied  (SGG) (SGU) (SGG) (SGU) (PIU) (PIU) (SGG) (PIG)
                 (PIG)
       Virtual   (SGU) (SGG) (PIU) (PIU) (SGG) (SGU) (PIG) (PIG)
                 (SGU) (DLTG) (DLTG) (PIU) (PIU) (DLTU) (DLTU)
                 (SGG) (PIG) (PIG) (SGU) (PIU) (PIU) (SGG) (SGU)
                 (PIG) (PIG) (SGG) (SGU) (DLTG) (DLTG) (PIU) (PIU)
                 (PHIU) (PHIU) (SGG) (PHIG) (PHIG) (DLTU) (DLTU)
                 (DLTG) (DLTG) (DLTU) (DLTU) (PIG) (PIG) (SGU)
                 (PIU) (PIU) (PIG) (PIG) (SGG) (SGU) (SGG) (SGU)
 Beta  Orbitals:
       Occupied  (SGG) (SGU) (SGG) (SGU) (SGG) (PIU) (PIU)
       Virtual   (PIG) (PIG) (SGU) (SGG) (PIU) (PIU) (SGG) (SGU)
                 (PIG) (PIG) (SGU) (DLTG) (DLTG) (PIU) (PIU) (DLTU)
                 (DLTU) (SGG) (SGU) (PIG) (PIG) (PIU) (PIU) (SGG)
                 (SGU) (PIG) (PIG) (SGG) (SGU) (DLTG) (DLTG) (PIU)
                 (PIU) (PHIU) (PHIU) (SGG) (PHIG) (PHIG) (DLTU)
                 (DLTU) (DLTG) (DLTG) (PIG) (PIG) (DLTU) (DLTU)
                 (SGU) (PIU) (PIU) (PIG) (PIG) (SGG) (SGU) (SGG)
                 (SGU)
 The electronic state is 3-SGG.
 Alpha  occ. eigenvalues --  -19.78767 -19.78727  -1.46322  -0.96049  -0.67809
 Alpha  occ. eigenvalues --   -0.67809  -0.64784  -0.39555  -0.39555
 Alpha virt. eigenvalues --    0.24766   0.37068   0.41493   0.41493   0.47377
 Alpha virt. eigenvalues --    0.49862   0.53263   0.53263   0.78558   1.26102
 Alpha virt. eigenvalues --    1.26110   1.35427   1.35427   1.67040   1.67057
 Alpha virt. eigenvalues --    1.88519   2.15455   2.15455   2.17051   2.44747
 Alpha virt. eigenvalues --    2.44747   2.55087   2.78287   2.79892   2.79892
 Alpha virt. eigenvalues --    2.95065   4.26478   4.58251   4.58285   4.65177
 Alpha virt. eigenvalues --    4.65177   4.91893   4.91893   5.04334   5.17911
 Alpha virt. eigenvalues --    5.17911   5.73640   5.73653   6.02850   6.02883
 Alpha virt. eigenvalues --    6.24060   6.24071   6.30139   6.30139   6.34753
 Alpha virt. eigenvalues --    6.42305   6.42305   7.23298   7.23298   7.44092
 Alpha virt. eigenvalues --    8.58297  43.14089  43.64779
  Beta  occ. eigenvalues --  -19.76322 -19.76246  -1.39192  -0.85287  -0.59490
  Beta  occ. eigenvalues --   -0.54402  -0.54402
  Beta virt. eigenvalues --   -0.04845  -0.04845   0.26423   0.36983   0.43165
  Beta virt. eigenvalues --    0.43165   0.46343   0.52615   0.54970   0.54970
  Beta virt. eigenvalues --    0.79072   1.28476   1.28480   1.39027   1.39027
  Beta virt. eigenvalues --    1.71648   1.71653   1.89395   2.18031   2.18165
  Beta virt. eigenvalues --    2.18165   2.51952   2.51952   2.58597   2.81255
  Beta virt. eigenvalues --    2.85927   2.85927   2.97940   4.27916   4.60492
  Beta virt. eigenvalues --    4.60498   4.64978   4.64978   4.94514   4.94514
  Beta virt. eigenvalues --    5.05524   5.20874   5.20874   5.75786   5.75795
  Beta virt. eigenvalues --    6.13777   6.13783   6.34659   6.34659   6.34849
  Beta virt. eigenvalues --    6.34849   6.39195   6.46107   6.46107   7.22999
  Beta virt. eigenvalues --    7.22999   7.46636   8.57290  43.14213  43.64989
          Condensed to atoms (all electrons):
               1          2
     1  O    7.892436   0.107564
     2  O    0.107564   7.892436
          Atomic-Atomic Spin Densities.
               1          2
     1  O    1.430769  -0.430769
     2  O   -0.430769   1.430769
 Mulliken charges and spin densities:
               1          2
     1  O    0.000000   1.000000
     2  O    0.000000   1.000000
 Sum of Mulliken charges =   0.00000   2.00000
 Mulliken charges and spin densities with hydrogens summed into heavy atoms:
               1          2
     1  O    0.000000   1.000000
     2  O    0.000000   1.000000
 Electronic spatial extent (au):  <R**2>=             42.8257
 Charge=              0.0000 electrons
 Dipole moment (field-independent basis, Debye):
    X=              0.0000    Y=              0.0000    Z=              0.0000  Tot=              0.0000
 Quadrupole moment (field-independent basis, Debye-Ang):
   XX=             -9.9788   YY=             -9.9788   ZZ=            -10.5204
   XY=              0.0000   XZ=              0.0000   YZ=              0.0000
 Traceless Quadrupole moment (field-independent basis, Debye-Ang):
   XX=              0.1805   YY=              0.1805   ZZ=             -0.3611
   XY=              0.0000   XZ=              0.0000   YZ=              0.0000
 Octapole moment (field-independent basis, Debye-Ang**2):
  XXX=              0.0000  YYY=              0.0000  ZZZ=              0.0000  XYY=              0.0000
  XXY=              0.0000  XXZ=              0.0000  XZZ=              0.0000  YZZ=              0.0000
  YYZ=              0.0000  XYZ=              0.0000
 Hexadecapole moment (field-independent basis, Debye-Ang**3):
 XXXX=             -7.1265 YYYY=             -7.1265 ZZZZ=            -28.1642 XXXY=              0.0000
 XXXZ=              0.0000 YYYX=              0.0000 YYYZ=              0.0000 ZZZX=              0.0000
 ZZZY=              0.0000 XXYY=             -2.3755 XXZZ=             -6.1225 YYZZ=             -6.1225
 XXYZ=              0.0000 YYXZ=              0.0000 ZZXY=              0.0000
 N-N= 2.850351768256D+01 E-N=-4.124857406442D+02  KE= 1.498317108460D+02
 Symmetry AG   KE= 6.961772667077D+01
 Symmetry B1G  KE= 5.030174946931D-34
 Symmetry B2G  KE= 3.070363790025D+00
 Symmetry B3G  KE= 3.070363790026D+00
 Symmetry AU   KE= 1.743023671990D-33
 Symmetry B1U  KE= 6.504328424630D+01
 Symmetry B2U  KE= 4.514986174461D+00
 Symmetry B3U  KE= 4.514986174461D+00
                          Isotropic Fermi Contact Couplings
        Atom                 a.u.       MegaHertz       Gauss      10(-4) cm-1
     1  O(17)              0.15462     -46.86394     -16.72222     -15.63213
     2  O(17)              0.15462     -46.86394     -16.72222     -15.63213
 --------------------------------------------------------
       Center         ----  Spin Dipole Couplings  ----
                      3XX-RR        3YY-RR        3ZZ-RR
 --------------------------------------------------------
     1   Atom        1.281594      1.281594     -2.563188
     2   Atom        1.281594      1.281594     -2.563188
 --------------------------------------------------------
                        XY            XZ            YZ
 --------------------------------------------------------
     1   Atom        0.000000      0.000000      0.000000
     2   Atom        0.000000      0.000000      0.000000
 --------------------------------------------------------


 ---------------------------------------------------------------------------------
              Anisotropic Spin Dipole Couplings in Principal Axis System
 ---------------------------------------------------------------------------------

       Atom             a.u.   MegaHertz   Gauss  10(-4) cm-1        Axes

              Baa    -2.5632   185.470    66.180    61.866  0.0000  0.0000  1.0000
     1 O(17)  Bbb     1.2816   -92.735   -33.090   -30.933  0.9993 -0.0384  0.0000
              Bcc     1.2816   -92.735   -33.090   -30.933  0.0384  0.9993  0.0000
 
              Baa    -2.5632   185.470    66.180    61.866  0.0000  0.0000  1.0000
     2 O(17)  Bbb     1.2816   -92.735   -33.090   -30.933  0.9993 -0.0384  0.0000
              Bcc     1.2816   -92.735   -33.090   -30.933  0.0384  0.9993  0.0000
 

 ---------------------------------------------------------------------------------

 1\1\GINC-COMPUTE-0-1\FOpt\UM062X\def2TZVP\O2(3)\HETANJIN\08-Aug-2015\0
 \\# m062x/def2tzvp opt freq\\Title Card Required\\0,3\O,-2.6637928538,
 -0.39583333,0.\O,-3.8519739662,-0.39583333,0.\\Version=ES64L-G09RevD.0
 1\State=3-SGG\HF=-150.3271894\S2=2.01206\S2-1=0.\S2A=2.000071\RMSD=4.6
 78e-09\RMSF=1.824e-06\Dipole=0.,0.,0.\Quadrupole=-0.268464,0.134232,0.
 134232,0.,0.,0.\PG=D*H [C*(O1.O1)]\\@


 There ain't no surer way to find out whether you
 like people or hate them than to travel with them.
                                     -- Mark Twain
 Job cpu time:       0 days  0 hours  0 minutes 10.0 seconds.
 File lengths (MBytes):  RWF=      6 Int=      0 D2E=      0 Chk=      1 Scr=      1
 Normal termination of Gaussian 09 at Sat Aug  8 16:37:41 2015.
 Link1:  Proceeding to internal job step number  2.
 --------------------------------------------------------------------
 #N Geom=AllCheck Guess=TCheck SCRF=Check GenChk UM062X/def2TZVP Freq
 --------------------------------------------------------------------
 1/10=4,29=7,30=1,38=1,40=1/1,3;
 2/12=2,40=1/2;
 3/5=44,7=101,11=2,14=-4,16=1,25=1,30=1,70=2,71=2,74=-55,116=2,140=1/1,2,3;
 4/5=101/1;
 5/5=2,98=1/2;
 8/6=4,10=90,11=11/1;
 11/6=1,8=1,9=11,15=111,16=1/1,2,10;
 10/6=1/2;
 6/7=2,8=2,9=2,10=2,18=1,28=1/1;
 7/8=1,10=1,25=1/1,2,3,16;
 1/10=4,30=1/3;
 99//99;
 Structure from the checkpoint file:  "/state/partition1/Gau-4549.chk"
 -------------------
 Title Card Required
 -------------------
 Charge =  0 Multiplicity = 3
 Redundant internal coordinates found in file.
 O,0,-2.6637928538,-0.39583333,0.
 O,0,-3.8519739662,-0.39583333,0.
 Recover connectivity data from disk.

 GradGradGradGradGradGradGradGradGradGradGradGradGradGradGradGradGradGrad
 Berny optimization.
 Initialization pass.
                           ----------------------------
                           !    Initial Parameters    !
                           ! (Angstroms and Degrees)  !
 --------------------------                            --------------------------
 ! Name  Definition              Value          Derivative Info.                !
 --------------------------------------------------------------------------------
 ! R1    R(1,2)                  1.1882         calculate D2E/DX2 analytically  !
 --------------------------------------------------------------------------------
 Trust Radius=3.00D-01 FncErr=1.00D-07 GrdErr=1.00D-07
 Number of steps in this run=      2 maximum allowed number of steps=      2.
 GradGradGradGradGradGradGradGradGradGradGradGradGradGradGradGradGradGrad

                          Input orientation:                          
 ---------------------------------------------------------------------
 Center     Atomic      Atomic             Coordinates (Angstroms)
 Number     Number       Type             X           Y           Z
 ---------------------------------------------------------------------
      1          8           0       -2.663793   -0.395833    0.000000
      2          8           0       -3.851974   -0.395833    0.000000
 ---------------------------------------------------------------------
 Stoichiometry    O2(3)
 Framework group  D*H[C*(O.O)]
 Deg. of freedom     1
 Full point group                 D*H     NOp   8
 Largest Abelian subgroup         D2H     NOp   8
 Largest concise Abelian subgroup C2      NOp   2
                         Standard orientation:                         
 ---------------------------------------------------------------------
 Center     Atomic      Atomic             Coordinates (Angstroms)
 Number     Number       Type             X           Y           Z
 ---------------------------------------------------------------------
      1          8           0        0.000000    0.000000    0.594091
      2          8           0        0.000000    0.000000   -0.594091
 ---------------------------------------------------------------------
 Rotational constants (GHZ):      0.0000000     44.7610202     44.7610202
 Standard basis: def2TZVP (5D, 7F)
 There are    17 symmetry adapted cartesian basis functions of AG  symmetry.
 There are     3 symmetry adapted cartesian basis functions of B1G symmetry.
 There are     8 symmetry adapted cartesian basis functions of B2G symmetry.
 There are     8 symmetry adapted cartesian basis functions of B3G symmetry.
 There are     3 symmetry adapted cartesian basis functions of AU  symmetry.
 There are    17 symmetry adapted cartesian basis functions of B1U symmetry.
 There are     8 symmetry adapted cartesian basis functions of B2U symmetry.
 There are     8 symmetry adapted cartesian basis functions of B3U symmetry.
 There are    14 symmetry adapted basis functions of AG  symmetry.
 There are     3 symmetry adapted basis functions of B1G symmetry.
 There are     7 symmetry adapted basis functions of B2G symmetry.
 There are     7 symmetry adapted basis functions of B3G symmetry.
 There are     3 symmetry adapted basis functions of AU  symmetry.
 There are    14 symmetry adapted basis functions of B1U symmetry.
 There are     7 symmetry adapted basis functions of B2U symmetry.
 There are     7 symmetry adapted basis functions of B3U symmetry.
    62 basis functions,   102 primitive gaussians,    72 cartesian basis functions
     9 alpha electrons        7 beta electrons
       nuclear repulsion energy        28.5035176826 Hartrees.
 NAtoms=    2 NActive=    2 NUniq=    1 SFac= 4.00D+00 NAtFMM=   60 NAOKFM=F Big=F
 Integral buffers will be    131072 words long.
 Raffenetti 2 integral format.
 Two-electron integral symmetry is turned on.
 One-electron integrals computed using PRISM.
   8 Symmetry operations used in ECPInt.
 ECPInt:  NShTT=     253 NPrTT=     864 LenC2=     253 LenP2D=     795.
 LDataN:  DoStor=T MaxTD1= 6 Len=  172
 NBasis=    62 RedAO= T EigKep=  2.21D-03  NBF=    14     3     7     7     3    14     7     7
 NBsUse=    62 1.00D-06 EigRej= -1.00D+00 NBFU=    14     3     7     7     3    14     7     7
 Initial guess from the checkpoint file:  "/state/partition1/Gau-4549.chk"
 B after Tr=     0.000000    0.000000    0.000000
         Rot=    1.000000    0.000000    0.000000    0.000000 Ang=   0.00 deg.
 Initial guess orbital symmetries:
 Alpha Orbitals:
       Occupied  (SGG) (SGU) (SGG) (SGU) (PIU) (PIU) (SGG) (PIG)
                 (PIG)
       Virtual   (SGU) (SGG) (PIU) (PIU) (SGG) (SGU) (PIG) (PIG)
                 (SGU) (DLTG) (DLTG) (PIU) (PIU) (DLTU) (DLTU)
                 (SGG) (PIG) (PIG) (SGU) (PIU) (PIU) (SGG) (SGU)
                 (PIG) (PIG) (SGG) (SGU) (DLTG) (DLTG) (PIU) (PIU)
                 (PHIU) (PHIU) (SGG) (PHIG) (PHIG) (DLTU) (DLTU)
                 (DLTG) (DLTG) (DLTU) (DLTU) (PIG) (PIG) (SGU)
                 (PIU) (PIU) (PIG) (PIG) (SGG) (SGU) (SGG) (SGU)
 Beta  Orbitals:
       Occupied  (SGG) (SGU) (SGG) (SGU) (SGG) (PIU) (PIU)
       Virtual   (PIG) (PIG) (SGU) (SGG) (PIU) (PIU) (SGG) (SGU)
                 (PIG) (PIG) (SGU) (DLTG) (DLTG) (PIU) (PIU) (DLTU)
                 (DLTU) (SGG) (SGU) (PIG) (PIG) (PIU) (PIU) (SGG)
                 (SGU) (PIG) (PIG) (SGG) (SGU) (DLTG) (DLTG) (PIU)
                 (PIU) (PHIU) (PHIU) (SGG) (PHIG) (PHIG) (DLTU)
                 (DLTU) (DLTG) (DLTG) (PIG) (PIG) (DLTU) (DLTU)
                 (SGU) (PIU) (PIU) (PIG) (PIG) (SGG) (SGU) (SGG)
                 (SGU)
 Initial guess <Sx>= 0.0000 <Sy>= 0.0000 <Sz>= 1.0000 <S**2>= 2.0121 S= 1.0040
 Keep R1 and R2 ints in memory in symmetry-blocked form, NReq=3909794.
 Requested convergence on RMS density matrix=1.00D-08 within 128 cycles.
 Requested convergence on MAX density matrix=1.00D-06.
 Requested convergence on             energy=1.00D-06.
 No special actions if energy rises.
 SCF Done:  E(UM062X) =  -150.327189402     A.U. after    1 cycles
            NFock=  1  Conv=0.36D-09     -V/T= 2.0033
 <Sx>= 0.0000 <Sy>= 0.0000 <Sz>= 1.0000 <S**2>= 2.0121 S= 1.0040
 <L.S>= 0.000000000000E+00
 Annihilation of the first spin contaminant:
 S**2 before annihilation     2.0121,   after     2.0001
 DoSCS=F DFT=T ScalE2(SS,OS)=  1.000000  1.000000
 Range of M.O.s used for correlation:     1    62
 NBasis=    62 NAE=     9 NBE=     7 NFC=     0 NFV=     0
 NROrb=     62 NOA=     9 NOB=     7 NVA=    53 NVB=    55
   8 Symmetry operations used in ECPInt.
 ECPInt:  NShTT=     253 NPrTT=     864 LenC2=     253 LenP2D=     795.
 LDataN:  DoStor=T MaxTD1= 7 Len=  274
 Symmetrizing basis deriv contribution to polar:
 IMax=3 JMax=2 DiffMx= 0.00D+00
 G2DrvN: will do     3 centers at a time, making    1 passes.
 Calling FoFCou, ICntrl=  3107 FMM=F I1Cent=   0 AccDes= 0.00D+00.
 End of G2Drv F.D. properties file   721 does not exist.
 End of G2Drv F.D. properties file   722 does not exist.
 End of G2Drv F.D. properties file   788 does not exist.
          IDoAtm=11
          Differentiating once with respect to electric field.
                with respect to dipole field.
          Differentiating once with respect to nuclear coordinates.
 Keep R1 and R2 ints in memory in symmetry-blocked form, NReq=3884251.
          There are     6 degrees of freedom in the 1st order CPHF.  IDoFFX=4 NUNeed=     6.
      6 vectors produced by pass  0 Test12= 1.44D-14 1.67D-08 XBig12= 1.42D+01 2.29D+00.
 AX will form     6 AO Fock derivatives at one time.
      6 vectors produced by pass  1 Test12= 1.44D-14 1.67D-08 XBig12= 6.85D+00 1.00D+00.
      6 vectors produced by pass  2 Test12= 1.44D-14 1.67D-08 XBig12= 5.82D-01 2.64D-01.
      6 vectors produced by pass  3 Test12= 1.44D-14 1.67D-08 XBig12= 2.38D-02 6.33D-02.
      6 vectors produced by pass  4 Test12= 1.44D-14 1.67D-08 XBig12= 3.56D-04 9.73D-03.
      6 vectors produced by pass  5 Test12= 1.44D-14 1.67D-08 XBig12= 7.87D-06 1.12D-03.
      6 vectors produced by pass  6 Test12= 1.44D-14 1.67D-08 XBig12= 1.74D-07 1.70D-04.
      6 vectors produced by pass  7 Test12= 1.44D-14 1.67D-08 XBig12= 2.05D-09 1.39D-05.
      3 vectors produced by pass  8 Test12= 1.44D-14 1.67D-08 XBig12= 2.39D-11 2.60D-06.
      1 vectors produced by pass  9 Test12= 1.44D-14 1.67D-08 XBig12= 1.23D-13 9.69D-08.
 InvSVY:  IOpt=1 It=  1 EMax= 4.44D-16
 Solved reduced A of dimension    52 with     6 vectors.
 Isotropic polarizability for W=    0.000000        8.28 Bohr**3.
 End of Minotr F.D. properties file   721 does not exist.
 End of Minotr F.D. properties file   722 does not exist.
 End of Minotr F.D. properties file   788 does not exist.

 **********************************************************************

            Population analysis using the SCF density.

 **********************************************************************

 Orbital symmetries:
 Alpha Orbitals:
       Occupied  (SGG) (SGU) (SGG) (SGU) (PIU) (PIU) (SGG) (PIG)
                 (PIG)
       Virtual   (SGU) (SGG) (PIU) (PIU) (SGG) (SGU) (PIG) (PIG)
                 (SGU) (DLTG) (DLTG) (PIU) (PIU) (DLTU) (DLTU)
                 (SGG) (PIG) (PIG) (SGU) (PIU) (PIU) (SGG) (SGU)
                 (PIG) (PIG) (SGG) (SGU) (DLTG) (DLTG) (PIU) (PIU)
                 (PHIU) (PHIU) (SGG) (PHIG) (PHIG) (DLTU) (DLTU)
                 (DLTG) (DLTG) (DLTU) (DLTU) (PIG) (PIG) (SGU)
                 (PIU) (PIU) (PIG) (PIG) (SGG) (SGU) (SGG) (SGU)
 Beta  Orbitals:
       Occupied  (SGG) (SGU) (SGG) (SGU) (SGG) (PIU) (PIU)
       Virtual   (PIG) (PIG) (SGU) (SGG) (PIU) (PIU) (SGG) (SGU)
                 (PIG) (PIG) (SGU) (DLTG) (DLTG) (PIU) (PIU) (DLTU)
                 (DLTU) (SGG) (SGU) (PIG) (PIG) (PIU) (PIU) (SGG)
                 (SGU) (PIG) (PIG) (SGG) (SGU) (DLTG) (DLTG) (PIU)
                 (PIU) (PHIU) (PHIU) (SGG) (PHIG) (PHIG) (DLTU)
                 (DLTU) (DLTG) (DLTG) (PIG) (PIG) (DLTU) (DLTU)
                 (SGU) (PIU) (PIU) (PIG) (PIG) (SGG) (SGU) (SGG)
                 (SGU)
 The electronic state is 3-SGG.
 Alpha  occ. eigenvalues --  -19.78767 -19.78727  -1.46322  -0.96049  -0.67809
 Alpha  occ. eigenvalues --   -0.67809  -0.64784  -0.39555  -0.39555
 Alpha virt. eigenvalues --    0.24766   0.37068   0.41493   0.41493   0.47377
 Alpha virt. eigenvalues --    0.49862   0.53263   0.53263   0.78558   1.26102
 Alpha virt. eigenvalues --    1.26110   1.35427   1.35427   1.67040   1.67057
 Alpha virt. eigenvalues --    1.88519   2.15455   2.15455   2.17051   2.44747
 Alpha virt. eigenvalues --    2.44747   2.55087   2.78287   2.79892   2.79892
 Alpha virt. eigenvalues --    2.95065   4.26478   4.58251   4.58285   4.65177
 Alpha virt. eigenvalues --    4.65177   4.91893   4.91893   5.04334   5.17911
 Alpha virt. eigenvalues --    5.17911   5.73640   5.73653   6.02850   6.02883
 Alpha virt. eigenvalues --    6.24060   6.24071   6.30139   6.30139   6.34753
 Alpha virt. eigenvalues --    6.42305   6.42305   7.23298   7.23298   7.44092
 Alpha virt. eigenvalues --    8.58297  43.14089  43.64779
  Beta  occ. eigenvalues --  -19.76322 -19.76246  -1.39192  -0.85287  -0.59490
  Beta  occ. eigenvalues --   -0.54402  -0.54402
  Beta virt. eigenvalues --   -0.04845  -0.04845   0.26423   0.36983   0.43165
  Beta virt. eigenvalues --    0.43165   0.46343   0.52615   0.54970   0.54970
  Beta virt. eigenvalues --    0.79072   1.28476   1.28480   1.39027   1.39027
  Beta virt. eigenvalues --    1.71648   1.71653   1.89395   2.18031   2.18165
  Beta virt. eigenvalues --    2.18165   2.51952   2.51952   2.58597   2.81255
  Beta virt. eigenvalues --    2.85927   2.85927   2.97940   4.27916   4.60492
  Beta virt. eigenvalues --    4.60498   4.64978   4.64978   4.94514   4.94514
  Beta virt. eigenvalues --    5.05524   5.20874   5.20874   5.75786   5.75795
  Beta virt. eigenvalues --    6.13777   6.13783   6.34659   6.34659   6.34849
  Beta virt. eigenvalues --    6.34849   6.39195   6.46107   6.46107   7.22999
  Beta virt. eigenvalues --    7.22999   7.46636   8.57290  43.14213  43.64989
          Condensed to atoms (all electrons):
               1          2
     1  O    7.892436   0.107564
     2  O    0.107564   7.892436
          Atomic-Atomic Spin Densities.
               1          2
     1  O    1.430769  -0.430769
     2  O   -0.430769   1.430769
 Mulliken charges and spin densities:
               1          2
     1  O    0.000000   1.000000
     2  O    0.000000   1.000000
 Sum of Mulliken charges =   0.00000   2.00000
 Mulliken charges and spin densities with hydrogens summed into heavy atoms:
               1          2
     1  O    0.000000   1.000000
     2  O    0.000000   1.000000
 APT charges:
               1
     1  O    0.000000
     2  O    0.000000
 Sum of APT charges =   0.00000
 APT charges with hydrogens summed into heavy atoms:
               1
     1  O    0.000000
     2  O    0.000000
 Electronic spatial extent (au):  <R**2>=             42.8257
 Charge=              0.0000 electrons
 Dipole moment (field-independent basis, Debye):
    X=              0.0000    Y=              0.0000    Z=              0.0000  Tot=              0.0000
 Quadrupole moment (field-independent basis, Debye-Ang):
   XX=             -9.9788   YY=             -9.9788   ZZ=            -10.5204
   XY=              0.0000   XZ=              0.0000   YZ=              0.0000
 Traceless Quadrupole moment (field-independent basis, Debye-Ang):
   XX=              0.1805   YY=              0.1805   ZZ=             -0.3611
   XY=              0.0000   XZ=              0.0000   YZ=              0.0000
 Octapole moment (field-independent basis, Debye-Ang**2):
  XXX=              0.0000  YYY=              0.0000  ZZZ=              0.0000  XYY=              0.0000
  XXY=              0.0000  XXZ=              0.0000  XZZ=              0.0000  YZZ=              0.0000
  YYZ=              0.0000  XYZ=              0.0000
 Hexadecapole moment (field-independent basis, Debye-Ang**3):
 XXXX=             -7.1265 YYYY=             -7.1265 ZZZZ=            -28.1642 XXXY=              0.0000
 XXXZ=              0.0000 YYYX=              0.0000 YYYZ=              0.0000 ZZZX=              0.0000
 ZZZY=              0.0000 XXYY=             -2.3755 XXZZ=             -6.1225 YYZZ=             -6.1225
 XXYZ=              0.0000 YYXZ=              0.0000 ZZXY=              0.0000
 N-N= 2.850351768256D+01 E-N=-4.124857404982D+02  KE= 1.498317107644D+02
 Symmetry AG   KE= 6.961772662610D+01
 Symmetry B1G  KE= 5.030174928360D-34
 Symmetry B2G  KE= 3.070363799180D+00
 Symmetry B3G  KE= 3.070363799180D+00
 Symmetry AU   KE= 1.743023664222D-33
 Symmetry B1U  KE= 6.504328421594D+01
 Symmetry B2U  KE= 4.514986161981D+00
 Symmetry B3U  KE= 4.514986161981D+00
  Exact polarizability:   5.438   0.000   5.438   0.000   0.000  13.965
 Approx polarizability:   5.885   0.000   5.885   0.000   0.000  18.005
                          Isotropic Fermi Contact Couplings
        Atom                 a.u.       MegaHertz       Gauss      10(-4) cm-1
     1  O(17)              0.15462     -46.86394     -16.72222     -15.63213
     2  O(17)              0.15462     -46.86394     -16.72222     -15.63213
 --------------------------------------------------------
       Center         ----  Spin Dipole Couplings  ----
                      3XX-RR        3YY-RR        3ZZ-RR
 --------------------------------------------------------
     1   Atom        1.281594      1.281594     -2.563188
     2   Atom        1.281594      1.281594     -2.563188
 --------------------------------------------------------
                        XY            XZ            YZ
 --------------------------------------------------------
     1   Atom        0.000000      0.000000      0.000000
     2   Atom        0.000000      0.000000      0.000000
 --------------------------------------------------------


 ---------------------------------------------------------------------------------
              Anisotropic Spin Dipole Couplings in Principal Axis System
 ---------------------------------------------------------------------------------

       Atom             a.u.   MegaHertz   Gauss  10(-4) cm-1        Axes

              Baa    -2.5632   185.470    66.180    61.866  0.0000  0.0000  1.0000
     1 O(17)  Bbb     1.2816   -92.735   -33.090   -30.933 -0.0204  0.9998  0.0000
              Bcc     1.2816   -92.735   -33.090   -30.933  0.9998  0.0204  0.0000
 
              Baa    -2.5632   185.470    66.180    61.866  0.0000  0.0000  1.0000
     2 O(17)  Bbb     1.2816   -92.735   -33.090   -30.933  0.0204  0.9998  0.0000
              Bcc     1.2816   -92.735   -33.090   -30.933  0.9998 -0.0204  0.0000
 

 ---------------------------------------------------------------------------------

   8 Symmetry operations used in ECPInt.
 ECPInt:  NShTT=     253 NPrTT=     864 LenC2=     253 LenP2D=     795.
 LDataN:  DoStor=T MaxTD1= 8 Len=  415
 Calling FoFJK, ICntrl=    100127 FMM=F ISym2X=1 I1Cent= 0 IOpClX= 1 NMat=1 NMatS=1 NMatT=0.
 Full mass-weighted force constant matrix:
 Low frequencies ---   -0.0011    0.0018    0.0018   69.4219   69.4219 1769.5105
 Diagonal vibrational polarizability:
        0.0000000       0.0000000       0.0000000
 Harmonic frequencies (cm**-1), IR intensities (KM/Mole), Raman scattering
 activities (A**4/AMU), depolarization ratios for plane and unpolarized
 incident light, reduced masses (AMU), force constants (mDyne/A),
 and normal coordinates:
                      1
                     SGG
 Frequencies --   1769.5105
 Red. masses --     15.9949
 Frc consts  --     29.5079
 IR Inten    --      0.0000
  Atom  AN      X      Y      Z
     1   8     0.00   0.00   0.71
     2   8     0.00   0.00  -0.71

 -------------------
 - Thermochemistry -
 -------------------
 Temperature   298.150 Kelvin.  Pressure   1.00000 Atm.
 Atom     1 has atomic number  8 and mass  15.99491
 Atom     2 has atomic number  8 and mass  15.99491
 Molecular mass:    31.98983 amu.
 Principal axes and moments of inertia in atomic units:
                           1         2         3
     Eigenvalues --     0.00000  40.31948  40.31948
           X            0.00000   1.00000   0.00000
           Y            0.00000   0.00000   1.00000
           Z            1.00000   0.00000   0.00000
 This molecule is a prolate symmetric top.
 Rotational symmetry number  2.
 Rotational temperature (Kelvin)      2.14819
 Rotational constant (GHZ):          44.761020
 Zero-point vibrational energy      10584.0 (Joules/Mol)
                                    2.52964 (Kcal/Mol)
 Vibrational temperatures:   2545.93
          (Kelvin)
 
 Zero-point correction=                           0.004031 (Hartree/Particle)
 Thermal correction to Energy=                    0.006393
 Thermal correction to Enthalpy=                  0.007337
 Thermal correction to Gibbs Free Energy=        -0.015906
 Sum of electronic and zero-point Energies=           -150.323158
 Sum of electronic and thermal Energies=              -150.320796
 Sum of electronic and thermal Enthalpies=            -150.319852
 Sum of electronic and thermal Free Energies=         -150.343095
 
                     E (Thermal)             CV                S
                      KCal/Mol        Cal/Mol-Kelvin    Cal/Mol-Kelvin
 Total                    4.012              4.996             48.920
 Electronic               0.000              0.000              2.183
 Translational            0.889              2.981             36.321
 Rotational               0.592              1.987             10.413
 Vibrational              2.531              0.028              0.004
                       Q            Log10(Q)             Ln(Q)
 Total Bot       0.207145D+08          7.316273         16.846342
 Total V=0       0.148085D+10          9.170512         21.115884
 Vib (Bot)       0.139909D-01         -1.854153         -4.269346
 Vib (V=0)       0.100020D+01          0.000085          0.000196
 Electronic      0.300000D+01          0.477121          1.098612
 Translational   0.711169D+07          6.851973         15.777251
 Rotational      0.693957D+02          1.841333          4.239825
 ***** Axes restored to original set *****
 -------------------------------------------------------------------
 Center     Atomic                   Forces (Hartrees/Bohr)
 Number     Number              X              Y              Z
 -------------------------------------------------------------------
      1        8          -0.000003164    0.000000000    0.000000000
      2        8           0.000003164    0.000000000    0.000000000
 -------------------------------------------------------------------
 Cartesian Forces:  Max     0.000003164 RMS     0.000001827
 FormGI is forming the generalized inverse of G from B-inverse, IUseBI=4.

 GradGradGradGradGradGradGradGradGradGradGradGradGradGradGradGradGradGrad
 Berny optimization.
 Internal  Forces:  Max     0.000003164 RMS     0.000003164
 Search for a local minimum.
 Step number   1 out of a maximum of    2
 All quantities printed in internal units (Hartrees-Bohrs-Radians)
 Second derivative matrix not updated -- analytic derivatives used.
 The second derivative matrix:
                          R1
           R1           0.94765
 ITU=  0
     Eigenvalues ---    0.94765
 Angle between quadratic step and forces=   0.00 degrees.
 Linear search not attempted -- first point.
 Iteration  1 RMS(Cart)=  0.00000236 RMS(Int)=  0.00000000
 Iteration  2 RMS(Cart)=  0.00000000 RMS(Int)=  0.00000000
 ClnCor:  largest displacement from symmetrization is 1.02D-22 for atom     2.
 Variable       Old X    -DE/DX   Delta X   Delta X   Delta X     New X
                                 (Linear)    (Quad)   (Total)
    R1        2.24534   0.00000   0.00000   0.00000   0.00000   2.24533
         Item               Value     Threshold  Converged?
 Maximum Force            0.000003     0.000450     YES
 RMS     Force            0.000003     0.000300     YES
 Maximum Displacement     0.000002     0.001800     YES
 RMS     Displacement     0.000002     0.001200     YES
 Predicted change in Energy=-5.283402D-12
 Optimization completed.
    -- Stationary point found.
                           ----------------------------
                           !   Optimized Parameters   !
                           ! (Angstroms and Degrees)  !
 --------------------------                            --------------------------
 ! Name  Definition              Value          Derivative Info.                !
 --------------------------------------------------------------------------------
 ! R1    R(1,2)                  1.1882         -DE/DX =    0.0                 !
 --------------------------------------------------------------------------------
 GradGradGradGradGradGradGradGradGradGradGradGradGradGradGradGradGradGrad

 1\1\GINC-COMPUTE-0-1\Freq\UM062X\def2TZVP\O2(3)\HETANJIN\08-Aug-2015\0
 \\#N Geom=AllCheck Guess=TCheck SCRF=Check GenChk UM062X/def2TZVP Freq
 \\Title Card Required\\0,3\O,-2.6637928538,-0.39583333,0.\O,-3.8519739
 662,-0.39583333,0.\\Version=ES64L-G09RevD.01\State=3-SGG\HF=-150.32718
 94\S2=2.01206\S2-1=0.\S2A=2.000071\RMSD=3.568e-10\RMSF=1.827e-06\ZeroP
 oint=0.0040312\Thermal=0.0063933\Dipole=0.,0.,0.\DipoleDeriv=0.,0.,0.,
 0.,0.,0.,0.,0.,0.,0.,0.,0.,0.,0.,0.,0.,0.,0.\Polar=13.964513,0.,5.4376
 909,0.,0.,5.4376909\PG=D*H [C*(O1.O1)]\NImag=0\\0.94765375,0.,0.001458
 60,0.,0.,0.00145860,-0.94765375,0.,0.,0.94765375,0.,-0.00145860,0.,0.,
 0.00145860,0.,0.,-0.00145860,0.,0.,0.00145860\\0.00000316,0.,0.,-0.000
 00316,0.,0.\\\@


 MICRO CREDO - NEVER TRUST A COMPUTER BIGGER
               BIGGER THAN YOU CAN LIFT.
 Job cpu time:       0 days  0 hours  0 minutes 14.8 seconds.
 File lengths (MBytes):  RWF=      6 Int=      0 D2E=      0 Chk=      1 Scr=      1
 Normal termination of Gaussian 09 at Sat Aug  8 16:37:58 2015.
