 Entering Gaussian System, Link 0=/home/hetanjin/apps/g09D01/g09/g09
 Input=C4H9OOH_2_2_3_opt_M06.gjf
 Output=C4H9OOH_2_2_3_opt_M06.log
 Initial command:
 /home/hetanjin/apps/g09D01/g09/l1.exe "/state/partition1/Gau-2346.inp" -scrdir="/state/partition1/"
 Entering Link 1 = /home/hetanjin/apps/g09D01/g09/l1.exe PID=      2347.
  
 Copyright (c) 1988,1990,1992,1993,1995,1998,2003,2009,2013,
            Gaussian, Inc.  All Rights Reserved.
  
 This is part of the Gaussian(R) 09 program.  It is based on
 the Gaussian(R) 03 system (copyright 2003, Gaussian, Inc.),
 the Gaussian(R) 98 system (copyright 1998, Gaussian, Inc.),
 the Gaussian(R) 94 system (copyright 1995, Gaussian, Inc.),
 the Gaussian 92(TM) system (copyright 1992, Gaussian, Inc.),
 the Gaussian 90(TM) system (copyright 1990, Gaussian, Inc.),
 the Gaussian 88(TM) system (copyright 1988, Gaussian, Inc.),
 the Gaussian 86(TM) system (copyright 1986, Carnegie Mellon
 University), and the Gaussian 82(TM) system (copyright 1983,
 Carnegie Mellon University). Gaussian is a federally registered
 trademark of Gaussian, Inc.
  
 This software contains proprietary and confidential information,
 including trade secrets, belonging to Gaussian, Inc.
  
 This software is provided under written license and may be
 used, copied, transmitted, or stored only in accord with that
 written license.
  
 The following legend is applicable only to US Government
 contracts under FAR:
  
                    RESTRICTED RIGHTS LEGEND
  
 Use, reproduction and disclosure by the US Government is
 subject to restrictions as set forth in subparagraphs (a)
 and (c) of the Commercial Computer Software - Restricted
 Rights clause in FAR 52.227-19.
  
 Gaussian, Inc.
 340 Quinnipiac St., Bldg. 40, Wallingford CT 06492
  
  
 ---------------------------------------------------------------
 Warning -- This program may not be used in any manner that
 competes with the business of Gaussian, Inc. or will provide
 assistance to any competitor of Gaussian, Inc.  The licensee
 of this program is prohibited from giving any competitor of
 Gaussian, Inc. access to this program.  By using this program,
 the user acknowledges that Gaussian, Inc. is engaged in the
 business of creating and licensing software in the field of
 computational chemistry and represents and warrants to the
 licensee that it is not a competitor of Gaussian, Inc. and that
 it will not use this program in any manner prohibited above.
 ---------------------------------------------------------------
  

 Cite this work as:
 Gaussian 09, Revision D.01,
 M. J. Frisch, G. W. Trucks, H. B. Schlegel, G. E. Scuseria, 
 M. A. Robb, J. R. Cheeseman, G. Scalmani, V. Barone, B. Mennucci, 
 G. A. Petersson, H. Nakatsuji, M. Caricato, X. Li, H. P. Hratchian, 
 A. F. Izmaylov, J. Bloino, G. Zheng, J. L. Sonnenberg, M. Hada, 
 M. Ehara, K. Toyota, R. Fukuda, J. Hasegawa, M. Ishida, T. Nakajima, 
 Y. Honda, O. Kitao, H. Nakai, T. Vreven, J. A. Montgomery, Jr., 
 J. E. Peralta, F. Ogliaro, M. Bearpark, J. J. Heyd, E. Brothers, 
 K. N. Kudin, V. N. Staroverov, T. Keith, R. Kobayashi, J. Normand, 
 K. Raghavachari, A. Rendell, J. C. Burant, S. S. Iyengar, J. Tomasi, 
 M. Cossi, N. Rega, J. M. Millam, M. Klene, J. E. Knox, J. B. Cross, 
 V. Bakken, C. Adamo, J. Jaramillo, R. Gomperts, R. E. Stratmann, 
 O. Yazyev, A. J. Austin, R. Cammi, C. Pomelli, J. W. Ochterski, 
 R. L. Martin, K. Morokuma, V. G. Zakrzewski, G. A. Voth, 
 P. Salvador, J. J. Dannenberg, S. Dapprich, A. D. Daniels, 
 O. Farkas, J. B. Foresman, J. V. Ortiz, J. Cioslowski, 
 and D. J. Fox, Gaussian, Inc., Wallingford CT, 2013.
 
 ******************************************
 Gaussian 09:  ES64L-G09RevD.01 24-Apr-2013
                 6-Oct-2015 
 ******************************************
 %mem=28GB
 %nprocshared=12
 Will use up to   12 processors via shared memory.
 %chk=C4H9OOH_2_2_3_opt_M06.chk
 -----------------
 #p M062X/def2TZVP
 -----------------
 1/38=1/1;
 2/12=2,17=6,18=5,40=1/2;
 3/5=44,7=101,11=2,16=1,25=1,30=1,74=-55/1,2,3;
 4//1;
 5/5=2,38=5/2;
 6/7=2,8=2,9=2,10=2,28=1/1;
 99/5=1,9=1/99;
 Leave Link    1 at Tue Oct  6 19:38:02 2015, MaxMem=  3758096384 cpu:         0.4
 (Enter /home/hetanjin/apps/g09D01/g09/l101.exe)
 -----------------------------
 using ub3lyp/6-31G(d) to scan
 -----------------------------
 Symbolic Z-matrix:
 Charge =  0 Multiplicity = 1
 C                     0.38722   0.00032   0.03602 
 O                    -0.72628  -0.05581  -0.8911 
 O                    -1.97281   0.10626  -0.1537 
 H                    -2.33979  -0.79022  -0.25159 
 C                     0.40953   1.35629   0.74878 
 H                    -0.48992   1.48582   1.35651 
 H                     1.28492   1.43231   1.40378 
 H                     0.45137   2.16927   0.01652 
 C                     0.31089  -1.16455   1.02959 
 H                     1.18782  -1.17064   1.68613 
 H                    -0.58106  -1.07897   1.65729 
 H                     0.2766   -2.12197   0.4969 
 C                     1.58392  -0.15235  -0.91037 
 H                     1.59213   0.6527   -1.65176 
 H                     2.51821  -0.10972  -0.34079 
 H                     1.54308  -1.11042  -1.43877 
 
 NAtoms=     16 NQM=       16 NQMF=       0 NMMI=      0 NMMIF=      0
                NMic=       0 NMicF=      0.
                    Isotopes and Nuclear Properties:
 (Nuclear quadrupole moments (NQMom) in fm**2, nuclear magnetic moments (NMagM)
  in nuclear magnetons)

  Atom         1           2           3           4           5           6           7           8           9          10
 IAtWgt=          12          16          16           1          12           1           1           1          12           1
 AtmWgt=  12.0000000  15.9949146  15.9949146   1.0078250  12.0000000   1.0078250   1.0078250   1.0078250  12.0000000   1.0078250
 NucSpn=           0           0           0           1           0           1           1           1           0           1
 AtZEff=   0.0000000   0.0000000   0.0000000   0.0000000   0.0000000   0.0000000   0.0000000   0.0000000   0.0000000   0.0000000
 NQMom=    0.0000000   0.0000000   0.0000000   0.0000000   0.0000000   0.0000000   0.0000000   0.0000000   0.0000000   0.0000000
 NMagM=    0.0000000   0.0000000   0.0000000   2.7928460   0.0000000   2.7928460   2.7928460   2.7928460   0.0000000   2.7928460
 AtZNuc=   6.0000000   8.0000000   8.0000000   1.0000000   6.0000000   1.0000000   1.0000000   1.0000000   6.0000000   1.0000000

  Atom        11          12          13          14          15          16
 IAtWgt=           1           1          12           1           1           1
 AtmWgt=   1.0078250   1.0078250  12.0000000   1.0078250   1.0078250   1.0078250
 NucSpn=           1           1           0           1           1           1
 AtZEff=   0.0000000   0.0000000   0.0000000   0.0000000   0.0000000   0.0000000
 NQMom=    0.0000000   0.0000000   0.0000000   0.0000000   0.0000000   0.0000000
 NMagM=    2.7928460   2.7928460   0.0000000   2.7928460   2.7928460   2.7928460
 AtZNuc=   1.0000000   1.0000000   6.0000000   1.0000000   1.0000000   1.0000000
 Leave Link  101 at Tue Oct  6 19:38:02 2015, MaxMem=  3758096384 cpu:         0.8
 (Enter /home/hetanjin/apps/g09D01/g09/l202.exe)
                          Input orientation:                          
 ---------------------------------------------------------------------
 Center     Atomic      Atomic             Coordinates (Angstroms)
 Number     Number       Type             X           Y           Z
 ---------------------------------------------------------------------
      1          6           0        0.387221    0.000318    0.036019
      2          8           0       -0.726277   -0.055808   -0.891099
      3          8           0       -1.972813    0.106256   -0.153695
      4          1           0       -2.339785   -0.790216   -0.251594
      5          6           0        0.409531    1.356285    0.748776
      6          1           0       -0.489915    1.485819    1.356510
      7          1           0        1.284915    1.432314    1.403782
      8          1           0        0.451366    2.169271    0.016521
      9          6           0        0.310887   -1.164550    1.029593
     10          1           0        1.187818   -1.170641    1.686131
     11          1           0       -0.581058   -1.078966    1.657292
     12          1           0        0.276601   -2.121966    0.496903
     13          6           0        1.583921   -0.152348   -0.910368
     14          1           0        1.592126    0.652704   -1.651755
     15          1           0        2.518214   -0.109724   -0.340788
     16          1           0        1.543083   -1.110420   -1.438771
 ---------------------------------------------------------------------
                    Distance matrix (angstroms):
                    1          2          3          4          5
     1  C    0.000000
     2  O    1.450026   0.000000
     3  O    2.370016   1.457354   0.000000
     4  H    2.853809   1.884603   0.973609   0.000000
     5  C    1.532047   2.444025   2.837708   3.628629   0.000000
     6  H    2.172505   2.735732   2.526440   3.344900   1.093217
     7  H    2.174222   3.394979   3.846681   4.562714   1.095952
     8  H    2.169989   2.676115   3.187734   4.076883   1.094940
     9  C    1.532949   2.448280   2.868868   2.967765   2.538346
    10  H    2.175999   3.398342   3.873631   4.042708   2.805302
    11  H    2.175073   2.749952   2.573209   2.611579   2.781567
    12  H    2.174567   2.683528   3.232354   3.029733   3.489891
    13  C    1.533312   2.312295   3.645516   4.029433   2.531388
    14  H    2.173933   2.540783   3.905327   4.416151   2.766967
    15  H    2.166847   3.291272   4.500108   4.906239   2.789781
    16  H    2.178247   2.561669   3.936146   4.072909   3.486393
                    6          7          8          9         10
     6  H    0.000000
     7  H    1.776265   0.000000
     8  H    1.774454   1.778315   0.000000
     9  C    2.787941   2.798652   3.487178   0.000000
    10  H    3.159148   2.620024   3.805913   1.095485   0.000000
    11  H    2.583970   3.138893   3.782733   1.094028   1.771485
    12  H    3.787160   3.804213   4.321577   1.096166   1.774711
    13  C    3.481828   2.820611   2.744398   2.531525   2.817024
    14  H    3.752151   3.168356   2.526748   3.483334   3.824858
    15  H    3.804657   2.634850   3.097313   2.804085   2.646488
    16  H    4.322862   3.822598   3.750479   2.759358   3.145608
                   11         12         13         14         15
    11  H    0.000000
    12  H    1.780430   0.000000
    13  C    3.484054   2.751162   0.000000
    14  H    4.321019   3.747817   1.094455   0.000000
    15  H    3.812773   3.126607   1.095053   1.776955   0.000000
    16  H    3.754806   2.524685   1.094888   1.776619   1.777031
                   16
    16  H    0.000000
 Stoichiometry    C4H10O2
 Framework group  C1[X(C4H10O2)]
 Deg. of freedom    42
 Full point group                 C1      NOp   1
 Largest Abelian subgroup         C1      NOp   1
 Largest concise Abelian subgroup C1      NOp   1
                         Standard orientation:                         
 ---------------------------------------------------------------------
 Center     Atomic      Atomic             Coordinates (Angstroms)
 Number     Number       Type             X           Y           Z
 ---------------------------------------------------------------------
      1          6           0        0.387221    0.000318    0.036019
      2          8           0       -0.726277   -0.055808   -0.891099
      3          8           0       -1.972813    0.106256   -0.153695
      4          1           0       -2.339785   -0.790216   -0.251594
      5          6           0        0.409531    1.356285    0.748776
      6          1           0       -0.489915    1.485819    1.356510
      7          1           0        1.284915    1.432314    1.403782
      8          1           0        0.451366    2.169271    0.016521
      9          6           0        0.310887   -1.164550    1.029593
     10          1           0        1.187818   -1.170641    1.686131
     11          1           0       -0.581058   -1.078966    1.657292
     12          1           0        0.276601   -2.121966    0.496903
     13          6           0        1.583921   -0.152348   -0.910368
     14          1           0        1.592126    0.652704   -1.651755
     15          1           0        2.518214   -0.109724   -0.340788
     16          1           0        1.543083   -1.110420   -1.438771
 ---------------------------------------------------------------------
 Rotational constants (GHZ):      4.4217378      2.7555638      2.7515067
 Leave Link  202 at Tue Oct  6 19:38:02 2015, MaxMem=  3758096384 cpu:         0.1
 (Enter /home/hetanjin/apps/g09D01/g09/l301.exe)
 Standard basis: def2TZVP (5D, 7F)
 Ernie: Thresh=  0.10000D-02 Tol=  0.10000D-05 Strict=F.
 There are   276 symmetry adapted cartesian basis functions of A   symmetry.
 There are   246 symmetry adapted basis functions of A   symmetry.
   246 basis functions,   386 primitive gaussians,   276 cartesian basis functions
    25 alpha electrons       25 beta electrons
       nuclear repulsion energy       269.5009816518 Hartrees.
 IExCor= 4336 DFT=T Ex+Corr=M062X ExCW=0 ScaHFX=  0.540000
 ScaDFX=  1.000000  1.000000  1.000000  1.000000 ScalE2=  1.000000  1.000000
 IRadAn=      0 IRanWt=     -1 IRanGd=            0 ICorTp=0 IEmpDi=  4
 NAtoms=   16 NActive=   16 NUniq=   16 SFac= 1.00D+00 NAtFMM=   60 NAOKFM=F Big=F
 Integral buffers will be    131072 words long.
 Raffenetti 2 integral format.
 Two-electron integral symmetry is turned on.
 Leave Link  301 at Tue Oct  6 19:38:02 2015, MaxMem=  3758096384 cpu:         0.7
 (Enter /home/hetanjin/apps/g09D01/g09/l302.exe)
 NPDir=0 NMtPBC=     1 NCelOv=     1 NCel=       1 NClECP=     1 NCelD=      1
         NCelK=      1 NCelE2=     1 NClLst=     1 CellRange=     0.0.
 One-electron integrals computed using PRISM.
   1 Symmetry operations used in ECPInt.
 ECPInt:  NShTT=    5671 NPrTT=   16452 LenC2=    5636 LenP2D=   13666.
 LDataN:  DoStor=T MaxTD1= 6 Len=  172
 NBasis=   246 RedAO= T EigKep=  2.48D-04  NBF=   246
 NBsUse=   246 1.00D-06 EigRej= -1.00D+00 NBFU=   246
 Precomputing XC quadrature grid using
 IXCGrd= 4 IRadAn=           0 IRanWt=          -1 IRanGd=           0 AccXCQ= 0.00D+00.
 Generated NRdTot=       0 NPtTot=           0 NUsed=           0 NTot=          32
 NSgBfM=   275   275   275   275   275 MxSgAt=    16 MxSgA2=    16.
 Leave Link  302 at Tue Oct  6 19:38:02 2015, MaxMem=  3758096384 cpu:         4.6
 (Enter /home/hetanjin/apps/g09D01/g09/l303.exe)
 DipDrv:  MaxL=1.
 Leave Link  303 at Tue Oct  6 19:38:03 2015, MaxMem=  3758096384 cpu:         0.4
 (Enter /home/hetanjin/apps/g09D01/g09/l401.exe)
 ExpMin= 9.52D-02 ExpMax= 2.70D+04 ExpMxC= 9.22D+02 IAcc=2 IRadAn=         4 AccDes= 0.00D+00
 Harris functional with IExCor= 1009 and IRadAn=       4 diagonalized for initial guess.
 HarFok:  IExCor= 1009 AccDes= 0.00D+00 IRadAn=         4 IDoV= 1 UseB2=F ITyADJ=14
 ICtDFT=  3500011 ScaDFX=  1.000000  1.000000  1.000000  1.000000
 FoFCou: FMM=F IPFlag=           0 FMFlag=      100000 FMFlg1=           0
         NFxFlg=           0 DoJE=T BraDBF=F KetDBF=T FulRan=T
         wScrn=  0.000000 ICntrl=     500 IOpCl=  0 I1Cent=   200000004 NGrid=           0
         NMat0=    1 NMatS0=      1 NMatT0=    0 NMatD0=    1 NMtDS0=    0 NMtDT0=    0
 Petite list used in FoFCou.
 Harris En= -308.712157130548    
 JPrj=0 DoOrth=F DoCkMO=F.
 Leave Link  401 at Tue Oct  6 19:38:03 2015, MaxMem=  3758096384 cpu:        10.5
 (Enter /home/hetanjin/apps/g09D01/g09/l502.exe)
 Closed shell SCF:
 Using DIIS extrapolation, IDIIS=  1040.
 Integral symmetry usage will be decided dynamically.
 Keep R1 ints in memory in canonical form, NReq=472397029.
 IVT=      252430 IEndB=      252430 NGot=  3758096384 MDV=  3296326184
 LenX=  3296326184 LenY=  3296249567
 Requested convergence on RMS density matrix=1.00D-08 within 128 cycles.
 Requested convergence on MAX density matrix=1.00D-06.
 Requested convergence on             energy=1.00D-06.
 No special actions if energy rises.
 FoFCou: FMM=F IPFlag=           0 FMFlag=           0 FMFlg1=           0
         NFxFlg=           0 DoJE=F BraDBF=F KetDBF=F FulRan=T
         wScrn=  0.000000 ICntrl=     600 IOpCl=  0 I1Cent=           0 NGrid=           0
         NMat0=    1 NMatS0=  30381 NMatT0=    0 NMatD0=    1 NMtDS0=    0 NMtDT0=    0
 Symmetry not used in FoFCou.
 Integral accuracy reduced to 1.0D-05 until final iterations.

 Cycle   1  Pass 0  IDiag  1:
 E= -308.559263280652    
 DIIS: error= 3.33D-02 at cycle   1 NSaved=   1.
 NSaved= 1 IEnMin= 1 EnMin= -308.559263280652     IErMin= 1 ErrMin= 3.33D-02
 ErrMax= 3.33D-02  0.00D+00 EMaxC= 1.00D-01 BMatC= 2.73D-01 BMatP= 2.73D-01
 IDIUse=3 WtCom= 6.67D-01 WtEn= 3.33D-01
 Coeff-Com:  0.100D+01
 Coeff-En:   0.100D+01
 Coeff:      0.100D+01
 Gap=     0.438 Goal=   None    Shift=    0.000
 GapD=    0.438 DampG=2.000 DampE=0.500 DampFc=1.0000 IDamp=-1.
 RMSDP=2.80D-03 MaxDP=8.31D-02              OVMax= 1.46D-01

 Cycle   2  Pass 0  IDiag  1:
 E= -308.629213486271     Delta-E=       -0.069950205619 Rises=F Damp=F
 DIIS: error= 2.96D-02 at cycle   2 NSaved=   2.
 NSaved= 2 IEnMin= 2 EnMin= -308.629213486271     IErMin= 2 ErrMin= 2.96D-02
 ErrMax= 2.96D-02  0.00D+00 EMaxC= 1.00D-01 BMatC= 1.62D-01 BMatP= 2.73D-01
 IDIUse=3 WtCom= 7.04D-01 WtEn= 2.96D-01
 Coeff-Com:  0.430D+00 0.570D+00
 Coeff-En:   0.395D+00 0.605D+00
 Coeff:      0.420D+00 0.580D+00
 Gap=     0.422 Goal=   None    Shift=    0.000
 RMSDP=1.49D-03 MaxDP=3.79D-02 DE=-7.00D-02 OVMax= 7.80D-02

 Cycle   3  Pass 0  IDiag  1:
 E= -308.781990249735     Delta-E=       -0.152776763463 Rises=F Damp=F
 DIIS: error= 3.81D-03 at cycle   3 NSaved=   3.
 NSaved= 3 IEnMin= 3 EnMin= -308.781990249735     IErMin= 3 ErrMin= 3.81D-03
 ErrMax= 3.81D-03  0.00D+00 EMaxC= 1.00D-01 BMatC= 4.93D-03 BMatP= 1.62D-01
 IDIUse=3 WtCom= 9.62D-01 WtEn= 3.81D-02
 Coeff-Com:  0.778D-01 0.185D+00 0.738D+00
 Coeff-En:   0.000D+00 0.000D+00 0.100D+01
 Coeff:      0.748D-01 0.178D+00 0.748D+00
 Gap=     0.403 Goal=   None    Shift=    0.000
 RMSDP=2.38D-04 MaxDP=9.07D-03 DE=-1.53D-01 OVMax= 1.38D-02

 Cycle   4  Pass 0  IDiag  1:
 E= -308.784526236298     Delta-E=       -0.002535986563 Rises=F Damp=F
 DIIS: error= 1.97D-03 at cycle   4 NSaved=   4.
 NSaved= 4 IEnMin= 4 EnMin= -308.784526236298     IErMin= 4 ErrMin= 1.97D-03
 ErrMax= 1.97D-03  0.00D+00 EMaxC= 1.00D-01 BMatC= 1.94D-03 BMatP= 4.93D-03
 IDIUse=3 WtCom= 9.80D-01 WtEn= 1.97D-02
 Coeff-Com:  0.457D-02 0.535D-01 0.442D+00 0.500D+00
 Coeff-En:   0.000D+00 0.000D+00 0.223D+00 0.777D+00
 Coeff:      0.448D-02 0.525D-01 0.438D+00 0.505D+00
 Gap=     0.396 Goal=   None    Shift=    0.000
 RMSDP=1.04D-04 MaxDP=4.23D-03 DE=-2.54D-03 OVMax= 6.08D-03

 Cycle   5  Pass 0  IDiag  1:
 E= -308.785777779224     Delta-E=       -0.001251542926 Rises=F Damp=F
 DIIS: error= 2.98D-04 at cycle   5 NSaved=   5.
 NSaved= 5 IEnMin= 5 EnMin= -308.785777779224     IErMin= 5 ErrMin= 2.98D-04
 ErrMax= 2.98D-04  0.00D+00 EMaxC= 1.00D-01 BMatC= 3.82D-05 BMatP= 1.94D-03
 IDIUse=3 WtCom= 9.97D-01 WtEn= 2.98D-03
 Coeff-Com: -0.200D-02 0.116D-01 0.129D+00 0.199D+00 0.663D+00
 Coeff-En:   0.000D+00 0.000D+00 0.000D+00 0.000D+00 0.100D+01
 Coeff:     -0.199D-02 0.116D-01 0.128D+00 0.198D+00 0.664D+00
 Gap=     0.396 Goal=   None    Shift=    0.000
 RMSDP=2.78D-05 MaxDP=6.32D-04 DE=-1.25D-03 OVMax= 1.33D-03

 Cycle   6  Pass 0  IDiag  1:
 E= -308.785803929292     Delta-E=       -0.000026150068 Rises=F Damp=F
 DIIS: error= 1.16D-04 at cycle   6 NSaved=   6.
 NSaved= 6 IEnMin= 6 EnMin= -308.785803929292     IErMin= 6 ErrMin= 1.16D-04
 ErrMax= 1.16D-04  0.00D+00 EMaxC= 1.00D-01 BMatC= 4.47D-06 BMatP= 3.82D-05
 IDIUse=3 WtCom= 9.99D-01 WtEn= 1.16D-03
 Coeff-Com: -0.133D-02 0.389D-03 0.187D-01 0.438D-01 0.302D+00 0.637D+00
 Coeff-En:   0.000D+00 0.000D+00 0.000D+00 0.000D+00 0.000D+00 0.100D+01
 Coeff:     -0.133D-02 0.389D-03 0.186D-01 0.437D-01 0.301D+00 0.637D+00
 Gap=     0.396 Goal=   None    Shift=    0.000
 RMSDP=6.66D-06 MaxDP=2.22D-04 DE=-2.62D-05 OVMax= 4.24D-04

 Initial convergence to 1.0D-05 achieved.  Increase integral accuracy.
 Cycle   7  Pass 1  IDiag  1:
 E= -308.785779510062     Delta-E=        0.000024419230 Rises=F Damp=F
 DIIS: error= 2.10D-04 at cycle   1 NSaved=   1.
 NSaved= 1 IEnMin= 1 EnMin= -308.785779510062     IErMin= 1 ErrMin= 2.10D-04
 ErrMax= 2.10D-04  0.00D+00 EMaxC= 1.00D-01 BMatC= 1.27D-05 BMatP= 1.27D-05
 IDIUse=3 WtCom= 9.98D-01 WtEn= 2.10D-03
 Coeff-Com:  0.100D+01
 Coeff-En:   0.100D+01
 Coeff:      0.100D+01
 Gap=     0.396 Goal=   None    Shift=    0.000
 RMSDP=6.66D-06 MaxDP=2.22D-04 DE= 2.44D-05 OVMax= 4.52D-04

 Cycle   8  Pass 1  IDiag  1:
 E= -308.785785905801     Delta-E=       -0.000006395739 Rises=F Damp=F
 DIIS: error= 4.67D-05 at cycle   2 NSaved=   2.
 NSaved= 2 IEnMin= 2 EnMin= -308.785785905801     IErMin= 2 ErrMin= 4.67D-05
 ErrMax= 4.67D-05  0.00D+00 EMaxC= 1.00D-01 BMatC= 6.64D-07 BMatP= 1.27D-05
 IDIUse=1 WtCom= 1.00D+00 WtEn= 0.00D+00
 Coeff-Com:  0.837D-01 0.916D+00
 Coeff:      0.837D-01 0.916D+00
 Gap=     0.396 Goal=   None    Shift=    0.000
 RMSDP=4.53D-06 MaxDP=1.32D-04 DE=-6.40D-06 OVMax= 2.40D-04

 Cycle   9  Pass 1  IDiag  1:
 E= -308.785786109184     Delta-E=       -0.000000203383 Rises=F Damp=F
 DIIS: error= 3.91D-05 at cycle   3 NSaved=   3.
 NSaved= 3 IEnMin= 3 EnMin= -308.785786109184     IErMin= 3 ErrMin= 3.91D-05
 ErrMax= 3.91D-05  0.00D+00 EMaxC= 1.00D-01 BMatC= 4.83D-07 BMatP= 6.64D-07
 IDIUse=1 WtCom= 1.00D+00 WtEn= 0.00D+00
 Coeff-Com: -0.118D-01 0.456D+00 0.556D+00
 Coeff:     -0.118D-01 0.456D+00 0.556D+00
 Gap=     0.396 Goal=   None    Shift=    0.000
 RMSDP=2.37D-06 MaxDP=5.23D-05 DE=-2.03D-07 OVMax= 1.24D-04

 Cycle  10  Pass 1  IDiag  1:
 E= -308.785786534948     Delta-E=       -0.000000425763 Rises=F Damp=F
 DIIS: error= 5.09D-06 at cycle   4 NSaved=   4.
 NSaved= 4 IEnMin= 4 EnMin= -308.785786534948     IErMin= 4 ErrMin= 5.09D-06
 ErrMax= 5.09D-06  0.00D+00 EMaxC= 1.00D-01 BMatC= 1.22D-08 BMatP= 4.83D-07
 IDIUse=1 WtCom= 1.00D+00 WtEn= 0.00D+00
 Coeff-Com: -0.803D-02 0.117D+00 0.198D+00 0.693D+00
 Coeff:     -0.803D-02 0.117D+00 0.198D+00 0.693D+00
 Gap=     0.396 Goal=   None    Shift=    0.000
 RMSDP=4.35D-07 MaxDP=1.66D-05 DE=-4.26D-07 OVMax= 2.38D-05

 Cycle  11  Pass 1  IDiag  1:
 E= -308.785786542635     Delta-E=       -0.000000007688 Rises=F Damp=F
 DIIS: error= 2.91D-06 at cycle   5 NSaved=   5.
 NSaved= 5 IEnMin= 5 EnMin= -308.785786542635     IErMin= 5 ErrMin= 2.91D-06
 ErrMax= 2.91D-06  0.00D+00 EMaxC= 1.00D-01 BMatC= 3.32D-09 BMatP= 1.22D-08
 IDIUse=1 WtCom= 1.00D+00 WtEn= 0.00D+00
 Coeff-Com: -0.158D-02-0.194D-01 0.756D-02 0.355D+00 0.658D+00
 Coeff:     -0.158D-02-0.194D-01 0.756D-02 0.355D+00 0.658D+00
 Gap=     0.396 Goal=   None    Shift=    0.000
 RMSDP=1.98D-07 MaxDP=7.34D-06 DE=-7.69D-09 OVMax= 1.49D-05

 Cycle  12  Pass 1  IDiag  1:
 E= -308.785786545152     Delta-E=       -0.000000002517 Rises=F Damp=F
 DIIS: error= 8.82D-07 at cycle   6 NSaved=   6.
 NSaved= 6 IEnMin= 6 EnMin= -308.785786545152     IErMin= 6 ErrMin= 8.82D-07
 ErrMax= 8.82D-07  0.00D+00 EMaxC= 1.00D-01 BMatC= 3.76D-10 BMatP= 3.32D-09
 IDIUse=1 WtCom= 1.00D+00 WtEn= 0.00D+00
 Coeff-Com:  0.115D-03-0.209D-01-0.166D-01 0.988D-01 0.322D+00 0.617D+00
 Coeff:      0.115D-03-0.209D-01-0.166D-01 0.988D-01 0.322D+00 0.617D+00
 Gap=     0.396 Goal=   None    Shift=    0.000
 RMSDP=8.95D-08 MaxDP=2.83D-06 DE=-2.52D-09 OVMax= 6.49D-06

 Cycle  13  Pass 1  IDiag  1:
 E= -308.785786545484     Delta-E=       -0.000000000332 Rises=F Damp=F
 DIIS: error= 2.27D-07 at cycle   7 NSaved=   7.
 NSaved= 7 IEnMin= 7 EnMin= -308.785786545484     IErMin= 7 ErrMin= 2.27D-07
 ErrMax= 2.27D-07  0.00D+00 EMaxC= 1.00D-01 BMatC= 2.47D-11 BMatP= 3.76D-10
 IDIUse=1 WtCom= 1.00D+00 WtEn= 0.00D+00
 Coeff-Com:  0.262D-03-0.248D-02-0.642D-02-0.334D-01-0.210D-01 0.155D+00
 Coeff-Com:  0.908D+00
 Coeff:      0.262D-03-0.248D-02-0.642D-02-0.334D-01-0.210D-01 0.155D+00
 Coeff:      0.908D+00
 Gap=     0.396 Goal=   None    Shift=    0.000
 RMSDP=3.84D-08 MaxDP=1.14D-06 DE=-3.32D-10 OVMax= 4.33D-06

 Cycle  14  Pass 1  IDiag  1:
 E= -308.785786545542     Delta-E=       -0.000000000058 Rises=F Damp=F
 DIIS: error= 7.49D-08 at cycle   8 NSaved=   8.
 NSaved= 8 IEnMin= 8 EnMin= -308.785786545542     IErMin= 8 ErrMin= 7.49D-08
 ErrMax= 7.49D-08  0.00D+00 EMaxC= 1.00D-01 BMatC= 2.75D-12 BMatP= 2.47D-11
 IDIUse=1 WtCom= 1.00D+00 WtEn= 0.00D+00
 Coeff-Com:  0.378D-04 0.221D-02 0.946D-03-0.198D-01-0.463D-01-0.516D-01
 Coeff-Com:  0.173D+00 0.942D+00
 Coeff:      0.378D-04 0.221D-02 0.946D-03-0.198D-01-0.463D-01-0.516D-01
 Coeff:      0.173D+00 0.942D+00
 Gap=     0.396 Goal=   None    Shift=    0.000
 RMSDP=1.54D-08 MaxDP=3.60D-07 DE=-5.80D-11 OVMax= 2.11D-06

 Cycle  15  Pass 1  IDiag  1:
 E= -308.785786545538     Delta-E=        0.000000000003 Rises=F Damp=F
 DIIS: error= 2.86D-08 at cycle   9 NSaved=   9.
 NSaved= 9 IEnMin= 8 EnMin= -308.785786545542     IErMin= 9 ErrMin= 2.86D-08
 ErrMax= 2.86D-08  0.00D+00 EMaxC= 1.00D-01 BMatC= 2.69D-13 BMatP= 2.75D-12
 IDIUse=1 WtCom= 1.00D+00 WtEn= 0.00D+00
 Coeff-Com: -0.310D-04 0.689D-03 0.117D-02 0.200D-02-0.317D-02-0.278D-01
 Coeff-Com: -0.936D-01 0.703D-01 0.105D+01
 Coeff:     -0.310D-04 0.689D-03 0.117D-02 0.200D-02-0.317D-02-0.278D-01
 Coeff:     -0.936D-01 0.703D-01 0.105D+01
 Gap=     0.396 Goal=   None    Shift=    0.000
 RMSDP=5.58D-09 MaxDP=1.35D-07 DE= 3.18D-12 OVMax= 8.22D-07

 SCF Done:  E(RM062X) =  -308.785786546     A.U. after   15 cycles
            NFock= 15  Conv=0.56D-08     -V/T= 2.0054
 KE= 3.071384153371D+02 PE=-1.261031855304D+03 EE= 3.756066717700D+02
 Leave Link  502 at Tue Oct  6 19:38:57 2015, MaxMem=  3758096384 cpu:       307.4
 (Enter /home/hetanjin/apps/g09D01/g09/l601.exe)
 Copying SCF densities to generalized density rwf, IOpCl= 0 IROHF=0.

 **********************************************************************

            Population analysis using the SCF density.

 **********************************************************************

 Orbital symmetries:
       Occupied  (A) (A) (A) (A) (A) (A) (A) (A) (A) (A) (A) (A)
                 (A) (A) (A) (A) (A) (A) (A) (A) (A) (A) (A) (A)
                 (A)
       Virtual   (A) (A) (A) (A) (A) (A) (A) (A) (A) (A) (A) (A)
                 (A) (A) (A) (A) (A) (A) (A) (A) (A) (A) (A) (A)
                 (A) (A) (A) (A) (A) (A) (A) (A) (A) (A) (A) (A)
                 (A) (A) (A) (A) (A) (A) (A) (A) (A) (A) (A) (A)
                 (A) (A) (A) (A) (A) (A) (A) (A) (A) (A) (A) (A)
                 (A) (A) (A) (A) (A) (A) (A) (A) (A) (A) (A) (A)
                 (A) (A) (A) (A) (A) (A) (A) (A) (A) (A) (A) (A)
                 (A) (A) (A) (A) (A) (A) (A) (A) (A) (A) (A) (A)
                 (A) (A) (A) (A) (A) (A) (A) (A) (A) (A) (A) (A)
                 (A) (A) (A) (A) (A) (A) (A) (A) (A) (A) (A) (A)
                 (A) (A) (A) (A) (A) (A) (A) (A) (A) (A) (A) (A)
                 (A) (A) (A) (A) (A) (A) (A) (A) (A) (A) (A) (A)
                 (A) (A) (A) (A) (A) (A) (A) (A) (A) (A) (A) (A)
                 (A) (A) (A) (A) (A) (A) (A) (A) (A) (A) (A) (A)
                 (A) (A) (A) (A) (A) (A) (A) (A) (A) (A) (A) (A)
                 (A) (A) (A) (A) (A) (A) (A) (A) (A) (A) (A) (A)
                 (A) (A) (A) (A) (A) (A) (A) (A) (A) (A) (A) (A)
                 (A) (A) (A) (A) (A) (A) (A) (A) (A) (A) (A) (A)
                 (A) (A) (A) (A) (A)
 The electronic state is 1-A.
 Alpha  occ. eigenvalues --  -19.67972 -19.67841 -10.60106 -10.53081 -10.52936
 Alpha  occ. eigenvalues --  -10.52313  -1.23915  -1.03026  -0.87992  -0.78688
 Alpha  occ. eigenvalues --   -0.78406  -0.64488  -0.59245  -0.55483  -0.53869
 Alpha  occ. eigenvalues --   -0.51254  -0.48611  -0.45678  -0.45558  -0.44488
 Alpha  occ. eigenvalues --   -0.43237  -0.41591  -0.39616  -0.37451  -0.34294
 Alpha virt. eigenvalues --    0.05288   0.06668   0.10303   0.11431   0.12484
 Alpha virt. eigenvalues --    0.13037   0.13394   0.14186   0.16204   0.18240
 Alpha virt. eigenvalues --    0.18607   0.19297   0.19919   0.20464   0.21233
 Alpha virt. eigenvalues --    0.25235   0.25939   0.27556   0.30803   0.31214
 Alpha virt. eigenvalues --    0.36425   0.37118   0.37754   0.38578   0.40375
 Alpha virt. eigenvalues --    0.42725   0.44101   0.45198   0.45689   0.46610
 Alpha virt. eigenvalues --    0.48745   0.48853   0.50356   0.50477   0.51636
 Alpha virt. eigenvalues --    0.52167   0.52825   0.53522   0.56329   0.56969
 Alpha virt. eigenvalues --    0.60077   0.62835   0.64650   0.65772   0.68236
 Alpha virt. eigenvalues --    0.71958   0.72939   0.78067   0.82213   0.85509
 Alpha virt. eigenvalues --    0.87163   0.88180   0.91543   0.92474   0.96452
 Alpha virt. eigenvalues --    0.96926   0.98904   1.02668   1.04346   1.05900
 Alpha virt. eigenvalues --    1.12151   1.13726   1.15787   1.17245   1.22516
 Alpha virt. eigenvalues --    1.23487   1.27453   1.31154   1.34910   1.36121
 Alpha virt. eigenvalues --    1.39302   1.46430   1.55695   1.56161   1.57462
 Alpha virt. eigenvalues --    1.57676   1.58035   1.61922   1.63273   1.64048
 Alpha virt. eigenvalues --    1.64629   1.65106   1.66338   1.67527   1.69697
 Alpha virt. eigenvalues --    1.73547   1.75329   1.77654   1.81325   1.83188
 Alpha virt. eigenvalues --    1.86521   1.87973   1.93628   1.94192   1.97802
 Alpha virt. eigenvalues --    2.03904   2.04625   2.06663   2.09254   2.12258
 Alpha virt. eigenvalues --    2.14016   2.14513   2.16494   2.18279   2.23093
 Alpha virt. eigenvalues --    2.27528   2.28148   2.29370   2.31004   2.31443
 Alpha virt. eigenvalues --    2.35574   2.38186   2.38568   2.40432   2.40926
 Alpha virt. eigenvalues --    2.41547   2.43853   2.45675   2.46346   2.54694
 Alpha virt. eigenvalues --    2.56678   2.56923   2.57988   2.59532   2.61821
 Alpha virt. eigenvalues --    2.66346   2.66844   2.67663   2.70409   2.71966
 Alpha virt. eigenvalues --    2.74153   2.78153   2.80148   2.80583   2.83779
 Alpha virt. eigenvalues --    2.84862   2.87919   2.91748   2.95792   2.98903
 Alpha virt. eigenvalues --    3.08727   3.09455   3.10916   3.12450   3.16254
 Alpha virt. eigenvalues --    3.17983   3.21125   3.21844   3.23994   3.32325
 Alpha virt. eigenvalues --    3.32569   3.32622   3.33188   3.36782   3.36870
 Alpha virt. eigenvalues --    3.37462   3.44199   3.44545   3.46027   3.48775
 Alpha virt. eigenvalues --    3.51201   3.62479   3.63419   3.64187   3.64827
 Alpha virt. eigenvalues --    3.65377   3.76913   3.80521   3.91892   3.95980
 Alpha virt. eigenvalues --    3.98155   4.01512   4.02069   4.03856   4.07303
 Alpha virt. eigenvalues --    4.08978   4.11409   4.20762   4.25549   4.34110
 Alpha virt. eigenvalues --    4.35198   4.39064   4.39242   4.44633   4.48601
 Alpha virt. eigenvalues --    4.49644   4.69779   4.80173   4.80796   4.82650
 Alpha virt. eigenvalues --    4.84578   4.88514   4.95091   5.10023   5.10866
 Alpha virt. eigenvalues --    5.24056   5.38240   5.47070   5.52640   5.75452
 Alpha virt. eigenvalues --    5.80672   5.87100   6.01518   6.12544   6.36084
 Alpha virt. eigenvalues --    6.39603   6.42325   6.61450   6.73213   6.77619
 Alpha virt. eigenvalues --    6.85288   7.02916   7.16773   7.21190   8.01446
 Alpha virt. eigenvalues --   22.46079  22.49293  22.49844  22.67587  43.66955
 Alpha virt. eigenvalues --   44.31561
          Condensed to atoms (all electrons):
               1          2          3          4          5          6
     1  C    5.018356   0.227184  -0.031969  -0.013025   0.345262  -0.022243
     2  O    0.227184   8.141768   0.007030  -0.025988  -0.048035  -0.005855
     3  O   -0.031969   0.007030   8.074338   0.287079  -0.026038   0.005197
     4  H   -0.013025  -0.025988   0.287079   0.406877   0.000159  -0.000600
     5  C    0.345262  -0.048035  -0.026038   0.000159   5.170517   0.401112
     6  H   -0.022243  -0.005855   0.005197  -0.000600   0.401112   0.497906
     7  H   -0.029216   0.005347   0.000346   0.000003   0.407146  -0.026559
     8  H   -0.032910   0.002201  -0.000366   0.000056   0.397616  -0.017659
     9  C    0.247091  -0.052740   0.009907   0.011830  -0.120107  -0.010990
    10  H   -0.020693   0.004947   0.001185  -0.000057  -0.004493   0.000453
    11  H   -0.032172  -0.006463   0.007446  -0.002383  -0.009344   0.002343
    12  H   -0.030770   0.004035  -0.002933  -0.000904   0.013959  -0.000090
    13  C    0.296077  -0.062099   0.007956  -0.001222  -0.093924   0.012402
    14  H   -0.032658   0.001481  -0.000232   0.000059  -0.012630  -0.000175
    15  H   -0.020305   0.004911  -0.000355   0.000041  -0.008142  -0.000101
    16  H   -0.028510   0.000671  -0.000193  -0.000030   0.013225  -0.000363
               7          8          9         10         11         12
     1  C   -0.029216  -0.032910   0.247091  -0.020693  -0.032172  -0.030770
     2  O    0.005347   0.002201  -0.052740   0.004947  -0.006463   0.004035
     3  O    0.000346  -0.000366   0.009907   0.001185   0.007446  -0.002933
     4  H    0.000003   0.000056   0.011830  -0.000057  -0.002383  -0.000904
     5  C    0.407146   0.397616  -0.120107  -0.004493  -0.009344   0.013959
     6  H   -0.026559  -0.017659  -0.010990   0.000453   0.002343  -0.000090
     7  H    0.543449  -0.024478  -0.003157  -0.000300   0.000227  -0.000331
     8  H   -0.024478   0.517273   0.013518  -0.000217  -0.000076  -0.000480
     9  C   -0.003157   0.013518   5.286771   0.398690   0.406308   0.393520
    10  H   -0.000300  -0.000217   0.398690   0.523365  -0.021449  -0.019958
    11  H    0.000227  -0.000076   0.406308  -0.021449   0.507834  -0.025755
    12  H   -0.000331  -0.000480   0.393520  -0.019958  -0.025755   0.523496
    13  C   -0.013948  -0.007278  -0.081212  -0.011137   0.012207  -0.009852
    14  H    0.000899   0.002666   0.013059  -0.000275  -0.000368  -0.000279
    15  H    0.001826   0.000158  -0.009565   0.001470  -0.000082   0.000396
    16  H   -0.000203  -0.000241  -0.014152   0.000765  -0.000109   0.002984
              13         14         15         16
     1  C    0.296077  -0.032658  -0.020305  -0.028510
     2  O   -0.062099   0.001481   0.004911   0.000671
     3  O    0.007956  -0.000232  -0.000355  -0.000193
     4  H   -0.001222   0.000059   0.000041  -0.000030
     5  C   -0.093924  -0.012630  -0.008142   0.013225
     6  H    0.012402  -0.000175  -0.000101  -0.000363
     7  H   -0.013948   0.000899   0.001826  -0.000203
     8  H   -0.007278   0.002666   0.000158  -0.000241
     9  C   -0.081212   0.013059  -0.009565  -0.014152
    10  H   -0.011137  -0.000275   0.001470   0.000765
    11  H    0.012207  -0.000368  -0.000082  -0.000109
    12  H   -0.009852  -0.000279   0.000396   0.002984
    13  C    5.157720   0.408118   0.398571   0.403451
    14  H    0.408118   0.504974  -0.023127  -0.020222
    15  H    0.398571  -0.023127   0.536923  -0.024177
    16  H    0.403451  -0.020222  -0.024177   0.515196
 Mulliken charges:
               1
     1  C    0.160503
     2  O   -0.198394
     3  O   -0.338397
     4  H    0.338104
     5  C   -0.426283
     6  H    0.165221
     7  H    0.138950
     8  H    0.150219
     9  C   -0.488767
    10  H    0.147704
    11  H    0.161833
    12  H    0.152962
    13  C   -0.415829
    14  H    0.158711
    15  H    0.141557
    16  H    0.151907
 Sum of Mulliken charges =   0.00000
 Mulliken charges with hydrogens summed into heavy atoms:
               1
     1  C    0.160503
     2  O   -0.198394
     3  O   -0.000292
     5  C    0.028107
     9  C   -0.026269
    13  C    0.036347
 Electronic spatial extent (au):  <R**2>=            610.1806
 Charge=              0.0000 electrons
 Dipole moment (field-independent basis, Debye):
    X=              0.8852    Y=             -1.3456    Z=              0.9727  Tot=              1.8816
 Quadrupole moment (field-independent basis, Debye-Ang):
   XX=            -36.5981   YY=            -37.3827   ZZ=            -39.9697
   XY=              3.7999   XZ=             -0.7324   YZ=              0.3826
 Traceless Quadrupole moment (field-independent basis, Debye-Ang):
   XX=              1.3854   YY=              0.6008   ZZ=             -1.9862
   XY=              3.7999   XZ=             -0.7324   YZ=              0.3826
 Octapole moment (field-independent basis, Debye-Ang**2):
  XXX=            -17.7341  YYY=             -1.5299  ZZZ=             -2.6878  XYY=             -6.5809
  XXY=             -9.7532  XXZ=             -0.1476  XZZ=             -1.7645  YZZ=              0.2668
  YYZ=             -3.3643  XYZ=             -1.3155
 Hexadecapole moment (field-independent basis, Debye-Ang**3):
 XXXX=           -337.9193 YYYY=           -223.3587 ZZZZ=           -214.4559 XXXY=             25.2810
 XXXZ=              9.4463 YYYX=              3.4589 YYYZ=              1.1192 ZZZX=              1.8666
 ZZZY=              0.0316 XXYY=            -93.2508 XXZZ=            -94.0010 YYZZ=            -72.7648
 XXYZ=              3.0607 YYXZ=              0.1866 ZZXY=              0.8385
 N-N= 2.695009816518D+02 E-N=-1.261031859159D+03  KE= 3.071384153371D+02
 No NMR shielding tensors so no spin-rotation constants.
 Leave Link  601 at Tue Oct  6 19:38:57 2015, MaxMem=  3758096384 cpu:         3.5
 (Enter /home/hetanjin/apps/g09D01/g09/l9999.exe)
 1\1\GINC-COMPUTE-0-15\SP\RM062X\def2TZVP\C4H10O2\HETANJIN\06-Oct-2015\
 0\\#p M062X/def2TZVP\\using ub3lyp/6-31G(d) to scan\\0,1\C,0,0.387221,
 0.000318,0.036019\O,0,-0.726277,-0.055808,-0.891099\O,0,-1.972813,0.10
 6256,-0.153695\H,0,-2.339785,-0.790216,-0.251594\C,0,0.409531,1.356285
 ,0.748776\H,0,-0.489915,1.485819,1.35651\H,0,1.284915,1.432314,1.40378
 2\H,0,0.451366,2.169271,0.016521\C,0,0.310887,-1.16455,1.029593\H,0,1.
 187818,-1.170641,1.686131\H,0,-0.581058,-1.078966,1.657292\H,0,0.27660
 1,-2.121966,0.496903\C,0,1.583921,-0.152348,-0.910368\H,0,1.592126,0.6
 52704,-1.651755\H,0,2.518214,-0.109724,-0.340788\H,0,1.543083,-1.11042
 ,-1.438771\\Version=ES64L-G09RevD.01\State=1-A\HF=-308.7857865\RMSD=5.
 583e-09\Dipole=0.3482788,-0.529381,0.3826824\Quadrupole=1.029978,0.446
 7,-1.476678,2.825128,-0.5445125,0.2844452\PG=C01 [X(C4H10O2)]\\@


 IF YOU WANT TO LEARN FROM THE THEORETICAL PHYSICISTS ABOUT THE
 METHODS WHICH THEY USE, I ADVISE YOU TO FOLLOW THIS PRINCIPLE VERY STRICTLY:
 DON'T LISTEN TO THEIR WORDS; PAY ATTENTION, INSTEAD, TO THEIR ACTIONS.
 -- A.EINSTEIN, 1934
 Job cpu time:       0 days  0 hours  5 minutes 28.8 seconds.
 File lengths (MBytes):  RWF=     26 Int=      0 D2E=      0 Chk=      4 Scr=      1
 Normal termination of Gaussian 09 at Tue Oct  6 19:38:57 2015.
