 Entering Gaussian System, Link 0=g09
 Initial command:
 /usr/caen/gaussian-09revc/g09/l1.exe /scratch/avioli_flux/hetanjin/scratch/Gau-14391.inp -scrdir=/scratch/avioli_flux/hetanjin/scratch/
 Entering Link 1 = /usr/caen/gaussian-09revc/g09/l1.exe PID=     14392.
  
 Copyright (c) 1988,1990,1992,1993,1995,1998,2003,2009,2011,
            Gaussian, Inc.  All Rights Reserved.
  
 This is part of the Gaussian(R) 09 program.  It is based on
 the Gaussian(R) 03 system (copyright 2003, Gaussian, Inc.),
 the Gaussian(R) 98 system (copyright 1998, Gaussian, Inc.),
 the Gaussian(R) 94 system (copyright 1995, Gaussian, Inc.),
 the Gaussian 92(TM) system (copyright 1992, Gaussian, Inc.),
 the Gaussian 90(TM) system (copyright 1990, Gaussian, Inc.),
 the Gaussian 88(TM) system (copyright 1988, Gaussian, Inc.),
 the Gaussian 86(TM) system (copyright 1986, Carnegie Mellon
 University), and the Gaussian 82(TM) system (copyright 1983,
 Carnegie Mellon University). Gaussian is a federally registered
 trademark of Gaussian, Inc.
  
 This software contains proprietary and confidential information,
 including trade secrets, belonging to Gaussian, Inc.
  
 This software is provided under written license and may be
 used, copied, transmitted, or stored only in accord with that
 written license.
  
 The following legend is applicable only to US Government
 contracts under FAR:
  
                    RESTRICTED RIGHTS LEGEND
  
 Use, reproduction and disclosure by the US Government is
 subject to restrictions as set forth in subparagraphs (a)
 and (c) of the Commercial Computer Software - Restricted
 Rights clause in FAR 52.227-19.
  
 Gaussian, Inc.
 340 Quinnipiac St., Bldg. 40, Wallingford CT 06492
  
  
 ---------------------------------------------------------------
 Warning -- This program may not be used in any manner that
 competes with the business of Gaussian, Inc. or will provide
 assistance to any competitor of Gaussian, Inc.  The licensee
 of this program is prohibited from giving any competitor of
 Gaussian, Inc. access to this program.  By using this program,
 the user acknowledges that Gaussian, Inc. is engaged in the
 business of creating and licensing software in the field of
 computational chemistry and represents and warrants to the
 licensee that it is not a competitor of Gaussian, Inc. and that
 it will not use this program in any manner prohibited above.
 ---------------------------------------------------------------
  

 Cite this work as:
 Gaussian 09, Revision C.01,
 M. J. Frisch, G. W. Trucks, H. B. Schlegel, G. E. Scuseria, 
 M. A. Robb, J. R. Cheeseman, G. Scalmani, V. Barone, B. Mennucci, 
 G. A. Petersson, H. Nakatsuji, M. Caricato, X. Li, H. P. Hratchian, 
 A. F. Izmaylov, J. Bloino, G. Zheng, J. L. Sonnenberg, M. Hada, 
 M. Ehara, K. Toyota, R. Fukuda, J. Hasegawa, M. Ishida, T. Nakajima, 
 Y. Honda, O. Kitao, H. Nakai, T. Vreven, J. A. Montgomery, Jr., 
 J. E. Peralta, F. Ogliaro, M. Bearpark, J. J. Heyd, E. Brothers, 
 K. N. Kudin, V. N. Staroverov, T. Keith, R. Kobayashi, J. Normand, 
 K. Raghavachari, A. Rendell, J. C. Burant, S. S. Iyengar, J. Tomasi, 
 M. Cossi, N. Rega, J. M. Millam, M. Klene, J. E. Knox, J. B. Cross, 
 V. Bakken, C. Adamo, J. Jaramillo, R. Gomperts, R. E. Stratmann, 
 O. Yazyev, A. J. Austin, R. Cammi, C. Pomelli, J. W. Ochterski, 
 R. L. Martin, K. Morokuma, V. G. Zakrzewski, G. A. Voth, 
 P. Salvador, J. J. Dannenberg, S. Dapprich, A. D. Daniels, 
 O. Farkas, J. B. Foresman, J. V. Ortiz, J. Cioslowski, 
 and D. J. Fox, Gaussian, Inc., Wallingford CT, 2010.
 
 ******************************************
 Gaussian 09:  EM64L-G09RevC.01 23-Sep-2011
                 7-Feb-2014 
 ******************************************
 %mem=30GB
 %nprocshared=8
 Will use up to    8 processors via shared memory.
 %chk=C9H18OOH_1_26_g.chk
 --------------------------------------------------
 #p UB3LYP/6-311++G(d,p) guess=mix stable=(opt,xqc)
 --------------------------------------------------
 1/38=1/1;
 2/12=2,17=6,18=5,40=1/2;
 3/5=4,6=6,7=1111,11=2,16=1,25=1,30=1,74=-5,116=2/1,2,3;
 4/13=-1/1;
 5/5=2,38=5/2;
 6/7=2,8=2,9=2,10=2,28=1/1;
 8/6=1,10=90,11=11/1;
 9/8=-3,42=1,46=1/14;
 5/5=2,8=3,13=1,17=40,38=5/2,8(-2);
 6/7=2,8=2,9=2,10=2,28=1/1;
 99/5=1,9=1/99;
 Leave Link    1 at Fri Feb  7 22:32:32 2014, MaxMem= 4026531840 cpu:       0.6
 (Enter /usr/caen/gaussian-09revc/g09/l101.exe)
 --------------------------------------------
 C9H18OOH_1_26_g using cbs-qb3 to cal. energy
 --------------------------------------------
 Charge =  0 Multiplicity = 2
 Symbolic Z-Matrix:
 C                    -3.09376  -1.67661  -0.35562 
 H                    -2.7901   -2.6663   -0.70722 
 H                    -3.39078  -1.08422  -1.22467 
 H                    -3.97663  -1.80279   0.27891 
 C                    -1.94858  -0.99318   0.40558 
 H                    -1.70559  -1.61223   1.28268 
 C                    -0.67844  -0.90699  -0.46387 
 H                    -0.48415  -1.91063  -0.86288 
 H                    -0.8754   -0.26533  -1.3288 
 C                     0.57966  -0.41621   0.26157 
 H                     0.7463   -1.01429   1.16624 
 H                     0.44176   0.61812   0.58898 
 C                     1.84462  -0.49387  -0.6251 
 H                     1.6404    0.06689  -1.5512 
 H                     1.99597  -1.53709  -0.92668 
 C                     3.08829   0.03449   0.02998 
 C                     4.24489  -0.87669   0.28978 
 H                     4.89651  -0.97866  -0.59718 
 H                     4.88322  -0.50563   1.09902 
 H                     3.91664  -1.88759   0.55172 
 C                    -2.41488   0.34468   0.996 
 H                    -3.27663   0.17126   1.65069 
 H                    -1.63336   0.83518   1.58357 
 C                     3.31221   1.513     0.07704 
 H                     3.92612   1.80799   0.93516 
 H                     3.84295   1.87204  -0.82316 
 H                     2.37142   2.06928   0.12627 
 O                    -2.94052   1.27678   0.04663 
 O                    -1.81748   1.94619  -0.606 
 H                    -2.0687    2.86848  -0.45864 
 
 NAtoms=     30 NQM=        0 NQMF=       0 NMMI=     30 NMMIF=      0
                NMic=       0 NMicF=      0.
                    Isotopes and Nuclear Properties:
 (Nuclear quadrupole moments (NQMom) in fm**2, nuclear magnetic moments (NMagM)
  in nuclear magnetons)

  Atom         1           2           3           4           5           6           7           8           9          10
 IAtWgt=          12           1           1           1          12           1          12           1           1          12
 AtmWgt=  12.0000000   1.0078250   1.0078250   1.0078250  12.0000000   1.0078250  12.0000000   1.0078250   1.0078250  12.0000000
 NucSpn=           0           1           1           1           0           1           0           1           1           0
 AtZEff=   0.0000000   0.0000000   0.0000000   0.0000000   0.0000000   0.0000000   0.0000000   0.0000000   0.0000000   0.0000000
 NQMom=    0.0000000   0.0000000   0.0000000   0.0000000   0.0000000   0.0000000   0.0000000   0.0000000   0.0000000   0.0000000
 NMagM=    0.0000000   2.7928460   2.7928460   2.7928460   0.0000000   2.7928460   0.0000000   2.7928460   2.7928460   0.0000000

  Atom        11          12          13          14          15          16          17          18          19          20
 IAtWgt=           1           1          12           1           1          12          12           1           1           1
 AtmWgt=   1.0078250   1.0078250  12.0000000   1.0078250   1.0078250  12.0000000  12.0000000   1.0078250   1.0078250   1.0078250
 NucSpn=           1           1           0           1           1           0           0           1           1           1
 AtZEff=   0.0000000   0.0000000   0.0000000   0.0000000   0.0000000   0.0000000   0.0000000   0.0000000   0.0000000   0.0000000
 NQMom=    0.0000000   0.0000000   0.0000000   0.0000000   0.0000000   0.0000000   0.0000000   0.0000000   0.0000000   0.0000000
 NMagM=    2.7928460   2.7928460   0.0000000   2.7928460   2.7928460   0.0000000   0.0000000   2.7928460   2.7928460   2.7928460

  Atom        21          22          23          24          25          26          27          28          29          30
 IAtWgt=          12           1           1          12           1           1           1          16          16           1
 AtmWgt=  12.0000000   1.0078250   1.0078250  12.0000000   1.0078250   1.0078250   1.0078250  15.9949146  15.9949146   1.0078250
 NucSpn=           0           1           1           0           1           1           1           0           0           1
 AtZEff=   0.0000000   0.0000000   0.0000000   0.0000000   0.0000000   0.0000000   0.0000000   0.0000000   0.0000000   0.0000000
 NQMom=    0.0000000   0.0000000   0.0000000   0.0000000   0.0000000   0.0000000   0.0000000   0.0000000   0.0000000   0.0000000
 NMagM=    0.0000000   2.7928460   2.7928460   0.0000000   2.7928460   2.7928460   2.7928460   0.0000000   0.0000000   2.7928460
 Leave Link  101 at Fri Feb  7 22:32:33 2014, MaxMem= 4026531840 cpu:       0.5
 (Enter /usr/caen/gaussian-09revc/g09/l202.exe)
                          Input orientation:                          
 ---------------------------------------------------------------------
 Center     Atomic      Atomic             Coordinates (Angstroms)
 Number     Number       Type             X           Y           Z
 ---------------------------------------------------------------------
      1          6           0       -3.093760   -1.676611   -0.355624
      2          1           0       -2.790104   -2.666297   -0.707223
      3          1           0       -3.390778   -1.084216   -1.224669
      4          1           0       -3.976631   -1.802794    0.278914
      5          6           0       -1.948578   -0.993177    0.405579
      6          1           0       -1.705586   -1.612230    1.282675
      7          6           0       -0.678438   -0.906987   -0.463873
      8          1           0       -0.484145   -1.910634   -0.862884
      9          1           0       -0.875396   -0.265329   -1.328796
     10          6           0        0.579660   -0.416213    0.261568
     11          1           0        0.746299   -1.014285    1.166240
     12          1           0        0.441760    0.618115    0.588983
     13          6           0        1.844616   -0.493866   -0.625097
     14          1           0        1.640403    0.066887   -1.551200
     15          1           0        1.995967   -1.537085   -0.926678
     16          6           0        3.088294    0.034491    0.029984
     17          6           0        4.244888   -0.876692    0.289782
     18          1           0        4.896511   -0.978662   -0.597177
     19          1           0        4.883215   -0.505634    1.099019
     20          1           0        3.916644   -1.887588    0.551723
     21          6           0       -2.414878    0.344682    0.996000
     22          1           0       -3.276632    0.171264    1.650692
     23          1           0       -1.633361    0.835182    1.583566
     24          6           0        3.312208    1.513002    0.077037
     25          1           0        3.926124    1.807987    0.935155
     26          1           0        3.842953    1.872043   -0.823164
     27          1           0        2.371416    2.069278    0.126265
     28          8           0       -2.940519    1.276784    0.046634
     29          8           0       -1.817484    1.946185   -0.606001
     30          1           0       -2.068701    2.868475   -0.458641
 ---------------------------------------------------------------------
                    Distance matrix (angstroms):
                    1          2          3          4          5
     1  C    0.000000
     2  H    1.093301   0.000000
     3  H    1.092882   1.769616   0.000000
     4  H    1.094542   1.768036   1.766448   0.000000
     5  C    1.535563   2.178491   2.178517   2.187355   0.000000
     6  H    2.148301   2.499386   3.066830   2.490280   1.100713
     7  C    2.537286   2.759262   2.822589   3.497468   1.541633
     8  H    2.668739   2.431605   3.043414   3.675975   2.143663
     9  H    2.803555   3.133226   2.647369   3.816568   2.165534
    10  C    3.932371   4.166143   4.291795   4.762635   2.597232
    11  H    4.183396   4.329567   4.778780   4.869822   2.800252
    12  H    4.319485   4.786696   4.568984   5.047685   2.888532
    13  C    5.085180   5.119261   5.302580   6.034687   3.962313
    14  H    5.184736   5.273707   5.171503   6.196458   4.222973
    15  H    5.123562   4.922373   5.413955   6.098851   4.198831
    16  C    6.426068   6.511013   6.693582   7.304160   5.154343
    17  C    7.410275   7.327197   7.787170   8.273521   6.195644
    18  H    8.024332   7.870468   8.311681   8.954294   6.918163
    19  H    8.192637   8.173787   8.613550   8.991778   6.884181
    20  H    7.072026   6.868173   7.563028   7.898443   5.934826
    21  C    2.524558   3.479620   2.815227   2.750443   1.534894
    22  H    2.733750   3.721320   3.139580   2.503733   2.161008
    23  H    3.493183   4.341212   3.828680   3.761908   2.197706
    24  C    7.169188   7.437729   7.305477   8.010146   5.836501
    25  H    7.942752   8.235553   8.158844   8.713319   6.529862
    26  H    7.805737   8.037874   7.824803   8.710046   6.577319
    27  H    6.643196   7.054195   6.706148   7.437334   5.302735
    28  O    2.984600   4.017314   2.719056   3.257496   2.503100
    29  O    3.849184   4.715000   3.470063   4.415862   3.111323
    30  H    4.660383   5.587121   4.237741   5.099504   3.958998
                    6          7          8          9         10
     6  H    0.000000
     7  C    2.145421   0.000000
     8  H    2.486843   1.097391   0.000000
     9  H    3.053381   1.094810   1.754189   0.000000
    10  C    2.774070   1.532950   2.151597   2.160836   0.000000
    11  H    2.526427   2.167639   2.536686   3.068556   1.097219
    12  H    3.172813   2.165476   3.059377   2.488624   1.093641
    13  C    4.182615   2.561731   2.736220   2.818845   1.546712
    14  H    4.695309   2.740024   2.982964   2.547366   2.155154
    15  H    4.311425   2.786333   2.508897   3.166037   2.161992
    16  C    5.221323   3.913891   4.164498   4.200835   2.559299
    17  C    6.077417   4.980768   4.976086   5.404708   3.694149
    18  H    6.893688   5.577003   5.467232   5.861657   4.437228
    19  H    6.683606   5.791002   5.884865   6.254089   4.385192
    20  H    5.676230   4.807056   4.622617   5.397381   3.658496
    21  C    2.101138   2.590971   3.502803   2.854259   3.175785
    22  H    2.405093   3.519179   4.295387   3.851480   4.140747
    23  H    2.466896   2.852900   3.852963   3.204292   2.865507
    24  C    6.033150   4.698317   5.197791   4.761812   3.350036
    25  H    6.598092   5.525428   6.042480   5.699009   4.074261
    26  H    6.881933   5.319311   5.747521   5.204502   4.130598
    27  H    5.613620   4.302095   4.997234   4.255512   3.066979
    28  O    3.376279   3.185355   4.125607   2.921413   3.912045
    29  O    4.030128   3.075421   4.088867   2.510131   3.475615
    30  H    4.820866   4.023304   5.051150   3.464372   4.280385
                   11         12         13         14         15
    11  H    0.000000
    12  H    1.758039   0.000000
    13  C    2.164723   2.162983   0.000000
    14  H    3.058241   2.514156   1.101732   0.000000
    15  H    2.493049   3.059032   1.096432   1.757606   0.000000
    16  C    2.806412   2.767172   1.501675   2.144197   2.139680
    17  C    3.609326   4.097286   2.597088   3.326094   2.640746
    18  H    4.509453   4.878676   3.090286   3.550433   2.972131
    19  H    4.168611   4.609715   3.493680   4.226969   3.674716
    20  H    3.345352   4.284245   2.760555   3.663814   2.448984
    21  C    3.445114   2.898415   4.634049   4.796947   5.166555
    22  H    4.221871   3.892729   5.643474   5.868581   6.112413
    23  H    3.042609   2.311372   4.329074   4.597235   5.010090
    24  C    3.762636   3.049981   2.583474   2.745421   3.470298
    25  H    4.257923   3.698165   3.473556   3.799725   4.287358
    26  H    4.677380   3.890322   3.103241   2.939362   3.878689
    27  H    3.637432   2.458364   2.722457   2.712534   3.775646
    28  O    4.482761   3.488237   5.146255   5.000177   5.764901
    29  O    4.298628   2.880267   4.400590   4.047486   5.174786
    30  H    5.063624   3.530446   5.162082   4.774938   6.012449
                   16         17         18         19         20
    16  C    0.000000
    17  C    1.495145   0.000000
    18  H    2.165516   1.105308   0.000000
    19  H    2.157849   1.095450   1.760969   0.000000
    20  H    2.157026   1.094654   1.762458   1.773017   0.000000
    21  C    5.595919   6.807568   7.599070   7.348184   6.728193
    22  H    6.569451   7.715151   8.554269   8.206439   7.562395
    23  H    5.034754   6.257651   7.119333   6.670707   6.267434
    24  C    1.496110   2.574061   3.028691   2.754524   3.486357
    25  H    2.160227   2.779500   3.324922   2.509127   3.715425
    26  H    2.161936   2.992615   3.047552   3.229594   4.003819
    27  H    2.159524   3.495050   4.023607   3.726333   4.269137
    28  O    6.155498   7.505108   8.180499   8.092919   7.568953
    29  O    5.303368   6.747104   7.323424   7.336067   6.994166
    30  H    5.904644   7.378877   7.958256   7.882896   7.711376
                   21         22         23         24         25
    21  C    0.000000
    22  H    1.096045   0.000000
    23  H    1.093889   1.773593   0.000000
    24  C    5.916839   6.905756   5.214185   0.000000
    25  H    6.507939   7.420953   5.681079   1.095571   0.000000
    26  H    6.693477   7.726649   6.071033   1.104972   1.761450
    27  H    5.161325   6.150348   4.436773   1.094055   1.771918
    28  O    1.430527   1.976904   2.065390   6.257261   6.944237
    29  O    2.342669   3.220578   2.462201   5.193065   5.948386
    30  H    2.933488   3.630886   2.914517   5.574804   6.245417
                   26         27         28         29         30
    26  H    0.000000
    27  H    1.762310   0.000000
    28  O    6.864865   5.371317   0.000000
    29  O    5.665086   4.254204   1.461245   0.000000
    30  H    6.006114   4.549227   1.883839   0.967183   0.000000
 Stoichiometry    C9H19O2(2)
 Framework group  C1[X(C9H19O2)]
 Deg. of freedom    84
 Full point group                 C1      NOp   1
 Largest Abelian subgroup         C1      NOp   1
 Largest concise Abelian subgroup C1      NOp   1
                         Standard orientation:                         
 ---------------------------------------------------------------------
 Center     Atomic      Atomic             Coordinates (Angstroms)
 Number     Number       Type             X           Y           Z
 ---------------------------------------------------------------------
      1          6           0       -3.093760   -1.676611   -0.355624
      2          1           0       -2.790104   -2.666297   -0.707223
      3          1           0       -3.390778   -1.084216   -1.224669
      4          1           0       -3.976631   -1.802794    0.278914
      5          6           0       -1.948578   -0.993177    0.405579
      6          1           0       -1.705586   -1.612230    1.282675
      7          6           0       -0.678438   -0.906987   -0.463873
      8          1           0       -0.484145   -1.910634   -0.862884
      9          1           0       -0.875396   -0.265329   -1.328796
     10          6           0        0.579660   -0.416213    0.261568
     11          1           0        0.746299   -1.014285    1.166240
     12          1           0        0.441760    0.618115    0.588983
     13          6           0        1.844616   -0.493866   -0.625097
     14          1           0        1.640403    0.066887   -1.551200
     15          1           0        1.995967   -1.537085   -0.926678
     16          6           0        3.088294    0.034491    0.029984
     17          6           0        4.244888   -0.876692    0.289782
     18          1           0        4.896511   -0.978662   -0.597177
     19          1           0        4.883215   -0.505634    1.099019
     20          1           0        3.916644   -1.887588    0.551723
     21          6           0       -2.414878    0.344682    0.996000
     22          1           0       -3.276632    0.171264    1.650692
     23          1           0       -1.633361    0.835182    1.583566
     24          6           0        3.312208    1.513002    0.077037
     25          1           0        3.926124    1.807987    0.935155
     26          1           0        3.842953    1.872043   -0.823164
     27          1           0        2.371416    2.069278    0.126265
     28          8           0       -2.940519    1.276784    0.046634
     29          8           0       -1.817484    1.946185   -0.606001
     30          1           0       -2.068701    2.868475   -0.458641
 ---------------------------------------------------------------------
 Rotational constants (GHZ):      1.7900114      0.4397987      0.3799604
 Leave Link  202 at Fri Feb  7 22:32:33 2014, MaxMem= 4026531840 cpu:       0.3
 (Enter /usr/caen/gaussian-09revc/g09/l301.exe)
 Standard basis: 6-311++G(d,p) (5D, 7F)
 Ernie: Thresh=  0.10000D-02 Tol=  0.10000D-05 Strict=F.
 There are   375 symmetry adapted basis functions of A   symmetry.
 Integral buffers will be    131072 words long.
 Raffenetti 2 integral format.
 Two-electron integral symmetry is turned on.
   375 basis functions,   567 primitive gaussians,   386 cartesian basis functions
    45 alpha electrons       44 beta electrons
       nuclear repulsion energy       647.3485358859 Hartrees.
 IExCor=  402 DFT=T Ex+Corr=B3LYP ExCW=0 ScaHFX=  0.200000
 ScaDFX=  0.800000  0.720000  1.000000  0.810000 ScalE2=  1.000000  1.000000
 IRadAn=      0 IRanWt=     -1 IRanGd=            0 ICorTp=0
 NAtoms=   30 NActive=   30 NUniq=   30 SFac= 1.00D+00 NAtFMM=   60 NAOKFM=F Big=F
 Leave Link  301 at Fri Feb  7 22:32:33 2014, MaxMem= 4026531840 cpu:       0.7
 (Enter /usr/caen/gaussian-09revc/g09/l302.exe)
 NPDir=0 NMtPBC=     1 NCelOv=     1 NCel=       1 NClECP=     1 NCelD=      1
         NCelK=      1 NCelE2=     1 NClLst=     1 CellRange=     0.0.
 One-electron integrals computed using PRISM.
 NBasis=   375 RedAO= T  NBF=   375
 NBsUse=   375 1.00D-06 NBFU=   375
 Precomputing XC quadrature grid using
 IXCGrd= 2 IRadAn=           0 IRanWt=          -1 IRanGd=           0 AccXCQ= 0.00D+00.
 NRdTot=    1959 NPtTot=      249976 NUsed=      264092 NTot=      264124
 NSgBfM=   386   386   386   386   386 NAtAll=    30    30.
 Leave Link  302 at Fri Feb  7 22:32:35 2014, MaxMem= 4026531840 cpu:       6.5
 (Enter /usr/caen/gaussian-09revc/g09/l303.exe)
 DipDrv:  MaxL=1.
 Leave Link  303 at Fri Feb  7 22:32:35 2014, MaxMem= 4026531840 cpu:       1.7
 (Enter /usr/caen/gaussian-09revc/g09/l401.exe)
 Harris functional with IExCor=  402 diagonalized for initial guess.
 ExpMin= 3.60D-02 ExpMax= 8.59D+03 ExpMxC= 1.30D+03 IAcc=3 IRadAn=         5 AccDes= 0.00D+00
 HarFok:  IExCor=  402 AccDes= 0.00D+00 IRadAn=         5 IDoV= 1
 ScaDFX=  1.000000  1.000000  1.000000  1.000000
 FoFCou: FMM=F IPFlag=           0 FMFlag=      100000 FMFlg1=           0
         NFxFlg=           0 DoJE=T BraDBF=F KetDBF=T FulRan=T
         Omega=  0.000000  0.000000  1.000000  0.000000  0.000000 ICntrl=     500 IOpCl=  0
         NMat0=    1 NMatS0=    1 NMatT0=    0 NMatD0=    1 NMtDS0=    0 NMtDT0=    0
         I1Cent=           4 NGrid=           0.
 Petite list used in FoFCou.
 Harris En= -504.915970499308    
 Mixing orbitals, IMix= 1 IMixAn=  0 NRI=1 NE=   45 Coef=  7.07106781D-01  7.07106781D-01
 Mixing orbitals, IMix= 1 IMixAn=  0 NRI=1 NE=   44 Coef= -7.07106781D-01  7.07106781D-01
 Initial guess orbital symmetries:
 Alpha Orbitals:
       Occupied  (A) (A) (A) (A) (A) (A) (A) (A) (A) (A) (A) (A)
                 (A) (A) (A) (A) (A) (A) (A) (A) (A) (A) (A) (A)
                 (A) (A) (A) (A) (A) (A) (A) (A) (A) (A) (A) (A)
                 (A) (A) (A) (A) (A) (A) (A) (A) (A)
       Virtual   (A) (A) (A) (A) (A) (A) (A) (A) (A) (A) (A) (A)
                 (A) (A) (A) (A) (A) (A) (A) (A) (A) (A) (A) (A)
                 (A) (A) (A) (A) (A) (A) (A) (A) (A) (A) (A) (A)
                 (A) (A) (A) (A) (A) (A) (A) (A) (A) (A) (A) (A)
                 (A) (A) (A) (A) (A) (A) (A) (A) (A) (A) (A) (A)
                 (A) (A) (A) (A) (A) (A) (A) (A) (A) (A) (A) (A)
                 (A) (A) (A) (A) (A) (A) (A) (A) (A) (A) (A) (A)
                 (A) (A) (A) (A) (A) (A) (A) (A) (A) (A) (A) (A)
                 (A) (A) (A) (A) (A) (A) (A) (A) (A) (A) (A) (A)
                 (A) (A) (A) (A) (A) (A) (A) (A) (A) (A) (A) (A)
                 (A) (A) (A) (A) (A) (A) (A) (A) (A) (A) (A) (A)
                 (A) (A) (A) (A) (A) (A) (A) (A) (A) (A) (A) (A)
                 (A) (A) (A) (A) (A) (A) (A) (A) (A) (A) (A) (A)
                 (A) (A) (A) (A) (A) (A) (A) (A) (A) (A) (A) (A)
                 (A) (A) (A) (A) (A) (A) (A) (A) (A) (A) (A) (A)
                 (A) (A) (A) (A) (A) (A) (A) (A) (A) (A) (A) (A)
                 (A) (A) (A) (A) (A) (A) (A) (A) (A) (A) (A) (A)
                 (A) (A) (A) (A) (A) (A) (A) (A) (A) (A) (A) (A)
                 (A) (A) (A) (A) (A) (A) (A) (A) (A) (A) (A) (A)
                 (A) (A) (A) (A) (A) (A) (A) (A) (A) (A) (A) (A)
                 (A) (A) (A) (A) (A) (A) (A) (A) (A) (A) (A) (A)
                 (A) (A) (A) (A) (A) (A) (A) (A) (A) (A) (A) (A)
                 (A) (A) (A) (A) (A) (A) (A) (A) (A) (A) (A) (A)
                 (A) (A) (A) (A) (A) (A) (A) (A) (A) (A) (A) (A)
                 (A) (A) (A) (A) (A) (A) (A) (A) (A) (A) (A) (A)
                 (A) (A) (A) (A) (A) (A) (A) (A) (A) (A) (A) (A)
                 (A) (A) (A) (A) (A) (A) (A) (A) (A) (A) (A) (A)
                 (A) (A) (A) (A) (A) (A)
 Beta  Orbitals:
       Occupied  (A) (A) (A) (A) (A) (A) (A) (A) (A) (A) (A) (A)
                 (A) (A) (A) (A) (A) (A) (A) (A) (A) (A) (A) (A)
                 (A) (A) (A) (A) (A) (A) (A) (A) (A) (A) (A) (A)
                 (A) (A) (A) (A) (A) (A) (A) (A)
       Virtual   (A) (A) (A) (A) (A) (A) (A) (A) (A) (A) (A) (A)
                 (A) (A) (A) (A) (A) (A) (A) (A) (A) (A) (A) (A)
                 (A) (A) (A) (A) (A) (A) (A) (A) (A) (A) (A) (A)
                 (A) (A) (A) (A) (A) (A) (A) (A) (A) (A) (A) (A)
                 (A) (A) (A) (A) (A) (A) (A) (A) (A) (A) (A) (A)
                 (A) (A) (A) (A) (A) (A) (A) (A) (A) (A) (A) (A)
                 (A) (A) (A) (A) (A) (A) (A) (A) (A) (A) (A) (A)
                 (A) (A) (A) (A) (A) (A) (A) (A) (A) (A) (A) (A)
                 (A) (A) (A) (A) (A) (A) (A) (A) (A) (A) (A) (A)
                 (A) (A) (A) (A) (A) (A) (A) (A) (A) (A) (A) (A)
                 (A) (A) (A) (A) (A) (A) (A) (A) (A) (A) (A) (A)
                 (A) (A) (A) (A) (A) (A) (A) (A) (A) (A) (A) (A)
                 (A) (A) (A) (A) (A) (A) (A) (A) (A) (A) (A) (A)
                 (A) (A) (A) (A) (A) (A) (A) (A) (A) (A) (A) (A)
                 (A) (A) (A) (A) (A) (A) (A) (A) (A) (A) (A) (A)
                 (A) (A) (A) (A) (A) (A) (A) (A) (A) (A) (A) (A)
                 (A) (A) (A) (A) (A) (A) (A) (A) (A) (A) (A) (A)
                 (A) (A) (A) (A) (A) (A) (A) (A) (A) (A) (A) (A)
                 (A) (A) (A) (A) (A) (A) (A) (A) (A) (A) (A) (A)
                 (A) (A) (A) (A) (A) (A) (A) (A) (A) (A) (A) (A)
                 (A) (A) (A) (A) (A) (A) (A) (A) (A) (A) (A) (A)
                 (A) (A) (A) (A) (A) (A) (A) (A) (A) (A) (A) (A)
                 (A) (A) (A) (A) (A) (A) (A) (A) (A) (A) (A) (A)
                 (A) (A) (A) (A) (A) (A) (A) (A) (A) (A) (A) (A)
                 (A) (A) (A) (A) (A) (A) (A) (A) (A) (A) (A) (A)
                 (A) (A) (A) (A) (A) (A) (A) (A) (A) (A) (A) (A)
                 (A) (A) (A) (A) (A) (A) (A) (A) (A) (A) (A) (A)
                 (A) (A) (A) (A) (A) (A) (A)
 The electronic state of the initial guess is 2-A.
 Initial guess <Sx>= 0.0000 <Sy>= 0.0000 <Sz>= 0.5000 <S**2>= 1.0000 S= 0.6180
 Leave Link  401 at Fri Feb  7 22:32:41 2014, MaxMem= 4026531840 cpu:      40.2
 (Enter /usr/caen/gaussian-09revc/g09/l502.exe)
 UHF open shell SCF:
 Requested convergence on RMS density matrix=1.00D-08 within 128 cycles.
 Requested convergence on MAX density matrix=1.00D-06.
 Requested convergence on             energy=1.00D-06.
 No special actions if energy rises.
 Using DIIS extrapolation, IDIIS=  1040.
 Integral symmetry usage will be decided dynamically.
       263809 words used for storage of precomputed grid.
 IEnd=      734943 IEndB=      734943 NGot=  4026531840 MDV=  4025962920
 LenX=  4025962920 LenY=  4025813483
 Fock matrices will be formed incrementally for  20 cycles.

 Cycle   1  Pass 1  IDiag  1:
 FoFCou: FMM=F IPFlag=           0 FMFlag=      100000 FMFlg1=           0
         NFxFlg=           0 DoJE=F BraDBF=F KetDBF=F FulRan=T
         Omega=  0.000000  0.000000  1.000000  0.000000  0.000000 ICntrl=       0 IOpCl=  1
         NMat0=    1 NMatS0=    1 NMatT0=    0 NMatD0=    1 NMtDS0=    0 NMtDT0=    0
         I1Cent=           0 NGrid=           0.
 Symmetry not used in FoFCou.
 E= -504.346925048165    
 DIIS: error= 3.03D-02 at cycle   1 NSaved=   1.
 NSaved= 1 IEnMin= 1 EnMin= -504.346925048165     IErMin= 1 ErrMin= 3.03D-02
 ErrMax= 3.03D-02 EMaxC= 1.00D-01 BMatC= 1.55D+00 BMatP= 1.55D+00
 IDIUse=3 WtCom= 6.97D-01 WtEn= 3.03D-01
 Coeff-Com:  0.100D+01
 Coeff-En:   0.100D+01
 Coeff:      0.100D+01
 Gap=     0.019 Goal=   None    Shift=    0.000
 Gap=     0.018 Goal=   None    Shift=    0.000
 GapD=    0.018 DampG=0.250 DampE=0.500 DampFc=0.2500 IDamp=-1.
 Damping current iteration by 2.50D-01
 RMSDP=4.01D-02 MaxDP=4.83D+00              OVMax= 6.66D-01

 Cycle   2  Pass 1  IDiag  1:
 RMSU=  9.14D-03    CP:  8.81D-01
 E= -504.488905741956     Delta-E=       -0.141980693791 Rises=F Damp=T
 DIIS: error= 1.40D-02 at cycle   2 NSaved=   2.
 NSaved= 2 IEnMin= 2 EnMin= -504.488905741956     IErMin= 2 ErrMin= 1.40D-02
 ErrMax= 1.40D-02 EMaxC= 1.00D-01 BMatC= 3.76D-01 BMatP= 1.55D+00
 IDIUse=3 WtCom= 8.60D-01 WtEn= 1.40D-01
 Coeff-Com: -0.674D+00 0.167D+01
 Coeff-En:   0.000D+00 0.100D+01
 Coeff:     -0.580D+00 0.158D+01
 Gap=    -0.062 Goal=   None    Shift=    0.000
 Gap=     0.280 Goal=   None    Shift=    0.000
 RMSDP=1.30D-02 MaxDP=1.32D+00 DE=-1.42D-01 OVMax= 9.54D-01

 Cycle   3  Pass 1  IDiag  1:
 RMSU=  6.86D-03    CP:  6.74D-01  1.53D-01
 E= -504.195041215984     Delta-E=        0.293864525972 Rises=F Damp=F
 DIIS: error= 2.79D-02 at cycle   3 NSaved=   3.
 NSaved= 3 IEnMin= 2 EnMin= -504.488905741956     IErMin= 2 ErrMin= 1.40D-02
 ErrMax= 2.79D-02 EMaxC= 1.00D-01 BMatC= 1.54D+00 BMatP= 3.76D-01
 IDIUse=2 WtCom= 0.00D+00 WtEn= 1.00D+00
 Coeff-En:   0.000D+00 0.745D+00 0.255D+00
 Coeff:      0.000D+00 0.745D+00 0.255D+00
 Gap=     0.035 Goal=   None    Shift=    0.000
 Gap=    -0.220 Goal=   None    Shift=    0.000
 RMSDP=1.19D-02 MaxDP=1.02D+00 DE= 2.94D-01 OVMax= 9.87D-01

 Cycle   4  Pass 1  IDiag  1:
 RMSU=  7.44D-03    CP:  6.04D-01  3.24D-01  8.26D-02
 E= -504.210209765918     Delta-E=       -0.015168549934 Rises=F Damp=F
 DIIS: error= 2.69D-02 at cycle   4 NSaved=   4.
 NSaved= 4 IEnMin= 2 EnMin= -504.488905741956     IErMin= 2 ErrMin= 1.40D-02
 ErrMax= 2.69D-02 EMaxC= 1.00D-01 BMatC= 1.60D+00 BMatP= 3.76D-01
 IDIUse=2 WtCom= 0.00D+00 WtEn= 1.00D+00
 Coeff-En:   0.000D+00 0.000D+00 0.496D+00 0.504D+00
 Coeff:      0.000D+00 0.000D+00 0.496D+00 0.504D+00
 Gap=    -0.051 Goal=   None    Shift=    0.000
 Gap=     0.361 Goal=   None    Shift=    0.000
 RMSDP=1.07D-02 MaxDP=1.26D+00 DE=-1.52D-02 OVMax= 9.93D-01

 Cycle   5  Pass 1  IDiag  1:
 RMSU=  3.88D-03    CP:  6.83D-01  1.55D-01  6.96D-01  1.93D-01
 E= -504.817814040722     Delta-E=       -0.607604274804 Rises=F Damp=F
 DIIS: error= 7.97D-03 at cycle   5 NSaved=   5.
 NSaved= 5 IEnMin= 5 EnMin= -504.817814040722     IErMin= 5 ErrMin= 7.97D-03
 ErrMax= 7.97D-03 EMaxC= 1.00D-01 BMatC= 1.45D-01 BMatP= 3.76D-01
 IDIUse=3 WtCom= 9.20D-01 WtEn= 7.97D-02
 Coeff-Com: -0.181D+00 0.372D+00 0.202D+00 0.171D+00 0.436D+00
 Coeff-En:   0.000D+00 0.000D+00 0.000D+00 0.000D+00 0.100D+01
 Coeff:     -0.167D+00 0.343D+00 0.186D+00 0.157D+00 0.481D+00
 Gap=     0.103 Goal=   None    Shift=    0.000
 Gap=     0.160 Goal=   None    Shift=    0.000
 RMSDP=3.94D-03 MaxDP=6.17D-01 DE=-6.08D-01 OVMax= 4.36D-02

 Cycle   6  Pass 1  IDiag  1:
 RMSU=  1.39D-03    CP:  5.95D-01  1.70D-01  7.81D-01  2.67D-01  6.76D-01
 E= -504.846650850835     Delta-E=       -0.028836810113 Rises=F Damp=F
 DIIS: error= 5.18D-03 at cycle   6 NSaved=   6.
 NSaved= 6 IEnMin= 6 EnMin= -504.846650850835     IErMin= 6 ErrMin= 5.18D-03
 ErrMax= 5.18D-03 EMaxC= 1.00D-01 BMatC= 3.60D-02 BMatP= 1.45D-01
 IDIUse=3 WtCom= 9.48D-01 WtEn= 5.18D-02
 Coeff-Com: -0.120D+00 0.178D+00 0.528D-01 0.533D-01 0.317D+00 0.519D+00
 Coeff-En:   0.000D+00 0.000D+00 0.000D+00 0.000D+00 0.663D-01 0.934D+00
 Coeff:     -0.114D+00 0.169D+00 0.501D-01 0.505D-01 0.304D+00 0.540D+00
 Gap=     0.145 Goal=   None    Shift=    0.000
 Gap=     0.199 Goal=   None    Shift=    0.000
 RMSDP=1.05D-03 MaxDP=1.26D-01 DE=-2.88D-02 OVMax= 2.04D-02

 Cycle   7  Pass 1  IDiag  1:
 RMSU=  7.37D-04    CP:  5.91D-01  1.68D-01  8.05D-01  3.13D-01  6.43D-01
                    CP:  1.04D+00
 E= -504.853576903373     Delta-E=       -0.006926052537 Rises=F Damp=F
 DIIS: error= 1.44D-03 at cycle   7 NSaved=   7.
 NSaved= 7 IEnMin= 7 EnMin= -504.853576903373     IErMin= 7 ErrMin= 1.44D-03
 ErrMax= 1.44D-03 EMaxC= 1.00D-01 BMatC= 3.36D-03 BMatP= 3.60D-02
 IDIUse=3 WtCom= 9.86D-01 WtEn= 1.44D-02
 Coeff-Com: -0.531D-02 0.196D-01 0.577D-02 0.209D-01 0.208D-01 0.178D+00
 Coeff-Com:  0.760D+00
 Coeff-En:   0.000D+00 0.000D+00 0.000D+00 0.000D+00 0.000D+00 0.000D+00
 Coeff-En:   0.100D+01
 Coeff:     -0.524D-02 0.193D-01 0.569D-02 0.206D-01 0.205D-01 0.176D+00
 Coeff:      0.763D+00
 Gap=     0.146 Goal=   None    Shift=    0.000
 Gap=     0.218 Goal=   None    Shift=    0.000
 RMSDP=4.26D-04 MaxDP=5.99D-02 DE=-6.93D-03 OVMax= 1.11D-02

 Cycle   8  Pass 1  IDiag  1:
 RMSU=  1.62D-04    CP:  5.82D-01  1.68D-01  8.02D-01  3.28D-01  6.39D-01
                    CP:  1.11D+00  1.13D+00
 E= -504.854213582379     Delta-E=       -0.000636679007 Rises=F Damp=F
 DIIS: error= 1.30D-03 at cycle   8 NSaved=   8.
 NSaved= 8 IEnMin= 8 EnMin= -504.854213582379     IErMin= 8 ErrMin= 1.30D-03
 ErrMax= 1.30D-03 EMaxC= 1.00D-01 BMatC= 1.91D-03 BMatP= 3.36D-03
 IDIUse=3 WtCom= 9.87D-01 WtEn= 1.30D-02
 Coeff-Com:  0.383D-01-0.425D-01-0.596D-02 0.132D-01-0.890D-01-0.804D-01
 Coeff-Com:  0.511D+00 0.655D+00
 Coeff-En:   0.000D+00 0.000D+00 0.000D+00 0.000D+00 0.000D+00 0.000D+00
 Coeff-En:   0.822D-01 0.918D+00
 Coeff:      0.378D-01-0.420D-01-0.588D-02 0.131D-01-0.878D-01-0.794D-01
 Coeff:      0.506D+00 0.658D+00
 Gap=     0.152 Goal=   None    Shift=    0.000
 Gap=     0.225 Goal=   None    Shift=    0.000
 RMSDP=2.93D-04 MaxDP=2.62D-02 DE=-6.37D-04 OVMax= 1.03D-02

 Cycle   9  Pass 1  IDiag  1:
 RMSU=  1.19D-04    CP:  5.80D-01  1.66D-01  8.07D-01  3.31D-01  6.10D-01
                    CP:  1.16D+00  1.22D+00  6.05D-01
 E= -504.854611770878     Delta-E=       -0.000398188498 Rises=F Damp=F
 DIIS: error= 2.91D-04 at cycle   9 NSaved=   9.
 NSaved= 9 IEnMin= 9 EnMin= -504.854611770878     IErMin= 9 ErrMin= 2.91D-04
 ErrMax= 2.91D-04 EMaxC= 1.00D-01 BMatC= 1.38D-04 BMatP= 1.91D-03
 IDIUse=3 WtCom= 9.97D-01 WtEn= 2.91D-03
 Coeff-Com:  0.135D-01-0.167D-01-0.408D-02 0.526D-02-0.251D-01-0.372D-01
 Coeff-Com:  0.840D-02 0.177D+00 0.879D+00
 Coeff-En:   0.000D+00 0.000D+00 0.000D+00 0.000D+00 0.000D+00 0.000D+00
 Coeff-En:   0.000D+00 0.000D+00 0.100D+01
 Coeff:      0.135D-01-0.167D-01-0.407D-02 0.525D-02-0.250D-01-0.371D-01
 Coeff:      0.837D-02 0.176D+00 0.880D+00
 Gap=     0.152 Goal=   None    Shift=    0.000
 Gap=     0.228 Goal=   None    Shift=    0.000
 RMSDP=6.67D-05 MaxDP=8.60D-03 DE=-3.98D-04 OVMax= 1.90D-03

 Cycle  10  Pass 1  IDiag  1:
 RMSU=  3.25D-05    CP:  5.80D-01  1.66D-01  8.06D-01  3.33D-01  6.14D-01
                    CP:  1.16D+00  1.24D+00  7.51D-01  9.75D-01
 E= -504.854647331943     Delta-E=       -0.000035561065 Rises=F Damp=F
 DIIS: error= 1.09D-04 at cycle  10 NSaved=  10.
 NSaved=10 IEnMin=10 EnMin= -504.854647331943     IErMin=10 ErrMin= 1.09D-04
 ErrMax= 1.09D-04 EMaxC= 1.00D-01 BMatC= 3.35D-05 BMatP= 1.38D-04
 IDIUse=3 WtCom= 9.99D-01 WtEn= 1.09D-03
 Coeff-Com:  0.240D-02-0.293D-02-0.236D-02 0.231D-02-0.216D-02-0.503D-02
 Coeff-Com: -0.449D-01 0.647D-02 0.363D+00 0.683D+00
 Coeff-En:   0.000D+00 0.000D+00 0.000D+00 0.000D+00 0.000D+00 0.000D+00
 Coeff-En:   0.000D+00 0.000D+00 0.000D+00 0.100D+01
 Coeff:      0.240D-02-0.293D-02-0.236D-02 0.230D-02-0.216D-02-0.502D-02
 Coeff:     -0.448D-01 0.646D-02 0.363D+00 0.683D+00
 Gap=     0.152 Goal=   None    Shift=    0.000
 Gap=     0.228 Goal=   None    Shift=    0.000
 RMSDP=2.59D-05 MaxDP=2.87D-03 DE=-3.56D-05 OVMax= 4.21D-04

 Cycle  11  Pass 1  IDiag  1:
 RMSU=  1.18D-05    CP:  5.80D-01  1.67D-01  8.05D-01  3.32D-01  6.15D-01
                    CP:  1.16D+00  1.23D+00  7.45D-01  1.02D+00  1.02D+00
 E= -504.854652995262     Delta-E=       -0.000005663319 Rises=F Damp=F
 DIIS: error= 6.42D-05 at cycle  11 NSaved=  11.
 NSaved=11 IEnMin=11 EnMin= -504.854652995262     IErMin=11 ErrMin= 6.42D-05
 ErrMax= 6.42D-05 EMaxC= 1.00D-01 BMatC= 1.02D-05 BMatP= 3.35D-05
 IDIUse=1 WtCom= 1.00D+00 WtEn= 0.00D+00
 Coeff-Com: -0.479D-03 0.120D-03-0.918D-03 0.116D-02 0.440D-02 0.601D-02
 Coeff-Com: -0.131D-01-0.320D-01-0.643D-01 0.242D+00 0.857D+00
 Coeff:     -0.479D-03 0.120D-03-0.918D-03 0.116D-02 0.440D-02 0.601D-02
 Coeff:     -0.131D-01-0.320D-01-0.643D-01 0.242D+00 0.857D+00
 Gap=     0.152 Goal=   None    Shift=    0.000
 Gap=     0.229 Goal=   None    Shift=    0.000
 RMSDP=1.70D-05 MaxDP=1.85D-03 DE=-5.66D-06 OVMax= 2.76D-04

 Cycle  12  Pass 1  IDiag  1:
 RMSU=  7.63D-06    CP:  5.80D-01  1.67D-01  8.04D-01  3.32D-01  6.16D-01
                    CP:  1.15D+00  1.23D+00  7.69D-01  1.04D+00  1.15D+00
                    CP:  1.04D+00
 E= -504.854655346995     Delta-E=       -0.000002351733 Rises=F Damp=F
 DIIS: error= 3.43D-05 at cycle  12 NSaved=  12.
 NSaved=12 IEnMin=12 EnMin= -504.854655346995     IErMin=12 ErrMin= 3.43D-05
 ErrMax= 3.43D-05 EMaxC= 1.00D-01 BMatC= 2.42D-06 BMatP= 1.02D-05
 IDIUse=1 WtCom= 1.00D+00 WtEn= 0.00D+00
 Coeff-Com:  0.549D-03-0.917D-03-0.432D-03 0.448D-03 0.423D-03 0.871D-03
 Coeff-Com:  0.928D-02-0.403D-02-0.786D-01-0.109D+00 0.128D+00 0.105D+01
 Coeff:      0.549D-03-0.917D-03-0.432D-03 0.448D-03 0.423D-03 0.871D-03
 Coeff:      0.928D-02-0.403D-02-0.786D-01-0.109D+00 0.128D+00 0.105D+01
 Gap=     0.151 Goal=   None    Shift=    0.000
 Gap=     0.229 Goal=   None    Shift=    0.000
 RMSDP=9.87D-06 MaxDP=9.28D-04 DE=-2.35D-06 OVMax= 1.80D-04

 Cycle  13  Pass 1  IDiag  1:
 RMSU=  3.72D-06    CP:  5.79D-01  1.67D-01  8.04D-01  3.33D-01  6.16D-01
                    CP:  1.15D+00  1.23D+00  7.78D-01  1.04D+00  1.22D+00
                    CP:  1.20D+00  1.36D+00
 E= -504.854655915072     Delta-E=       -0.000000568077 Rises=F Damp=F
 DIIS: error= 1.29D-05 at cycle  13 NSaved=  13.
 NSaved=13 IEnMin=13 EnMin= -504.854655915072     IErMin=13 ErrMin= 1.29D-05
 ErrMax= 1.29D-05 EMaxC= 1.00D-01 BMatC= 3.45D-07 BMatP= 2.42D-06
 IDIUse=1 WtCom= 1.00D+00 WtEn= 0.00D+00
 Coeff-Com:  0.502D-03-0.676D-03-0.212D-03 0.190D-03-0.427D-03-0.260D-03
 Coeff-Com:  0.586D-02 0.227D-02-0.200D-01-0.752D-01-0.720D-01 0.369D+00
 Coeff-Com:  0.791D+00
 Coeff:      0.502D-03-0.676D-03-0.212D-03 0.190D-03-0.427D-03-0.260D-03
 Coeff:      0.586D-02 0.227D-02-0.200D-01-0.752D-01-0.720D-01 0.369D+00
 Coeff:      0.791D+00
 Gap=     0.151 Goal=   None    Shift=    0.000
 Gap=     0.229 Goal=   None    Shift=    0.000
 RMSDP=3.46D-06 MaxDP=3.45D-04 DE=-5.68D-07 OVMax= 6.72D-05

 Cycle  14  Pass 1  IDiag  1:
 RMSU=  1.01D-06    CP:  5.79D-01  1.67D-01  8.03D-01  3.33D-01  6.16D-01
                    CP:  1.15D+00  1.23D+00  7.81D-01  1.04D+00  1.24D+00
                    CP:  1.22D+00  1.54D+00  1.16D+00
 E= -504.854655990963     Delta-E=       -0.000000075891 Rises=F Damp=F
 DIIS: error= 5.70D-06 at cycle  14 NSaved=  14.
 NSaved=14 IEnMin=14 EnMin= -504.854655990963     IErMin=14 ErrMin= 5.70D-06
 ErrMax= 5.70D-06 EMaxC= 1.00D-01 BMatC= 5.80D-08 BMatP= 3.45D-07
 IDIUse=1 WtCom= 1.00D+00 WtEn= 0.00D+00
 Coeff-Com:  0.150D-03-0.167D-03-0.561D-04 0.569D-04-0.240D-03-0.117D-03
 Coeff-Com:  0.560D-03 0.148D-02 0.997D-02-0.393D-02-0.567D-01-0.104D+00
 Coeff-Com:  0.301D+00 0.852D+00
 Coeff:      0.150D-03-0.167D-03-0.561D-04 0.569D-04-0.240D-03-0.117D-03
 Coeff:      0.560D-03 0.148D-02 0.997D-02-0.393D-02-0.567D-01-0.104D+00
 Coeff:      0.301D+00 0.852D+00
 Gap=     0.151 Goal=   None    Shift=    0.000
 Gap=     0.229 Goal=   None    Shift=    0.000
 RMSDP=1.78D-06 MaxDP=1.97D-04 DE=-7.59D-08 OVMax= 3.38D-05

 Cycle  15  Pass 1  IDiag  1:
 RMSU=  6.60D-07    CP:  5.79D-01  1.67D-01  8.03D-01  3.33D-01  6.16D-01
                    CP:  1.15D+00  1.23D+00  7.82D-01  1.04D+00  1.24D+00
                    CP:  1.22D+00  1.64D+00  1.24D+00  1.17D+00
 E= -504.854656006827     Delta-E=       -0.000000015865 Rises=F Damp=F
 DIIS: error= 1.49D-06 at cycle  15 NSaved=  15.
 NSaved=15 IEnMin=15 EnMin= -504.854656006827     IErMin=15 ErrMin= 1.49D-06
 ErrMax= 1.49D-06 EMaxC= 1.00D-01 BMatC= 5.14D-09 BMatP= 5.80D-08
 IDIUse=1 WtCom= 1.00D+00 WtEn= 0.00D+00
 Coeff-Com: -0.135D-04 0.258D-04 0.166D-06 0.348D-05-0.444D-04-0.255D-04
 Coeff-Com: -0.684D-03 0.248D-03 0.632D-02 0.110D-01-0.635D-02-0.922D-01
 Coeff-Com: -0.556D-01 0.224D+00 0.913D+00
 Coeff:     -0.135D-04 0.258D-04 0.166D-06 0.348D-05-0.444D-04-0.255D-04
 Coeff:     -0.684D-03 0.248D-03 0.632D-02 0.110D-01-0.635D-02-0.922D-01
 Coeff:     -0.556D-01 0.224D+00 0.913D+00
 Gap=     0.151 Goal=   None    Shift=    0.000
 Gap=     0.229 Goal=   None    Shift=    0.000
 RMSDP=5.60D-07 MaxDP=6.92D-05 DE=-1.59D-08 OVMax= 1.06D-05

 Cycle  16  Pass 1  IDiag  1:
 RMSU=  1.71D-07    CP:  5.79D-01  1.67D-01  8.03D-01  3.33D-01  6.16D-01
                    CP:  1.15D+00  1.23D+00  7.82D-01  1.04D+00  1.24D+00
                    CP:  1.22D+00  1.65D+00  1.31D+00  1.20D+00  8.81D-01
 E= -504.854656008474     Delta-E=       -0.000000001647 Rises=F Damp=F
 DIIS: error= 3.50D-07 at cycle  16 NSaved=  16.
 NSaved=16 IEnMin=16 EnMin= -504.854656008474     IErMin=16 ErrMin= 3.50D-07
 ErrMax= 3.50D-07 EMaxC= 1.00D-01 BMatC= 2.31D-10 BMatP= 5.14D-09
 IDIUse=1 WtCom= 1.00D+00 WtEn= 0.00D+00
 Coeff-Com: -0.101D-04 0.931D-05 0.340D-05-0.146D-05-0.223D-05-0.267D-04
 Coeff-Com: -0.231D-03 0.261D-04 0.898D-03 0.321D-02 0.321D-02-0.147D-01
 Coeff-Com: -0.423D-01-0.200D-01 0.254D+00 0.816D+00
 Coeff:     -0.101D-04 0.931D-05 0.340D-05-0.146D-05-0.223D-05-0.267D-04
 Coeff:     -0.231D-03 0.261D-04 0.898D-03 0.321D-02 0.321D-02-0.147D-01
 Coeff:     -0.423D-01-0.200D-01 0.254D+00 0.816D+00
 Gap=     0.151 Goal=   None    Shift=    0.000
 Gap=     0.229 Goal=   None    Shift=    0.000
 RMSDP=1.84D-07 MaxDP=1.55D-05 DE=-1.65D-09 OVMax= 2.96D-06

 Cycle  17  Pass 1  IDiag  1:
 RMSU=  5.52D-08    CP:  5.79D-01  1.67D-01  8.03D-01  3.33D-01  6.16D-01
                    CP:  1.15D+00  1.23D+00  7.83D-01  1.04D+00  1.24D+00
                    CP:  1.22D+00  1.66D+00  1.31D+00  1.24D+00  9.15D-01
                    CP:  9.19D-01
 E= -504.854656008574     Delta-E=       -0.000000000099 Rises=F Damp=F
 DIIS: error= 1.25D-07 at cycle  17 NSaved=  17.
 NSaved=17 IEnMin=17 EnMin= -504.854656008574     IErMin=17 ErrMin= 1.25D-07
 ErrMax= 1.25D-07 EMaxC= 1.00D-01 BMatC= 4.92D-11 BMatP= 2.31D-10
 IDIUse=1 WtCom= 1.00D+00 WtEn= 0.00D+00
 Coeff-Com: -0.164D-05 0.918D-06 0.904D-06-0.193D-05 0.433D-05-0.838D-05
 Coeff-Com:  0.280D-04-0.147D-04-0.600D-03-0.673D-03 0.185D-02 0.940D-02
 Coeff-Com: -0.361D-02-0.374D-01-0.603D-01 0.248D+00 0.844D+00
 Coeff:     -0.164D-05 0.918D-06 0.904D-06-0.193D-05 0.433D-05-0.838D-05
 Coeff:      0.280D-04-0.147D-04-0.600D-03-0.673D-03 0.185D-02 0.940D-02
 Coeff:     -0.361D-02-0.374D-01-0.603D-01 0.248D+00 0.844D+00
 Gap=     0.151 Goal=   None    Shift=    0.000
 Gap=     0.229 Goal=   None    Shift=    0.000
 RMSDP=5.96D-08 MaxDP=8.34D-06 DE=-9.94D-11 OVMax= 1.64D-06

 Cycle  18  Pass 1  IDiag  1:
 RMSU=  2.33D-08    CP:  5.79D-01  1.67D-01  8.03D-01  3.33D-01  6.16D-01
                    CP:  1.15D+00  1.23D+00  7.83D-01  1.04D+00  1.24D+00
                    CP:  1.22D+00  1.65D+00  1.31D+00  1.24D+00  8.97D-01
                    CP:  9.43D-01  9.78D-01
 E= -504.854656008600     Delta-E=       -0.000000000026 Rises=F Damp=F
 DIIS: error= 1.08D-07 at cycle  18 NSaved=  18.
 NSaved=18 IEnMin=18 EnMin= -504.854656008600     IErMin=18 ErrMin= 1.08D-07
 ErrMax= 1.08D-07 EMaxC= 1.00D-01 BMatC= 1.75D-11 BMatP= 4.92D-11
 IDIUse=1 WtCom= 1.00D+00 WtEn= 0.00D+00
 Coeff-Com:  0.271D-06 0.120D-06 0.204D-06-0.134D-05 0.412D-05 0.462D-05
 Coeff-Com:  0.533D-04-0.202D-04-0.430D-03-0.880D-03 0.245D-03 0.700D-02
 Coeff-Com:  0.669D-02-0.123D-01-0.770D-01-0.576D-01 0.383D+00 0.752D+00
 Coeff:      0.271D-06 0.120D-06 0.204D-06-0.134D-05 0.412D-05 0.462D-05
 Coeff:      0.533D-04-0.202D-04-0.430D-03-0.880D-03 0.245D-03 0.700D-02
 Coeff:      0.669D-02-0.123D-01-0.770D-01-0.576D-01 0.383D+00 0.752D+00
 Gap=     0.151 Goal=   None    Shift=    0.000
 Gap=     0.229 Goal=   None    Shift=    0.000
 RMSDP=3.76D-08 MaxDP=4.79D-06 DE=-2.59D-11 OVMax= 9.30D-07

 Cycle  19  Pass 1  IDiag  1:
 RMSU=  1.12D-08    CP:  5.79D-01  1.67D-01  8.03D-01  3.33D-01  6.16D-01
                    CP:  1.15D+00  1.23D+00  7.83D-01  1.04D+00  1.24D+00
                    CP:  1.22D+00  1.65D+00  1.30D+00  1.23D+00  9.01D-01
                    CP:  9.70D-01  1.02D+00  9.85D-01
 E= -504.854656008607     Delta-E=       -0.000000000008 Rises=F Damp=F
 DIIS: error= 4.55D-08 at cycle  19 NSaved=  19.
 NSaved=19 IEnMin=19 EnMin= -504.854656008607     IErMin=19 ErrMin= 4.55D-08
 ErrMax= 4.55D-08 EMaxC= 1.00D-01 BMatC= 2.78D-12 BMatP= 1.75D-11
 IDIUse=1 WtCom= 1.00D+00 WtEn= 0.00D+00
 Coeff-Com:  0.109D-06 0.202D-06 0.948D-07-0.656D-06-0.169D-06 0.393D-05
 Coeff-Com:  0.832D-05-0.523D-05 0.152D-04-0.597D-04-0.328D-03-0.319D-03
 Coeff-Com:  0.207D-02 0.441D-02-0.310D-02-0.643D-01-0.103D+00 0.155D+00
 Coeff-Com:  0.101D+01
 Coeff:      0.109D-06 0.202D-06 0.948D-07-0.656D-06-0.169D-06 0.393D-05
 Coeff:      0.832D-05-0.523D-05 0.152D-04-0.597D-04-0.328D-03-0.319D-03
 Coeff:      0.207D-02 0.441D-02-0.310D-02-0.643D-01-0.103D+00 0.155D+00
 Coeff:      0.101D+01
 Gap=     0.151 Goal=   None    Shift=    0.000
 Gap=     0.229 Goal=   None    Shift=    0.000
 RMSDP=1.26D-08 MaxDP=1.08D-06 DE=-7.73D-12 OVMax= 6.42D-07

 Cycle  20  Pass 1  IDiag  1:
 Restarting incremental Fock formation.
 E= -504.854656008614     Delta-E=       -0.000000000006 Rises=F Damp=F
 DIIS: error= 1.91D-08 at cycle  20 NSaved=  20.
 NSaved=20 IEnMin=20 EnMin= -504.854656008614     IErMin=20 ErrMin= 1.91D-08
 ErrMax= 1.91D-08 EMaxC= 1.00D-01 BMatC= 6.16D-13 BMatP= 2.78D-12
 IDIUse=1 WtCom= 1.00D+00 WtEn= 0.00D+00
 Coeff-Com: -0.207D-06 0.306D-06 0.967D-07-0.240D-06-0.112D-05-0.310D-06
 Coeff-Com: -0.461D-05 0.388D-05 0.805D-04 0.116D-03-0.173D-03-0.119D-02
 Coeff-Com: -0.397D-03 0.311D-02 0.119D-01-0.762D-02-0.920D-01-0.881D-01
 Coeff-Com:  0.287D+00 0.887D+00
 Coeff:     -0.207D-06 0.306D-06 0.967D-07-0.240D-06-0.112D-05-0.310D-06
 Coeff:     -0.461D-05 0.388D-05 0.805D-04 0.116D-03-0.173D-03-0.119D-02
 Coeff:     -0.397D-03 0.311D-02 0.119D-01-0.762D-02-0.920D-01-0.881D-01
 Coeff:      0.287D+00 0.887D+00
 Gap=     0.151 Goal=   None    Shift=    0.000
 Gap=     0.229 Goal=   None    Shift=    0.000
 RMSDP=1.07D-08 MaxDP=1.13D-06 DE=-6.37D-12 OVMax= 2.28D-07

 Cycle  21  Pass 1  IDiag  1:
 RMSU=  8.30D-09    CP:  1.00D+00
 E= -504.854656008613     Delta-E=        0.000000000000 Rises=F Damp=F
 DIIS: error= 9.48D-09 at cycle  21 NSaved=  20.
 NSaved=20 IEnMin=19 EnMin= -504.854656008614     IErMin=20 ErrMin= 9.48D-09
 ErrMax= 9.48D-09 EMaxC= 1.00D-01 BMatC= 1.54D-13 BMatP= 6.16D-13
 IDIUse=1 WtCom= 1.00D+00 WtEn= 0.00D+00
 Coeff-Com: -0.898D-07 0.644D-07-0.721D-07-0.706D-06-0.121D-05-0.288D-05
 Coeff-Com:  0.423D-05 0.353D-04 0.563D-04-0.329D-04-0.429D-03-0.458D-03
 Coeff-Com:  0.618D-03 0.578D-02 0.858D-02-0.214D-01-0.703D-01-0.686D-01
 Coeff-Com:  0.408D+00 0.739D+00
 Coeff:     -0.898D-07 0.644D-07-0.721D-07-0.706D-06-0.121D-05-0.288D-05
 Coeff:      0.423D-05 0.353D-04 0.563D-04-0.329D-04-0.429D-03-0.458D-03
 Coeff:      0.618D-03 0.578D-02 0.858D-02-0.214D-01-0.703D-01-0.686D-01
 Coeff:      0.408D+00 0.739D+00
 Gap=     0.151 Goal=   None    Shift=    0.000
 Gap=     0.229 Goal=   None    Shift=    0.000
 RMSDP=3.85D-09 MaxDP=4.11D-07 DE= 4.55D-13 OVMax= 8.24D-08

 SCF Done:  E(UB3LYP) =  -504.854656009     A.U. after   21 cycles
             Convg  =    0.3849D-08             -V/T =  2.0045
 <Sx>= 0.0000 <Sy>= 0.0000 <Sz>= 0.5000 <S**2>= 0.7542 S= 0.5021
 <L.S>= 0.000000000000E+00
 KE= 5.026064761175D+02 PE=-2.471072176735D+03 EE= 8.162625087228D+02
 Annihilation of the first spin contaminant:
 S**2 before annihilation     0.7542,   after     0.7500
 Leave Link  502 at Fri Feb  7 22:40:27 2014, MaxMem= 4026531840 cpu:    3718.3
 (Enter /usr/caen/gaussian-09revc/g09/l601.exe)
 Copying SCF densities to generalized density rwf, IOpCl= 1 IROHF=0.

 **********************************************************************

            Population analysis using the SCF density.

 **********************************************************************

 Orbital symmetries:
 Alpha Orbitals:
       Occupied  (A) (A) (A) (A) (A) (A) (A) (A) (A) (A) (A) (A)
                 (A) (A) (A) (A) (A) (A) (A) (A) (A) (A) (A) (A)
                 (A) (A) (A) (A) (A) (A) (A) (A) (A) (A) (A) (A)
                 (A) (A) (A) (A) (A) (A) (A) (A) (A)
       Virtual   (A) (A) (A) (A) (A) (A) (A) (A) (A) (A) (A) (A)
                 (A) (A) (A) (A) (A) (A) (A) (A) (A) (A) (A) (A)
                 (A) (A) (A) (A) (A) (A) (A) (A) (A) (A) (A) (A)
                 (A) (A) (A) (A) (A) (A) (A) (A) (A) (A) (A) (A)
                 (A) (A) (A) (A) (A) (A) (A) (A) (A) (A) (A) (A)
                 (A) (A) (A) (A) (A) (A) (A) (A) (A) (A) (A) (A)
                 (A) (A) (A) (A) (A) (A) (A) (A) (A) (A) (A) (A)
                 (A) (A) (A) (A) (A) (A) (A) (A) (A) (A) (A) (A)
                 (A) (A) (A) (A) (A) (A) (A) (A) (A) (A) (A) (A)
                 (A) (A) (A) (A) (A) (A) (A) (A) (A) (A) (A) (A)
                 (A) (A) (A) (A) (A) (A) (A) (A) (A) (A) (A) (A)
                 (A) (A) (A) (A) (A) (A) (A) (A) (A) (A) (A) (A)
                 (A) (A) (A) (A) (A) (A) (A) (A) (A) (A) (A) (A)
                 (A) (A) (A) (A) (A) (A) (A) (A) (A) (A) (A) (A)
                 (A) (A) (A) (A) (A) (A) (A) (A) (A) (A) (A) (A)
                 (A) (A) (A) (A) (A) (A) (A) (A) (A) (A) (A) (A)
                 (A) (A) (A) (A) (A) (A) (A) (A) (A) (A) (A) (A)
                 (A) (A) (A) (A) (A) (A) (A) (A) (A) (A) (A) (A)
                 (A) (A) (A) (A) (A) (A) (A) (A) (A) (A) (A) (A)
                 (A) (A) (A) (A) (A) (A) (A) (A) (A) (A) (A) (A)
                 (A) (A) (A) (A) (A) (A) (A) (A) (A) (A) (A) (A)
                 (A) (A) (A) (A) (A) (A) (A) (A) (A) (A) (A) (A)
                 (A) (A) (A) (A) (A) (A) (A) (A) (A) (A) (A) (A)
                 (A) (A) (A) (A) (A) (A) (A) (A) (A) (A) (A) (A)
                 (A) (A) (A) (A) (A) (A) (A) (A) (A) (A) (A) (A)
                 (A) (A) (A) (A) (A) (A) (A) (A) (A) (A) (A) (A)
                 (A) (A) (A) (A) (A) (A) (A) (A) (A) (A) (A) (A)
                 (A) (A) (A) (A) (A) (A)
 Beta  Orbitals:
       Occupied  (A) (A) (A) (A) (A) (A) (A) (A) (A) (A) (A) (A)
                 (A) (A) (A) (A) (A) (A) (A) (A) (A) (A) (A) (A)
                 (A) (A) (A) (A) (A) (A) (A) (A) (A) (A) (A) (A)
                 (A) (A) (A) (A) (A) (A) (A) (A)
       Virtual   (A) (A) (A) (A) (A) (A) (A) (A) (A) (A) (A) (A)
                 (A) (A) (A) (A) (A) (A) (A) (A) (A) (A) (A) (A)
                 (A) (A) (A) (A) (A) (A) (A) (A) (A) (A) (A) (A)
                 (A) (A) (A) (A) (A) (A) (A) (A) (A) (A) (A) (A)
                 (A) (A) (A) (A) (A) (A) (A) (A) (A) (A) (A) (A)
                 (A) (A) (A) (A) (A) (A) (A) (A) (A) (A) (A) (A)
                 (A) (A) (A) (A) (A) (A) (A) (A) (A) (A) (A) (A)
                 (A) (A) (A) (A) (A) (A) (A) (A) (A) (A) (A) (A)
                 (A) (A) (A) (A) (A) (A) (A) (A) (A) (A) (A) (A)
                 (A) (A) (A) (A) (A) (A) (A) (A) (A) (A) (A) (A)
                 (A) (A) (A) (A) (A) (A) (A) (A) (A) (A) (A) (A)
                 (A) (A) (A) (A) (A) (A) (A) (A) (A) (A) (A) (A)
                 (A) (A) (A) (A) (A) (A) (A) (A) (A) (A) (A) (A)
                 (A) (A) (A) (A) (A) (A) (A) (A) (A) (A) (A) (A)
                 (A) (A) (A) (A) (A) (A) (A) (A) (A) (A) (A) (A)
                 (A) (A) (A) (A) (A) (A) (A) (A) (A) (A) (A) (A)
                 (A) (A) (A) (A) (A) (A) (A) (A) (A) (A) (A) (A)
                 (A) (A) (A) (A) (A) (A) (A) (A) (A) (A) (A) (A)
                 (A) (A) (A) (A) (A) (A) (A) (A) (A) (A) (A) (A)
                 (A) (A) (A) (A) (A) (A) (A) (A) (A) (A) (A) (A)
                 (A) (A) (A) (A) (A) (A) (A) (A) (A) (A) (A) (A)
                 (A) (A) (A) (A) (A) (A) (A) (A) (A) (A) (A) (A)
                 (A) (A) (A) (A) (A) (A) (A) (A) (A) (A) (A) (A)
                 (A) (A) (A) (A) (A) (A) (A) (A) (A) (A) (A) (A)
                 (A) (A) (A) (A) (A) (A) (A) (A) (A) (A) (A) (A)
                 (A) (A) (A) (A) (A) (A) (A) (A) (A) (A) (A) (A)
                 (A) (A) (A) (A) (A) (A) (A) (A) (A) (A) (A) (A)
                 (A) (A) (A) (A) (A) (A) (A)
 The electronic state is 2-A.
 Alpha  occ. eigenvalues --  -19.18399 -19.18278 -10.22229 -10.17695 -10.17188
 Alpha  occ. eigenvalues --  -10.16248 -10.16078 -10.15988 -10.15918 -10.15870
 Alpha  occ. eigenvalues --  -10.15551  -1.12315  -0.92510  -0.81771  -0.79803
 Alpha  occ. eigenvalues --   -0.74662  -0.69098  -0.67869  -0.67468  -0.60438
 Alpha  occ. eigenvalues --   -0.56631  -0.53199  -0.53179  -0.49452  -0.46839
 Alpha  occ. eigenvalues --   -0.46579  -0.44616  -0.44184  -0.43628  -0.41582
 Alpha  occ. eigenvalues --   -0.40858  -0.40424  -0.38693  -0.37606  -0.36904
 Alpha  occ. eigenvalues --   -0.36358  -0.35776  -0.35051  -0.34704  -0.32743
 Alpha  occ. eigenvalues --   -0.32294  -0.31313  -0.31281  -0.26612  -0.16966
 Alpha virt. eigenvalues --   -0.01835  -0.00670  -0.00244   0.00645   0.00906
 Alpha virt. eigenvalues --    0.01699   0.02147   0.02683   0.03479   0.03955
 Alpha virt. eigenvalues --    0.04082   0.04359   0.05299   0.05341   0.05806
 Alpha virt. eigenvalues --    0.06487   0.07405   0.07582   0.08095   0.08246
 Alpha virt. eigenvalues --    0.08844   0.09738   0.10167   0.10317   0.10605
 Alpha virt. eigenvalues --    0.11433   0.12147   0.12200   0.12806   0.13006
 Alpha virt. eigenvalues --    0.13142   0.13441   0.13959   0.14192   0.14310
 Alpha virt. eigenvalues --    0.14538   0.14813   0.15110   0.15246   0.15747
 Alpha virt. eigenvalues --    0.16034   0.16558   0.16753   0.16855   0.17019
 Alpha virt. eigenvalues --    0.17903   0.18193   0.18511   0.18761   0.19042
 Alpha virt. eigenvalues --    0.19351   0.19503   0.19683   0.20528   0.20912
 Alpha virt. eigenvalues --    0.21429   0.21589   0.22033   0.22477   0.22997
 Alpha virt. eigenvalues --    0.23371   0.24056   0.25170   0.25210   0.25959
 Alpha virt. eigenvalues --    0.26680   0.27576   0.27801   0.27971   0.29101
 Alpha virt. eigenvalues --    0.29477   0.29610   0.29848   0.30115   0.31678
 Alpha virt. eigenvalues --    0.32117   0.32400   0.33026   0.33419   0.33792
 Alpha virt. eigenvalues --    0.34314   0.35108   0.35818   0.36222   0.37010
 Alpha virt. eigenvalues --    0.37933   0.38845   0.39386   0.40127   0.41175
 Alpha virt. eigenvalues --    0.43114   0.44384   0.45192   0.47123   0.47604
 Alpha virt. eigenvalues --    0.48054   0.49583   0.51129   0.52464   0.53318
 Alpha virt. eigenvalues --    0.53479   0.54926   0.56157   0.56673   0.57085
 Alpha virt. eigenvalues --    0.58725   0.59848   0.60557   0.61718   0.62941
 Alpha virt. eigenvalues --    0.63286   0.64637   0.64985   0.65769   0.66417
 Alpha virt. eigenvalues --    0.67173   0.67985   0.68303   0.69406   0.69769
 Alpha virt. eigenvalues --    0.70694   0.71534   0.71878   0.72610   0.73113
 Alpha virt. eigenvalues --    0.73645   0.74161   0.75688   0.75782   0.76484
 Alpha virt. eigenvalues --    0.77482   0.78279   0.79639   0.80284   0.81560
 Alpha virt. eigenvalues --    0.82076   0.83899   0.87651   0.89269   0.90705
 Alpha virt. eigenvalues --    0.93666   0.96943   0.98006   0.98565   0.99797
 Alpha virt. eigenvalues --    1.03582   1.04377   1.05946   1.07096   1.08916
 Alpha virt. eigenvalues --    1.10119   1.11907   1.13284   1.15650   1.16704
 Alpha virt. eigenvalues --    1.18579   1.19776   1.22601   1.25467   1.28002
 Alpha virt. eigenvalues --    1.30564   1.33847   1.35032   1.37208   1.40215
 Alpha virt. eigenvalues --    1.41481   1.42812   1.45113   1.46438   1.47548
 Alpha virt. eigenvalues --    1.49475   1.49590   1.50861   1.52974   1.54021
 Alpha virt. eigenvalues --    1.55034   1.56882   1.57582   1.58040   1.58437
 Alpha virt. eigenvalues --    1.59189   1.59758   1.61011   1.61846   1.62098
 Alpha virt. eigenvalues --    1.63276   1.64275   1.65359   1.65628   1.65773
 Alpha virt. eigenvalues --    1.66597   1.67454   1.69670   1.71088   1.72074
 Alpha virt. eigenvalues --    1.72569   1.74177   1.74994   1.75122   1.76103
 Alpha virt. eigenvalues --    1.78150   1.78503   1.79834   1.80566   1.84115
 Alpha virt. eigenvalues --    1.84323   1.87307   1.88129   1.88957   1.91263
 Alpha virt. eigenvalues --    1.94589   1.96550   1.98106   1.99457   2.00916
 Alpha virt. eigenvalues --    2.02211   2.03920   2.06055   2.08876   2.10424
 Alpha virt. eigenvalues --    2.12015   2.14559   2.15193   2.16774   2.18922
 Alpha virt. eigenvalues --    2.20736   2.24794   2.26595   2.27293   2.30084
 Alpha virt. eigenvalues --    2.31865   2.32942   2.33942   2.37644   2.40937
 Alpha virt. eigenvalues --    2.42182   2.43658   2.46140   2.46655   2.48266
 Alpha virt. eigenvalues --    2.49409   2.50191   2.50883   2.52472   2.53404
 Alpha virt. eigenvalues --    2.54182   2.54288   2.55510   2.55975   2.57019
 Alpha virt. eigenvalues --    2.58632   2.59482   2.60596   2.61931   2.62809
 Alpha virt. eigenvalues --    2.63307   2.64015   2.66101   2.66874   2.68699
 Alpha virt. eigenvalues --    2.71636   2.72041   2.74077   2.74886   2.76178
 Alpha virt. eigenvalues --    2.76975   2.77820   2.80746   2.82223   2.84766
 Alpha virt. eigenvalues --    2.88224   2.89383   2.90187   2.93477   2.94937
 Alpha virt. eigenvalues --    2.96019   2.97873   3.00574   3.01513   3.02226
 Alpha virt. eigenvalues --    3.05148   3.08358   3.10534   3.11469   3.14214
 Alpha virt. eigenvalues --    3.16757   3.20839   3.22900   3.27508   3.33386
 Alpha virt. eigenvalues --    3.42325   3.50232   3.63665   3.70795   3.74603
 Alpha virt. eigenvalues --    3.77428   3.79802   3.80432   3.81031   3.83085
 Alpha virt. eigenvalues --    3.84496   3.85143   3.86322   3.89779   3.89999
 Alpha virt. eigenvalues --    3.98290   4.03654   4.11803   4.22537   4.28872
 Alpha virt. eigenvalues --    4.30011   4.32038   4.38890   4.87666   5.00205
 Alpha virt. eigenvalues --    5.07852   5.38531   5.53800   5.65234  23.79569
 Alpha virt. eigenvalues --   23.83158  23.86695  23.89090  23.92153  23.93537
 Alpha virt. eigenvalues --   23.98051  23.99031  23.99433  49.85697  49.88606
  Beta  occ. eigenvalues --  -19.18399 -19.18278 -10.22229 -10.17694 -10.16330
  Beta  occ. eigenvalues --  -10.16074 -10.16002 -10.15968 -10.15859 -10.15799
  Beta  occ. eigenvalues --  -10.15549  -1.12315  -0.92510  -0.81256  -0.78849
  Beta  occ. eigenvalues --   -0.74267  -0.68872  -0.67837  -0.67368  -0.60145
  Beta  occ. eigenvalues --   -0.56597  -0.53174  -0.51531  -0.49441  -0.46762
  Beta  occ. eigenvalues --   -0.46409  -0.44450  -0.43849  -0.42328  -0.41216
  Beta  occ. eigenvalues --   -0.40734  -0.40191  -0.38077  -0.37469  -0.36799
  Beta  occ. eigenvalues --   -0.36257  -0.35608  -0.34796  -0.34427  -0.32638
  Beta  occ. eigenvalues --   -0.32133  -0.31295  -0.30952  -0.26609
  Beta virt. eigenvalues --   -0.03696  -0.01812  -0.00624  -0.00167   0.00642
  Beta virt. eigenvalues --    0.00903   0.01704   0.02167   0.02745   0.03488
  Beta virt. eigenvalues --    0.03980   0.04121   0.04353   0.05319   0.05383
  Beta virt. eigenvalues --    0.05826   0.06518   0.07429   0.07667   0.08106
  Beta virt. eigenvalues --    0.08289   0.08868   0.09734   0.10248   0.10347
  Beta virt. eigenvalues --    0.10597   0.11444   0.12149   0.12310   0.12851
  Beta virt. eigenvalues --    0.13060   0.13144   0.13468   0.14045   0.14198
  Beta virt. eigenvalues --    0.14356   0.14619   0.14842   0.15114   0.15280
  Beta virt. eigenvalues --    0.15833   0.16037   0.16592   0.16847   0.16890
  Beta virt. eigenvalues --    0.17083   0.17937   0.18221   0.18545   0.18940
  Beta virt. eigenvalues --    0.19107   0.19500   0.19660   0.19830   0.20654
  Beta virt. eigenvalues --    0.21061   0.21482   0.21658   0.22043   0.22507
  Beta virt. eigenvalues --    0.23177   0.23553   0.24491   0.25226   0.25389
  Beta virt. eigenvalues --    0.26272   0.26745   0.27735   0.27981   0.28314
  Beta virt. eigenvalues --    0.29310   0.29633   0.29656   0.30168   0.30523
  Beta virt. eigenvalues --    0.32031   0.32176   0.32517   0.33088   0.33472
  Beta virt. eigenvalues --    0.34238   0.34366   0.35274   0.36062   0.36336
  Beta virt. eigenvalues --    0.37099   0.38067   0.38994   0.39732   0.40144
  Beta virt. eigenvalues --    0.41397   0.43137   0.44547   0.45250   0.47141
  Beta virt. eigenvalues --    0.47919   0.48165   0.49911   0.51208   0.52505
  Beta virt. eigenvalues --    0.53409   0.53605   0.55077   0.56291   0.56764
  Beta virt. eigenvalues --    0.57255   0.58897   0.60176   0.60741   0.61939
  Beta virt. eigenvalues --    0.63097   0.64349   0.64919   0.65709   0.65882
  Beta virt. eigenvalues --    0.66936   0.67312   0.68218   0.69195   0.69461
  Beta virt. eigenvalues --    0.70048   0.70876   0.71913   0.72288   0.72699
  Beta virt. eigenvalues --    0.73333   0.73776   0.74271   0.75859   0.75978
  Beta virt. eigenvalues --    0.76641   0.77739   0.78482   0.79763   0.80409
  Beta virt. eigenvalues --    0.81659   0.82182   0.84216   0.87708   0.89580
  Beta virt. eigenvalues --    0.91140   0.94135   0.97613   0.98373   0.99195
  Beta virt. eigenvalues --    1.00028   1.03822   1.04738   1.06023   1.07321
  Beta virt. eigenvalues --    1.09049   1.10282   1.12078   1.13370   1.15679
  Beta virt. eigenvalues --    1.16776   1.18615   1.19849   1.22667   1.25858
  Beta virt. eigenvalues --    1.28328   1.30633   1.33977   1.35349   1.37735
  Beta virt. eigenvalues --    1.40692   1.41668   1.43800   1.45671   1.46928
  Beta virt. eigenvalues --    1.47962   1.49613   1.49842   1.50967   1.53048
  Beta virt. eigenvalues --    1.54406   1.55375   1.57090   1.58075   1.58288
  Beta virt. eigenvalues --    1.58493   1.59521   1.60051   1.61219   1.61929
  Beta virt. eigenvalues --    1.62326   1.63391   1.64576   1.65828   1.66016
  Beta virt. eigenvalues --    1.66500   1.67592   1.67886   1.69759   1.71344
  Beta virt. eigenvalues --    1.72204   1.72793   1.74321   1.75075   1.75254
  Beta virt. eigenvalues --    1.76289   1.78520   1.78698   1.79998   1.80769
  Beta virt. eigenvalues --    1.84317   1.84382   1.87613   1.88477   1.89191
  Beta virt. eigenvalues --    1.92672   1.95217   1.97349   1.98397   1.99872
  Beta virt. eigenvalues --    2.01315   2.02522   2.03961   2.06242   2.09214
  Beta virt. eigenvalues --    2.10534   2.12208   2.14799   2.15340   2.16975
  Beta virt. eigenvalues --    2.19145   2.20967   2.24976   2.27447   2.27516
  Beta virt. eigenvalues --    2.30260   2.32387   2.33411   2.34360   2.37881
  Beta virt. eigenvalues --    2.41361   2.42256   2.43845   2.46441   2.46947
  Beta virt. eigenvalues --    2.48404   2.49476   2.50329   2.51069   2.52601
  Beta virt. eigenvalues --    2.53680   2.54274   2.54525   2.55816   2.56179
  Beta virt. eigenvalues --    2.57092   2.58834   2.59787   2.60919   2.61986
  Beta virt. eigenvalues --    2.62878   2.63493   2.64124   2.66482   2.67077
  Beta virt. eigenvalues --    2.68887   2.72092   2.72261   2.74174   2.75099
  Beta virt. eigenvalues --    2.76356   2.77273   2.78010   2.80951   2.82298
  Beta virt. eigenvalues --    2.84834   2.88346   2.89567   2.90651   2.93532
  Beta virt. eigenvalues --    2.95660   2.96426   2.98901   3.01680   3.02187
  Beta virt. eigenvalues --    3.02719   3.06083   3.08649   3.10564   3.12116
  Beta virt. eigenvalues --    3.14627   3.16912   3.21318   3.23024   3.27633
  Beta virt. eigenvalues --    3.33397   3.42444   3.50294   3.63932   3.70796
  Beta virt. eigenvalues --    3.74882   3.77543   3.79953   3.80478   3.81044
  Beta virt. eigenvalues --    3.83097   3.84777   3.85447   3.86366   3.89814
  Beta virt. eigenvalues --    3.90033   3.98296   4.03663   4.11895   4.22781
  Beta virt. eigenvalues --    4.28909   4.31322   4.33030   4.39162   4.87667
  Beta virt. eigenvalues --    5.00205   5.07852   5.38531   5.53800   5.65234
  Beta virt. eigenvalues --   23.81116  23.83162  23.86694  23.89059  23.92204
  Beta virt. eigenvalues --   23.93593  23.97983  23.99027  23.99353  49.85697
  Beta virt. eigenvalues --   49.88606
          Condensed to atoms (all electrons):
              1          2          3          4          5          6
     1  C    6.034344   0.402101   0.405142   0.381361  -0.569677  -0.094011
     2  H    0.402101   0.599491  -0.042497  -0.029165  -0.111452  -0.018711
     3  H    0.405142  -0.042497   0.514915  -0.032273   0.125791   0.017490
     4  H    0.381361  -0.029165  -0.032273   0.580810   0.001756  -0.009816
     5  C   -0.569677  -0.111452   0.125791   0.001756   9.832524   0.665419
     6  H   -0.094011  -0.018711   0.017490  -0.009816   0.665419   0.643433
     7  C    0.428671   0.006261  -0.130360   0.026061  -3.250553  -0.229670
     8  H   -0.014405  -0.015147   0.004553   0.003335  -0.008391  -0.009313
     9  H    0.045835   0.011074   0.003921  -0.003778  -0.108904   0.008904
    10  C   -0.155157   0.019451   0.012637  -0.008986   0.205126  -0.003741
    11  H   -0.001458  -0.000934   0.000659   0.000024  -0.200522  -0.006534
    12  H    0.027375   0.004894   0.001047  -0.001118   0.287313   0.022547
    13  C    0.013435   0.005681  -0.006709  -0.001398  -0.049075  -0.013799
    14  H    0.000752  -0.002137   0.001167   0.000266  -0.014981   0.000271
    15  H   -0.000104   0.004348  -0.001164  -0.000386   0.012232  -0.002142
    16  C   -0.013693   0.001118   0.001008  -0.001860  -0.350323   0.000491
    17  C    0.000502   0.000282  -0.000055  -0.000090  -0.013898  -0.001761
    18  H    0.000057  -0.000033   0.000002   0.000004   0.000052  -0.000029
    19  H   -0.000113   0.000042  -0.000006  -0.000012  -0.001154   0.000067
    20  H    0.000196  -0.000098   0.000043   0.000007   0.000382   0.000347
    21  C   -0.272029   0.032203  -0.048087  -0.040940  -0.975781  -0.123245
    22  H   -0.038324   0.010658  -0.004752  -0.002590  -0.151580  -0.007112
    23  H    0.003300  -0.006888   0.000999   0.002801   0.083753   0.003334
    24  C   -0.003769  -0.001057   0.000330   0.000201   0.003669   0.003702
    25  H    0.000158  -0.000028   0.000016   0.000005   0.000455   0.000018
    26  H    0.000036   0.000072  -0.000039  -0.000007   0.001502  -0.000081
    27  H   -0.001703  -0.000100  -0.000070  -0.000021  -0.024643  -0.000952
    28  O    0.006475   0.002019  -0.001366  -0.004471   0.010264   0.011972
    29  O   -0.004732   0.000436   0.001587  -0.000332  -0.064059  -0.004143
    30  H   -0.001341   0.000134  -0.000049  -0.000187  -0.001168   0.000893
              7          8          9         10         11         12
     1  C    0.428671  -0.014405   0.045835  -0.155157  -0.001458   0.027375
     2  H    0.006261  -0.015147   0.011074   0.019451  -0.000934   0.004894
     3  H   -0.130360   0.004553   0.003921   0.012637   0.000659   0.001047
     4  H    0.026061   0.003335  -0.003778  -0.008986   0.000024  -0.001118
     5  C   -3.250553  -0.008391  -0.108904   0.205126  -0.200522   0.287313
     6  H   -0.229670  -0.009313   0.008904  -0.003741  -0.006534   0.022547
     7  C   10.687300   0.435890   0.446300  -1.861580   0.069291  -0.505458
     8  H    0.435890   0.689973  -0.091331  -0.057994  -0.005074  -0.012914
     9  H    0.446300  -0.091331   0.552071  -0.070601   0.004398   0.025570
    10  C   -1.861580  -0.057994  -0.070601   7.349514   0.473528   0.474963
    11  H    0.069291  -0.005074   0.004398   0.473528   0.663069  -0.138410
    12  H   -0.505458  -0.012914   0.025570   0.474963  -0.138410   0.851246
    13  C    0.566011  -0.081736   0.068305  -1.061505  -0.163474   0.169668
    14  H    0.029947   0.010580  -0.000702  -0.129964   0.025965  -0.031625
    15  H   -0.051983  -0.022109   0.011453  -0.041751  -0.027087   0.039145
    16  C   -0.497180  -0.008242  -0.007568   0.480009   0.112318  -0.067324
    17  C   -0.008804   0.010884  -0.005655   0.202826  -0.001706  -0.014384
    18  H   -0.000949   0.000260  -0.000064  -0.040486   0.000114   0.001660
    19  H   -0.001170  -0.000201   0.000017   0.009041  -0.001572  -0.000414
    20  H   -0.004728   0.000274  -0.000158   0.012587   0.001849  -0.000787
    21  C    0.518770   0.026149  -0.063309   0.220208   0.035654  -0.124179
    22  H    0.059568  -0.007407   0.001800  -0.003601  -0.001346   0.006001
    23  H   -0.105998   0.009985  -0.007311   0.060075   0.001315  -0.009231
    24  C    0.140312   0.007384  -0.004565   0.029062   0.016898  -0.086063
    25  H    0.002505   0.000427  -0.000097   0.002335  -0.000105  -0.000691
    26  H   -0.012211  -0.001204   0.001123  -0.016701  -0.000141   0.004620
    27  H    0.019725   0.001631  -0.003712   0.030342   0.005846  -0.024899
    28  O   -0.122975  -0.009955   0.028467   0.021496   0.000997   0.005114
    29  O    0.041146   0.007213  -0.027187  -0.023312  -0.004111   0.037212
    30  H   -0.048722  -0.003209   0.004462   0.015281  -0.000623   0.005945
             13         14         15         16         17         18
     1  C    0.013435   0.000752  -0.000104  -0.013693   0.000502   0.000057
     2  H    0.005681  -0.002137   0.004348   0.001118   0.000282  -0.000033
     3  H   -0.006709   0.001167  -0.001164   0.001008  -0.000055   0.000002
     4  H   -0.001398   0.000266  -0.000386  -0.001860  -0.000090   0.000004
     5  C   -0.049075  -0.014981   0.012232  -0.350323  -0.013898   0.000052
     6  H   -0.013799   0.000271  -0.002142   0.000491  -0.001761  -0.000029
     7  C    0.566011   0.029947  -0.051983  -0.497180  -0.008804  -0.000949
     8  H   -0.081736   0.010580  -0.022109  -0.008242   0.010884   0.000260
     9  H    0.068305  -0.000702   0.011453  -0.007568  -0.005655  -0.000064
    10  C   -1.061505  -0.129964  -0.041751   0.480009   0.202826  -0.040486
    11  H   -0.163474   0.025965  -0.027087   0.112318  -0.001706   0.000114
    12  H    0.169668  -0.031625   0.039145  -0.067324  -0.014384   0.001660
    13  C    8.419527   0.457332   0.566856  -1.491703  -0.365388   0.002699
    14  H    0.457332   0.634766  -0.066353  -0.063521  -0.019617   0.008640
    15  H    0.566856  -0.066353   0.631117  -0.150185  -0.010139   0.003118
    16  C   -1.491703  -0.063521  -0.150185   7.398348   0.032268  -0.005085
    17  C   -0.365388  -0.019617  -0.010139   0.032268   5.993439   0.322179
    18  H    0.002699   0.008640   0.003118  -0.005085   0.322179   0.640040
    19  H   -0.004167  -0.004936   0.002840  -0.097279   0.434298  -0.061431
    20  H   -0.008511   0.002471  -0.008918  -0.059078   0.423382  -0.048704
    21  C   -0.006440  -0.006408   0.004552   0.053850   0.005775  -0.000096
    22  H    0.007620  -0.002079   0.001828   0.001588   0.000792  -0.000025
    23  H   -0.041189   0.004575  -0.003954   0.001083   0.001079  -0.000039
    24  C   -0.062436   0.012512  -0.033171  -0.042203  -0.400956   0.025801
    25  H    0.010685  -0.003180  -0.002238  -0.080707   0.026581  -0.004681
    26  H   -0.014161   0.017260  -0.000774  -0.038512   0.013057   0.022779
    27  H   -0.074305  -0.009825   0.000775  -0.049444   0.014752  -0.004841
    28  O    0.008064  -0.000577   0.001056   0.000998  -0.000173   0.000004
    29  O    0.034127  -0.001497   0.001401  -0.003724   0.000024  -0.000004
    30  H   -0.000605  -0.000702   0.000528  -0.000209  -0.000140  -0.000008
             19         20         21         22         23         24
     1  C   -0.000113   0.000196  -0.272029  -0.038324   0.003300  -0.003769
     2  H    0.000042  -0.000098   0.032203   0.010658  -0.006888  -0.001057
     3  H   -0.000006   0.000043  -0.048087  -0.004752   0.000999   0.000330
     4  H   -0.000012   0.000007  -0.040940  -0.002590   0.002801   0.000201
     5  C   -0.001154   0.000382  -0.975781  -0.151580   0.083753   0.003669
     6  H    0.000067   0.000347  -0.123245  -0.007112   0.003334   0.003702
     7  C   -0.001170  -0.004728   0.518770   0.059568  -0.105998   0.140312
     8  H   -0.000201   0.000274   0.026149  -0.007407   0.009985   0.007384
     9  H    0.000017  -0.000158  -0.063309   0.001800  -0.007311  -0.004565
    10  C    0.009041   0.012587   0.220208  -0.003601   0.060075   0.029062
    11  H   -0.001572   0.001849   0.035654  -0.001346   0.001315   0.016898
    12  H   -0.000414  -0.000787  -0.124179   0.006001  -0.009231  -0.086063
    13  C   -0.004167  -0.008511  -0.006440   0.007620  -0.041189  -0.062436
    14  H   -0.004936   0.002471  -0.006408  -0.002079   0.004575   0.012512
    15  H    0.002840  -0.008918   0.004552   0.001828  -0.003954  -0.033171
    16  C   -0.097279  -0.059078   0.053850   0.001588   0.001083  -0.042203
    17  C    0.434298   0.423382   0.005775   0.000792   0.001079  -0.400956
    18  H   -0.061431  -0.048704  -0.000096  -0.000025  -0.000039   0.025801
    19  H    0.596627  -0.018876   0.000547   0.000081  -0.000097  -0.001114
    20  H   -0.018876   0.570634  -0.001295  -0.000148   0.000354  -0.001655
    21  C    0.000547  -0.001295   6.420223   0.432332   0.328386  -0.002825
    22  H    0.000081  -0.000148   0.432332   0.595923  -0.052043  -0.001912
    23  H   -0.000097   0.000354   0.328386  -0.052043   0.588319   0.002842
    24  C   -0.001114  -0.001655  -0.002825  -0.001912   0.002842   5.903188
    25  H    0.009032   0.000711  -0.001203  -0.000157   0.000363   0.400883
    26  H   -0.005877  -0.002812   0.000317   0.000108  -0.000547   0.366074
    27  H    0.003151  -0.002459   0.013333   0.000491  -0.000495   0.429570
    28  O   -0.000013   0.000023   0.207739  -0.075820  -0.040398  -0.000926
    29  O    0.000055  -0.000075   0.011659   0.033621  -0.010238  -0.008585
    30  H   -0.000005   0.000021   0.028950  -0.001339  -0.002337   0.000377
             25         26         27         28         29         30
     1  C    0.000158   0.000036  -0.001703   0.006475  -0.004732  -0.001341
     2  H   -0.000028   0.000072  -0.000100   0.002019   0.000436   0.000134
     3  H    0.000016  -0.000039  -0.000070  -0.001366   0.001587  -0.000049
     4  H    0.000005  -0.000007  -0.000021  -0.004471  -0.000332  -0.000187
     5  C    0.000455   0.001502  -0.024643   0.010264  -0.064059  -0.001168
     6  H    0.000018  -0.000081  -0.000952   0.011972  -0.004143   0.000893
     7  C    0.002505  -0.012211   0.019725  -0.122975   0.041146  -0.048722
     8  H    0.000427  -0.001204   0.001631  -0.009955   0.007213  -0.003209
     9  H   -0.000097   0.001123  -0.003712   0.028467  -0.027187   0.004462
    10  C    0.002335  -0.016701   0.030342   0.021496  -0.023312   0.015281
    11  H   -0.000105  -0.000141   0.005846   0.000997  -0.004111  -0.000623
    12  H   -0.000691   0.004620  -0.024899   0.005114   0.037212   0.005945
    13  C    0.010685  -0.014161  -0.074305   0.008064   0.034127  -0.000605
    14  H   -0.003180   0.017260  -0.009825  -0.000577  -0.001497  -0.000702
    15  H   -0.002238  -0.000774   0.000775   0.001056   0.001401   0.000528
    16  C   -0.080707  -0.038512  -0.049444   0.000998  -0.003724  -0.000209
    17  C    0.026581   0.013057   0.014752  -0.000173   0.000024  -0.000140
    18  H   -0.004681   0.022779  -0.004841   0.000004  -0.000004  -0.000008
    19  H    0.009032  -0.005877   0.003151  -0.000013   0.000055  -0.000005
    20  H    0.000711  -0.002812  -0.002459   0.000023  -0.000075   0.000021
    21  C   -0.001203   0.000317   0.013333   0.207739   0.011659   0.028950
    22  H   -0.000157   0.000108   0.000491  -0.075820   0.033621  -0.001339
    23  H    0.000363  -0.000547  -0.000495  -0.040398  -0.010238  -0.002337
    24  C    0.400883   0.366074   0.429570  -0.000926  -0.008585   0.000377
    25  H    0.586781  -0.060549  -0.019708   0.000049   0.000042  -0.000044
    26  H   -0.060549   0.627476  -0.041256   0.000068   0.000299   0.000086
    27  H   -0.019708  -0.041256   0.582734  -0.000589  -0.004047  -0.000355
    28  O    0.000049   0.000068  -0.000589   8.014578   0.011301  -0.000754
    29  O    0.000042   0.000299  -0.004047   0.011301   7.986100   0.185688
    30  H   -0.000044   0.000086  -0.000355  -0.000754   0.185688   0.550441
 Mulliken atomic charges:
              1
     1  C   -0.579227
     2  H    0.127981
     3  H    0.176121
     4  H    0.140801
     5  C    0.665923
     6  H    0.146171
     7  C   -0.645416
     8  H    0.140093
     9  H    0.181241
    10  C   -0.143103
    11  H    0.141171
    12  H    0.053180
    13  C   -0.883407
    14  H    0.151598
    15  H    0.141208
    16  C    0.944760
    17  C   -0.639351
    18  H    0.139066
    19  H    0.142639
    20  H    0.145022
    21  C   -0.674810
    22  H    0.197824
    23  H    0.188205
    24  C   -0.691566
    25  H    0.132341
    26  H    0.139998
    27  H    0.161075
    28  O   -0.072666
    29  O   -0.195864
    30  H    0.268993
 Sum of Mulliken atomic charges =   0.00000
 Mulliken charges with hydrogens summed into heavy atoms:
              1
     1  C   -0.134324
     5  C    0.812094
     7  C   -0.324083
    10  C    0.051248
    13  C   -0.590601
    16  C    0.944760
    17  C   -0.212624
    21  C   -0.288781
    24  C   -0.258151
    28  O   -0.072666
    29  O    0.073129
 Sum of Mulliken charges with hydrogens summed into heavy atoms =   0.00000
          Atomic-Atomic Spin Densities.
              1          2          3          4          5          6
     1  C   -0.000758   0.000166   0.000323  -0.000474  -0.006670  -0.000788
     2  H    0.000166  -0.000036  -0.000030   0.000036   0.002143   0.000062
     3  H    0.000323  -0.000030  -0.000030  -0.000004  -0.000347   0.000004
     4  H   -0.000474   0.000036  -0.000004   0.000144  -0.001680  -0.000080
     5  C   -0.006670   0.002143  -0.000347  -0.001680  -0.020080  -0.002965
     6  H   -0.000788   0.000062   0.000004  -0.000080  -0.002965   0.000078
     7  C   -0.004408  -0.001546   0.000181   0.001553  -0.040902   0.000727
     8  H   -0.000378   0.000099   0.000035  -0.000122  -0.002598  -0.000203
     9  H   -0.000285   0.000036  -0.000061   0.000054   0.002727   0.000014
    10  C    0.004466  -0.000954   0.000234   0.000288  -0.000910   0.001563
    11  H    0.000576   0.000027  -0.000008   0.000003   0.004009   0.000193
[...]
 1404,0.00039149,0.00083872,-0.00013602,-0.00027326,-0.00005220,0.00009
 747,0.00011573,-0.00031832,-0.00537633,-0.01074455,-0.00261722,0.00124
 570,0.00050897,0.00122830,-0.00065097,0.00063515,0.00052421,-0.0262240
 9,-0.20678484,0.00810255,-0.00349294,-0.02136782,0.00405887,-0.0012085
 8,0.00117796,-0.00047447,-0.00137154,0.00138498,-0.00092380,0.00212417
 ,-0.00075625,-0.00006719,-0.00005014,0.00017628,-0.00003021,0.00002993
 ,-0.00003265,0.00000363,0.00000032,0.00000708,0.00000450,-0.02951522,0
 .47519600,-0.00002017,0.00000799,0.00004149,0.00000756,0.00000148,-0.0
 0000166,0.00000132,0.00000185,-0.00000529,-0.00002106,-0.00000762,-0.0
 0000188,-0.00003445,0.00006215,-0.00008512,0.00000120,-0.00000343,0.00
 000457,-0.00022702,0.00003965,0.00028065,0.00011037,0.00010627,0.00006
 505,0.00000762,0.00000793,-0.00000047,0.00017718,-0.00118143,-0.000898
 43,-0.00001382,0.00012068,0.00013488,-0.00012181,0.00032117,0.00015572
 ,-0.00639129,-0.01393079,0.00137697,0.00120759,-0.00101564,0.00208460,
 -0.00271544,-0.00276831,-0.00027916,-0.01288024,0.00735451,-0.05563215
 ,0.00106021,0.00754091,0.00096099,-0.00021437,0.00042569,0.00027213,0.
 00057988,0.00110978,0.00026986,-0.00154914,0.00206892,-0.00033025,-0.0
 0001807,-0.00006881,0.00000931,-0.00001423,0.00001887,0.00001094,0.000
 00018,-0.00000299,0.00000170,0.03967222,0.01157942,0.49832586,-0.00001
 734,0.00000843,0.00002400,0.00000769,0.00000581,0.00000104,0.00000494,
 -0.00000012,-0.00000145,-0.00002134,-0.00000656,0.00000313,0.00002379,
 0.00001187,-0.00003577,-0.00000334,-0.00001032,0.00001319,-0.00005850,
 -0.00000058,0.00004462,0.00000482,0.00003112,0.00001770,0.00003080,0.0
 0000720,0.00001888,0.00025415,0.00002857,-0.00020693,-0.00001901,-0.00
 011552,0.00005296,0.00003976,0.00015092,-0.00008975,0.00138596,-0.0021
 3666,-0.00073132,0.00022895,0.00026754,0.00032308,-0.00058399,-0.00063
 183,0.00000030,-0.00649716,-0.00539041,-0.00489839,0.00002152,0.000814
 67,0.00082048,0.00008942,0.00018510,-0.00004498,0.00046321,-0.00014136
 ,0.00007363,0.00000593,0.00010076,0.00017601,-0.00003595,-0.00003538,-
 0.00003841,-0.00001698,0.00000173,0.00000860,0.00001785,-0.00000098,-0
 .00000910,-0.10677553,-0.03239916,-0.10346590,0.11458552,-0.00003020,0
 .00000758,0.00004866,0.00000876,0.00000582,-0.00000054,0.00000152,-0.0
 0000032,-0.00000584,-0.00003008,-0.00001031,-0.00000144,-0.00002792,0.
 00002254,-0.00010534,0.00000407,-0.00000209,0.00000857,-0.00012007,0.0
 0002342,0.00026784,0.00004653,0.00005501,0.00001915,-0.00000046,-0.000
 00930,-0.00001609,0.00011686,-0.00027328,-0.00052779,-0.00002019,-0.00
 002266,0.00005510,-0.00008453,0.00007570,0.00011259,0.00091519,-0.0046
 9956,0.00000951,0.00022022,0.00009590,-0.00003195,-0.00137723,-0.00078
 577,-0.00056378,-0.01904697,-0.01052029,-0.02264280,-0.00111053,0.0013
 5990,-0.00120734,0.00027749,-0.00007105,0.00015313,0.00086033,-0.00013
 315,0.00085887,-0.00001487,0.00046019,0.00023320,0.00000722,-0.0000849
 3,0.00001300,-0.00002298,0.00001874,0.00000373,0.00000544,-0.00000162,
 -0.00000840,-0.03377878,-0.06864503,-0.06313943,0.04256627,0.07566911,
 -0.00001710,0.00000933,0.00002495,0.00000647,0.00000275,-0.00000145,0.
 00000366,-0.00000006,-0.00000361,-0.00002256,-0.00000658,0.00000372,0.
 00001862,-0.00000186,-0.00004737,0.00000001,-0.00000134,0.00000875,-0.
 00002041,0.00000297,0.00005784,-0.00000777,-0.00000113,-0.00000756,0.0
 0001002,-0.00000805,-0.00000192,0.00015927,-0.00009150,-0.00013145,-0.
 00004382,-0.00000013,0.00004535,0.00003360,0.00000400,0.00000176,0.001
 30192,0.00060991,0.00002377,0.00021209,0.00017292,0.00005361,-0.000028
 38,-0.00009063,0.00006274,0.00039848,0.00027319,0.00412529,0.00003561,
 0.00041148,0.00046588,0.00014427,-0.00012584,-0.00031382,0.00026509,-0
 .00040023,0.00024051,0.00024764,0.00008641,0.00030591,0.00000755,-0.00
 003331,-0.00000489,-0.00001831,0.00000303,0.00000500,0.00001212,-0.000
 00788,-0.00001237,-0.10389099,-0.06149354,-0.21259681,0.11367113,0.066
 87791,0.23251917,-0.00001557,-0.00000043,0.00003162,0.00000520,-0.0000
 0284,-0.00000151,-0.00000248,0.00000536,-0.00000476,-0.00002324,-0.000
 00721,-0.00000007,-0.00000974,0.00000661,-0.00006716,0.00000716,0.0000
 0350,-0.00000240,0.00003926,-0.00000833,0.00009849,-0.00003181,-0.0000
 3016,-0.00002233,-0.00003376,0.00001381,-0.00001232,-0.00006527,0.0004
 2083,-0.00001640,0.00005480,-0.00010672,-0.00012215,0.00014316,-0.0000
 6368,-0.00007759,0.00086997,-0.00052521,0.00055149,-0.00053208,0.00000
 635,-0.00050103,-0.00014588,-0.00002863,-0.00020557,-0.00358888,-0.008
 86897,0.00289395,-0.00037133,0.00004539,-0.00008367,0.00045489,-0.0003
 8619,0.00025237,0.00020709,0.00001010,0.00009721,0.00006591,-0.0002449
 5,0.00009321,0.00005338,-0.00002341,0.00003867,-0.00002186,0.00000454,
 0.00000045,0.00000620,-0.00001493,-0.00002909,-0.11956730,-0.02109227,
 0.10605247,0.00909866,0.00352800,-0.01252576,0.13021052,-0.00003614,0.
 00000973,0.00004563,0.00000809,0.00000366,0.00000185,0.00000094,0.0000
 0044,-0.00000560,-0.00003029,-0.00001333,-0.00000153,-0.00003147,-0.00
 001673,-0.00009620,0.00000484,0.00000303,0.00000473,-0.00022353,0.0001
 4565,0.00015183,0.00002677,0.00001527,0.00002048,-0.00002513,-0.000015
 30,-0.00002455,-0.00014374,-0.00008915,-0.00052103,0.00010560,0.000049
 66,-0.00009298,-0.00008410,0.00014841,0.00011204,0.00178804,-0.0007429
 8,0.00136433,-0.00057315,0.00027849,-0.00087325,-0.00022455,-0.0000087
 9,-0.00031670,-0.01967644,-0.01560946,0.02275294,-0.00026336,0.0014830
 6,-0.00111369,0.00117715,-0.00074243,-0.00026405,0.00005471,-0.0002487
 4,0.00019048,0.00021577,-0.00014130,-0.00027013,0.00000853,-0.00008354
 ,-0.00000241,-0.00001659,0.00001343,0.00000268,0.00000692,-0.00000586,
 -0.00000416,-0.02921785,-0.04946174,0.04225545,0.00544547,0.00208450,-
 0.00680194,0.03217139,0.05934155,0.00002355,-0.00000485,-0.00003540,-0
 .00000622,0.00000215,0.00000232,0.00000032,-0.00000373,0.00000618,0.00
 002645,0.00000936,-0.00000081,0.00002175,0.00000746,0.00007750,-0.0000
 0310,-0.00000560,0.00000039,0.00006844,-0.00007847,-0.00015846,-0.0000
 1400,0.00001618,0.00000693,0.00001518,0.00000214,0.00001556,0.00036681
 ,0.00011117,0.00017671,-0.00007843,-0.00002358,0.00000554,0.00004499,-
 0.00002238,-0.00005874,0.00034502,-0.00012834,-0.00091435,0.00025841,0
 .00023591,-0.00013283,0.00002877,0.00005867,-0.00006283,-0.00041392,0.
 00778730,0.00372185,0.00008397,0.00011995,0.00058942,-0.00034833,0.000
 50842,-0.00030460,0.00010333,-0.00015955,-0.00032376,-0.00014733,0.000
 25750,0.00003700,-0.00004695,0.00004248,-0.00002977,0.00001967,-0.0000
 0782,-0.00000238,-0.00000355,0.00001547,0.00001799,0.10426805,0.030995
 78,-0.18669512,0.01580856,0.00428278,-0.02366667,-0.11912826,-0.042599
 68,0.20598042,0.00002396,-0.00000482,-0.00002734,-0.00000439,-0.000007
 17,-0.00000337,0.00000049,0.00000063,0.00000536,0.00001691,0.00000676,
 0.00000130,0.00002095,0.00001533,0.00005226,-0.00000181,-0.00000552,0.
 00000090,0.00008345,0.00005663,-0.00013890,-0.00001412,-0.00000050,-0.
 00000768,-0.00000085,0.00000339,0.00001138,0.00041496,-0.00004679,0.00
 033489,-0.00002008,-0.00002470,-0.00002408,0.00002811,-0.00009145,0.00
 003642,0.00004918,-0.00056044,-0.00080454,0.00025660,-0.00011510,0.000
 29215,0.00009506,0.00011489,0.00017574,0.00766541,-0.00367308,0.000520
 07,0.00027317,-0.00145620,0.00043696,-0.00000852,-0.00012762,0.0000703
 6,0.00011778,-0.00004523,0.00026343,0.00026676,-0.00015978,0.00020884,
 -0.00001767,0.00007202,-0.00000422,0.00001257,-0.00001208,0.00000203,-
 0.00000071,0.00000485,-0.00000099,-0.22632309,0.11633233,-0.02116043,-
 0.01218648,0.00712646,0.00008556,-0.01675755,0.00955847,-0.00133684,0.
 24592552,0.00000017,-0.00000135,-0.00000942,-0.00000395,0.00000480,0.0
 0000642,-0.00000346,-0.00000372,-0.00000038,0.00001724,0.00000065,-0.0
 0000663,-0.00005307,-0.00002498,0.00001470,0.00000414,0.00000750,-0.00
 001366,-0.00023930,0.00020268,0.00009220,0.00011134,0.00006473,0.00005
 669,-0.00002903,-0.00003354,-0.00003129,-0.00022489,-0.00068571,-0.000
 29243,0.00011105,0.00023929,-0.00007057,-0.00047950,0.00015796,0.00030
 951,0.00077056,0.00144324,0.00110838,-0.00051387,-0.00005327,-0.000870
 73,0.00019311,0.00052073,-0.00008852,0.02690736,-0.01849252,0.00594918
 ,-0.00292544,-0.00488047,-0.00093738,0.00032066,-0.00009726,-0.0001973
 7,-0.00017747,0.00027580,0.00005715,0.00113352,-0.00108081,0.00045397,
 -0.00003284,-0.00004218,-0.00002153,0.00002424,0.00000853,-0.00000503,
 -0.00001773,0.00001980,0.00003909,0.11552618,-0.12137208,0.00904963,-0
 .00876524,0.00530265,0.00058756,-0.00483058,0.00352241,-0.00137898,-0.
 12691643,0.13495175,0.00000468,-0.00000904,0.00000051,-0.00000192,-0.0
 0000399,-0.00000288,-0.00000435,0.00000251,-0.00000185,-0.00000150,0.0
 0000214,-0.00000015,-0.00000823,0.00001690,-0.00001457,0.00000622,0.00
 000654,-0.00000848,0.00013236,-0.00017840,-0.00001754,-0.00005678,-0.0
 0003710,-0.00004318,-0.00003911,0.00001163,-0.00001978,-0.00021753,0.0
 0033701,0.00016112,0.00004545,-0.00000826,-0.00004083,0.00025082,-0.00
 013655,-0.00004687,0.00041227,-0.00066381,0.00021410,-0.00009711,-0.00
 025903,-0.00032476,-0.00006883,0.00011081,-0.00017104,-0.00187002,0.00
 294533,-0.00150130,-0.00029693,0.00078595,0.00046586,-0.00020606,0.000
 35749,0.00001106,0.00038225,-0.00007197,0.00039813,-0.00002446,0.00033
 992,0.00035628,0.00007202,0.00001435,0.00007060,-0.00001014,0.00000116
 ,-0.00000839,-0.00000822,-0.00000869,-0.00002190,-0.02057567,0.0088225
 5,-0.04746548,-0.02155379,0.01532180,-0.00115377,0.02272981,-0.0138999
 9,0.00171704,0.02099463,-0.01381228,0.04750414,-0.00029912,-0.00144724
 ,-0.00028330,0.00032949,-0.00012892,0.00044919,0.00056329,-0.00035987,
 0.00083113,0.00011041,0.00017423,-0.00008495,-0.00461275,0.01516073,-0
 .01393869,-0.00021106,0.00372486,0.00180190,0.00118364,-0.00033676,-0.
 00189399,0.00022337,-0.00031347,0.00039935,-0.00051249,-0.00003667,0.0
 0094435,-0.00056557,-0.00008545,0.00020068,0.00029447,-0.00024097,0.00
 011522,-0.00024194,0.00028189,-0.00012684,0.00007902,0.00002075,0.0000
 1522,-0.00003004,-0.00005102,0.00005189,-0.00004417,0.00004979,0.00002
 907,0.00004821,0.00002506,0.00006110,0.00001362,-0.00002751,-0.0000066
 5,-0.00003065,0.00001123,0.00002221,-0.00000929,-0.00000032,-0.0000195
 6,0.00001278,-0.00001676,-0.00000143,-0.12113497,0.02395130,-0.0295066
 1,0.00773342,-0.01895127,0.01761332,-0.01341176,0.02337361,-0.02410326
 ,0.00002238,-0.00000195,-0.00001678,-0.00001366,-0.00000551,-0.0000184
 7,-0.00003933,-0.00000857,0.00003142,0.00002820,0.00003951,-0.00000944
 ,0.29511312,0.00075825,0.00198697,0.00030696,0.00020592,0.00023285,0.0
 0041870,-0.00016024,-0.00090875,-0.00013343,-0.00044782,-0.00046416,0.
 00032969,0.01585463,-0.02949905,0.03011069,0.00266467,-0.00731090,-0.0
 0375179,-0.00179177,0.00137961,0.00144665,-0.00017415,0.00035191,-0.00
 031631,0.00010364,0.00062858,-0.00062659,-0.00008066,-0.00062322,-0.00
 005687,-0.00008039,0.00005260,-0.00009202,0.00008857,0.00023856,0.0000
 8342,0.00017109,0.00027395,0.00012115,-0.00000919,-0.00001848,-0.00003
 879,-0.00007788,0.00003342,0.00004988,-0.00006322,-0.00010208,-0.00008
 213,0.00000946,0.00006167,0.00002028,0.00002920,-0.00001369,-0.0000188
 4,0.00003963,0.00000008,0.00003637,-0.00002499,0.00003625,-0.00001431,
 0.05859344,-0.11489918,0.04798967,0.00055015,-0.01056911,0.01429623,-0
 .00016547,0.00400660,0.00516397,0.00007480,-0.00007277,0.00003376,0.00
 003331,0.00003593,0.00003081,0.00002093,0.00004179,-0.00002824,-0.0000
 5034,-0.00000669,-0.00001744,0.01326806,0.25966747,-0.00118591,-0.0006
 9609,-0.00030543,0.00051635,-0.00034800,0.00071732,0.00100157,-0.00012
 738,0.00134508,0.00009674,-0.00016148,0.00015548,0.00105773,0.00485760
 ,0.00698957,0.00055501,-0.00190852,0.00063184,-0.00017763,0.00065714,0
 .00041577,-0.00037309,0.00015090,0.00024314,-0.00016867,-0.00000765,0.
 00016788,-0.00036819,-0.00035038,-0.00000494,0.00017816,-0.00015193,0.
 00007304,-0.00000591,0.00032663,-0.00017091,0.00006283,0.00012379,-0.0
 0006180,-0.00006426,-0.00003060,0.00013239,-0.00002742,0.00001920,0.00
 007661,0.00003365,0.00000879,0.00005619,0.00000808,-0.00001348,-0.0000
 0665,-0.00001415,0.00000325,0.00001508,0.00001018,0.00000310,-0.000004
 27,0.00000693,-0.00001834,-0.00000454,-0.06071920,0.05140056,-0.099833
 21,-0.00417773,0.01596500,-0.01748410,-0.01124314,0.02256068,-0.023347
 23,-0.00001632,0.00002793,-0.00000193,0.00002698,-0.00001066,0.0000056
 1,-0.00003016,-0.00000506,0.00002397,0.00001933,-0.00000005,-0.0000464
 9,0.00506502,-0.14604546,0.17880518,-0.00005744,0.00000872,-0.00008608
 ,0.00014199,-0.00012473,0.00001581,-0.00017213,-0.00006719,0.00014435,
 0.00012028,0.00021898,-0.00010404,0.00136154,0.00077997,-0.00090530,-0
 .00009552,0.00004013,0.00005451,-0.00058137,-0.00033224,0.00013583,0.0
 0030299,0.00011308,-0.00024183,-0.00012390,0.00082204,-0.00009750,-0.0
 0040370,-0.00071943,-0.00110390,-0.00015224,0.00056219,0.00009694,-0.0
 0006197,0.00090484,0.00048809,0.00011739,0.00026711,0.00006726,0.00003
 835,-0.00005965,-0.00008474,-0.00012776,0.00008804,0.00010633,0.000086
 25,-0.00004605,0.00000196,0.00003512,-0.00001016,0.00000720,-0.0000386
 6,0.00001503,0.00001652,-0.00001554,-0.00000953,-0.00001625,0.00000946
 ,0.00002112,-0.00000493,0.00641885,-0.00060940,0.00797202,0.00368214,0
 .00006116,-0.00194913,0.00319694,0.00089884,-0.00009826,0.00014214,-0.
 00010214,0.00001291,-0.00003918,0.00001364,-0.00001955,-0.00004722,0.0
 0002121,0.00002440,0.00002072,0.00009601,-0.00001633,-0.15640785,-0.04
 496195,0.06790691,0.18821423,0.00010512,-0.00015925,0.00024010,0.00011
 384,-0.00008581,-0.00009551,-0.00021674,-0.00012985,0.00001307,0.00013
 703,0.00023707,-0.00010575,-0.00031364,0.00042851,0.00008726,0.0001880
 0,0.00025764,-0.00023536,0.00117362,-0.00195501,-0.00187673,0.00036898
 ,-0.00067290,0.00041111,0.00092338,-0.00201428,0.00044986,0.00023571,-
 0.00003418,-0.00021088,0.00004274,-0.00004861,0.00000199,-0.00005987,-
 0.00072005,0.00004153,0.00003643,-0.00029171,0.00017879,0.00003503,0.0
 0001884,-0.00014316,0.00006202,0.00005824,-0.00010070,-0.00010681,-0.0
 0008158,-0.00008016,0.00001858,0.00006434,0.00001373,0.00001583,-0.000
 01022,-0.00001454,0.00001609,-0.00000664,0.00002352,-0.00002179,0.0000
 4449,-0.00001161,-0.03462941,-0.01384213,0.01780093,0.00314631,-0.0046
 6744,0.00198449,0.00128572,0.00238460,-0.00230719,0.00017573,-0.000142
 48,0.00001355,-0.00001855,0.00005035,0.00000381,0.00002564,0.00004338,
 -0.00003073,-0.00002331,0.00002433,0.00005310,-0.05856444,-0.09297308,
 0.05400211,-0.03020786,0.55185814,-0.00019255,0.00043342,-0.00043147,0
 .00006879,0.00004258,0.00021754,-0.00000611,-0.00009371,0.00022566,-0.
 00010504,-0.00008878,-0.00004721,-0.00141731,-0.00190403,0.00254315,0.
 00025668,-0.00066760,-0.00011652,0.00013491,0.00050517,-0.00041056,-0.
 00017010,-0.00002071,0.00044514,0.00041354,-0.00099864,0.00024133,-0.0
 0031595,-0.00064047,-0.00030853,-0.00001798,0.00021533,0.00009563,0.00
 031087,0.00056872,0.00005569,-0.00000245,0.00034888,-0.00011747,-0.000
 04620,-0.00005604,0.00009168,-0.00011968,0.00002106,0.00009380,0.00005
 320,-0.00000825,0.00008280,0.00001497,-0.00002535,-0.00000720,-0.00002
 817,0.00001203,0.00001935,-0.00000302,0.00000021,-0.00001351,0.0000116
 6,-0.00001263,-0.00000097,0.02930547,0.01407641,-0.02424970,-0.0032003
 0,0.00659052,-0.00281452,0.00309490,-0.00206903,0.00385639,-0.00000520
 ,0.00001546,0.00000708,0.00001277,-0.00001644,-0.00000294,-0.00006025,
 -0.00000126,0.00003655,0.00001457,0.00004053,-0.00007819,0.04163580,0.
 02454846,-0.04943708,-0.12272839,0.09468073,0.13584659,0.00011714,-0.0
 0007387,-0.00001245,-0.00001301,-0.00004210,-0.00001456,-0.00005254,0.
 00001125,0.00002836,0.00003085,0.00005186,-0.00001038,-0.00045739,-0.0
 0052969,0.00047944,0.00013717,-0.00003677,-0.00013143,0.00008067,0.000
 05648,0.00050983,-0.00013232,0.00022524,-0.00024648,0.00008506,-0.0001
 3905,-0.00063238,0.00016409,0.00040657,0.00016758,-0.00009673,-0.00005
 962,-0.00006244,0.00009835,-0.00002058,0.00006251,-0.00003251,-0.00005
 065,-0.00002523,0.00003327,0.00003221,0.00000921,0.00002185,-0.0000615
 5,-0.00001689,0.00005767,0.00009482,0.00000110,-0.00004360,-0.00004235
 ,-0.00001214,0.00001900,-0.00000402,-0.00000940,-0.00001227,0.00000882
 ,-0.00000589,0.00000860,-0.00003050,0.00001245,-0.00431501,-0.00018484
 ,-0.00072638,0.00035884,-0.00046766,0.00023889,0.00053219,0.00075310,-
 0.00039448,-0.00017402,0.00010979,-0.00002647,0.00000550,-0.00002770,-
 0.00000002,0.00003710,-0.00003899,-0.00001214,0.00003548,-0.00004228,0
 .00003591,-0.00819075,-0.04437769,0.00202633,-0.04556389,0.11605661,0.
 05309060,0.05726122,-0.00013463,0.00007740,0.00007714,0.00001526,0.000
 09254,0.00004954,-0.00001276,-0.00008527,-0.00004710,-0.00002027,-0.00
 003318,-0.00002639,-0.00018945,0.00009278,-0.00018261,-0.00005023,0.00
 018136,0.00005065,0.00012719,0.00025507,-0.00068720,-0.00003065,-0.000
 03012,0.00023316,0.00027496,-0.00051844,0.00028666,-0.00015756,-0.0001
 9242,-0.00008819,0.00001235,0.00003304,0.00002699,0.00014184,0.0000604
 2,0.00005486,0.00000135,0.00006837,-0.00004572,-0.00000860,-0.00001199
 ,0.00002999,-0.00003160,0.00000498,0.00003049,0.00003939,0.00002151,0.
 00003732,0.00000093,-0.00002402,-0.00000391,-0.00001302,0.00000697,0.0
 0000953,-0.00000837,0.00000088,-0.00001292,0.00000792,-0.00001321,0.00
 000284,-0.00113243,-0.00299635,0.00087039,0.00004860,0.00022215,-0.000
 15162,-0.00010058,-0.00028814,0.00012565,-0.00001135,0.00000669,-0.000
 00123,-0.00000611,-0.00000799,-0.00001204,-0.00002796,-0.00000510,0.00
 001924,0.00002878,0.00002775,-0.00002261,0.00049566,-0.01156707,-0.000
 23158,0.07231820,-0.43763472,-0.13549653,-0.07157684,0.45225608,0.0000
 5583,-0.00013368,-0.00002079,-0.00004192,-0.00000271,-0.00005095,0.000
 04794,0.00000532,-0.00005518,-0.00003679,-0.00002689,0.00002919,-0.000
 18436,0.00021114,-0.00072987,-0.00012451,0.00013445,0.00015336,0.00010
 029,-0.00017618,-0.00044152,0.00006411,-0.00017850,0.00011153,-0.00017
 373,0.00013237,0.00040579,-0.00008224,0.00021152,0.00010803,0.00003952
 ,-0.00002731,0.00002280,-0.00006591,-0.00000803,0.00000526,-0.00002180
 ,-0.00007121,0.00006038,-0.00000726,0.00001398,-0.00002476,0.00002697,
 -0.00001872,-0.00003127,-0.00001628,0.00000385,-0.00004711,-0.00000789
 ,0.00001831,0.00000814,0.00001899,-0.00000822,-0.00001302,-0.00000052,
 -0.00000051,0.00000683,-0.00000644,0.00000598,0.00000153,0.00458868,0.
 00258156,0.00041891,-0.00029237,0.00074408,-0.00079270,-0.00070645,0.0
 0005781,-0.00063603,-0.00001079,0.00000316,-0.00000805,-0.00002129,0.0
 0001200,-0.00000525,0.00005075,-0.00000821,-0.00002964,-0.00001778,-0.
 00002875,0.00006861,0.00074311,0.02623554,0.00085444,0.05040519,-0.164
 78734,-0.06582252,-0.05432305,0.13510521,0.06645384\\0.00000003,0.0000
 0079,-0.00000331,0.00000030,0.00000052,-0.00000281,0.00000112,0.000000
 53,-0.00000412,-0.00000078,0.00000125,-0.00000431,-0.00000081,0.000001
 17,-0.00000245,-0.00000171,0.00000088,-0.00000177,0.00000026,0.0000002
 4,-0.00000053,0.00000054,-0.00000008,-0.00000052,0.00000168,-0.0000000
 6,-0.00000169,-0.00000099,-0.00000017,0.00000062,-0.00000125,0.0000002
 2,0.00000050,-0.00000006,0.00000030,-0.00000007,0.00000130,-0.00000056
 ,0.00000081,0.00000147,-0.00000061,0.00000160,0.00000085,-0.00000034,0
 .00000244,0.00000090,-0.00000138,0.00000382,-0.00000155,0.,0.00000468,
 0.00000064,-0.00000196,0.00000533,-0.00000130,-0.00000097,0.00000506,-
 0.00000117,-0.00000066,0.00000407,-0.00000058,0.00000035,-0.00000193,-
 0.00000191,0.00000130,-0.00000411,-0.00000186,0.00000086,-0.00000249,0
 .00000071,-0.00000118,0.00000318,-0.00000043,-0.00000071,0.00000342,0.
 00000171,-0.00000121,0.00000346,0.00000019,-0.00000071,0.00000169,0.00
 000037,0.00000071,-0.00000421,0.00000128,0.00000066,-0.00000308,0.0000
 0104,0.00000083,-0.00000325\\\@
 Job cpu time:  0 days 10 hours 45 minutes 21.2 seconds.
 File lengths (MBytes):  RWF=  72054 Int=      0 D2E=      0 Chk=     32 Scr=      1
 Normal termination of Gaussian 09 at Sat Feb  8 11:29:03 2014.
