 Entering Gaussian System, Link 0=g09
 Initial command:
 /usr/caen/gaussian-09revc/g09/l1.exe /scratch/avioli_flux/hetanjin/scratch/Gau-80495.inp -scrdir=/scratch/avioli_flux/hetanjin/scratch/
 Entering Link 1 = /usr/caen/gaussian-09revc/g09/l1.exe PID=     80496.
  
 Copyright (c) 1988,1990,1992,1993,1995,1998,2003,2009,2011,
            Gaussian, Inc.  All Rights Reserved.
  
 This is part of the Gaussian(R) 09 program.  It is based on
 the Gaussian(R) 03 system (copyright 2003, Gaussian, Inc.),
 the Gaussian(R) 98 system (copyright 1998, Gaussian, Inc.),
 the Gaussian(R) 94 system (copyright 1995, Gaussian, Inc.),
 the Gaussian 92(TM) system (copyright 1992, Gaussian, Inc.),
 the Gaussian 90(TM) system (copyright 1990, Gaussian, Inc.),
 the Gaussian 88(TM) system (copyright 1988, Gaussian, Inc.),
 the Gaussian 86(TM) system (copyright 1986, Carnegie Mellon
 University), and the Gaussian 82(TM) system (copyright 1983,
 Carnegie Mellon University). Gaussian is a federally registered
 trademark of Gaussian, Inc.
  
 This software contains proprietary and confidential information,
 including trade secrets, belonging to Gaussian, Inc.
  
 This software is provided under written license and may be
 used, copied, transmitted, or stored only in accord with that
 written license.
  
 The following legend is applicable only to US Government
 contracts under FAR:
  
                    RESTRICTED RIGHTS LEGEND
  
 Use, reproduction and disclosure by the US Government is
 subject to restrictions as set forth in subparagraphs (a)
 and (c) of the Commercial Computer Software - Restricted
 Rights clause in FAR 52.227-19.
  
 Gaussian, Inc.
 340 Quinnipiac St., Bldg. 40, Wallingford CT 06492
  
  
 ---------------------------------------------------------------
 Warning -- This program may not be used in any manner that
 competes with the business of Gaussian, Inc. or will provide
 assistance to any competitor of Gaussian, Inc.  The licensee
 of this program is prohibited from giving any competitor of
 Gaussian, Inc. access to this program.  By using this program,
 the user acknowledges that Gaussian, Inc. is engaged in the
 business of creating and licensing software in the field of
 computational chemistry and represents and warrants to the
 licensee that it is not a competitor of Gaussian, Inc. and that
 it will not use this program in any manner prohibited above.
 ---------------------------------------------------------------
  

 Cite this work as:
 Gaussian 09, Revision C.01,
 M. J. Frisch, G. W. Trucks, H. B. Schlegel, G. E. Scuseria, 
 M. A. Robb, J. R. Cheeseman, G. Scalmani, V. Barone, B. Mennucci, 
 G. A. Petersson, H. Nakatsuji, M. Caricato, X. Li, H. P. Hratchian, 
 A. F. Izmaylov, J. Bloino, G. Zheng, J. L. Sonnenberg, M. Hada, 
 M. Ehara, K. Toyota, R. Fukuda, J. Hasegawa, M. Ishida, T. Nakajima, 
 Y. Honda, O. Kitao, H. Nakai, T. Vreven, J. A. Montgomery, Jr., 
 J. E. Peralta, F. Ogliaro, M. Bearpark, J. J. Heyd, E. Brothers, 
 K. N. Kudin, V. N. Staroverov, T. Keith, R. Kobayashi, J. Normand, 
 K. Raghavachari, A. Rendell, J. C. Burant, S. S. Iyengar, J. Tomasi, 
 M. Cossi, N. Rega, J. M. Millam, M. Klene, J. E. Knox, J. B. Cross, 
 V. Bakken, C. Adamo, J. Jaramillo, R. Gomperts, R. E. Stratmann, 
 O. Yazyev, A. J. Austin, R. Cammi, C. Pomelli, J. W. Ochterski, 
 R. L. Martin, K. Morokuma, V. G. Zakrzewski, G. A. Voth, 
 P. Salvador, J. J. Dannenberg, S. Dapprich, A. D. Daniels, 
 O. Farkas, J. B. Foresman, J. V. Ortiz, J. Cioslowski, 
 and D. J. Fox, Gaussian, Inc., Wallingford CT, 2010.
 
 ******************************************
 Gaussian 09:  EM64L-G09RevC.01 23-Sep-2011
                 7-Feb-2014 
 ******************************************
 %mem=30GB
 %nprocshared=8
 Will use up to    8 processors via shared memory.
 %chk=C9H18OOH_1_26_f.chk
 --------------------------------------------------
 #p UB3LYP/6-311++G(d,p) guess=mix stable=(opt,xqc)
 --------------------------------------------------
 1/38=1/1;
 2/12=2,17=6,18=5,40=1/2;
 3/5=4,6=6,7=1111,11=2,16=1,25=1,30=1,74=-5,116=2/1,2,3;
 4/13=-1/1;
 5/5=2,38=5/2;
 6/7=2,8=2,9=2,10=2,28=1/1;
 8/6=1,10=90,11=11/1;
 9/8=-3,42=1,46=1/14;
 5/5=2,8=3,13=1,17=40,38=5/2,8(-2);
 6/7=2,8=2,9=2,10=2,28=1/1;
 99/5=1,9=1/99;
 Leave Link    1 at Fri Feb  7 21:53:29 2014, MaxMem= 4026531840 cpu:       1.2
 (Enter /usr/caen/gaussian-09revc/g09/l101.exe)
 --------------------------------------------
 C9H18OOH_1_26_f using cbs-qb3 to cal. energy
 --------------------------------------------
 Charge =  0 Multiplicity = 2
 Symbolic Z-Matrix:
 C                    -3.05069  -1.766    -0.24377 
 H                    -2.69057  -2.77903  -0.44179 
 H                    -3.30665  -1.30374  -1.20034 
 H                    -3.97027  -1.84599   0.34431 
 C                    -1.98382  -0.94194   0.49176 
 H                    -1.77513  -1.43609   1.45296 
 C                    -0.66628  -0.90925  -0.30701 
 H                    -0.40986  -1.94187  -0.57028 
 H                    -0.82834  -0.3793   -1.25053 
 C                     0.53104  -0.28634   0.42728 
 H                     0.66642  -0.77771   1.40278 
 H                     0.30031   0.76642   0.66099 
 C                     1.80631  -0.36217  -0.34697 
 H                     1.74774  -0.34641  -1.43377 
 C                     3.14653  -0.1397    0.28636 
 H                     3.13262  -0.60492   1.28279 
 C                     4.27422  -0.79163  -0.52952 
 H                     4.32342  -0.35995  -1.53499 
 H                     5.24698  -0.63693  -0.05311 
 H                     4.11452  -1.86784  -0.63552 
 C                    -2.5378    0.43646   0.87883 
 H                    -3.43454   0.30641   1.49547 
 H                    -1.81615   1.03015   1.4478 
 C                     3.43514   1.36771   0.49919 
 H                     4.39466   1.51143   1.00698 
 H                     3.47789   1.89129  -0.46106 
 H                     2.65869   1.84084   1.10593 
 O                    -3.03191   1.22046  -0.21051 
 O                    -1.89115   1.84469  -0.87669 
 H                    -2.17514   2.7691   -0.85796 
 
 NAtoms=     30 NQM=        0 NQMF=       0 NMMI=     30 NMMIF=      0
                NMic=       0 NMicF=      0.
                    Isotopes and Nuclear Properties:
 (Nuclear quadrupole moments (NQMom) in fm**2, nuclear magnetic moments (NMagM)
  in nuclear magnetons)

  Atom         1           2           3           4           5           6           7           8           9          10
 IAtWgt=          12           1           1           1          12           1          12           1           1          12
 AtmWgt=  12.0000000   1.0078250   1.0078250   1.0078250  12.0000000   1.0078250  12.0000000   1.0078250   1.0078250  12.0000000
 NucSpn=           0           1           1           1           0           1           0           1           1           0
 AtZEff=   0.0000000   0.0000000   0.0000000   0.0000000   0.0000000   0.0000000   0.0000000   0.0000000   0.0000000   0.0000000
 NQMom=    0.0000000   0.0000000   0.0000000   0.0000000   0.0000000   0.0000000   0.0000000   0.0000000   0.0000000   0.0000000
 NMagM=    0.0000000   2.7928460   2.7928460   2.7928460   0.0000000   2.7928460   0.0000000   2.7928460   2.7928460   0.0000000

  Atom        11          12          13          14          15          16          17          18          19          20
 IAtWgt=           1           1          12           1          12           1          12           1           1           1
 AtmWgt=   1.0078250   1.0078250  12.0000000   1.0078250  12.0000000   1.0078250  12.0000000   1.0078250   1.0078250   1.0078250
 NucSpn=           1           1           0           1           0           1           0           1           1           1
 AtZEff=   0.0000000   0.0000000   0.0000000   0.0000000   0.0000000   0.0000000   0.0000000   0.0000000   0.0000000   0.0000000
 NQMom=    0.0000000   0.0000000   0.0000000   0.0000000   0.0000000   0.0000000   0.0000000   0.0000000   0.0000000   0.0000000
 NMagM=    2.7928460   2.7928460   0.0000000   2.7928460   0.0000000   2.7928460   0.0000000   2.7928460   2.7928460   2.7928460

  Atom        21          22          23          24          25          26          27          28          29          30
 IAtWgt=          12           1           1          12           1           1           1          16          16           1
 AtmWgt=  12.0000000   1.0078250   1.0078250  12.0000000   1.0078250   1.0078250   1.0078250  15.9949146  15.9949146   1.0078250
 NucSpn=           0           1           1           0           1           1           1           0           0           1
 AtZEff=   0.0000000   0.0000000   0.0000000   0.0000000   0.0000000   0.0000000   0.0000000   0.0000000   0.0000000   0.0000000
 NQMom=    0.0000000   0.0000000   0.0000000   0.0000000   0.0000000   0.0000000   0.0000000   0.0000000   0.0000000   0.0000000
 NMagM=    0.0000000   2.7928460   2.7928460   0.0000000   2.7928460   2.7928460   2.7928460   0.0000000   0.0000000   2.7928460
 Leave Link  101 at Fri Feb  7 21:53:29 2014, MaxMem= 4026531840 cpu:       0.6
 (Enter /usr/caen/gaussian-09revc/g09/l202.exe)
                          Input orientation:                          
 ---------------------------------------------------------------------
 Center     Atomic      Atomic             Coordinates (Angstroms)
 Number     Number       Type             X           Y           Z
 ---------------------------------------------------------------------
      1          6           0       -3.050686   -1.765995   -0.243768
      2          1           0       -2.690572   -2.779025   -0.441792
      3          1           0       -3.306647   -1.303735   -1.200341
      4          1           0       -3.970273   -1.845987    0.344305
      5          6           0       -1.983821   -0.941936    0.491760
      6          1           0       -1.775125   -1.436092    1.452957
      7          6           0       -0.666282   -0.909248   -0.307005
      8          1           0       -0.409864   -1.941866   -0.570280
      9          1           0       -0.828343   -0.379297   -1.250531
     10          6           0        0.531035   -0.286338    0.427284
     11          1           0        0.666422   -0.777712    1.402776
     12          1           0        0.300310    0.766419    0.660991
     13          6           0        1.806305   -0.362173   -0.346973
     14          1           0        1.747735   -0.346409   -1.433768
     15          6           0        3.146526   -0.139698    0.286358
     16          1           0        3.132625   -0.604922    1.282793
     17          6           0        4.274218   -0.791631   -0.529515
     18          1           0        4.323422   -0.359954   -1.534990
     19          1           0        5.246983   -0.636930   -0.053105
     20          1           0        4.114519   -1.867843   -0.635523
     21          6           0       -2.537800    0.436461    0.878830
     22          1           0       -3.434536    0.306405    1.495467
     23          1           0       -1.816154    1.030153    1.447799
     24          6           0        3.435136    1.367713    0.499192
     25          1           0        4.394660    1.511430    1.006977
     26          1           0        3.477890    1.891291   -0.461063
     27          1           0        2.658693    1.840839    1.105926
     28          8           0       -3.031905    1.220460   -0.210509
     29          8           0       -1.891145    1.844690   -0.876694
     30          1           0       -2.175137    2.769101   -0.857959
 ---------------------------------------------------------------------
                    Distance matrix (angstroms):
                    1          2          3          4          5
     1  C    0.000000
     2  H    1.093218   0.000000
     3  H    1.092809   1.769583   0.000000
     4  H    1.094472   1.768090   1.766456   0.000000
     5  C    1.535668   2.178511   2.178066   2.187474   0.000000
     6  H    2.148201   2.496314   3.066442   2.493150   1.100747
     7  C    2.534442   2.758982   2.815173   3.495431   1.541104
     8  H    2.666736   2.432894   3.032415   3.677250   2.145957
     9  H    2.806299   3.143350   2.645580   3.816596   2.165010
    10  C    3.932991   4.165037   4.290928   4.764574   2.599705
    11  H    4.183862   4.321700   4.778932   4.874476   2.807260
    12  H    4.296613   4.767775   4.556340   5.016257   2.857336
    13  C    5.056850   5.106081   5.268496   6.004034   3.924876
    14  H    5.143556   5.157539   5.149538   6.172997   4.241087
    15  C    6.428943   6.447322   6.723741   7.318716   5.196752
    16  H    6.473933   6.450623   6.936751   7.271325   5.188192
    17  C    7.394948   7.243323   7.627698   8.357443   6.342606
    18  H    7.617196   7.499540   7.695496   8.632811   6.650393
    19  H    8.376303   8.230700   8.655944   9.304706   7.257715
    20  H    7.176629   6.868555   7.463976   8.143980   6.270392
    21  C    2.524696   3.479473   2.818219   2.747229   1.535153
    22  H    2.732603   3.718378   3.142656   2.498996   2.161101
    23  H    3.493410   4.341083   3.831612   3.759004   2.198012
    24  C    7.241409   7.456888   7.448267   8.074153   5.890639
    25  H    8.230374   8.408772   8.491616   9.037892   6.853428
    26  H    7.486338   7.737063   7.535560   8.372037   6.226181
    27  H    6.886794   7.235552   7.126885   7.623381   5.447382
    28  O    2.986699   4.020682   2.725218   3.254451   2.503521
    29  O    3.844760   4.712427   3.467128   4.408481   3.105888
    30  H    4.659497   5.587537   4.240935   5.095782   3.953497
                    6          7          8          9         10
     6  H    0.000000
     7  C    2.145825   0.000000
     8  H    2.492636   1.096067   0.000000
     9  H    3.053205   1.094236   1.754847   0.000000
    10  C    2.773502   1.536478   2.149697   2.161391   0.000000
    11  H    2.529256   2.171809   2.531125   3.071334   1.100619
    12  H    3.128210   2.163140   3.058624   2.498087   1.102792
    13  C    4.149662   2.532701   2.730696   2.785333   1.493833
    14  H    4.683069   2.722841   2.818923   2.582796   2.224294
    15  C    5.221517   3.934691   4.077934   4.268374   2.623386
    16  H    4.980543   4.129378   4.215510   4.707218   2.757111
    17  C    6.398443   4.946907   4.823414   5.169721   3.896435
    18  H    6.875913   5.167864   5.083021   5.159649   4.270613
    19  H    7.226125   5.924975   5.828400   6.197563   4.753299
    20  H    6.263870   4.887012   4.525459   5.198643   4.058580
    21  C    2.101844   2.592242   3.504921   2.849892   3.184977
    22  H    2.406605   3.519936   4.297752   3.847458   4.149471
    23  H    2.466592   2.857065   3.857874   3.200516   2.878176
    24  C    5.993147   4.759846   5.184699   4.928573   3.342882
    25  H    6.852228   5.761889   6.123434   5.995911   4.300652
    26  H    6.506083   5.004090   5.460737   4.931782   3.770303
    27  H    5.524260   4.540354   5.151171   4.758289   3.084212
    28  O    3.376964   3.184516   4.123693   2.914885   3.920684
    29  O    4.025452   3.067411   4.077510   2.493074   3.479741
    30  H    4.814976   4.013782   5.039063   3.446792   4.279127
                   11         12         13         14         15
    11  H    0.000000
    12  H    1.751749   0.000000
    13  C    2.129232   2.134885   0.000000
    14  H    3.066144   2.778748   1.088486   0.000000
    15  C    2.793630   3.010373   1.498931   2.226697   0.000000
    16  H    2.475158   3.207682   2.115228   3.060139   1.099777
    17  C    4.092693   4.431339   2.511643   2.720113   1.536995
    18  H    4.709420   4.719796   2.783391   2.577711   2.179657
    19  H    4.808425   5.191233   3.464118   3.772979   2.185039
    20  H    4.151195   4.813364   2.770948   2.924658   2.184802
    21  C    3.466378   2.865518   4.583847   4.932221   5.744088
    22  H    4.242848   3.854483   5.595355   5.988532   6.706067
    23  H    3.071414   2.273333   4.275744   4.785359   5.229311
    24  C    3.617332   3.196071   2.522220   3.085753   1.549478
    25  H    4.392788   4.175937   3.470324   4.051545   2.191656
    26  H    4.301375   3.552655   2.808080   2.991136   2.189374
    27  H    3.303645   2.629509   2.773219   3.473319   2.198226
    28  O    4.502555   3.474093   5.092310   5.176524   6.345858
    29  O    4.314409   2.886108   4.338431   4.284004   5.537925
    30  H    5.075949   3.527858   5.090959   5.042508   6.171764
                   16         17         18         19         20
    16  H    0.000000
    17  C    2.150013   0.000000
    18  H    3.068861   1.095329   0.000000
    19  H    2.501231   1.094153   1.767955   0.000000
    20  H    2.497803   1.093149   1.768166   1.771110   0.000000
    21  C    5.779393   7.063656   7.316910   7.913502   7.201141
    22  H    6.633502   8.045565   8.355454   8.868863   8.139822
    23  H    5.214510   6.657424   6.965904   7.410788   6.921813
    24  C    2.144022   2.534771   2.812789   2.757973   3.495420
    25  H    2.479466   2.771174   3.157333   2.542770   3.767728
    26  H    3.064526   2.799445   2.633695   3.112559   3.816651
    27  H    2.497527   3.494923   3.819588   3.765891   4.348149
    28  O    6.600258   7.584834   7.638900   8.486145   7.796770
    29  O    5.991848   6.714345   6.626813   7.601948   7.064635
    30  H    6.643733   7.374338   7.244351   8.205894   7.817321
                   21         22         23         24         25
    21  C    0.000000
    22  H    1.096034   0.000000
    23  H    1.094061   1.773483   0.000000
    24  C    6.057006   7.022203   5.346948   0.000000
    25  H    7.016479   7.936436   6.245011   1.095074   0.000000
    26  H    6.332485   7.356732   5.693173   1.094555   1.771977
    27  H    5.387707   6.295528   4.560520   1.093086   1.769713
    28  O    1.430194   1.976857   2.065007   6.507532   7.531321
    29  O    2.341610   3.221106   2.464216   5.521760   6.570436
    30  H    2.930729   3.631745   2.910211   5.939774   6.944203
                   26         27         28         29         30
    26  H    0.000000
    27  H    1.768922   0.000000
    28  O    6.549063   5.873736   0.000000
    29  O    5.385300   4.963046   1.461095   0.000000
    30  H    5.734526   5.299474   1.884551   0.967232   0.000000
 Stoichiometry    C9H19O2(2)
 Framework group  C1[X(C9H19O2)]
 Deg. of freedom    84
 Full point group                 C1      NOp   1
 Largest Abelian subgroup         C1      NOp   1
 Largest concise Abelian subgroup C1      NOp   1
                         Standard orientation:                         
 ---------------------------------------------------------------------
 Center     Atomic      Atomic             Coordinates (Angstroms)
 Number     Number       Type             X           Y           Z
 ---------------------------------------------------------------------
      1          6           0       -3.050686   -1.765995   -0.243768
      2          1           0       -2.690572   -2.779025   -0.441792
      3          1           0       -3.306647   -1.303735   -1.200341
      4          1           0       -3.970273   -1.845987    0.344305
      5          6           0       -1.983821   -0.941936    0.491760
      6          1           0       -1.775125   -1.436092    1.452957
      7          6           0       -0.666282   -0.909248   -0.307005
      8          1           0       -0.409864   -1.941866   -0.570280
      9          1           0       -0.828343   -0.379297   -1.250531
     10          6           0        0.531035   -0.286338    0.427284
     11          1           0        0.666422   -0.777712    1.402776
     12          1           0        0.300310    0.766419    0.660991
     13          6           0        1.806305   -0.362173   -0.346973
     14          1           0        1.747735   -0.346409   -1.433768
     15          6           0        3.146526   -0.139698    0.286358
     16          1           0        3.132625   -0.604922    1.282793
     17          6           0        4.274218   -0.791631   -0.529515
     18          1           0        4.323422   -0.359954   -1.534990
     19          1           0        5.246983   -0.636930   -0.053105
     20          1           0        4.114519   -1.867843   -0.635523
     21          6           0       -2.537800    0.436461    0.878830
     22          1           0       -3.434536    0.306405    1.495467
     23          1           0       -1.816154    1.030153    1.447799
     24          6           0        3.435136    1.367713    0.499192
     25          1           0        4.394660    1.511430    1.006977
     26          1           0        3.477890    1.891291   -0.461063
     27          1           0        2.658693    1.840839    1.105926
     28          8           0       -3.031905    1.220460   -0.210509
     29          8           0       -1.891145    1.844690   -0.876694
     30          1           0       -2.175137    2.769101   -0.857959
 ---------------------------------------------------------------------
 Rotational constants (GHZ):      1.8438521      0.4204713      0.3727622
 Leave Link  202 at Fri Feb  7 21:53:29 2014, MaxMem= 4026531840 cpu:       0.4
 (Enter /usr/caen/gaussian-09revc/g09/l301.exe)
 Standard basis: 6-311++G(d,p) (5D, 7F)
 Ernie: Thresh=  0.10000D-02 Tol=  0.10000D-05 Strict=F.
 There are   375 symmetry adapted basis functions of A   symmetry.
 Integral buffers will be    131072 words long.
 Raffenetti 2 integral format.
 Two-electron integral symmetry is turned on.
   375 basis functions,   567 primitive gaussians,   386 cartesian basis functions
    45 alpha electrons       44 beta electrons
       nuclear repulsion energy       645.1112327954 Hartrees.
 IExCor=  402 DFT=T Ex+Corr=B3LYP ExCW=0 ScaHFX=  0.200000
 ScaDFX=  0.800000  0.720000  1.000000  0.810000 ScalE2=  1.000000  1.000000
 IRadAn=      0 IRanWt=     -1 IRanGd=            0 ICorTp=0
 NAtoms=   30 NActive=   30 NUniq=   30 SFac= 1.00D+00 NAtFMM=   60 NAOKFM=F Big=F
 Leave Link  301 at Fri Feb  7 21:53:29 2014, MaxMem= 4026531840 cpu:       0.5
 (Enter /usr/caen/gaussian-09revc/g09/l302.exe)
 NPDir=0 NMtPBC=     1 NCelOv=     1 NCel=       1 NClECP=     1 NCelD=      1
         NCelK=      1 NCelE2=     1 NClLst=     1 CellRange=     0.0.
 One-electron integrals computed using PRISM.
 NBasis=   375 RedAO= T  NBF=   375
 NBsUse=   375 1.00D-06 NBFU=   375
 Precomputing XC quadrature grid using
 IXCGrd= 2 IRadAn=           0 IRanWt=          -1 IRanGd=           0 AccXCQ= 0.00D+00.
 NRdTot=    1961 NPtTot=      249830 NUsed=      263960 NTot=      263992
 NSgBfM=   386   386   386   386   386 NAtAll=    30    30.
 Leave Link  302 at Fri Feb  7 21:53:30 2014, MaxMem= 4026531840 cpu:       6.5
 (Enter /usr/caen/gaussian-09revc/g09/l303.exe)
 DipDrv:  MaxL=1.
 Leave Link  303 at Fri Feb  7 21:53:31 2014, MaxMem= 4026531840 cpu:       1.6
 (Enter /usr/caen/gaussian-09revc/g09/l401.exe)
 Harris functional with IExCor=  402 diagonalized for initial guess.
 ExpMin= 3.60D-02 ExpMax= 8.59D+03 ExpMxC= 1.30D+03 IAcc=3 IRadAn=         5 AccDes= 0.00D+00
 HarFok:  IExCor=  402 AccDes= 0.00D+00 IRadAn=         5 IDoV= 1
 ScaDFX=  1.000000  1.000000  1.000000  1.000000
 FoFCou: FMM=F IPFlag=           0 FMFlag=      100000 FMFlg1=           0
         NFxFlg=           0 DoJE=T BraDBF=F KetDBF=T FulRan=T
         Omega=  0.000000  0.000000  1.000000  0.000000  0.000000 ICntrl=     500 IOpCl=  0
         NMat0=    1 NMatS0=    1 NMatT0=    0 NMatD0=    1 NMtDS0=    0 NMtDT0=    0
         I1Cent=           4 NGrid=           0.
 Petite list used in FoFCou.
 Harris En= -504.905188815166    
 Mixing orbitals, IMix= 1 IMixAn=  0 NRI=1 NE=   45 Coef=  7.07106781D-01  7.07106781D-01
 Mixing orbitals, IMix= 1 IMixAn=  0 NRI=1 NE=   44 Coef= -7.07106781D-01  7.07106781D-01
 Initial guess orbital symmetries:
 Alpha Orbitals:
       Occupied  (A) (A) (A) (A) (A) (A) (A) (A) (A) (A) (A) (A)
                 (A) (A) (A) (A) (A) (A) (A) (A) (A) (A) (A) (A)
                 (A) (A) (A) (A) (A) (A) (A) (A) (A) (A) (A) (A)
                 (A) (A) (A) (A) (A) (A) (A) (A) (A)
       Virtual   (A) (A) (A) (A) (A) (A) (A) (A) (A) (A) (A) (A)
                 (A) (A) (A) (A) (A) (A) (A) (A) (A) (A) (A) (A)
                 (A) (A) (A) (A) (A) (A) (A) (A) (A) (A) (A) (A)
                 (A) (A) (A) (A) (A) (A) (A) (A) (A) (A) (A) (A)
                 (A) (A) (A) (A) (A) (A) (A) (A) (A) (A) (A) (A)
                 (A) (A) (A) (A) (A) (A) (A) (A) (A) (A) (A) (A)
                 (A) (A) (A) (A) (A) (A) (A) (A) (A) (A) (A) (A)
                 (A) (A) (A) (A) (A) (A) (A) (A) (A) (A) (A) (A)
                 (A) (A) (A) (A) (A) (A) (A) (A) (A) (A) (A) (A)
                 (A) (A) (A) (A) (A) (A) (A) (A) (A) (A) (A) (A)
                 (A) (A) (A) (A) (A) (A) (A) (A) (A) (A) (A) (A)
                 (A) (A) (A) (A) (A) (A) (A) (A) (A) (A) (A) (A)
                 (A) (A) (A) (A) (A) (A) (A) (A) (A) (A) (A) (A)
                 (A) (A) (A) (A) (A) (A) (A) (A) (A) (A) (A) (A)
                 (A) (A) (A) (A) (A) (A) (A) (A) (A) (A) (A) (A)
                 (A) (A) (A) (A) (A) (A) (A) (A) (A) (A) (A) (A)
                 (A) (A) (A) (A) (A) (A) (A) (A) (A) (A) (A) (A)
                 (A) (A) (A) (A) (A) (A) (A) (A) (A) (A) (A) (A)
                 (A) (A) (A) (A) (A) (A) (A) (A) (A) (A) (A) (A)
                 (A) (A) (A) (A) (A) (A) (A) (A) (A) (A) (A) (A)
                 (A) (A) (A) (A) (A) (A) (A) (A) (A) (A) (A) (A)
                 (A) (A) (A) (A) (A) (A) (A) (A) (A) (A) (A) (A)
                 (A) (A) (A) (A) (A) (A) (A) (A) (A) (A) (A) (A)
                 (A) (A) (A) (A) (A) (A) (A) (A) (A) (A) (A) (A)
                 (A) (A) (A) (A) (A) (A) (A) (A) (A) (A) (A) (A)
                 (A) (A) (A) (A) (A) (A) (A) (A) (A) (A) (A) (A)
                 (A) (A) (A) (A) (A) (A) (A) (A) (A) (A) (A) (A)
                 (A) (A) (A) (A) (A) (A)
 Beta  Orbitals:
       Occupied  (A) (A) (A) (A) (A) (A) (A) (A) (A) (A) (A) (A)
                 (A) (A) (A) (A) (A) (A) (A) (A) (A) (A) (A) (A)
                 (A) (A) (A) (A) (A) (A) (A) (A) (A) (A) (A) (A)
                 (A) (A) (A) (A) (A) (A) (A) (A)
       Virtual   (A) (A) (A) (A) (A) (A) (A) (A) (A) (A) (A) (A)
                 (A) (A) (A) (A) (A) (A) (A) (A) (A) (A) (A) (A)
                 (A) (A) (A) (A) (A) (A) (A) (A) (A) (A) (A) (A)
                 (A) (A) (A) (A) (A) (A) (A) (A) (A) (A) (A) (A)
                 (A) (A) (A) (A) (A) (A) (A) (A) (A) (A) (A) (A)
                 (A) (A) (A) (A) (A) (A) (A) (A) (A) (A) (A) (A)
                 (A) (A) (A) (A) (A) (A) (A) (A) (A) (A) (A) (A)
                 (A) (A) (A) (A) (A) (A) (A) (A) (A) (A) (A) (A)
                 (A) (A) (A) (A) (A) (A) (A) (A) (A) (A) (A) (A)
                 (A) (A) (A) (A) (A) (A) (A) (A) (A) (A) (A) (A)
                 (A) (A) (A) (A) (A) (A) (A) (A) (A) (A) (A) (A)
                 (A) (A) (A) (A) (A) (A) (A) (A) (A) (A) (A) (A)
                 (A) (A) (A) (A) (A) (A) (A) (A) (A) (A) (A) (A)
                 (A) (A) (A) (A) (A) (A) (A) (A) (A) (A) (A) (A)
                 (A) (A) (A) (A) (A) (A) (A) (A) (A) (A) (A) (A)
                 (A) (A) (A) (A) (A) (A) (A) (A) (A) (A) (A) (A)
                 (A) (A) (A) (A) (A) (A) (A) (A) (A) (A) (A) (A)
                 (A) (A) (A) (A) (A) (A) (A) (A) (A) (A) (A) (A)
                 (A) (A) (A) (A) (A) (A) (A) (A) (A) (A) (A) (A)
                 (A) (A) (A) (A) (A) (A) (A) (A) (A) (A) (A) (A)
                 (A) (A) (A) (A) (A) (A) (A) (A) (A) (A) (A) (A)
                 (A) (A) (A) (A) (A) (A) (A) (A) (A) (A) (A) (A)
                 (A) (A) (A) (A) (A) (A) (A) (A) (A) (A) (A) (A)
                 (A) (A) (A) (A) (A) (A) (A) (A) (A) (A) (A) (A)
                 (A) (A) (A) (A) (A) (A) (A) (A) (A) (A) (A) (A)
                 (A) (A) (A) (A) (A) (A) (A) (A) (A) (A) (A) (A)
                 (A) (A) (A) (A) (A) (A) (A) (A) (A) (A) (A) (A)
                 (A) (A) (A) (A) (A) (A) (A)
 The electronic state of the initial guess is 2-A.
 Initial guess <Sx>= 0.0000 <Sy>= 0.0000 <Sz>= 0.5000 <S**2>= 1.0000 S= 0.6180
 Leave Link  401 at Fri Feb  7 21:53:35 2014, MaxMem= 4026531840 cpu:      29.0
 (Enter /usr/caen/gaussian-09revc/g09/l502.exe)
 UHF open shell SCF:
 Requested convergence on RMS density matrix=1.00D-08 within 128 cycles.
 Requested convergence on MAX density matrix=1.00D-06.
 Requested convergence on             energy=1.00D-06.
 No special actions if energy rises.
 Using DIIS extrapolation, IDIIS=  1040.
 Integral symmetry usage will be decided dynamically.
       263677 words used for storage of precomputed grid.
 IEnd=      734811 IEndB=      734811 NGot=  4026531840 MDV=  4025963052
 LenX=  4025963052 LenY=  4025813615
 Fock matrices will be formed incrementally for  20 cycles.

 Cycle   1  Pass 1  IDiag  1:
 FoFCou: FMM=F IPFlag=           0 FMFlag=      100000 FMFlg1=           0
         NFxFlg=           0 DoJE=F BraDBF=F KetDBF=F FulRan=T
         Omega=  0.000000  0.000000  1.000000  0.000000  0.000000 ICntrl=       0 IOpCl=  1
         NMat0=    1 NMatS0=    1 NMatT0=    0 NMatD0=    1 NMtDS0=    0 NMtDT0=    0
         I1Cent=           0 NGrid=           0.
 Symmetry not used in FoFCou.
 E= -504.349042413854    
 DIIS: error= 3.18D-02 at cycle   1 NSaved=   1.
 NSaved= 1 IEnMin= 1 EnMin= -504.349042413854     IErMin= 1 ErrMin= 3.18D-02
 ErrMax= 3.18D-02 EMaxC= 1.00D-01 BMatC= 1.51D+00 BMatP= 1.51D+00
 IDIUse=3 WtCom= 6.82D-01 WtEn= 3.18D-01
 Coeff-Com:  0.100D+01
 Coeff-En:   0.100D+01
 Coeff:      0.100D+01
 Gap=     0.017 Goal=   None    Shift=    0.000
 Gap=     0.024 Goal=   None    Shift=    0.000
 GapD=    0.017 DampG=0.250 DampE=0.500 DampFc=0.2500 IDamp=-1.
 Damping current iteration by 2.50D-01
 RMSDP=4.69D-02 MaxDP=7.29D+00              OVMax= 5.33D-01

 Cycle   2  Pass 1  IDiag  1:
 RMSU=  1.14D-02    CP:  9.92D-01
 E= -504.494717213711     Delta-E=       -0.145674799857 Rises=F Damp=T
 DIIS: error= 1.33D-02 at cycle   2 NSaved=   2.
 NSaved= 2 IEnMin= 2 EnMin= -504.494717213711     IErMin= 2 ErrMin= 1.33D-02
 ErrMax= 1.33D-02 EMaxC= 1.00D-01 BMatC= 3.65D-01 BMatP= 1.51D+00
 IDIUse=3 WtCom= 8.67D-01 WtEn= 1.33D-01
 Coeff-Com: -0.724D+00 0.172D+01
 Coeff-En:   0.000D+00 0.100D+01
 Coeff:     -0.627D+00 0.163D+01
 Gap=     0.017 Goal=   None    Shift=    0.000
 Gap=     0.165 Goal=   None    Shift=    0.000
 RMSDP=1.33D-02 MaxDP=2.27D+00 DE=-1.46D-01 OVMax= 7.16D-01

 Cycle   3  Pass 1  IDiag  1:
 RMSU=  5.10D-03    CP:  7.71D-01  1.43D-01
 E= -504.807407452383     Delta-E=       -0.312690238671 Rises=F Damp=F
 DIIS: error= 1.04D-02 at cycle   3 NSaved=   3.
 NSaved= 3 IEnMin= 3 EnMin= -504.807407452383     IErMin= 3 ErrMin= 1.04D-02
 ErrMax= 1.04D-02 EMaxC= 1.00D-01 BMatC= 1.54D-01 BMatP= 3.65D-01
 IDIUse=3 WtCom= 8.96D-01 WtEn= 1.04D-01
 Coeff-Com: -0.421D+00 0.962D+00 0.460D+00
 Coeff-En:   0.000D+00 0.000D+00 0.100D+01
 Coeff:     -0.377D+00 0.861D+00 0.516D+00
 Gap=     0.123 Goal=   None    Shift=    0.000
 Gap=     0.181 Goal=   None    Shift=    0.000
 RMSDP=2.64D-03 MaxDP=2.57D-01 DE=-3.13D-01 OVMax= 1.47D-01

 Cycle   4  Pass 1  IDiag  1:
 RMSU=  1.72D-03    CP:  7.64D-01  1.34D-01  8.89D-01
 E= -504.842345236524     Delta-E=       -0.034937784142 Rises=F Damp=F
 DIIS: error= 5.47D-03 at cycle   4 NSaved=   4.
 NSaved= 4 IEnMin= 4 EnMin= -504.842345236524     IErMin= 4 ErrMin= 5.47D-03
 ErrMax= 5.47D-03 EMaxC= 1.00D-01 BMatC= 3.14D-02 BMatP= 1.54D-01
 IDIUse=3 WtCom= 9.45D-01 WtEn= 5.47D-02
 Coeff-Com: -0.107D+00 0.212D+00 0.291D+00 0.605D+00
 Coeff-En:   0.000D+00 0.000D+00 0.281D-01 0.972D+00
 Coeff:     -0.101D+00 0.201D+00 0.276D+00 0.625D+00
 Gap=     0.152 Goal=   None    Shift=    0.000
 Gap=     0.209 Goal=   None    Shift=    0.000
 RMSDP=1.88D-03 MaxDP=2.15D-01 DE=-3.49D-02 OVMax= 4.19D-02

 Cycle   5  Pass 1  IDiag  1:
 RMSU=  9.74D-04    CP:  7.14D-01  1.31D-01  9.25D-01  8.84D-01
 E= -504.848331917900     Delta-E=       -0.005986681375 Rises=F Damp=F
 DIIS: error= 2.79D-03 at cycle   5 NSaved=   5.
 NSaved= 5 IEnMin= 5 EnMin= -504.848331917900     IErMin= 5 ErrMin= 2.79D-03
 ErrMax= 2.79D-03 EMaxC= 1.00D-01 BMatC= 8.07D-03 BMatP= 3.14D-02
 IDIUse=3 WtCom= 9.72D-01 WtEn= 2.79D-02
 Coeff-Com: -0.450D-01 0.741D-01 0.827D-01 0.347D+00 0.541D+00
 Coeff-En:   0.000D+00 0.000D+00 0.000D+00 0.689D-01 0.931D+00
 Coeff:     -0.438D-01 0.720D-01 0.804D-01 0.339D+00 0.552D+00
 Gap=     0.166 Goal=   None    Shift=    0.000
 Gap=     0.210 Goal=   None    Shift=    0.000
 RMSDP=5.06D-04 MaxDP=4.18D-02 DE=-5.99D-03 OVMax= 1.56D-02

 Cycle   6  Pass 1  IDiag  1:
 RMSU=  3.47D-04    CP:  7.23D-01  1.25D-01  9.15D-01  9.15D-01  9.46D-01
 E= -504.849629649032     Delta-E=       -0.001297731133 Rises=F Damp=F
 DIIS: error= 9.00D-04 at cycle   6 NSaved=   6.
 NSaved= 6 IEnMin= 6 EnMin= -504.849629649032     IErMin= 6 ErrMin= 9.00D-04
 ErrMax= 9.00D-04 EMaxC= 1.00D-01 BMatC= 1.47D-03 BMatP= 8.07D-03
 IDIUse=3 WtCom= 9.91D-01 WtEn= 9.00D-03
 Coeff-Com:  0.774D-02-0.205D-01-0.437D-01 0.140D-01 0.328D+00 0.714D+00
 Coeff-En:   0.000D+00 0.000D+00 0.000D+00 0.000D+00 0.104D+00 0.896D+00
 Coeff:      0.767D-02-0.203D-01-0.433D-01 0.139D-01 0.326D+00 0.716D+00
 Gap=     0.167 Goal=   None    Shift=    0.000
 Gap=     0.220 Goal=   None    Shift=    0.000
 RMSDP=2.36D-04 MaxDP=2.25D-02 DE=-1.30D-03 OVMax= 5.97D-03

 Cycle   7  Pass 1  IDiag  1:
 RMSU=  1.25D-04    CP:  7.19D-01  1.22D-01  9.07D-01  9.29D-01  9.91D-01
                    CP:  8.62D-01
 E= -504.849977645088     Delta-E=       -0.000347996056 Rises=F Damp=F
 DIIS: error= 2.24D-04 at cycle   7 NSaved=   7.
 NSaved= 7 IEnMin= 7 EnMin= -504.849977645088     IErMin= 7 ErrMin= 2.24D-04
 ErrMax= 2.24D-04 EMaxC= 1.00D-01 BMatC= 7.36D-05 BMatP= 1.47D-03
 IDIUse=3 WtCom= 9.98D-01 WtEn= 2.24D-03
 Coeff-Com:  0.981D-03-0.756D-03-0.169D-01-0.283D-01 0.302D-01 0.214D+00
 Coeff-Com:  0.801D+00
 Coeff-En:   0.000D+00 0.000D+00 0.000D+00 0.000D+00 0.000D+00 0.000D+00
 Coeff-En:   0.100D+01
 Coeff:      0.978D-03-0.755D-03-0.168D-01-0.283D-01 0.302D-01 0.213D+00
 Coeff:      0.801D+00
 Gap=     0.167 Goal=   None    Shift=    0.000
 Gap=     0.219 Goal=   None    Shift=    0.000
 RMSDP=9.27D-05 MaxDP=1.17D-02 DE=-3.48D-04 OVMax= 1.84D-03

 Cycle   8  Pass 1  IDiag  1:
 RMSU=  4.90D-05    CP:  7.20D-01  1.22D-01  9.10D-01  9.31D-01  1.00D+00
                    CP:  9.68D-01  7.95D-01
 E= -504.849994289878     Delta-E=       -0.000016644790 Rises=F Damp=F
 DIIS: error= 8.40D-05 at cycle   8 NSaved=   8.
 NSaved= 8 IEnMin= 8 EnMin= -504.849994289878     IErMin= 8 ErrMin= 8.40D-05
 ErrMax= 8.40D-05 EMaxC= 1.00D-01 BMatC= 1.96D-05 BMatP= 7.36D-05
 IDIUse=1 WtCom= 1.00D+00 WtEn= 0.00D+00
 Coeff-Com: -0.303D-03 0.164D-02-0.299D-02-0.132D-01-0.180D-01 0.145D-01
 Coeff-Com:  0.388D+00 0.631D+00
 Coeff:     -0.303D-03 0.164D-02-0.299D-02-0.132D-01-0.180D-01 0.145D-01
 Coeff:      0.388D+00 0.631D+00
 Gap=     0.167 Goal=   None    Shift=    0.000
 Gap=     0.220 Goal=   None    Shift=    0.000
 RMSDP=2.24D-05 MaxDP=1.89D-03 DE=-1.66D-05 OVMax= 5.35D-04

 Cycle   9  Pass 1  IDiag  1:
 RMSU=  1.20D-05    CP:  7.20D-01  1.21D-01  9.10D-01  9.29D-01  1.01D+00
                    CP:  9.58D-01  8.47D-01  9.64D-01
 E= -504.849999076207     Delta-E=       -0.000004786329 Rises=F Damp=F
 DIIS: error= 3.28D-05 at cycle   9 NSaved=   9.
 NSaved= 9 IEnMin= 9 EnMin= -504.849999076207     IErMin= 9 ErrMin= 3.28D-05
 ErrMax= 3.28D-05 EMaxC= 1.00D-01 BMatC= 1.67D-06 BMatP= 1.96D-05
 IDIUse=1 WtCom= 1.00D+00 WtEn= 0.00D+00
 Coeff-Com: -0.296D-03 0.655D-03 0.165D-02-0.180D-03-0.110D-01-0.362D-01
 Coeff-Com: -0.199D-02 0.211D+00 0.836D+00
 Coeff:     -0.296D-03 0.655D-03 0.165D-02-0.180D-03-0.110D-01-0.362D-01
 Coeff:     -0.199D-02 0.211D+00 0.836D+00
 Gap=     0.167 Goal=   None    Shift=    0.000
 Gap=     0.220 Goal=   None    Shift=    0.000
 RMSDP=8.45D-06 MaxDP=6.41D-04 DE=-4.79D-06 OVMax= 2.04D-04

 Cycle  10  Pass 1  IDiag  1:
 RMSU=  4.82D-06    CP:  7.20D-01  1.22D-01  9.09D-01  9.31D-01  1.01D+00
                    CP:  9.55D-01  8.71D-01  9.69D-01  1.04D+00
 E= -504.849999634843     Delta-E=       -0.000000558636 Rises=F Damp=F
 DIIS: error= 8.22D-06 at cycle  10 NSaved=  10.
 NSaved=10 IEnMin=10 EnMin= -504.849999634843     IErMin=10 ErrMin= 8.22D-06
 ErrMax= 8.22D-06 EMaxC= 1.00D-01 BMatC= 1.80D-07 BMatP= 1.67D-06
 IDIUse=1 WtCom= 1.00D+00 WtEn= 0.00D+00
 Coeff-Com: -0.907D-04 0.104D-03 0.820D-03 0.963D-03-0.227D-02-0.131D-01
 Coeff-Com: -0.395D-01 0.107D-01 0.274D+00 0.769D+00
 Coeff:     -0.907D-04 0.104D-03 0.820D-03 0.963D-03-0.227D-02-0.131D-01
 Coeff:     -0.395D-01 0.107D-01 0.274D+00 0.769D+00
 Gap=     0.167 Goal=   None    Shift=    0.000
 Gap=     0.220 Goal=   None    Shift=    0.000
 RMSDP=4.46D-06 MaxDP=6.36D-04 DE=-5.59D-07 OVMax= 8.22D-05

 Cycle  11  Pass 1  IDiag  1:
 RMSU=  2.03D-06    CP:  7.20D-01  1.21D-01  9.10D-01  9.30D-01  1.01D+00
                    CP:  9.55D-01  8.67D-01  9.85D-01  1.05D+00  8.52D-01
 E= -504.849999696021     Delta-E=       -0.000000061178 Rises=F Damp=F
 DIIS: error= 4.46D-06 at cycle  11 NSaved=  11.
 NSaved=11 IEnMin=11 EnMin= -504.849999696021     IErMin=11 ErrMin= 4.46D-06
 ErrMax= 4.46D-06 EMaxC= 1.00D-01 BMatC= 4.98D-08 BMatP= 1.80D-07
 IDIUse=1 WtCom= 1.00D+00 WtEn= 0.00D+00
 Coeff-Com: -0.103D-04-0.128D-04 0.153D-03 0.438D-03 0.360D-03-0.329D-03
 Coeff-Com: -0.176D-01-0.274D-01-0.839D-02 0.363D+00 0.689D+00
 Coeff:     -0.103D-04-0.128D-04 0.153D-03 0.438D-03 0.360D-03-0.329D-03
 Coeff:     -0.176D-01-0.274D-01-0.839D-02 0.363D+00 0.689D+00
 Gap=     0.167 Goal=   None    Shift=    0.000
 Gap=     0.220 Goal=   None    Shift=    0.000
 RMSDP=1.67D-06 MaxDP=2.35D-04 DE=-6.12D-08 OVMax= 4.20D-05

 Cycle  12  Pass 1  IDiag  1:
 RMSU=  6.52D-07    CP:  7.20D-01  1.22D-01  9.10D-01  9.30D-01  1.01D+00
                    CP:  9.56D-01  8.66D-01  9.90D-01  1.04D+00  9.26D-01
                    CP:  9.33D-01
 E= -504.849999712365     Delta-E=       -0.000000016344 Rises=F Damp=F
 DIIS: error= 2.09D-06 at cycle  12 NSaved=  12.
 NSaved=12 IEnMin=12 EnMin= -504.849999712365     IErMin=12 ErrMin= 2.09D-06
 ErrMax= 2.09D-06 EMaxC= 1.00D-01 BMatC= 6.40D-09 BMatP= 4.98D-08
 IDIUse=1 WtCom= 1.00D+00 WtEn= 0.00D+00
 Coeff-Com:  0.122D-04-0.260D-04-0.905D-04 0.281D-04 0.550D-03 0.211D-02
 Coeff-Com: -0.520D-04-0.122D-01-0.485D-01-0.133D-02 0.259D+00 0.801D+00
 Coeff:      0.122D-04-0.260D-04-0.905D-04 0.281D-04 0.550D-03 0.211D-02
 Coeff:     -0.520D-04-0.122D-01-0.485D-01-0.133D-02 0.259D+00 0.801D+00
 Gap=     0.167 Goal=   None    Shift=    0.000
 Gap=     0.220 Goal=   None    Shift=    0.000
 RMSDP=6.61D-07 MaxDP=5.71D-05 DE=-1.63D-08 OVMax= 2.61D-05

 Cycle  13  Pass 1  IDiag  1:
 RMSU=  3.42D-07    CP:  7.20D-01  1.22D-01  9.10D-01  9.30D-01  1.01D+00
                    CP:  9.55D-01  8.66D-01  9.85D-01  1.05D+00  9.46D-01
                    CP:  1.01D+00  9.94D-01
 E= -504.849999715796     Delta-E=       -0.000000003431 Rises=F Damp=F
 DIIS: error= 9.12D-07 at cycle  13 NSaved=  13.
 NSaved=13 IEnMin=13 EnMin= -504.849999715796     IErMin=13 ErrMin= 9.12D-07
 ErrMax= 9.12D-07 EMaxC= 1.00D-01 BMatC= 9.52D-10 BMatP= 6.40D-09
 IDIUse=1 WtCom= 1.00D+00 WtEn= 0.00D+00
 Coeff-Com: -0.555D-06 0.429D-05-0.453D-04-0.527D-04 0.104D-03 0.494D-03
 Coeff-Com:  0.298D-02 0.189D-02-0.862D-02-0.664D-01-0.680D-01 0.179D+00
 Coeff-Com:  0.959D+00
 Coeff:     -0.555D-06 0.429D-05-0.453D-04-0.527D-04 0.104D-03 0.494D-03
 Coeff:      0.298D-02 0.189D-02-0.862D-02-0.664D-01-0.680D-01 0.179D+00
 Coeff:      0.959D+00
 Gap=     0.167 Goal=   None    Shift=    0.000
 Gap=     0.220 Goal=   None    Shift=    0.000
 RMSDP=3.87D-07 MaxDP=3.06D-05 DE=-3.43D-09 OVMax= 1.65D-05

 Cycle  14  Pass 1  IDiag  1:
 RMSU=  1.81D-07    CP:  7.20D-01  1.22D-01  9.10D-01  9.30D-01  1.01D+00
                    CP:  9.55D-01  8.66D-01  9.84D-01  1.04D+00  9.48D-01
                    CP:  1.06D+00  1.13D+00  1.11D+00
 E= -504.849999716633     Delta-E=       -0.000000000838 Rises=F Damp=F
 DIIS: error= 4.43D-07 at cycle  14 NSaved=  14.
 NSaved=14 IEnMin=14 EnMin= -504.849999716633     IErMin=14 ErrMin= 4.43D-07
 ErrMax= 4.43D-07 EMaxC= 1.00D-01 BMatC= 2.45D-10 BMatP= 9.52D-10
 IDIUse=1 WtCom= 1.00D+00 WtEn= 0.00D+00
 Coeff-Com: -0.315D-05 0.721D-05 0.231D-05-0.255D-04-0.693D-04-0.259D-03
 Coeff-Com:  0.113D-02 0.318D-02 0.668D-02-0.233D-01-0.763D-01-0.987D-01
 Coeff-Com:  0.331D+00 0.857D+00
 Coeff:     -0.315D-05 0.721D-05 0.231D-05-0.255D-04-0.693D-04-0.259D-03
 Coeff:      0.113D-02 0.318D-02 0.668D-02-0.233D-01-0.763D-01-0.987D-01
 Coeff:      0.331D+00 0.857D+00
 Gap=     0.167 Goal=   None    Shift=    0.000
 Gap=     0.220 Goal=   None    Shift=    0.000
 RMSDP=1.60D-07 MaxDP=1.95D-05 DE=-8.38D-10 OVMax= 7.50D-06

 Cycle  15  Pass 1  IDiag  1:
 RMSU=  7.07D-08    CP:  7.20D-01  1.22D-01  9.10D-01  9.30D-01  1.01D+00
                    CP:  9.55D-01  8.66D-01  9.85D-01  1.05D+00  9.47D-01
                    CP:  1.07D+00  1.19D+00  1.30D+00  7.82D-01
 E= -504.849999716812     Delta-E=       -0.000000000178 Rises=F Damp=F
 DIIS: error= 1.61D-07 at cycle  15 NSaved=  15.
 NSaved=15 IEnMin=15 EnMin= -504.849999716812     IErMin=15 ErrMin= 1.61D-07
 ErrMax= 1.61D-07 EMaxC= 1.00D-01 BMatC= 5.64D-11 BMatP= 2.45D-10
 IDIUse=1 WtCom= 1.00D+00 WtEn= 0.00D+00
 Coeff-Com: -0.171D-05 0.329D-05 0.131D-04-0.169D-05-0.671D-04-0.237D-03
 Coeff-Com: -0.227D-03 0.926D-03 0.474D-02 0.676D-02-0.152D-01-0.825D-01
 Coeff-Com: -0.944D-01 0.348D+00 0.832D+00
 Coeff:     -0.171D-05 0.329D-05 0.131D-04-0.169D-05-0.671D-04-0.237D-03
 Coeff:     -0.227D-03 0.926D-03 0.474D-02 0.676D-02-0.152D-01-0.825D-01
 Coeff:     -0.944D-01 0.348D+00 0.832D+00
 Gap=     0.167 Goal=   None    Shift=    0.000
 Gap=     0.220 Goal=   None    Shift=    0.000
 RMSDP=7.25D-08 MaxDP=1.01D-05 DE=-1.78D-10 OVMax= 3.28D-06

 Cycle  16  Pass 1  IDiag  1:
 RMSU=  3.49D-08    CP:  7.20D-01  1.22D-01  9.10D-01  9.30D-01  1.01D+00
                    CP:  9.55D-01  8.66D-01  9.85D-01  1.05D+00  9.49D-01
                    CP:  1.07D+00  1.21D+00  1.33D+00  8.92D-01  9.75D-01
 E= -504.849999716841     Delta-E=       -0.000000000030 Rises=F Damp=F
 DIIS: error= 5.09D-08 at cycle  16 NSaved=  16.
 NSaved=16 IEnMin=16 EnMin= -504.849999716841     IErMin=16 ErrMin= 5.09D-08
 ErrMax= 5.09D-08 EMaxC= 1.00D-01 BMatC= 6.68D-12 BMatP= 5.64D-11
 IDIUse=1 WtCom= 1.00D+00 WtEn= 0.00D+00
 Coeff-Com: -0.472D-06 0.742D-06 0.370D-05 0.120D-05-0.163D-04-0.400D-04
 Coeff-Com: -0.218D-03-0.102D-03 0.593D-03 0.544D-02 0.520D-02-0.137D-01
 Coeff-Com: -0.771D-01-0.156D-02 0.278D+00 0.803D+00
 Coeff:     -0.472D-06 0.742D-06 0.370D-05 0.120D-05-0.163D-04-0.400D-04
 Coeff:     -0.218D-03-0.102D-03 0.593D-03 0.544D-02 0.520D-02-0.137D-01
 Coeff:     -0.771D-01-0.156D-02 0.278D+00 0.803D+00
 Gap=     0.167 Goal=   None    Shift=    0.000
 Gap=     0.220 Goal=   None    Shift=    0.000
 RMSDP=3.04D-08 MaxDP=3.63D-06 DE=-2.98D-11 OVMax= 8.29D-07

 Cycle  17  Pass 1  IDiag  1:
 RMSU=  1.18D-08    CP:  7.20D-01  1.22D-01  9.10D-01  9.30D-01  1.01D+00
                    CP:  9.55D-01  8.66D-01  9.85D-01  1.05D+00  9.49D-01
                    CP:  1.07D+00  1.21D+00  1.35D+00  9.21D-01  1.07D+00
                    CP:  7.45D-01
 E= -504.849999716850     Delta-E=       -0.000000000009 Rises=F Damp=F
 DIIS: error= 2.19D-08 at cycle  17 NSaved=  17.
 NSaved=17 IEnMin=17 EnMin= -504.849999716850     IErMin=17 ErrMin= 2.19D-08
 ErrMax= 2.19D-08 EMaxC= 1.00D-01 BMatC= 9.85D-13 BMatP= 6.68D-12
 IDIUse=1 WtCom= 1.00D+00 WtEn= 0.00D+00
 Coeff-Com: -0.116D-06 0.106D-06-0.651D-06 0.116D-05 0.436D-05 0.179D-04
 Coeff-Com: -0.414D-04-0.166D-03-0.455D-03 0.701D-03 0.391D-02 0.766D-02
 Coeff-Com: -0.100D-01-0.524D-01-0.388D-01 0.255D+00 0.835D+00
 Coeff:     -0.116D-06 0.106D-06-0.651D-06 0.116D-05 0.436D-05 0.179D-04
 Coeff:     -0.414D-04-0.166D-03-0.455D-03 0.701D-03 0.391D-02 0.766D-02
 Coeff:     -0.100D-01-0.524D-01-0.388D-01 0.255D+00 0.835D+00
 Gap=     0.167 Goal=   None    Shift=    0.000
 Gap=     0.220 Goal=   None    Shift=    0.000
 RMSDP=1.06D-08 MaxDP=1.69D-06 DE=-9.09D-12 OVMax= 2.22D-07

 Cycle  18  Pass 1  IDiag  1:
 RMSU=  3.36D-09    CP:  7.20D-01  1.22D-01  9.10D-01  9.30D-01  1.01D+00
                    CP:  9.55D-01  8.66D-01  9.85D-01  1.05D+00  9.49D-01
                    CP:  1.07D+00  1.21D+00  1.35D+00  9.22D-01  1.08D+00
                    CP:  8.70D-01  8.26D-01
 E= -504.849999716844     Delta-E=        0.000000000007 Rises=F Damp=F
 DIIS: error= 1.01D-08 at cycle  18 NSaved=  18.
 NSaved=18 IEnMin=17 EnMin= -504.849999716850     IErMin=18 ErrMin= 1.01D-08
 ErrMax= 1.01D-08 EMaxC= 1.00D-01 BMatC= 2.27D-13 BMatP= 9.85D-13
 IDIUse=1 WtCom= 1.00D+00 WtEn= 0.00D+00
 Coeff-Com:  0.308D-07-0.117D-06-0.769D-06 0.695D-06 0.469D-05 0.121D-04
 Coeff-Com:  0.776D-05-0.641D-04-0.263D-03-0.441D-03 0.102D-02 0.511D-02
 Coeff-Com:  0.653D-02-0.225D-01-0.568D-01-0.312D-02 0.366D+00 0.705D+00
 Coeff:      0.308D-07-0.117D-06-0.769D-06 0.695D-06 0.469D-05 0.121D-04
 Coeff:      0.776D-05-0.641D-04-0.263D-03-0.441D-03 0.102D-02 0.511D-02
 Coeff:      0.653D-02-0.225D-01-0.568D-01-0.312D-02 0.366D+00 0.705D+00
 Gap=     0.167 Goal=   None    Shift=    0.000
 Gap=     0.220 Goal=   None    Shift=    0.000
 RMSDP=3.57D-09 MaxDP=4.22D-07 DE= 6.82D-12 OVMax= 6.76D-08

 SCF Done:  E(UB3LYP) =  -504.849999717     A.U. after   18 cycles
             Convg  =    0.3567D-08             -V/T =  2.0045
 <Sx>= 0.0000 <Sy>= 0.0000 <Sz>= 0.5000 <S**2>= 0.7539 S= 0.5020
 <L.S>= 0.000000000000E+00
 KE= 5.026014968597D+02 PE=-2.466529567357D+03 EE= 8.139668379847D+02
 Annihilation of the first spin contaminant:
 S**2 before annihilation     0.7539,   after     0.7500
 Leave Link  502 at Fri Feb  7 21:58:03 2014, MaxMem= 4026531840 cpu:    2132.6
 (Enter /usr/caen/gaussian-09revc/g09/l601.exe)
 Copying SCF densities to generalized density rwf, IOpCl= 1 IROHF=0.

 **********************************************************************

            Population analysis using the SCF density.

 **********************************************************************

 Orbital symmetries:
 Alpha Orbitals:
       Occupied  (A) (A) (A) (A) (A) (A) (A) (A) (A) (A) (A) (A)
                 (A) (A) (A) (A) (A) (A) (A) (A) (A) (A) (A) (A)
                 (A) (A) (A) (A) (A) (A) (A) (A) (A) (A) (A) (A)
                 (A) (A) (A) (A) (A) (A) (A) (A) (A)
       Virtual   (A) (A) (A) (A) (A) (A) (A) (A) (A) (A) (A) (A)
                 (A) (A) (A) (A) (A) (A) (A) (A) (A) (A) (A) (A)
                 (A) (A) (A) (A) (A) (A) (A) (A) (A) (A) (A) (A)
                 (A) (A) (A) (A) (A) (A) (A) (A) (A) (A) (A) (A)
                 (A) (A) (A) (A) (A) (A) (A) (A) (A) (A) (A) (A)
                 (A) (A) (A) (A) (A) (A) (A) (A) (A) (A) (A) (A)
                 (A) (A) (A) (A) (A) (A) (A) (A) (A) (A) (A) (A)
                 (A) (A) (A) (A) (A) (A) (A) (A) (A) (A) (A) (A)
                 (A) (A) (A) (A) (A) (A) (A) (A) (A) (A) (A) (A)
                 (A) (A) (A) (A) (A) (A) (A) (A) (A) (A) (A) (A)
                 (A) (A) (A) (A) (A) (A) (A) (A) (A) (A) (A) (A)
                 (A) (A) (A) (A) (A) (A) (A) (A) (A) (A) (A) (A)
                 (A) (A) (A) (A) (A) (A) (A) (A) (A) (A) (A) (A)
                 (A) (A) (A) (A) (A) (A) (A) (A) (A) (A) (A) (A)
                 (A) (A) (A) (A) (A) (A) (A) (A) (A) (A) (A) (A)
                 (A) (A) (A) (A) (A) (A) (A) (A) (A) (A) (A) (A)
                 (A) (A) (A) (A) (A) (A) (A) (A) (A) (A) (A) (A)
                 (A) (A) (A) (A) (A) (A) (A) (A) (A) (A) (A) (A)
                 (A) (A) (A) (A) (A) (A) (A) (A) (A) (A) (A) (A)
                 (A) (A) (A) (A) (A) (A) (A) (A) (A) (A) (A) (A)
                 (A) (A) (A) (A) (A) (A) (A) (A) (A) (A) (A) (A)
                 (A) (A) (A) (A) (A) (A) (A) (A) (A) (A) (A) (A)
                 (A) (A) (A) (A) (A) (A) (A) (A) (A) (A) (A) (A)
                 (A) (A) (A) (A) (A) (A) (A) (A) (A) (A) (A) (A)
                 (A) (A) (A) (A) (A) (A) (A) (A) (A) (A) (A) (A)
                 (A) (A) (A) (A) (A) (A) (A) (A) (A) (A) (A) (A)
                 (A) (A) (A) (A) (A) (A) (A) (A) (A) (A) (A) (A)
                 (A) (A) (A) (A) (A) (A)
 Beta  Orbitals:
       Occupied  (A) (A) (A) (A) (A) (A) (A) (A) (A) (A) (A) (A)
                 (A) (A) (A) (A) (A) (A) (A) (A) (A) (A) (A) (A)
                 (A) (A) (A) (A) (A) (A) (A) (A) (A) (A) (A) (A)
                 (A) (A) (A) (A) (A) (A) (A) (A)
       Virtual   (A) (A) (A) (A) (A) (A) (A) (A) (A) (A) (A) (A)
                 (A) (A) (A) (A) (A) (A) (A) (A) (A) (A) (A) (A)
                 (A) (A) (A) (A) (A) (A) (A) (A) (A) (A) (A) (A)
                 (A) (A) (A) (A) (A) (A) (A) (A) (A) (A) (A) (A)
                 (A) (A) (A) (A) (A) (A) (A) (A) (A) (A) (A) (A)
                 (A) (A) (A) (A) (A) (A) (A) (A) (A) (A) (A) (A)
                 (A) (A) (A) (A) (A) (A) (A) (A) (A) (A) (A) (A)
                 (A) (A) (A) (A) (A) (A) (A) (A) (A) (A) (A) (A)
                 (A) (A) (A) (A) (A) (A) (A) (A) (A) (A) (A) (A)
                 (A) (A) (A) (A) (A) (A) (A) (A) (A) (A) (A) (A)
                 (A) (A) (A) (A) (A) (A) (A) (A) (A) (A) (A) (A)
                 (A) (A) (A) (A) (A) (A) (A) (A) (A) (A) (A) (A)
                 (A) (A) (A) (A) (A) (A) (A) (A) (A) (A) (A) (A)
                 (A) (A) (A) (A) (A) (A) (A) (A) (A) (A) (A) (A)
                 (A) (A) (A) (A) (A) (A) (A) (A) (A) (A) (A) (A)
                 (A) (A) (A) (A) (A) (A) (A) (A) (A) (A) (A) (A)
                 (A) (A) (A) (A) (A) (A) (A) (A) (A) (A) (A) (A)
                 (A) (A) (A) (A) (A) (A) (A) (A) (A) (A) (A) (A)
                 (A) (A) (A) (A) (A) (A) (A) (A) (A) (A) (A) (A)
                 (A) (A) (A) (A) (A) (A) (A) (A) (A) (A) (A) (A)
                 (A) (A) (A) (A) (A) (A) (A) (A) (A) (A) (A) (A)
                 (A) (A) (A) (A) (A) (A) (A) (A) (A) (A) (A) (A)
                 (A) (A) (A) (A) (A) (A) (A) (A) (A) (A) (A) (A)
                 (A) (A) (A) (A) (A) (A) (A) (A) (A) (A) (A) (A)
                 (A) (A) (A) (A) (A) (A) (A) (A) (A) (A) (A) (A)
                 (A) (A) (A) (A) (A) (A) (A) (A) (A) (A) (A) (A)
                 (A) (A) (A) (A) (A) (A) (A) (A) (A) (A) (A) (A)
                 (A) (A) (A) (A) (A) (A) (A)
 The electronic state is 2-A.
 Alpha  occ. eigenvalues --  -19.18465 -19.18320 -10.22335 -10.17791 -10.17488
 Alpha  occ. eigenvalues --  -10.16772 -10.16539 -10.16036 -10.15856 -10.15611
 Alpha  occ. eigenvalues --  -10.15529  -1.12381  -0.92569  -0.81965  -0.79977
 Alpha  occ. eigenvalues --   -0.74851  -0.68285  -0.67861  -0.66898  -0.60489
 Alpha  occ. eigenvalues --   -0.56786  -0.55236  -0.53241  -0.49479  -0.47081
 Alpha  occ. eigenvalues --   -0.46169  -0.45028  -0.44082  -0.42826  -0.42241
 Alpha  occ. eigenvalues --   -0.40975  -0.39889  -0.38578  -0.37920  -0.36834
 Alpha  occ. eigenvalues --   -0.36062  -0.35566  -0.34670  -0.33897  -0.33088
 Alpha  occ. eigenvalues --   -0.32619  -0.31394  -0.31329  -0.26704  -0.18435
 Alpha virt. eigenvalues --   -0.01758  -0.00701  -0.00094   0.00618   0.00682
 Alpha virt. eigenvalues --    0.01717   0.02156   0.02351   0.03448   0.03799
 Alpha virt. eigenvalues --    0.04080   0.04429   0.05325   0.05686   0.05915
 Alpha virt. eigenvalues --    0.06539   0.07047   0.07653   0.08226   0.08738
 Alpha virt. eigenvalues --    0.08956   0.09262   0.09897   0.10603   0.11025
 Alpha virt. eigenvalues --    0.11515   0.11921   0.12179   0.12463   0.12805
 Alpha virt. eigenvalues --    0.13067   0.13489   0.13748   0.14082   0.14443
 Alpha virt. eigenvalues --    0.14558   0.14668   0.15147   0.15320   0.15564
 Alpha virt. eigenvalues --    0.15872   0.15902   0.16493   0.17125   0.17452
 Alpha virt. eigenvalues --    0.17699   0.18068   0.18428   0.18555   0.18751
 Alpha virt. eigenvalues --    0.19134   0.19628   0.19750   0.20230   0.21110
 Alpha virt. eigenvalues --    0.21780   0.21840   0.22346   0.23017   0.23381
 Alpha virt. eigenvalues --    0.23536   0.23835   0.24757   0.25200   0.25989
 Alpha virt. eigenvalues --    0.26492   0.26649   0.27350   0.28277   0.28486
 Alpha virt. eigenvalues --    0.29060   0.29795   0.30254   0.30565   0.31749
 Alpha virt. eigenvalues --    0.32204   0.32800   0.33246   0.33677   0.33701
 Alpha virt. eigenvalues --    0.34528   0.35138   0.35481   0.36011   0.36672
 Alpha virt. eigenvalues --    0.37628   0.38268   0.39226   0.40031   0.41419
 Alpha virt. eigenvalues --    0.43023   0.44238   0.45066   0.46157   0.47087
 Alpha virt. eigenvalues --    0.48904   0.50575   0.51470   0.52328   0.53976
 Alpha virt. eigenvalues --    0.54081   0.54639   0.55798   0.56782   0.57635
 Alpha virt. eigenvalues --    0.58250   0.59773   0.60164   0.61089   0.61451
 Alpha virt. eigenvalues --    0.63722   0.64299   0.65212   0.65441   0.66949
 Alpha virt. eigenvalues --    0.67392   0.67464   0.68522   0.69175   0.69660
 Alpha virt. eigenvalues --    0.70640   0.71286   0.71496   0.72894   0.73218
 Alpha virt. eigenvalues --    0.74200   0.74499   0.75323   0.76461   0.76848
 Alpha virt. eigenvalues --    0.77956   0.79009   0.79266   0.80065   0.80580
 Alpha virt. eigenvalues --    0.82238   0.84675   0.87721   0.89091   0.92054
 Alpha virt. eigenvalues --    0.94057   0.95814   0.97183   0.99018   0.99996
 Alpha virt. eigenvalues --    1.04255   1.05273   1.06232   1.09061   1.09767
 Alpha virt. eigenvalues --    1.11223   1.12821   1.13247   1.15169   1.16930
 Alpha virt. eigenvalues --    1.17717   1.20050   1.21864   1.25330   1.27054
 Alpha virt. eigenvalues --    1.29050   1.31634   1.34211   1.35196   1.40336
 Alpha virt. eigenvalues --    1.41603   1.43487   1.45463   1.46843   1.47116
 Alpha virt. eigenvalues --    1.47800   1.49481   1.50226   1.52609   1.53909
 Alpha virt. eigenvalues --    1.55392   1.56201   1.56999   1.57483   1.58647
 Alpha virt. eigenvalues --    1.59379   1.60185   1.60362   1.60897   1.62335
 Alpha virt. eigenvalues --    1.62929   1.63403   1.64309   1.65925   1.66632
 Alpha virt. eigenvalues --    1.66860   1.68711   1.69215   1.70191   1.70460
 Alpha virt. eigenvalues --    1.73219   1.73276   1.74357   1.75280   1.76867
 Alpha virt. eigenvalues --    1.78041   1.78651   1.79467   1.80689   1.83477
 Alpha virt. eigenvalues --    1.84595   1.87029   1.87890   1.88618   1.91372
 Alpha virt. eigenvalues --    1.94423   1.95597   1.97909   1.99915   2.03634
 Alpha virt. eigenvalues --    2.04492   2.05204   2.05765   2.09051   2.10232
 Alpha virt. eigenvalues --    2.12231   2.13403   2.14668   2.15379   2.18176
 Alpha virt. eigenvalues --    2.20177   2.24616   2.25609   2.27950   2.29758
 Alpha virt. eigenvalues --    2.33309   2.34333   2.34800   2.35771   2.39103
 Alpha virt. eigenvalues --    2.40142   2.42970   2.45480   2.47508   2.49139
 Alpha virt. eigenvalues --    2.49516   2.49976   2.50743   2.51628   2.53280
 Alpha virt. eigenvalues --    2.53552   2.54433   2.55433   2.56178   2.57459
 Alpha virt. eigenvalues --    2.59281   2.59757   2.61919   2.62816   2.63176
 Alpha virt. eigenvalues --    2.63584   2.64421   2.66716   2.67785   2.70452
 Alpha virt. eigenvalues --    2.71807   2.72662   2.74272   2.75176   2.75930
 Alpha virt. eigenvalues --    2.77088   2.79039   2.80674   2.82674   2.84561
 Alpha virt. eigenvalues --    2.85825   2.88654   2.91567   2.93461   2.94376
 Alpha virt. eigenvalues --    2.95006   2.97139   2.98890   3.00517   3.01255
 Alpha virt. eigenvalues --    3.04033   3.07933   3.10069   3.11135   3.14798
 Alpha virt. eigenvalues --    3.16511   3.16827   3.23471   3.28058   3.33500
 Alpha virt. eigenvalues --    3.41257   3.48894   3.52661   3.70748   3.78105
 Alpha virt. eigenvalues --    3.78488   3.79659   3.80719   3.81471   3.83029
 Alpha virt. eigenvalues --    3.83749   3.84137   3.88182   3.89384   3.97609
 Alpha virt. eigenvalues --    3.98301   4.03711   4.08594   4.18919   4.27427
 Alpha virt. eigenvalues --    4.28916   4.32170   4.43088   4.87700   5.00352
 Alpha virt. eigenvalues --    5.07875   5.38497   5.53707   5.65190  23.83009
 Alpha virt. eigenvalues --   23.83908  23.84964  23.87218  23.91266  23.94488
 Alpha virt. eigenvalues --   23.98159  23.98847  23.99381  49.85720  49.88452
  Beta  occ. eigenvalues --  -19.18465 -19.18318 -10.22332 -10.17791 -10.17567
  Beta  occ. eigenvalues --  -10.16618 -10.16010 -10.15727 -10.15610 -10.15498
  Beta  occ. eigenvalues --  -10.15395  -1.12380  -0.92566  -0.81339  -0.79624
  Beta  occ. eigenvalues --   -0.74457  -0.68100  -0.67838  -0.65921  -0.60049
  Beta  occ. eigenvalues --   -0.56687  -0.54184  -0.53226  -0.49444  -0.46970
  Beta  occ. eigenvalues --   -0.45799  -0.44859  -0.43829  -0.42217  -0.41982
  Beta  occ. eigenvalues --   -0.40836  -0.39745  -0.38455  -0.37674  -0.36706
  Beta  occ. eigenvalues --   -0.35858  -0.35342  -0.34204  -0.33617  -0.32976
  Beta  occ. eigenvalues --   -0.32358  -0.31342  -0.31063  -0.26690
  Beta virt. eigenvalues --   -0.04711  -0.01757  -0.00684  -0.00060   0.00644
  Beta virt. eigenvalues --    0.00703   0.01760   0.02184   0.02401   0.03473
  Beta virt. eigenvalues --    0.03886   0.04114   0.04443   0.05329   0.05697
  Beta virt. eigenvalues --    0.05935   0.06559   0.07102   0.07667   0.08308
  Beta virt. eigenvalues --    0.08749   0.08959   0.09323   0.09924   0.10638
  Beta virt. eigenvalues --    0.11019   0.11567   0.11968   0.12218   0.12476
  Beta virt. eigenvalues --    0.12860   0.13081   0.13642   0.13827   0.14107
  Beta virt. eigenvalues --    0.14535   0.14599   0.14743   0.15193   0.15450
  Beta virt. eigenvalues --    0.15586   0.15921   0.15942   0.16596   0.17347
  Beta virt. eigenvalues --    0.17515   0.17832   0.18167   0.18473   0.18587
  Beta virt. eigenvalues --    0.18873   0.19203   0.19733   0.19817   0.20315
  Beta virt. eigenvalues --    0.21189   0.21859   0.21994   0.22451   0.23100
  Beta virt. eigenvalues --    0.23461   0.23710   0.23907   0.24819   0.25364
  Beta virt. eigenvalues --    0.26225   0.26634   0.26954   0.27560   0.28365
  Beta virt. eigenvalues --    0.28618   0.29314   0.29956   0.30529   0.30747
  Beta virt. eigenvalues --    0.31844   0.32273   0.32966   0.33274   0.33727
  Beta virt. eigenvalues --    0.33836   0.34639   0.35452   0.35759   0.36236
  Beta virt. eigenvalues --    0.36802   0.37724   0.38480   0.39256   0.40095
  Beta virt. eigenvalues --    0.41593   0.43091   0.44352   0.45244   0.46197
  Beta virt. eigenvalues --    0.47099   0.49058   0.50692   0.51668   0.52542
  Beta virt. eigenvalues --    0.54119   0.54485   0.54800   0.55923   0.56836
  Beta virt. eigenvalues --    0.57809   0.58653   0.59919   0.60395   0.61259
  Beta virt. eigenvalues --    0.61820   0.63848   0.64591   0.65543   0.66643
  Beta virt. eigenvalues --    0.67332   0.67528   0.67872   0.68697   0.69374
  Beta virt. eigenvalues --    0.69999   0.70837   0.71725   0.71917   0.73014
  Beta virt. eigenvalues --    0.73680   0.74311   0.74718   0.75607   0.76659
  Beta virt. eigenvalues --    0.76986   0.78174   0.79133   0.79577   0.80259
  Beta virt. eigenvalues --    0.80861   0.82308   0.84802   0.87953   0.89211
  Beta virt. eigenvalues --    0.92842   0.94239   0.97126   0.97434   0.99164
  Beta virt. eigenvalues --    1.00320   1.04372   1.05513   1.06336   1.09170
  Beta virt. eigenvalues --    1.09850   1.11350   1.12869   1.13370   1.15282
  Beta virt. eigenvalues --    1.17144   1.17756   1.20221   1.22075   1.25638
  Beta virt. eigenvalues --    1.27136   1.30179   1.31760   1.34947   1.35342
  Beta virt. eigenvalues --    1.40470   1.41678   1.43969   1.45586   1.46940
  Beta virt. eigenvalues --    1.47278   1.48229   1.49699   1.50309   1.52770
  Beta virt. eigenvalues --    1.54235   1.56049   1.56390   1.57046   1.57579
  Beta virt. eigenvalues --    1.58815   1.59488   1.60280   1.60701   1.60995
  Beta virt. eigenvalues --    1.62861   1.63135   1.63499   1.64703   1.66214
  Beta virt. eigenvalues --    1.66758   1.67221   1.69226   1.69780   1.70382
  Beta virt. eigenvalues --    1.71321   1.73317   1.73526   1.74516   1.75528
  Beta virt. eigenvalues --    1.77077   1.78366   1.79026   1.79622   1.80993
  Beta virt. eigenvalues --    1.83798   1.84689   1.87258   1.88202   1.88774
  Beta virt. eigenvalues --    1.92434   1.94590   1.96392   1.98171   2.00053
  Beta virt. eigenvalues --    2.03670   2.04560   2.05748   2.05977   2.09627
  Beta virt. eigenvalues --    2.10633   2.12493   2.13557   2.14749   2.15593
  Beta virt. eigenvalues --    2.18623   2.20582   2.24907   2.25964   2.28131
  Beta virt. eigenvalues --    2.29969   2.33472   2.34482   2.34885   2.36226
  Beta virt. eigenvalues --    2.39339   2.40769   2.43238   2.45558   2.47594
  Beta virt. eigenvalues --    2.49246   2.49561   2.50065   2.50820   2.51818
  Beta virt. eigenvalues --    2.53392   2.53658   2.54555   2.55552   2.56346
  Beta virt. eigenvalues --    2.57535   2.59474   2.60048   2.61990   2.62869
  Beta virt. eigenvalues --    2.63267   2.63685   2.64788   2.66911   2.68271
  Beta virt. eigenvalues --    2.70661   2.71928   2.72770   2.74329   2.75550
  Beta virt. eigenvalues --    2.76151   2.77182   2.79133   2.80747   2.82845
  Beta virt. eigenvalues --    2.84900   2.86228   2.89042   2.91807   2.93599
  Beta virt. eigenvalues --    2.94841   2.95317   2.97739   2.99348   3.01177
  Beta virt. eigenvalues --    3.02917   3.04350   3.08412   3.10195   3.11339
  Beta virt. eigenvalues --    3.15144   3.16580   3.17019   3.23615   3.28222
  Beta virt. eigenvalues --    3.33517   3.41470   3.49138   3.53063   3.70754
  Beta virt. eigenvalues --    3.78214   3.78563   3.79734   3.80775   3.81625
  Beta virt. eigenvalues --    3.83033   3.83882   3.84222   3.88228   3.89400
  Beta virt. eigenvalues --    3.97838   3.98908   4.03764   4.09001   4.19284
  Beta virt. eigenvalues --    4.27827   4.28923   4.32501   4.43708   4.87701
  Beta virt. eigenvalues --    5.00357   5.07876   5.38497   5.53708   5.65191
  Beta virt. eigenvalues --   23.83054  23.84076  23.85976  23.87389  23.91283
  Beta virt. eigenvalues --   23.94536  23.98276  23.98847  23.99435  49.85721
  Beta virt. eigenvalues --   49.88453
          Condensed to atoms (all electrons):
              1          2          3          4          5          6
     1  C    6.046988   0.391979   0.405320   0.388255  -0.675833  -0.099488
     2  H    0.391979   0.591559  -0.040640  -0.029338  -0.112962  -0.018079
     3  H    0.405320  -0.040640   0.514697  -0.032356   0.123093   0.017831
     4  H    0.388255  -0.029338  -0.032356   0.581326  -0.009337  -0.010993
     5  C   -0.675833  -0.112962   0.123093  -0.009337   9.563903   0.630666
     6  H   -0.099488  -0.018079   0.017831  -0.010993   0.630666   0.648434
     7  C    0.601606   0.019487  -0.129199   0.028354  -3.349687  -0.209464
     8  H   -0.007772  -0.000342   0.000340   0.001728  -0.000828  -0.011685
     9  H    0.041661   0.005712   0.007969  -0.003694  -0.144102   0.009023
    10  C   -0.214165   0.007862   0.009533  -0.003018   0.868672   0.002405
    11  H    0.007613  -0.002114   0.000507   0.001670  -0.133252  -0.007306
    12  H    0.008494   0.003792   0.001355  -0.003096   0.132691   0.017022
    13  C   -0.005225   0.015861  -0.005211  -0.007759  -0.550305  -0.015453
    14  H    0.005825  -0.001456   0.000253   0.000534  -0.020519  -0.001108
    15  C   -0.003432   0.003013   0.000156  -0.001753  -0.065109   0.005668
    16  H    0.002843   0.000109   0.000042  -0.000109  -0.003842  -0.000525
    17  C   -0.002661   0.000432  -0.000048  -0.000099   0.005319   0.000257
    18  H   -0.000021   0.000039  -0.000001  -0.000012  -0.001469  -0.000063
    19  H   -0.000092   0.000024  -0.000002  -0.000006   0.000606   0.000012
    20  H   -0.000029   0.000036  -0.000011   0.000004   0.000428  -0.000028
    21  C   -0.268330   0.029300  -0.048191  -0.034777  -0.696511  -0.108221
    22  H   -0.049755   0.009970  -0.003452  -0.004583  -0.151128  -0.004161
    23  H    0.008953  -0.006044   0.000488   0.003364   0.110565   0.005440
    24  C   -0.002534  -0.000076  -0.000175   0.000008  -0.004275   0.000336
    25  H   -0.000037   0.000007  -0.000004  -0.000006  -0.001940  -0.000028
    26  H    0.000260  -0.000014   0.000017   0.000003   0.000692  -0.000158
    27  H   -0.001265  -0.000101  -0.000035   0.000094  -0.005122  -0.000268
    28  O   -0.001863   0.000498   0.001229  -0.005807  -0.037283   0.010916
    29  O   -0.007122   0.000767   0.001203  -0.000943  -0.080142  -0.003711
    30  H   -0.001992   0.000004  -0.000044  -0.000149  -0.005263   0.000566
              7          8          9         10         11         12
     1  C    0.601606  -0.007772   0.041661  -0.214165   0.007613   0.008494
     2  H    0.019487  -0.000342   0.005712   0.007862  -0.002114   0.003792
     3  H   -0.129199   0.000340   0.007969   0.009533   0.000507   0.001355
     4  H    0.028354   0.001728  -0.003694  -0.003018   0.001670  -0.003096
     5  C   -3.349687  -0.000828  -0.144102   0.868672  -0.133252   0.132691
     6  H   -0.209464  -0.011685   0.009023   0.002405  -0.007306   0.017022
     7  C   10.909071   0.356764   0.531835  -1.911655   0.234385  -0.563281
     8  H    0.356764   0.609903  -0.060582   0.007127  -0.012054   0.006721
     9  H    0.531835  -0.060582   0.532111  -0.114260   0.004462   0.012117
    10  C   -1.911655   0.007127  -0.114260   8.177563   0.464649   0.343385
    11  H    0.234385  -0.012054   0.004462   0.464649   0.716205  -0.191919
    12  H   -0.563281   0.006721   0.012117   0.343385  -0.191919   0.901163
    13  C    0.383420  -0.047362   0.041707  -1.186860  -0.152540   0.066640
    14  H    0.119619   0.002739  -0.004528  -0.107679   0.021918  -0.018408
    15  C   -0.718653  -0.000624   0.024519   0.115119  -0.112041   0.243748
    16  H   -0.006169   0.000113   0.001072  -0.077307   0.005800   0.023673
    17  C   -0.082843  -0.003466  -0.000482  -0.164676  -0.016456   0.027485
    18  H    0.000878   0.000190   0.000000  -0.005993   0.001194   0.002269
    19  H   -0.006068  -0.000200   0.000268   0.002166  -0.001195   0.002037
    20  H   -0.010544  -0.001153   0.000364   0.011923  -0.001804   0.000529
    21  C    0.338720   0.021257  -0.059244   0.195199   0.037595  -0.102772
    22  H    0.073796  -0.004241  -0.000143  -0.014506  -0.002892   0.010348
    23  H   -0.135042   0.005348  -0.002259   0.063927  -0.004475   0.008273
    24  C    0.045008   0.000091  -0.000721   0.273615  -0.009129  -0.032930
    25  H    0.004294  -0.000099   0.000070   0.004264   0.002340  -0.005665
    26  H   -0.008824   0.000382  -0.000198  -0.009129   0.001495   0.005544
    27  H    0.031182   0.001184  -0.002858   0.074785   0.007773  -0.032763
    28  O   -0.058183  -0.004516   0.022742  -0.006314  -0.000083   0.005738
    29  O    0.049431   0.008613  -0.025967  -0.102419  -0.008871   0.056981
    30  H   -0.043177  -0.002417   0.003466   0.020787   0.000326   0.000830
             13         14         15         16         17         18
     1  C   -0.005225   0.005825  -0.003432   0.002843  -0.002661  -0.000021
     2  H    0.015861  -0.001456   0.003013   0.000109   0.000432   0.000039
     3  H   -0.005211   0.000253   0.000156   0.000042  -0.000048  -0.000001
     4  H   -0.007759   0.000534  -0.001753  -0.000109  -0.000099  -0.000012
     5  C   -0.550305  -0.020519  -0.065109  -0.003842   0.005319  -0.001469
     6  H   -0.015453  -0.001108   0.005668  -0.000525   0.000257  -0.000063
     7  C    0.383420   0.119619  -0.718653  -0.006169  -0.082843   0.000878
     8  H   -0.047362   0.002739  -0.000624   0.000113  -0.003466   0.000190
     9  H    0.041707  -0.004528   0.024519   0.001072  -0.000482   0.000000
    10  C   -1.186860  -0.107679   0.115119  -0.077307  -0.164676  -0.005993
    11  H   -0.152540   0.021918  -0.112041   0.005800  -0.016456   0.001194
    12  H    0.066640  -0.018408   0.243748   0.023673   0.027485   0.002269
    13  C    8.329791   0.392036  -1.540126  -0.091606   0.339976  -0.065924
    14  H    0.392036   0.587781  -0.128512   0.015246  -0.016121   0.002542
    15  C   -1.540126  -0.128512   7.737907   0.563280  -0.178792   0.062667
    16  H   -0.091606   0.015246   0.563280   0.609438  -0.053817   0.011881
    17  C    0.339976  -0.016121  -0.178792  -0.053817   5.657041   0.387512
    18  H   -0.065924   0.002542   0.062667   0.011881   0.387512   0.562869
    19  H    0.043042  -0.002549  -0.095251  -0.013673   0.399904  -0.036144
    20  H   -0.059550  -0.001364   0.015523  -0.005154   0.406960  -0.039327
    21  C    0.058904   0.001129  -0.023767  -0.005761   0.003918   0.000222
    22  H    0.025847  -0.001148   0.002190  -0.000256   0.000513   0.000050
    23  H   -0.037190   0.001270  -0.008699   0.000074  -0.001089  -0.000204
    24  C   -0.031391  -0.033682  -0.078788  -0.123720  -0.155607  -0.028941
    25  H    0.047124  -0.001175  -0.104203  -0.005373   0.004227   0.003600
    26  H   -0.052188   0.007054   0.051680   0.011663  -0.009278   0.008194
    27  H   -0.066960   0.001284  -0.086052  -0.017289   0.000607  -0.004793
    28  O    0.024206  -0.000196   0.002164   0.000386   0.000012   0.000005
    29  O    0.083172  -0.003394   0.020372   0.001667   0.001239   0.000073
    30  H   -0.003462   0.000213  -0.000479  -0.000084   0.000036  -0.000015
             19         20         21         22         23         24
     1  C   -0.000092  -0.000029  -0.268330  -0.049755   0.008953  -0.002534
     2  H    0.000024   0.000036   0.029300   0.009970  -0.006044  -0.000076
     3  H   -0.000002  -0.000011  -0.048191  -0.003452   0.000488  -0.000175
     4  H   -0.000006   0.000004  -0.034777  -0.004583   0.003364   0.000008
     5  C    0.000606   0.000428  -0.696511  -0.151128   0.110565  -0.004275
     6  H    0.000012  -0.000028  -0.108221  -0.004161   0.005440   0.000336
     7  C   -0.006068  -0.010544   0.338720   0.073796  -0.135042   0.045008
     8  H   -0.000200  -0.001153   0.021257  -0.004241   0.005348   0.000091
     9  H    0.000268   0.000364  -0.059244  -0.000143  -0.002259  -0.000721
    10  C    0.002166   0.011923   0.195199  -0.014506   0.063927   0.273615
    11  H   -0.001195  -0.001804   0.037595  -0.002892  -0.004475  -0.009129
    12  H    0.002037   0.000529  -0.102772   0.010348   0.008273  -0.032930
    13  C    0.043042  -0.059550   0.058904   0.025847  -0.037190  -0.031391
    14  H   -0.002549  -0.001364   0.001129  -0.001148   0.001270  -0.033682
    15  C   -0.095251   0.015523  -0.023767   0.002190  -0.008699  -0.078788
    16  H   -0.013673  -0.005154  -0.005761  -0.000256   0.000074  -0.123720
    17  C    0.399904   0.406960   0.003918   0.000513  -0.001089  -0.155607
    18  H   -0.036144  -0.039327   0.000222   0.000050  -0.000204  -0.028941
    19  H    0.576202  -0.019877  -0.000083   0.000014  -0.000014   0.003812
    20  H   -0.019877   0.557898   0.000002  -0.000011   0.000036   0.017384
    21  C   -0.000083   0.000002   6.318424   0.415816   0.314323   0.009984
    22  H    0.000014  -0.000011   0.415816   0.599286  -0.054826   0.000490
    23  H   -0.000014   0.000036   0.314323  -0.054826   0.595481   0.000523
    24  C    0.003812   0.017384   0.009984   0.000490   0.000523   5.637377
    25  H   -0.002610   0.000130   0.000634   0.000057  -0.000256   0.390745
    26  H    0.002059  -0.001569  -0.001363  -0.000132   0.000356   0.370085
    27  H    0.000551  -0.002385   0.009133   0.000101  -0.001587   0.431849
    28  O    0.000000   0.000012   0.212912  -0.077171  -0.041351  -0.000569
    29  O    0.000068  -0.000026  -0.001217   0.034543  -0.010450  -0.003645
    30  H   -0.000004   0.000016   0.030134  -0.001458  -0.000643   0.000107
             25         26         27         28         29         30
     1  C   -0.000037   0.000260  -0.001265  -0.001863  -0.007122  -0.001992
     2  H    0.000007  -0.000014  -0.000101   0.000498   0.000767   0.000004
     3  H   -0.000004   0.000017  -0.000035   0.001229   0.001203  -0.000044
     4  H   -0.000006   0.000003   0.000094  -0.005807  -0.000943  -0.000149
     5  C   -0.001940   0.000692  -0.005122  -0.037283  -0.080142  -0.005263
     6  H   -0.000028  -0.000158  -0.000268   0.010916  -0.003711   0.000566
     7  C    0.004294  -0.008824   0.031182  -0.058183   0.049431  -0.043177
     8  H   -0.000099   0.000382   0.001184  -0.004516   0.008613  -0.002417
     9  H    0.000070  -0.000198  -0.002858   0.022742  -0.025967   0.003466
    10  C    0.004264  -0.009129   0.074785  -0.006314  -0.102419   0.020787
    11  H    0.002340   0.001495   0.007773  -0.000083  -0.008871   0.000326
    12  H   -0.005665   0.005544  -0.032763   0.005738   0.056981   0.000830
    13  C    0.047124  -0.052188  -0.066960   0.024206   0.083172  -0.003462
    14  H   -0.001175   0.007054   0.001284  -0.000196  -0.003394   0.000213
    15  C   -0.104203   0.051680  -0.086052   0.002164   0.020372  -0.000479
    16  H   -0.005373   0.011663  -0.017289   0.000386   0.001667  -0.000084
    17  C    0.004227  -0.009278   0.000607   0.000012   0.001239   0.000036
    18  H    0.003600   0.008194  -0.004793   0.000005   0.000073  -0.000015
    19  H   -0.002610   0.002059   0.000551   0.000000   0.000068  -0.000004
    20  H    0.000130  -0.001569  -0.002385   0.000012  -0.000026   0.000016
    21  C    0.000634  -0.001363   0.009133   0.212912  -0.001217   0.030134
    22  H    0.000057  -0.000132   0.000101  -0.077171   0.034543  -0.001458
    23  H   -0.000256   0.000356  -0.001587  -0.041351  -0.010450  -0.000643
    24  C    0.390745   0.370085   0.431849  -0.000569  -0.003645   0.000107
    25  H    0.586323  -0.035517  -0.022861  -0.000028  -0.000112   0.000009
    26  H   -0.035517   0.554972  -0.040133   0.000136   0.000939  -0.000126
    27  H   -0.022861  -0.040133   0.588515  -0.000460  -0.005953   0.000056
    28  O   -0.000028   0.000136  -0.000460   8.010054   0.012769  -0.000646
    29  O   -0.000112   0.000939  -0.005953   0.012769   7.999446   0.185587
    30  H    0.000009  -0.000126   0.000056  -0.000646   0.185587   0.549006
 Mulliken atomic charges:
              1
     1  C   -0.568181
     2  H    0.130715
     3  H    0.175334
     4  H    0.142493
     5  C    0.612273
     6  H    0.142162
     7  C   -0.495061
     8  H    0.134841
     9  H    0.179942
    10  C   -0.724999
    11  H    0.148198
    12  H    0.069998
    13  C    0.067386
    14  H    0.182396
    15  C    0.298275
    16  H    0.157398
    17  C   -0.550001
    18  H    0.138722
    19  H    0.147005
    20  H    0.131588
    21  C   -0.647369
    22  H    0.196841
    23  H    0.185707
    24  C   -0.675231
    25  H    0.136093
    26  H    0.143098
    27  H    0.143771
    28  O   -0.069309
    29  O   -0.202900
    30  H    0.268815
 Sum of Mulliken atomic charges =   0.00000
 Mulliken charges with hydrogens summed into heavy atoms:
              1
     1  C   -0.119640
     5  C    0.754435
     7  C   -0.180278
    10  C   -0.506803
    13  C    0.249781
    15  C    0.455673
    17  C   -0.132686
    21  C   -0.264821
    24  C   -0.252269
    28  O   -0.069309
    29  O    0.065915
 Sum of Mulliken charges with hydrogens summed into heavy atoms =   0.00000
          Atomic-Atomic Spin Densities.
              1          2          3          4          5          6
     1  C    0.018481  -0.000089   0.000764  -0.000599  -0.039732  -0.001801
     2  H   -0.000089   0.000062  -0.000098   0.000138   0.000542  -0.000061
     3  H    0.000764  -0.000098   0.000000  -0.000026  -0.001020  -0.000104
     4  H   -0.000599   0.000138  -0.000026   0.000052   0.000108   0.000052
     5  C   -0.039732   0.000542  -0.001020   0.000108   0.092308   0.006559
     6  H   -0.001801  -0.000061  -0.000104   0.000052   0.006559   0.000414
     7  C    0.046910  -0.000404   0.001112   0.000243  -0.131158  -0.008037
     8  H   -0.004498   0.000268  -0.000084  -0.000109   0.006949   0.000354
     9  H    0.002303  -0.000130   0.000128  -0.000028  -0.006993  -0.000181
    10  C   -0.021722   0.000191  -0.000652  -0.000370   0.055843   0.004131
    11  H    0.006580  -0.000326   0.000262   0.000061  -0.031413  -0.001138
    12  H   -0.008055   0.000341  -0.000333  -0.000122   0.035344   0.001048
    13  C    0.000827  -0.000206  -0.000142   0.000318   0.019396  -0.000841
    14  H    0.001883  -0.000097   0.000129   0.000016  -0.010108  -0.000442
    15  C   -0.000239   0.000017   0.000080  -0.000063  -0.008987  -0.000038
    16  H    0.000617  -0.000041   0.000020   0.000012  -0.003848  -0.000231
    17  C   -0.000253  -0.000031  -0.000012   0.000003   0.002944   0.000085
    18  H    0.000007  -0.000001   0.000001   0.000000  -0.000095   0.000001
    19  H   -0.000034   0.000003  -0.000001  -0.000001   0.000189   0.000006
    20  H   -0.000052   0.000006  -0.000003  -0.000001   0.000350   0.000012
    21  C    0.001349   0.000095   0.000066   0.000247  -0.003903  -0.000185
    22  H   -0.004358   0.000134  -0.000195   0.000077   0.008980   0.000538
    23  H   -0.001287  -0.000009  -0.000021  -0.000037   0.003295   0.000195
    24  C   -0.001130   0.000100  -0.000045  -0.000030   0.006309   0.000323
    25  H    0.000030  -0.000001   0.000002   0.000000  -0.000420  -0.000004
    26  H    0.000075  -0.000001   0.000004   0.000001  -0.000505  -0.000020
    27  H   -0.000018  -0.000006   0.000001   0.000002   0.000087  -0.000001
    28  O    0.001793  -0.000061   0.000061   0.000013  -0.003733  -0.000150
    29  O   -0.000118  -0.000009   0.000012   0.000010  -0.001115  -0.000014
    30  H   -0.000029   0.000002  -0.000013   0.000003   0.000344   0.000007
              7          8          9         10         11         12
     1  C    0.046910  -0.004498   0.002303  -0.021722   0.006580  -0.008055
     2  H   -0.000404   0.000268  -0.000130   0.000191  -0.000326   0.000341
     3  H    0.001112  -0.000084   0.000128  -0.000652   0.000262  -0.000333
     4  H    0.000243  -0.000109  -0.000028  -0.000370   0.000061  -0.000122
     5  C   -0.131158   0.006949  -0.006993   0.055843  -0.031413   0.035344
     6  H   -0.008037   0.000354  -0.000181   0.004131  -0.001138   0.001048
     7  C    0.272452  -0.014598   0.009016  -0.135265   0.076799  -0.087182
     8  H   -0.014598   0.001167  -0.001641  -0.000048  -0.005939   0.006599
     9  H    0.009016  -0.001641   0.001568  -0.000563   0.003190  -0.007325
    10  C   -0.135265  -0.000048  -0.000563  -0.023843  -0.042646   0.062086
    11  H    0.076799  -0.005939   0.003190  -0.042646   0.077436  -0.053417
    12  H   -0.087182   0.006599  -0.007325   0.062086  -0.053417   0.175441
    13  C   -0.022683   0.015476  -0.003419  -0.003077  -0.015332  -0.060170
    14  H    0.031951  -0.001217  -0.001371  -0.017977   0.006799  -0.011652
    15  C   -0.002047  -0.002677   0.001500   0.002508   0.011153  -0.022296
    16  H    0.016754  -0.000670   0.000264  -0.012301   0.013406  -0.010558
    17  C   -0.005737   0.000688  -0.000091   0.011696  -0.002585   0.004643
    18  H    0.000755  -0.000064   0.000061  -0.001435   0.000253  -0.000331
    19  H   -0.001811   0.000072  -0.000054   0.001664  -0.000949   0.000751
    20  H   -0.001721   0.000132  -0.000071   0.002803  -0.000836   0.000600
    21  C    0.001521   0.000960  -0.000356  -0.001686  -0.000987   0.002884
    22  H   -0.010009   0.000546  -0.000549   0.003602  -0.002076   0.003874
    23  H   -0.004638   0.000069   0.000005   0.003199  -0.001056   0.001859
    24  C   -0.032041   0.001218  -0.001460   0.016880  -0.021822   0.037315
    25  H    0.001426  -0.000114   0.000107  -0.004202   0.001688  -0.002946
    26  H    0.001277  -0.000051   0.000060  -0.000045   0.000780  -0.001878
[...]
 43,0.00003915,0.00006289,0.00042072,-0.00035338,-0.00002131,-0.0163868
 3,-0.00694817,-0.00754210,0.00087109,0.00018115,0.00038500,-0.00343337
 ,-0.14784376,-0.00051734,-0.00326260,-0.01915248,-0.00113430,0.0009701
 3,-0.02341554,-0.00490848,-0.00127309,0.00153652,0.00100675,-0.0014040
 2,0.00071334,0.00078023,0.00136667,-0.00049298,-0.00124411,-0.00000037
 ,0.00012575,-0.00000573,0.00003215,-0.00002093,0.00000150,-0.00000756,
 0.00000479,0.00000911,-0.03139300,0.43603073,-0.00000160,-0.00000649,0
 .00002157,0.00000395,-0.00000408,-0.00000648,-0.00000145,0.00000340,-0
 .00000461,-0.00002082,-0.00000291,0.00000203,-0.00002968,0.00006862,-0
 .00004324,-0.00000186,-0.00000217,0.00000353,0.00011214,-0.00025934,0.
 00013500,-0.00006981,-0.00002108,-0.00006434,0.00001115,0.00002837,-0.
 00000311,0.00020565,0.00042513,-0.00023739,-0.00024258,-0.00009836,0.0
 0019764,0.00015145,-0.00021091,0.00024324,-0.00759423,-0.01418773,-0.0
 0338572,-0.00038493,0.00071475,-0.00020972,0.00177591,-0.00713613,-0.0
 7359381,0.00623784,0.03013027,0.00261717,-0.00089845,-0.02055219,-0.00
 250754,-0.00062218,-0.00102384,0.00049700,-0.00092498,0.00084802,0.000
 47566,0.00232957,-0.00228933,-0.00168818,0.00007339,0.00001590,0.00010
 353,-0.00003708,0.00000405,-0.00000796,0.00000761,-0.00002982,-0.00004
 588,-0.00716418,-0.01117831,0.55889201,-0.00002874,0.00001434,0.000040
 90,0.00001203,0.00000026,-0.00000426,0.00000383,0.00000253,-0.00000533
 ,-0.00004019,-0.00001099,0.00000401,0.00002023,0.00001571,-0.00009136,
 0.00000230,-0.00000285,0.00001272,0.00005253,-0.00004778,0.00013389,-0
 .00003800,-0.00001432,-0.00002348,-0.00000038,0.00000423,-0.00000860,0
 .00028775,0.00029995,-0.00028987,-0.00005783,-0.00007399,0.00003493,0.
 00020080,0.00006139,0.00004796,0.00014434,-0.00280268,0.00015280,-0.00
 007045,0.00005500,-0.00007877,-0.00577628,0.00029295,-0.00253577,0.000
 06235,-0.00030489,0.00043623,0.00055390,0.00082359,0.00042846,-0.00000
 087,-0.00001640,0.00004980,0.00069118,-0.00012765,-0.00015863,0.000208
 03,-0.00007831,0.00016979,0.00003713,-0.00002519,0.00003952,-0.0000424
 2,0.00000360,0.00000134,0.00002201,-0.00002710,-0.00003574,-0.24252496
 ,-0.02594996,-0.10489070,0.26345613,-0.00003335,0.00001564,0.00003952,
 0.00000994,0.00000449,-0.00000118,0.00000166,-0.00000135,-0.00000705,-
 0.00003230,-0.00001251,0.00000024,-0.00002710,0.00000465,-0.00007384,-
 0.00000038,0.00000156,0.00000532,-0.00014871,0.00012889,0.00022870,0.0
 0007143,0.00004652,0.00001684,0.00002296,-0.00000639,-0.00000881,0.000
 22713,0.00032110,-0.00028453,-0.00009010,-0.00008064,0.00005629,-0.000
 50899,0.00015048,0.00020481,-0.00010023,-0.00552446,-0.00079833,-0.000
 41798,0.00015728,-0.00023444,-0.02848242,-0.00642742,-0.01586549,0.000
 41549,0.00148674,0.00053564,-0.00098624,0.00170176,0.00021255,0.000134
 69,-0.00007946,-0.00001445,0.00090527,-0.00025016,-0.00008640,0.000044
 61,0.00035715,0.00045605,0.00001495,-0.00008207,0.00003698,-0.00003339
 ,0.00001651,-0.00000302,0.00000778,-0.00001620,-0.00001666,-0.02587732
 ,-0.04853029,-0.01398952,0.02974144,0.05399524,-0.00001638,0.00000931,
 0.00001733,0.00000548,-0.00000031,-0.00000098,0.00000234,0.00000094,-0
 .00000251,-0.00001677,-0.00000590,0.00000170,-0.00000697,-0.00000358,-
 0.00003774,0.,-0.00000069,0.00000403,-0.00013332,0.00009813,0.00008617
 ,0.00005438,0.00002145,0.00002093,0.00001554,0.00000257,0.00000494,0.0
 0025629,-0.00013940,-0.00014973,-0.00003456,-0.00002246,0.00002248,-0.
 00020069,0.00021207,0.00003518,-0.00052092,-0.00177672,0.00095515,0.00
 023537,0.00035196,0.00011701,-0.00176845,0.00045653,-0.00179751,0.0004
 3086,-0.00024398,0.00039792,-0.00051435,0.00025161,-0.00020022,-0.0001
 1399,-0.00002838,-0.00004506,0.00047206,-0.00040269,0.00015295,0.00028
 792,0.00014138,0.00008395,-0.00000239,-0.00002246,-0.00000095,-0.00001
 362,0.00000318,0.00000367,0.00000508,-0.00000844,-0.00000571,-0.104710
 31,-0.01400426,-0.10393930,0.11629245,0.01615088,0.10833432,-0.0000020
 3,-0.00000298,0.00000049,-0.00000185,0.00000335,0.00000158,-0.00000293
 ,-0.00000212,-0.00000293,0.00000287,-0.00000035,-0.00000161,-0.0000141
 3,-0.00000406,-0.00000540,0.00000567,0.00000888,-0.00000946,0.00002521
 ,-0.00001605,0.00000940,-0.00000898,-0.00000521,-0.00000408,-0.0000305
 8,-0.00001338,-0.00003081,-0.00028817,-0.00008423,0.00000796,0.0000712
 3,0.00012157,-0.00009126,-0.00000320,-0.00011692,0.00004168,0.00048820
 ,0.00043468,0.00117291,0.00008328,-0.00021494,-0.00017631,-0.00150299,
 -0.00341968,0.00601117,0.00037152,-0.00146802,-0.00021823,0.00002764,0
 .00068080,-0.00069565,0.00033461,0.00006739,-0.00001568,0.00001999,0.0
 0003537,-0.00013761,-0.00012936,-0.00005970,0.00008170,0.00003001,-0.0
 0003067,0.00003517,0.00000171,0.00000833,-0.00000765,-0.00000783,-0.00
 000053,0.00000557,-0.04796517,-0.00534290,0.01151446,0.00242422,0.0130
 0059,-0.02577734,0.04708387,-0.00000634,0.00000314,0.00000578,0.000001
 54,0.00000087,0.00000285,-0.00000239,0.00000089,-0.00000253,-0.0000037
 2,-0.00000263,-0.00000119,-0.00000042,-0.00001456,-0.00001069,0.000006
 74,0.00000377,-0.00000825,-0.00001498,0.00003991,0.00001725,-0.0000005
 1,-0.00000097,0.00001074,-0.00003109,-0.00000735,-0.00001893,-0.000202
 85,-0.00003658,-0.00002438,0.00013455,0.00001016,-0.00016377,-0.000004
 80,-0.00001499,-0.00002912,0.00179192,0.00188845,0.00085923,-0.0003667
 2,-0.00031304,-0.00044644,-0.00243309,-0.01649570,0.02876665,-0.001472
 99,-0.00633060,-0.00111727,-0.00062214,0.00170050,0.00148320,0.0004574
 5,0.00002244,-0.00105729,0.00008520,-0.00009049,-0.00009982,-0.0001241
 4,0.00044088,-0.00035103,0.00000589,-0.00001993,0.00000054,-0.00000105
 ,0.00000309,-0.00000054,-0.00000091,0.00000003,0.00000007,-0.00526042,
 -0.09415279,0.10063844,0.00083145,0.00123820,-0.00393587,0.00752232,0.
 10540051,0.00001307,-0.00000529,-0.00001684,-0.00000319,-0.00000307,-0
 .00000075,0.00000236,0.00000087,0.00000793,0.00001324,0.00000554,-0.00
 000048,-0.00000076,0.00000921,0.00002322,-0.00000261,-0.00001286,0.000
 00827,-0.00004802,-0.00000344,-0.00004530,0.00001259,0.00000902,0.0000
 1184,0.00002309,0.00001399,0.00002723,0.00011804,-0.00000860,0.0000471
 5,-0.00004234,-0.00005544,0.00002879,0.00001230,0.00009195,-0.00012935
 ,-0.00007154,-0.00036518,0.00105314,0.00037197,0.00015803,0.00016295,0
 .00002655,-0.00119550,0.00283311,-0.00007352,-0.00109139,0.00141388,-0
 .00016925,-0.00030566,0.00095402,-0.00038993,0.00045632,0.00036561,0.0
 0005436,0.00001234,-0.00007158,-0.00009629,0.00004326,0.00023764,-0.00
 005635,0.00005423,-0.00006225,0.00001459,-0.00001206,0.00000741,0.0000
 0248,0.00001510,0.00000837,0.01169472,0.10064175,-0.25514419,0.0013784
 5,0.00562234,-0.01290057,-0.01280892,-0.11101919,0.27617586,0.00002195
 ,-0.00000736,-0.00002218,-0.00000525,-0.00000573,-0.00000050,-0.000002
 88,0.00000104,0.00000168,0.00001764,0.00000634,-0.00000018,0.00000321,
 0.00001483,0.00004828,-0.00000016,0.00000353,-0.00000697,0.00000686,-0
 .00003870,-0.00012217,-0.00001341,0.00000134,0.00000419,-0.00000432,0.
 00000114,0.00000238,0.00009694,-0.00024122,0.00004281,-0.00000363,0.00
 003543,-0.00001206,-0.00020275,-0.00012631,-0.00002646,0.00051300,-0.0
 0010957,-0.00046304,0.00001610,-0.00006354,0.00000805,0.00489755,-0.00
 358878,-0.00487737,0.00030797,0.00077045,-0.00019266,0.00017110,-0.000
 92125,-0.00047340,-0.00007646,-0.00009410,-0.00002241,0.00042399,-0.00
 025743,0.00007344,0.00049485,-0.00021459,0.00005246,-0.00000221,0.0000
 3603,-0.00000039,0.00001847,-0.00000052,0.00000097,-0.00001416,0.00000
 043,0.00001308,-0.18110521,0.08394839,0.10051420,-0.01952312,0.0121923
 3,0.01579813,-0.00101733,-0.00029082,-0.00001496,0.19495682,0.00001134
 ,-0.00000861,-0.00001687,-0.00000454,0.00000444,0.00000265,0.00000124,
 -0.00000219,0.00000493,0.00001768,0.00000415,-0.00000227,-0.00004223,-
 0.00000416,0.00002950,-0.00000467,-0.00001086,0.00000069,-0.00032737,0
 .00013848,0.00005860,0.00012554,0.00009562,0.00006248,0.00005271,0.000
 00794,0.00004369,0.00006787,-0.00048422,-0.00011529,-0.00006196,-0.000
 16478,0.00008946,-0.00051019,0.00042769,0.00003268,0.00160244,0.001283
 89,0.00031005,-0.00008966,-0.00005538,0.00005898,0.02218821,-0.0134553
 3,-0.01740924,0.00030061,0.00123167,0.00062831,-0.00276593,-0.00656254
 ,0.00014213,-0.00015687,0.00013437,-0.00015120,-0.00016689,0.00020379,
 0.00030018,0.00154672,-0.00099673,-0.00126852,-0.00006879,-0.00000794,
 -0.00006450,0.00002181,0.00000092,0.00000489,-0.00000898,0.00003307,0.
 00002504,0.08306210,-0.09755908,-0.06189179,-0.00268563,0.00129836,0.0
 0288140,-0.01115108,0.00670845,0.00701404,-0.09101875,0.10775893,-0.00
 000026,0.00000116,-0.00000756,-0.00000251,0.00000803,0.00000348,-0.000
 00121,-0.00000563,-0.00000275,0.00000958,-0.00000065,-0.00000124,-0.00
 002398,-0.00001328,0.00002698,-0.00000072,0.00000962,-0.00000876,-0.00
 017082,0.00020150,-0.00000595,0.00009213,0.00007448,0.00004823,0.00000
 132,-0.00002905,-0.00001328,0.00011322,-0.00044220,0.00012259,-0.00000
 803,0.00010946,-0.00005297,-0.00044563,0.00031667,0.00022740,0.0007632
 0,0.00004745,-0.00026233,-0.00001873,-0.00008651,0.00003157,0.00068680
 ,-0.00049532,-0.00241085,-0.00043327,-0.00014022,0.00056475,-0.0006453
 8,-0.00100952,0.00060420,-0.00022532,0.00026486,0.00048136,0.00027048,
 0.00004897,-0.00000066,0.00041794,-0.00015986,0.00028734,-0.00000951,-
 0.00006995,0.00000227,0.00001158,0.00001366,-0.00000493,-0.00001129,0.
 00001173,0.00002690,0.09988647,-0.06227448,-0.12223350,-0.01105830,0.0
 0786253,0.00884885,0.02112947,-0.01348804,-0.01505129,-0.11033336,0.06
 917048,0.12878534,-0.00013489,-0.00146389,-0.00006475,0.00025096,-0.00
 004140,0.00040786,0.00035744,-0.00021547,0.00078746,0.00012806,0.00016
 879,-0.00012296,-0.00451965,0.01318357,-0.01837608,-0.00068567,0.00435
 496,0.00120593,0.00141706,-0.00067059,-0.00175000,0.00022119,-0.000251
 64,0.00046421,-0.00046625,-0.00005142,0.00085941,-0.00062883,0.0000895
 9,0.00023499,0.00029167,-0.00021588,0.00016587,-0.00023229,0.00014433,
 -0.00015765,0.00016449,0.00005845,-0.00004504,-0.00008234,-0.00001458,
 0.00006205,0.00002865,-0.00001753,0.00006076,0.00000704,-0.00000999,0.
 00001103,-0.00001836,-0.00002076,-0.00003854,0.00000206,-0.00000458,0.
 00001741,-0.00003721,0.00000434,-0.00000037,0.00001148,0.00000339,-0.0
 0000046,-0.11681729,0.01530328,-0.03547856,0.00719457,-0.01646064,0.02
 188157,-0.01147897,0.01708083,-0.02611619,-0.00001681,0.00001085,-0.00
 003050,-0.00003980,-0.00001523,-0.00001434,0.00000415,-0.00000321,0.00
 002156,0.00000874,0.00003569,0.00001556,0.29246279,0.00048156,0.001803
 70,-0.00002225,0.00024651,0.00025742,0.00054664,0.00008376,-0.00085610
 ,0.00026911,-0.00044519,-0.00045351,0.00036546,0.01411187,-0.02212543,
 0.03504476,0.00329304,-0.00761337,-0.00215009,-0.00187245,0.00151887,0
 .00103255,-0.00019413,0.00029359,-0.00034145,0.00004762,0.00056119,-0.
 00074417,-0.00005632,-0.00059311,0.00000611,-0.00003048,-0.00001699,-0
 .00008368,0.00003690,0.00029661,0.00003098,0.00001384,0.00030121,0.000
 18092,-0.00000425,-0.00003681,-0.00000133,-0.00001764,-0.00006622,-0.0
 0008750,0.00000006,0.00000746,-0.00000865,0.00004146,0.00004114,0.0000
 4737,-0.00000666,-0.00000168,-0.00001789,0.00005163,-0.00000814,0.0000
 0095,-0.00002319,0.00001920,0.00000506,0.04476169,-0.09690806,0.049289
 79,-0.00035910,-0.00699810,0.01337853,-0.00276142,0.00836213,-0.000893
 73,0.00006114,-0.00005548,-0.00000052,0.00003334,0.00004232,0.00001839
 ,0.00000667,0.00000768,-0.00002918,-0.00003270,-0.00001643,0.00002200,
 0.02689069,0.21493392,-0.00118088,-0.00124298,-0.00030932,0.00045933,-
 0.00026246,0.00076961,0.00090163,0.00017151,0.00138644,0.00016087,-0.0
 0000932,0.00011221,-0.00200287,0.01016262,-0.00036487,0.00003118,-0.00
 031202,0.00140181,0.00014879,0.00039164,0.00000366,-0.00033668,0.00009
 157,0.00026153,-0.00044991,0.00007012,0.00047966,-0.00038944,-0.000182
 69,0.00003881,0.00021478,-0.00016410,0.00013393,-0.00003316,0.00027970
 ,-0.00025195,0.00015406,-0.00000212,-0.00001805,-0.00010984,0.00002885
 ,0.00010535,0.00000049,0.00000593,0.00005253,0.00001877,-0.00002059,0.
 00002982,-0.00001525,-0.00001160,-0.00003491,-0.00000483,-0.00000531,0
 .00002211,-0.00002426,0.00000375,0.00000349,0.00000662,0.00000162,-0.0
 0000150,-0.07173673,0.04944611,-0.12223825,-0.00272950,0.01291321,-0.0
 2056598,-0.01098661,0.01873908,-0.02956803,0.00001709,0.00000955,-0.00
 005338,-0.00002096,-0.00001878,0.00000142,-0.00002192,-0.00000642,0.00
 004047,-0.00000173,0.00003997,-0.00000190,0.01433705,-0.14872252,0.226
 19664,-0.00003738,-0.00003081,-0.00004454,0.00013231,-0.00011230,0.000
 02815,-0.00017346,-0.00004531,0.00010633,0.00012346,0.00020844,-0.0001
 2159,0.00158685,0.00086182,-0.00111921,-0.00012546,0.00008470,0.000045
 74,-0.00062510,-0.00041144,0.00016594,0.00032610,0.00009575,-0.0002915
 5,-0.00027926,0.00083766,-0.00053795,-0.00016075,-0.00073738,-0.000964
 88,-0.00018638,0.00055862,-0.00003356,-0.00003420,0.00099945,0.0006189
 9,0.00014437,0.00029620,0.00005691,-0.00002472,-0.00007786,-0.00001078
 ,0.00007109,-0.00011056,0.00005049,-0.00001070,0.00001960,-0.00002070,
 -0.00000440,-0.00000761,-0.00002479,0.00000816,-0.00000667,0.00000246,
 -0.00003568,-0.00000359,-0.00000187,0.00000539,0.00002355,0.00000759,0
 .00490353,0.00018024,0.00927986,0.00397554,-0.00031291,-0.00146132,0.0
 0297398,0.00107404,-0.00045733,-0.00001939,-0.00000977,-0.00004697,-0.
 00006780,0.00000572,-0.00001752,0.00004381,0.00000277,-0.00002324,-0.0
 0000462,0.00002631,0.00007863,-0.16017816,-0.03915436,0.06552792,0.205
 56363,0.00003095,-0.00007196,0.00019623,0.00013513,-0.00007803,-0.0000
 4242,-0.00021498,-0.00015859,0.00003509,0.00012376,0.00021500,-0.00014
 340,-0.00047762,0.00020955,0.00024954,0.00022163,0.00015423,-0.0002475
 2,0.00136515,-0.00215137,-0.00149648,0.00034179,-0.00056106,0.00061390
 ,0.00103012,-0.00189384,0.00114200,0.00027794,-0.00035370,-0.00035135,
 0.00001558,0.00002903,0.00004285,-0.00011059,-0.00060304,0.00006639,-0
 .00009155,0.00003418,0.00014267,0.00006731,-0.00007676,-0.00008580,-0.
 00001497,-0.00004308,-0.00009665,-0.00001053,0.00002327,-0.00002553,0.
 00003979,0.00003402,0.00005445,0.00000245,-0.00000171,-0.00002465,0.00
 003771,-0.00000794,-0.00000670,-0.00001715,0.00002039,0.00000448,-0.03
 045584,-0.01066412,0.01414431,0.00283757,-0.00319840,0.00230618,0.0020
 2170,0.00198350,-0.00181724,0.00003799,-0.00006719,0.00003537,0.000007
 87,0.00005907,-0.00000064,0.00004962,0.00000925,-0.00006305,-0.0000167
 5,-0.00002480,0.00005354,-0.05829214,-0.08368585,0.05729889,-0.0619123
 4,0.56630382,-0.00017622,0.00035923,-0.00055372,0.00003979,0.00007600,
 0.00022047,-0.00000127,-0.00003505,0.00023878,-0.00010111,-0.00010964,
 -0.00003108,-0.00142600,-0.00159106,0.00268804,0.00025386,-0.00070514,
 0.00003681,-0.00008282,0.00088215,-0.00026876,-0.00023567,0.00011444,0
 .00032217,0.00018070,-0.00045538,0.00032000,-0.00028394,-0.00063081,-0
 .00026504,-0.00004562,0.00027630,0.00001572,0.00004787,0.00085072,0.00
 008098,0.00002535,0.00023223,-0.00011235,-0.00011222,0.00001131,0.0001
 0053,0.00003079,-0.00006428,0.00013371,0.00000694,-0.00000655,0.000016
 49,-0.00002955,-0.00001554,-0.00006865,-0.00000281,-0.00000905,0.00002
 701,-0.00004597,0.00000337,0.00000751,0.00001193,0.00000593,0.00000149
 ,0.03588437,0.01344579,-0.02580052,-0.00339708,0.00644047,-0.00449692,
 0.00273665,-0.00162432,0.00484722,-0.00001801,0.00002572,-0.00010045,-
 0.00005322,-0.00003213,-0.00000526,-0.00001313,-0.00000712,0.00004033,
 0.00000402,0.00004290,0.00003269,0.04217168,0.02810764,-0.05491038,-0.
 11198866,0.02293608,0.10303160,0.00011505,-0.00006380,0.00000777,-0.00
 000656,-0.00004443,-0.00000790,-0.00006080,0.00001296,0.00002330,0.000
 03416,0.00005535,-0.00001823,-0.00046461,-0.00046816,0.00057264,0.0001
 5741,-0.00005959,-0.00012303,0.00002378,0.00016987,0.00055884,-0.00012
 593,0.00019151,-0.00031067,0.00015192,-0.00023281,-0.00063307,0.000101
 47,0.00046782,0.00014306,-0.00008805,-0.00008393,-0.00005787,0.0001400
 6,-0.00007136,0.00004972,0.00001410,-0.00014497,-0.00004513,0.00002515
 ,0.00004426,-0.00000404,0.00001234,0.00007981,0.00000703,-0.00000420,-
 0.00002088,0.00000749,-0.00002391,-0.00002860,-0.00000764,-0.00000053,
 0.00000909,0.00000422,-0.00000329,0.00000719,0.00000312,0.00000846,-0.
 00002588,-0.00000648,-0.00447999,-0.00054019,-0.00102630,0.00037252,-0
 .00045216,0.00040257,0.00059802,0.00071774,-0.00043576,-0.00003911,0.0
 0004626,0.00002467,0.00003207,-0.00004226,0.00000602,-0.00004343,0.000
 00277,0.00004153,0.00002030,0.00000327,-0.00008804,-0.00721381,-0.0452
 0391,0.00806599,-0.05789077,0.14297038,0.03661934,0.06863818,-0.000126
 93,0.00005745,0.00004971,0.00000185,0.00009326,0.00002732,0.00000268,-
 0.00008647,-0.00004012,-0.00002015,-0.00003836,-0.00001775,-0.00021971
 ,0.00004802,-0.00029345,-0.00007802,0.00020330,0.00003138,0.00021891,0
 .00012202,-0.00074323,-0.00004498,-0.00001484,0.00024213,0.00023842,-0
 .00042872,0.00042652,-0.00017173,-0.00012469,-0.00003206,0.00001607,0.
 00002879,0.00001606,0.00011508,0.00007290,0.00007031,0.00003753,0.0000
 2823,-0.00005142,-0.00002993,0.00000690,0.00002463,0.00001820,-0.00000
 169,0.00004155,0.00000107,-0.00000771,0.00000515,-0.00001418,-0.000014
 36,-0.00002137,0.00000205,0.00000088,0.00000922,-0.00001983,0.00000324
 ,0.00000013,0.00000720,-0.00000575,-0.00000057,-0.00056520,-0.00241797
 ,0.00124712,0.00003224,0.00027608,-0.00029417,-0.00015728,-0.00028287,
 0.00005586,-0.00001638,0.00000975,-0.00002780,-0.00001992,-0.00001503,
 -0.00000405,-0.00000676,0.00000140,0.00002192,0.00001687,0.00002127,-0
 .00000144,0.00042019,-0.00901117,0.00130677,0.09765803,-0.46543386,-0.
 06852424,-0.09729538,0.47691001,0.00008799,-0.00014424,-0.00000502,-0.
 00003823,-0.00003010,-0.00005797,0.00005253,0.00001491,-0.00004291,-0.
 00003405,-0.00001750,0.00003365,-0.00014670,0.00004170,-0.00068868,-0.
 00011742,0.00011513,0.00010979,0.00010692,-0.00024136,-0.00023902,0.00
 005280,-0.00012945,0.00008553,-0.00025042,0.00023857,0.00025870,-0.000
 08102,0.00025581,0.00010207,0.00002971,-0.00003359,0.00002566,-0.00003
 500,-0.00006417,-0.00002894,-0.00005556,-0.00004663,0.00005069,0.00002
 997,-0.00000314,-0.00003634,-0.00000421,0.00003011,-0.00005214,-0.0000
 0108,0.00000764,-0.00000904,0.00000543,-0.00000271,0.00003508,0.000001
 73,0.00000543,-0.00001676,0.00002055,-0.00000004,-0.00000267,-0.000002
 97,-0.00000783,-0.00000436,0.00430921,0.00317037,0.00014986,-0.0002537
 3,0.00052260,-0.00086943,-0.00060944,0.00001990,-0.00077310,-0.0000266
 0,0.00000079,0.00008045,0.00003174,0.00000594,-0.00000245,0.00000639,0
 .00000313,-0.00002461,0.00000614,-0.00002336,-0.00003597,-0.00050898,0
 .02475669,-0.00272097,0.04119743,-0.09492054,-0.02554840,-0.04377314,0
 .06647594,0.03022727\\0.00000113,-0.00000213,-0.00000014,0.00000173,-0
 .00000256,0.00000255,0.00000178,-0.00000438,-0.00000132,0.00000048,-0.
 00000120,-0.00000072,-0.00000015,0.00000005,-0.00000087,-0.00000093,0.
 00000204,0.00000065,0.00000066,-0.00000164,0.00000019,0.00000149,-0.00
 000174,0.00000318,0.00000160,-0.00000340,-0.00000059,-0.00000075,0.000
 00086,0.00000014,-0.00000122,0.00000310,0.00000156,-0.00000107,0.00000
 172,-0.00000186,0.00000060,-0.00000018,0.00000197,0.00000162,-0.000002
 50,0.00000182,-0.00000046,0.00000195,0.00000302,-0.00000101,0.00000367
 ,0.00000374,0.00000087,0.00000045,0.00000546,0.00000182,-0.00000158,0.
 00000459,0.00000028,0.00000201,0.00000616,0.00000143,0.00000024,0.0000
 0760,-0.00000113,0.00000023,-0.00000374,-0.00000164,0.00000144,-0.0000
 0475,-0.00000195,0.00000196,-0.00000483,-0.00000095,0.00000224,-0.0000
 0021,-0.00000164,0.00000369,0.00000066,-0.00000052,0.00000007,-0.00000
 097,-0.00000191,0.00000307,-0.00000187,-0.00000033,-0.00000203,-0.0000
 0655,0.00000034,-0.00000271,-0.00000645,-0.00000017,-0.00000270,-0.000
 00845\\\@
 Job cpu time:  0 days  8 hours 10 minutes 53.9 seconds.
 File lengths (MBytes):  RWF=  71447 Int=      0 D2E=      0 Chk=     32 Scr=      1
 Normal termination of Gaussian 09 at Sat Feb  8 14:43:50 2014.
