 Entering Gaussian System, Link 0=g09
 Initial command:
 /usr/caen/gaussian-09revc/g09/l1.exe /scratch/avioli_flux/hetanjin/scratch/Gau-17616.inp -scrdir=/scratch/avioli_flux/hetanjin/scratch/
 Entering Link 1 = /usr/caen/gaussian-09revc/g09/l1.exe PID=     17617.
  
 Copyright (c) 1988,1990,1992,1993,1995,1998,2003,2009,2011,
            Gaussian, Inc.  All Rights Reserved.
  
 This is part of the Gaussian(R) 09 program.  It is based on
 the Gaussian(R) 03 system (copyright 2003, Gaussian, Inc.),
 the Gaussian(R) 98 system (copyright 1998, Gaussian, Inc.),
 the Gaussian(R) 94 system (copyright 1995, Gaussian, Inc.),
 the Gaussian 92(TM) system (copyright 1992, Gaussian, Inc.),
 the Gaussian 90(TM) system (copyright 1990, Gaussian, Inc.),
 the Gaussian 88(TM) system (copyright 1988, Gaussian, Inc.),
 the Gaussian 86(TM) system (copyright 1986, Carnegie Mellon
 University), and the Gaussian 82(TM) system (copyright 1983,
 Carnegie Mellon University). Gaussian is a federally registered
 trademark of Gaussian, Inc.
  
 This software contains proprietary and confidential information,
 including trade secrets, belonging to Gaussian, Inc.
  
 This software is provided under written license and may be
 used, copied, transmitted, or stored only in accord with that
 written license.
  
 The following legend is applicable only to US Government
 contracts under FAR:
  
                    RESTRICTED RIGHTS LEGEND
  
 Use, reproduction and disclosure by the US Government is
 subject to restrictions as set forth in subparagraphs (a)
 and (c) of the Commercial Computer Software - Restricted
 Rights clause in FAR 52.227-19.
  
 Gaussian, Inc.
 340 Quinnipiac St., Bldg. 40, Wallingford CT 06492
  
  
 ---------------------------------------------------------------
 Warning -- This program may not be used in any manner that
 competes with the business of Gaussian, Inc. or will provide
 assistance to any competitor of Gaussian, Inc.  The licensee
 of this program is prohibited from giving any competitor of
 Gaussian, Inc. access to this program.  By using this program,
 the user acknowledges that Gaussian, Inc. is engaged in the
 business of creating and licensing software in the field of
 computational chemistry and represents and warrants to the
 licensee that it is not a competitor of Gaussian, Inc. and that
 it will not use this program in any manner prohibited above.
 ---------------------------------------------------------------
  

 Cite this work as:
 Gaussian 09, Revision C.01,
 M. J. Frisch, G. W. Trucks, H. B. Schlegel, G. E. Scuseria, 
 M. A. Robb, J. R. Cheeseman, G. Scalmani, V. Barone, B. Mennucci, 
 G. A. Petersson, H. Nakatsuji, M. Caricato, X. Li, H. P. Hratchian, 
 A. F. Izmaylov, J. Bloino, G. Zheng, J. L. Sonnenberg, M. Hada, 
 M. Ehara, K. Toyota, R. Fukuda, J. Hasegawa, M. Ishida, T. Nakajima, 
 Y. Honda, O. Kitao, H. Nakai, T. Vreven, J. A. Montgomery, Jr., 
 J. E. Peralta, F. Ogliaro, M. Bearpark, J. J. Heyd, E. Brothers, 
 K. N. Kudin, V. N. Staroverov, T. Keith, R. Kobayashi, J. Normand, 
 K. Raghavachari, A. Rendell, J. C. Burant, S. S. Iyengar, J. Tomasi, 
 M. Cossi, N. Rega, J. M. Millam, M. Klene, J. E. Knox, J. B. Cross, 
 V. Bakken, C. Adamo, J. Jaramillo, R. Gomperts, R. E. Stratmann, 
 O. Yazyev, A. J. Austin, R. Cammi, C. Pomelli, J. W. Ochterski, 
 R. L. Martin, K. Morokuma, V. G. Zakrzewski, G. A. Voth, 
 P. Salvador, J. J. Dannenberg, S. Dapprich, A. D. Daniels, 
 O. Farkas, J. B. Foresman, J. V. Ortiz, J. Cioslowski, 
 and D. J. Fox, Gaussian, Inc., Wallingford CT, 2010.
 
 ******************************************
 Gaussian 09:  EM64L-G09RevC.01 23-Sep-2011
                 7-Feb-2014 
 ******************************************
 %mem=30GB
 %nprocshared=8
 Will use up to    8 processors via shared memory.
 %chk=C9H18OOH_1_26_b.chk
 --------------------------------------------------
 #p UB3LYP/6-311++G(d,p) guess=mix stable=(opt,xqc)
 --------------------------------------------------
 1/38=1/1;
 2/12=2,17=6,18=5,40=1/2;
 3/5=4,6=6,7=1111,11=2,16=1,25=1,30=1,74=-5,116=2/1,2,3;
 4/13=-1/1;
 5/5=2,38=5/2;
 6/7=2,8=2,9=2,10=2,28=1/1;
 8/6=1,10=90,11=11/1;
 9/8=-3,42=1,46=1/14;
 5/5=2,8=3,13=1,17=40,38=5/2,8(-2);
 6/7=2,8=2,9=2,10=2,28=1/1;
 99/5=1,9=1/99;
 Leave Link    1 at Fri Feb  7 02:27:51 2014, MaxMem= 4026531840 cpu:       0.6
 (Enter /usr/caen/gaussian-09revc/g09/l101.exe)
 --------------------------------------------
 C9H18OOH_1_26_b using cbs-qb3 to cal. energy
 --------------------------------------------
 Charge =  0 Multiplicity = 2
 Symbolic Z-Matrix:
 C                    -3.11827  -1.73729  -0.22453 
 H                    -3.05757  -2.81611  -0.3064 
 H                    -3.87268  -1.2197   -0.80351 
 C                    -2.0435   -0.97707   0.48194 
 H                    -1.82139  -1.48858   1.43268 
 C                    -0.71799  -0.991    -0.33528 
 H                    -0.51111  -2.03419  -0.60114 
 H                    -0.87325  -0.45516  -1.27534 
 C                     0.49958  -0.41586   0.40026 
 H                     0.60631  -0.91341   1.37428 
 H                     0.33472   0.64509   0.60594 
 C                     1.79912  -0.59074  -0.39648 
 H                     1.70629  -0.07165  -1.36021 
 H                     1.92136  -1.65456  -0.63654 
 C                     3.07736  -0.10194   0.31168 
 H                     3.12073  -0.59333   1.29379 
 C                     4.32471  -0.52417  -0.47774 
 H                     4.32818  -0.06785  -1.4739 
 H                     5.24189  -0.21373   0.03182 
 H                     4.36542  -1.60953  -0.60956 
 C                    -2.53181   0.42242   0.88959 
 H                    -3.40538   0.32143   1.54213 
 H                    -1.76338   0.98713   1.42534 
 C                     3.07845   1.41614   0.54361 
 H                     3.99796   1.7341    1.0442 
 H                     3.01715   1.95319  -0.40975 
 H                     2.23841   1.73967   1.163 
 O                    -3.04324   1.22008  -0.17892 
 O                    -1.91029   1.78412  -0.90942 
 H                    -2.1515    2.72059  -0.88844 
 
 NAtoms=     30 NQM=        0 NQMF=       0 NMMI=     30 NMMIF=      0
                NMic=       0 NMicF=      0.
                    Isotopes and Nuclear Properties:
 (Nuclear quadrupole moments (NQMom) in fm**2, nuclear magnetic moments (NMagM)
  in nuclear magnetons)

  Atom         1           2           3           4           5           6           7           8           9          10
 IAtWgt=          12           1           1          12           1          12           1           1          12           1
 AtmWgt=  12.0000000   1.0078250   1.0078250  12.0000000   1.0078250  12.0000000   1.0078250   1.0078250  12.0000000   1.0078250
 NucSpn=           0           1           1           0           1           0           1           1           0           1
 AtZEff=   0.0000000   0.0000000   0.0000000   0.0000000   0.0000000   0.0000000   0.0000000   0.0000000   0.0000000   0.0000000
 NQMom=    0.0000000   0.0000000   0.0000000   0.0000000   0.0000000   0.0000000   0.0000000   0.0000000   0.0000000   0.0000000
 NMagM=    0.0000000   2.7928460   2.7928460   0.0000000   2.7928460   0.0000000   2.7928460   2.7928460   0.0000000   2.7928460

  Atom        11          12          13          14          15          16          17          18          19          20
 IAtWgt=           1          12           1           1          12           1          12           1           1           1
 AtmWgt=   1.0078250  12.0000000   1.0078250   1.0078250  12.0000000   1.0078250  12.0000000   1.0078250   1.0078250   1.0078250
 NucSpn=           1           0           1           1           0           1           0           1           1           1
 AtZEff=   0.0000000   0.0000000   0.0000000   0.0000000   0.0000000   0.0000000   0.0000000   0.0000000   0.0000000   0.0000000
 NQMom=    0.0000000   0.0000000   0.0000000   0.0000000   0.0000000   0.0000000   0.0000000   0.0000000   0.0000000   0.0000000
 NMagM=    2.7928460   0.0000000   2.7928460   2.7928460   0.0000000   2.7928460   0.0000000   2.7928460   2.7928460   2.7928460

  Atom        21          22          23          24          25          26          27          28          29          30
 IAtWgt=          12           1           1          12           1           1           1          16          16           1
 AtmWgt=  12.0000000   1.0078250   1.0078250  12.0000000   1.0078250   1.0078250   1.0078250  15.9949146  15.9949146   1.0078250
 NucSpn=           0           1           1           0           1           1           1           0           0           1
 AtZEff=   0.0000000   0.0000000   0.0000000   0.0000000   0.0000000   0.0000000   0.0000000   0.0000000   0.0000000   0.0000000
 NQMom=    0.0000000   0.0000000   0.0000000   0.0000000   0.0000000   0.0000000   0.0000000   0.0000000   0.0000000   0.0000000
 NMagM=    0.0000000   2.7928460   2.7928460   0.0000000   2.7928460   2.7928460   2.7928460   0.0000000   0.0000000   2.7928460
 Leave Link  101 at Fri Feb  7 02:27:51 2014, MaxMem= 4026531840 cpu:       0.7
 (Enter /usr/caen/gaussian-09revc/g09/l202.exe)
                          Input orientation:                          
 ---------------------------------------------------------------------
 Center     Atomic      Atomic             Coordinates (Angstroms)
 Number     Number       Type             X           Y           Z
 ---------------------------------------------------------------------
      1          6           0       -3.118267   -1.737293   -0.224530
      2          1           0       -3.057575   -2.816113   -0.306396
      3          1           0       -3.872681   -1.219701   -0.803507
      4          6           0       -2.043496   -0.977070    0.481937
      5          1           0       -1.821393   -1.488583    1.432678
      6          6           0       -0.717988   -0.990996   -0.335279
      7          1           0       -0.511112   -2.034192   -0.601135
      8          1           0       -0.873252   -0.455155   -1.275344
      9          6           0        0.499582   -0.415861    0.400264
     10          1           0        0.606307   -0.913408    1.374280
     11          1           0        0.334716    0.645094    0.605939
     12          6           0        1.799124   -0.590735   -0.396484
     13          1           0        1.706289   -0.071648   -1.360214
     14          1           0        1.921358   -1.654562   -0.636539
     15          6           0        3.077362   -0.101941    0.311675
     16          1           0        3.120729   -0.593325    1.293790
     17          6           0        4.324714   -0.524166   -0.477735
     18          1           0        4.328184   -0.067845   -1.473901
     19          1           0        5.241890   -0.213727    0.031821
     20          1           0        4.365423   -1.609530   -0.609560
     21          6           0       -2.531807    0.422415    0.889589
     22          1           0       -3.405380    0.321433    1.542125
     23          1           0       -1.763380    0.987125    1.425338
     24          6           0        3.078452    1.416144    0.543611
     25          1           0        3.997955    1.734099    1.044199
     26          1           0        3.017155    1.953194   -0.409754
     27          1           0        2.238412    1.739666    1.163004
     28          8           0       -3.043237    1.220078   -0.178916
     29          8           0       -1.910287    1.784124   -0.909419
     30          1           0       -2.151499    2.720586   -0.888436
 ---------------------------------------------------------------------
                    Distance matrix (angstroms):
                    1          2          3          4          5
     1  C    0.000000
     2  H    1.083623   0.000000
     3  H    1.082708   1.860121   0.000000
     4  C    1.494044   2.243191   2.248812   0.000000
     5  H    2.118980   2.512939   3.046408   1.102218   0.000000
     6  C    2.516061   2.967415   3.197441   1.557244   2.142608
     7  H    2.650894   2.680064   3.464751   2.153776   2.480105
     8  H    2.790731   3.359204   3.131092   2.174834   3.049644
     9  C    3.901971   4.349016   4.605639   2.605546   2.757451
    10  H    4.136113   4.457464   4.989780   2.796745   2.495589
    11  H    4.276510   4.931526   4.813127   2.881438   3.144023
    12  C    5.052217   5.343028   5.721070   3.960632   4.154529
    13  H    5.228814   5.597948   5.723011   4.274833   4.717255
    14  H    5.057115   5.123277   5.812733   4.174931   4.279882
    15  C    6.430219   6.736928   7.127139   5.197887   5.213178
    16  H    6.522195   6.758167   7.327945   5.241716   5.024475
    17  C    7.545446   7.731790   8.233297   6.456020   6.508027
    18  H    7.732892   7.966523   8.308453   6.726834   6.948669
    19  H    8.501717   8.704477   9.207886   7.339083   7.312840
    20  H    7.494677   7.526530   8.249602   6.531892   6.516292
    21  C    2.499907   3.492116   2.713128   1.537266   2.109869
    22  H    2.727977   3.658168   2.845251   2.159823   2.407727
    23  H    3.461248   4.374753   3.779812   2.196937   2.476398
    24  C    6.995251   7.502356   7.555174   5.653815   5.765098
    25  H    8.018781   8.503472   8.607315   6.645728   6.663438
    26  H    7.162221   7.723944   7.595534   5.915382   6.217068
    27  H    6.535174   7.138749   7.068980   5.116566   5.193874
    28  O    2.958674   4.038229   2.651530   2.502732   3.380382
    29  O    3.785322   4.779340   3.589592   3.094803   4.025411
    30  H    4.609566   5.640459   4.300644   3.944901   4.818054
                    6          7          8          9         10
     6  C    0.000000
     7  H    1.096237   0.000000
     8  H    1.093140   1.754725   0.000000
     9  C    1.534366   2.154831   2.166536   0.000000
    10  H    2.163878   2.531214   3.069136   1.098931   0.000000
    11  H    2.161219   3.057945   2.491779   1.093210   1.758704
    12  C    2.549472   2.731783   2.816446   1.534339   2.159290
    13  H    2.787976   3.056902   2.609274   2.161922   3.065286
    14  H    2.738106   2.462170   3.107490   2.151926   2.514371
    15  C    3.951411   4.176597   4.272089   2.598335   2.809577
    16  H    4.189004   4.342477   4.750939   2.774940   2.535991
    17  C    5.066268   5.067605   5.259258   3.926098   4.172292
    18  H    5.254762   5.295944   5.219614   4.276892   4.762298
    19  H    6.021549   6.067269   6.257949   4.760892   4.876513
    20  H    5.128244   4.894998   5.405513   4.170050   4.307106
    21  C    2.605374   3.512888   2.864938   3.182996   3.444867
    22  H    3.531174   4.303408   3.866897   4.134752   4.200790
    23  H    2.847030   3.847483   3.188445   2.853094   3.038100
    24  C    4.580363   5.108839   4.735644   3.166601   3.496902
    25  H    5.618649   6.102362   5.822523   4.156392   4.315266
    26  H    4.756584   5.327715   4.656679   3.550595   4.148780
    27  H    4.294376   4.991400   4.521641   2.872560   3.122052
    28  O    3.212488   4.144900   2.952523   3.945036   4.503704
    29  O    3.074493   4.078268   2.494737   3.516059   4.338802
    30  H    4.017061   5.037988   3.445133   4.304216   5.092277
                   11         12         13         14         15
    11  H    0.000000
    12  C    2.162548   0.000000
    13  H    2.502137   1.098565   0.000000
    14  H    3.057712   1.097404   1.753732   0.000000
    15  C    2.857754   1.540877   2.162400   2.155478   0.000000
    16  H    3.125490   2.145617   3.052298   2.508164   1.099040
    17  C    4.296697   2.527773   2.799945   2.660664   1.535360
    18  H    4.558706   2.798283   2.624361   3.001942   2.180367
    19  H    5.014732   3.489730   3.802423   3.680848   2.185405
    20  H    4.775706   2.769338   3.162207   2.444629   2.186458
    21  C    2.889117   4.630056   4.823605   5.145248   5.663189
    22  H    3.869046   5.628243   5.891285   6.084839   6.612049
    23  H    2.278246   4.301176   4.573719   4.980677   5.085184
    24  C    2.850700   2.558910   2.778652   3.487242   1.535701
    25  H    3.846729   3.509313   3.780695   4.315108   2.180625
    26  H    3.152497   2.820523   2.592630   3.777315   2.178914
    27  H    2.265495   2.838265   3.151292   3.854823   2.195476
    28  O    3.515277   5.174441   5.061820   5.755013   6.280935
    29  O    2.938322   4.434274   4.089832   5.155631   5.470371
    30  H    3.566804   5.178251   4.785569   5.982770   6.062006
                   16         17         18         19         20
    16  H    0.000000
    17  C    2.143050   0.000000
    18  H    3.064994   1.095713   0.000000
    19  H    2.497195   1.094181   1.767297   0.000000
    20  H    2.490919   1.094098   1.767842   1.768567   0.000000
    21  C    5.757280   7.055315   7.272270   7.846707   7.344932
    22  H    6.594585   8.034253   8.309992   8.794469   8.291185
    23  H    5.135139   6.555195   6.828301   7.242772   6.960291
    24  C    2.145349   2.522126   2.799001   2.756605   3.484365
    25  H    2.499745   2.742775   3.113982   2.523155   3.748307
    26  H    3.065542   2.802079   2.633592   3.136874   3.814545
    27  H    2.497686   3.488498   3.819360   3.757153   4.345489
    28  O    6.591796   7.577492   7.594312   8.410918   7.942316
    29  O    5.984774   6.662566   6.531994   7.485384   7.140822
    30  H    6.598523   7.255234   7.078447   8.007451   7.829301
                   21         22         23         24         25
    21  C    0.000000
    22  H    1.095048   0.000000
    23  H    1.093803   1.775655   0.000000
    24  C    5.708082   6.650977   4.940125   0.000000
    25  H    6.661998   7.553339   5.822046   1.094152   0.000000
    26  H    5.901064   6.908070   5.210985   1.095940   1.767470
    27  H    4.956299   5.831595   4.080377   1.092695   1.763558
    28  O    1.428121   1.975017   2.065413   6.167298   7.165097
    29  O    2.340292   3.222551   2.471412   5.209052   6.223058
    30  H    2.930460   3.638101   2.917032   5.577160   6.521044
                   26         27         28         29         30
    26  H    0.000000
    27  H    1.767937   0.000000
    28  O    6.108936   5.474170   0.000000
    29  O    4.955596   4.637738   1.461286   0.000000
    30  H    5.247191   4.943878   1.884181   0.967256   0.000000
 Stoichiometry    C9H19O2(2)
 Framework group  C1[X(C9H19O2)]
 Deg. of freedom    84
 Full point group                 C1      NOp   1
 Largest Abelian subgroup         C1      NOp   1
 Largest concise Abelian subgroup C1      NOp   1
                         Standard orientation:                         
 ---------------------------------------------------------------------
 Center     Atomic      Atomic             Coordinates (Angstroms)
 Number     Number       Type             X           Y           Z
 ---------------------------------------------------------------------
      1          6           0       -3.118267   -1.737293   -0.224530
      2          1           0       -3.057575   -2.816113   -0.306396
      3          1           0       -3.872681   -1.219701   -0.803507
      4          6           0       -2.043496   -0.977070    0.481937
      5          1           0       -1.821393   -1.488583    1.432678
      6          6           0       -0.717988   -0.990996   -0.335279
      7          1           0       -0.511112   -2.034192   -0.601135
      8          1           0       -0.873252   -0.455155   -1.275344
      9          6           0        0.499582   -0.415861    0.400264
     10          1           0        0.606307   -0.913408    1.374280
     11          1           0        0.334716    0.645094    0.605939
     12          6           0        1.799124   -0.590735   -0.396484
     13          1           0        1.706289   -0.071648   -1.360214
     14          1           0        1.921358   -1.654562   -0.636539
     15          6           0        3.077362   -0.101941    0.311675
     16          1           0        3.120729   -0.593325    1.293790
     17          6           0        4.324714   -0.524166   -0.477735
     18          1           0        4.328184   -0.067845   -1.473901
     19          1           0        5.241890   -0.213727    0.031821
     20          1           0        4.365423   -1.609530   -0.609560
     21          6           0       -2.531807    0.422415    0.889589
     22          1           0       -3.405380    0.321433    1.542125
     23          1           0       -1.763380    0.987125    1.425338
     24          6           0        3.078452    1.416144    0.543611
     25          1           0        3.997955    1.734099    1.044199
     26          1           0        3.017155    1.953194   -0.409754
     27          1           0        2.238412    1.739666    1.163004
     28          8           0       -3.043237    1.220078   -0.178916
     29          8           0       -1.910287    1.784124   -0.909419
     30          1           0       -2.151499    2.720586   -0.888436
 ---------------------------------------------------------------------
 Rotational constants (GHZ):      1.8567657      0.4315386      0.3822309
 Leave Link  202 at Fri Feb  7 02:27:51 2014, MaxMem= 4026531840 cpu:       0.2
 (Enter /usr/caen/gaussian-09revc/g09/l301.exe)
 Standard basis: 6-311++G(d,p) (5D, 7F)
 Ernie: Thresh=  0.10000D-02 Tol=  0.10000D-05 Strict=F.
 There are   375 symmetry adapted basis functions of A   symmetry.
 Integral buffers will be    131072 words long.
 Raffenetti 2 integral format.
 Two-electron integral symmetry is turned on.
   375 basis functions,   567 primitive gaussians,   386 cartesian basis functions
    45 alpha electrons       44 beta electrons
       nuclear repulsion energy       648.5688299374 Hartrees.
 IExCor=  402 DFT=T Ex+Corr=B3LYP ExCW=0 ScaHFX=  0.200000
 ScaDFX=  0.800000  0.720000  1.000000  0.810000 ScalE2=  1.000000  1.000000
 IRadAn=      0 IRanWt=     -1 IRanGd=            0 ICorTp=0
 NAtoms=   30 NActive=   30 NUniq=   30 SFac= 1.00D+00 NAtFMM=   60 NAOKFM=F Big=F
 Leave Link  301 at Fri Feb  7 02:27:51 2014, MaxMem= 4026531840 cpu:       0.6
 (Enter /usr/caen/gaussian-09revc/g09/l302.exe)
 NPDir=0 NMtPBC=     1 NCelOv=     1 NCel=       1 NClECP=     1 NCelD=      1
         NCelK=      1 NCelE2=     1 NClLst=     1 CellRange=     0.0.
 One-electron integrals computed using PRISM.
 NBasis=   375 RedAO= T  NBF=   375
 NBsUse=   375 1.00D-06 NBFU=   375
 Precomputing XC quadrature grid using
 IXCGrd= 2 IRadAn=           0 IRanWt=          -1 IRanGd=           0 AccXCQ= 0.00D+00.
 NRdTot=    1960 NPtTot=      249684 NUsed=      263807 NTot=      263839
 NSgBfM=   386   386   386   386   386 NAtAll=    30    30.
 Leave Link  302 at Fri Feb  7 02:27:52 2014, MaxMem= 4026531840 cpu:       6.2
 (Enter /usr/caen/gaussian-09revc/g09/l303.exe)
 DipDrv:  MaxL=1.
 Leave Link  303 at Fri Feb  7 02:27:53 2014, MaxMem= 4026531840 cpu:       1.6
 (Enter /usr/caen/gaussian-09revc/g09/l401.exe)
 Harris functional with IExCor=  402 diagonalized for initial guess.
 ExpMin= 3.60D-02 ExpMax= 8.59D+03 ExpMxC= 1.30D+03 IAcc=3 IRadAn=         5 AccDes= 0.00D+00
 HarFok:  IExCor=  402 AccDes= 0.00D+00 IRadAn=         5 IDoV= 1
 ScaDFX=  1.000000  1.000000  1.000000  1.000000
 FoFCou: FMM=F IPFlag=           0 FMFlag=      100000 FMFlg1=           0
         NFxFlg=           0 DoJE=T BraDBF=F KetDBF=T FulRan=T
         Omega=  0.000000  0.000000  1.000000  0.000000  0.000000 ICntrl=     500 IOpCl=  0
         NMat0=    1 NMatS0=    1 NMatT0=    0 NMatD0=    1 NMtDS0=    0 NMtDT0=    0
         I1Cent=           4 NGrid=           0.
 Petite list used in FoFCou.
 Harris En= -504.891176027964    
 Mixing orbitals, IMix= 1 IMixAn=  0 NRI=1 NE=   45 Coef=  7.07106781D-01  7.07106781D-01
 Mixing orbitals, IMix= 1 IMixAn=  0 NRI=1 NE=   44 Coef= -7.07106781D-01  7.07106781D-01
 Initial guess orbital symmetries:
 Alpha Orbitals:
       Occupied  (A) (A) (A) (A) (A) (A) (A) (A) (A) (A) (A) (A)
                 (A) (A) (A) (A) (A) (A) (A) (A) (A) (A) (A) (A)
                 (A) (A) (A) (A) (A) (A) (A) (A) (A) (A) (A) (A)
                 (A) (A) (A) (A) (A) (A) (A) (A) (A)
       Virtual   (A) (A) (A) (A) (A) (A) (A) (A) (A) (A) (A) (A)
                 (A) (A) (A) (A) (A) (A) (A) (A) (A) (A) (A) (A)
                 (A) (A) (A) (A) (A) (A) (A) (A) (A) (A) (A) (A)
                 (A) (A) (A) (A) (A) (A) (A) (A) (A) (A) (A) (A)
                 (A) (A) (A) (A) (A) (A) (A) (A) (A) (A) (A) (A)
                 (A) (A) (A) (A) (A) (A) (A) (A) (A) (A) (A) (A)
                 (A) (A) (A) (A) (A) (A) (A) (A) (A) (A) (A) (A)
                 (A) (A) (A) (A) (A) (A) (A) (A) (A) (A) (A) (A)
                 (A) (A) (A) (A) (A) (A) (A) (A) (A) (A) (A) (A)
                 (A) (A) (A) (A) (A) (A) (A) (A) (A) (A) (A) (A)
                 (A) (A) (A) (A) (A) (A) (A) (A) (A) (A) (A) (A)
                 (A) (A) (A) (A) (A) (A) (A) (A) (A) (A) (A) (A)
                 (A) (A) (A) (A) (A) (A) (A) (A) (A) (A) (A) (A)
                 (A) (A) (A) (A) (A) (A) (A) (A) (A) (A) (A) (A)
                 (A) (A) (A) (A) (A) (A) (A) (A) (A) (A) (A) (A)
                 (A) (A) (A) (A) (A) (A) (A) (A) (A) (A) (A) (A)
                 (A) (A) (A) (A) (A) (A) (A) (A) (A) (A) (A) (A)
                 (A) (A) (A) (A) (A) (A) (A) (A) (A) (A) (A) (A)
                 (A) (A) (A) (A) (A) (A) (A) (A) (A) (A) (A) (A)
                 (A) (A) (A) (A) (A) (A) (A) (A) (A) (A) (A) (A)
                 (A) (A) (A) (A) (A) (A) (A) (A) (A) (A) (A) (A)
                 (A) (A) (A) (A) (A) (A) (A) (A) (A) (A) (A) (A)
                 (A) (A) (A) (A) (A) (A) (A) (A) (A) (A) (A) (A)
                 (A) (A) (A) (A) (A) (A) (A) (A) (A) (A) (A) (A)
                 (A) (A) (A) (A) (A) (A) (A) (A) (A) (A) (A) (A)
                 (A) (A) (A) (A) (A) (A) (A) (A) (A) (A) (A) (A)
                 (A) (A) (A) (A) (A) (A) (A) (A) (A) (A) (A) (A)
                 (A) (A) (A) (A) (A) (A)
 Beta  Orbitals:
       Occupied  (A) (A) (A) (A) (A) (A) (A) (A) (A) (A) (A) (A)
                 (A) (A) (A) (A) (A) (A) (A) (A) (A) (A) (A) (A)
                 (A) (A) (A) (A) (A) (A) (A) (A) (A) (A) (A) (A)
                 (A) (A) (A) (A) (A) (A) (A) (A)
       Virtual   (A) (A) (A) (A) (A) (A) (A) (A) (A) (A) (A) (A)
                 (A) (A) (A) (A) (A) (A) (A) (A) (A) (A) (A) (A)
                 (A) (A) (A) (A) (A) (A) (A) (A) (A) (A) (A) (A)
                 (A) (A) (A) (A) (A) (A) (A) (A) (A) (A) (A) (A)
                 (A) (A) (A) (A) (A) (A) (A) (A) (A) (A) (A) (A)
                 (A) (A) (A) (A) (A) (A) (A) (A) (A) (A) (A) (A)
                 (A) (A) (A) (A) (A) (A) (A) (A) (A) (A) (A) (A)
                 (A) (A) (A) (A) (A) (A) (A) (A) (A) (A) (A) (A)
                 (A) (A) (A) (A) (A) (A) (A) (A) (A) (A) (A) (A)
                 (A) (A) (A) (A) (A) (A) (A) (A) (A) (A) (A) (A)
                 (A) (A) (A) (A) (A) (A) (A) (A) (A) (A) (A) (A)
                 (A) (A) (A) (A) (A) (A) (A) (A) (A) (A) (A) (A)
                 (A) (A) (A) (A) (A) (A) (A) (A) (A) (A) (A) (A)
                 (A) (A) (A) (A) (A) (A) (A) (A) (A) (A) (A) (A)
                 (A) (A) (A) (A) (A) (A) (A) (A) (A) (A) (A) (A)
                 (A) (A) (A) (A) (A) (A) (A) (A) (A) (A) (A) (A)
                 (A) (A) (A) (A) (A) (A) (A) (A) (A) (A) (A) (A)
                 (A) (A) (A) (A) (A) (A) (A) (A) (A) (A) (A) (A)
                 (A) (A) (A) (A) (A) (A) (A) (A) (A) (A) (A) (A)
                 (A) (A) (A) (A) (A) (A) (A) (A) (A) (A) (A) (A)
                 (A) (A) (A) (A) (A) (A) (A) (A) (A) (A) (A) (A)
                 (A) (A) (A) (A) (A) (A) (A) (A) (A) (A) (A) (A)
                 (A) (A) (A) (A) (A) (A) (A) (A) (A) (A) (A) (A)
                 (A) (A) (A) (A) (A) (A) (A) (A) (A) (A) (A) (A)
                 (A) (A) (A) (A) (A) (A) (A) (A) (A) (A) (A) (A)
                 (A) (A) (A) (A) (A) (A) (A) (A) (A) (A) (A) (A)
                 (A) (A) (A) (A) (A) (A) (A) (A) (A) (A) (A) (A)
                 (A) (A) (A) (A) (A) (A) (A)
 The electronic state of the initial guess is 2-A.
 Initial guess <Sx>= 0.0000 <Sy>= 0.0000 <Sz>= 0.5000 <S**2>= 1.0000 S= 0.6180
 Leave Link  401 at Fri Feb  7 02:27:58 2014, MaxMem= 4026531840 cpu:      37.7
 (Enter /usr/caen/gaussian-09revc/g09/l502.exe)
 UHF open shell SCF:
 Requested convergence on RMS density matrix=1.00D-08 within 128 cycles.
 Requested convergence on MAX density matrix=1.00D-06.
 Requested convergence on             energy=1.00D-06.
 No special actions if energy rises.
 Using DIIS extrapolation, IDIIS=  1040.
 Integral symmetry usage will be decided dynamically.
       263524 words used for storage of precomputed grid.
 IEnd=      734658 IEndB=      734658 NGot=  4026531840 MDV=  4025963205
 LenX=  4025963205 LenY=  4025813768
 Fock matrices will be formed incrementally for  20 cycles.

 Cycle   1  Pass 1  IDiag  1:
 FoFCou: FMM=F IPFlag=           0 FMFlag=      100000 FMFlg1=           0
         NFxFlg=           0 DoJE=F BraDBF=F KetDBF=F FulRan=T
         Omega=  0.000000  0.000000  1.000000  0.000000  0.000000 ICntrl=       0 IOpCl=  1
         NMat0=    1 NMatS0=    1 NMatT0=    0 NMatD0=    1 NMtDS0=    0 NMtDT0=    0
         I1Cent=           0 NGrid=           0.
 Symmetry not used in FoFCou.
 E= -504.354000778121    
 DIIS: error= 3.44D-02 at cycle   1 NSaved=   1.
 NSaved= 1 IEnMin= 1 EnMin= -504.354000778121     IErMin= 1 ErrMin= 3.44D-02
 ErrMax= 3.44D-02 EMaxC= 1.00D-01 BMatC= 1.48D+00 BMatP= 1.48D+00
 IDIUse=3 WtCom= 6.56D-01 WtEn= 3.44D-01
 Coeff-Com:  0.100D+01
 Coeff-En:   0.100D+01
 Coeff:      0.100D+01
 Gap=     0.039 Goal=   None    Shift=    0.000
 Gap=     0.019 Goal=   None    Shift=    0.000
 GapD=    0.019 DampG=0.250 DampE=0.500 DampFc=0.2500 IDamp=-1.
 Damping current iteration by 2.50D-01
 RMSDP=1.85D-02 MaxDP=1.65D+00              OVMax= 6.03D-01

 Cycle   2  Pass 1  IDiag  1:
 RMSU=  3.39D-03    CP:  9.07D-01
 E= -504.497225179760     Delta-E=       -0.143224401639 Rises=F Damp=T
 DIIS: error= 1.51D-02 at cycle   2 NSaved=   2.
 NSaved= 2 IEnMin= 2 EnMin= -504.497225179760     IErMin= 2 ErrMin= 1.51D-02
 ErrMax= 1.51D-02 EMaxC= 1.00D-01 BMatC= 3.57D-01 BMatP= 1.48D+00
 IDIUse=3 WtCom= 8.49D-01 WtEn= 1.51D-01
 Coeff-Com: -0.720D+00 0.172D+01
 Coeff-En:   0.000D+00 0.100D+01
 Coeff:     -0.611D+00 0.161D+01
 Gap=     0.074 Goal=   None    Shift=    0.000
 Gap=     0.181 Goal=   None    Shift=    0.000
 RMSDP=7.24D-03 MaxDP=9.01D-01 DE=-1.43D-01 OVMax= 5.62D-01

 Cycle   3  Pass 1  IDiag  1:
 RMSU=  4.82D-03    CP:  7.39D-01  7.48D-01
 E= -504.794528237321     Delta-E=       -0.297303057561 Rises=F Damp=F
 DIIS: error= 1.16D-02 at cycle   3 NSaved=   3.
 NSaved= 3 IEnMin= 3 EnMin= -504.794528237321     IErMin= 3 ErrMin= 1.16D-02
 ErrMax= 1.16D-02 EMaxC= 1.00D-01 BMatC= 1.57D-01 BMatP= 3.57D-01
 IDIUse=3 WtCom= 8.84D-01 WtEn= 1.16D-01
 Coeff-Com: -0.420D+00 0.965D+00 0.456D+00
 Coeff-En:   0.000D+00 0.000D+00 0.100D+01
 Coeff:     -0.372D+00 0.853D+00 0.519D+00
 Gap=     0.121 Goal=   None    Shift=    0.000
 Gap=     0.158 Goal=   None    Shift=    0.000
 RMSDP=1.78D-03 MaxDP=2.69D-01 DE=-2.97D-01 OVMax= 2.37D-01

 Cycle   4  Pass 1  IDiag  1:
 RMSU=  1.10D-03    CP:  7.34D-01  6.99D-01  8.77D-01
 E= -504.831294260781     Delta-E=       -0.036766023460 Rises=F Damp=F
 DIIS: error= 6.79D-03 at cycle   4 NSaved=   4.
 NSaved= 4 IEnMin= 4 EnMin= -504.831294260781     IErMin= 4 ErrMin= 6.79D-03
 ErrMax= 6.79D-03 EMaxC= 1.00D-01 BMatC= 4.67D-02 BMatP= 1.57D-01
 IDIUse=3 WtCom= 9.32D-01 WtEn= 6.79D-02
 Coeff-Com: -0.912D-01 0.190D+00 0.334D+00 0.567D+00
 Coeff-En:   0.000D+00 0.000D+00 0.681D-01 0.932D+00
 Coeff:     -0.850D-01 0.177D+00 0.316D+00 0.592D+00
 Gap=     0.171 Goal=   None    Shift=    0.000
 Gap=     0.190 Goal=   None    Shift=    0.000
 RMSDP=1.33D-03 MaxDP=1.33D-01 DE=-3.68D-02 OVMax= 6.53D-02

 Cycle   5  Pass 1  IDiag  1:
 RMSU=  7.15D-04    CP:  6.98D-01  6.95D-01  9.37D-01  9.03D-01
 E= -504.841792564959     Delta-E=       -0.010498304178 Rises=F Damp=F
 DIIS: error= 2.02D-03 at cycle   5 NSaved=   5.
 NSaved= 5 IEnMin= 5 EnMin= -504.841792564959     IErMin= 5 ErrMin= 2.02D-03
 ErrMax= 2.02D-03 EMaxC= 1.00D-01 BMatC= 5.31D-03 BMatP= 4.67D-02
 IDIUse=3 WtCom= 9.80D-01 WtEn= 2.02D-02
 Coeff-Com: -0.296D-01 0.491D-01 0.734D-01 0.252D+00 0.655D+00
 Coeff-En:   0.000D+00 0.000D+00 0.000D+00 0.000D+00 0.100D+01
 Coeff:     -0.290D-01 0.481D-01 0.719D-01 0.247D+00 0.662D+00
 Gap=     0.188 Goal=   None    Shift=    0.000
 Gap=     0.195 Goal=   None    Shift=    0.000
 RMSDP=5.05D-04 MaxDP=4.27D-02 DE=-1.05D-02 OVMax= 2.25D-02

 Cycle   6  Pass 1  IDiag  1:
 RMSU=  3.49D-04    CP:  7.05D-01  6.74D-01  9.32D-01  9.64D-01  9.26D-01
 E= -504.842815638609     Delta-E=       -0.001023073650 Rises=F Damp=F
 DIIS: error= 1.34D-03 at cycle   6 NSaved=   6.
 NSaved= 6 IEnMin= 6 EnMin= -504.842815638609     IErMin= 6 ErrMin= 1.34D-03
 ErrMax= 1.34D-03 EMaxC= 1.00D-01 BMatC= 2.24D-03 BMatP= 5.31D-03
 IDIUse=3 WtCom= 9.87D-01 WtEn= 1.34D-02
 Coeff-Com:  0.110D-01-0.263D-01-0.537D-01-0.232D-01 0.440D+00 0.652D+00
 Coeff-En:   0.000D+00 0.000D+00 0.000D+00 0.000D+00 0.121D+00 0.879D+00
 Coeff:      0.109D-01-0.260D-01-0.530D-01-0.229D-01 0.436D+00 0.655D+00
 Gap=     0.189 Goal=   None    Shift=    0.000
 Gap=     0.207 Goal=   None    Shift=    0.000
 RMSDP=2.54D-04 MaxDP=2.54D-02 DE=-1.02D-03 OVMax= 1.33D-02

 Cycle   7  Pass 1  IDiag  1:
 RMSU=  1.37D-04    CP:  7.01D-01  6.46D-01  9.29D-01  9.88D-01  1.01D+00
                    CP:  9.52D-01
 E= -504.843322513681     Delta-E=       -0.000506875072 Rises=F Damp=F
 DIIS: error= 4.03D-04 at cycle   7 NSaved=   7.
 NSaved= 7 IEnMin= 7 EnMin= -504.843322513681     IErMin= 7 ErrMin= 4.03D-04
 ErrMax= 4.03D-04 EMaxC= 1.00D-01 BMatC= 1.26D-04 BMatP= 2.24D-03
 IDIUse=3 WtCom= 9.96D-01 WtEn= 4.03D-03
 Coeff-Com: -0.143D-02 0.295D-02-0.228D-01-0.274D-01 0.626D-01 0.215D+00
 Coeff-Com:  0.771D+00
 Coeff-En:   0.000D+00 0.000D+00 0.000D+00 0.000D+00 0.000D+00 0.000D+00
 Coeff-En:   0.100D+01
 Coeff:     -0.142D-02 0.294D-02-0.227D-01-0.273D-01 0.623D-01 0.214D+00
 Coeff:      0.772D+00
 Gap=     0.188 Goal=   None    Shift=    0.000
 Gap=     0.206 Goal=   None    Shift=    0.000
 RMSDP=9.23D-05 MaxDP=9.01D-03 DE=-5.07D-04 OVMax= 1.70D-03

 Cycle   8  Pass 1  IDiag  1:
 RMSU=  4.81D-05    CP:  7.02D-01  6.55D-01  9.31D-01  9.90D-01  1.02D+00
                    CP:  1.02D+00  7.86D-01
 E= -504.843347420981     Delta-E=       -0.000024907300 Rises=F Damp=F
 DIIS: error= 1.27D-04 at cycle   8 NSaved=   8.
 NSaved= 8 IEnMin= 8 EnMin= -504.843347420981     IErMin= 8 ErrMin= 1.27D-04
 ErrMax= 1.27D-04 EMaxC= 1.00D-01 BMatC= 3.19D-05 BMatP= 1.26D-04
 IDIUse=3 WtCom= 9.99D-01 WtEn= 1.27D-03
 Coeff-Com: -0.193D-02 0.415D-02-0.406D-02-0.623D-02-0.176D-01 0.144D-01
 Coeff-Com:  0.379D+00 0.633D+00
 Coeff-En:   0.000D+00 0.000D+00 0.000D+00 0.000D+00 0.000D+00 0.000D+00
 Coeff-En:   0.158D-01 0.984D+00
 Coeff:     -0.192D-02 0.415D-02-0.405D-02-0.622D-02-0.175D-01 0.144D-01
 Coeff:      0.378D+00 0.633D+00
 Gap=     0.188 Goal=   None    Shift=    0.000
 Gap=     0.206 Goal=   None    Shift=    0.000
 RMSDP=3.43D-05 MaxDP=4.11D-03 DE=-2.49D-05 OVMax= 6.33D-04

 Cycle   9  Pass 1  IDiag  1:
 RMSU=  1.58D-05    CP:  7.02D-01  6.54D-01  9.29D-01  9.93D-01  1.03D+00
                    CP:  1.00D+00  8.34D-01  8.50D-01
 E= -504.843355193689     Delta-E=       -0.000007772708 Rises=F Damp=F
 DIIS: error= 3.21D-05 at cycle   9 NSaved=   9.
 NSaved= 9 IEnMin= 9 EnMin= -504.843355193689     IErMin= 9 ErrMin= 3.21D-05
 ErrMax= 3.21D-05 EMaxC= 1.00D-01 BMatC= 2.47D-06 BMatP= 3.19D-05
 IDIUse=1 WtCom= 1.00D+00 WtEn= 0.00D+00
 Coeff-Com: -0.340D-03 0.666D-03 0.253D-02 0.239D-02-0.172D-01-0.362D-01
 Coeff-Com: -0.138D-01 0.204D+00 0.858D+00
 Coeff:     -0.340D-03 0.666D-03 0.253D-02 0.239D-02-0.172D-01-0.362D-01
 Coeff:     -0.138D-01 0.204D+00 0.858D+00
 Gap=     0.188 Goal=   None    Shift=    0.000
 Gap=     0.206 Goal=   None    Shift=    0.000
 RMSDP=1.16D-05 MaxDP=8.41D-04 DE=-7.77D-06 OVMax= 3.96D-04

 Cycle  10  Pass 1  IDiag  1:
 RMSU=  5.79D-06    CP:  7.02D-01  6.53D-01  9.29D-01  9.93D-01  1.02D+00
                    CP:  1.00D+00  8.68D-01  8.83D-01  9.81D-01
 E= -504.843356070091     Delta-E=       -0.000000876403 Rises=F Damp=F
 DIIS: error= 1.01D-05 at cycle  10 NSaved=  10.
 NSaved=10 IEnMin=10 EnMin= -504.843356070091     IErMin=10 ErrMin= 1.01D-05
 ErrMax= 1.01D-05 EMaxC= 1.00D-01 BMatC= 2.29D-07 BMatP= 2.47D-06
 IDIUse=1 WtCom= 1.00D+00 WtEn= 0.00D+00
 Coeff-Com:  0.401D-04-0.570D-04 0.980D-03 0.337D-03-0.367D-02-0.881D-02
 Coeff-Com: -0.357D-01 0.363D-02 0.219D+00 0.824D+00
 Coeff:      0.401D-04-0.570D-04 0.980D-03 0.337D-03-0.367D-02-0.881D-02
 Coeff:     -0.357D-01 0.363D-02 0.219D+00 0.824D+00
 Gap=     0.188 Goal=   None    Shift=    0.000
 Gap=     0.206 Goal=   None    Shift=    0.000
 RMSDP=5.42D-06 MaxDP=3.52D-04 DE=-8.76D-07 OVMax= 1.71D-04

 Cycle  11  Pass 1  IDiag  1:
 RMSU=  2.56D-06    CP:  7.02D-01  6.53D-01  9.29D-01  9.92D-01  1.03D+00
                    CP:  1.00D+00  8.58D-01  9.11D-01  9.98D-01  7.80D-01
 E= -504.843356166978     Delta-E=       -0.000000096887 Rises=F Damp=F
 DIIS: error= 3.53D-06 at cycle  11 NSaved=  11.
 NSaved=11 IEnMin=11 EnMin= -504.843356166978     IErMin=11 ErrMin= 3.53D-06
 ErrMax= 3.53D-06 EMaxC= 1.00D-01 BMatC= 4.09D-08 BMatP= 2.29D-07
 IDIUse=1 WtCom= 1.00D+00 WtEn= 0.00D+00
 Coeff-Com:  0.634D-04-0.101D-03 0.128D-03-0.164D-03 0.415D-03 0.108D-02
 Coeff-Com: -0.110D-01-0.239D-01-0.334D-01 0.290D+00 0.777D+00
 Coeff:      0.634D-04-0.101D-03 0.128D-03-0.164D-03 0.415D-03 0.108D-02
 Coeff:     -0.110D-01-0.239D-01-0.334D-01 0.290D+00 0.777D+00
 Gap=     0.188 Goal=   None    Shift=    0.000
 Gap=     0.206 Goal=   None    Shift=    0.000
 RMSDP=1.75D-06 MaxDP=1.72D-04 DE=-9.69D-08 OVMax= 8.91D-05

 Cycle  12  Pass 1  IDiag  1:
 RMSU=  6.77D-07    CP:  7.02D-01  6.53D-01  9.29D-01  9.92D-01  1.03D+00
                    CP:  1.00D+00  8.60D-01  9.12D-01  9.95D-01  9.02D-01
                    CP:  8.96D-01
 E= -504.843356185232     Delta-E=       -0.000000018254 Rises=F Damp=F
 DIIS: error= 1.83D-06 at cycle  12 NSaved=  12.
 NSaved=12 IEnMin=12 EnMin= -504.843356185232     IErMin=12 ErrMin= 1.83D-06
 ErrMax= 1.83D-06 EMaxC= 1.00D-01 BMatC= 7.12D-09 BMatP= 4.09D-08
 IDIUse=1 WtCom= 1.00D+00 WtEn= 0.00D+00
 Coeff-Com:  0.147D-04-0.262D-04-0.119D-03-0.829D-04 0.773D-03 0.160D-02
 Coeff-Com:  0.119D-02-0.985D-02-0.431D-01-0.273D-01 0.275D+00 0.802D+00
 Coeff:      0.147D-04-0.262D-04-0.119D-03-0.829D-04 0.773D-03 0.160D-02
 Coeff:      0.119D-02-0.985D-02-0.431D-01-0.273D-01 0.275D+00 0.802D+00
 Gap=     0.188 Goal=   None    Shift=    0.000
 Gap=     0.206 Goal=   None    Shift=    0.000
 RMSDP=7.06D-07 MaxDP=7.75D-05 DE=-1.83D-08 OVMax= 5.13D-05

 Cycle  13  Pass 1  IDiag  1:
 RMSU=  3.09D-07    CP:  7.02D-01  6.53D-01  9.29D-01  9.93D-01  1.03D+00
                    CP:  1.00D+00  8.61D-01  9.08D-01  1.01D+00  9.12D-01
                    CP:  9.50D-01  1.15D+00
 E= -504.843356189166     Delta-E=       -0.000000003934 Rises=F Damp=F
 DIIS: error= 9.27D-07 at cycle  13 NSaved=  13.
 NSaved=13 IEnMin=13 EnMin= -504.843356189166     IErMin=13 ErrMin= 9.27D-07
 ErrMax= 9.27D-07 EMaxC= 1.00D-01 BMatC= 1.50D-09 BMatP= 7.12D-09
 IDIUse=1 WtCom= 1.00D+00 WtEn= 0.00D+00
 Coeff-Com: -0.640D-05 0.678D-05-0.646D-04 0.242D-04 0.273D-03 0.392D-03
 Coeff-Com:  0.206D-02-0.212D-03-0.103D-01-0.566D-01-0.265D-01 0.310D+00
 Coeff-Com:  0.781D+00
 Coeff:     -0.640D-05 0.678D-05-0.646D-04 0.242D-04 0.273D-03 0.392D-03
 Coeff:      0.206D-02-0.212D-03-0.103D-01-0.566D-01-0.265D-01 0.310D+00
 Coeff:      0.781D+00
 Gap=     0.188 Goal=   None    Shift=    0.000
 Gap=     0.206 Goal=   None    Shift=    0.000
 RMSDP=3.30D-07 MaxDP=2.21D-05 DE=-3.93D-09 OVMax= 2.74D-05

 Cycle  14  Pass 1  IDiag  1:
 RMSU=  1.35D-07    CP:  7.02D-01  6.53D-01  9.29D-01  9.93D-01  1.03D+00
                    CP:  1.00D+00  8.60D-01  9.09D-01  1.00D+00  9.06D-01
                    CP:  1.01D+00  1.25D+00  1.09D+00
 E= -504.843356190136     Delta-E=       -0.000000000970 Rises=F Damp=F
 DIIS: error= 4.72D-07 at cycle  14 NSaved=  14.
 NSaved=14 IEnMin=14 EnMin= -504.843356190136     IErMin=14 ErrMin= 4.72D-07
 ErrMax= 4.72D-07 EMaxC= 1.00D-01 BMatC= 2.11D-10 BMatP= 1.50D-09
 IDIUse=1 WtCom= 1.00D+00 WtEn= 0.00D+00
 Coeff-Com: -0.303D-05 0.371D-05 0.988D-05 0.209D-04-0.950D-04-0.235D-03
 Coeff-Com:  0.139D-03 0.205D-02 0.709D-02-0.231D-02-0.665D-01-0.137D+00
 Coeff-Com:  0.124D+00 0.107D+01
 Coeff:     -0.303D-05 0.371D-05 0.988D-05 0.209D-04-0.950D-04-0.235D-03
 Coeff:      0.139D-03 0.205D-02 0.709D-02-0.231D-02-0.665D-01-0.137D+00
 Coeff:      0.124D+00 0.107D+01
 Gap=     0.188 Goal=   None    Shift=    0.000
 Gap=     0.206 Goal=   None    Shift=    0.000
 RMSDP=1.78D-07 MaxDP=1.31D-05 DE=-9.70D-10 OVMax= 1.97D-05

 Cycle  15  Pass 1  IDiag  1:
 RMSU=  6.99D-08    CP:  7.02D-01  6.53D-01  9.29D-01  9.93D-01  1.03D+00
                    CP:  1.00D+00  8.60D-01  9.09D-01  1.00D+00  9.10D-01
                    CP:  1.02D+00  1.35D+00  1.25D+00  1.22D+00
 E= -504.843356190395     Delta-E=       -0.000000000259 Rises=F Damp=F
 DIIS: error= 1.42D-07 at cycle  15 NSaved=  15.
 NSaved=15 IEnMin=15 EnMin= -504.843356190395     IErMin=15 ErrMin= 1.42D-07
 ErrMax= 1.42D-07 EMaxC= 1.00D-01 BMatC= 5.34D-11 BMatP= 2.11D-10
 IDIUse=1 WtCom= 1.00D+00 WtEn= 0.00D+00
 Coeff-Com: -0.685D-06 0.156D-05 0.134D-04 0.983D-06-0.822D-04-0.135D-03
 Coeff-Com: -0.196D-03 0.944D-03 0.418D-02 0.704D-02-0.235D-01-0.103D+00
 Coeff-Com: -0.600D-01 0.438D+00 0.737D+00
 Coeff:     -0.685D-06 0.156D-05 0.134D-04 0.983D-06-0.822D-04-0.135D-03
 Coeff:     -0.196D-03 0.944D-03 0.418D-02 0.704D-02-0.235D-01-0.103D+00
 Coeff:     -0.600D-01 0.438D+00 0.737D+00
 Gap=     0.188 Goal=   None    Shift=    0.000
 Gap=     0.206 Goal=   None    Shift=    0.000
 RMSDP=5.84D-08 MaxDP=4.78D-06 DE=-2.59D-10 OVMax= 5.56D-06

 Cycle  16  Pass 1  IDiag  1:
 RMSU=  2.23D-08    CP:  7.02D-01  6.53D-01  9.29D-01  9.93D-01  1.03D+00
                    CP:  1.00D+00  8.60D-01  9.09D-01  1.00D+00  9.11D-01
                    CP:  1.03D+00  1.37D+00  1.30D+00  1.35D+00  9.05D-01
 E= -504.843356190410     Delta-E=       -0.000000000015 Rises=F Damp=F
 DIIS: error= 5.48D-08 at cycle  16 NSaved=  16.
 NSaved=16 IEnMin=16 EnMin= -504.843356190410     IErMin=16 ErrMin= 5.48D-08
 ErrMax= 5.48D-08 EMaxC= 1.00D-01 BMatC= 1.05D-11 BMatP= 5.34D-11
 IDIUse=1 WtCom= 1.00D+00 WtEn= 0.00D+00
 Coeff-Com:  0.785D-09 0.607D-06 0.456D-05-0.503D-05-0.252D-04-0.183D-04
 Coeff-Com: -0.102D-03 0.858D-04 0.568D-03 0.326D-02 0.184D-02-0.194D-01
 Coeff-Com: -0.465D-01-0.159D-01 0.326D+00 0.751D+00
 Coeff:      0.785D-09 0.607D-06 0.456D-05-0.503D-05-0.252D-04-0.183D-04
 Coeff:     -0.102D-03 0.858D-04 0.568D-03 0.326D-02 0.184D-02-0.194D-01
 Coeff:     -0.465D-01-0.159D-01 0.326D+00 0.751D+00
 Gap=     0.188 Goal=   None    Shift=    0.000
 Gap=     0.206 Goal=   None    Shift=    0.000
 RMSDP=2.10D-08 MaxDP=1.67D-06 DE=-1.52D-11 OVMax= 1.96D-06

 Cycle  17  Pass 1  IDiag  1:
 RMSU=  8.42D-09    CP:  7.02D-01  6.53D-01  9.29D-01  9.93D-01  1.03D+00
                    CP:  1.00D+00  8.60D-01  9.09D-01  1.00D+00  9.11D-01
                    CP:  1.03D+00  1.37D+00  1.32D+00  1.37D+00  9.43D-01
                    CP:  1.07D+00
 E= -504.843356190429     Delta-E=       -0.000000000019 Rises=F Damp=F
 DIIS: error= 1.62D-08 at cycle  17 NSaved=  17.
 NSaved=17 IEnMin=17 EnMin= -504.843356190429     IErMin=17 ErrMin= 1.62D-08
 ErrMax= 1.62D-08 EMaxC= 1.00D-01 BMatC= 8.70D-13 BMatP= 1.05D-11
 IDIUse=1 WtCom= 1.00D+00 WtEn= 0.00D+00
 Coeff-Com: -0.385D-07 0.179D-06-0.105D-06-0.111D-05 0.200D-05 0.581D-05
 Coeff-Com: -0.360D-05-0.871D-04-0.311D-03-0.155D-03 0.339D-02 0.857D-02
 Coeff-Com: -0.444D-02-0.640D-01-0.106D-01 0.217D+00 0.851D+00
 Coeff:     -0.385D-07 0.179D-06-0.105D-06-0.111D-05 0.200D-05 0.581D-05
 Coeff:     -0.360D-05-0.871D-04-0.311D-03-0.155D-03 0.339D-02 0.857D-02
 Coeff:     -0.444D-02-0.640D-01-0.106D-01 0.217D+00 0.851D+00
 Gap=     0.188 Goal=   None    Shift=    0.000
 Gap=     0.206 Goal=   None    Shift=    0.000
 RMSDP=8.46D-09 MaxDP=6.88D-07 DE=-1.86D-11 OVMax= 5.26D-07

 SCF Done:  E(UB3LYP) =  -504.843356190     A.U. after   17 cycles
             Convg  =    0.8464D-08             -V/T =  2.0045
 <Sx>= 0.0000 <Sy>= 0.0000 <Sz>= 0.5000 <S**2>= 0.7538 S= 0.5019
 <L.S>= 0.000000000000E+00
 KE= 5.025975576989D+02 PE=-2.473353887945D+03 EE= 8.173441441178D+02
 Annihilation of the first spin contaminant:
 S**2 before annihilation     0.7538,   after     0.7500
 Leave Link  502 at Fri Feb  7 02:31:34 2014, MaxMem= 4026531840 cpu:    1718.8
 (Enter /usr/caen/gaussian-09revc/g09/l601.exe)
 Copying SCF densities to generalized density rwf, IOpCl= 1 IROHF=0.

 **********************************************************************

            Population analysis using the SCF density.

 **********************************************************************

 Orbital symmetries:
 Alpha Orbitals:
       Occupied  (A) (A) (A) (A) (A) (A) (A) (A) (A) (A) (A) (A)
                 (A) (A) (A) (A) (A) (A) (A) (A) (A) (A) (A) (A)
                 (A) (A) (A) (A) (A) (A) (A) (A) (A) (A) (A) (A)
                 (A) (A) (A) (A) (A) (A) (A) (A) (A)
       Virtual   (A) (A) (A) (A) (A) (A) (A) (A) (A) (A) (A) (A)
                 (A) (A) (A) (A) (A) (A) (A) (A) (A) (A) (A) (A)
                 (A) (A) (A) (A) (A) (A) (A) (A) (A) (A) (A) (A)
                 (A) (A) (A) (A) (A) (A) (A) (A) (A) (A) (A) (A)
                 (A) (A) (A) (A) (A) (A) (A) (A) (A) (A) (A) (A)
                 (A) (A) (A) (A) (A) (A) (A) (A) (A) (A) (A) (A)
                 (A) (A) (A) (A) (A) (A) (A) (A) (A) (A) (A) (A)
                 (A) (A) (A) (A) (A) (A) (A) (A) (A) (A) (A) (A)
                 (A) (A) (A) (A) (A) (A) (A) (A) (A) (A) (A) (A)
                 (A) (A) (A) (A) (A) (A) (A) (A) (A) (A) (A) (A)
                 (A) (A) (A) (A) (A) (A) (A) (A) (A) (A) (A) (A)
                 (A) (A) (A) (A) (A) (A) (A) (A) (A) (A) (A) (A)
                 (A) (A) (A) (A) (A) (A) (A) (A) (A) (A) (A) (A)
                 (A) (A) (A) (A) (A) (A) (A) (A) (A) (A) (A) (A)
                 (A) (A) (A) (A) (A) (A) (A) (A) (A) (A) (A) (A)
                 (A) (A) (A) (A) (A) (A) (A) (A) (A) (A) (A) (A)
                 (A) (A) (A) (A) (A) (A) (A) (A) (A) (A) (A) (A)
                 (A) (A) (A) (A) (A) (A) (A) (A) (A) (A) (A) (A)
                 (A) (A) (A) (A) (A) (A) (A) (A) (A) (A) (A) (A)
                 (A) (A) (A) (A) (A) (A) (A) (A) (A) (A) (A) (A)
                 (A) (A) (A) (A) (A) (A) (A) (A) (A) (A) (A) (A)
                 (A) (A) (A) (A) (A) (A) (A) (A) (A) (A) (A) (A)
                 (A) (A) (A) (A) (A) (A) (A) (A) (A) (A) (A) (A)
                 (A) (A) (A) (A) (A) (A) (A) (A) (A) (A) (A) (A)
                 (A) (A) (A) (A) (A) (A) (A) (A) (A) (A) (A) (A)
                 (A) (A) (A) (A) (A) (A) (A) (A) (A) (A) (A) (A)
                 (A) (A) (A) (A) (A) (A) (A) (A) (A) (A) (A) (A)
                 (A) (A) (A) (A) (A) (A)
 Beta  Orbitals:
       Occupied  (A) (A) (A) (A) (A) (A) (A) (A) (A) (A) (A) (A)
                 (A) (A) (A) (A) (A) (A) (A) (A) (A) (A) (A) (A)
                 (A) (A) (A) (A) (A) (A) (A) (A) (A) (A) (A) (A)
                 (A) (A) (A) (A) (A) (A) (A) (A)
       Virtual   (A) (A) (A) (A) (A) (A) (A) (A) (A) (A) (A) (A)
                 (A) (A) (A) (A) (A) (A) (A) (A) (A) (A) (A) (A)
                 (A) (A) (A) (A) (A) (A) (A) (A) (A) (A) (A) (A)
                 (A) (A) (A) (A) (A) (A) (A) (A) (A) (A) (A) (A)
                 (A) (A) (A) (A) (A) (A) (A) (A) (A) (A) (A) (A)
                 (A) (A) (A) (A) (A) (A) (A) (A) (A) (A) (A) (A)
                 (A) (A) (A) (A) (A) (A) (A) (A) (A) (A) (A) (A)
                 (A) (A) (A) (A) (A) (A) (A) (A) (A) (A) (A) (A)
                 (A) (A) (A) (A) (A) (A) (A) (A) (A) (A) (A) (A)
                 (A) (A) (A) (A) (A) (A) (A) (A) (A) (A) (A) (A)
                 (A) (A) (A) (A) (A) (A) (A) (A) (A) (A) (A) (A)
                 (A) (A) (A) (A) (A) (A) (A) (A) (A) (A) (A) (A)
                 (A) (A) (A) (A) (A) (A) (A) (A) (A) (A) (A) (A)
                 (A) (A) (A) (A) (A) (A) (A) (A) (A) (A) (A) (A)
                 (A) (A) (A) (A) (A) (A) (A) (A) (A) (A) (A) (A)
                 (A) (A) (A) (A) (A) (A) (A) (A) (A) (A) (A) (A)
                 (A) (A) (A) (A) (A) (A) (A) (A) (A) (A) (A) (A)
                 (A) (A) (A) (A) (A) (A) (A) (A) (A) (A) (A) (A)
                 (A) (A) (A) (A) (A) (A) (A) (A) (A) (A) (A) (A)
                 (A) (A) (A) (A) (A) (A) (A) (A) (A) (A) (A) (A)
                 (A) (A) (A) (A) (A) (A) (A) (A) (A) (A) (A) (A)
                 (A) (A) (A) (A) (A) (A) (A) (A) (A) (A) (A) (A)
                 (A) (A) (A) (A) (A) (A) (A) (A) (A) (A) (A) (A)
                 (A) (A) (A) (A) (A) (A) (A) (A) (A) (A) (A) (A)
                 (A) (A) (A) (A) (A) (A) (A) (A) (A) (A) (A) (A)
                 (A) (A) (A) (A) (A) (A) (A) (A) (A) (A) (A) (A)
                 (A) (A) (A) (A) (A) (A) (A) (A) (A) (A) (A) (A)
                 (A) (A) (A) (A) (A) (A) (A)
 The electronic state is 2-A.
 Alpha  occ. eigenvalues --  -19.18626 -19.18402 -10.22520 -10.18334 -10.17350
 Alpha  occ. eigenvalues --  -10.17211 -10.16418 -10.16182 -10.16060 -10.15539
 Alpha  occ. eigenvalues --  -10.15522  -1.12512  -0.92740  -0.82022  -0.80085
 Alpha  occ. eigenvalues --   -0.74725  -0.68290  -0.67523  -0.67053  -0.60193
 Alpha  occ. eigenvalues --   -0.56873  -0.55682  -0.53351  -0.49820  -0.47421
 Alpha  occ. eigenvalues --   -0.46965  -0.45163  -0.44065  -0.43707  -0.42294
 Alpha  occ. eigenvalues --   -0.40362  -0.39643  -0.38586  -0.38394  -0.36800
 Alpha  occ. eigenvalues --   -0.36310  -0.35471  -0.34504  -0.33426  -0.32090
 Alpha  occ. eigenvalues --   -0.31908  -0.31630  -0.31274  -0.26928  -0.20642
 Alpha virt. eigenvalues --   -0.01829  -0.00736  -0.00073   0.00561   0.00678
 Alpha virt. eigenvalues --    0.01818   0.02142   0.02387   0.03403   0.03644
 Alpha virt. eigenvalues --    0.03942   0.04568   0.05242   0.05878   0.06003
 Alpha virt. eigenvalues --    0.06680   0.06975   0.08055   0.08161   0.08670
 Alpha virt. eigenvalues --    0.09344   0.09613   0.09990   0.10531   0.11153
 Alpha virt. eigenvalues --    0.11597   0.11930   0.12381   0.12478   0.12882
 Alpha virt. eigenvalues --    0.13003   0.13318   0.13767   0.13990   0.14402
 Alpha virt. eigenvalues --    0.14498   0.14624   0.14856   0.15496   0.15820
 Alpha virt. eigenvalues --    0.15873   0.16144   0.16741   0.17258   0.17676
 Alpha virt. eigenvalues --    0.17770   0.17853   0.18203   0.18800   0.19120
 Alpha virt. eigenvalues --    0.19472   0.19801   0.20159   0.20774   0.21366
 Alpha virt. eigenvalues --    0.21817   0.21976   0.22374   0.22529   0.23102
 Alpha virt. eigenvalues --    0.23592   0.23759   0.23981   0.25084   0.25794
 Alpha virt. eigenvalues --    0.26560   0.26788   0.27354   0.28024   0.28342
 Alpha virt. eigenvalues --    0.28771   0.29482   0.30076   0.30887   0.31751
 Alpha virt. eigenvalues --    0.32571   0.33055   0.33442   0.33609   0.33784
 Alpha virt. eigenvalues --    0.34293   0.34910   0.35544   0.35809   0.36140
 Alpha virt. eigenvalues --    0.36910   0.38216   0.39411   0.40328   0.40994
 Alpha virt. eigenvalues --    0.42269   0.44761   0.45241   0.46200   0.47966
 Alpha virt. eigenvalues --    0.49604   0.50034   0.51630   0.52560   0.53381
 Alpha virt. eigenvalues --    0.53642   0.54613   0.56541   0.56880   0.57096
 Alpha virt. eigenvalues --    0.58484   0.59323   0.59921   0.61383   0.63133
 Alpha virt. eigenvalues --    0.63504   0.65125   0.65612   0.65968   0.66406
 Alpha virt. eigenvalues --    0.67583   0.67882   0.68746   0.69050   0.69808
 Alpha virt. eigenvalues --    0.70017   0.71471   0.72471   0.72896   0.73961
 Alpha virt. eigenvalues --    0.74798   0.75468   0.75835   0.76181   0.77307
 Alpha virt. eigenvalues --    0.78549   0.79546   0.80016   0.80951   0.82205
 Alpha virt. eigenvalues --    0.82643   0.85063   0.87269   0.89628   0.93312
 Alpha virt. eigenvalues --    0.94345   0.96088   0.98901   1.01178   1.02247
 Alpha virt. eigenvalues --    1.02636   1.05319   1.06554   1.08875   1.09613
 Alpha virt. eigenvalues --    1.11578   1.11909   1.13192   1.14666   1.17102
 Alpha virt. eigenvalues --    1.17400   1.18337   1.19797   1.23032   1.24832
 Alpha virt. eigenvalues --    1.26827   1.29319   1.33778   1.36518   1.39714
 Alpha virt. eigenvalues --    1.41927   1.45409   1.45759   1.46377   1.47311
 Alpha virt. eigenvalues --    1.47549   1.48509   1.48919   1.52255   1.53124
 Alpha virt. eigenvalues --    1.54622   1.56425   1.56885   1.57535   1.59377
 Alpha virt. eigenvalues --    1.59894   1.60095   1.60854   1.61758   1.62928
 Alpha virt. eigenvalues --    1.63328   1.64414   1.64879   1.65450   1.66814
 Alpha virt. eigenvalues --    1.68122   1.69038   1.69608   1.70987   1.71870
 Alpha virt. eigenvalues --    1.73522   1.73601   1.74651   1.75722   1.77109
 Alpha virt. eigenvalues --    1.78192   1.78654   1.80462   1.82170   1.83598
 Alpha virt. eigenvalues --    1.84716   1.86040   1.86789   1.89086   1.91385
 Alpha virt. eigenvalues --    1.92407   1.96818   1.98396   1.98741   2.02946
 Alpha virt. eigenvalues --    2.03455   2.04372   2.06504   2.07995   2.10848
 Alpha virt. eigenvalues --    2.12958   2.14722   2.15266   2.16834   2.18283
 Alpha virt. eigenvalues --    2.21107   2.21981   2.26466   2.27447   2.29926
 Alpha virt. eigenvalues --    2.30236   2.31858   2.33311   2.36416   2.38545
 Alpha virt. eigenvalues --    2.40523   2.41909   2.45825   2.46886   2.48438
 Alpha virt. eigenvalues --    2.50395   2.50500   2.51746   2.52750   2.53889
 Alpha virt. eigenvalues --    2.54363   2.55275   2.56305   2.57244   2.58383
 Alpha virt. eigenvalues --    2.60086   2.61145   2.62344   2.63590   2.63870
 Alpha virt. eigenvalues --    2.64634   2.67290   2.67585   2.68753   2.70994
 Alpha virt. eigenvalues --    2.71979   2.73391   2.75164   2.76307   2.77456
 Alpha virt. eigenvalues --    2.77904   2.79667   2.81380   2.82450   2.84510
 Alpha virt. eigenvalues --    2.86944   2.87906   2.91939   2.92912   2.94535
 Alpha virt. eigenvalues --    2.96150   2.97356   2.99207   3.00655   3.02129
 Alpha virt. eigenvalues --    3.03443   3.05792   3.09651   3.10360   3.13763
 Alpha virt. eigenvalues --    3.16405   3.17941   3.22500   3.26812   3.32873
 Alpha virt. eigenvalues --    3.39870   3.48905   3.52123   3.70880   3.76671
 Alpha virt. eigenvalues --    3.77636   3.78784   3.80025   3.80934   3.82901
 Alpha virt. eigenvalues --    3.84598   3.86427   3.88961   3.89914   3.97164
 Alpha virt. eigenvalues --    3.99596   4.03572   4.10916   4.19066   4.26671
 Alpha virt. eigenvalues --    4.30365   4.32225   4.39775   4.87812   5.00437
 Alpha virt. eigenvalues --    5.07525   5.38278   5.53575   5.65176  23.82489
 Alpha virt. eigenvalues --   23.83772  23.87657  23.89320  23.90615  23.92506
 Alpha virt. eigenvalues --   23.93307  23.98172  23.98941  49.85470  49.88207
  Beta  occ. eigenvalues --  -19.18623 -19.18402 -10.22504 -10.18410 -10.17208
  Beta  occ. eigenvalues --  -10.16285 -10.16158 -10.16056 -10.15968 -10.15539
  Beta  occ. eigenvalues --  -10.15521  -1.12509  -0.92725  -0.81814  -0.79655
  Beta  occ. eigenvalues --   -0.74311  -0.68288  -0.67259  -0.65457  -0.59457
  Beta  occ. eigenvalues --   -0.56566  -0.55579  -0.53147  -0.49619  -0.47373
  Beta  occ. eigenvalues --   -0.46805  -0.45019  -0.43902  -0.43648  -0.42044
  Beta  occ. eigenvalues --   -0.40147  -0.39191  -0.38407  -0.38121  -0.36659
  Beta  occ. eigenvalues --   -0.36218  -0.35216  -0.34338  -0.33290  -0.32043
  Beta  occ. eigenvalues --   -0.31884  -0.31523  -0.30955  -0.26878
  Beta virt. eigenvalues --   -0.06242  -0.01830  -0.00707  -0.00035   0.00577
  Beta virt. eigenvalues --    0.00714   0.01858   0.02178   0.02431   0.03406
  Beta virt. eigenvalues --    0.03642   0.03944   0.04679   0.05280   0.05879
  Beta virt. eigenvalues --    0.06057   0.06826   0.07048   0.08134   0.08181
  Beta virt. eigenvalues --    0.08714   0.09371   0.09639   0.10010   0.10713
  Beta virt. eigenvalues --    0.11358   0.11613   0.11997   0.12454   0.12513
  Beta virt. eigenvalues --    0.12978   0.13022   0.13365   0.13838   0.14040
  Beta virt. eigenvalues --    0.14416   0.14538   0.14768   0.15121   0.15523
  Beta virt. eigenvalues --    0.15901   0.15984   0.16259   0.16803   0.17292
  Beta virt. eigenvalues --    0.17703   0.17892   0.17928   0.18249   0.18858
  Beta virt. eigenvalues --    0.19207   0.19487   0.19882   0.20237   0.20901
  Beta virt. eigenvalues --    0.21472   0.21846   0.22212   0.22437   0.22622
  Beta virt. eigenvalues --    0.23210   0.23625   0.23889   0.24030   0.25324
  Beta virt. eigenvalues --    0.25972   0.26674   0.26853   0.27413   0.28155
  Beta virt. eigenvalues --    0.28439   0.29038   0.29638   0.30121   0.31073
  Beta virt. eigenvalues --    0.31912   0.32700   0.33133   0.33581   0.33851
  Beta virt. eigenvalues --    0.33911   0.34352   0.35107   0.35615   0.35878
  Beta virt. eigenvalues --    0.36207   0.36961   0.38491   0.39559   0.40344
  Beta virt. eigenvalues --    0.41011   0.42403   0.44842   0.45290   0.46246
  Beta virt. eigenvalues --    0.48028   0.49727   0.50153   0.51839   0.52741
  Beta virt. eigenvalues --    0.53608   0.53766   0.54766   0.56749   0.56935
  Beta virt. eigenvalues --    0.57485   0.58616   0.59448   0.60567   0.61610
  Beta virt. eigenvalues --    0.63403   0.64733   0.65261   0.65920   0.66223
  Beta virt. eigenvalues --    0.66655   0.67805   0.68289   0.69072   0.69884
  Beta virt. eigenvalues --    0.69980   0.70457   0.71496   0.72572   0.73267
  Beta virt. eigenvalues --    0.74086   0.75195   0.75611   0.75959   0.76541
  Beta virt. eigenvalues --    0.77368   0.78649   0.79581   0.80072   0.81230
  Beta virt. eigenvalues --    0.82440   0.82732   0.85470   0.87433   0.89904
  Beta virt. eigenvalues --    0.93827   0.95134   0.96433   0.99068   1.01416
  Beta virt. eigenvalues --    1.02337   1.02888   1.05508   1.06729   1.09129
  Beta virt. eigenvalues --    1.10159   1.11804   1.12779   1.13315   1.14809
  Beta virt. eigenvalues --    1.17297   1.17855   1.18537   1.19895   1.23286
  Beta virt. eigenvalues --    1.24910   1.26973   1.29449   1.33994   1.36830
  Beta virt. eigenvalues --    1.39890   1.41984   1.45453   1.46366   1.46451
  Beta virt. eigenvalues --    1.47563   1.47685   1.48598   1.49029   1.52716
  Beta virt. eigenvalues --    1.53242   1.55011   1.56547   1.57176   1.57749
  Beta virt. eigenvalues --    1.59506   1.59929   1.60342   1.60934   1.61820
  Beta virt. eigenvalues --    1.63267   1.63510   1.64482   1.65181   1.65818
  Beta virt. eigenvalues --    1.67101   1.68193   1.69631   1.70309   1.71041
  Beta virt. eigenvalues --    1.72057   1.73578   1.73799   1.74961   1.75837
  Beta virt. eigenvalues --    1.77334   1.78293   1.78774   1.80574   1.82348
  Beta virt. eigenvalues --    1.83729   1.85039   1.86160   1.87661   1.89316
  Beta virt. eigenvalues --    1.91737   1.93468   1.97526   1.98790   1.99114
  Beta virt. eigenvalues --    2.03348   2.03904   2.05232   2.06949   2.08132
  Beta virt. eigenvalues --    2.11011   2.13086   2.14771   2.15302   2.17026
  Beta virt. eigenvalues --    2.18353   2.21232   2.22323   2.26603   2.27988
  Beta virt. eigenvalues --    2.30016   2.30591   2.31921   2.33397   2.36655
  Beta virt. eigenvalues --    2.38629   2.40615   2.41945   2.45882   2.46903
  Beta virt. eigenvalues --    2.48474   2.50411   2.50538   2.51884   2.52817
  Beta virt. eigenvalues --    2.53981   2.54443   2.55307   2.56384   2.57366
  Beta virt. eigenvalues --    2.58493   2.60149   2.61222   2.62424   2.63844
  Beta virt. eigenvalues --    2.64078   2.64672   2.67571   2.67854   2.68972
  Beta virt. eigenvalues --    2.71055   2.72375   2.73740   2.75196   2.76451
  Beta virt. eigenvalues --    2.77497   2.77986   2.79813   2.81819   2.83427
  Beta virt. eigenvalues --    2.84594   2.87119   2.89090   2.92330   2.93574
  Beta virt. eigenvalues --    2.94994   2.96200   2.97437   2.99676   3.00983
  Beta virt. eigenvalues --    3.02485   3.04343   3.05919   3.09724   3.10510
  Beta virt. eigenvalues --    3.13915   3.16425   3.17973   3.22645   3.26887
  Beta virt. eigenvalues --    3.32903   3.40013   3.49128   3.52229   3.70909
  Beta virt. eigenvalues --    3.77648   3.78581   3.78797   3.80043   3.80958
  Beta virt. eigenvalues --    3.82905   3.84619   3.86449   3.88988   3.89993
  Beta virt. eigenvalues --    3.97403   3.99603   4.03646   4.11145   4.19431
  Beta virt. eigenvalues --    4.27369   4.30372   4.32325   4.39859   4.87815
  Beta virt. eigenvalues --    5.00438   5.07537   5.38282   5.53575   5.65177
  Beta virt. eigenvalues --   23.82578  23.83777  23.87688  23.90229  23.91054
  Beta virt. eigenvalues --   23.92518  23.93530  23.98174  23.98942  49.85471
  Beta virt. eigenvalues --   49.88209
          Condensed to atoms (all electrons):
              1          2          3          4          5          6
     1  C    6.874800   0.415630   0.339756  -1.348973  -0.154573   0.724140
     2  H    0.415630   0.570643  -0.050221  -0.094624  -0.031758   0.007372
     3  H    0.339756  -0.050221   0.528650   0.118883   0.026652  -0.086419
     4  C   -1.348973  -0.094624   0.118883   9.373881   0.685854  -2.660500
     5  H   -0.154573  -0.031758   0.026652   0.685854   0.669935  -0.213598
     6  C    0.724140   0.007372  -0.086419  -2.660500  -0.213598   9.609961
     7  H   -0.066177  -0.015931   0.007906   0.000632   0.004963   0.430694
     8  H    0.101458   0.010637  -0.004307  -0.119831   0.001066   0.489665
     9  C   -0.301341  -0.002561   0.012589   0.792231   0.005115  -1.426453
    10  H    0.007423   0.002386  -0.001938  -0.101313  -0.010585   0.041149
    11  H    0.077202   0.006618  -0.001005   0.170539   0.008582  -0.500737
    12  C    0.063633   0.019638  -0.016686  -0.478468  -0.037562   0.402827
    13  H   -0.002972  -0.001659   0.000978  -0.003756   0.001144   0.029081
    14  H    0.006779   0.003687  -0.001458  -0.014054  -0.004127  -0.069805
    15  C    0.016969   0.001777  -0.000150  -0.080828  -0.009698  -0.411003
    16  H    0.004021  -0.000052   0.000084   0.010666  -0.000525  -0.016015
    17  C   -0.000205   0.000624  -0.000265   0.001874  -0.001010  -0.079404
    18  H    0.000280   0.000038  -0.000016  -0.000205  -0.000067  -0.000823
    19  H    0.000114   0.000046  -0.000018  -0.000529  -0.000207  -0.005101
    20  H   -0.000602  -0.000143   0.000048   0.001277   0.000328   0.001415
    21  C   -0.255970   0.018312  -0.027527  -0.752078  -0.094876   0.420578
    22  H   -0.009051   0.013855  -0.016296  -0.158561  -0.017896   0.049825
    23  H   -0.013394  -0.008972   0.010778   0.135985   0.012133  -0.123394
    24  C   -0.008761  -0.000398   0.000104  -0.027611   0.002858   0.130469
    25  H   -0.000361  -0.000042   0.000022  -0.002169   0.000197   0.008726
    26  H    0.000790   0.000055  -0.000015   0.003081  -0.000432  -0.019896
    27  H   -0.004838  -0.000217  -0.000030  -0.019673   0.000540   0.034726
    28  O    0.019812   0.000519   0.011931  -0.003852   0.010926  -0.099882
    29  O    0.011254   0.002246  -0.002873  -0.043794  -0.009513   0.026161
    30  H   -0.002137   0.000047  -0.000037  -0.020728   0.000152  -0.037338
              7          8          9         10         11         12
     1  C   -0.066177   0.101458  -0.301341   0.007423   0.077202   0.063633
     2  H   -0.015931   0.010637  -0.002561   0.002386   0.006618   0.019638
     3  H    0.007906  -0.004307   0.012589  -0.001938  -0.001005  -0.016686
     4  C    0.000632  -0.119831   0.792231  -0.101313   0.170539  -0.478468
     5  H    0.004963   0.001066   0.005115  -0.010585   0.008582  -0.037562
     6  C    0.430694   0.489665  -1.426453   0.041149  -0.500737   0.402827
     7  H    0.643823  -0.071622   0.020434  -0.017546  -0.019691  -0.076817
     8  H   -0.071622   0.532681  -0.163174   0.013430   0.035416   0.044000
     9  C    0.020434  -0.163174   7.406161   0.454116   0.369649  -1.479272
    10  H   -0.017546   0.013430   0.454116   0.690391  -0.144166  -0.079913
    11  H   -0.019691   0.035416   0.369649  -0.144166   0.967032  -0.022937
    12  C   -0.076817   0.044000  -1.479272  -0.079913  -0.022937   8.559316
    13  H    0.008788  -0.001939  -0.076617   0.021468  -0.030390   0.421294
    14  H   -0.014327   0.008517  -0.088721  -0.031507   0.040785   0.459024
    15  C   -0.005357   0.000723   0.325226   0.013563   0.147704  -1.445805
    16  H   -0.001789   0.001393  -0.003946   0.010090   0.029958  -0.166068
    17  C   -0.008057   0.003295  -0.208679  -0.004960   0.022374   0.365324
    18  H   -0.001220   0.000878   0.004269   0.001530   0.003418  -0.090552
    19  H   -0.000480   0.000316  -0.002253  -0.000420   0.002836   0.039655
    20  H    0.002743  -0.001226   0.002503  -0.000045  -0.004232  -0.011193
    21  C    0.017734  -0.068219   0.108054   0.028814  -0.173875   0.115956
    22  H   -0.006614   0.002341  -0.016724   0.004781  -0.003544   0.019004
    23  H    0.009193  -0.006078   0.074132  -0.014924   0.022016  -0.056526
    24  C    0.005663  -0.009420   0.091240  -0.025234  -0.059287   0.152522
    25  H    0.000632  -0.000496   0.018579   0.000418  -0.010020   0.031834
    26  H   -0.000585   0.000594   0.007528   0.002534   0.014955  -0.098441
    27  H    0.002851  -0.004550   0.051889   0.005823  -0.053614  -0.022374
    28  O   -0.009624   0.026167  -0.014272   0.000294   0.017262   0.015122
    29  O    0.005043  -0.017012  -0.102579  -0.003340   0.072062   0.056324
    30  H   -0.002971   0.003448   0.018145   0.000031   0.002396  -0.001090
             13         14         15         16         17         18
     1  C   -0.002972   0.006779   0.016969   0.004021  -0.000205   0.000280
     2  H   -0.001659   0.003687   0.001777  -0.000052   0.000624   0.000038
     3  H    0.000978  -0.001458  -0.000150   0.000084  -0.000265  -0.000016
     4  C   -0.003756  -0.014054  -0.080828   0.010666   0.001874  -0.000205
     5  H    0.001144  -0.004127  -0.009698  -0.000525  -0.001010  -0.000067
     6  C    0.029081  -0.069805  -0.411003  -0.016015  -0.079404  -0.000823
     7  H    0.008788  -0.014327  -0.005357  -0.001789  -0.008057  -0.001220
     8  H   -0.001939   0.008517   0.000723   0.001393   0.003295   0.000878
     9  C   -0.076617  -0.088721   0.325226  -0.003946  -0.208679   0.004269
    10  H    0.021468  -0.031507   0.013563   0.010090  -0.004960   0.001530
    11  H   -0.030390   0.040785   0.147704   0.029958   0.022374   0.003418
    12  C    0.421294   0.459024  -1.445805  -0.166068   0.365324  -0.090552
    13  H    0.600469  -0.079738   0.018371   0.020852  -0.009210   0.004055
    14  H   -0.079738   0.677658  -0.046939  -0.013715   0.032722   0.002669
    15  C    0.018371  -0.046939   6.846273   0.600128  -0.145096   0.092793
    16  H    0.020852  -0.013715   0.600128   0.630074  -0.060798   0.016019
    17  C   -0.009210   0.032722  -0.145096  -0.060798   5.697449   0.379489
    18  H    0.004055   0.002669   0.092793   0.016019   0.379489   0.561646
    19  H   -0.004348   0.003183  -0.078008  -0.012112   0.398386  -0.033319
    20  H    0.004997  -0.002675  -0.055534  -0.013953   0.407320  -0.046925
    21  C   -0.003459   0.005175  -0.021222  -0.009613   0.002463  -0.000141
    22  H   -0.001403   0.001186  -0.002801  -0.000857   0.000421   0.000022
    23  H    0.001249  -0.001795   0.003351   0.001824  -0.001686  -0.000140
    24  C   -0.072852   0.022690  -0.189206  -0.142866  -0.160877  -0.037934
    25  H   -0.003654  -0.003115  -0.103555  -0.009202  -0.011651   0.001924
    26  H    0.013377  -0.002628   0.097142   0.016176  -0.005440   0.011913
    27  H    0.004692  -0.001306  -0.095172  -0.023868   0.004998  -0.006286
    28  O   -0.001107   0.001195   0.004188   0.000355   0.000104   0.000021
    29  O   -0.003745   0.001818   0.011874   0.000954   0.001461   0.000016
    30  H   -0.000534   0.000442  -0.000468  -0.000092  -0.000038   0.000015
             19         20         21         22         23         24
     1  C    0.000114  -0.000602  -0.255970  -0.009051  -0.013394  -0.008761
     2  H    0.000046  -0.000143   0.018312   0.013855  -0.008972  -0.000398
     3  H   -0.000018   0.000048  -0.027527  -0.016296   0.010778   0.000104
     4  C   -0.000529   0.001277  -0.752078  -0.158561   0.135985  -0.027611
     5  H   -0.000207   0.000328  -0.094876  -0.017896   0.012133   0.002858
     6  C   -0.005101   0.001415   0.420578   0.049825  -0.123394   0.130469
     7  H   -0.000480   0.002743   0.017734  -0.006614   0.009193   0.005663
     8  H    0.000316  -0.001226  -0.068219   0.002341  -0.006078  -0.009420
     9  C   -0.002253   0.002503   0.108054  -0.016724   0.074132   0.091240
    10  H   -0.000420  -0.000045   0.028814   0.004781  -0.014924  -0.025234
    11  H    0.002836  -0.004232  -0.173875  -0.003544   0.022016  -0.059287
    12  C    0.039655  -0.011193   0.115956   0.019004  -0.056526   0.152522
    13  H   -0.004348   0.004997  -0.003459  -0.001403   0.001249  -0.072852
    14  H    0.003183  -0.002675   0.005175   0.001186  -0.001795   0.022690
    15  C   -0.078008  -0.055534  -0.021222  -0.002801   0.003351  -0.189206
    16  H   -0.012112  -0.013953  -0.009613  -0.000857   0.001824  -0.142866
    17  C    0.398386   0.407320   0.002463   0.000421  -0.001686  -0.160877
    18  H   -0.033319  -0.046925  -0.000141   0.000022  -0.000140  -0.037934
    19  H    0.568141  -0.020713   0.000147   0.000020  -0.000145  -0.006475
    20  H   -0.020713   0.582892  -0.000029  -0.000025   0.000195   0.024820
    21  C    0.000147  -0.000029   6.414182   0.455098   0.270123   0.031106
    22  H    0.000020  -0.000025   0.455098   0.589005  -0.062445   0.001490
    23  H   -0.000145   0.000195   0.270123  -0.062445   0.619334  -0.002261
    24  C   -0.006475   0.024820   0.031106   0.001490  -0.002261   5.733797
    25  H   -0.000437   0.001972   0.001224   0.000025   0.000226   0.422367
    26  H    0.001398  -0.002859  -0.002837  -0.000128   0.000673   0.339167
    27  H    0.000684  -0.000755   0.020706   0.001145  -0.006136   0.436168
    28  O    0.000012  -0.000033   0.198233  -0.076978  -0.041424  -0.001843
    29  O    0.000106  -0.000117  -0.013384   0.033858  -0.008422  -0.006463
    30  H   -0.000008  -0.000003   0.039779  -0.000622  -0.001398   0.000290
             25         26         27         28         29         30
     1  C   -0.000361   0.000790  -0.004838   0.019812   0.011254  -0.002137
     2  H   -0.000042   0.000055  -0.000217   0.000519   0.002246   0.000047
     3  H    0.000022  -0.000015  -0.000030   0.011931  -0.002873  -0.000037
     4  C   -0.002169   0.003081  -0.019673  -0.003852  -0.043794  -0.020728
     5  H    0.000197  -0.000432   0.000540   0.010926  -0.009513   0.000152
     6  C    0.008726  -0.019896   0.034726  -0.099882   0.026161  -0.037338
     7  H    0.000632  -0.000585   0.002851  -0.009624   0.005043  -0.002971
     8  H   -0.000496   0.000594  -0.004550   0.026167  -0.017012   0.003448
     9  C    0.018579   0.007528   0.051889  -0.014272  -0.102579   0.018145
    10  H    0.000418   0.002534   0.005823   0.000294  -0.003340   0.000031
    11  H   -0.010020   0.014955  -0.053614   0.017262   0.072062   0.002396
    12  C    0.031834  -0.098441  -0.022374   0.015122   0.056324  -0.001090
    13  H   -0.003654   0.013377   0.004692  -0.001107  -0.003745  -0.000534
    14  H   -0.003115  -0.002628  -0.001306   0.001195   0.001818   0.000442
    15  C   -0.103555   0.097142  -0.095172   0.004188   0.011874  -0.000468
    16  H   -0.009202   0.016176  -0.023868   0.000355   0.000954  -0.000092
    17  C   -0.011651  -0.005440   0.004998   0.000104   0.001461  -0.000038
    18  H    0.001924   0.011913  -0.006286   0.000021   0.000016   0.000015
    19  H   -0.000437   0.001398   0.000684   0.000012   0.000106  -0.000008
    20  H    0.001972  -0.002859  -0.000755  -0.000033  -0.000117  -0.000003
    21  C    0.001224  -0.002837   0.020706   0.198233  -0.013384   0.039779
    22  H    0.000025  -0.000128   0.001145  -0.076978   0.033858  -0.000622
    23  H    0.000226   0.000673  -0.006136  -0.041424  -0.008422  -0.001398
    24  C    0.422367   0.339167   0.436168  -0.001843  -0.006463   0.000290
    25  H    0.570269  -0.031729  -0.023199  -0.000088  -0.000546   0.000015
    26  H   -0.031729   0.565591  -0.049538   0.000199   0.002147  -0.000274
    27  H   -0.023199  -0.049538   0.611709  -0.001077  -0.010052   0.000388
    28  O   -0.000088   0.000199  -0.001077   8.023334   0.003003  -0.001378
    29  O   -0.000546   0.002147  -0.010052   0.003003   8.006107   0.186747
    30  H    0.000015  -0.000274   0.000388  -0.001378   0.186747   0.546584
 Mulliken atomic charges:
              1
     1  C   -0.494706
     2  H    0.132445
     3  H    0.150880
     4  C    0.636642
     5  H    0.155980
     6  C   -0.656423
     7  H    0.157710
     8  H    0.191849
     9  C    0.124734
    10  H    0.137650
    11  H    0.012693
    12  C   -0.681770
    13  H    0.146565
    14  H    0.108379
    15  C    0.510762
    16  H    0.132877
    17  C   -0.620927
    18  H    0.136630
    19  H    0.149530
    20  H    0.130553
    21  C   -0.724451
    22  H    0.201872
    23  H    0.187927
    24  C   -0.643261
    25  H    0.141835
    26  H    0.137484
    27  H    0.146367
    28  O   -0.081119
    29  O   -0.199341
    30  H    0.270634
 Sum of Mulliken atomic charges =   0.00000
 Mulliken charges with hydrogens summed into heavy atoms:
              1
     1  C   -0.211381
     4  C    0.792622
     6  C   -0.306864
     9  C    0.275077
    12  C   -0.426825
    15  C    0.643639
    17  C   -0.204214
    21  C   -0.334652
    24  C   -0.217575
    28  O   -0.081119
    29  O    0.071293
 Sum of Mulliken charges with hydrogens summed into heavy atoms =   0.00000
          Atomic-Atomic Spin Densities.
              1          2          3          4          5          6
     1  C    1.318088   0.013724  -0.011689  -0.085112   0.004419  -0.078805
     2  H    0.013724  -0.057752   0.005640  -0.011348   0.002537   0.005892
     3  H   -0.011689   0.005640  -0.054380   0.024136  -0.000458  -0.018223
     4  C   -0.085112  -0.011348   0.024136  -0.078858  -0.042972   0.103947
     5  H    0.004419   0.002537  -0.000458  -0.042972   0.045097  -0.003138
     6  C   -0.078805   0.005892  -0.018223   0.103947  -0.003138   0.096649
     7  H   -0.015482  -0.002230  -0.000609   0.013560  -0.003135   0.006475
     8  H    0.021188   0.000481   0.000146  -0.015890   0.002440  -0.011186
     9  C   -0.020733  -0.001628   0.003589   0.012545  -0.004912  -0.024222
    10  H    0.002932   0.000275   0.000045  -0.003654   0.002975  -0.005372
    11  H    0.002577  -0.000073   0.000562  -0.011745   0.001115   0.007536
    12  C    0.006676  -0.000746   0.000688  -0.017728   0.008558  -0.017945
    13  H    0.000336   0.000050  -0.000029  -0.001170   0.000037   0.000753
    14  H   -0.000025  -0.000014   0.000063  -0.000137   0.000096  -0.000089
    15  C   -0.000490  -0.000060   0.000037  -0.008094   0.000812   0.009375
    16  H   -0.000367  -0.000001  -0.000008   0.000951  -0.000170  -0.000261
    17  C    0.000339  -0.000007   0.000011  -0.001469   0.000104   0.000762
    18  H    0.000014   0.000000   0.000000   0.000058   0.000006  -0.000082
    19  H    0.000013   0.000000   0.000001  -0.000120   0.000008   0.000069
    20  H    0.000004   0.000000   0.000000  -0.000013  -0.000012   0.000098
    21  C   -0.030670  -0.003305  -0.003247   0.036373   0.017202  -0.037541
    22  H    0.006277  -0.000555   0.000355  -0.000790  -0.000947   0.001379
    23  H   -0.005554   0.000062  -0.001264   0.028376  -0.006283  -0.000287
    24  C   -0.000290   0.000007  -0.000013   0.002437  -0.000149  -0.002001
    25  H   -0.000009   0.000000  -0.000001   0.000104  -0.000004  -0.000060
    26  H   -0.000130   0.000000   0.000001   0.000209  -0.000031   0.000198
    27  H    0.000185   0.000000   0.000001  -0.000109   0.000123  -0.000882
    28  O    0.003169   0.000209  -0.001007  -0.010155   0.002607  -0.007399
    29  O   -0.000039  -0.000020   0.000277   0.000847  -0.000534   0.002236
    30  H    0.000270   0.000007   0.000021  -0.000225   0.000044  -0.000673
              7          8          9         10         11         12
     1  C   -0.015482   0.021188  -0.020733   0.002932   0.002577   0.006676
     2  H   -0.002230   0.000481  -0.001628   0.000275  -0.000073  -0.000746
     3  H   -0.000609   0.000146   0.003589   0.000045   0.000562   0.000688
     4  C    0.013560  -0.015890   0.012545  -0.003654  -0.011745  -0.017728
     5  H   -0.003135   0.002440  -0.004912   0.002975   0.001115   0.008558
     6  C    0.006475  -0.011186  -0.024222  -0.005372   0.007536  -0.017945
     7  H   -0.001899  -0.001922   0.003451  -0.001024  -0.000485  -0.004331
     8  H   -0.001922   0.001686  -0.004889   0.001272   0.001363   0.008234
     9  C    0.003451  -0.004889   0.109174  -0.007598  -0.008231  -0.056415
    10  H   -0.001024   0.001272  -0.007598   0.001616   0.001104   0.008021
    11  H   -0.000485   0.001363  -0.008231   0.001104  -0.001702   0.006399
    12  C   -0.004331   0.008234  -0.056415   0.008021   0.006399   0.078936
    13  H    0.000054   0.000077  -0.000526  -0.000148   0.000086  -0.000738
    14  H   -0.000183   0.000042   0.000037   0.000013  -0.000104  -0.000158
    15  C    0.000659  -0.000713  -0.011994  -0.000973  -0.000388  -0.023850
    16  H    0.000261  -0.000271   0.003948  -0.000763  -0.000063  -0.004476
    17  C   -0.000336   0.000598  -0.008410   0.000902  -0.000022   0.013631
    18  H   -0.000014   0.000017  -0.000239   0.000029   0.000041   0.000766
    19  H   -0.000031   0.000023  -0.001435   0.000076   0.000021   0.000356
    20  H    0.000028  -0.000005   0.000696  -0.000015  -0.000036  -0.000191
    21  C   -0.004029   0.003130   0.008091   0.002648   0.002138   0.002092
    22  H   -0.000023   0.000022  -0.001104  -0.000054   0.000060  -0.000123
    23  H    0.001416  -0.002650   0.004521  -0.002368  -0.000580  -0.007875
    24  C   -0.000054  -0.000202   0.005489  -0.000045   0.000013  -0.000795
    25  H    0.000009  -0.000021   0.000226  -0.000055   0.000095  -0.000689
    26  H    0.000066  -0.000120   0.001497  -0.000131  -0.000205  -0.001469
    27  H   -0.000105   0.000216  -0.001909   0.000311   0.000343   0.002751
    28  O   -0.000808   0.002310   0.001101   0.000654   0.000712   0.002727
    29  O    0.000219  -0.000570  -0.000735  -0.000193  -0.000189  -0.000443
    30  H   -0.000040   0.000225   0.000016   0.000036   0.000047   0.000214
             13         14         15         16         17         18
     1  C    0.000336  -0.000025  -0.000490  -0.000367   0.000339   0.000014
     2  H    0.000050  -0.000014  -0.000060  -0.000001  -0.000007   0.000000
     3  H   -0.000029   0.000063   0.000037  -0.000008   0.000011   0.000000
     4  C   -0.001170  -0.000137  -0.008094   0.000951  -0.001469   0.000058
     5  H    0.000037   0.000096   0.000812  -0.000170   0.000104   0.000006
     6  C    0.000753  -0.000089   0.009375  -0.000261   0.000762  -0.000082
     7  H    0.000054  -0.000183   0.000659   0.000261  -0.000336  -0.000014
     8  H    0.000077   0.000042  -0.000713  -0.000271   0.000598   0.000017
     9  C   -0.000526   0.000037  -0.011994   0.003948  -0.008410  -0.000239
[...]
 3628,-0.00003490,-0.00005368,0.00007548,-0.00014489,-0.00068750,-0.000
 07383,-0.00597298,-0.01501798,-0.00460072,0.00129634,0.00128302,0.0008
 7591,-0.00076882,0.00103070,0.00026479,0.00257758,-0.17553316,-0.01118
 275,0.00040932,-0.01880076,-0.00228603,0.00590990,-0.01576925,-0.00527
 793,-0.00131659,0.00121791,0.00091532,-0.00125640,0.00071942,0.0006651
 9,0.00033993,0.00085217,-0.00030836,0.00001053,0.00008092,0.00001530,-
 0.00000200,-0.00001509,-0.00000023,0.00001423,-0.00002461,-0.00001245,
 -0.00328191,0.45665449,0.00000696,0.00000072,0.00003159,-0.00000205,-0
 .00000471,-0.00001360,-0.00000738,-0.00000085,-0.00001020,-0.00000354,
 0.00011315,-0.00004153,0.00001036,0.00000508,-0.00000276,0.00037529,-0
 .00056182,0.00004838,-0.00014960,-0.00001877,-0.00010882,-0.00003356,0
 .00002467,-0.00004437,-0.00055364,0.00085382,-0.00000141,-0.00012236,-
 0.00013928,0.00012752,0.00031116,-0.00084151,0.00031035,-0.00171433,-0
 .01705770,-0.00346088,0.00039495,-0.00112995,0.00046467,-0.00265859,-0
 .00162109,-0.00101367,0.00097587,-0.00877454,-0.07964618,-0.00042557,0
 .02994903,0.00440418,0.00273577,-0.02060773,-0.00368842,-0.00036310,-0
 .00104336,0.00045773,-0.00110727,0.00066529,0.00048435,0.00274037,-0.0
 0191256,-0.00173656,0.00012652,-0.00001327,0.00016707,-0.00004387,0.00
 001431,-0.00001770,0.00000902,-0.00003249,-0.00005789,-0.00246329,-0.0
 0805789,0.55942514,-0.00002326,0.00002023,0.00005229,0.00000452,-0.000
 00742,-0.00001413,-0.00000097,-0.00000192,-0.00001666,0.00000256,0.000
 00926,-0.00004686,0.00000904,0.00000066,0.00000761,0.00015765,-0.00021
 534,0.00002018,-0.00012014,-0.00004935,-0.00005242,-0.00001005,0.00001
 155,-0.00000570,-0.00009274,0.00036898,-0.00019215,0.00000146,-0.00010
 547,0.00005456,0.00036509,-0.00034755,-0.00005052,0.00084679,0.0001881
 6,0.00087951,0.00004423,0.00014463,0.00005883,0.00002376,-0.00005884,-
 0.00007277,-0.00026255,0.00059959,0.00083291,0.00011693,-0.00055515,0.
 00029039,0.00073038,0.00084261,0.00048677,-0.00004050,-0.00002580,0.00
 001940,0.00053440,0.00001029,-0.00015981,0.00024320,-0.00009646,0.0001
 1769,0.00005514,-0.00000949,0.00004101,-0.00003534,0.00000050,-0.00000
 074,0.00002609,-0.00002634,-0.00003966,-0.23120731,-0.06284442,-0.0989
 5281,0.25072126,-0.00001760,0.00001876,0.00003988,0.00000535,0.0000015
 9,-0.00000760,-0.00000168,-0.00000587,-0.00001277,-0.00005515,0.000020
 84,-0.00004424,0.00000643,0.00000266,0.00000527,-0.00016130,0.00005977
 ,0.00011809,0.00004838,0.00011145,0.00004283,0.00000699,-0.00001309,-0
 .00001078,0.00069071,-0.00020273,-0.00030988,-0.00005004,0.00000785,0.
 00005717,-0.00015657,0.00026074,0.00011228,0.00213423,-0.00660739,0.00
 001676,0.00017388,0.00013009,-0.00013328,-0.00177340,-0.00083707,-0.00
 098569,-0.02851192,-0.00958543,-0.01615893,0.00000662,0.00118214,0.000
 67916,-0.00154774,0.00139377,0.00014094,0.00017298,-0.00002987,0.00000
 952,0.00097961,-0.00009710,-0.00004051,0.00003874,0.00028350,0.0004528
 1,-0.00000229,-0.00008961,0.00002505,-0.00001717,0.00002016,-0.0000007
 4,0.00000286,0.00000170,-0.00000201,-0.06160780,-0.06703793,-0.0327128
 6,0.06856730,0.07479120,-0.00000613,0.00000836,0.00001435,0.00000233,-
 0.00000175,-0.00000243,0.00000134,-0.00000058,-0.00000479,-0.00001908,
 -0.00000710,-0.00000834,0.00000009,-0.00000145,0.00000286,-0.00013274,
 0.00014945,0.00003320,0.00007523,0.00003729,0.00003805,0.00001985,0.00
 000436,0.00001651,0.00035127,-0.00014863,0.00006167,-0.00005157,-0.000
 01920,0.00001142,-0.00015933,0.00025673,-0.00007250,0.00061929,-0.0013
 3746,0.00041968,0.00033393,0.00015683,0.00048107,-0.00046017,-0.000371
 40,0.00018452,-0.00290425,-0.00042754,-0.00297018,0.00043300,-0.000206
 51,0.00044093,-0.00073489,0.00016086,-0.00013016,-0.00010366,-0.000046
 59,-0.00007079,0.00054281,-0.00030897,0.00016342,0.00026189,0.00020142
 ,0.00007707,-0.00001977,-0.00001447,-0.00002231,-0.00000145,0.00000149
 ,0.00000638,0.00000164,0.00000056,0.00000363,-0.09839598,-0.03325684,-
 0.09988986,0.10875257,0.03766432,0.10457221,0.00000211,-0.00000571,-0.
 00001108,-0.00000163,0.00000415,0.00000242,-0.00000348,-0.00000270,0.0
 0000157,-0.00000826,0.00000114,-0.00000056,0.00000284,0.00001009,-0.00
 000805,0.00001708,0.00000038,-0.00001224,0.00000590,-0.00000247,-0.000
 00218,-0.00003107,-0.00002052,-0.00003378,-0.00017243,-0.00000911,-0.0
 0005397,0.00005818,0.00016085,-0.00006878,-0.00006388,-0.00003327,0.00
 014242,0.00038900,-0.00057052,0.00116063,0.00021583,-0.00003422,-0.000
 20002,-0.00003332,0.00011273,-0.00008522,-0.00112647,-0.00027077,0.000
 00920,0.00066984,-0.00009135,0.00008309,0.00007752,0.00030598,-0.00094
 476,0.00017850,0.00020671,0.00023915,0.00000056,0.00005344,-0.00012077
 ,-0.00006676,-0.00017940,0.00016564,0.00003401,-0.00003666,0.00004635,
 0.00000214,0.00000927,-0.00000946,-0.00001055,-0.00000128,0.00001083,-
 0.04869812,0.00780228,-0.01418475,-0.00116597,0.01372589,-0.02451770,0
 .04742671,-0.00000318,0.00000089,0.00000075,0.00000029,0.00000124,0.00
 000150,-0.00000323,-0.00000086,-0.00000097,-0.00001811,-0.00001205,-0.
 00001012,0.00000816,0.00000494,-0.00000835,-0.00004514,0.00003493,0.00
 002484,0.00000363,0.00000294,0.00000763,-0.00003977,-0.00001369,-0.000
 02620,-0.00017052,-0.00005641,-0.00010854,0.00019436,0.00006219,-0.000
 15227,-0.00010990,-0.00004222,0.00006915,0.00099426,0.00147342,0.00162
 661,-0.00058269,0.00024473,-0.00101683,0.00020778,0.00047433,-0.000340
 85,0.00204823,-0.01779201,0.03051784,0.00012541,-0.00658927,-0.0015492
 1,-0.00086339,0.00144068,0.00124089,0.00053972,0.00007347,-0.00096654,
 0.00003653,-0.00002674,-0.00011536,-0.00021776,0.00037467,-0.00035202,
 0.00000988,-0.00002526,0.00001055,0.00000002,0.00000483,-0.00000301,-0
 .00000608,0.00000134,0.00000293,0.00768303,-0.10191666,0.10393373,0.00
 031999,0.00414211,-0.00865680,-0.00845561,0.11402990,0.00000897,-0.000
 00768,-0.00001449,-0.00000065,-0.00000251,0.00000286,0.00000715,0.0000
 0574,0.00000862,0.00002280,0.00000997,0.00001258,-0.00000599,-0.000018
 74,0.00001132,-0.00004432,0.00001615,-0.00003389,0.00001243,0.00000047
 ,0.00001049,0.00003075,0.00002300,0.00003821,0.00013855,0.00012996,0.0
 0008457,-0.00003936,-0.00012851,0.00003925,0.00000227,0.00010478,-0.00
 016713,-0.00000711,-0.00033129,0.00090013,0.00042796,0.00038281,0.0002
 6725,0.00015091,0.00005323,0.00022731,0.00040538,-0.00136630,0.0030688
 3,0.00001687,-0.00120099,0.00141472,-0.00005254,-0.00037701,0.00091328
 ,-0.00041795,0.00031146,0.00029852,0.00004718,0.00003537,-0.00009156,-
 0.00011085,0.00007658,0.00024481,-0.00007074,0.00008334,-0.00008085,0.
 00001194,-0.00001789,0.00001129,0.00000696,0.00001210,0.00000023,-0.01
 411624,0.10425462,-0.24407085,-0.00028337,0.00598462,-0.01254222,0.015
 86055,-0.11578410,0.26518753,0.00001875,-0.00000780,-0.00002295,-0.000
 00437,-0.00000129,0.00000402,-0.00000275,0.00000246,0.00000594,0.00004
 509,0.00001884,0.00002922,-0.00000170,0.00000547,-0.00000700,0.0001497
 3,-0.00017266,-0.00011265,-0.00006904,-0.00005789,-0.00004091,-0.00000
 990,0.00000367,-0.00001251,-0.00094225,-0.00041113,-0.00021671,0.00001
 596,0.00007653,0.00003295,-0.00092515,-0.00139658,-0.00036714,-0.00008
 125,0.00034462,-0.00020378,-0.00002168,-0.00004938,-0.00005959,0.00011
 252,0.00009043,0.00012560,0.00046917,-0.00029214,-0.00123308,0.0001702
 8,0.00055433,-0.00023948,0.00061488,0.00084294,-0.00048424,-0.00001553
 ,-0.00013049,0.00000308,0.00049534,-0.00020433,0.00000105,0.00007586,-
 0.00000818,0.00033807,0.00000770,0.00002530,0.00000144,0.00001465,0.00
 000333,0.00000207,-0.00000989,-0.00000061,0.00001441,-0.20190716,0.057
 06541,0.11516522,-0.02084798,0.00736226,0.01612277,0.00229052,-0.00167
 174,-0.00203659,0.22033451,0.00001973,-0.00001913,-0.00003242,-0.00000
 189,0.00000553,0.00000898,0.00000549,0.00000419,0.00001397,-0.00004129
 ,-0.00000501,0.00002054,-0.00001052,-0.00001611,0.00000401,-0.00033081
 ,0.00025905,0.00010590,0.00016813,0.00009827,0.00007257,0.00006679,0.0
 0000903,0.00005383,-0.00012966,-0.00041880,-0.00016203,-0.00009288,-0.
 00018098,0.00010206,-0.00100751,0.00016761,-0.00013959,0.00070295,0.00
 114809,0.00004733,-0.00013366,-0.00007065,-0.00000534,0.00008956,0.000
 07774,0.00020306,0.02638592,-0.00722054,-0.01906772,-0.00001432,0.0013
 8839,0.00066954,-0.00153262,-0.00687024,-0.00008924,-0.00018061,0.0000
 8127,-0.00019126,-0.00008373,0.00009842,0.00030382,0.00173066,-0.00075
 274,-0.00126824,-0.00008368,0.00002399,-0.00007616,0.00002909,-0.00000
 330,0.00000753,-0.00001680,0.00004079,0.00002866,0.05584158,-0.0675554
 1,-0.04108383,-0.00674685,0.00199328,0.00616940,-0.01274738,0.00408107
 ,0.00785804,-0.06197065,0.07369919,0.00000603,-0.00000503,-0.00002557,
 0.00000093,0.00001100,0.00000928,-0.00000038,-0.00000440,0.00000542,-0
 .00003230,-0.00002318,0.00003331,-0.00000488,0.00000959,-0.00000840,-0
 .00030637,0.00041590,0.00000457,0.00016166,0.00012947,0.00009720,0.000
 00697,-0.00004272,-0.00001281,0.00055046,-0.00082122,0.00022001,-0.000
 03115,0.00018698,-0.00010625,-0.00075726,0.00049851,0.00025971,0.00082
 457,-0.00011777,-0.00021686,0.00002874,-0.00005449,-0.00001284,-0.0001
 3594,0.00003852,0.00004219,0.00184286,-0.00003760,-0.00314960,-0.00043
 105,-0.00025650,0.00059749,-0.00062941,-0.00128367,0.00068526,-0.00030
 082,0.00019107,0.00046530,0.00026180,0.00009779,0.00002214,0.00048444,
 -0.00012614,0.00024747,-0.00004523,-0.00007881,-0.00002352,0.00002593,
 0.00001507,-0.00000096,-0.00001880,0.00002122,0.00004949,0.11439550,-0
 .04198096,-0.13200018,-0.01168630,0.00509499,0.00917169,0.02256914,-0.
 00832896,-0.01581146,-0.12681243,0.04637237,0.13944079,-0.00046227,-0.
 00184061,-0.00031440,0.00049800,-0.00001029,0.00037528,0.00092031,-0.0
 0002941,0.00069533,-0.00399785,0.01257505,-0.01618281,-0.00040875,0.00
 402955,0.00117138,0.00109901,-0.00067316,-0.00176554,0.00018710,-0.000
 26004,0.00043312,-0.00046886,0.00005858,0.00073821,-0.00058424,-0.0000
 2601,0.00028264,0.00027906,-0.00021526,0.00016622,-0.00022878,0.000240
 63,-0.00019114,0.00011353,0.00001060,-0.00001034,-0.00004492,-0.000037
 70,0.00005382,-0.00004974,0.00005529,0.00002044,0.00003347,0.00002965,
 0.00006224,0.00001045,-0.00001171,0.00000635,-0.00001838,-0.00001871,-
 0.00003725,0.00000283,-0.00000506,0.00001723,-0.00003838,-0.00000389,-
 0.00000224,0.00000611,0.00000674,0.00000176,-0.11734527,0.01838955,-0.
 03376618,0.00701017,-0.01657872,0.02208352,-0.01172072,0.01844517,-0.0
 2686919,0.00001020,-0.00001423,-0.00003760,-0.00004280,-0.00000427,-0.
 00001021,0.00001220,0.00000329,0.00001798,0.00000682,0.00004335,0.0000
 2780,0.29553448,0.00015468,0.00169756,0.00104250,0.00034899,0.00020603
 ,0.00037275,0.00018532,-0.00095421,-0.00003559,0.01397620,-0.02357127,
 0.03571585,0.00281360,-0.00805544,-0.00241499,-0.00175589,0.00177167,0
 .00115367,-0.00018550,0.00032968,-0.00034911,0.00017388,0.00048367,-0.
 00073559,-0.00011956,-0.00068231,-0.00005904,-0.00005226,0.00000359,-0
 .00008819,0.00006308,0.00031670,0.00000909,0.00010831,0.00033159,0.000
 20199,0.00000161,-0.00001661,-0.00003938,-0.00008169,0.00004545,0.0000
 4857,-0.00002532,-0.00012407,-0.00012815,-0.00000192,0.00002073,-0.000
 00106,0.00005086,0.00006697,0.00006256,-0.00000708,-0.00000342,-0.0000
 1978,0.00006571,-0.00000042,-0.00000053,-0.00002529,0.00001490,0.00000
 552,0.04687711,-0.09936497,0.05001121,-0.00054073,-0.00591299,0.012038
 36,-0.00182978,0.00796318,0.00006963,0.00007632,-0.00001474,0.00001292
 ,0.00003210,0.00003948,0.00001418,0.00000211,0.00000310,-0.00003782,-0
 .00002997,-0.00004316,0.00001580,0.01605549,0.20912011,-0.00221175,-0.
 00115592,-0.00026095,0.00079858,-0.00020703,0.00063648,0.00137389,0.00
 002848,0.00064191,-0.00079591,0.01084517,0.00068993,0.00003515,-0.0002
 5844,0.00137842,-0.00016525,0.00019621,0.00013926,-0.00029981,0.000066
 38,0.00019766,-0.00038318,0.00006224,0.00037854,-0.00038737,-0.0002639
 2,0.00000335,0.00018509,-0.00015008,0.00013526,-0.00001003,0.00025360,
 -0.00022471,0.00012392,0.00008367,-0.00010186,-0.00008622,-0.00002294,
 0.00012736,-0.00002814,0.00003609,0.00006733,0.00001205,0.00001614,0.0
 0005762,0.00002572,-0.00002364,0.00002316,-0.00001576,-0.00000744,-0.0
 0003590,-0.00000367,-0.00000709,0.00002198,-0.00002507,-0.00000290,0.0
 0000213,0.00000352,0.00000351,0.00000179,-0.07009503,0.05267709,-0.121
 34937,-0.00278514,0.01352441,-0.02142322,-0.01050582,0.01840008,-0.028
 46939,0.00004889,0.00000356,-0.00008497,-0.00002232,-0.00001339,0.0000
 1116,-0.00002407,-0.00001088,0.00004762,-0.00001037,0.00004636,0.00000
 884,0.00364303,-0.15006532,0.23122431,-0.00017548,0.00008572,-0.000405
 39,0.00010377,-0.00008515,0.00008939,-0.00005539,0.00002323,0.00029849
 ,0.00183386,0.00058786,-0.00103830,-0.00010380,0.00010681,0.00005021,-
 0.00066331,-0.00045188,0.00020087,0.00034837,0.00007860,-0.00026478,-0
 .00041089,0.00096732,-0.00045011,-0.00021993,-0.00089169,-0.00091831,-
 0.00016100,0.00054280,-0.00001571,0.00031517,0.00079982,0.00064895,0.0
 0016222,0.00024298,0.00005734,0.00007071,-0.00007696,-0.00008389,-0.00
 013026,0.00010500,0.00007551,0.00005082,-0.00002547,-0.00001387,-0.000
 01786,0.00002553,-0.00002545,0.00000460,0.00001998,-0.00000449,0.00001
 142,-0.00000893,-0.00000289,-0.00002221,-0.00001409,-0.00000702,-0.000
 00686,0.00002770,0.00001108,0.00458818,-0.00037534,0.00912189,0.004020
 14,-0.00037410,-0.00162235,0.00314691,0.00090853,-0.00051381,0.0000171
 6,-0.00003355,-0.00001330,-0.00007745,0.00003106,-0.00001733,0.0000695
 7,0.00001632,-0.00006909,-0.00000133,0.00000210,0.00012355,-0.16098289
 ,-0.03216362,0.07272143,0.19137590,0.00009722,-0.00018193,-0.00002126,
 0.00006150,-0.00007288,0.00003048,-0.00010217,0.00014065,0.00030087,-0
 .00050639,0.00014728,0.00003511,0.00021478,0.00017680,-0.00024866,0.00
 131386,-0.00221821,-0.00150992,0.00032045,-0.00059898,0.00066964,0.001
 14084,-0.00220955,0.00123407,0.00015564,-0.00017223,-0.00029458,0.0000
 3325,0.00000693,0.00003133,-0.00024857,-0.00051286,0.00002129,-0.00006
 151,-0.00019854,0.00028955,0.00006317,0.00000676,-0.00013195,0.0000446
 4,0.00004944,-0.00008196,-0.00002670,-0.00008070,-0.00012615,-0.000023
 69,0.00003891,-0.00002270,0.00004375,0.00004665,0.00006043,0.00000439,
 -0.00000142,-0.00002675,0.00004271,-0.00000077,-0.00000682,-0.00001987
 ,0.00002012,0.00000479,-0.03057646,-0.00852631,0.01448428,0.00254310,-
 0.00313387,0.00241810,0.00193966,0.00174366,-0.00179592,0.00000597,-0.
 00003889,0.00008838,0.00000078,0.00004912,-0.00001937,0.00006543,0.000
 01965,-0.00009108,-0.00000718,-0.00004754,0.00004473,-0.05078492,-0.07
 746495,0.05515570,-0.04181179,0.57285282,-0.00046275,0.00019227,-0.000
 13630,0.00017465,0.00006621,0.00013627,0.00015042,0.00015793,0.0000955
 4,-0.00158145,-0.00156431,0.00274937,0.00022789,-0.00072915,0.00001336
 ,-0.00006449,0.00092205,-0.00024515,-0.00026276,0.00015560,0.00031806,
 0.00011625,-0.00038073,0.00023704,-0.00034324,-0.00067397,-0.00020991,
 -0.00004792,0.00026424,0.00004664,0.00029088,0.00067748,0.00007443,0.0
 0009541,0.00037458,-0.00024763,-0.00008289,-0.00005488,0.00010430,-0.0
 0014069,0.00003861,0.00009477,0.00002006,-0.00000830,0.00012152,0.0000
 1821,-0.00000984,0.00001799,-0.00002526,0.00000010,-0.00005993,-0.0000
 0345,-0.00001083,0.00002623,-0.00003895,-0.00000702,0.00000366,0.00000
 325,0.00000755,0.00000515,0.03624891,0.01131650,-0.02794049,-0.0035820
 5,0.00648984,-0.00438071,0.00261101,-0.00180771,0.00478771,0.00004650,
 0.00000500,-0.00013975,-0.00005361,-0.00000955,0.00001254,-0.00000917,
 -0.00001144,0.00003882,0.00000108,0.00003319,0.00007922,0.04822182,0.0
 2670585,-0.06043648,-0.11344674,0.02501689,0.11060749,0.00007916,-0.00
 011878,-0.00002167,-0.00000147,-0.00003329,0.00000188,-0.00001534,0.00
 008680,0.00009586,-0.00047364,-0.00045158,0.00047868,0.00013067,-0.000
 04552,-0.00011718,0.00004257,0.00022555,0.00054862,-0.00012891,0.00019
 637,-0.00029708,0.00016242,-0.00023777,-0.00061461,0.00016673,0.000449
 81,0.00012447,-0.00008451,-0.00009104,-0.00005816,0.00009178,-0.000080
 17,0.00003967,-0.00001822,-0.00005316,-0.00008599,0.00001680,0.0000329
 2,0.00003156,0.00002851,-0.00006950,-0.00000602,0.00002528,0.00010136,
 0.00004132,0.00000293,-0.00004147,0.00000857,-0.00002834,-0.00005120,-
 0.00001752,-0.00000338,0.00001184,0.00000831,-0.00001092,0.00000885,0.
 00000545,0.00001791,-0.00003184,-0.00001059,-0.00445816,-0.00030934,-0
 .00074274,0.00035830,-0.00043222,0.00037152,0.00058595,0.00064814,-0.0
 0050137,-0.00004303,0.00002515,-0.00001491,0.00004457,-0.00004635,0.00
 001626,-0.00007057,-0.00000378,0.00008615,0.00001821,0.00003950,-0.000
 11805,-0.00932988,-0.04416677,0.00888364,-0.04309015,0.11607812,0.0319
 1907,0.05598474,-0.00008605,0.00004941,0.00004201,0.00001635,0.0000787
 9,0.00001054,-0.00003040,-0.00008189,-0.00003697,-0.00026652,0.0001290
 4,-0.00032210,-0.00007954,0.00022038,0.00004238,0.00019980,0.00007969,
 -0.00082625,-0.00004070,-0.00002166,0.00026136,0.00022702,-0.00043059,
 0.00047005,-0.00017563,-0.00017735,-0.00003667,0.00002002,0.00004525,0
 .00003168,0.00011311,0.00008556,0.00005938,0.00002845,0.00005110,-0.00
 007267,-0.00001695,-0.00000911,0.00002796,-0.00003221,0.00000965,0.000
 02292,0.00001891,0.00002028,0.00004812,0.00000420,-0.00001038,0.000003
 36,-0.00001314,-0.00001274,-0.00002216,0.00000202,0.00000056,0.0000096
 4,-0.00002098,-0.00000069,-0.00000108,0.00000530,-0.00000368,0.0000005
 8,-0.00033208,-0.00231700,0.00139316,0.00000063,0.00029447,-0.00030669
 ,-0.00020806,-0.00030475,0.00007181,0.00000412,-0.00001149,-0.00004689
 ,-0.00002627,-0.00000414,-0.00000058,0.00000052,0.00000472,0.00002170,
 0.00001645,0.00002766,0.00001844,0.00057105,-0.00620585,0.00079030,0.0
 7174120,-0.47983914,-0.06715615,-0.07164063,0.48833390,0.00012764,-0.0
 0014569,0.00001708,-0.00005824,-0.00003128,-0.00007068,-0.00001099,-0.
 00002572,-0.00003251,-0.00016442,0.00001533,-0.00068340,-0.00010160,0.
 00012060,0.00011341,0.00011472,-0.00021051,-0.00021097,0.00005820,-0.0
 0013717,0.00007693,-0.00026848,0.00026609,0.00025033,-0.00002712,0.000
 26646,0.00010689,0.00003889,-0.00004272,0.00002145,-0.00008195,-0.0000
 4611,-0.00002762,-0.00005609,-0.00008318,0.00009089,0.00001094,0.00001
 918,-0.00003131,0.00003559,-0.00003164,-0.00003427,0.00000312,0.000026
 47,-0.00005291,-0.00000475,0.00000489,-0.00000701,0.00000369,-0.000017
 73,0.00003393,0.00000075,0.00000789,-0.00001717,0.00001733,0.00000535,
 -0.00000097,0.00000391,-0.00001104,-0.00000823,0.00467562,0.00301514,-
 0.00005626,-0.00027147,0.00053203,-0.00090494,-0.00066197,0.00002595,-
 0.00074503,-0.00005525,-0.00001027,0.00010860,0.00003612,-0.00000144,-
 0.00000878,-0.00000444,0.00000603,-0.00001580,0.00001253,-0.00000533,-
 0.00007094,0.00116876,0.02649411,-0.00340727,0.03551412,-0.09550852,-0
 .02577375,-0.04005516,0.06550283,0.03134030\\0.00000012,-0.00000086,-0
 .00000287,0.00000136,-0.00000088,-0.00000564,0.00000080,0.00000004,-0.
 00000237,0.00000024,-0.00000196,-0.00000138,0.00000076,-0.00000401,-0.
 00000305,0.00000063,0.00000022,-0.00000222,0.00000086,0.00000092,-0.00
 000407,0.00000008,0.00000221,-0.00000062,-0.00000003,-0.00000071,-0.00
 000078,0.00000037,-0.00000276,-0.00000157,-0.00000023,-0.00000094,0.00
 000187,0.00000018,0.00000159,-0.00000109,-0.00000009,0.00000362,-0.000
 00011,0.00000064,0.00000214,-0.00000344,0.00000005,0.00000051,-0.00000
 010,0.00000027,-0.00000142,-0.00000113,0.00000018,0.00000292,-0.000001
 12,-0.00000015,0.00000507,-0.00000010,0.00000004,0.00000224,-0.0000004
 5,0.00000063,0.00000321,-0.00000345,-0.00000014,-0.00000353,0.00000147
 ,-0.00000012,-0.00000495,0.00000120,-0.00000037,-0.00000399,0.00000240
 ,-0.00000072,0.00000027,0.00000315,-0.00000076,-0.00000045,0.00000384,
 -0.00000092,0.00000218,0.00000426,-0.00000084,-0.00000149,0.00000393,-
 0.00000069,-0.00000104,0.00000300,-0.00000084,0.00000119,0.00000416,-0
 .00000129,0.00000066,0.00000628\\\@
 Job cpu time:  0 days  7 hours 48 minutes 54.4 seconds.
 File lengths (MBytes):  RWF=  72067 Int=      0 D2E=      0 Chk=     32 Scr=      1
 Normal termination of Gaussian 09 at Fri Feb  7 13:31:37 2014.
