 Entering Gaussian System, Link 0=g09
 Initial command:
 /usr/caen/gaussian-09revc/g09/l1.exe /scratch/avioli_flux/hetanjin/scratch/Gau-14638.inp -scrdir=/scratch/avioli_flux/hetanjin/scratch/
 Entering Link 1 = /usr/caen/gaussian-09revc/g09/l1.exe PID=     14743.
  
 Copyright (c) 1988,1990,1992,1993,1995,1998,2003,2009,2011,
            Gaussian, Inc.  All Rights Reserved.
  
 This is part of the Gaussian(R) 09 program.  It is based on
 the Gaussian(R) 03 system (copyright 2003, Gaussian, Inc.),
 the Gaussian(R) 98 system (copyright 1998, Gaussian, Inc.),
 the Gaussian(R) 94 system (copyright 1995, Gaussian, Inc.),
 the Gaussian 92(TM) system (copyright 1992, Gaussian, Inc.),
 the Gaussian 90(TM) system (copyright 1990, Gaussian, Inc.),
 the Gaussian 88(TM) system (copyright 1988, Gaussian, Inc.),
 the Gaussian 86(TM) system (copyright 1986, Carnegie Mellon
 University), and the Gaussian 82(TM) system (copyright 1983,
 Carnegie Mellon University). Gaussian is a federally registered
 trademark of Gaussian, Inc.
  
 This software contains proprietary and confidential information,
 including trade secrets, belonging to Gaussian, Inc.
  
 This software is provided under written license and may be
 used, copied, transmitted, or stored only in accord with that
 written license.
  
 The following legend is applicable only to US Government
 contracts under FAR:
  
                    RESTRICTED RIGHTS LEGEND
  
 Use, reproduction and disclosure by the US Government is
 subject to restrictions as set forth in subparagraphs (a)
 and (c) of the Commercial Computer Software - Restricted
 Rights clause in FAR 52.227-19.
  
 Gaussian, Inc.
 340 Quinnipiac St., Bldg. 40, Wallingford CT 06492
  
  
 ---------------------------------------------------------------
 Warning -- This program may not be used in any manner that
 competes with the business of Gaussian, Inc. or will provide
 assistance to any competitor of Gaussian, Inc.  The licensee
 of this program is prohibited from giving any competitor of
 Gaussian, Inc. access to this program.  By using this program,
 the user acknowledges that Gaussian, Inc. is engaged in the
 business of creating and licensing software in the field of
 computational chemistry and represents and warrants to the
 licensee that it is not a competitor of Gaussian, Inc. and that
 it will not use this program in any manner prohibited above.
 ---------------------------------------------------------------
  

 Cite this work as:
 Gaussian 09, Revision C.01,
 M. J. Frisch, G. W. Trucks, H. B. Schlegel, G. E. Scuseria, 
 M. A. Robb, J. R. Cheeseman, G. Scalmani, V. Barone, B. Mennucci, 
 G. A. Petersson, H. Nakatsuji, M. Caricato, X. Li, H. P. Hratchian, 
 A. F. Izmaylov, J. Bloino, G. Zheng, J. L. Sonnenberg, M. Hada, 
 M. Ehara, K. Toyota, R. Fukuda, J. Hasegawa, M. Ishida, T. Nakajima, 
 Y. Honda, O. Kitao, H. Nakai, T. Vreven, J. A. Montgomery, Jr., 
 J. E. Peralta, F. Ogliaro, M. Bearpark, J. J. Heyd, E. Brothers, 
 K. N. Kudin, V. N. Staroverov, T. Keith, R. Kobayashi, J. Normand, 
 K. Raghavachari, A. Rendell, J. C. Burant, S. S. Iyengar, J. Tomasi, 
 M. Cossi, N. Rega, J. M. Millam, M. Klene, J. E. Knox, J. B. Cross, 
 V. Bakken, C. Adamo, J. Jaramillo, R. Gomperts, R. E. Stratmann, 
 O. Yazyev, A. J. Austin, R. Cammi, C. Pomelli, J. W. Ochterski, 
 R. L. Martin, K. Morokuma, V. G. Zakrzewski, G. A. Voth, 
 P. Salvador, J. J. Dannenberg, S. Dapprich, A. D. Daniels, 
 O. Farkas, J. B. Foresman, J. V. Ortiz, J. Cioslowski, 
 and D. J. Fox, Gaussian, Inc., Wallingford CT, 2010.
 
 ******************************************
 Gaussian 09:  EM64L-G09RevC.01 23-Sep-2011
                10-Feb-2014 
 ******************************************
 %mem=30GB
 %nprocshared=8
 Will use up to    8 processors via shared memory.
 %chk=HO2.chk
 --------------------------------------------------
 #p UB3LYP/6-311++G(d,p) guess=mix stable=(opt,xqc)
 --------------------------------------------------
 1/38=1/1;
 2/12=2,17=6,18=5,40=1/2;
 3/5=4,6=6,7=1111,11=2,16=1,25=1,30=1,74=-5,116=2/1,2,3;
 4/13=-1/1;
 5/5=2,38=5/2;
 6/7=2,8=2,9=2,10=2,28=1/1;
 8/6=1,10=90,11=11/1;
 9/8=-3,42=1,46=1/14;
 5/5=2,8=3,13=1,17=40,38=5/2,8(-2);
 6/7=2,8=2,9=2,10=2,28=1/1;
 99/5=1,9=1/99;
 Leave Link    1 at Mon Feb 10 17:13:48 2014, MaxMem= 4026531840 cpu:       0.5
 (Enter /usr/caen/gaussian-09revc/g09/l101.exe)
 --------------------------------
 HO2 using cbs-qb3 to cal. energy
 --------------------------------
 Charge =  0 Multiplicity = 2
 Symbolic Z-Matrix:
 O                     0.05528  -0.6093    0. 
 H                    -0.88451  -0.87639   0. 
 O                     0.05528   0.71885   0. 
 
 NAtoms=      3 NQM=        0 NQMF=       0 NMMI=      3 NMMIF=      0
                NMic=       0 NMicF=      0.
                    Isotopes and Nuclear Properties:
 (Nuclear quadrupole moments (NQMom) in fm**2, nuclear magnetic moments (NMagM)
  in nuclear magnetons)

  Atom         1           2           3
 IAtWgt=          16           1          16
 AtmWgt=  15.9949146   1.0078250  15.9949146
 NucSpn=           0           1           0
 AtZEff=   0.0000000   0.0000000   0.0000000
 NQMom=    0.0000000   0.0000000   0.0000000
 NMagM=    0.0000000   2.7928460   0.0000000
 Leave Link  101 at Mon Feb 10 17:13:49 2014, MaxMem= 4026531840 cpu:       0.4
 (Enter /usr/caen/gaussian-09revc/g09/l202.exe)
                          Input orientation:                          
 ---------------------------------------------------------------------
 Center     Atomic      Atomic             Coordinates (Angstroms)
 Number     Number       Type             X           Y           Z
 ---------------------------------------------------------------------
      1          8           0        0.055282   -0.609296    0.000000
      2          1           0       -0.884513   -0.876385    0.000000
      3          8           0        0.055282    0.718845    0.000000
 ---------------------------------------------------------------------
                    Distance matrix (angstroms):
                    1          2          3
     1  O    0.000000
     2  H    0.977011   0.000000
     3  O    1.328141   1.851479   0.000000
 Stoichiometry    HO2(2)
 Framework group  CS[SG(HO2)]
 Deg. of freedom     3
 Full point group                 CS      NOp   2
 Largest Abelian subgroup         CS      NOp   2
 Largest concise Abelian subgroup C1      NOp   1
                         Standard orientation:                         
 ---------------------------------------------------------------------
 Center     Atomic      Atomic             Coordinates (Angstroms)
 Number     Number       Type             X           Y           Z
 ---------------------------------------------------------------------
      1          8           0        0.055282   -0.609296    0.000000
      2          1           0       -0.884513   -0.876385    0.000000
      3          8           0        0.055282    0.718845    0.000000
 ---------------------------------------------------------------------
 Rotational constants (GHZ):    622.9630985     33.6784050     31.9510774
 Leave Link  202 at Mon Feb 10 17:13:49 2014, MaxMem= 4026531840 cpu:       0.3
 (Enter /usr/caen/gaussian-09revc/g09/l301.exe)
 Standard basis: 6-311++G(d,p) (5D, 7F)
 Ernie: Thresh=  0.10000D-02 Tol=  0.10000D-05 Strict=F.
 There are    38 symmetry adapted basis functions of A'  symmetry.
 There are    13 symmetry adapted basis functions of A"  symmetry.
 Integral buffers will be    131072 words long.
 Raffenetti 2 integral format.
 Two-electron integral symmetry is turned on.
    51 basis functions,    81 primitive gaussians,    53 cartesian basis functions
     9 alpha electrons        8 beta electrons
       nuclear repulsion energy        32.1193430534 Hartrees.
 IExCor=  402 DFT=T Ex+Corr=B3LYP ExCW=0 ScaHFX=  0.200000
 ScaDFX=  0.800000  0.720000  1.000000  0.810000 ScalE2=  1.000000  1.000000
 IRadAn=      0 IRanWt=     -1 IRanGd=            0 ICorTp=0
 NAtoms=    3 NActive=    3 NUniq=    3 SFac= 1.00D+00 NAtFMM=   60 NAOKFM=F Big=F
 Leave Link  301 at Mon Feb 10 17:13:49 2014, MaxMem= 4026531840 cpu:       0.7
 (Enter /usr/caen/gaussian-09revc/g09/l302.exe)
 NPDir=0 NMtPBC=     1 NCelOv=     1 NCel=       1 NClECP=     1 NCelD=      1
         NCelK=      1 NCelE2=     1 NClLst=     1 CellRange=     0.0.
 One-electron integrals computed using PRISM.
 NBasis=    51 RedAO= T  NBF=    38    13
 NBsUse=    51 1.00D-06 NBFU=    38    13
 Precomputing XC quadrature grid using
 IXCGrd= 2 IRadAn=           0 IRanWt=          -1 IRanGd=           0 AccXCQ= 0.00D+00.
 NRdTot=     194 NPtTot=       24552 NUsed=       25962 NTot=       25994
 NSgBfM=    53    53    53    53    53 NAtAll=     3     3.
 Leave Link  302 at Mon Feb 10 17:13:50 2014, MaxMem= 4026531840 cpu:       3.8
 (Enter /usr/caen/gaussian-09revc/g09/l303.exe)
 DipDrv:  MaxL=1.
 Leave Link  303 at Mon Feb 10 17:13:51 2014, MaxMem= 4026531840 cpu:       1.3
 (Enter /usr/caen/gaussian-09revc/g09/l401.exe)
 Harris functional with IExCor=  402 diagonalized for initial guess.
 ExpMin= 3.60D-02 ExpMax= 8.59D+03 ExpMxC= 1.30D+03 IAcc=3 IRadAn=         5 AccDes= 0.00D+00
 HarFok:  IExCor=  402 AccDes= 0.00D+00 IRadAn=         5 IDoV= 1
 ScaDFX=  1.000000  1.000000  1.000000  1.000000
 FoFCou: FMM=F IPFlag=           0 FMFlag=      100000 FMFlg1=           0
         NFxFlg=           0 DoJE=T BraDBF=F KetDBF=T FulRan=T
         Omega=  0.000000  0.000000  1.000000  0.000000  0.000000 ICntrl=     500 IOpCl=  0
         NMat0=    1 NMatS0=    1 NMatT0=    0 NMatD0=    1 NMtDS0=    0 NMtDT0=    0
         I1Cent=           4 NGrid=           0.
 Petite list used in FoFCou.
 Harris En= -150.940097941352    
 Mixing orbitals, IMix= 1 IMixAn=  0 NRI=1 NE=    9 Coef=  7.07106781D-01  7.07106781D-01
 Mixing orbitals, IMix= 1 IMixAn=  0 NRI=1 NE=    8 Coef= -7.07106781D-01  7.07106781D-01
 Initial guess orbital symmetries:
 Alpha Orbitals:
       Occupied  (A') (A') (A') (A') (A') (A') (A") (A') (?A)
       Virtual   (?A) (A') (A') (A") (A') (A') (A') (A') (A") (A')
                 (A') (A') (A') (A") (A') (A') (A") (A') (A') (A")
                 (A') (A') (A') (A") (A') (A') (A') (A") (A') (A")
                 (A") (A') (A') (A') (A') (A") (A') (A") (A') (A')
                 (A') (A')
 Beta  Orbitals:
       Occupied  (A') (A') (A') (A') (A') (A') (A") (?A)
       Virtual   (?A) (A') (A') (A') (A") (A') (A') (A') (A') (A")
                 (A') (A') (A') (A') (A") (A') (A') (A") (A') (A')
                 (A") (A') (A') (A') (A") (A') (A') (A') (A") (A')
                 (A") (A") (A') (A') (A') (A') (A") (A') (A") (A')
                 (A') (A') (A')
 Initial guess <Sx>= 0.0000 <Sy>= 0.0000 <Sz>= 0.5000 <S**2>= 1.0000 S= 0.6180
 Leave Link  401 at Mon Feb 10 17:13:52 2014, MaxMem= 4026531840 cpu:       5.4
 (Enter /usr/caen/gaussian-09revc/g09/l502.exe)
 UHF open shell SCF:
 Requested convergence on RMS density matrix=1.00D-08 within 128 cycles.
 Requested convergence on MAX density matrix=1.00D-06.
 Requested convergence on             energy=1.00D-06.
 No special actions if energy rises.
 Using DIIS extrapolation, IDIIS=  1040.
 Integral symmetry usage will be decided dynamically.
        25922 words used for storage of precomputed grid.
 Keep R1 and R2 ints in memory in canonical form, NReq=2974257.
 IEnd=       53328 IEndB=       53328 NGot=  4026531840 MDV=  4024448795
 LenX=  4024448795 LenY=  4024445545
 Symmetry not used in FoFDir.
 MinBra= 0 MaxBra= 2 Meth= 1.
 IRaf=       0 NMat=   1 IRICut=       1 DoRegI=T DoRafI=F ISym2E= 0 JSym2E=0.
 An orbital has undefined symmetry, so N**3 symmetry is turned off.

 Cycle   1  Pass 1  IDiag  1:
 Density matrix breaks symmetry, PCut= 1.00D-04
 Density has only Abelian symmetry.
 E= -150.808325710898    
 DIIS: error= 3.07D-02 at cycle   1 NSaved=   1.
 NSaved= 1 IEnMin= 1 EnMin= -150.808325710898     IErMin= 1 ErrMin= 3.07D-02
 ErrMax= 3.07D-02 EMaxC= 1.00D-01 BMatC= 1.44D-01 BMatP= 1.44D-01
 IDIUse=3 WtCom= 6.93D-01 WtEn= 3.07D-01
 Coeff-Com:  0.100D+01
 Coeff-En:   0.100D+01
 Coeff:      0.100D+01
 Gap=     0.049 Goal=   None    Shift=    0.000
 Gap=     0.114 Goal=   None    Shift=    0.000
 GapD=    0.049 DampG=0.250 DampE=0.500 DampFc=0.2500 IDamp=-1.
 Damping current iteration by 2.50D-01
 RMSDP=2.01D-02 MaxDP=4.57D-01              OVMax= 6.25D-01

 Cycle   2  Pass 1  IDiag  1:
 Density matrix breaks symmetry, PCut= 1.00D-04
 Density has only Abelian symmetry.
 E= -150.840020440649     Delta-E=       -0.031694729751 Rises=F Damp=T
 DIIS: error= 2.15D-02 at cycle   2 NSaved=   2.
 NSaved= 2 IEnMin= 2 EnMin= -150.840020440649     IErMin= 2 ErrMin= 2.15D-02
 ErrMax= 2.15D-02 EMaxC= 1.00D-01 BMatC= 5.56D-02 BMatP= 1.44D-01
 IDIUse=3 WtCom= 7.85D-01 WtEn= 2.15D-01
 Coeff-Com: -0.584D+00 0.158D+01
 Coeff-En:   0.000D+00 0.100D+01
 Coeff:     -0.459D+00 0.146D+01
 Gap=     0.245 Goal=   None    Shift=    0.000
 Gap=     0.119 Goal=   None    Shift=    0.000
 RMSDP=1.52D-02 MaxDP=3.44D-01 DE=-3.17D-02 OVMax= 1.23D-01

 Cycle   3  Pass 1  IDiag  1:
 Density matrix breaks symmetry, PCut= 1.00D-04
 Density has only Abelian symmetry.
 E= -150.937715626190     Delta-E=       -0.097695185541 Rises=F Damp=F
 DIIS: error= 1.28D-02 at cycle   3 NSaved=   3.
 NSaved= 3 IEnMin= 3 EnMin= -150.937715626190     IErMin= 3 ErrMin= 1.28D-02
 ErrMax= 1.28D-02 EMaxC= 1.00D-01 BMatC= 2.46D-02 BMatP= 5.56D-02
 IDIUse=3 WtCom= 8.72D-01 WtEn= 1.28D-01
 Coeff-Com: -0.174D+00 0.545D+00 0.629D+00
 Coeff-En:   0.000D+00 0.000D+00 0.100D+01
 Coeff:     -0.152D+00 0.475D+00 0.676D+00
 Gap=     0.242 Goal=   None    Shift=    0.000
 Gap=     0.123 Goal=   None    Shift=    0.000
 RMSDP=2.19D-03 MaxDP=2.18D-02 DE=-9.77D-02 OVMax= 1.12D-01

 Cycle   4  Pass 1  IDiag  1:
 Density matrix breaks symmetry, PCut= 1.00D-04
 Density has only Abelian symmetry.
 E= -150.942826107672     Delta-E=       -0.005110481482 Rises=F Damp=F
 DIIS: error= 1.43D-02 at cycle   4 NSaved=   4.
 NSaved= 4 IEnMin= 4 EnMin= -150.942826107672     IErMin= 3 ErrMin= 1.28D-02
 ErrMax= 1.43D-02 EMaxC= 1.00D-01 BMatC= 2.49D-02 BMatP= 2.46D-02
 IDIUse=3 WtCom= 8.57D-01 WtEn= 1.43D-01
 Coeff-Com:  0.139D+00-0.135D+00 0.491D+00 0.505D+00
 Coeff-En:   0.000D+00 0.000D+00 0.183D+00 0.817D+00
 Coeff:      0.119D+00-0.115D+00 0.447D+00 0.550D+00
 Gap=     0.261 Goal=   None    Shift=    0.000
 Gap=     0.130 Goal=   None    Shift=    0.000
 RMSDP=1.19D-03 MaxDP=1.68D-02 DE=-5.11D-03 OVMax= 5.64D-02

 Cycle   5  Pass 1  IDiag  1:
 Density matrix breaks symmetry, PCut= 1.00D-04
 Density has only Abelian symmetry.
 E= -150.949110670709     Delta-E=       -0.006284563038 Rises=F Damp=F
 DIIS: error= 5.04D-03 at cycle   5 NSaved=   5.
 NSaved= 5 IEnMin= 5 EnMin= -150.949110670709     IErMin= 5 ErrMin= 5.04D-03
 ErrMax= 5.04D-03 EMaxC= 1.00D-01 BMatC= 2.43D-03 BMatP= 2.46D-02
 IDIUse=3 WtCom= 9.50D-01 WtEn= 5.04D-02
 Coeff-Com: -0.706D-01 0.975D-01-0.100D+00 0.115D+00 0.958D+00
 Coeff-En:   0.000D+00 0.000D+00 0.000D+00 0.000D+00 0.100D+01
 Coeff:     -0.670D-01 0.926D-01-0.953D-01 0.110D+00 0.960D+00
 Gap=     0.269 Goal=   None    Shift=    0.000
 Gap=     0.138 Goal=   None    Shift=    0.000
 RMSDP=1.27D-03 MaxDP=1.62D-02 DE=-6.28D-03 OVMax= 1.03D-01

 Cycle   6  Pass 1  IDiag  1:
 Density matrix breaks symmetry, PCut= 1.00D-04
 Density has only Abelian symmetry.
 E= -150.952374706986     Delta-E=       -0.003264036277 Rises=F Damp=F
 DIIS: error= 4.08D-03 at cycle   6 NSaved=   6.
 NSaved= 6 IEnMin= 6 EnMin= -150.952374706986     IErMin= 6 ErrMin= 4.08D-03
 ErrMax= 4.08D-03 EMaxC= 1.00D-01 BMatC= 8.23D-04 BMatP= 2.43D-03
 IDIUse=3 WtCom= 9.59D-01 WtEn= 4.08D-02
 Coeff-Com:  0.752D-01-0.667D-01 0.469D-01-0.187D+00-0.499D+00 0.163D+01
 Coeff-En:   0.000D+00 0.000D+00 0.000D+00 0.000D+00 0.000D+00 0.100D+01
 Coeff:      0.721D-01-0.639D-01 0.450D-01-0.179D+00-0.478D+00 0.160D+01
 Gap=     0.275 Goal=   None    Shift=    0.000
 Gap=     0.146 Goal=   None    Shift=    0.000
 RMSDP=1.51D-03 MaxDP=1.75D-02 DE=-3.26D-03 OVMax= 1.28D-01

 Cycle   7  Pass 1  IDiag  1:
 Density matrix breaks symmetry, PCut= 1.00D-04
 Density has only Abelian symmetry.
 E= -150.955362204044     Delta-E=       -0.002987497058 Rises=F Damp=F
 DIIS: error= 2.96D-03 at cycle   7 NSaved=   7.
 NSaved= 7 IEnMin= 7 EnMin= -150.955362204044     IErMin= 7 ErrMin= 2.96D-03
 ErrMax= 2.96D-03 EMaxC= 1.00D-01 BMatC= 3.58D-04 BMatP= 8.23D-04
 IDIUse=3 WtCom= 9.70D-01 WtEn= 2.96D-02
 Coeff-Com:  0.327D-01-0.484D-01 0.153D-01 0.135D+00 0.618D-01-0.129D+01
 Coeff-Com:  0.210D+01
 Coeff-En:   0.000D+00 0.000D+00 0.000D+00 0.000D+00 0.000D+00 0.000D+00
 Coeff-En:   0.100D+01
 Coeff:      0.318D-01-0.469D-01 0.148D-01 0.131D+00 0.600D-01-0.126D+01
 Coeff:      0.207D+01
 Gap=     0.282 Goal=   None    Shift=    0.000
 Gap=     0.154 Goal=   None    Shift=    0.000
 RMSDP=1.65D-03 MaxDP=2.36D-02 DE=-2.99D-03 OVMax= 1.41D-01

 Cycle   8  Pass 1  IDiag  1:
 Density matrix breaks symmetry, PCut= 1.00D-04
 Density has only Abelian symmetry.
 E= -150.957401841015     Delta-E=       -0.002039636971 Rises=F Damp=F
 DIIS: error= 1.48D-03 at cycle   8 NSaved=   8.
 NSaved= 8 IEnMin= 8 EnMin= -150.957401841015     IErMin= 8 ErrMin= 1.48D-03
 ErrMax= 1.48D-03 EMaxC= 1.00D-01 BMatC= 1.25D-04 BMatP= 3.58D-04
 IDIUse=3 WtCom= 9.85D-01 WtEn= 1.48D-02
 Coeff-Com: -0.467D-01 0.754D-01-0.258D-02 0.379D-01 0.720D-01-0.294D+00
 Coeff-Com: -0.100D+00 0.126D+01
 Coeff-En:   0.000D+00 0.000D+00 0.000D+00 0.000D+00 0.000D+00 0.000D+00
 Coeff-En:   0.000D+00 0.100D+01
 Coeff:     -0.460D-01 0.743D-01-0.254D-02 0.374D-01 0.710D-01-0.289D+00
 Coeff:     -0.987D-01 0.125D+01
 Gap=     0.285 Goal=   None    Shift=    0.000
 Gap=     0.155 Goal=   None    Shift=    0.000
 RMSDP=6.90D-04 MaxDP=1.08D-02 DE=-2.04D-03 OVMax= 5.88D-02

 Cycle   9  Pass 1  IDiag  1:
 Density matrix breaks symmetry, PCut= 1.00D-04
 Density has only Abelian symmetry.
 E= -150.957854661929     Delta-E=       -0.000452820914 Rises=F Damp=F
 DIIS: error= 8.62D-04 at cycle   9 NSaved=   9.
 NSaved= 9 IEnMin= 9 EnMin= -150.957854661929     IErMin= 9 ErrMin= 8.62D-04
 ErrMax= 8.62D-04 EMaxC= 1.00D-01 BMatC= 4.55D-05 BMatP= 1.25D-04
 IDIUse=3 WtCom= 9.91D-01 WtEn= 8.62D-03
 Coeff-Com:  0.310D-02-0.882D-02-0.103D-01-0.439D-02 0.814D-01 0.151D+00
 Coeff-Com: -0.695D+00 0.703D-01 0.141D+01
 Coeff-En:   0.000D+00 0.000D+00 0.000D+00 0.000D+00 0.000D+00 0.000D+00
 Coeff-En:   0.000D+00 0.000D+00 0.100D+01
 Coeff:      0.308D-02-0.874D-02-0.102D-01-0.435D-02 0.807D-01 0.149D+00
 Coeff:     -0.689D+00 0.697D-01 0.141D+01
 Gap=     0.288 Goal=   None    Shift=    0.000
 Gap=     0.157 Goal=   None    Shift=    0.000
 RMSDP=7.60D-04 MaxDP=1.20D-02 DE=-4.53D-04 OVMax= 6.50D-02

 Cycle  10  Pass 1  IDiag  1:
 Density matrix breaks symmetry, PCut= 1.00D-04
 Density has only Abelian symmetry.
 E= -150.958060058798     Delta-E=       -0.000205396870 Rises=F Damp=F
 DIIS: error= 2.95D-04 at cycle  10 NSaved=  10.
 NSaved=10 IEnMin=10 EnMin= -150.958060058798     IErMin=10 ErrMin= 2.95D-04
 ErrMax= 2.95D-04 EMaxC= 1.00D-01 BMatC= 8.40D-06 BMatP= 4.55D-05
 IDIUse=3 WtCom= 9.97D-01 WtEn= 2.95D-03
 Coeff-Com:  0.478D-02-0.685D-02 0.183D-02-0.714D-02-0.461D-01 0.138D+00
 Coeff-Com:  0.261D-01-0.269D+00-0.442D-01 0.120D+01
 Coeff-En:   0.000D+00 0.000D+00 0.000D+00 0.000D+00 0.000D+00 0.000D+00
 Coeff-En:   0.000D+00 0.000D+00 0.000D+00 0.100D+01
 Coeff:      0.477D-02-0.683D-02 0.182D-02-0.712D-02-0.460D-01 0.138D+00
 Coeff:      0.260D-01-0.269D+00-0.441D-01 0.120D+01
 Gap=     0.288 Goal=   None    Shift=    0.000
 Gap=     0.155 Goal=   None    Shift=    0.000
 RMSDP=6.53D-05 MaxDP=8.92D-04 DE=-2.05D-04 OVMax= 4.82D-03

 Cycle  11  Pass 1  IDiag  1:
 Density matrix breaks symmetry, PCut= 1.00D-04
 Density has only Abelian symmetry.
 E= -150.958064294980     Delta-E=       -0.000004236182 Rises=F Damp=F
 DIIS: error= 1.84D-04 at cycle  11 NSaved=  11.
 NSaved=11 IEnMin=11 EnMin= -150.958064294980     IErMin=11 ErrMin= 1.84D-04
 ErrMax= 1.84D-04 EMaxC= 1.00D-01 BMatC= 3.06D-06 BMatP= 8.40D-06
 IDIUse=3 WtCom= 9.98D-01 WtEn= 1.84D-03
 Coeff-Com: -0.100D-02 0.169D-02 0.165D-02-0.592D-03-0.595D-02-0.317D-01
 Coeff-Com:  0.666D-01-0.403D-01-0.970D-01 0.356D+00 0.751D+00
 Coeff-En:   0.000D+00 0.000D+00 0.000D+00 0.000D+00 0.000D+00 0.000D+00
 Coeff-En:   0.000D+00 0.000D+00 0.000D+00 0.000D+00 0.100D+01
 Coeff:     -0.100D-02 0.168D-02 0.165D-02-0.591D-03-0.594D-02-0.317D-01
 Coeff:      0.665D-01-0.402D-01-0.968D-01 0.355D+00 0.751D+00
 Gap=     0.287 Goal=   None    Shift=    0.000
 Gap=     0.157 Goal=   None    Shift=    0.000
 RMSDP=7.13D-05 MaxDP=1.08D-03 DE=-4.24D-06 OVMax= 5.94D-03

 Cycle  12  Pass 1  IDiag  1:
 Density matrix breaks symmetry, PCut= 1.00D-04
 Density has only Abelian symmetry.
 E= -150.958065981603     Delta-E=       -0.000001686623 Rises=F Damp=F
 DIIS: error= 6.27D-05 at cycle  12 NSaved=  12.
 NSaved=12 IEnMin=12 EnMin= -150.958065981603     IErMin=12 ErrMin= 6.27D-05
 ErrMax= 6.27D-05 EMaxC= 1.00D-01 BMatC= 3.92D-07 BMatP= 3.06D-06
 IDIUse=1 WtCom= 1.00D+00 WtEn= 0.00D+00
 Coeff-Com:  0.783D-04-0.112D-05-0.530D-05 0.417D-03-0.534D-03-0.230D-02
 Coeff-Com:  0.708D-02 0.428D-04-0.212D-01-0.516D-01 0.217D+00 0.851D+00
 Coeff:      0.783D-04-0.112D-05-0.530D-05 0.417D-03-0.534D-03-0.230D-02
 Coeff:      0.708D-02 0.428D-04-0.212D-01-0.516D-01 0.217D+00 0.851D+00
 Gap=     0.287 Goal=   None    Shift=    0.000
 Gap=     0.156 Goal=   None    Shift=    0.000
 RMSDP=5.21D-06 MaxDP=4.73D-05 DE=-1.69D-06 OVMax= 2.22D-04

 Cycle  13  Pass 1  IDiag  1:
 E= -150.958072123128     Delta-E=       -0.000006141525 Rises=F Damp=F
 DIIS: error= 4.75D-06 at cycle  13 NSaved=  13.
 NSaved=13 IEnMin=13 EnMin= -150.958072123128     IErMin=13 ErrMin= 4.75D-06
 ErrMax= 4.75D-06 EMaxC= 1.00D-01 BMatC= 1.44D-09 BMatP= 3.92D-07
 IDIUse=1 WtCom= 1.00D+00 WtEn= 0.00D+00
 Coeff-Com: -0.529D-04 0.748D-04-0.631D-04-0.245D-04 0.421D-03-0.348D-03
 Coeff-Com: -0.246D-02 0.379D-02 0.340D-02-0.664D-02-0.213D-01-0.376D-01
 Coeff-Com:  0.106D+01
 Coeff:     -0.529D-04 0.748D-04-0.631D-04-0.245D-04 0.421D-03-0.348D-03
 Coeff:     -0.246D-02 0.379D-02 0.340D-02-0.664D-02-0.213D-01-0.376D-01
 Coeff:      0.106D+01
 Gap=     0.287 Goal=   None    Shift=    0.000
 Gap=     0.156 Goal=   None    Shift=    0.000
 RMSDP=1.34D-06 MaxDP=1.83D-05 DE=-6.14D-06 OVMax= 9.04D-05

 Cycle  14  Pass 1  IDiag  1:
 E= -150.958066610502     Delta-E=        0.000005512626 Rises=F Damp=F
 DIIS: error= 4.10D-06 at cycle  14 NSaved=  14.
 NSaved=14 IEnMin=13 EnMin= -150.958072123128     IErMin=14 ErrMin= 4.10D-06
 ErrMax= 4.10D-06 EMaxC= 1.00D-01 BMatC= 1.21D-09 BMatP= 1.44D-09
 IDIUse=1 WtCom= 1.00D+00 WtEn= 0.00D+00
 Coeff-Com:  0.347D-06-0.114D-04-0.257D-04-0.102D-04 0.515D-04 0.295D-03
 Coeff-Com: -0.124D-02 0.902D-03 0.277D-02-0.623D-03-0.212D-01-0.828D-01
 Coeff-Com:  0.292D+00 0.809D+00
 Coeff:      0.347D-06-0.114D-04-0.257D-04-0.102D-04 0.515D-04 0.295D-03
 Coeff:     -0.124D-02 0.902D-03 0.277D-02-0.623D-03-0.212D-01-0.828D-01
 Coeff:      0.292D+00 0.809D+00
 Gap=     0.287 Goal=   None    Shift=    0.000
 Gap=     0.156 Goal=   None    Shift=    0.000
 RMSDP=5.36D-07 MaxDP=7.06D-06 DE= 5.51D-06 OVMax= 3.97D-05

 Cycle  15  Pass 1  IDiag  1:
 E= -150.958065414385     Delta-E=        0.000001196117 Rises=F Damp=F
 DIIS: error= 1.54D-06 at cycle  15 NSaved=  15.
 NSaved=15 IEnMin=13 EnMin= -150.958072123128     IErMin=15 ErrMin= 1.54D-06
 ErrMax= 1.54D-06 EMaxC= 1.00D-01 BMatC= 1.71D-10 BMatP= 1.21D-09
 IDIUse=1 WtCom= 1.00D+00 WtEn= 0.00D+00
 Coeff-Com: -0.118D-04 0.156D-04 0.250D-05-0.127D-04 0.641D-04-0.105D-03
 Coeff-Com: -0.367D-03 0.409D-03 0.102D-02-0.100D-02-0.385D-02-0.917D-02
 Coeff-Com:  0.580D-01-0.558D+00 0.151D+01
 Coeff:     -0.118D-04 0.156D-04 0.250D-05-0.127D-04 0.641D-04-0.105D-03
 Coeff:     -0.367D-03 0.409D-03 0.102D-02-0.100D-02-0.385D-02-0.917D-02
 Coeff:      0.580D-01-0.558D+00 0.151D+01
 Gap=     0.287 Goal=   None    Shift=    0.000
 Gap=     0.156 Goal=   None    Shift=    0.000
 RMSDP=2.72D-07 MaxDP=2.74D-06 DE= 1.20D-06 OVMax= 1.58D-05

 Cycle  16  Pass 1  IDiag  1:
 E= -150.958066156288     Delta-E=       -0.000000741903 Rises=F Damp=F
 DIIS: error= 5.77D-07 at cycle  16 NSaved=  16.
 NSaved=16 IEnMin=13 EnMin= -150.958072123128     IErMin=16 ErrMin= 5.77D-07
 ErrMax= 5.77D-07 EMaxC= 1.00D-01 BMatC= 3.73D-11 BMatP= 1.71D-10
 IDIUse=1 WtCom= 1.00D+00 WtEn= 0.00D+00
 Coeff-Com:  0.240D-05-0.496D-05 0.184D-05 0.733D-05-0.367D-05-0.164D-04
 Coeff-Com:  0.750D-04-0.146D-03 0.824D-04-0.222D-03 0.446D-03-0.587D-02
 Coeff-Com: -0.480D-01-0.571D-01 0.252D+00 0.858D+00
 Coeff:      0.240D-05-0.496D-05 0.184D-05 0.733D-05-0.367D-05-0.164D-04
 Coeff:      0.750D-04-0.146D-03 0.824D-04-0.222D-03 0.446D-03-0.587D-02
 Coeff:     -0.480D-01-0.571D-01 0.252D+00 0.858D+00
 Gap=     0.287 Goal=   None    Shift=    0.000
 Gap=     0.156 Goal=   None    Shift=    0.000
 RMSDP=1.17D-07 MaxDP=1.56D-06 DE=-7.42D-07 OVMax= 8.83D-06

 Cycle  17  Pass 1  IDiag  1:
 E= -150.958065915986     Delta-E=        0.000000240302 Rises=F Damp=F
 DIIS: error= 6.07D-08 at cycle  17 NSaved=  17.
 NSaved=17 IEnMin=13 EnMin= -150.958072123128     IErMin=17 ErrMin= 6.07D-08
 ErrMax= 6.07D-08 EMaxC= 1.00D-01 BMatC= 8.27D-13 BMatP= 3.73D-11
 IDIUse=1 WtCom= 1.00D+00 WtEn= 0.00D+00
 Coeff-Com:  0.288D-06-0.490D-06 0.124D-05-0.594D-06-0.252D-05 0.450D-05
 Coeff-Com: -0.591D-06-0.286D-04 0.488D-04-0.932D-04 0.137D-03-0.219D-03
 Coeff-Com: -0.127D-01 0.166D-01-0.533D-02 0.989D-01 0.903D+00
 Coeff:      0.288D-06-0.490D-06 0.124D-05-0.594D-06-0.252D-05 0.450D-05
 Coeff:     -0.591D-06-0.286D-04 0.488D-04-0.932D-04 0.137D-03-0.219D-03
 Coeff:     -0.127D-01 0.166D-01-0.533D-02 0.989D-01 0.903D+00
 Gap=     0.287 Goal=   None    Shift=    0.000
 Gap=     0.156 Goal=   None    Shift=    0.000
 RMSDP=3.30D-08 MaxDP=5.06D-07 DE= 2.40D-07 OVMax= 2.75D-06

 Cycle  18  Pass 1  IDiag  1:
 E= -150.958066061687     Delta-E=       -0.000000145701 Rises=F Damp=F
 DIIS: error= 5.53D-08 at cycle  18 NSaved=  18.
 NSaved=18 IEnMin=13 EnMin= -150.958072123128     IErMin=18 ErrMin= 5.53D-08
 ErrMax= 5.53D-08 EMaxC= 1.00D-01 BMatC= 1.30D-13 BMatP= 8.27D-13
 IDIUse=1 WtCom= 1.00D+00 WtEn= 0.00D+00
 Coeff-Com:  0.657D-07-0.119D-06 0.828D-07 0.157D-06 0.467D-06-0.243D-06
 Coeff-Com:  0.378D-05-0.193D-05-0.106D-04 0.755D-05-0.110D-04 0.150D-03
 Coeff-Com: -0.196D-02 0.100D-01 0.505D-02-0.765D-01-0.909D-01 0.115D+01
 Coeff:      0.657D-07-0.119D-06 0.828D-07 0.157D-06 0.467D-06-0.243D-06
 Coeff:      0.378D-05-0.193D-05-0.106D-04 0.755D-05-0.110D-04 0.150D-03
 Coeff:     -0.196D-02 0.100D-01 0.505D-02-0.765D-01-0.909D-01 0.115D+01
 Gap=     0.287 Goal=   None    Shift=    0.000
 Gap=     0.156 Goal=   None    Shift=    0.000
 RMSDP=4.29D-09 MaxDP=4.77D-08 DE=-1.46D-07 OVMax= 2.28D-07

 SCF Done:  E(UB3LYP) =  -150.958066062     A.U. after   18 cycles
             Convg  =    0.4287D-08             -V/T =  2.0025
 <Sx>= 0.0000 <Sy>= 0.0000 <Sz>= 0.5000 <S**2>= 0.7537 S= 0.5019
 <L.S>= 0.000000000000E+00
 KE= 1.505865979125D+02 PE=-4.215295009499D+02 EE= 8.786549392232D+01
 Annihilation of the first spin contaminant:
 S**2 before annihilation     0.7537,   after     0.7500
 Leave Link  502 at Mon Feb 10 17:13:54 2014, MaxMem= 4026531840 cpu:      11.3
 (Enter /usr/caen/gaussian-09revc/g09/l601.exe)
 Copying SCF densities to generalized density rwf, IOpCl= 1 IROHF=0.

 **********************************************************************

            Population analysis using the SCF density.

 **********************************************************************

 Orbital symmetries:
 Alpha Orbitals:
       Occupied  (A') (A') (A') (A') (A') (A") (A') (A") (A')
       Virtual   (A') (A') (A') (A") (A') (A') (A') (A") (A') (A')
                 (A') (A') (A") (A') (A') (A') (A") (A') (A') (A")
                 (A') (A') (A') (A") (A') (A') (A') (A") (A') (A")
                 (A") (A') (A') (A') (A') (A") (A') (A") (A') (A')
                 (A') (A')
 Beta  Orbitals:
       Occupied  (A') (A') (A') (A') (A') (A') (A") (A')
       Virtual   (A") (A') (A') (A') (A") (A') (A') (A') (A') (A")
                 (A') (A') (A') (A') (A') (A") (A') (A') (A") (A")
                 (A') (A') (A') (A') (A") (A') (A') (A') (A") (A')
                 (A") (A") (A') (A') (A') (A') (A") (A') (A") (A')
                 (A') (A') (A')
 The electronic state is 2-A".
 Alpha  occ. eigenvalues --  -19.26192 -19.22274  -1.21794  -0.89013  -0.58099
 Alpha  occ. eigenvalues --   -0.51088  -0.49607  -0.32059  -0.31478
 Alpha virt. eigenvalues --   -0.02741   0.04628   0.10444   0.12916   0.14573
 Alpha virt. eigenvalues --    0.16341   0.19061   0.20185   0.20250   0.22552
 Alpha virt. eigenvalues --    0.32911   0.47918   0.92897   0.93348   0.95340
 Alpha virt. eigenvalues --    0.97161   1.00584   1.04253   1.29012   1.29354
 Alpha virt. eigenvalues --    1.42606   1.51757   1.94254   2.35115   2.39747
 Alpha virt. eigenvalues --    2.56283   2.63496   2.71854   2.77497   3.01185
 Alpha virt. eigenvalues --    3.24145   3.36592   3.64154   3.81469   4.72246
 Alpha virt. eigenvalues --    4.74802   4.88670   4.91729   5.31337   5.90345
 Alpha virt. eigenvalues --   49.70393  49.72604
  Beta  occ. eigenvalues --  -19.25312 -19.20178  -1.19056  -0.84856  -0.56527
  Beta  occ. eigenvalues --   -0.48046  -0.43174  -0.29531
  Beta virt. eigenvalues --   -0.13884  -0.02551   0.05849   0.10578   0.13697
  Beta virt. eigenvalues --    0.14790   0.17378   0.19133   0.20467   0.21425
  Beta virt. eigenvalues --    0.22680   0.33237   0.48105   0.93809   0.95728
  Beta virt. eigenvalues --    0.96006   0.97995   1.05007   1.05320   1.29877
  Beta virt. eigenvalues --    1.29981   1.43796   1.52923   1.94581   2.39154
  Beta virt. eigenvalues --    2.40818   2.57006   2.65640   2.77852   2.83889
  Beta virt. eigenvalues --    3.03929   3.29023   3.37472   3.66143   3.82679
  Beta virt. eigenvalues --    4.73251   4.80431   4.90319   4.98773   5.32216
  Beta virt. eigenvalues --    5.91814  49.71877  49.74098
          Condensed to atoms (all electrons):
              1          2          3
     1  O    7.762521   0.243520   0.115073
     2  H    0.243520   0.540457  -0.051341
     3  O    0.115073  -0.051341   8.082517
 Mulliken atomic charges:
              1
     1  O   -0.121114
     2  H    0.267364
     3  O   -0.146250
 Sum of Mulliken atomic charges =   0.00000
 Mulliken charges with hydrogens summed into heavy atoms:
              1
     1  O    0.146250
     3  O   -0.146250
 Sum of Mulliken charges with hydrogens summed into heavy atoms =   0.00000
          Atomic-Atomic Spin Densities.
              1          2          3
     1  O    0.412630   0.003458  -0.146161
     2  H    0.003458  -0.015116   0.001209
     3  O   -0.146161   0.001209   0.885474
 Mulliken atomic spin densities:
              1
     1  O    0.269927
     2  H   -0.010449
     3  O    0.740522
 Sum of Mulliken atomic spin densities =   1.00000
 Electronic spatial extent (au):  <R**2>=             55.2677
 Charge=              0.0000 electrons
 Dipole moment (field-independent basis, Debye):
    X=             -1.8550    Y=             -1.4919    Z=              0.0000  Tot=              2.3805
 Quadrupole moment (field-independent basis, Debye-Ang):
   XX=            -10.1292   YY=            -11.2724   ZZ=            -11.1323
   XY=              1.7591   XZ=              0.0000   YZ=              0.0000
 Traceless Quadrupole moment (field-independent basis, Debye-Ang):
   XX=              0.7154   YY=             -0.4278   ZZ=             -0.2877
   XY=              1.7591   XZ=              0.0000   YZ=              0.0000
 Octapole moment (field-independent basis, Debye-Ang**2):
  XXX=             -2.2400  YYY=             -1.9390  ZZZ=              0.0000  XYY=             -1.8720
  XXY=             -2.1262  XXZ=              0.0000  XZZ=             -0.2601  YZZ=              0.0463
  YYZ=              0.0000  XYZ=              0.0000
 Hexadecapole moment (field-independent basis, Debye-Ang**3):
 XXXX=             -9.9952 YYYY=            -37.9003 ZZZZ=             -8.6523 XXXY=              0.2876
 XXXZ=              0.0000 YYYX=              0.6611 YYYZ=              0.0000 ZZZX=              0.0000
 ZZZY=              0.0000 XXYY=             -8.1069 XXZZ=             -3.3579 YYZZ=             -8.2712
 XXYZ=              0.0000 YYXZ=              0.0000 ZZXY=             -0.2480
 N-N= 3.211934305340D+01 E-N=-6.256098130131D+02  KE= 2.242403690240D+02
 Symmetry A'   KE= 2.146800051597D+02
 Symmetry A"   KE= 9.560363864298D+00
                          Isotropic Fermi Contact Couplings
        Atom                 a.u.       MegaHertz       Gauss      10(-4) cm-1
     1  O(17)              0.03450     -20.91111      -7.46161      -6.97520
     2  H(1)              -0.00574     -25.66882      -9.15927      -8.56220
     3  O(17)              0.05503     -33.35947     -11.90349     -11.12752
 --------------------------------------------------------
       Center         ----  Spin Dipole Couplings  ----
                      3XX-RR        3YY-RR        3ZZ-RR
 --------------------------------------------------------
     1   Atom       -0.716287     -0.757926      1.474213
     2   Atom        0.046720     -0.020247     -0.026473
     3   Atom       -1.626006     -1.647615      3.273622
 --------------------------------------------------------
                        XY            XZ            YZ
 --------------------------------------------------------
     1   Atom        0.025108      0.000000      0.000000
     2   Atom        0.041204      0.000000      0.000000
     3   Atom       -0.007835      0.000000      0.000000
 --------------------------------------------------------


 ---------------------------------------------------------------------------------
              Anisotropic Spin Dipole Couplings in Principal Axis System
 ---------------------------------------------------------------------------------

       Atom             a.u.   MegaHertz   Gauss  10(-4) cm-1        Axes

              Baa    -0.7697    55.697    19.874    18.578 -0.4253  0.9051  0.0000
     1 O(17)  Bbb    -0.7045    50.976    18.190    17.004  0.9051  0.4253  0.0000
              Bcc     1.4742  -106.673   -38.064   -35.582  0.0000  0.0000  1.0000
 
              Baa    -0.0399   -21.266    -7.588    -7.094 -0.4297  0.9030  0.0000
     2 H(1)   Bbb    -0.0265   -14.125    -5.040    -4.712  0.0000  0.0000  1.0000
              Bcc     0.0663    35.391    12.628    11.805  0.9030  0.4297  0.0000
 
              Baa    -1.6502   119.404    42.606    39.829  0.3086  0.9512  0.0000
     3 O(17)  Bbb    -1.6235   117.473    41.917    39.185  0.9512 -0.3086  0.0000
              Bcc     3.2736  -236.877   -84.524   -79.014  0.0000  0.0000  1.0000
 

 ---------------------------------------------------------------------------------

 No NMR shielding tensors so no spin-rotation constants.
 Leave Link  601 at Mon Feb 10 17:13:56 2014, MaxMem= 4026531840 cpu:       6.8
 (Enter /usr/caen/gaussian-09revc/g09/l801.exe)
 Range of M.O.s used for correlation:     1    51
 NBasis=    51 NAE=     9 NBE=     8 NFC=     0 NFV=     0
 NROrb=     51 NOA=     9 NOB=     8 NVA=    42 NVB=    43

 **** Warning!!: The largest alpha MO coefficient is  0.16762586D+02


 **** Warning!!: The largest beta MO coefficient is  0.16730799D+02

 Leave Link  801 at Mon Feb 10 17:13:56 2014, MaxMem= 4026531840 cpu:       0.1
 (Enter /usr/caen/gaussian-09revc/g09/l914.exe)
 UHF ground state
 Doing stability rather than CIS.
 MDV=  4026531840 DFT=T DoStab=T Mixed=T DoRPA=F DoScal=F NonHer=F
 Keep R1 and R2 ints in memory in canonical form, NReq=11609411.
 Symmetry not used in FoFDir.
 MinBra= 0 MaxBra= 2 Meth= 1.
 IRaf=       0 NMat=   1 IRICut=       1 DoRegI=T DoRafI=F ISym2E= 0 JSym2E=0.
 Making orbital integer symmetry assigments:
 Orbital symmetries:
 Alpha Orbitals:
       Occupied  (A') (A') (A') (A') (A') (A") (A') (A") (A')
       Virtual   (A') (A') (A') (A") (A') (A') (A') (A") (A') (A')
                 (A') (A') (A") (A') (A') (A') (A") (A') (A') (A")
                 (A') (A') (A') (A") (A') (A') (A') (A") (A') (A")
                 (A") (A') (A') (A') (A') (A") (A') (A") (A') (A')
                 (A') (A')
 Beta  Orbitals:
       Occupied  (A') (A') (A') (A') (A') (A') (A") (A')
       Virtual   (A") (A') (A') (A') (A") (A') (A') (A') (A') (A")
                 (A') (A') (A') (A') (A') (A") (A') (A') (A") (A")
                 (A') (A') (A') (A') (A") (A') (A') (A') (A") (A')
                 (A") (A") (A') (A') (A') (A') (A") (A') (A") (A')
                 (A') (A') (A')
    12 initial guesses have been made.
 Convergence on wavefunction:    0.001000000000000
 Davidson Disk Diagonalization:  ConvIn= 1.00D-03 SkipCon=T Conv= 1.00D-03.
 Max sub-space:   200 roots to seek:    12 dimension of matrix:    722
 Iteration     1 Dimension    12 NMult    12
 CISAX:  IP=  1 NPass=   1 NMax=    12.
 CISAX will form    12 AO SS matrices at one time.
 NMat=    12 NSing=    12.
 Excitation Energies [eV] at current iteration:
 Root      1 :     1.166108119383971
 Root      2 :     5.941020909397527
 Root      3 :     6.565664295134589
 Root      4 :     6.603535344141275
 Root      5 :     6.855735367451673
 Root      6 :     7.064296198490926
 Root      7 :     8.055075913365341
 Root      8 :     8.581475359734965
 Root      9 :     9.541751559143224
 Root     10 :     9.723875727174626
 Root     11 :    10.012815332261110
 Root     12 :    11.933791063748620
 Iteration     2 Dimension    24 NMult    24
 CISAX:  IP=  1 NPass=   1 NMax=    12.
 CISAX will form    12 AO SS matrices at one time.
 NMat=    12 NSing=    12.
 Root      1 not converged, maximum delta is    0.051132020379390
 Excitation Energies [eV] at current iteration:
 Root      1 :     0.963470481587124   Change is   -0.202637637796848
 Root      2 :     5.538612090276553   Change is   -0.402408819120974
 Root      3 :     5.978440383996386
 Iteration     3 Dimension    27 NMult    27
 CISAX:  IP=  1 NPass=   1 NMax=     3.
 CISAX will form     3 AO SS matrices at one time.
 NMat=     3 NSing=     3.
 Root      1 not converged, maximum delta is    0.007145232583539
 Excitation Energies [eV] at current iteration:
 Root      1 :     0.959979649107897   Change is   -0.003490832479227
 Root      2 :     5.521528934448588   Change is   -0.017083155827965
 Root      3 :     5.752411397268790   Change is   -0.226028986727596
 Iteration     4 Dimension    30 NMult    30
 CISAX:  IP=  1 NPass=   1 NMax=     3.
 CISAX will form     3 AO SS matrices at one time.
 NMat=     3 NSing=     3.
 Root      1 not converged, maximum delta is    0.001115871017998
 Excitation Energies [eV] at current iteration:
 Root      1 :     0.959917092334243   Change is   -0.000062556773654
 Root      2 :     5.519216432650365   Change is   -0.002312501798222
 Root      3 :     5.732237750795043   Change is   -0.020173646473747
 Iteration     5 Dimension    33 NMult    33
 CISAX:  IP=  1 NPass=   1 NMax=     3.
 CISAX will form     3 AO SS matrices at one time.
 NMat=     3 NSing=     3.
 Root      1 has converged.
 Excitation Energies [eV] at current iteration:
 Root      1 :     0.959915666557795   Change is   -0.000001425776448
 Root      2 :     5.518672955291654   Change is   -0.000543477358711
 Root      3 :     5.729798684898534   Change is   -0.002439065896508
 Convergence achieved on expansion vectors.
 ***********************************************************************
 Stability analysis using <AA,BB:AA,BB> singles matrix:
 ***********************************************************************

 Eigenvectors of the stability matrix:
 
 Eigenvector   1:  1.000-A"   Eigenvalue= 0.0352763  <S**2>=0.000
      8B ->  9B        0.99338
 SavETr:  write IOETrn=   770 NScale= 10 NData=  16 NLR=1 LETran=      28.
 The wavefunction is stable under the perturbations considered.
 Leave Link  914 at Mon Feb 10 17:14:01 2014, MaxMem= 4026531840 cpu:      31.7
 (Enter /usr/caen/gaussian-09revc/g09/l502.exe)
 The wavefunction is already stable.
 Leave Link  502 at Mon Feb 10 17:14:01 2014, MaxMem= 4026531840 cpu:       0.1
 (Enter /usr/caen/gaussian-09revc/g09/l508.exe)
 The wavefunction is already stable.
 Leave Link  508 at Mon Feb 10 17:14:01 2014, MaxMem= 4026531840 cpu:       0.0
 (Enter /usr/caen/gaussian-09revc/g09/l601.exe)
 Copying SCF densities to generalized density rwf, IOpCl= 1 IROHF=0.

 **********************************************************************

            Population analysis using the SCF density.

 **********************************************************************

 Orbital symmetries:
 Alpha Orbitals:
       Occupied  (A') (A') (A') (A') (A') (A") (A') (A") (A')
       Virtual   (A') (A') (A') (A") (A') (A') (A') (A") (A') (A')
                 (A') (A') (A") (A') (A') (A') (A") (A') (A') (A")
                 (A') (A') (A') (A") (A') (A') (A') (A") (A') (A")
                 (A") (A') (A') (A') (A') (A") (A') (A") (A') (A')
                 (A') (A')
 Beta  Orbitals:
       Occupied  (A') (A') (A') (A') (A') (A') (A") (A')
       Virtual   (A") (A') (A') (A') (A") (A') (A') (A') (A') (A")
                 (A') (A') (A') (A') (A') (A") (A') (A') (A") (A")
                 (A') (A') (A') (A') (A") (A') (A') (A') (A") (A')
                 (A") (A") (A') (A') (A') (A') (A") (A') (A") (A')
                 (A') (A') (A')
 The electronic state is 2-A".
 Alpha  occ. eigenvalues --  -19.26192 -19.22274  -1.21794  -0.89013  -0.58099
 Alpha  occ. eigenvalues --   -0.51088  -0.49607  -0.32059  -0.31478
 Alpha virt. eigenvalues --   -0.02741   0.04628   0.10444   0.12916   0.14573
 Alpha virt. eigenvalues --    0.16341   0.19061   0.20185   0.20250   0.22552
 Alpha virt. eigenvalues --    0.32911   0.47918   0.92897   0.93348   0.95340
 Alpha virt. eigenvalues --    0.97161   1.00584   1.04253   1.29012   1.29354
 Alpha virt. eigenvalues --    1.42606   1.51757   1.94254   2.35115   2.39747
 Alpha virt. eigenvalues --    2.56283   2.63496   2.71854   2.77497   3.01185
 Alpha virt. eigenvalues --    3.24145   3.36592   3.64154   3.81469   4.72246
 Alpha virt. eigenvalues --    4.74802   4.88670   4.91729   5.31337   5.90345
 Alpha virt. eigenvalues --   49.70393  49.72604
  Beta  occ. eigenvalues --  -19.25312 -19.20178  -1.19056  -0.84856  -0.56527
  Beta  occ. eigenvalues --   -0.48046  -0.43174  -0.29531
  Beta virt. eigenvalues --   -0.13884  -0.02551   0.05849   0.10578   0.13697
  Beta virt. eigenvalues --    0.14790   0.17378   0.19133   0.20467   0.21425
  Beta virt. eigenvalues --    0.22680   0.33237   0.48105   0.93809   0.95728
  Beta virt. eigenvalues --    0.96006   0.97995   1.05007   1.05320   1.29877
  Beta virt. eigenvalues --    1.29981   1.43796   1.52923   1.94581   2.39154
  Beta virt. eigenvalues --    2.40818   2.57006   2.65640   2.77852   2.83889
  Beta virt. eigenvalues --    3.03929   3.29023   3.37472   3.66143   3.82679
  Beta virt. eigenvalues --    4.73251   4.80431   4.90319   4.98773   5.32216
  Beta virt. eigenvalues --    5.91814  49.71877  49.74098
          Condensed to atoms (all electrons):
              1          2          3
     1  O    7.762521   0.243520   0.115073
     2  H    0.243520   0.540457  -0.051341
     3  O    0.115073  -0.051341   8.082517
 Mulliken atomic charges:
              1
     1  O   -0.121114
     2  H    0.267364
     3  O   -0.146250
 Sum of Mulliken atomic charges =   0.00000
 Mulliken charges with hydrogens summed into heavy atoms:
              1
     1  O    0.146250
     3  O   -0.146250
 Sum of Mulliken charges with hydrogens summed into heavy atoms =   0.00000
          Atomic-Atomic Spin Densities.
              1          2          3
     1  O    0.412630   0.003458  -0.146161
     2  H    0.003458  -0.015116   0.001209
     3  O   -0.146161   0.001209   0.885474
 Mulliken atomic spin densities:
              1
     1  O    0.269927
     2  H   -0.010449
     3  O    0.740522
 Sum of Mulliken atomic spin densities =   1.00000
 Electronic spatial extent (au):  <R**2>=             55.2677
 Charge=              0.0000 electrons
 Dipole moment (field-independent basis, Debye):
    X=             -1.8550    Y=             -1.4919    Z=              0.0000  Tot=              2.3805
 Quadrupole moment (field-independent basis, Debye-Ang):
   XX=            -10.1292   YY=            -11.2724   ZZ=            -11.1323
   XY=              1.7591   XZ=              0.0000   YZ=              0.0000
 Traceless Quadrupole moment (field-independent basis, Debye-Ang):
   XX=              0.7154   YY=             -0.4278   ZZ=             -0.2877
   XY=              1.7591   XZ=              0.0000   YZ=              0.0000
 Octapole moment (field-independent basis, Debye-Ang**2):
  XXX=             -2.2400  YYY=             -1.9390  ZZZ=              0.0000  XYY=             -1.8720
  XXY=             -2.1262  XXZ=              0.0000  XZZ=             -0.2601  YZZ=              0.0463
  YYZ=              0.0000  XYZ=              0.0000
 Hexadecapole moment (field-independent basis, Debye-Ang**3):
 XXXX=             -9.9952 YYYY=            -37.9003 ZZZZ=             -8.6523 XXXY=              0.2876
 XXXZ=              0.0000 YYYX=              0.6611 YYYZ=              0.0000 ZZZX=              0.0000
 ZZZY=              0.0000 XXYY=             -8.1069 XXZZ=             -3.3579 YYZZ=             -8.2712
 XXYZ=              0.0000 YYXZ=              0.0000 ZZXY=             -0.2480
 N-N= 3.211934305340D+01 E-N=-6.256098130131D+02  KE= 2.242403690240D+02
 Symmetry A'   KE= 2.146800051597D+02
 Symmetry A"   KE= 9.560363864298D+00
                          Isotropic Fermi Contact Couplings
        Atom                 a.u.       MegaHertz       Gauss      10(-4) cm-1
     1  O(17)              0.03450     -20.91111      -7.46161      -6.97520
     2  H(1)              -0.00574     -25.66882      -9.15927      -8.56220
     3  O(17)              0.05503     -33.35947     -11.90349     -11.12752
 --------------------------------------------------------
       Center         ----  Spin Dipole Couplings  ----
                      3XX-RR        3YY-RR        3ZZ-RR
 --------------------------------------------------------
     1   Atom       -0.716287     -0.757926      1.474213
     2   Atom        0.046720     -0.020247     -0.026473
     3   Atom       -1.626006     -1.647615      3.273622
 --------------------------------------------------------
                        XY            XZ            YZ
 --------------------------------------------------------
     1   Atom        0.025108      0.000000      0.000000
     2   Atom        0.041204      0.000000      0.000000
     3   Atom       -0.007835      0.000000      0.000000
 --------------------------------------------------------


 ---------------------------------------------------------------------------------
              Anisotropic Spin Dipole Couplings in Principal Axis System
 ---------------------------------------------------------------------------------

       Atom             a.u.   MegaHertz   Gauss  10(-4) cm-1        Axes

              Baa    -0.7697    55.697    19.874    18.578 -0.4253  0.9051  0.0000
     1 O(17)  Bbb    -0.7045    50.976    18.190    17.004  0.9051  0.4253  0.0000
              Bcc     1.4742  -106.673   -38.064   -35.582  0.0000  0.0000  1.0000
 
              Baa    -0.0399   -21.266    -7.588    -7.094 -0.4297  0.9030  0.0000
     2 H(1)   Bbb    -0.0265   -14.125    -5.040    -4.712  0.0000  0.0000  1.0000
              Bcc     0.0663    35.391    12.628    11.805  0.9030  0.4297  0.0000
 
              Baa    -1.6502   119.404    42.606    39.829  0.3086  0.9512  0.0000
     3 O(17)  Bbb    -1.6235   117.473    41.917    39.185  0.9512 -0.3086  0.0000
              Bcc     3.2736  -236.877   -84.524   -79.014  0.0000  0.0000  1.0000
 

 ---------------------------------------------------------------------------------

 No NMR shielding tensors so no spin-rotation constants.
 Leave Link  601 at Mon Feb 10 17:14:02 2014, MaxMem= 4026531840 cpu:       6.2
 (Enter /usr/caen/gaussian-09revc/g09/l9999.exe)
 1\1\GINC-NYX5240\Stability\UB3LYP\6-311++G(d,p)\H1O2(2)\HETANJIN\10-Fe
 b-2014\0\\#p UB3LYP/6-311++G(d,p) guess=mix stable=(opt,xqc)\\HO2 usin
 g cbs-qb3 to cal. energy\\0,2\O,0,0.055282,-0.609296,0.\H,0,-0.884513,
 -0.876385,0.\O,0,0.055282,0.718845,0.\\Version=EM64L-G09RevC.01\State=
 2-A"\HF=-150.9580661\S2=0.753744\S2-1=0.\S2A=0.750009\RMSD=4.287e-09\D
 ipole=-0.7298023,-0.5869768,0.\Quadrupole=0.5319151,-0.318047,-0.21386
 81,1.3078664,0.,0.\PG=CS [SG(H1O2)]\\@


 EDUCATION IS NOT TRAINING BUT RATHER THE PROCESS THAT EQUIPS YOU TO
 ENTERTAIN YOURSELF, A FRIEND, OR AN IDEA.  -- WALLACE STERLING
 Job cpu time:  0 days  0 hours  1 minutes 10.8 seconds.
 File lengths (MBytes):  RWF=     10 Int=      0 D2E=      0 Chk=      1 Scr=      1
 Normal termination of Gaussian 09 at Mon Feb 10 17:14:03 2014.
 Initial command:
 /usr/caen/gaussian-09revc/g09/l1.exe /scratch/avioli_flux/hetanjin/scratch/Gau-14638.inp -scrdir=/scratch/avioli_flux/hetanjin/scratch/
 Entering Link 1 = /usr/caen/gaussian-09revc/g09/l1.exe PID=     14851.
  
 Copyright (c) 1988,1990,1992,1993,1995,1998,2003,2009,2011,
            Gaussian, Inc.  All Rights Reserved.
  
 This is part of the Gaussian(R) 09 program.  It is based on
 the Gaussian(R) 03 system (copyright 2003, Gaussian, Inc.),
 the Gaussian(R) 98 system (copyright 1998, Gaussian, Inc.),
 the Gaussian(R) 94 system (copyright 1995, Gaussian, Inc.),
 the Gaussian 92(TM) system (copyright 1992, Gaussian, Inc.),
 the Gaussian 90(TM) system (copyright 1990, Gaussian, Inc.),
 the Gaussian 88(TM) system (copyright 1988, Gaussian, Inc.),
 the Gaussian 86(TM) system (copyright 1986, Carnegie Mellon
 University), and the Gaussian 82(TM) system (copyright 1983,
 Carnegie Mellon University). Gaussian is a federally registered
 trademark of Gaussian, Inc.
  
 This software contains proprietary and confidential information,
 including trade secrets, belonging to Gaussian, Inc.
  
 This software is provided under written license and may be
 used, copied, transmitted, or stored only in accord with that
 written license.
  
 The following legend is applicable only to US Government
 contracts under FAR:
  
                    RESTRICTED RIGHTS LEGEND
  
 Use, reproduction and disclosure by the US Government is
 subject to restrictions as set forth in subparagraphs (a)
 and (c) of the Commercial Computer Software - Restricted
 Rights clause in FAR 52.227-19.
  
 Gaussian, Inc.
 340 Quinnipiac St., Bldg. 40, Wallingford CT 06492
  
  
 ---------------------------------------------------------------
 Warning -- This program may not be used in any manner that
 competes with the business of Gaussian, Inc. or will provide
 assistance to any competitor of Gaussian, Inc.  The licensee
 of this program is prohibited from giving any competitor of
 Gaussian, Inc. access to this program.  By using this program,
 the user acknowledges that Gaussian, Inc. is engaged in the
 business of creating and licensing software in the field of
 computational chemistry and represents and warrants to the
 licensee that it is not a competitor of Gaussian, Inc. and that
 it will not use this program in any manner prohibited above.
 ---------------------------------------------------------------
  

 Cite this work as:
 Gaussian 09, Revision C.01,
 M. J. Frisch, G. W. Trucks, H. B. Schlegel, G. E. Scuseria, 
 M. A. Robb, J. R. Cheeseman, G. Scalmani, V. Barone, B. Mennucci, 
 G. A. Petersson, H. Nakatsuji, M. Caricato, X. Li, H. P. Hratchian, 
 A. F. Izmaylov, J. Bloino, G. Zheng, J. L. Sonnenberg, M. Hada, 
 M. Ehara, K. Toyota, R. Fukuda, J. Hasegawa, M. Ishida, T. Nakajima, 
 Y. Honda, O. Kitao, H. Nakai, T. Vreven, J. A. Montgomery, Jr., 
 J. E. Peralta, F. Ogliaro, M. Bearpark, J. J. Heyd, E. Brothers, 
 K. N. Kudin, V. N. Staroverov, T. Keith, R. Kobayashi, J. Normand, 
 K. Raghavachari, A. Rendell, J. C. Burant, S. S. Iyengar, J. Tomasi, 
 M. Cossi, N. Rega, J. M. Millam, M. Klene, J. E. Knox, J. B. Cross, 
 V. Bakken, C. Adamo, J. Jaramillo, R. Gomperts, R. E. Stratmann, 
 O. Yazyev, A. J. Austin, R. Cammi, C. Pomelli, J. W. Ochterski, 
 R. L. Martin, K. Morokuma, V. G. Zakrzewski, G. A. Voth, 
 P. Salvador, J. J. Dannenberg, S. Dapprich, A. D. Daniels, 
 O. Farkas, J. B. Foresman, J. V. Ortiz, J. Cioslowski, 
 and D. J. Fox, Gaussian, Inc., Wallingford CT, 2010.
 
 ******************************************
 Gaussian 09:  EM64L-G09RevC.01 23-Sep-2011
                10-Feb-2014 
 ******************************************
 %mem=30GB
 %nprocshared=8
 Will use up to    8 processors via shared memory.
 %chk=HO2.chk
 ------------------------------------------------
 #p cbs-qb3 opt=calcfc freq geom=check guess=read
 ------------------------------------------------
 1/10=4,14=-1,18=20,19=15,26=3,29=2,38=1/1,3;
 2/9=110,12=2,40=1/2;
 3/5=4,6=6,7=700,11=2,14=-4,16=1,25=1,30=1,71=2,74=-5,116=-2/1,2,3;
 4/5=1/1;
 5/5=2,38=6/2;
 8/6=4,10=90,11=11/1;
 11/6=1,8=1,9=11,15=111,16=1/1,2,10;
 10/6=1,7=6,13=1/2;
 6/7=2,8=2,9=2,10=2,28=1/1;
 7/10=1,18=20,25=1/1,2,3,16;
 1/10=4,14=-1,18=20,19=15/3(2);
 2/9=110/2;
 99//99;
 2/9=110/2;
 3/5=4,6=6,7=700,11=2,14=-2,16=1,25=1,30=1,71=1,74=-5/1,2,3;
 4/5=5,16=3/1;
 5/5=2,38=5/2;
 7//1,2,3,16;
 1/14=-1,18=20,19=15/3(-5);
 2/9=110/2;
 6/7=2,8=2,9=2,10=2,19=2,28=1/1;
 99/9=1/99;
 Leave Link    1 at Mon Feb 10 17:14:03 2014, MaxMem= 4026531840 cpu:       0.6
 (Enter /usr/caen/gaussian-09revc/g09/l101.exe)
 ---------------------
 optimization and freq
 ---------------------
 Structure from the checkpoint file:  HO2.chk
 Charge =  0 Multiplicity = 2
 Z-Matrix found in file.
 O,0,0.055282,-0.609296,0.
 H,0,-0.884513,-0.876385,0.
 O,0,0.055282,0.718845,0.
 Recover connectivity data from disk.
 NAtoms=      3 NQM=        0 NQMF=       0 NMMI=      3 NMMIF=      0
                NMic=       0 NMicF=      0.
                    Isotopes and Nuclear Properties:
 (Nuclear quadrupole moments (NQMom) in fm**2, nuclear magnetic moments (NMagM)
  in nuclear magnetons)

  Atom         1           2           3
 IAtWgt=          16           1          16
 AtmWgt=  15.9949146   1.0078250  15.9949146
 NucSpn=           0           1           0
 AtZEff=  -5.6000000  -1.0000000  -5.6000000
 NQMom=    0.0000000   0.0000000   0.0000000
 NMagM=    0.0000000   2.7928460   0.0000000
 Leave Link  101 at Mon Feb 10 17:14:03 2014, MaxMem= 4026531840 cpu:       1.6
 (Enter /usr/caen/gaussian-09revc/g09/l103.exe)

 GradGradGradGradGradGradGradGradGradGradGradGradGradGradGradGradGradGrad
 Berny optimization.
 Initialization pass.
                           ----------------------------
                           !    Initial Parameters    !
                           ! (Angstroms and Degrees)  !
 --------------------------                            --------------------------
 ! Name  Definition              Value          Derivative Info.                !
 --------------------------------------------------------------------------------
 ! R1    R(1,2)                  0.977          calculate D2E/DX2 analytically  !
 ! R2    R(1,3)                  1.3281         calculate D2E/DX2 analytically  !
 ! A1    A(2,1,3)              105.8651         calculate D2E/DX2 analytically  !
 --------------------------------------------------------------------------------
 Trust Radius=3.00D-01 FncErr=1.00D-07 GrdErr=1.00D-06
 Number of steps in this run=     20 maximum allowed number of steps=    100.
 GradGradGradGradGradGradGradGradGradGradGradGradGradGradGradGradGradGrad

 Leave Link  103 at Mon Feb 10 17:14:04 2014, MaxMem= 4026531840 cpu:       0.1
 (Enter /usr/caen/gaussian-09revc/g09/l202.exe)
                          Input orientation:                          
 ---------------------------------------------------------------------
 Center     Atomic      Atomic             Coordinates (Angstroms)
 Number     Number       Type             X           Y           Z
 ---------------------------------------------------------------------
      1          8           0        0.055282   -0.609296    0.000000
      2          1           0       -0.884513   -0.876385    0.000000
      3          8           0        0.055282    0.718845    0.000000
 ---------------------------------------------------------------------
                    Distance matrix (angstroms):
                    1          2          3
     1  O    0.000000
     2  H    0.977011   0.000000
     3  O    1.328141   1.851479   0.000000
 Stoichiometry    HO2(2)
 Framework group  CS[SG(HO2)]
 Deg. of freedom     3
 Full point group                 CS      NOp   2
 RotChk:  IX=0 Diff= 0.00D+00
 Largest Abelian subgroup         CS      NOp   2
 Largest concise Abelian subgroup C1      NOp   1
                         Standard orientation:                         
 ---------------------------------------------------------------------
 Center     Atomic      Atomic             Coordinates (Angstroms)
 Number     Number       Type             X           Y           Z
 ---------------------------------------------------------------------
      1          8           0        0.055282   -0.609296    0.000000
      2          1           0       -0.884513   -0.876385    0.000000
      3          8           0        0.055282    0.718845    0.000000
 ---------------------------------------------------------------------
 Rotational constants (GHZ):    622.9630985     33.6784050     31.9510774
 Leave Link  202 at Mon Feb 10 17:14:04 2014, MaxMem= 4026531840 cpu:       0.3
 (Enter /usr/caen/gaussian-09revc/g09/l301.exe)
 Standard basis: 6-311G(2d,d,p) (5D, 7F)
 Ernie: Thresh=  0.10000D-02 Tol=  0.10000D-05 Strict=F.
 There are    31 symmetry adapted basis functions of A'  symmetry.
 There are    11 symmetry adapted basis functions of A"  symmetry.
 Integral buffers will be    131072 words long.
 Raffenetti 2 integral format.
 Two-electron integral symmetry is turned on.
    42 basis functions,    72 primitive gaussians,    44 cartesian basis functions
     9 alpha electrons        8 beta electrons
       nuclear repulsion energy        32.1193430534 Hartrees.
 IExCor=  402 DFT=T Ex+Corr=B3LYP ExCW=0 ScaHFX=  0.200000
 ScaDFX=  0.800000  0.720000  1.000000  0.810000 ScalE2=  1.000000  1.000000
 IRadAn=      0 IRanWt=     -1 IRanGd=            0 ICorTp=0
 NAtoms=    3 NActive=    3 NUniq=    3 SFac= 1.00D+00 NAtFMM=   60 NAOKFM=F Big=F
 Leave Link  301 at Mon Feb 10 17:14:04 2014, MaxMem= 4026531840 cpu:       0.3
 (Enter /usr/caen/gaussian-09revc/g09/l302.exe)
 NPDir=0 NMtPBC=     1 NCelOv=     1 NCel=       1 NClECP=     1 NCelD=      1
         NCelK=      1 NCelE2=     1 NClLst=     1 CellRange=     0.0.
 One-electron integrals computed using PRISM.
 NBasis=    42 RedAO= T  NBF=    31    11
 NBsUse=    42 1.00D-06 NBFU=    31    11
 Precomputing XC quadrature grid using
 IXCGrd= 2 IRadAn=           0 IRanWt=          -1 IRanGd=           0 AccXCQ= 0.00D+00.
 NRdTot=     186 NPtTot=       23530 NUsed=       24884 NTot=       24916
 NSgBfM=    44    44    44    44    44 NAtAll=     3     3.
 Leave Link  302 at Mon Feb 10 17:14:05 2014, MaxMem= 4026531840 cpu:       2.5
 (Enter /usr/caen/gaussian-09revc/g09/l303.exe)
 DipDrv:  MaxL=1.
 Leave Link  303 at Mon Feb 10 17:14:05 2014, MaxMem= 4026531840 cpu:       0.5
 (Enter /usr/caen/gaussian-09revc/g09/l401.exe)
 Initial guess read from the checkpoint file:  HO2.chk
 B after Tr=     0.000000    0.000000    0.000000
         Rot=    1.000000    0.000000    0.000000    0.000000 Ang=   0.00 deg.
 Guess basis will be translated and rotated to current coordinates.
 Initial guess orbital symmetries:
 Alpha Orbitals:
       Occupied  (A') (A') (A') (A') (A') (A") (A') (A") (A')
       Virtual   (A') (A') (A') (A") (A') (A') (A') (A") (A') (A')
                 (A') (A') (A") (A') (A') (A') (A") (A') (A') (A")
                 (A') (A') (A') (A") (A') (A') (A') (A") (A') (A")
                 (A") (A') (A')
 Beta  Orbitals:
       Occupied  (A') (A') (A') (A') (A') (A') (A") (A')
       Virtual   (A") (A') (A') (A') (A") (A') (A') (A') (A') (A")
                 (A') (A') (A') (A') (A') (A") (A') (A') (A") (A")
                 (A') (A') (A') (A') (A") (A') (A') (A') (A") (A')
                 (A") (A") (A') (A')
 The electronic state of the initial guess is 2-A".
 Initial guess <Sx>= 0.0000 <Sy>= 0.0000 <Sz>= 0.5000 <S**2>= 0.7534 S= 0.5017
 Leave Link  401 at Mon Feb 10 17:14:06 2014, MaxMem= 4026531840 cpu:       3.3
 (Enter /usr/caen/gaussian-09revc/g09/l502.exe)
 UHF open shell SCF:
 Requested convergence on RMS density matrix=1.00D-08 within 128 cycles.
 Requested convergence on MAX density matrix=1.00D-06.
 Requested convergence on             energy=1.00D-06.
 No special actions if energy rises.
 Using DIIS extrapolation, IDIIS=  1040.
 Integral symmetry usage will be decided dynamically.
        24844 words used for storage of precomputed grid.
 Keep R1 and R2 ints in memory in canonical form, NReq=1893953.
 IEnd=       49490 IEndB=       49490 NGot=  4026531840 MDV=  4025519853
 LenX=  4025519853 LenY=  4025517476
 Symmetry not used in FoFDir.
 MinBra= 0 MaxBra= 2 Meth= 1.
 IRaf=       0 NMat=   1 IRICut=       1 DoRegI=T DoRafI=F ISym2E= 0 JSym2E=0.

 Cycle   1  Pass 1  IDiag  1:
 E= -150.947491356121    
 DIIS: error= 1.84D-02 at cycle   1 NSaved=   1.
 NSaved= 1 IEnMin= 1 EnMin= -150.947491356121     IErMin= 1 ErrMin= 1.84D-02
 ErrMax= 1.84D-02 EMaxC= 1.00D-01 BMatC= 3.64D-02 BMatP= 3.64D-02
 IDIUse=3 WtCom= 8.16D-01 WtEn= 1.84D-01
 Coeff-Com:  0.100D+01
 Coeff-En:   0.100D+01
 Coeff:      0.100D+01
 Gap=     3.537 Goal=   None    Shift=    0.000
 Gap=     0.197 Goal=   None    Shift=    0.000
 GapD=    0.197 DampG=1.000 DampE=0.500 DampFc=0.5000 IDamp=-1.
 Damping current iteration by 5.00D-01
 RMSDP=1.57D-03 MaxDP=2.30D-02              OVMax= 1.84D-02

 Cycle   2  Pass 1  IDiag  1:
 E= -150.948942562144     Delta-E=       -0.001451206023 Rises=F Damp=T
 DIIS: error= 9.23D-03 at cycle   2 NSaved=   2.
 NSaved= 2 IEnMin= 2 EnMin= -150.948942562144     IErMin= 2 ErrMin= 9.23D-03
 ErrMax= 9.23D-03 EMaxC= 1.00D-01 BMatC= 9.41D-03 BMatP= 3.64D-02
 IDIUse=3 WtCom= 9.08D-01 WtEn= 9.23D-02
 Coeff-Com: -0.999D+00 0.200D+01
 Coeff-En:   0.000D+00 0.100D+01
 Coeff:     -0.907D+00 0.191D+01
 Gap=     0.307 Goal=   None    Shift=    0.000
 Gap=     0.159 Goal=   None    Shift=    0.000
 RMSDP=7.08D-04 MaxDP=8.30D-03 DE=-1.45D-03 OVMax= 4.42D-03

 Cycle   3  Pass 1  IDiag  1:
 E= -150.950331898209     Delta-E=       -0.001389336065 Rises=F Damp=F
 DIIS: error= 1.54D-03 at cycle   3 NSaved=   3.
 NSaved= 3 IEnMin= 3 EnMin= -150.950331898209     IErMin= 3 ErrMin= 1.54D-03
 ErrMax= 1.54D-03 EMaxC= 1.00D-01 BMatC= 4.15D-04 BMatP= 9.41D-03
 IDIUse=3 WtCom= 9.85D-01 WtEn= 1.54D-02
 Coeff-Com: -0.490D+00 0.982D+00 0.509D+00
 Coeff-En:   0.000D+00 0.000D+00 0.100D+01
 Coeff:     -0.483D+00 0.967D+00 0.516D+00
 Gap=     0.311 Goal=   None    Shift=    0.000
 Gap=     0.159 Goal=   None    Shift=    0.000
 RMSDP=1.53D-04 MaxDP=2.05D-03 DE=-1.39D-03 OVMax= 2.49D-03

 Cycle   4  Pass 1  IDiag  1:
 E= -150.950400638414     Delta-E=       -0.000068740205 Rises=F Damp=F
 DIIS: error= 3.42D-04 at cycle   4 NSaved=   4.
 NSaved= 4 IEnMin= 4 EnMin= -150.950400638414     IErMin= 4 ErrMin= 3.42D-04
 ErrMax= 3.42D-04 EMaxC= 1.00D-01 BMatC= 8.24D-06 BMatP= 4.15D-04
 IDIUse=3 WtCom= 9.97D-01 WtEn= 3.42D-03
 Coeff-Com: -0.159D+00 0.318D+00 0.180D+00 0.661D+00
 Coeff-En:   0.000D+00 0.000D+00 0.000D+00 0.100D+01
 Coeff:     -0.159D+00 0.317D+00 0.180D+00 0.662D+00
 Gap=     0.310 Goal=   None    Shift=    0.000
 Gap=     0.159 Goal=   None    Shift=    0.000
 RMSDP=3.23D-05 MaxDP=3.61D-04 DE=-6.87D-05 OVMax= 1.44D-03

 Cycle   5  Pass 1  IDiag  1:
 E= -150.950400140097     Delta-E=        0.000000498318 Rises=F Damp=F
 DIIS: error= 3.70D-04 at cycle   5 NSaved=   5.
 NSaved= 5 IEnMin= 4 EnMin= -150.950400638414     IErMin= 4 ErrMin= 3.42D-04
 ErrMax= 3.70D-04 EMaxC= 1.00D-01 BMatC= 1.17D-05 BMatP= 8.24D-06
 IDIUse=3 WtCom= 3.42D-01 WtEn= 6.58D-01
 Coeff-Com: -0.225D-01 0.447D-01 0.294D-01 0.529D+00 0.420D+00
 Coeff-En:   0.000D+00 0.000D+00 0.000D+00 0.554D+00 0.446D+00
 Coeff:     -0.771D-02 0.153D-01 0.101D-01 0.545D+00 0.437D+00
 Gap=     0.311 Goal=   None    Shift=    0.000
 Gap=     0.159 Goal=   None    Shift=    0.000
 RMSDP=1.72D-05 MaxDP=1.81D-04 DE= 4.98D-07 OVMax= 6.73D-04

 Cycle   6  Pass 1  IDiag  1:
 E= -150.950402079807     Delta-E=       -0.000001939710 Rises=F Damp=F
 DIIS: error= 1.54D-05 at cycle   6 NSaved=   6.
 NSaved= 6 IEnMin= 6 EnMin= -150.950402079807     IErMin= 6 ErrMin= 1.54D-05
 ErrMax= 1.54D-05 EMaxC= 1.00D-01 BMatC= 5.35D-08 BMatP= 8.24D-06
 IDIUse=1 WtCom= 1.00D+00 WtEn= 0.00D+00
 Coeff-Com: -0.157D-02 0.302D-02-0.115D-02 0.159D+00 0.113D+00 0.728D+00
 Coeff:     -0.157D-02 0.302D-02-0.115D-02 0.159D+00 0.113D+00 0.728D+00
 Gap=     0.311 Goal=   None    Shift=    0.000
 Gap=     0.159 Goal=   None    Shift=    0.000
 RMSDP=1.81D-06 MaxDP=2.04D-05 DE=-1.94D-06 OVMax= 2.96D-05

 Cycle   7  Pass 1  IDiag  1:
 E= -150.950402089168     Delta-E=       -0.000000009361 Rises=F Damp=F
 DIIS: error= 2.13D-06 at cycle   7 NSaved=   7.
 NSaved= 7 IEnMin= 7 EnMin= -150.950402089168     IErMin= 7 ErrMin= 2.13D-06
 ErrMax= 2.13D-06 EMaxC= 1.00D-01 BMatC= 9.68D-10 BMatP= 5.35D-08
 IDIUse=1 WtCom= 1.00D+00 WtEn= 0.00D+00
 Coeff-Com:  0.121D-02-0.239D-02-0.100D-02-0.381D-01-0.364D-01-0.858D-01
 Coeff-Com:  0.116D+01
 Coeff:      0.121D-02-0.239D-02-0.100D-02-0.381D-01-0.364D-01-0.858D-01
 Coeff:      0.116D+01
 Gap=     0.311 Goal=   None    Shift=    0.000
 Gap=     0.159 Goal=   None    Shift=    0.000
 RMSDP=4.57D-07 MaxDP=6.63D-06 DE=-9.36D-09 OVMax= 1.36D-05

 Cycle   8  Pass 1  IDiag  1:
 E= -150.950402089515     Delta-E=       -0.000000000347 Rises=F Damp=F
 DIIS: error= 5.66D-07 at cycle   8 NSaved=   8.
 NSaved= 8 IEnMin= 8 EnMin= -150.950402089515     IErMin= 8 ErrMin= 5.66D-07
 ErrMax= 5.66D-07 EMaxC= 1.00D-01 BMatC= 3.54D-11 BMatP= 9.68D-10
 IDIUse=1 WtCom= 1.00D+00 WtEn= 0.00D+00
 Coeff-Com: -0.146D-03 0.294D-03 0.183D-03 0.285D-02 0.209D-02-0.461D-02
 Coeff-Com: -0.189D+00 0.119D+01
 Coeff:     -0.146D-03 0.294D-03 0.183D-03 0.285D-02 0.209D-02-0.461D-02
 Coeff:     -0.189D+00 0.119D+01
 Gap=     0.311 Goal=   None    Shift=    0.000
 Gap=     0.159 Goal=   None    Shift=    0.000
 RMSDP=9.37D-08 MaxDP=1.29D-06 DE=-3.47D-10 OVMax= 4.72D-06

 Cycle   9  Pass 1  IDiag  1:
 E= -150.950402089532     Delta-E=       -0.000000000017 Rises=F Damp=F
 DIIS: error= 2.34D-07 at cycle   9 NSaved=   9.
 NSaved= 9 IEnMin= 9 EnMin= -150.950402089532     IErMin= 9 ErrMin= 2.34D-07
 ErrMax= 2.34D-07 EMaxC= 1.00D-01 BMatC= 6.26D-12 BMatP= 3.54D-11
 IDIUse=1 WtCom= 1.00D+00 WtEn= 0.00D+00
 Coeff-Com: -0.594D-04 0.117D-03 0.375D-04 0.196D-02 0.122D-02 0.362D-02
 Coeff-Com: -0.551D-01-0.237D-01 0.107D+01
 Coeff:     -0.594D-04 0.117D-03 0.375D-04 0.196D-02 0.122D-02 0.362D-02
 Coeff:     -0.551D-01-0.237D-01 0.107D+01
 Gap=     0.311 Goal=   None    Shift=    0.000
 Gap=     0.159 Goal=   None    Shift=    0.000
 RMSDP=3.19D-08 MaxDP=3.27D-07 DE=-1.73D-11 OVMax= 8.18D-07

 Cycle  10  Pass 1  IDiag  1:
 E= -150.950402089534     Delta-E=       -0.000000000002 Rises=F Damp=F
 DIIS: error= 5.10D-08 at cycle  10 NSaved=  10.
 NSaved=10 IEnMin=10 EnMin= -150.950402089534     IErMin=10 ErrMin= 5.10D-08
 ErrMax= 5.10D-08 EMaxC= 1.00D-01 BMatC= 2.00D-13 BMatP= 6.26D-12
 IDIUse=1 WtCom= 1.00D+00 WtEn= 0.00D+00
 Coeff-Com:  0.198D-04-0.397D-04-0.205D-04-0.381D-03-0.324D-03 0.207D-03
 Coeff-Com:  0.233D-01-0.123D+00-0.901D-01 0.119D+01
 Coeff:      0.198D-04-0.397D-04-0.205D-04-0.381D-03-0.324D-03 0.207D-03
 Coeff:      0.233D-01-0.123D+00-0.901D-01 0.119D+01
 Gap=     0.311 Goal=   None    Shift=    0.000
 Gap=     0.159 Goal=   None    Shift=    0.000
 RMSDP=1.06D-08 MaxDP=1.04D-07 DE=-1.93D-12 OVMax= 3.65D-07

 Cycle  11  Pass 1  IDiag  1:
 E= -150.950402089535     Delta-E=        0.000000000000 Rises=F Damp=F
 DIIS: error= 9.01D-09 at cycle  11 NSaved=  11.
 NSaved=11 IEnMin=11 EnMin= -150.950402089535     IErMin=11 ErrMin= 9.01D-09
 ErrMax= 9.01D-09 EMaxC= 1.00D-01 BMatC= 8.42D-15 BMatP= 2.00D-13
 IDIUse=1 WtCom= 1.00D+00 WtEn= 0.00D+00
 Coeff-Com:  0.356D-05-0.705D-05-0.198D-05-0.110D-03-0.675D-04-0.115D-03
 Coeff-Com:  0.438D-02-0.672D-02-0.628D-01 0.951D-01 0.970D+00
 Coeff:      0.356D-05-0.705D-05-0.198D-05-0.110D-03-0.675D-04-0.115D-03
 Coeff:      0.438D-02-0.672D-02-0.628D-01 0.951D-01 0.970D+00
 Gap=     0.311 Goal=   None    Shift=    0.000
 Gap=     0.159 Goal=   None    Shift=    0.000
 RMSDP=1.72D-09 MaxDP=1.76D-08 DE=-2.27D-13 OVMax= 3.57D-08

 SCF Done:  E(UB3LYP) =  -150.950402090     A.U. after   11 cycles
             Convg  =    0.1722D-08             -V/T =  2.0018
 <Sx>= 0.0000 <Sy>= 0.0000 <Sz>= 0.5000 <S**2>= 0.7528 S= 0.5014
 <L.S>= 0.000000000000E+00
 KE= 1.506856154452D+02 PE=-4.218622517786D+02 EE= 8.810689119048D+01
 Annihilation of the first spin contaminant:
 S**2 before annihilation     0.7528,   after     0.7500
 Leave Link  502 at Mon Feb 10 17:14:07 2014, MaxMem= 4026531840 cpu:       7.5
 (Enter /usr/caen/gaussian-09revc/g09/l801.exe)
 Range of M.O.s used for correlation:     1    42
 NBasis=    42 NAE=     9 NBE=     8 NFC=     0 NFV=     0
 NROrb=     42 NOA=     9 NOB=     8 NVA=    33 NVB=    34
 Leave Link  801 at Mon Feb 10 17:14:07 2014, MaxMem= 4026531840 cpu:       0.1
 (Enter /usr/caen/gaussian-09revc/g09/l1101.exe)
 Using compressed storage, NAtomX=     3.
 Will process   4 centers per pass.
 Leave Link 1101 at Mon Feb 10 17:14:08 2014, MaxMem= 4026531840 cpu:       3.4
 (Enter /usr/caen/gaussian-09revc/g09/l1102.exe)
 Symmetrizing basis deriv contribution to polar:
 IMax=3 JMax=2 DiffMx= 0.00D+00
 Leave Link 1102 at Mon Feb 10 17:14:08 2014, MaxMem= 4026531840 cpu:       1.3
 (Enter /usr/caen/gaussian-09revc/g09/l1110.exe)
 Forming Gx(P) for the SCF density, NAtomX=     3.
 Integral derivatives from FoFDir/FoFCou, PRISM(SPDF).
 Do as many integral derivatives as possible in FoFDir.
 G2DrvN: MDV=    4026531712.
 G2DrvN: will do     4 centers at a time, making    1 passes doing MaxLOS=2.
 Calling FoFCou, ICntrl=  3107 FMM=F I1Cent=   0 AccDes= 0.00D+00.
 FoFCou: FMM=F IPFlag=           0 FMFlag=      100000 FMFlg1=           0
         NFxFlg=           0 DoJE=F BraDBF=F KetDBF=F FulRan=T
         Omega=  0.000000  0.000000  1.000000  0.000000  0.000000 ICntrl=    3107 IOpCl=  1
         NMat0=    1 NMatS0=    1 NMatT0=    0 NMatD0=    1 NMtDS0=    0 NMtDT0=    0
         I1Cent=           0 NGrid=           0.
 Petite list used in FoFCou.
 FoFDir/FoFCou used for L=0 through L=2.
 End of G2Drv Frequency-dependent properties file   721 does not exist.
 End of G2Drv Frequency-dependent properties file   722 does not exist.
 Leave Link 1110 at Mon Feb 10 17:14:10 2014, MaxMem= 4026531840 cpu:       6.7
 (Enter /usr/caen/gaussian-09revc/g09/l1002.exe)
 Minotr:  UHF open shell wavefunction.
          IDoAtm=111
          Direct CPHF calculation.
          Differentiating once with respect to nuclear coordinates.
          Using symmetry in CPHF.
          Requested convergence is 1.0D-06 RMS, and 1.0D-05 maximum.
          Secondary convergence is 1.0D-12 RMS, and 1.0D-12 maximum.
          NewPWx=T KeepS1=F KeepF1=F KeepIn=T MapXYZ=F SortEE=F KeepMc=T.
          MDV=    4026531806 using IRadAn=       2.
 Generate precomputed XC quadrature information.
          Keep R1 and R2 ints in memory in canonical form, NReq=1802364.
 Symmetry not used in FoFDir.
 MinBra= 0 MaxBra= 2 Meth= 1.
 IRaf=       0 NMat=   1 IRICut=       1 DoRegI=T DoRafI=F ISym2E= 0 JSym2E=0.
          Solving linear equations simultaneously, MaxMat=       0.
          There are    12 degrees of freedom in the 1st order CPHF.  IDoFFX=5.
      6 vectors produced by pass  0 Test12= 4.74D-11 8.33D-07 XBig12= 2.21D-01 2.14D-01.
 AX will form     6 AO Fock derivatives at one time.
      6 vectors produced by pass  1 Test12= 4.74D-11 8.33D-07 XBig12= 8.86D-02 1.80D-01.
      6 vectors produced by pass  2 Test12= 4.74D-11 8.33D-07 XBig12= 4.75D-03 2.01D-02.
      6 vectors produced by pass  3 Test12= 4.74D-11 8.33D-07 XBig12= 1.90D-04 4.31D-03.
      6 vectors produced by pass  4 Test12= 4.74D-11 8.33D-07 XBig12= 2.56D-06 4.71D-04.
      6 vectors produced by pass  5 Test12= 4.74D-11 8.33D-07 XBig12= 1.06D-07 1.05D-04.
      3 vectors produced by pass  6 Test12= 4.74D-11 8.33D-07 XBig12= 1.49D-09 7.70D-06.
 Inverted reduced A of dimension    39 with in-core refinement.
 End of Minotr Frequency-dependent properties file   721 does not exist.
 End of Minotr Frequency-dependent properties file   722 does not exist.
 Leave Link 1002 at Mon Feb 10 17:14:16 2014, MaxMem= 4026531840 cpu:      30.6
 (Enter /usr/caen/gaussian-09revc/g09/l601.exe)
 Copying SCF densities to generalized density rwf, IOpCl= 1 IROHF=0.

 **********************************************************************

            Population analysis using the SCF density.

 **********************************************************************

 Orbital symmetries:
 Alpha Orbitals:
       Occupied  (A') (A') (A') (A') (A') (A") (A') (A") (A')
       Virtual   (A') (A') (A') (A") (A') (A') (A') (A") (A') (A')
                 (A') (A") (A') (A') (A') (A") (A') (A') (A") (A')
                 (A") (A") (A') (A') (A') (A") (A') (A') (A") (A')
                 (A') (A') (A')
 Beta  Orbitals:
       Occupied  (A') (A') (A') (A') (A') (A') (A") (A')
       Virtual   (A") (A') (A') (A') (A') (A") (A') (A') (A') (A")
                 (A') (A') (A") (A') (A') (A') (A") (A') (A') (A")
                 (A') (A") (A") (A') (A') (A') (A') (A") (A') (A")
                 (A') (A') (A') (A')
 The electronic state is 2-A".
 Alpha  occ. eigenvalues --  -19.24368 -19.20189  -1.20280  -0.87604  -0.56726
 Alpha  occ. eigenvalues --   -0.49694  -0.48166  -0.30591  -0.29971
 Alpha virt. eigenvalues --    0.01089   0.10570   0.35813   0.68508   0.69986
 Alpha virt. eigenvalues --    0.74660   0.74828   0.79339   0.81905   0.99071
 Alpha virt. eigenvalues --    1.22758   1.29793   1.43312   1.87137   2.29480
 Alpha virt. eigenvalues --    2.35235   2.56740   2.63233   2.73347   2.78687
 Alpha virt. eigenvalues --    3.02422   3.24339   3.34586   3.57371   3.74588
 Alpha virt. eigenvalues --    4.56021   4.56832   4.72573   4.77659   5.21397
 Alpha virt. eigenvalues --    5.83446  49.61041  49.67755
  Beta  occ. eigenvalues --  -19.23496 -19.18100  -1.17570  -0.83466  -0.55176
  Beta  occ. eigenvalues --   -0.46619  -0.41793  -0.28048
  Beta virt. eigenvalues --   -0.12156   0.01439   0.12644   0.36040   0.70645
  Beta virt. eigenvalues --    0.72172   0.75136   0.75878   0.82742   0.84417
  Beta virt. eigenvalues --    1.00236   1.24576   1.30263   1.43335   1.87376
  Beta virt. eigenvalues --    2.30195   2.39284   2.57440   2.65771   2.79321
  Beta virt. eigenvalues --    2.85093   3.05157   3.29209   3.35597   3.59201
  Beta virt. eigenvalues --    3.75839   4.57862   4.61971   4.74226   4.84714
  Beta virt. eigenvalues --    5.22303   5.84863  49.62875  49.68880
          Condensed to atoms (all electrons):
              1          2          3
     1  O    7.804535   0.276032   0.055612
     2  H    0.276032   0.487293  -0.042240
     3  O    0.055612  -0.042240   8.129363
 Mulliken atomic charges:
              1
     1  O   -0.136179
     2  H    0.278915
     3  O   -0.142735
 Sum of Mulliken atomic charges =   0.00000
 Mulliken charges with hydrogens summed into heavy atoms:
              1
     1  O    0.142735
     3  O   -0.142735
 Sum of Mulliken charges with hydrogens summed into heavy atoms =   0.00000
          Atomic-Atomic Spin Densities.
              1          2          3
     1  O    0.388943   0.002383  -0.129158
     2  H    0.002383  -0.012545   0.000392
     3  O   -0.129158   0.000392   0.876368
 Mulliken atomic spin densities:
              1
     1  O    0.262168
     2  H   -0.009771
     3  O    0.747603
 Sum of Mulliken atomic spin densities =   1.00000
 APT atomic charges:
              1
     1  O   -0.316205
     2  H    0.471274
     3  O   -0.155070
 Sum of APT charges=   0.00000
 APT Atomic charges with hydrogens summed into heavy atoms:
              1
     1  O    0.155070
     2  H    0.000000
     3  O   -0.155070
 Sum of APT charges=   0.00000
 Electronic spatial extent (au):  <R**2>=             54.3945
 Charge=              0.0000 electrons
 Dipole moment (field-independent basis, Debye):
    X=             -1.8204    Y=             -1.4239    Z=              0.0000  Tot=              2.3111
 Quadrupole moment (field-independent basis, Debye-Ang):
   XX=             -9.7510   YY=            -10.8452   ZZ=            -10.7633
   XY=              1.6842   XZ=              0.0000   YZ=              0.0000
 Traceless Quadrupole moment (field-independent basis, Debye-Ang):
   XX=              0.7022   YY=             -0.3920   ZZ=             -0.3102
   XY=              1.6842   XZ=              0.0000   YZ=              0.0000
 Octapole moment (field-independent basis, Debye-Ang**2):
  XXX=             -2.1553  YYY=             -1.6594  ZZZ=              0.0000  XYY=             -1.7953
  XXY=             -1.9443  XXZ=              0.0000  XZZ=             -0.2210  YZZ=              0.0905
  YYZ=              0.0000  XYZ=              0.0000
 Hexadecapole moment (field-independent basis, Debye-Ang**3):
 XXXX=             -8.5828 YYYY=            -35.5463 ZZZZ=             -7.3698 XXXY=              0.2399
 XXXZ=              0.0000 YYYX=              0.4707 YYYZ=              0.0000 ZZZX=              0.0000
 ZZZY=              0.0000 XXYY=             -7.2621 XXZZ=             -2.9171 YYZZ=             -7.5624
 XXYZ=              0.0000 YYXZ=              0.0000 ZZXY=             -0.3031
 N-N= 3.211934305340D+01 E-N=-6.261297593221D+02  KE= 2.243977296619D+02
 Symmetry A'   KE= 2.147648095404D+02
 Symmetry A"   KE= 9.632920121539D+00
  Exact polarizability:   0.000   0.000   0.000   0.000   0.000   0.000
 Approx polarizability:   8.484   2.043  23.201   0.000   0.000   5.385
                          Isotropic Fermi Contact Couplings
        Atom                 a.u.       MegaHertz       Gauss      10(-4) cm-1
     1  O(17)              0.03326     -20.16462      -7.19524      -6.72619
     2  H(1)              -0.00571     -25.53544      -9.11168      -8.51771
     3  O(17)              0.05272     -31.95729     -11.40316     -10.65981
 --------------------------------------------------------
       Center         ----  Spin Dipole Couplings  ----
                      3XX-RR        3YY-RR        3ZZ-RR
 --------------------------------------------------------
     1   Atom       -0.713236     -0.754163      1.467398
     2   Atom        0.046412     -0.020153     -0.026258
     3   Atom       -1.643544     -1.646423      3.289967
 --------------------------------------------------------
                        XY            XZ            YZ
 --------------------------------------------------------
     1   Atom        0.027806      0.000000      0.000000
     2   Atom        0.040931      0.000000      0.000000
     3   Atom       -0.007913      0.000000      0.000000
 --------------------------------------------------------


 ---------------------------------------------------------------------------------
              Anisotropic Spin Dipole Couplings in Principal Axis System
 ---------------------------------------------------------------------------------

       Atom             a.u.   MegaHertz   Gauss  10(-4) cm-1        Axes

              Baa    -0.7682    55.588    19.835    18.542 -0.4513  0.8924  0.0000
[...]
 DIIS: error= 4.31D-05 at cycle   5 NSaved=   5.
 NSaved= 5 IEnMin= 5 EnMin= -150.231783652714     IErMin= 5 ErrMin= 4.31D-05
 ErrMax= 4.31D-05 EMaxC= 1.00D-01 BMatC= 4.14D-07 BMatP= 5.95D-06
 IDIUse=1 WtCom= 1.00D+00 WtEn= 0.00D+00
 Coeff-Com:  0.592D-03-0.811D-02-0.430D-01 0.396D-01 0.101D+01
 Coeff:      0.592D-03-0.811D-02-0.430D-01 0.396D-01 0.101D+01
 Gap=     0.569 Goal=   None    Shift=    0.000
 Gap=     0.533 Goal=   None    Shift=    0.000
 RMSDP=4.97D-06 MaxDP=9.03D-05 DE=-1.76D-06 OVMax= 1.70D-04

 Cycle   6  Pass 1  IDiag  1:
 E= -150.231783816241     Delta-E=       -0.000000163527 Rises=F Damp=F
 DIIS: error= 2.50D-05 at cycle   6 NSaved=   6.
 NSaved= 6 IEnMin= 6 EnMin= -150.231783816241     IErMin= 6 ErrMin= 2.50D-05
 ErrMax= 2.50D-05 EMaxC= 1.00D-01 BMatC= 8.87D-08 BMatP= 4.14D-07
 IDIUse=1 WtCom= 1.00D+00 WtEn= 0.00D+00
 Coeff-Com: -0.143D-03 0.305D-02-0.579D-02-0.638D-01 0.141D+00 0.925D+00
 Coeff:     -0.143D-03 0.305D-02-0.579D-02-0.638D-01 0.141D+00 0.925D+00
 Gap=     0.569 Goal=   None    Shift=    0.000
 Gap=     0.533 Goal=   None    Shift=    0.000
 RMSDP=1.92D-06 MaxDP=3.05D-05 DE=-1.64D-07 OVMax= 9.74D-05

 Cycle   7  Pass 1  IDiag  1:
 E= -150.231783863424     Delta-E=       -0.000000047184 Rises=F Damp=F
 DIIS: error= 1.96D-05 at cycle   7 NSaved=   7.
 NSaved= 7 IEnMin= 7 EnMin= -150.231783863424     IErMin= 7 ErrMin= 1.96D-05
 ErrMax= 1.96D-05 EMaxC= 1.00D-01 BMatC= 4.03D-08 BMatP= 8.87D-08
 IDIUse=1 WtCom= 1.00D+00 WtEn= 0.00D+00
 Coeff-Com: -0.166D-03 0.256D-02 0.982D-02-0.219D-01-0.240D+00 0.159D+00
 Coeff-Com:  0.109D+01
 Coeff:     -0.166D-03 0.256D-02 0.982D-02-0.219D-01-0.240D+00 0.159D+00
 Coeff:      0.109D+01
 Gap=     0.569 Goal=   None    Shift=    0.000
 Gap=     0.533 Goal=   None    Shift=    0.000
 RMSDP=1.74D-06 MaxDP=3.18D-05 DE=-4.72D-08 OVMax= 1.07D-04

 Cycle   8  Pass 1  IDiag  1:
 E= -150.231783895270     Delta-E=       -0.000000031846 Rises=F Damp=F
 DIIS: error= 1.12D-05 at cycle   8 NSaved=   8.
 NSaved= 8 IEnMin= 8 EnMin= -150.231783895270     IErMin= 8 ErrMin= 1.12D-05
 ErrMax= 1.12D-05 EMaxC= 1.00D-01 BMatC= 1.58D-08 BMatP= 4.03D-08
 IDIUse=1 WtCom= 1.00D+00 WtEn= 0.00D+00
 Coeff-Com:  0.189D-03-0.344D-02-0.469D-02 0.489D-01 0.114D+00-0.482D+00
 Coeff-Com: -0.824D+00 0.215D+01
 Coeff:      0.189D-03-0.344D-02-0.469D-02 0.489D-01 0.114D+00-0.482D+00
 Coeff:     -0.824D+00 0.215D+01
 Gap=     0.569 Goal=   None    Shift=    0.000
 Gap=     0.533 Goal=   None    Shift=    0.000
 RMSDP=2.33D-06 MaxDP=4.47D-05 DE=-3.18D-08 OVMax= 1.34D-04

 Cycle   9  Pass 1  IDiag  1:
 E= -150.231783920450     Delta-E=       -0.000000025179 Rises=F Damp=F
 DIIS: error= 4.47D-06 at cycle   9 NSaved=   9.
 NSaved= 9 IEnMin= 9 EnMin= -150.231783920450     IErMin= 9 ErrMin= 4.47D-06
 ErrMax= 4.47D-06 EMaxC= 1.00D-01 BMatC= 3.90D-09 BMatP= 1.58D-08
 IDIUse=1 WtCom= 1.00D+00 WtEn= 0.00D+00
 Coeff-Com: -0.103D-03 0.204D-02 0.803D-03-0.363D-01-0.248D-01 0.397D+00
 Coeff-Com:  0.429D+00-0.207D+01 0.230D+01
 Coeff:     -0.103D-03 0.204D-02 0.803D-03-0.363D-01-0.248D-01 0.397D+00
 Coeff:      0.429D+00-0.207D+01 0.230D+01
 Gap=     0.569 Goal=   None    Shift=    0.000
 Gap=     0.533 Goal=   None    Shift=    0.000
 RMSDP=1.60D-06 MaxDP=3.28D-05 DE=-2.52D-08 OVMax= 8.71D-05

 Cycle  10  Pass 1  IDiag  1:
 E= -150.231783927182     Delta-E=       -0.000000006732 Rises=F Damp=F
 DIIS: error= 9.74D-07 at cycle  10 NSaved=  10.
 NSaved=10 IEnMin=10 EnMin= -150.231783927182     IErMin=10 ErrMin= 9.74D-07
 ErrMax= 9.74D-07 EMaxC= 1.00D-01 BMatC= 2.99D-10 BMatP= 3.90D-09
 IDIUse=1 WtCom= 1.00D+00 WtEn= 0.00D+00
 Coeff-Com:  0.357D-04-0.733D-03 0.572D-04 0.140D-01 0.348D-02-0.164D+00
 Coeff-Com: -0.142D+00 0.912D+00-0.134D+01 0.172D+01
 Coeff:      0.357D-04-0.733D-03 0.572D-04 0.140D-01 0.348D-02-0.164D+00
 Coeff:     -0.142D+00 0.912D+00-0.134D+01 0.172D+01
 Gap=     0.569 Goal=   None    Shift=    0.000
 Gap=     0.533 Goal=   None    Shift=    0.000
 RMSDP=3.55D-07 MaxDP=6.31D-06 DE=-6.73D-09 OVMax= 1.68D-05

 Cycle  11  Pass 1  IDiag  1:
 E= -150.231783927561     Delta-E=       -0.000000000379 Rises=F Damp=F
 DIIS: error= 3.28D-07 at cycle  11 NSaved=  11.
 NSaved=11 IEnMin=11 EnMin= -150.231783927561     IErMin=11 ErrMin= 3.28D-07
 ErrMax= 3.28D-07 EMaxC= 1.00D-01 BMatC= 2.31D-11 BMatP= 2.99D-10
 IDIUse=1 WtCom= 1.00D+00 WtEn= 0.00D+00
 Coeff-Com: -0.108D-04 0.231D-03-0.128D-03-0.458D-02 0.192D-03 0.559D-01
 Coeff-Com:  0.461D-01-0.332D+00 0.539D+00-0.922D+00 0.162D+01
 Coeff:     -0.108D-04 0.231D-03-0.128D-03-0.458D-02 0.192D-03 0.559D-01
 Coeff:      0.461D-01-0.332D+00 0.539D+00-0.922D+00 0.162D+01
 Gap=     0.569 Goal=   None    Shift=    0.000
 Gap=     0.533 Goal=   None    Shift=    0.000
 RMSDP=8.10D-08 MaxDP=1.02D-06 DE=-3.79D-10 OVMax= 3.59D-06

 Cycle  12  Pass 1  IDiag  1:
 E= -150.231783927585     Delta-E=       -0.000000000024 Rises=F Damp=F
 DIIS: error= 1.58D-07 at cycle  12 NSaved=  12.
 NSaved=12 IEnMin=12 EnMin= -150.231783927585     IErMin=12 ErrMin= 1.58D-07
 ErrMax= 1.58D-07 EMaxC= 1.00D-01 BMatC= 2.84D-12 BMatP= 2.31D-11
 IDIUse=1 WtCom= 1.00D+00 WtEn= 0.00D+00
 Coeff-Com:  0.244D-05-0.566D-04 0.659D-04 0.121D-02-0.684D-03-0.156D-01
 Coeff-Com: -0.858D-02 0.915D-01-0.168D+00 0.352D+00-0.926D+00 0.168D+01
 Coeff:      0.244D-05-0.566D-04 0.659D-04 0.121D-02-0.684D-03-0.156D-01
 Coeff:     -0.858D-02 0.915D-01-0.168D+00 0.352D+00-0.926D+00 0.168D+01
 Gap=     0.569 Goal=   None    Shift=    0.000
 Gap=     0.533 Goal=   None    Shift=    0.000
 RMSDP=2.46D-08 MaxDP=4.31D-07 DE=-2.40D-11 OVMax= 1.51D-06

 Cycle  13  Pass 1  IDiag  1:
 E= -150.231783927588     Delta-E=       -0.000000000003 Rises=F Damp=F
 DIIS: error= 7.26D-08 at cycle  13 NSaved=  13.
 NSaved=13 IEnMin=13 EnMin= -150.231783927588     IErMin=13 ErrMin= 7.26D-08
 ErrMax= 7.26D-08 EMaxC= 1.00D-01 BMatC= 4.12D-13 BMatP= 2.84D-12
 IDIUse=1 WtCom= 1.00D+00 WtEn= 0.00D+00
 Coeff-Com: -0.190D-06 0.606D-05-0.300D-04-0.168D-03 0.673D-03 0.154D-02
 Coeff-Com:  0.257D-03-0.137D-01 0.340D-01-0.956D-01 0.359D+00-0.102D+01
 Coeff-Com:  0.174D+01
 Coeff:     -0.190D-06 0.606D-05-0.300D-04-0.168D-03 0.673D-03 0.154D-02
 Coeff:      0.257D-03-0.137D-01 0.340D-01-0.956D-01 0.359D+00-0.102D+01
 Coeff:      0.174D+01
 Gap=     0.569 Goal=   None    Shift=    0.000
 Gap=     0.533 Goal=   None    Shift=    0.000
 RMSDP=9.42D-09 MaxDP=2.09D-07 DE=-3.21D-12 OVMax= 8.24D-07

 SCF Done:  E(UHF) =  -150.231783928     A.U. after   13 cycles
             Convg  =    0.9416D-08             -V/T =  2.0009
 <Sx>= 0.0000 <Sy>= 0.0000 <Sz>= 0.5000 <S**2>= 0.7628 S= 0.5064
 <L.S>= 0.000000000000E+00
 KE= 1.500953983533D+02 PE=-4.210012060750D+02 EE= 8.854069699800D+01
 Annihilation of the first spin contaminant:
 S**2 before annihilation     0.7628,   after     0.7501
 Leave Link  502 at Mon Feb 10 17:15:42 2014, MaxMem= 4026531840 cpu:      67.8
 (Enter /usr/caen/gaussian-09revc/g09/l801.exe)
 ExpMin= 3.60D-02 ExpMax= 8.59D+03 ExpMxC= 1.30D+03 IAcc=3 IRadAn=         5 AccDes= 0.00D+00
 HarFok:  IExCor=  205 AccDes= 0.00D+00 IRadAn=         5 IDoV=-2
 ScaDFX=  1.000000  1.000000  1.000000  1.000000
 DSYEVD returned Info=          69 IAlg= 4 N=    34 NDim=    34 NE2=   118426722 trying DSYEV.
 Largest valence mixing into a core orbital is  8.54D-05
 Largest core mixing into a valence orbital is  3.01D-05
 Largest valence mixing into a core orbital is  1.13D-04
 Largest core mixing into a valence orbital is  4.16D-05
 Range of M.O.s used for correlation:     3    78
 NBasis=    78 NAE=     9 NBE=     8 NFC=     2 NFV=     0
 NROrb=     76 NOA=     7 NOB=     6 NVA=    69 NVB=    70

 **** Warning!!: The largest alpha MO coefficient is  0.16508889D+02


 **** Warning!!: The largest beta MO coefficient is  0.16590803D+02

 Leave Link  801 at Mon Feb 10 17:15:42 2014, MaxMem= 4026531840 cpu:       1.5
 (Enter /usr/caen/gaussian-09revc/g09/l906.exe)
 FulOut=F Deriv=F AODrv=F NAtomX=     3
   MMem=           0  MDisk=           7 MDiskD=           7
  W3Min=       86240 MinDsk=      150168 NBas6D=          88
 NBas2D=        4120    NTT=        3916    LW2=     2000000
    MDV=  4026474105 MDiskM=      228663 NBas2p=        4120
 Disk-based method using OVN memory for  7 occupieds at a time.
 Permanent disk used for amplitudes and <ij||ab> integrals=      576702 words.
 Estimated scratch disk usage=     7315952 words.
 IMap=   1   2   3   4   5   6   7
 Actual    scratch disk usage=     5719880 words.
 JobTyp=2 Pass  1:  I=   1 to   7 NPSUse=  8 ParTrn=T ParDer=T DoDerP=F.
 (rs|ai) integrals will be sorted in core.
 IMap=   1   2   3   4   5   6
 Actual    scratch disk usage=     5802480 words.
 JobTyp=3 Pass  1:  I=   1 to   6 NPSUse=  8 ParTrn=T ParDer=T DoDerP=F.
 (rs|ai) integrals will be sorted in core.
 Spin components of T(2) and E(2):
     alpha-alpha T2 =       0.1365752530D-01 E2=     -0.6034322504D-01
     alpha-beta  T2 =       0.7685871783D-01 E2=     -0.3261322687D+00
     beta-beta   T2 =       0.1446058919D-01 E2=     -0.5180980187D-01
 The integrals were generated   2 times.
 (S**2,0)=  0.76281D+00           (S**2,1)=  0.75300D+00
 E(PUHF)=      -0.15023657754D+03        E(PMP2)=      -0.15067303785D+03
 ANorm=    0.1051178782D+01
 E2 =    -0.4382852956D+00 EUMP2 =    -0.15067006922320D+03
 Leave Link  906 at Mon Feb 10 17:16:00 2014, MaxMem= 4026531840 cpu:     119.5
 (Enter /usr/caen/gaussian-09revc/g09/l904.exe)

 Complete Basis Set (CBS) Extrapolation:
 M. R. Nyden and G. A. Petersson, JCP 75, 1843 (1981)
 G. A. Petersson and M. A. Al-Laham, JCP 94, 6081 (1991)
 G. A. Petersson, T. Tensfeldt, and J. A. Montgomery, JCP 94, 6091 (1991)
 J. A. Montgomery, J. W. Ochterski, and G. A. Petersson, JCP 101, 5900 (1994)
 
 Available Memory in CBS = 4026531840
 Minimum Number of PNO for Extrapolation =  10
 Absolute Overlaps: IRadAn =     99590
 LocTrn: ILocal=3 LocCor=F DoCore=F.
 LocMO: Using population method
 Initial Trace= 0.60000000D+01 Initial TraceA= 0.43490226D+01
 RMSG= 0.26059678D-08
 LocMO: Using population method
 Initial Trace= 0.60000000D+01 Initial TraceA= 0.42861291D+01
 RMSG= 0.70794751D-08
 <Sx>= 0.0000 <Sy>= 0.0000 <Sz>= 0.5000 <S**2>= 0.7628 S= 0.5064 S2Cor= 0.0186
 There are a total of      147500 grid points.
 ElSum from         orbitals=       16.9999999524
 E2(CBS)=      -0.486504 CBS-Int=       0.013385 OIii=       3.641667
 Leave Link  904 at Mon Feb 10 17:16:02 2014, MaxMem= 4026531840 cpu:       9.4
 (Enter /usr/caen/gaussian-09revc/g09/l601.exe)
 Copying SCF densities to generalized density rwf, IOpCl= 1 IROHF=0.

 **********************************************************************

            Population analysis using the SCF density.

 **********************************************************************

 Orbital symmetries:
 Alpha Orbitals:
       Occupied  (A') (A') (A') (A') (A') (A") (A') (A") (A')
       Virtual   (A') (A') (A') (A") (A') (A') (A') (A") (A') (A')
                 (A') (A') (A") (A') (A') (A') (A") (A') (A") (A')
                 (A') (A") (A') (A") (A') (A') (A') (A") (A') (A')
                 (A") (A') (A') (A') (A") (A') (A') (A") (A') (A")
                 (A') (A') (A") (A') (A") (A') (A") (A') (A') (A')
                 (A") (A") (A') (A") (A') (A") (A') (A") (A') (A")
                 (A') (A') (A") (A') (A') (A') (A') (A') (A')
 Beta  Orbitals:
       Occupied  (A') (A') (A') (A') (A') (A') (A") (A')
       Virtual   (A') (A") (A') (A') (A") (A') (A') (A') (A') (A")
                 (A') (A') (A') (A") (A') (A') (A') (A") (A') (A')
                 (A") (A') (A') (A") (A") (A') (A') (A') (A") (A')
                 (A') (A") (A') (A') (A') (A") (A') (A') (A") (A')
                 (A") (A') (A') (A') (A") (A") (A') (A") (A') (A')
                 (A') (A") (A") (A') (A') (A") (A") (A') (A") (A')
                 (A") (A') (A') (A') (A") (A') (A') (A') (A') (A')
 The electronic state is 2-A".
 Alpha  occ. eigenvalues --  -20.69112 -20.67500  -1.57835  -1.20969  -0.77431
 Alpha  occ. eigenvalues --   -0.75918  -0.67648  -0.52881  -0.52494
 Alpha virt. eigenvalues --    0.04393   0.16451   0.21475   0.22179   0.24289
 Alpha virt. eigenvalues --    0.27611   0.28333   0.28397   0.32018   0.39191
 Alpha virt. eigenvalues --    0.42609   0.66439   0.83567   0.87389   1.04815
 Alpha virt. eigenvalues --    1.13352   1.16499   1.24072   1.24453   1.24818
 Alpha virt. eigenvalues --    1.47234   1.50429   1.53226   1.64514   1.73657
 Alpha virt. eigenvalues --    1.75402   1.79053   2.04183   2.29854   2.42346
 Alpha virt. eigenvalues --    2.43071   2.51857   2.79773   2.99007   3.91233
 Alpha virt. eigenvalues --    4.06965   4.43445   4.82535   4.96975   5.04455
 Alpha virt. eigenvalues --    5.08714   5.19378   5.35697   5.36397   5.39302
 Alpha virt. eigenvalues --    5.47279   5.47584   5.52662   5.57775   5.62829
 Alpha virt. eigenvalues --    5.77690   5.95924   6.05762   6.73783   6.75793
 Alpha virt. eigenvalues --    7.13077   7.18682   7.27951   7.38442   7.39613
 Alpha virt. eigenvalues --    7.45332   7.52139   7.74124   7.75277   8.00278
 Alpha virt. eigenvalues --    8.32544   8.34479  51.45518  51.53808
  Beta  occ. eigenvalues --  -20.66725 -20.64966  -1.51578  -1.10641  -0.75430
  Beta  occ. eigenvalues --   -0.65225  -0.57269  -0.48820
  Beta virt. eigenvalues --    0.04432   0.10220   0.17113   0.21534   0.23957
  Beta virt. eigenvalues --    0.24504   0.27684   0.28614   0.32007   0.32699
  Beta virt. eigenvalues --    0.42360   0.42849   0.66539   0.83769   0.87290
  Beta virt. eigenvalues --    1.04995   1.14106   1.23618   1.25044   1.26267
  Beta virt. eigenvalues --    1.33439   1.48420   1.55194   1.55235   1.70347
  Beta virt. eigenvalues --    1.74491   1.77516   1.84622   2.06404   2.31495
  Beta virt. eigenvalues --    2.43395   2.47406   2.52224   2.81574   2.99171
  Beta virt. eigenvalues --    3.91423   4.06893   4.43715   4.86299   4.97709
  Beta virt. eigenvalues --    5.06514   5.10234   5.20789   5.41616   5.42635
  Beta virt. eigenvalues --    5.47496   5.49202   5.53327   5.56145   5.59518
  Beta virt. eigenvalues --    5.63959   5.79683   5.97394   6.07222   6.76700
  Beta virt. eigenvalues --    6.78022   7.22034   7.28553   7.33622   7.39271
  Beta virt. eigenvalues --    7.42825   7.47832   7.53205   7.76791   7.78359
  Beta virt. eigenvalues --    8.00858   8.33395   8.35946  51.47788  51.54426
          Condensed to atoms (all electrons):
              1          2          3
     1  O    7.795286   0.250790   0.190440
     2  H    0.250790   0.509125  -0.042295
     3  O    0.190440  -0.042295   7.897720
 Mulliken atomic charges:
              1
     1  O   -0.236516
     2  H    0.282381
     3  O   -0.045865
 Sum of Mulliken atomic charges =   0.00000
 Mulliken charges with hydrogens summed into heavy atoms:
              1
     1  O    0.045865
     3  O   -0.045865
 Sum of Mulliken charges with hydrogens summed into heavy atoms =   0.00000
          Atomic-Atomic Spin Densities.
              1          2          3
     1  O    0.184257   0.004127  -0.109278
     2  H    0.004127  -0.012359   0.001224
     3  O   -0.109278   0.001224   1.035956
 Mulliken atomic spin densities:
              1
     1  O    0.079106
     2  H   -0.007008
     3  O    0.927902
 Sum of Mulliken atomic spin densities =   1.00000
 Electronic spatial extent (au):  <R**2>=             54.5650
 Charge=              0.0000 electrons
 Dipole moment (field-independent basis, Debye):
    X=             -1.8001    Y=             -0.9374    Z=              0.0000  Tot=              2.0296
 Quadrupole moment (field-independent basis, Debye-Ang):
   XX=             -9.7702   YY=            -10.9270   ZZ=            -10.9432
   XY=              1.8030   XZ=              0.0000   YZ=              0.0000
 Traceless Quadrupole moment (field-independent basis, Debye-Ang):
   XX=              0.7766   YY=             -0.3802   ZZ=             -0.3964
   XY=              1.8030   XZ=              0.0000   YZ=              0.0000
 Octapole moment (field-independent basis, Debye-Ang**2):
  XXX=             -2.3254  YYY=             -1.4041  ZZZ=              0.0000  XYY=             -1.8577
  XXY=             -1.9621  XXZ=              0.0000  XZZ=             -0.2005  YZZ=              0.5338
  YYZ=              0.0000  XYZ=              0.0000
 Hexadecapole moment (field-independent basis, Debye-Ang**3):
 XXXX=             -8.7880 YYYY=            -36.4488 ZZZZ=             -8.0049 XXXY=              0.5242
 XXXZ=              0.0000 YYYX=              0.7192 YYYZ=              0.0000 ZZZX=              0.0000
 ZZZY=              0.0000 XXYY=             -7.4475 XXZZ=             -3.0962 YYZZ=             -7.8393
 XXYZ=              0.0000 YYXZ=              0.0000 ZZXY=             -0.2513
 N-N= 3.213332679614D+01 E-N=-6.246471250527D+02  KE= 2.234351851885D+02
 Symmetry A'   KE= 2.139943181713D+02
 Symmetry A"   KE= 9.440867017247D+00
 Leave Link  601 at Mon Feb 10 17:16:02 2014, MaxMem= 4026531840 cpu:       2.9
 (Enter /usr/caen/gaussian-09revc/g09/l9999.exe)
 1\1\GINC-NYX5240\SP\UMP2-FC\CBSB3\H1O2(2)\HETANJIN\10-Feb-2014\0\\#P G
 eom=AllCheck Guess=TCheck SCRF=Check MP2/CBSB3 CBSExtrap=(NMin=10,MinP
 op)\\optimization and freq\\0,2\O,0,0.0559651399,-0.6106994904,0.\H,0,
 -0.8834064379,-0.8735412802,0.\O,0,0.053492298,0.7174047706,0.\\Versio
 n=EM64L-G09RevC.01\State=2-A"\HF=-150.2317839\MP2=-150.6700692\E2(CBS)
 =-0.4865043\CBS-Int=-0.4731189\OIii=3.6416668\PUHF=-150.2365775\PMP2-0
 =-150.6730378\S2=0.762811\S2-1=0.753001\S2A=0.750122\RMSD=9.416e-09\PG
 =CS [SG(H1O2)]\\@


 THE THINKER DIES, BUT HIS THOUGHTS ARE BEYOND THE 
 REACH OF DESTRUCTION.  MEN ARE MORTAL; BUT IDEAS 
 ARE IMMORTAL.
                              -- WALTER LIPPMANN

 Complete Basis Set (CBS) Extrapolation:
 M. R. Nyden and G. A. Petersson, JCP 75, 1843 (1981)
 G. A. Petersson and M. A. Al-Laham, JCP 94, 6081 (1991)
 G. A. Petersson, T. Tensfeldt, and J. A. Montgomery, JCP 94, 6091 (1991)
 J. A. Montgomery, J. W. Ochterski, and G. A. Petersson, JCP 101, 5900 (1994)

 Temperature=               298.150000 Pressure=                       1.000000
 E(ZPE)=                      0.013987 E(Thermal)=                     0.016847
 E(SCF)=                   -150.231784 DE(MP2)=                       -0.438285
 DE(CBS)=                    -0.048219 DE(MP34)=                      -0.016341
 DE(CCSD)=                   -0.012637 DE(Int)=                        0.013385
 DE(Empirical)=              -0.021207
 CBS-QB3 (0 K)=            -150.741102 CBS-QB3 Energy=              -150.738242
 CBS-QB3 Enthalpy=         -150.737298 CBS-QB3 Free Energy=         -150.763279
 1\1\GINC-NYX5240\Mixed\CBS-QB3\CBS-QB3\H1O2(2)\HETANJIN\10-Feb-2014\0\
 \#p cbs-qb3 opt=calcfc freq geom=check guess=read\\optimization and fr
 eq\\0,2\O,0,0.0559651399,-0.6106994904,0.\H,0,-0.8834064379,-0.8735412
 802,0.\O,0,0.053492298,0.7174047706,0.\\Version=EM64L-G09RevC.01\State
 =2-A"\HF/CbsB3=-150.2317839\E2(CBS)/CbsB3=-0.4865043\CBS-Int/CbsB3=0.0
 133854\OIii/CbsB3=3.6416668\MP2/CbsB4=-150.5321529\MP4(SDQ)/CbsB4=-150
 .5484943\MP4(SDQ)/6-31+G(d')=-150.5336533\QCISD(T)/6-31+G(d')=-150.546
 2902\CBSQB3=-150.7411019\FreqCoord=0.1057587873,-1.1540547863,0.,-1.66
 93962316,-1.6507537853,0.,0.1010857935,1.3556985428,0.\PG=CS [SG(H1O2)
 ]\NImag=0\\0.51939760,0.07281304,0.44058196,0.,0.,-0.00007965,-0.46239
 726,-0.08812650,0.,0.44245974,-0.04869890,-0.04521192,0.,0.09565859,0.
 09324895,0.,0.,0.00003203,0.,0.,-0.00004367,-0.05700035,0.01531346,0.,
 0.01993751,-0.04695970,0.,0.03706283,-0.02411414,-0.39537004,0.,-0.007
 53210,-0.04803703,0.,0.03164624,0.44340707,0.,0.,0.00004763,0.,0.,0.00
 001164,0.,0.,-0.00005927\\-0.00000997,-0.00000275,0.,0.00000110,0.0000
 0924,0.,0.00000888,-0.00000649,0.\\\@
 Job cpu time:  0 days  0 hours  3 minutes 31.2 seconds.
 File lengths (MBytes):  RWF=     55 Int=      0 D2E=      0 Chk=      2 Scr=      1
 Normal termination of Gaussian 09 at Mon Feb 10 17:16:03 2014.
