 Entering Gaussian System, Link 0=g09
 Initial command:
 /usr/caen/gaussian-09revc/g09/l1.exe /scratch/avioli_flux/hetanjin/scratch/Gau-16596.inp -scrdir=/scratch/avioli_flux/hetanjin/scratch/
 Entering Link 1 = /usr/caen/gaussian-09revc/g09/l1.exe PID=     16597.
  
 Copyright (c) 1988,1990,1992,1993,1995,1998,2003,2009,2011,
            Gaussian, Inc.  All Rights Reserved.
  
 This is part of the Gaussian(R) 09 program.  It is based on
 the Gaussian(R) 03 system (copyright 2003, Gaussian, Inc.),
 the Gaussian(R) 98 system (copyright 1998, Gaussian, Inc.),
 the Gaussian(R) 94 system (copyright 1995, Gaussian, Inc.),
 the Gaussian 92(TM) system (copyright 1992, Gaussian, Inc.),
 the Gaussian 90(TM) system (copyright 1990, Gaussian, Inc.),
 the Gaussian 88(TM) system (copyright 1988, Gaussian, Inc.),
 the Gaussian 86(TM) system (copyright 1986, Carnegie Mellon
 University), and the Gaussian 82(TM) system (copyright 1983,
 Carnegie Mellon University). Gaussian is a federally registered
 trademark of Gaussian, Inc.
  
 This software contains proprietary and confidential information,
 including trade secrets, belonging to Gaussian, Inc.
  
 This software is provided under written license and may be
 used, copied, transmitted, or stored only in accord with that
 written license.
  
 The following legend is applicable only to US Government
 contracts under FAR:
  
                    RESTRICTED RIGHTS LEGEND
  
 Use, reproduction and disclosure by the US Government is
 subject to restrictions as set forth in subparagraphs (a)
 and (c) of the Commercial Computer Software - Restricted
 Rights clause in FAR 52.227-19.
  
 Gaussian, Inc.
 340 Quinnipiac St., Bldg. 40, Wallingford CT 06492
  
  
 ---------------------------------------------------------------
 Warning -- This program may not be used in any manner that
 competes with the business of Gaussian, Inc. or will provide
 assistance to any competitor of Gaussian, Inc.  The licensee
 of this program is prohibited from giving any competitor of
 Gaussian, Inc. access to this program.  By using this program,
 the user acknowledges that Gaussian, Inc. is engaged in the
 business of creating and licensing software in the field of
 computational chemistry and represents and warrants to the
 licensee that it is not a competitor of Gaussian, Inc. and that
 it will not use this program in any manner prohibited above.
 ---------------------------------------------------------------
  

 Cite this work as:
 Gaussian 09, Revision C.01,
 M. J. Frisch, G. W. Trucks, H. B. Schlegel, G. E. Scuseria, 
 M. A. Robb, J. R. Cheeseman, G. Scalmani, V. Barone, B. Mennucci, 
 G. A. Petersson, H. Nakatsuji, M. Caricato, X. Li, H. P. Hratchian, 
 A. F. Izmaylov, J. Bloino, G. Zheng, J. L. Sonnenberg, M. Hada, 
 M. Ehara, K. Toyota, R. Fukuda, J. Hasegawa, M. Ishida, T. Nakajima, 
 Y. Honda, O. Kitao, H. Nakai, T. Vreven, J. A. Montgomery, Jr., 
 J. E. Peralta, F. Ogliaro, M. Bearpark, J. J. Heyd, E. Brothers, 
 K. N. Kudin, V. N. Staroverov, T. Keith, R. Kobayashi, J. Normand, 
 K. Raghavachari, A. Rendell, J. C. Burant, S. S. Iyengar, J. Tomasi, 
 M. Cossi, N. Rega, J. M. Millam, M. Klene, J. E. Knox, J. B. Cross, 
 V. Bakken, C. Adamo, J. Jaramillo, R. Gomperts, R. E. Stratmann, 
 O. Yazyev, A. J. Austin, R. Cammi, C. Pomelli, J. W. Ochterski, 
 R. L. Martin, K. Morokuma, V. G. Zakrzewski, G. A. Voth, 
 P. Salvador, J. J. Dannenberg, S. Dapprich, A. D. Daniels, 
 O. Farkas, J. B. Foresman, J. V. Ortiz, J. Cioslowski, 
 and D. J. Fox, Gaussian, Inc., Wallingford CT, 2010.
 
 ******************************************
 Gaussian 09:  EM64L-G09RevC.01 23-Sep-2011
                10-Feb-2014 
 ******************************************
 %mem=30GB
 %nprocshared=8
 Will use up to    8 processors via shared memory.
 %chk=OH.chk
 --------------------------------------------------
 #p UB3LYP/6-311++G(d,p) guess=mix stable=(opt,xqc)
 --------------------------------------------------
 1/38=1/1;
 2/12=2,17=6,18=5,40=1/2;
 3/5=4,6=6,7=1111,11=2,16=1,25=1,30=1,74=-5,116=2/1,2,3;
 4/13=-1/1;
 5/5=2,38=5/2;
 6/7=2,8=2,9=2,10=2,28=1/1;
 8/6=1,10=90,11=11/1;
 9/8=-3,42=1,46=1/14;
 5/5=2,8=3,13=1,17=40,38=5/2,8(-2);
 6/7=2,8=2,9=2,10=2,28=1/1;
 99/5=1,9=1/99;
 Leave Link    1 at Mon Feb 10 17:09:17 2014, MaxMem= 4026531840 cpu:       0.6
 (Enter /usr/caen/gaussian-09revc/g09/l101.exe)
 -------------------------------
 OH using cbs-qb3 to cal. energy
 -------------------------------
 Charge =  0 Multiplicity = 2
 Symbolic Z-Matrix:
 O                     0.        0.        0.10843 
 H                     0.        0.       -0.86743 
 
 NAtoms=      2 NQM=        0 NQMF=       0 NMMI=      2 NMMIF=      0
                NMic=       0 NMicF=      0.
                    Isotopes and Nuclear Properties:
 (Nuclear quadrupole moments (NQMom) in fm**2, nuclear magnetic moments (NMagM)
  in nuclear magnetons)

  Atom         1           2
 IAtWgt=          16           1
 AtmWgt=  15.9949146   1.0078250
 NucSpn=           0           1
 AtZEff=   0.0000000   0.0000000
 NQMom=    0.0000000   0.0000000
 NMagM=    0.0000000   2.7928460
 Leave Link  101 at Mon Feb 10 17:09:17 2014, MaxMem= 4026531840 cpu:       0.3
 (Enter /usr/caen/gaussian-09revc/g09/l202.exe)
                          Input orientation:                          
 ---------------------------------------------------------------------
 Center     Atomic      Atomic             Coordinates (Angstroms)
 Number     Number       Type             X           Y           Z
 ---------------------------------------------------------------------
      1          8           0        0.000000    0.000000    0.108428
      2          1           0        0.000000    0.000000   -0.867426
 ---------------------------------------------------------------------
 Stoichiometry    HO(2)
 Framework group  C*V[C*(HO)]
 Deg. of freedom     1
 Full point group                 C*V     NOp   4
 Largest Abelian subgroup         C2V     NOp   4
 Largest concise Abelian subgroup C1      NOp   1
                         Standard orientation:                         
 ---------------------------------------------------------------------
 Center     Atomic      Atomic             Coordinates (Angstroms)
 Number     Number       Type             X           Y           Z
 ---------------------------------------------------------------------
      1          8           0        0.000000    0.000000    0.108428
      2          1           0        0.000000    0.000000   -0.867426
 ---------------------------------------------------------------------
 Rotational constants (GHZ):      0.0000000    559.7567488    559.7567488
 Leave Link  202 at Mon Feb 10 17:09:17 2014, MaxMem= 4026531840 cpu:       0.1
 (Enter /usr/caen/gaussian-09revc/g09/l301.exe)
 Standard basis: 6-311++G(d,p) (5D, 7F)
 Ernie: Thresh=  0.10000D-02 Tol=  0.10000D-05 Strict=F.
 There are    16 symmetry adapted basis functions of A1  symmetry.
 There are     1 symmetry adapted basis functions of A2  symmetry.
 There are     6 symmetry adapted basis functions of B1  symmetry.
 There are     6 symmetry adapted basis functions of B2  symmetry.
 Integral buffers will be    131072 words long.
 Raffenetti 2 integral format.
 Two-electron integral symmetry is turned on.
    29 basis functions,    45 primitive gaussians,    30 cartesian basis functions
     5 alpha electrons        4 beta electrons
       nuclear repulsion energy         4.3381670503 Hartrees.
 IExCor=  402 DFT=T Ex+Corr=B3LYP ExCW=0 ScaHFX=  0.200000
 ScaDFX=  0.800000  0.720000  1.000000  0.810000 ScalE2=  1.000000  1.000000
 IRadAn=      0 IRanWt=     -1 IRanGd=            0 ICorTp=0
 NAtoms=    2 NActive=    2 NUniq=    2 SFac= 1.00D+00 NAtFMM=   60 NAOKFM=F Big=F
 Leave Link  301 at Mon Feb 10 17:09:18 2014, MaxMem= 4026531840 cpu:       0.6
 (Enter /usr/caen/gaussian-09revc/g09/l302.exe)
 NPDir=0 NMtPBC=     1 NCelOv=     1 NCel=       1 NClECP=     1 NCelD=      1
         NCelK=      1 NCelE2=     1 NClLst=     1 CellRange=     0.0.
 One-electron integrals computed using PRISM.
 NBasis=    29 RedAO= T  NBF=    16     1     6     6
 NBsUse=    29 1.00D-06 NBFU=    16     1     6     6
 Precomputing XC quadrature grid using
 IXCGrd= 2 IRadAn=           0 IRanWt=          -1 IRanGd=           0 AccXCQ= 0.00D+00.
 NRdTot=     129 NPtTot=       16214 NUsed=       17156 NTot=       17188
 NSgBfM=    30    30    30    30    30 NAtAll=     2     2.
 Leave Link  302 at Mon Feb 10 17:09:18 2014, MaxMem= 4026531840 cpu:       3.3
 (Enter /usr/caen/gaussian-09revc/g09/l303.exe)
 DipDrv:  MaxL=1.
 Leave Link  303 at Mon Feb 10 17:09:19 2014, MaxMem= 4026531840 cpu:       1.2
 (Enter /usr/caen/gaussian-09revc/g09/l401.exe)
 Harris functional with IExCor=  402 diagonalized for initial guess.
 ExpMin= 3.60D-02 ExpMax= 8.59D+03 ExpMxC= 1.30D+03 IAcc=3 IRadAn=         5 AccDes= 0.00D+00
 HarFok:  IExCor=  402 AccDes= 0.00D+00 IRadAn=         5 IDoV= 1
 ScaDFX=  1.000000  1.000000  1.000000  1.000000
 FoFCou: FMM=F IPFlag=           0 FMFlag=      100000 FMFlg1=           0
         NFxFlg=           0 DoJE=T BraDBF=F KetDBF=T FulRan=T
         Omega=  0.000000  0.000000  1.000000  0.000000  0.000000 ICntrl=     500 IOpCl=  0
         NMat0=    1 NMatS0=    1 NMatT0=    0 NMatD0=    1 NMtDS0=    0 NMtDT0=    0
         I1Cent=           4 NGrid=           0.
 Petite list used in FoFCou.
 Harris En= -75.7289324185037    
 Mixing orbitals, IMix= 1 IMixAn=  0 NRI=1 NE=    5 Coef=  7.07106781D-01  7.07106781D-01
 Mixing orbitals, IMix= 1 IMixAn=  0 NRI=1 NE=    4 Coef= -7.07106781D-01  7.07106781D-01
 Initial guess orbital symmetries:
 Alpha Orbitals:
       Occupied  (SG) (SG) (SG) (?A) (?A)
       Virtual   (?A) (SG) (PI) (PI) (SG) (SG) (SG) (SG) (PI) (PI)
                 (SG) (PI) (PI) (SG) (SG) (DLTA) (DLTA) (PI) (PI)
                 (SG) (PI) (PI) (SG) (SG)
 Beta  Orbitals:
       Occupied  (SG) (SG) (SG) (PI)
       Virtual   (PI) (SG) (SG) (PI) (PI) (SG) (SG) (SG) (SG) (PI)
                 (PI) (SG) (PI) (PI) (SG) (SG) (DLTA) (DLTA) (PI)
                 (PI) (SG) (PI) (PI) (SG) (SG)
 Initial guess <Sx>= 0.0000 <Sy>= 0.0000 <Sz>= 0.5000 <S**2>= 1.0000 S= 0.6180
 Leave Link  401 at Mon Feb 10 17:09:21 2014, MaxMem= 4026531840 cpu:       7.1
 (Enter /usr/caen/gaussian-09revc/g09/l502.exe)
 UHF open shell SCF:
 Requested convergence on RMS density matrix=1.00D-08 within 128 cycles.
 Requested convergence on MAX density matrix=1.00D-06.
 Requested convergence on             energy=1.00D-06.
 No special actions if energy rises.
 Using DIIS extrapolation, IDIIS=  1040.
 Integral symmetry usage will be decided dynamically.
        17125 words used for storage of precomputed grid.
 Keep R1 and R2 ints in memory in canonical form, NReq=1113759.
 IEnd=       38468 IEndB=       38468 NGot=  4026531840 MDV=  4026294225
 LenX=  4026294225 LenY=  4026292884
 Symmetry not used in FoFDir.
 MinBra= 0 MaxBra= 2 Meth= 1.
 IRaf=       0 NMat=   1 IRICut=       1 DoRegI=T DoRafI=F ISym2E= 0 JSym2E=0.
 An orbital has undefined symmetry, so N**3 symmetry is turned off.

 Cycle   1  Pass 1  IDiag  1:
 Density matrix breaks symmetry, PCut= 1.00D-04
 Density has only Abelian symmetry.
 E= -75.5886162426992    
 DIIS: error= 4.68D-02 at cycle   1 NSaved=   1.
 NSaved= 1 IEnMin= 1 EnMin= -75.5886162426992     IErMin= 1 ErrMin= 4.68D-02
 ErrMax= 4.68D-02 EMaxC= 1.00D-01 BMatC= 1.10D-01 BMatP= 1.10D-01
 IDIUse=3 WtCom= 5.32D-01 WtEn= 4.68D-01
 Coeff-Com:  0.100D+01
 Coeff-En:   0.100D+01
 Coeff:      0.100D+01
 Gap=     0.054 Goal=   None    Shift=    0.000
 Gap=     0.150 Goal=   None    Shift=    0.000
 GapD=    0.054 DampG=0.500 DampE=0.500 DampFc=0.2500 IDamp=-1.
 Damping current iteration by 2.50D-01
 RMSDP=2.95D-02 MaxDP=4.95D-01              OVMax= 6.03D-01

 Cycle   2  Pass 1  IDiag  1:
 Density matrix breaks symmetry, PCut= 1.00D-04
 Density has only Abelian symmetry.
 E= -75.6304929212920     Delta-E=       -0.041876678593 Rises=F Damp=T
 DIIS: error= 3.39D-02 at cycle   2 NSaved=   2.
 NSaved= 2 IEnMin= 2 EnMin= -75.6304929212920     IErMin= 2 ErrMin= 3.39D-02
 ErrMax= 3.39D-02 EMaxC= 1.00D-01 BMatC= 5.01D-02 BMatP= 1.10D-01
 IDIUse=3 WtCom= 6.61D-01 WtEn= 3.39D-01
 Coeff-Com: -0.577D+00 0.158D+01
 Coeff-En:   0.000D+00 0.100D+01
 Coeff:     -0.381D+00 0.138D+01
 Gap=     0.320 Goal=   None    Shift=    0.000
 Gap=     0.150 Goal=   None    Shift=    0.000
 RMSDP=2.20D-02 MaxDP=3.72D-01 DE=-4.19D-02 OVMax= 5.29D-02

 Cycle   3  Pass 1  IDiag  1:
 Density matrix breaks symmetry, PCut= 1.00D-04
 Density has only Abelian symmetry.
 E= -75.7578360018776     Delta-E=       -0.127343080586 Rises=F Damp=F
 DIIS: error= 9.47D-03 at cycle   3 NSaved=   3.
 NSaved= 3 IEnMin= 3 EnMin= -75.7578360018776     IErMin= 3 ErrMin= 9.47D-03
 ErrMax= 9.47D-03 EMaxC= 1.00D-01 BMatC= 1.32D-02 BMatP= 5.01D-02
 IDIUse=3 WtCom= 9.05D-01 WtEn= 9.47D-02
 Coeff-Com:  0.748D+00-0.102D+01 0.127D+01
 Coeff-En:   0.000D+00 0.000D+00 0.100D+01
 Coeff:      0.677D+00-0.925D+00 0.125D+01
 Gap=     0.328 Goal=   None    Shift=    0.000
 Gap=     0.144 Goal=   None    Shift=    0.000
 RMSDP=2.45D-03 MaxDP=1.56D-02 DE=-1.27D-01 OVMax= 4.43D-02

 Cycle   4  Pass 1  IDiag  1:
 Density matrix breaks symmetry, PCut= 1.00D-04
 Density has only Abelian symmetry.
 E= -75.7617606134038     Delta-E=       -0.003924611526 Rises=F Damp=F
 DIIS: error= 6.18D-03 at cycle   4 NSaved=   4.
 NSaved= 4 IEnMin= 4 EnMin= -75.7617606134038     IErMin= 4 ErrMin= 6.18D-03
 ErrMax= 6.18D-03 EMaxC= 1.00D-01 BMatC= 3.07D-03 BMatP= 1.32D-02
 IDIUse=3 WtCom= 9.38D-01 WtEn= 6.18D-02
 Coeff-Com: -0.214D+00 0.297D+00 0.947D-01 0.822D+00
 Coeff-En:   0.000D+00 0.000D+00 0.000D+00 0.100D+01
 Coeff:     -0.201D+00 0.279D+00 0.888D-01 0.833D+00
 Gap=     0.337 Goal=   None    Shift=    0.000
 Gap=     0.144 Goal=   None    Shift=    0.000
 RMSDP=5.67D-04 MaxDP=6.69D-03 DE=-3.92D-03 OVMax= 1.23D-02

 Cycle   5  Pass 1  IDiag  1:
 Density matrix breaks symmetry, PCut= 1.00D-04
 Density has only Abelian symmetry.
 E= -75.7623729032991     Delta-E=       -0.000612289895 Rises=F Damp=F
 DIIS: error= 8.05D-04 at cycle   5 NSaved=   5.
 NSaved= 5 IEnMin= 5 EnMin= -75.7623729032991     IErMin= 5 ErrMin= 8.05D-04
 ErrMax= 8.05D-04 EMaxC= 1.00D-01 BMatC= 1.04D-04 BMatP= 3.07D-03
 IDIUse=3 WtCom= 9.92D-01 WtEn= 8.05D-03
 Coeff-Com:  0.411D-01-0.616D-01-0.495D-01-0.332D-01 0.110D+01
 Coeff-En:   0.000D+00 0.000D+00 0.000D+00 0.000D+00 0.100D+01
 Coeff:      0.408D-01-0.611D-01-0.491D-01-0.329D-01 0.110D+01
 Gap=     0.338 Goal=   None    Shift=    0.000
 Gap=     0.143 Goal=   None    Shift=    0.000
 RMSDP=2.03D-04 MaxDP=1.67D-03 DE=-6.12D-04 OVMax= 4.57D-03

 Cycle   6  Pass 1  IDiag  1:
 Density matrix breaks symmetry, PCut= 1.00D-04
 Density has only Abelian symmetry.
 E= -75.7624112042899     Delta-E=       -0.000038300991 Rises=F Damp=F
 DIIS: error= 1.14D-04 at cycle   6 NSaved=   6.
 NSaved= 6 IEnMin= 6 EnMin= -75.7624112042899     IErMin= 6 ErrMin= 1.14D-04
 ErrMax= 1.14D-04 EMaxC= 1.00D-01 BMatC= 1.84D-06 BMatP= 1.04D-04
 IDIUse=3 WtCom= 9.99D-01 WtEn= 1.14D-03
 Coeff-Com:  0.109D-02-0.787D-03 0.125D-01-0.238D-01-0.194D+00 0.120D+01
 Coeff-En:   0.000D+00 0.000D+00 0.000D+00 0.000D+00 0.000D+00 0.100D+01
 Coeff:      0.108D-02-0.786D-03 0.125D-01-0.238D-01-0.193D+00 0.120D+01
 Gap=     0.338 Goal=   None    Shift=    0.000
 Gap=     0.143 Goal=   None    Shift=    0.000
 RMSDP=3.49D-05 MaxDP=2.12D-04 DE=-3.83D-05 OVMax= 6.81D-04

 Cycle   7  Pass 1  IDiag  1:
 Density matrix breaks symmetry, PCut= 1.00D-04
 Density has only Abelian symmetry.
 E= -75.7624122291438     Delta-E=       -0.000001024854 Rises=F Damp=F
 DIIS: error= 2.34D-05 at cycle   7 NSaved=   7.
 NSaved= 7 IEnMin= 7 EnMin= -75.7624122291438     IErMin= 7 ErrMin= 2.34D-05
 ErrMax= 2.34D-05 EMaxC= 1.00D-01 BMatC= 7.57D-08 BMatP= 1.84D-06
 IDIUse=1 WtCom= 1.00D+00 WtEn= 0.00D+00
 Coeff-Com: -0.143D-02 0.233D-02 0.476D-03-0.117D-02-0.349D-01 0.530D-01
 Coeff-Com:  0.982D+00
 Coeff:     -0.143D-02 0.233D-02 0.476D-03-0.117D-02-0.349D-01 0.530D-01
 Coeff:      0.982D+00
 Gap=     0.338 Goal=   None    Shift=    0.000
 Gap=     0.143 Goal=   None    Shift=    0.000
 RMSDP=6.18D-06 MaxDP=5.62D-05 DE=-1.02D-06 OVMax= 1.67D-04

 Cycle   8  Pass 1  IDiag  1:
 Density matrix breaks symmetry, PCut= 1.00D-04
 Density has only Abelian symmetry.
 E= -75.7624122682113     Delta-E=       -0.000000039067 Rises=F Damp=F
 DIIS: error= 1.18D-05 at cycle   8 NSaved=   8.
 NSaved= 8 IEnMin= 8 EnMin= -75.7624122682113     IErMin= 8 ErrMin= 1.18D-05
 ErrMax= 1.18D-05 EMaxC= 1.00D-01 BMatC= 1.43D-08 BMatP= 7.57D-08
 IDIUse=1 WtCom= 1.00D+00 WtEn= 0.00D+00
 Coeff-Com:  0.186D-03-0.348D-03-0.789D-03 0.221D-02 0.982D-02-0.712D-01
 Coeff-Com: -0.485D-01 0.111D+01
 Coeff:      0.186D-03-0.348D-03-0.789D-03 0.221D-02 0.982D-02-0.712D-01
 Coeff:     -0.485D-01 0.111D+01
 Gap=     0.338 Goal=   None    Shift=    0.000
 Gap=     0.143 Goal=   None    Shift=    0.000
 RMSDP=3.08D-06 MaxDP=2.69D-05 DE=-3.91D-08 OVMax= 1.13D-04

 Cycle   9  Pass 1  IDiag  1:
 Density matrix breaks symmetry, PCut= 1.00D-04
 Density has only Abelian symmetry.
 E= -75.7624122757764     Delta-E=       -0.000000007565 Rises=F Damp=F
 DIIS: error= 3.01D-06 at cycle   9 NSaved=   9.
 NSaved= 9 IEnMin= 9 EnMin= -75.7624122757764     IErMin= 9 ErrMin= 3.01D-06
 ErrMax= 3.01D-06 EMaxC= 1.00D-01 BMatC= 1.66D-09 BMatP= 1.43D-08
 IDIUse=1 WtCom= 1.00D+00 WtEn= 0.00D+00
 Coeff-Com:  0.515D-04-0.953D-04 0.148D-03-0.132D-03 0.139D-02 0.737D-02
 Coeff-Com: -0.140D+00 0.503D-01 0.108D+01
 Coeff:      0.515D-04-0.953D-04 0.148D-03-0.132D-03 0.139D-02 0.737D-02
 Coeff:     -0.140D+00 0.503D-01 0.108D+01
 Gap=     0.338 Goal=   None    Shift=    0.000
 Gap=     0.143 Goal=   None    Shift=    0.000
 RMSDP=9.35D-07 MaxDP=6.04D-06 DE=-7.57D-09 OVMax= 3.56D-05

 Cycle  10  Pass 1  IDiag  1:
 Density matrix breaks symmetry, PCut= 1.00D-04
 Density has only Abelian symmetry.
 E= -75.7624122766524     Delta-E=       -0.000000000876 Rises=F Damp=F
 DIIS: error= 1.33D-06 at cycle  10 NSaved=  10.
 NSaved=10 IEnMin=10 EnMin= -75.7624122766524     IErMin=10 ErrMin= 1.33D-06
 ErrMax= 1.33D-06 EMaxC= 1.00D-01 BMatC= 8.73D-11 BMatP= 1.66D-09
 IDIUse=1 WtCom= 1.00D+00 WtEn= 0.00D+00
 Coeff-Com: -0.930D-05 0.139D-04 0.741D-05-0.273D-04-0.404D-03 0.145D-02
 Coeff-Com:  0.115D-01-0.399D-02-0.250D+00 0.124D+01
 Coeff:     -0.930D-05 0.139D-04 0.741D-05-0.273D-04-0.404D-03 0.145D-02
 Coeff:      0.115D-01-0.399D-02-0.250D+00 0.124D+01
 Gap=     0.338 Goal=   None    Shift=    0.000
 Gap=     0.143 Goal=   None    Shift=    0.000
 RMSDP=4.74D-07 MaxDP=5.21D-06 DE=-8.76D-10 OVMax= 2.68D-05

 Cycle  11  Pass 1  IDiag  1:
 Density matrix breaks symmetry, PCut= 1.00D-04
 Density has only Abelian symmetry.
 E= -75.7624122768630     Delta-E=       -0.000000000211 Rises=F Damp=F
 DIIS: error= 1.31D-06 at cycle  11 NSaved=  11.
 NSaved=11 IEnMin=11 EnMin= -75.7624122768630     IErMin=11 ErrMin= 1.31D-06
 ErrMax= 1.31D-06 EMaxC= 1.00D-01 BMatC= 3.83D-11 BMatP= 8.73D-11
 IDIUse=1 WtCom= 1.00D+00 WtEn= 0.00D+00
 Coeff-Com:  0.505D-05-0.121D-04-0.871D-05 0.555D-04 0.226D-03-0.101D-02
 Coeff-Com: -0.399D-02 0.104D-01 0.183D-01-0.256D+00 0.123D+01
 Coeff:      0.505D-05-0.121D-04-0.871D-05 0.555D-04 0.226D-03-0.101D-02
 Coeff:     -0.399D-02 0.104D-01 0.183D-01-0.256D+00 0.123D+01
 Gap=     0.338 Goal=   None    Shift=    0.000
 Gap=     0.143 Goal=   None    Shift=    0.000
 RMSDP=4.26D-07 MaxDP=5.04D-06 DE=-2.11D-10 OVMax= 2.65D-05

 Cycle  12  Pass 1  IDiag  1:
 Density matrix breaks symmetry, PCut= 1.00D-04
 Density has only Abelian symmetry.
 E= -75.7624122770350     Delta-E=       -0.000000000172 Rises=F Damp=F
 DIIS: error= 1.31D-06 at cycle  12 NSaved=  12.
 NSaved=12 IEnMin=12 EnMin= -75.7624122770350     IErMin=12 ErrMin= 1.31D-06
 ErrMax= 1.31D-06 EMaxC= 1.00D-01 BMatC= 3.69D-11 BMatP= 3.83D-11
 IDIUse=1 WtCom= 1.00D+00 WtEn= 0.00D+00
 Coeff-Com:  0.192D-05-0.784D-05 0.116D-04 0.111D-04 0.305D-03-0.240D-03
 Coeff-Com: -0.148D-01 0.985D-02 0.137D+00-0.356D+00-0.145D+00 0.137D+01
 Coeff:      0.192D-05-0.784D-05 0.116D-04 0.111D-04 0.305D-03-0.240D-03
 Coeff:     -0.148D-01 0.985D-02 0.137D+00-0.356D+00-0.145D+00 0.137D+01
 Gap=     0.338 Goal=   None    Shift=    0.000
 Gap=     0.143 Goal=   None    Shift=    0.000
 RMSDP=5.38D-07 MaxDP=6.36D-06 DE=-1.72D-10 OVMax= 3.37D-05

 Cycle  13  Pass 1  IDiag  1:
 Density matrix breaks symmetry, PCut= 1.00D-04
 Density has only Abelian symmetry.
 E= -75.7624122772507     Delta-E=       -0.000000000216 Rises=F Damp=F
 DIIS: error= 1.31D-06 at cycle  13 NSaved=  13.
 NSaved=13 IEnMin=13 EnMin= -75.7624122772507     IErMin=12 ErrMin= 1.31D-06
 ErrMax= 1.31D-06 EMaxC= 1.00D-01 BMatC= 3.55D-11 BMatP= 3.69D-11
 IDIUse=1 WtCom= 1.00D+00 WtEn= 0.00D+00
 Coeff-Com:  0.473D-05-0.119D-04 0.139D-04 0.563D-05 0.228D-03 0.170D-04
 Coeff-Com: -0.118D-01 0.528D-02 0.850D-01-0.572D-01-0.151D+00-0.906D+00
 Coeff-Com:  0.204D+01
 Coeff:      0.473D-05-0.119D-04 0.139D-04 0.563D-05 0.228D-03 0.170D-04
 Coeff:     -0.118D-01 0.528D-02 0.850D-01-0.572D-01-0.151D+00-0.906D+00
 Coeff:      0.204D+01
 Gap=     0.338 Goal=   None    Shift=    0.000
 Gap=     0.143 Goal=   None    Shift=    0.000
 RMSDP=9.09D-07 MaxDP=1.07D-05 DE=-2.16D-10 OVMax= 5.70D-05

 Cycle  14  Pass 1  IDiag  1:
 Density matrix breaks symmetry, PCut= 1.00D-04
 Density has only Abelian symmetry.
 E= -75.7624122776141     Delta-E=       -0.000000000363 Rises=F Damp=F
 DIIS: error= 1.31D-06 at cycle  14 NSaved=  14.
 NSaved=14 IEnMin=14 EnMin= -75.7624122776141     IErMin=14 ErrMin= 1.31D-06
 ErrMax= 1.31D-06 EMaxC= 1.00D-01 BMatC= 3.56D-11 BMatP= 3.55D-11
 IDIUse=1 WtCom= 1.00D+00 WtEn= 0.00D+00
 Coeff-Com:  0.470D-05-0.119D-04 0.137D-04 0.584D-05 0.228D-03 0.102D-04
 Coeff-Com: -0.116D-01 0.524D-02 0.842D-01-0.566D-01-0.139D+00-0.914D+00
 Coeff-Com:  0.192D+01 0.111D+00
 Coeff:      0.470D-05-0.119D-04 0.137D-04 0.584D-05 0.228D-03 0.102D-04
 Coeff:     -0.116D-01 0.524D-02 0.842D-01-0.566D-01-0.139D+00-0.914D+00
 Coeff:      0.192D+01 0.111D+00
 Gap=     0.338 Goal=   None    Shift=    0.000
 Gap=     0.143 Goal=   None    Shift=    0.000
 RMSDP=9.37D-08 MaxDP=1.11D-06 DE=-3.63D-10 OVMax= 5.87D-06

 Cycle  15  Pass 1  IDiag  1:
 Density matrix breaks symmetry, PCut= 1.00D-04
 Density has only Abelian symmetry.
 E= -75.7624122776516     Delta-E=       -0.000000000037 Rises=F Damp=F
 DIIS: error= 1.31D-06 at cycle  15 NSaved=  15.
 NSaved=15 IEnMin=15 EnMin= -75.7624122776516     IErMin=15 ErrMin= 1.31D-06
 ErrMax= 1.31D-06 EMaxC= 1.00D-01 BMatC= 3.56D-11 BMatP= 3.55D-11
 IDIUse=1 WtCom= 1.00D+00 WtEn= 0.00D+00
 Large coefficients: NSaved= 15 BigCof=  411.60 CofMax=   10.00 Det=-7.84D-18
 Inversion failed.  Reducing to 14 matrices.
 Large coefficients: NSaved= 14 BigCof=  410.61 CofMax=   10.00 Det=-7.84D-18
 Inversion failed.  Reducing to 13 matrices.
 Large coefficients: NSaved= 13 BigCof=  434.50 CofMax=   10.00 Det=-7.89D-18
 Inversion failed.  Reducing to 12 matrices.
 Large coefficients: NSaved= 12 BigCof=  443.36 CofMax=   10.00 Det=-7.98D-18
 Inversion failed.  Reducing to 11 matrices.
 Large coefficients: NSaved= 11 BigCof=  443.58 CofMax=   10.00 Det=-8.04D-18
 Inversion failed.  Reducing to 10 matrices.
 Large coefficients: NSaved= 10 BigCof=  353.62 CofMax=   10.00 Det=-9.16D-18
 Inversion failed.  Reducing to  9 matrices.
 Large coefficients: NSaved=  9 BigCof=  353.24 CofMax=   10.00 Det=-9.18D-18
 Inversion failed.  Reducing to  8 matrices.
 Large coefficients: NSaved=  8 BigCof=  348.09 CofMax=   10.00 Det=-9.68D-18
 Inversion failed.  Reducing to  7 matrices.
 Large coefficients: NSaved=  7 BigCof=  327.35 CofMax=   10.00 Det=-1.04D-17
 Inversion failed.  Reducing to  6 matrices.
 Large coefficients: NSaved=  6 BigCof=  210.16 CofMax=   10.00 Det=-2.25D-17
 Inversion failed.  Reducing to  5 matrices.
 Large coefficients: NSaved=  5 BigCof=  210.02 CofMax=   10.00 Det=-2.25D-17
 Inversion failed.  Reducing to  4 matrices.
 Large coefficients: NSaved=  4 BigCof=  235.98 CofMax=   10.00 Det=-2.64D-17
 Inversion failed.  Reducing to  3 matrices.
 Large coefficients: NSaved=  3 BigCof=  207.33 CofMax=   10.00 Det=-4.67D-17
 Inversion failed.  Reducing to  2 matrices.
 Large coefficients: NSaved=  2 BigCof=  205.64 CofMax=   10.00 Det=-5.03D-17
 Coeff-Com: -0.205D+03 0.206D+03
 Coeff:     -0.205D+03 0.206D+03
 Gap=     0.338 Goal=   None    Shift=    0.000
 Gap=     0.143 Goal=   None    Shift=    0.000
 RMSDP=1.95D-05 MaxDP=2.30D-04 DE=-3.74D-11 OVMax= 1.22D-03

 Cycle  16  Pass 1  IDiag  1:
 Density matrix breaks symmetry, PCut= 1.00D-04
 Density has only Abelian symmetry.
 E= -75.7624122853338     Delta-E=       -0.000000007682 Rises=F Damp=F
 DIIS: error= 1.27D-06 at cycle  16 NSaved=   3.
 NSaved= 3 IEnMin= 3 EnMin= -75.7624122853338     IErMin= 3 ErrMin= 1.27D-06
 ErrMax= 1.27D-06 EMaxC= 1.00D-01 BMatC= 3.27D-11 BMatP= 3.56D-11
 IDIUse=1 WtCom= 1.00D+00 WtEn= 0.00D+00
 Large coefficients: NSaved=  3 BigCof=   71.58 CofMax=   10.00 Det=-2.57D-17
 Inversion failed.  Reducing to  2 matrices.
 Coeff-Com: -0.160D+00 0.116D+01
 Coeff:     -0.160D+00 0.116D+01
 Gap=     0.338 Goal=   None    Shift=    0.000
 Gap=     0.143 Goal=   None    Shift=    0.000
 RMSDP=3.43D-06 MaxDP=4.05D-05 DE=-7.68D-09 OVMax= 2.15D-04

 Cycle  17  Pass 1  IDiag  1:
 Density matrix breaks symmetry, PCut= 1.00D-04
 Density has only Abelian symmetry.
 E= -75.7624122866643     Delta-E=       -0.000000001330 Rises=F Damp=F
 DIIS: error= 1.26D-06 at cycle  17 NSaved=   3.
 NSaved= 3 IEnMin= 3 EnMin= -75.7624122866643     IErMin= 3 ErrMin= 1.26D-06
 ErrMax= 1.26D-06 EMaxC= 1.00D-01 BMatC= 3.26D-11 BMatP= 3.27D-11
 IDIUse=1 WtCom= 1.00D+00 WtEn= 0.00D+00
 Coeff-Com: -0.467D+01-0.162D+01 0.729D+01
 Coeff:     -0.467D+01-0.162D+01 0.729D+01
 Gap=     0.338 Goal=   None    Shift=    0.000
 Gap=     0.143 Goal=   None    Shift=    0.000
 RMSDP=1.13D-04 MaxDP=1.33D-03 DE=-1.33D-09 OVMax= 7.08D-03

 Cycle  18  Pass 1  IDiag  1:
 Density matrix breaks symmetry, PCut= 1.00D-04
 Density has only Abelian symmetry.
 E= -75.7624123265390     Delta-E=       -0.000000039875 Rises=F Damp=F
 DIIS: error= 1.85D-06 at cycle  18 NSaved=   4.
 NSaved= 4 IEnMin= 4 EnMin= -75.7624123265390     IErMin= 3 ErrMin= 1.26D-06
 ErrMax= 1.85D-06 EMaxC= 1.00D-01 BMatC= 1.25D-10 BMatP= 3.26D-11
 IDIUse=1 WtCom= 1.00D+00 WtEn= 0.00D+00
 Coeff-Com: -0.458D+01-0.178D+01 0.733D+01 0.365D-01
 Coeff:     -0.458D+01-0.178D+01 0.733D+01 0.365D-01
 Gap=     0.338 Goal=   None    Shift=    0.000
 Gap=     0.143 Goal=   None    Shift=    0.000
 RMSDP=2.68D-06 MaxDP=3.16D-05 DE=-3.99D-08 OVMax= 1.68D-04

 Cycle  19  Pass 1  IDiag  1:
 Density matrix breaks symmetry, PCut= 1.00D-04
 Density has only Abelian symmetry.
 E= -75.7624123273912     Delta-E=       -0.000000000852 Rises=F Damp=F
 DIIS: error= 1.86D-06 at cycle  19 NSaved=   5.
 NSaved= 5 IEnMin= 5 EnMin= -75.7624123273912     IErMin= 3 ErrMin= 1.26D-06
 ErrMax= 1.86D-06 EMaxC= 1.00D-01 BMatC= 1.28D-10 BMatP= 3.26D-11
 IDIUse=1 WtCom= 1.00D+00 WtEn= 0.00D+00
 Large coefficients: NSaved=  5 BigCof=   24.13 CofMax=   10.00 Det=-1.11D-15
 Inversion failed.  Reducing to  4 matrices.
 Large coefficients: NSaved=  4 BigCof=   43.34 CofMax=   10.00 Det=-2.56D-15
 Inversion failed.  Reducing to  3 matrices.
 Large coefficients: NSaved=  3 BigCof=   22.56 CofMax=   10.00 Det=-4.99D-15
 Inversion failed.  Reducing to  2 matrices.
 Large coefficients: NSaved=  2 BigCof=   51.65 CofMax=   10.00 Det=-2.39D-14
 Coeff-Com:  0.517D+02-0.507D+02
 Coeff:      0.517D+02-0.507D+02
 Gap=     0.338 Goal=   None    Shift=    0.000
 Gap=     0.143 Goal=   None    Shift=    0.000
 RMSDP=1.38D-04 MaxDP=1.63D-03 DE=-8.52D-10 OVMax= 8.66D-03

 Cycle  20  Pass 1  IDiag  1:
 Density matrix breaks symmetry, PCut= 1.00D-04
 Density has only Abelian symmetry.
 E= -75.7624122777507     Delta-E=        0.000000049640 Rises=F Damp=F
 DIIS: error= 2.33D-06 at cycle  20 NSaved=   3.
 NSaved= 3 IEnMin= 2 EnMin= -75.7624123273912     IErMin= 1 ErrMin= 1.85D-06
 ErrMax= 2.33D-06 EMaxC= 1.00D-01 BMatC= 2.62D-10 BMatP= 1.25D-10
 IDIUse=1 WtCom= 1.00D+00 WtEn= 0.00D+00
 Large coefficients: NSaved=  3 BigCof=   36.83 CofMax=   10.00 Det=-6.72D-15
 Inversion failed.  Reducing to  2 matrices.
 Coeff-Com:  0.219D+01-0.119D+01
 Coeff:      0.219D+01-0.119D+01
 Gap=     0.338 Goal=   None    Shift=    0.000
 Gap=     0.143 Goal=   None    Shift=    0.000
 RMSDP=3.03D-04 MaxDP=3.56D-03 DE= 4.96D-08 OVMax= 1.90D-02

 Cycle  21  Pass 1  IDiag  1:
 Density matrix breaks symmetry, PCut= 1.00D-04
 Density has only Abelian symmetry.
 E= -75.7624123704956     Delta-E=       -0.000000092745 Rises=F Damp=F
 DIIS: error= 5.75D-06 at cycle  21 NSaved=   3.
 NSaved= 3 IEnMin= 3 EnMin= -75.7624123704956     IErMin= 1 ErrMin= 1.86D-06
 ErrMax= 5.75D-06 EMaxC= 1.00D-01 BMatC= 1.43D-09 BMatP= 1.28D-10
 IDIUse=1 WtCom= 1.00D+00 WtEn= 0.00D+00
 Coeff-Com:  0.128D+01 0.733D-01-0.352D+00
 Coeff:      0.128D+01 0.733D-01-0.352D+00
 Gap=     0.338 Goal=   None    Shift=    0.000
 Gap=     0.143 Goal=   None    Shift=    0.000
 RMSDP=2.33D-04 MaxDP=2.74D-03 DE=-9.27D-08 OVMax= 1.46D-02

 Cycle  22  Pass 1  IDiag  1:
 Density matrix breaks symmetry, PCut= 1.00D-04
 Density has only Abelian symmetry.
 E= -75.7624123044511     Delta-E=        0.000000066045 Rises=F Damp=F
 DIIS: error= 1.61D-06 at cycle  22 NSaved=   4.
 NSaved= 4 IEnMin= 3 EnMin= -75.7624123704956     IErMin= 4 ErrMin= 1.61D-06
 ErrMax= 1.61D-06 EMaxC= 1.00D-01 BMatC= 1.40D-10 BMatP= 1.28D-10
 IDIUse=1 WtCom= 1.00D+00 WtEn= 0.00D+00
 Coeff-Com:  0.381D+00-0.502D+01 0.450D+00 0.519D+01
 Coeff:      0.381D+00-0.502D+01 0.450D+00 0.519D+01
 Gap=     0.338 Goal=   None    Shift=    0.000
 Gap=     0.143 Goal=   None    Shift=    0.000
 RMSDP=4.83D-04 MaxDP=5.66D-03 DE= 6.60D-08 OVMax= 3.03D-02

 Cycle  23  Pass 1  IDiag  1:
 Density matrix breaks symmetry, PCut= 1.00D-04
 Density has only Abelian symmetry.
 E= -75.7624123937780     Delta-E=       -0.000000089327 Rises=F Damp=F
 DIIS: error= 2.57D-05 at cycle  23 NSaved=   5.
 NSaved= 5 IEnMin= 5 EnMin= -75.7624123937780     IErMin= 4 ErrMin= 1.61D-06
 ErrMax= 2.57D-05 EMaxC= 1.00D-01 BMatC= 2.63D-08 BMatP= 1.28D-10
 IDIUse=1 WtCom= 1.00D+00 WtEn= 0.00D+00
 Coeff-Com:  0.926D+00-0.394D+01 0.132D+01 0.288D+01-0.189D+00
 Coeff:      0.926D+00-0.394D+01 0.132D+01 0.288D+01-0.189D+00
 Gap=     0.338 Goal=   None    Shift=    0.000
 Gap=     0.144 Goal=   None    Shift=    0.000
 RMSDP=7.28D-05 MaxDP=8.46D-04 DE=-8.93D-08 OVMax= 4.56D-03

 Cycle  24  Pass 1  IDiag  1:
 Density matrix breaks symmetry, PCut= 1.00D-04
 Density has only Abelian symmetry.
 E= -75.7624123895560     Delta-E=        0.000000004222 Rises=F Damp=F
 DIIS: error= 3.27D-05 at cycle  24 NSaved=   6.
 NSaved= 6 IEnMin= 5 EnMin= -75.7624123937780     IErMin= 4 ErrMin= 1.61D-06
 ErrMax= 3.27D-05 EMaxC= 1.00D-01 BMatC= 4.29D-08 BMatP= 1.28D-10
 IDIUse=1 WtCom= 1.00D+00 WtEn= 0.00D+00
 Coeff-Com:  0.105D+01-0.367D+01 0.146D+01 0.243D+01-0.440D+00 0.169D+00
 Coeff:      0.105D+01-0.367D+01 0.146D+01 0.243D+01-0.440D+00 0.169D+00
 Gap=     0.338 Goal=   None    Shift=    0.000
 Gap=     0.144 Goal=   None    Shift=    0.000
 RMSDP=6.23D-06 MaxDP=7.26D-05 DE= 4.22D-09 OVMax= 3.90D-04

 Cycle  25  Pass 1  IDiag  1:
 Density matrix breaks symmetry, PCut= 1.00D-04
 Density has only Abelian symmetry.
 E= -75.7624123904040     Delta-E=       -0.000000000848 Rises=F Damp=F
 DIIS: error= 3.17D-05 at cycle  25 NSaved=   7.
 NSaved= 7 IEnMin= 5 EnMin= -75.7624123937780     IErMin= 4 ErrMin= 1.61D-06
 ErrMax= 3.17D-05 EMaxC= 1.00D-01 BMatC= 4.02D-08 BMatP= 1.28D-10
 IDIUse=1 WtCom= 1.00D+00 WtEn= 0.00D+00
 Large coefficients: NSaved=  7 BigCof=   15.25 CofMax=   10.00 Det=-1.69D-15
 Inversion failed.  Reducing to  6 matrices.
 Coeff-Com:  0.246D+01 0.303D+01-0.348D+01-0.321D+01-0.340D+01 0.560D+01
 Coeff:      0.246D+01 0.303D+01-0.348D+01-0.321D+01-0.340D+01 0.560D+01
 Gap=     0.338 Goal=   None    Shift=    0.000
 Gap=     0.143 Goal=   None    Shift=    0.000
 RMSDP=4.18D-05 MaxDP=4.89D-04 DE=-8.48D-10 OVMax= 2.62D-03

 Cycle  26  Pass 1  IDiag  1:
 Density matrix breaks symmetry, PCut= 1.00D-04
 Density has only Abelian symmetry.
 E= -75.7624123962990     Delta-E=       -0.000000005895 Rises=F Damp=F
 DIIS: error= 2.12D-05 at cycle  26 NSaved=   7.
 NSaved= 7 IEnMin= 7 EnMin= -75.7624123962990     IErMin= 3 ErrMin= 1.61D-06
 ErrMax= 2.12D-05 EMaxC= 1.00D-01 BMatC= 1.79D-08 BMatP= 1.28D-10
 IDIUse=1 WtCom= 1.00D+00 WtEn= 0.00D+00
 Large coefficients: NSaved=  7 BigCof=  137.67 CofMax=   10.00 Det=-1.45D-16
 Inversion failed.  Reducing to  6 matrices.
 Large coefficients: NSaved=  6 BigCof=  149.44 CofMax=   10.00 Det=-1.84D-16
 Inversion failed.  Reducing to  5 matrices.
 Large coefficients: NSaved=  5 BigCof=  107.08 CofMax=   10.00 Det=-3.01D-16
 Inversion failed.  Reducing to  4 matrices.
 Large coefficients: NSaved=  4 BigCof=   86.65 CofMax=   10.00 Det=-3.80D-16
 Inversion failed.  Reducing to  3 matrices.
 Coeff-Com: -0.171D+01-0.128D+01 0.399D+01
 Coeff:     -0.171D+01-0.128D+01 0.399D+01
 Gap=     0.338 Goal=   None    Shift=    0.000
 Gap=     0.143 Goal=   None    Shift=    0.000
 RMSDP=1.13D-05 MaxDP=1.41D-04 DE=-5.89D-09 OVMax= 7.01D-04

 Cycle  27  Pass 1  IDiag  1:
 Density matrix breaks symmetry, PCut= 1.00D-04
 Density has only Abelian symmetry.
 E= -75.7624124006645     Delta-E=       -0.000000004365 Rises=F Damp=F
 DIIS: error= 3.92D-07 at cycle  27 NSaved=   4.
 NSaved= 4 IEnMin= 4 EnMin= -75.7624124006645     IErMin= 4 ErrMin= 3.92D-07
 ErrMax= 3.92D-07 EMaxC= 1.00D-01 BMatC= 6.56D-12 BMatP= 1.79D-08
 IDIUse=1 WtCom= 1.00D+00 WtEn= 0.00D+00
 Coeff-Com:  0.696D+00 0.514D+00-0.164D+01 0.143D+01
 Coeff:      0.696D+00 0.514D+00-0.164D+01 0.143D+01
 Gap=     0.338 Goal=   None    Shift=    0.000
 Gap=     0.143 Goal=   None    Shift=    0.000
 RMSDP=5.82D-07 MaxDP=7.06D-06 DE=-4.37D-09 OVMax= 3.64D-05

 Cycle  28  Pass 1  IDiag  1:
 Density matrix breaks symmetry, PCut= 1.00D-04
 Density has only Abelian symmetry.
 E= -75.7624124006569     Delta-E=        0.000000000008 Rises=F Damp=F
 DIIS: error= 1.42D-07 at cycle  28 NSaved=   5.
 NSaved= 5 IEnMin= 4 EnMin= -75.7624124006645     IErMin= 5 ErrMin= 1.42D-07
 ErrMax= 1.42D-07 EMaxC= 1.00D-01 BMatC= 8.64D-13 BMatP= 6.56D-12
 IDIUse=1 WtCom= 1.00D+00 WtEn= 0.00D+00
 Coeff-Com:  0.338D+00 0.332D+00-0.910D+00 0.426D+00 0.814D+00
 Coeff:      0.338D+00 0.332D+00-0.910D+00 0.426D+00 0.814D+00
 Gap=     0.338 Goal=   None    Shift=    0.000
 Gap=     0.143 Goal=   None    Shift=    0.000
 RMSDP=2.93D-06 MaxDP=3.40D-05 DE= 7.55D-12 OVMax= 1.84D-04

 Cycle  29  Pass 1  IDiag  1:
 Density matrix breaks symmetry, PCut= 1.00D-04
 Density has only Abelian symmetry.
 E= -75.7624124007033     Delta-E=       -0.000000000046 Rises=F Damp=F
 DIIS: error= 9.04D-08 at cycle  29 NSaved=   6.
 NSaved= 6 IEnMin= 6 EnMin= -75.7624124007033     IErMin= 6 ErrMin= 9.04D-08
 ErrMax= 9.04D-08 EMaxC= 1.00D-01 BMatC= 5.36D-13 BMatP= 8.64D-13
 IDIUse=1 WtCom= 1.00D+00 WtEn= 0.00D+00
 Coeff-Com: -0.702D-01 0.885D-01-0.399D-01-0.938D-01 0.222D+00 0.893D+00
 Coeff:     -0.702D-01 0.885D-01-0.399D-01-0.938D-01 0.222D+00 0.893D+00
 Gap=     0.338 Goal=   None    Shift=    0.000
 Gap=     0.143 Goal=   None    Shift=    0.000
 RMSDP=4.82D-06 MaxDP=5.59D-05 DE=-4.63D-11 OVMax= 3.02D-04

 Cycle  30  Pass 1  IDiag  1:
 Density matrix breaks symmetry, PCut= 1.00D-04
 Density has only Abelian symmetry.
 E= -75.7624124007654     Delta-E=       -0.000000000062 Rises=F Damp=F
 DIIS: error= 3.69D-08 at cycle  30 NSaved=   7.
 NSaved= 7 IEnMin= 7 EnMin= -75.7624124007654     IErMin= 7 ErrMin= 3.69D-08
 ErrMax= 3.69D-08 EMaxC= 1.00D-01 BMatC= 4.04D-14 BMatP= 5.36D-13
 IDIUse=1 WtCom= 1.00D+00 WtEn= 0.00D+00
 Coeff-Com: -0.215D+00-0.302D-01 0.308D+00-0.143D+00-0.304D+00 0.954D-01
 Coeff-Com:  0.129D+01
 Coeff:     -0.215D+00-0.302D-01 0.308D+00-0.143D+00-0.304D+00 0.954D-01
 Coeff:      0.129D+01
 Gap=     0.338 Goal=   None    Shift=    0.000
 Gap=     0.143 Goal=   None    Shift=    0.000
 RMSDP=7.25D-06 MaxDP=8.40D-05 DE=-6.22D-11 OVMax= 4.55D-04

 Cycle  31  Pass 1  IDiag  1:
 Density matrix breaks symmetry, PCut= 1.00D-04
 Density has only Abelian symmetry.
 E= -75.7624124008264     Delta-E=       -0.000000000061 Rises=F Damp=F
 DIIS: error= 2.81D-08 at cycle  31 NSaved=   8.
 NSaved= 8 IEnMin= 8 EnMin= -75.7624124008264     IErMin= 8 ErrMin= 2.81D-08
 ErrMax= 2.81D-08 EMaxC= 1.00D-01 BMatC= 3.23D-14 BMatP= 4.04D-14
 IDIUse=1 WtCom= 1.00D+00 WtEn= 0.00D+00
 Coeff-Com:  0.776D-01 0.544D-01-0.181D+00 0.101D+00 0.127D+00-0.274D+00
 Coeff-Com: -0.755D+00 0.185D+01
 Coeff:      0.776D-01 0.544D-01-0.181D+00 0.101D+00 0.127D+00-0.274D+00
 Coeff:     -0.755D+00 0.185D+01
 Gap=     0.338 Goal=   None    Shift=    0.000
 Gap=     0.143 Goal=   None    Shift=    0.000
 RMSDP=5.93D-06 MaxDP=6.86D-05 DE=-6.10D-11 OVMax= 3.71D-04

 Cycle  32  Pass 1  IDiag  1:
 Density matrix breaks symmetry, PCut= 1.00D-04
 Density has only Abelian symmetry.
 E= -75.7624124008471     Delta-E=       -0.000000000021 Rises=F Damp=F
 DIIS: error= 7.59D-09 at cycle  32 NSaved=   9.
 NSaved= 9 IEnMin= 9 EnMin= -75.7624124008471     IErMin= 9 ErrMin= 7.59D-09
 ErrMax= 7.59D-09 EMaxC= 1.00D-01 BMatC= 3.15D-15 BMatP= 3.23D-14
 IDIUse=1 WtCom= 1.00D+00 WtEn= 0.00D+00
 Coeff-Com:  0.246D-01 0.150D-01-0.522D-01 0.276D-01 0.532D-01-0.192D-01
 Coeff-Com: -0.198D+00-0.674D-02 0.116D+01
 Coeff:      0.246D-01 0.150D-01-0.522D-01 0.276D-01 0.532D-01-0.192D-01
 Coeff:     -0.198D+00-0.674D-02 0.116D+01
 Gap=     0.338 Goal=   None    Shift=    0.000
 Gap=     0.143 Goal=   None    Shift=    0.000
 RMSDP=1.46D-06 MaxDP=1.69D-05 DE=-2.08D-11 OVMax= 9.13D-05

 Cycle  33  Pass 1  IDiag  1:
 Density matrix breaks symmetry, PCut= 1.00D-04
 Density has only Abelian symmetry.
 E= -75.7624124008483     Delta-E=       -0.000000000001 Rises=F Damp=F
 DIIS: error= 3.39D-09 at cycle  33 NSaved=  10.
 NSaved=10 IEnMin=10 EnMin= -75.7624124008483     IErMin=10 ErrMin= 3.39D-09
 ErrMax= 3.39D-09 EMaxC= 1.00D-01 BMatC= 5.15D-16 BMatP= 3.15D-15
 IDIUse=1 WtCom= 1.00D+00 WtEn= 0.00D+00
 Coeff-Com: -0.103D-01-0.484D-02 0.204D-01-0.122D-01-0.161D-01 0.242D-01
 Coeff-Com:  0.777D-01-0.153D+00-0.107D+00 0.118D+01
 Coeff:     -0.103D-01-0.484D-02 0.204D-01-0.122D-01-0.161D-01 0.242D-01
 Coeff:      0.777D-01-0.153D+00-0.107D+00 0.118D+01
 Gap=     0.338 Goal=   None    Shift=    0.000
 Gap=     0.143 Goal=   None    Shift=    0.000
 RMSDP=2.99D-07 MaxDP=3.47D-06 DE=-1.11D-12 OVMax= 1.88D-05

 Cycle  34  Pass 1  IDiag  1:
 Density matrix breaks symmetry, PCut= 1.00D-04
 Density has only Abelian symmetry.
 E= -75.7624124008483     Delta-E=        0.000000000000 Rises=F Damp=F
 DIIS: error= 1.34D-09 at cycle  34 NSaved=  11.
 NSaved=11 IEnMin=11 EnMin= -75.7624124008483     IErMin=11 ErrMin= 1.34D-09
 ErrMax= 1.34D-09 EMaxC= 1.00D-01 BMatC= 7.20D-17 BMatP= 5.15D-16
 IDIUse=1 WtCom= 1.00D+00 WtEn= 0.00D+00
 Coeff-Com: -0.170D-02-0.811D-03 0.321D-02-0.156D-02-0.259D-02 0.184D-02
 Coeff-Com:  0.101D-01 0.345D-02-0.832D-01 0.236D-01 0.105D+01
 Coeff:     -0.170D-02-0.811D-03 0.321D-02-0.156D-02-0.259D-02 0.184D-02
 Coeff:      0.101D-01 0.345D-02-0.832D-01 0.236D-01 0.105D+01
 Gap=     0.338 Goal=   None    Shift=    0.000
 Gap=     0.143 Goal=   None    Shift=    0.000
 RMSDP=1.99D-08 MaxDP=2.30D-07 DE=-2.84D-14 OVMax= 1.25D-06

 Cycle  35  Pass 1  IDiag  1:
 Density matrix breaks symmetry, PCut= 1.00D-04
 Density has only Abelian symmetry.
 E= -75.7624124008483     Delta-E=        0.000000000000 Rises=F Damp=F
 DIIS: error= 1.95D-10 at cycle  35 NSaved=  12.
 NSaved=12 IEnMin=11 EnMin= -75.7624124008483     IErMin=12 ErrMin= 1.95D-10
 ErrMax= 1.95D-10 EMaxC= 1.00D-01 BMatC= 1.53D-18 BMatP= 7.20D-17
 IDIUse=1 WtCom= 1.00D+00 WtEn= 0.00D+00
 Coeff-Com:  0.957D-03 0.465D-03-0.192D-02 0.104D-02 0.150D-02-0.249D-02
 Coeff-Com: -0.744D-02 0.153D-01 0.875D-02-0.942D-01-0.474D-01 0.113D+01
 Coeff:      0.957D-03 0.465D-03-0.192D-02 0.104D-02 0.150D-02-0.249D-02
 Coeff:     -0.744D-02 0.153D-01 0.875D-02-0.942D-01-0.474D-01 0.113D+01
 Gap=     0.338 Goal=   None    Shift=    0.000
 Gap=     0.143 Goal=   None    Shift=    0.000
 RMSDP=1.93D-09 MaxDP=2.25D-08 DE= 2.84D-14 OVMax= 1.21D-07

 Density matrix breaks symmetry, PCut= 1.00D-04
 Density has only Abelian symmetry.
 SCF Done:  E(UB3LYP) =  -75.7624124008     A.U. after   35 cycles
             Convg  =    0.1933D-08             -V/T =  2.0027
 <Sx>= 0.0000 <Sy>= 0.0000 <Sz>= 0.5000 <S**2>= 0.7522 S= 0.5011
 <L.S>= 0.000000000000E+00
 KE= 7.555841505664D+01 PE=-1.881510104201D+02 EE= 3.249201591226D+01
 Annihilation of the first spin contaminant:
 S**2 before annihilation     0.7522,   after     0.7500
 Leave Link  502 at Mon Feb 10 17:09:23 2014, MaxMem= 4026531840 cpu:      10.6
 (Enter /usr/caen/gaussian-09revc/g09/l601.exe)
 Copying SCF densities to generalized density rwf, IOpCl= 1 IROHF=0.

 **********************************************************************

            Population analysis using the SCF density.

 **********************************************************************

 Orbital symmetries:
 Alpha Orbitals:
       Occupied  (SG) (SG) (SG) (PI) (PI)
       Virtual   (SG) (SG) (PI) (PI) (SG) (SG) (SG) (PI) (SG) (PI)
                 (SG) (PI) (PI) (SG) (SG) (DLTA) (DLTA) (PI) (PI)
                 (SG) (PI) (PI) (SG) (SG)
 Beta  Orbitals:
       Occupied  (SG) (SG) (SG) (?A)
       Virtual   (?A) (SG) (SG) (?A) (SG) (?A) (SG) (SG) (SG) (PI)
                 (PI) (SG) (PI) (PI) (SG) (SG) (DLTA) (DLTA) (PI)
                 (PI) (SG) (PI) (PI) (SG) (SG)
 Unable to determine electronic state:  an orbital has unidentified symmetry.
 Alpha  occ. eigenvalues --  -19.20695  -1.03045  -0.48935  -0.42831  -0.35642
 Alpha virt. eigenvalues --   -0.01838   0.12276   0.13988   0.14873   0.15490
 Alpha virt. eigenvalues --    0.21225   0.49311   0.93697   0.95974   0.97623
 Alpha virt. eigenvalues --    1.28141   1.30178   1.31958   1.97321   2.44761
 Alpha virt. eigenvalues --    2.72882   2.72944   3.01715   3.07104   3.74040
 Alpha virt. eigenvalues --    4.80898   4.87334   5.34648  49.72337
  Beta  occ. eigenvalues --  -19.18120  -0.95983  -0.46281  -0.32927
  Beta virt. eigenvalues --   -0.18608  -0.01493   0.12742   0.15153   0.15884
  Beta virt. eigenvalues --    0.16437   0.21670   0.49926   0.97272   0.98880
  Beta virt. eigenvalues --    1.01325   1.31599   1.31781   1.31847   1.98501
  Beta virt. eigenvalues --    2.44782   2.81303   2.82385   3.08485   3.09652
  Beta virt. eigenvalues --    3.76974   4.89602   4.92519   5.37067  49.74979
          Condensed to atoms (all electrons):
              1          2
     1  O    8.002095   0.237978
     2  H    0.237978   0.521949
 Mulliken atomic charges:
              1
     1  O   -0.240073
     2  H    0.240073
 Sum of Mulliken atomic charges =   0.00000
 Mulliken charges with hydrogens summed into heavy atoms:
              1
     1  O    0.000000
 Sum of Mulliken charges with hydrogens summed into heavy atoms =   0.00000
          Atomic-Atomic Spin Densities.
              1          2
     1  O    1.014545   0.008010
     2  H    0.008010  -0.030566
 Mulliken atomic spin densities:
              1
     1  O    1.022556
     2  H   -0.022556
 Sum of Mulliken atomic spin densities =   1.00000
 Electronic spatial extent (au):  <R**2>=             15.8722
 Charge=              0.0000 electrons
 Dipole moment (field-independent basis, Debye):
    X=              0.0000    Y=              0.0000    Z=             -1.8315  Tot=              1.8315
 Quadrupole moment (field-independent basis, Debye-Ang):
   XX=             -6.4641   YY=             -6.0357   ZZ=             -4.7829
   XY=              0.6622   XZ=              0.0000   YZ=              0.0000
 Traceless Quadrupole moment (field-independent basis, Debye-Ang):
   XX=             -0.7032   YY=             -0.2748   ZZ=              0.9780
   XY=              0.6622   XZ=              0.0000   YZ=              0.0000
 Octapole moment (field-independent basis, Debye-Ang**2):
  XXX=              0.0000  YYY=              0.0000  ZZZ=             -2.0236  XYY=              0.0000
  XXY=              0.0000  XXZ=             -0.3269  XZZ=              0.0000  YZZ=              0.0000
  YYZ=             -0.2881  XYZ=              0.0600
 Hexadecapole moment (field-independent basis, Debye-Ang**3):
 XXXX=             -5.7440 YYYY=             -5.0063 ZZZZ=             -6.1178 XXXY=              0.5701
 XXXZ=              0.0000 YYYX=              0.5701 YYYZ=              0.0000 ZZZX=              0.0000
 ZZZY=              0.0000 XXYY=             -1.7917 XXZZ=             -2.2199 YYZZ=             -2.0890
 XXYZ=              0.0000 YYXZ=              0.0000 ZZXY=              0.2023
 N-N= 4.338167050317D+00 E-N=-2.773289601090D+02  KE= 1.119581842267D+02
 Symmetry A1   KE= 1.023267793526D+02
 Symmetry A2   KE= 1.081443472303D-03
 Symmetry B1   KE= 5.516619398935D+00
 Symmetry B2   KE= 4.113704031678D+00
                          Isotropic Fermi Contact Couplings
        Atom                 a.u.       MegaHertz       Gauss      10(-4) cm-1
     1  O(17)              0.05137     -31.14032     -11.11164     -10.38729
     2  H(1)              -0.01494     -66.75849     -23.82109     -22.26824
 --------------------------------------------------------
       Center         ----  Spin Dipole Couplings  ----
                      3XX-RR        3YY-RR        3ZZ-RR
 --------------------------------------------------------
     1   Atom        0.068955      1.854171     -1.923126
     2   Atom       -0.098964     -0.071136      0.170100
 --------------------------------------------------------
                        XY            XZ            YZ
 --------------------------------------------------------
     1   Atom        2.759375      0.000000      0.000000
     2   Atom        0.043014      0.000000      0.000000
 --------------------------------------------------------


 ---------------------------------------------------------------------------------
              Anisotropic Spin Dipole Couplings in Principal Axis System
 ---------------------------------------------------------------------------------

       Atom             a.u.   MegaHertz   Gauss  10(-4) cm-1        Axes

              Baa    -1.9386   140.275    50.054    46.791  0.8086 -0.5883  0.0000
     1 O(17)  Bbb    -1.9231   139.156    49.654    46.417  0.0000  0.0000  1.0000
              Bcc     3.8617  -279.431   -99.708   -93.208  0.5883  0.8086  0.0000
 
              Baa    -0.1303   -69.500   -24.799   -23.183  0.8086 -0.5883  0.0000
     2 H(1)   Bbb    -0.0398   -21.258    -7.585    -7.091  0.5883  0.8086  0.0000
              Bcc     0.1701    90.758    32.385    30.273  0.0000  0.0000  1.0000
 

 ---------------------------------------------------------------------------------

 No NMR shielding tensors so no spin-rotation constants.
 Leave Link  601 at Mon Feb 10 17:09:24 2014, MaxMem= 4026531840 cpu:       5.7
 (Enter /usr/caen/gaussian-09revc/g09/l801.exe)
 Range of M.O.s used for correlation:     1    29
 NBasis=    29 NAE=     5 NBE=     4 NFC=     0 NFV=     0
 NROrb=     29 NOA=     5 NOB=     4 NVA=    24 NVB=    25
 Leave Link  801 at Mon Feb 10 17:09:24 2014, MaxMem= 4026531840 cpu:       0.1
 (Enter /usr/caen/gaussian-09revc/g09/l914.exe)
 UHF ground state
 Doing stability rather than CIS.
 MDV=  4026531840 DFT=T DoStab=T Mixed=T DoRPA=F DoScal=F NonHer=F
 Keep R1 and R2 ints in memory in canonical form, NReq=8087509.
 Symmetry not used in FoFDir.
 MinBra= 0 MaxBra= 2 Meth= 1.
 IRaf=       0 NMat=   1 IRICut=       1 DoRegI=T DoRafI=F ISym2E= 0 JSym2E=0.
 Making orbital integer symmetry assigments:
 Orbital symmetries:
 Alpha Orbitals:
       Occupied  (SG) (SG) (SG) (PI) (PI)
       Virtual   (SG) (SG) (PI) (PI) (SG) (SG) (SG) (PI) (SG) (PI)
                 (SG) (PI) (PI) (SG) (SG) (DLTA) (DLTA) (PI) (PI)
                 (SG) (PI) (PI) (SG) (SG)
 Beta  Orbitals:
       Occupied  (SG) (SG) (SG) (?A)
       Virtual   (?A) (SG) (SG) (?A) (SG) (?A) (SG) (SG) (SG) (PI)
                 (PI) (SG) (PI) (PI) (SG) (SG) (DLTA) (DLTA) (PI)
                 (PI) (SG) (PI) (PI) (SG) (SG)
    12 initial guesses have been made.
 Convergence on wavefunction:    0.001000000000000
 Davidson Disk Diagonalization:  ConvIn= 1.00D-03 SkipCon=T Conv= 1.00D-03.
 Max sub-space:   200 roots to seek:    12 dimension of matrix:    220
 Iteration     1 Dimension    12 NMult    12
 CISAX:  IP=  1 NPass=   1 NMax=    12.
 CISAX will form    12 AO SS matrices at one time.
 NMat=    12 NSing=    12.
 Excitation Energies [eV] at current iteration:
 Root      1 :     0.173790754596119
 Root      2 :     4.445111857767190
 Root      3 :     7.002771665284034
 Root      4 :     7.858758240022621
 Root      5 :     9.780879507931736
 Root      6 :    10.579492482927820
 Root      7 :    10.593153923528310
 Root      8 :    11.408766348524040
 Root      9 :    11.475813306491340
 Root     10 :    11.605509746056390
 Root     11 :    11.834402700212540
 Root     12 :    13.743281650931370
 Iteration     2 Dimension    24 NMult    24
 CISAX:  IP=  1 NPass=   1 NMax=    12.
 CISAX will form    12 AO SS matrices at one time.
 NMat=    12 NSing=    12.
 Root      1 not converged, maximum delta is    0.038277627579703
 Excitation Energies [eV] at current iteration:
 Root      1 :     0.003017745029872   Change is   -0.170773009566247
 Root      2 :     4.089281241128418   Change is   -0.355830616638772
 Root      3 :     6.839352901429394   Change is   -0.163418763854641
 Iteration     3 Dimension    27 NMult    27
 CISAX:  IP=  1 NPass=   1 NMax=     3.
 CISAX will form     3 AO SS matrices at one time.
 NMat=     3 NSing=     3.
 Root      1 not converged, maximum delta is    0.001713103326115
 Excitation Energies [eV] at current iteration:
 Root      1 :     0.002556555048739   Change is   -0.000461189981132
 Root      2 :     4.058240105520057   Change is   -0.031041135608361
 Root      3 :     6.838822963822413   Change is   -0.000529937606981
 Iteration     4 Dimension    30 NMult    30
 CISAX:  IP=  1 NPass=   1 NMax=     3.
 CISAX will form     3 AO SS matrices at one time.
 NMat=     3 NSing=     3.
 Root      1 has converged.
 Excitation Energies [eV] at current iteration:
 Root      1 :     0.002555756266775   Change is   -0.000000798781964
 Root      2 :     4.057911437900388   Change is   -0.000328667619669
 Root      3 :     6.838818777473145   Change is   -0.000004186349267
 Convergence achieved on expansion vectors.
 ***********************************************************************
 Stability analysis using <AA,BB:AA,BB> singles matrix:
 ***********************************************************************

 Eigenvectors of the stability matrix:
 
 Excited state symmetry could not be determined.
 Eigenvector   1:  1.000-?Sym  Eigenvalue= 0.0000939  <S**2>=0.000
      4B ->  5B        0.99376
 SavETr:  write IOETrn=   770 NScale= 10 NData=  16 NLR=1 LETran=      28.
 The wavefunction is stable under the perturbations considered.
 Leave Link  914 at Mon Feb 10 17:09:26 2014, MaxMem= 4026531840 cpu:       6.5
 (Enter /usr/caen/gaussian-09revc/g09/l502.exe)
 The wavefunction is already stable.
 Leave Link  502 at Mon Feb 10 17:09:26 2014, MaxMem= 4026531840 cpu:       0.1
 (Enter /usr/caen/gaussian-09revc/g09/l508.exe)
 The wavefunction is already stable.
 Leave Link  508 at Mon Feb 10 17:09:27 2014, MaxMem= 4026531840 cpu:       0.0
 (Enter /usr/caen/gaussian-09revc/g09/l601.exe)
 Copying SCF densities to generalized density rwf, IOpCl= 1 IROHF=0.

 **********************************************************************

            Population analysis using the SCF density.

 **********************************************************************

 Orbital symmetries:
 Alpha Orbitals:
       Occupied  (SG) (SG) (SG) (PI) (PI)
       Virtual   (SG) (SG) (PI) (PI) (SG) (SG) (SG) (PI) (SG) (PI)
                 (SG) (PI) (PI) (SG) (SG) (DLTA) (DLTA) (PI) (PI)
                 (SG) (PI) (PI) (SG) (SG)
 Beta  Orbitals:
       Occupied  (SG) (SG) (SG) (?A)
       Virtual   (?A) (SG) (SG) (?A) (SG) (?A) (SG) (SG) (SG) (PI)
                 (PI) (SG) (PI) (PI) (SG) (SG) (DLTA) (DLTA) (PI)
                 (PI) (SG) (PI) (PI) (SG) (SG)
 Unable to determine electronic state:  an orbital has unidentified symmetry.
 Alpha  occ. eigenvalues --  -19.20695  -1.03045  -0.48935  -0.42831  -0.35642
 Alpha virt. eigenvalues --   -0.01838   0.12276   0.13988   0.14873   0.15490
 Alpha virt. eigenvalues --    0.21225   0.49311   0.93697   0.95974   0.97623
 Alpha virt. eigenvalues --    1.28141   1.30178   1.31958   1.97321   2.44761
 Alpha virt. eigenvalues --    2.72882   2.72944   3.01715   3.07104   3.74040
 Alpha virt. eigenvalues --    4.80898   4.87334   5.34648  49.72337
  Beta  occ. eigenvalues --  -19.18120  -0.95983  -0.46281  -0.32927
  Beta virt. eigenvalues --   -0.18608  -0.01493   0.12742   0.15153   0.15884
  Beta virt. eigenvalues --    0.16437   0.21670   0.49926   0.97272   0.98880
  Beta virt. eigenvalues --    1.01325   1.31599   1.31781   1.31847   1.98501
  Beta virt. eigenvalues --    2.44782   2.81303   2.82385   3.08485   3.09652
  Beta virt. eigenvalues --    3.76974   4.89602   4.92519   5.37067  49.74979
          Condensed to atoms (all electrons):
              1          2
     1  O    8.002095   0.237978
     2  H    0.237978   0.521949
 Mulliken atomic charges:
              1
     1  O   -0.240073
     2  H    0.240073
 Sum of Mulliken atomic charges =   0.00000
 Mulliken charges with hydrogens summed into heavy atoms:
              1
     1  O    0.000000
 Sum of Mulliken charges with hydrogens summed into heavy atoms =   0.00000
          Atomic-Atomic Spin Densities.
              1          2
     1  O    1.014545   0.008010
     2  H    0.008010  -0.030566
 Mulliken atomic spin densities:
              1
     1  O    1.022556
     2  H   -0.022556
 Sum of Mulliken atomic spin densities =   1.00000
 Electronic spatial extent (au):  <R**2>=             15.8722
 Charge=              0.0000 electrons
 Dipole moment (field-independent basis, Debye):
    X=              0.0000    Y=              0.0000    Z=             -1.8315  Tot=              1.8315
 Quadrupole moment (field-independent basis, Debye-Ang):
   XX=             -6.4641   YY=             -6.0357   ZZ=             -4.7829
   XY=              0.6622   XZ=              0.0000   YZ=              0.0000
 Traceless Quadrupole moment (field-independent basis, Debye-Ang):
   XX=             -0.7032   YY=             -0.2748   ZZ=              0.9780
   XY=              0.6622   XZ=              0.0000   YZ=              0.0000
 Octapole moment (field-independent basis, Debye-Ang**2):
  XXX=              0.0000  YYY=              0.0000  ZZZ=             -2.0236  XYY=              0.0000
  XXY=              0.0000  XXZ=             -0.3269  XZZ=              0.0000  YZZ=              0.0000
  YYZ=             -0.2881  XYZ=              0.0600
 Hexadecapole moment (field-independent basis, Debye-Ang**3):
 XXXX=             -5.7440 YYYY=             -5.0063 ZZZZ=             -6.1178 XXXY=              0.5701
 XXXZ=              0.0000 YYYX=              0.5701 YYYZ=              0.0000 ZZZX=              0.0000
 ZZZY=              0.0000 XXYY=             -1.7917 XXZZ=             -2.2199 YYZZ=             -2.0890
 XXYZ=              0.0000 YYXZ=              0.0000 ZZXY=              0.2023
 N-N= 4.338167050317D+00 E-N=-2.773289601090D+02  KE= 1.119581842267D+02
 Symmetry A1   KE= 1.023267793526D+02
 Symmetry A2   KE= 1.081443472303D-03
 Symmetry B1   KE= 5.516619398935D+00
 Symmetry B2   KE= 4.113704031678D+00
                          Isotropic Fermi Contact Couplings
        Atom                 a.u.       MegaHertz       Gauss      10(-4) cm-1
     1  O(17)              0.05137     -31.14032     -11.11164     -10.38729
     2  H(1)              -0.01494     -66.75849     -23.82109     -22.26824
 --------------------------------------------------------
       Center         ----  Spin Dipole Couplings  ----
                      3XX-RR        3YY-RR        3ZZ-RR
 --------------------------------------------------------
     1   Atom        0.068955      1.854171     -1.923126
     2   Atom       -0.098964     -0.071136      0.170100
 --------------------------------------------------------
                        XY            XZ            YZ
 --------------------------------------------------------
     1   Atom        2.759375      0.000000      0.000000
     2   Atom        0.043014      0.000000      0.000000
 --------------------------------------------------------


 ---------------------------------------------------------------------------------
              Anisotropic Spin Dipole Couplings in Principal Axis System
 ---------------------------------------------------------------------------------

       Atom             a.u.   MegaHertz   Gauss  10(-4) cm-1        Axes

              Baa    -1.9386   140.275    50.054    46.791  0.8086 -0.5883  0.0000
     1 O(17)  Bbb    -1.9231   139.156    49.654    46.417  0.0000  0.0000  1.0000
              Bcc     3.8617  -279.431   -99.708   -93.208  0.5883  0.8086  0.0000
 
              Baa    -0.1303   -69.500   -24.799   -23.183  0.8086 -0.5883  0.0000
     2 H(1)   Bbb    -0.0398   -21.258    -7.585    -7.091  0.5883  0.8086  0.0000
              Bcc     0.1701    90.758    32.385    30.273  0.0000  0.0000  1.0000
 

 ---------------------------------------------------------------------------------

 No NMR shielding tensors so no spin-rotation constants.
 Leave Link  601 at Mon Feb 10 17:09:27 2014, MaxMem= 4026531840 cpu:       3.3
 (Enter /usr/caen/gaussian-09revc/g09/l9999.exe)
 1\1\GINC-NYX5239\Stability\UB3LYP\6-311++G(d,p)\H1O1(2)\HETANJIN\10-Fe
 b-2014\0\\#p UB3LYP/6-311++G(d,p) guess=mix stable=(opt,xqc)\\OH using
  cbs-qb3 to cal. energy\\0,2\O,0,0.,0.,0.108428\H,0,0.,0.,-0.867426\\V
 ersion=EM64L-G09RevC.01\HF=-75.7624124\S2=0.752236\S2-1=0.\S2A=0.75000
 3\RMSD=1.933e-09\Dipole=0.,0.,-0.7205497\Quadrupole=-0.5228159,-0.2043
 061,0.7271219,0.4923166,0.,0.\PG=C*V [C*(H1O1)]\\@


 IF YOU PERCEIVE THAT THERE ARE FOUR POSSIBLE WAYS IN
 WHICH A PROCEDURE CAN GO WRONG AND CIRCUMVENT THESE, 
 THEN A FIFTH WAY WILL DEVELOP.

                              -- MURPHY'S TWELFTH LAW
 Job cpu time:  0 days  0 hours  0 minutes 42.0 seconds.
 File lengths (MBytes):  RWF=      5 Int=      0 D2E=      0 Chk=      1 Scr=      1
 Normal termination of Gaussian 09 at Mon Feb 10 17:09:28 2014.
 Initial command:
 /usr/caen/gaussian-09revc/g09/l1.exe /scratch/avioli_flux/hetanjin/scratch/Gau-16596.inp -scrdir=/scratch/avioli_flux/hetanjin/scratch/
 Entering Link 1 = /usr/caen/gaussian-09revc/g09/l1.exe PID=     16707.
  
 Copyright (c) 1988,1990,1992,1993,1995,1998,2003,2009,2011,
            Gaussian, Inc.  All Rights Reserved.
  
 This is part of the Gaussian(R) 09 program.  It is based on
 the Gaussian(R) 03 system (copyright 2003, Gaussian, Inc.),
 the Gaussian(R) 98 system (copyright 1998, Gaussian, Inc.),
 the Gaussian(R) 94 system (copyright 1995, Gaussian, Inc.),
 the Gaussian 92(TM) system (copyright 1992, Gaussian, Inc.),
 the Gaussian 90(TM) system (copyright 1990, Gaussian, Inc.),
 the Gaussian 88(TM) system (copyright 1988, Gaussian, Inc.),
 the Gaussian 86(TM) system (copyright 1986, Carnegie Mellon
 University), and the Gaussian 82(TM) system (copyright 1983,
 Carnegie Mellon University). Gaussian is a federally registered
 trademark of Gaussian, Inc.
  
 This software contains proprietary and confidential information,
 including trade secrets, belonging to Gaussian, Inc.
  
 This software is provided under written license and may be
 used, copied, transmitted, or stored only in accord with that
 written license.
  
 The following legend is applicable only to US Government
 contracts under FAR:
  
                    RESTRICTED RIGHTS LEGEND
  
 Use, reproduction and disclosure by the US Government is
 subject to restrictions as set forth in subparagraphs (a)
 and (c) of the Commercial Computer Software - Restricted
 Rights clause in FAR 52.227-19.
  
 Gaussian, Inc.
 340 Quinnipiac St., Bldg. 40, Wallingford CT 06492
  
  
 ---------------------------------------------------------------
 Warning -- This program may not be used in any manner that
 competes with the business of Gaussian, Inc. or will provide
 assistance to any competitor of Gaussian, Inc.  The licensee
 of this program is prohibited from giving any competitor of
 Gaussian, Inc. access to this program.  By using this program,
 the user acknowledges that Gaussian, Inc. is engaged in the
 business of creating and licensing software in the field of
 computational chemistry and represents and warrants to the
 licensee that it is not a competitor of Gaussian, Inc. and that
 it will not use this program in any manner prohibited above.
 ---------------------------------------------------------------
  

 Cite this work as:
 Gaussian 09, Revision C.01,
 M. J. Frisch, G. W. Trucks, H. B. Schlegel, G. E. Scuseria, 
 M. A. Robb, J. R. Cheeseman, G. Scalmani, V. Barone, B. Mennucci, 
 G. A. Petersson, H. Nakatsuji, M. Caricato, X. Li, H. P. Hratchian, 
 A. F. Izmaylov, J. Bloino, G. Zheng, J. L. Sonnenberg, M. Hada, 
 M. Ehara, K. Toyota, R. Fukuda, J. Hasegawa, M. Ishida, T. Nakajima, 
 Y. Honda, O. Kitao, H. Nakai, T. Vreven, J. A. Montgomery, Jr., 
 J. E. Peralta, F. Ogliaro, M. Bearpark, J. J. Heyd, E. Brothers, 
 K. N. Kudin, V. N. Staroverov, T. Keith, R. Kobayashi, J. Normand, 
 K. Raghavachari, A. Rendell, J. C. Burant, S. S. Iyengar, J. Tomasi, 
 M. Cossi, N. Rega, J. M. Millam, M. Klene, J. E. Knox, J. B. Cross, 
 V. Bakken, C. Adamo, J. Jaramillo, R. Gomperts, R. E. Stratmann, 
 O. Yazyev, A. J. Austin, R. Cammi, C. Pomelli, J. W. Ochterski, 
 R. L. Martin, K. Morokuma, V. G. Zakrzewski, G. A. Voth, 
 P. Salvador, J. J. Dannenberg, S. Dapprich, A. D. Daniels, 
 O. Farkas, J. B. Foresman, J. V. Ortiz, J. Cioslowski, 
 and D. J. Fox, Gaussian, Inc., Wallingford CT, 2010.
 
 ******************************************
 Gaussian 09:  EM64L-G09RevC.01 23-Sep-2011
                10-Feb-2014 
 ******************************************
 %mem=30GB
 %nprocshared=8
 Will use up to    8 processors via shared memory.
 %chk=OH.chk
 ------------------------------------------------
 #p cbs-qb3 opt=calcfc freq geom=check guess=read
 ------------------------------------------------
 1/10=4,14=-1,18=20,19=15,26=3,29=2,38=1/1,3;
 2/9=110,12=2,40=1/2;
 3/5=4,6=6,7=700,11=2,14=-4,16=1,25=1,30=1,71=2,74=-5,116=-2/1,2,3;
 4/5=1/1;
 5/5=2,38=6/2;
 8/6=4,10=90,11=11/1;
 11/6=1,8=1,9=11,15=111,16=1/1,2,10;
 10/6=1,7=6,13=1/2;
 6/7=2,8=2,9=2,10=2,28=1/1;
 7/10=1,18=20,25=1/1,2,3,16;
 1/10=4,14=-1,18=20,19=15/3(2);
 2/9=110/2;
 99//99;
 2/9=110/2;
 3/5=4,6=6,7=700,11=2,14=-2,16=1,25=1,30=1,71=1,74=-5/1,2,3;
 4/5=5,16=3/1;
 5/5=2,38=5/2;
 7//1,2,3,16;
 1/14=-1,18=20,19=15/3(-5);
 2/9=110/2;
 6/7=2,8=2,9=2,10=2,19=2,28=1/1;
 99/9=1/99;
 Leave Link    1 at Mon Feb 10 17:09:28 2014, MaxMem= 4026531840 cpu:       0.5
 (Enter /usr/caen/gaussian-09revc/g09/l101.exe)
 ---------------------
 optimization and freq
 ---------------------
 Structure from the checkpoint file:  OH.chk
 Charge =  0 Multiplicity = 2
 Z-Matrix found in file.
 O,0,0.,0.,0.108428
 H,0,0.,0.,-0.867426
 Recover connectivity data from disk.
 NAtoms=      2 NQM=        0 NQMF=       0 NMMI=      2 NMMIF=      0
                NMic=       0 NMicF=      0.
                    Isotopes and Nuclear Properties:
 (Nuclear quadrupole moments (NQMom) in fm**2, nuclear magnetic moments (NMagM)
  in nuclear magnetons)

  Atom         1           2
 IAtWgt=          16           1
 AtmWgt=  15.9949146   1.0078250
 NucSpn=           0           1
 AtZEff=  -5.6000000  -1.0000000
 NQMom=    0.0000000   0.0000000
 NMagM=    0.0000000   2.7928460
 Leave Link  101 at Mon Feb 10 17:09:28 2014, MaxMem= 4026531840 cpu:       1.6
 (Enter /usr/caen/gaussian-09revc/g09/l103.exe)

 GradGradGradGradGradGradGradGradGradGradGradGradGradGradGradGradGradGrad
 Berny optimization.
 Initialization pass.
                           ----------------------------
                           !    Initial Parameters    !
                           ! (Angstroms and Degrees)  !
 --------------------------                            --------------------------
 ! Name  Definition              Value          Derivative Info.                !
 --------------------------------------------------------------------------------
 ! R1    R(1,2)                  0.9759         calculate D2E/DX2 analytically  !
 --------------------------------------------------------------------------------
 Trust Radius=3.00D-01 FncErr=1.00D-07 GrdErr=1.00D-06
 Number of steps in this run=     20 maximum allowed number of steps=    100.
 GradGradGradGradGradGradGradGradGradGradGradGradGradGradGradGradGradGrad

 Leave Link  103 at Mon Feb 10 17:09:28 2014, MaxMem= 4026531840 cpu:       0.1
 (Enter /usr/caen/gaussian-09revc/g09/l202.exe)
                          Input orientation:                          
 ---------------------------------------------------------------------
 Center     Atomic      Atomic             Coordinates (Angstroms)
 Number     Number       Type             X           Y           Z
 ---------------------------------------------------------------------
      1          8           0        0.000000    0.000000    0.108428
      2          1           0        0.000000    0.000000   -0.867426
 ---------------------------------------------------------------------
 Stoichiometry    HO(2)
 Framework group  C*V[C*(HO)]
 Deg. of freedom     1
 Full point group                 C*V     NOp   4
 RotChk:  IX=0 Diff= 0.00D+00
 Largest Abelian subgroup         C2V     NOp   4
 Largest concise Abelian subgroup C1      NOp   1
                         Standard orientation:                         
 ---------------------------------------------------------------------
 Center     Atomic      Atomic             Coordinates (Angstroms)
 Number     Number       Type             X           Y           Z
 ---------------------------------------------------------------------
      1          8           0        0.000000    0.000000    0.108428
      2          1           0        0.000000    0.000000   -0.867426
 ---------------------------------------------------------------------
 Rotational constants (GHZ):      0.0000000    559.7567488    559.7567488
 Leave Link  202 at Mon Feb 10 17:09:29 2014, MaxMem= 4026531840 cpu:       0.1
 (Enter /usr/caen/gaussian-09revc/g09/l301.exe)
 Standard basis: 6-311G(2d,d,p) (5D, 7F)
 Ernie: Thresh=  0.10000D-02 Tol=  0.10000D-05 Strict=F.
 There are    13 symmetry adapted basis functions of A1  symmetry.
 There are     1 symmetry adapted basis functions of A2  symmetry.
 There are     5 symmetry adapted basis functions of B1  symmetry.
 There are     5 symmetry adapted basis functions of B2  symmetry.
 Integral buffers will be    131072 words long.
 Raffenetti 2 integral format.
 Two-electron integral symmetry is turned on.
    24 basis functions,    40 primitive gaussians,    25 cartesian basis functions
     5 alpha electrons        4 beta electrons
       nuclear repulsion energy         4.3381670503 Hartrees.
 IExCor=  402 DFT=T Ex+Corr=B3LYP ExCW=0 ScaHFX=  0.200000
 ScaDFX=  0.800000  0.720000  1.000000  0.810000 ScalE2=  1.000000  1.000000
 IRadAn=      0 IRanWt=     -1 IRanGd=            0 ICorTp=0
 NAtoms=    2 NActive=    2 NUniq=    2 SFac= 1.00D+00 NAtFMM=   60 NAOKFM=F Big=F
 Leave Link  301 at Mon Feb 10 17:09:29 2014, MaxMem= 4026531840 cpu:       0.4
 (Enter /usr/caen/gaussian-09revc/g09/l302.exe)
 NPDir=0 NMtPBC=     1 NCelOv=     1 NCel=       1 NClECP=     1 NCelD=      1
         NCelK=      1 NCelE2=     1 NClLst=     1 CellRange=     0.0.
 One-electron integrals computed using PRISM.
 NBasis=    24 RedAO= T  NBF=    13     1     5     5
 NBsUse=    24 1.00D-06 NBFU=    13     1     5     5
 Precomputing XC quadrature grid using
 IXCGrd= 2 IRadAn=           0 IRanWt=          -1 IRanGd=           0 AccXCQ= 0.00D+00.
 NRdTot=     123 NPtTot=       15630 NUsed=       16530 NTot=       16562
 NSgBfM=    25    25    25    25    25 NAtAll=     2     2.
 Leave Link  302 at Mon Feb 10 17:09:29 2014, MaxMem= 4026531840 cpu:       2.5
 (Enter /usr/caen/gaussian-09revc/g09/l303.exe)
 DipDrv:  MaxL=1.
 Leave Link  303 at Mon Feb 10 17:09:30 2014, MaxMem= 4026531840 cpu:       1.1
 (Enter /usr/caen/gaussian-09revc/g09/l401.exe)
 Initial guess read from the checkpoint file:  OH.chk
 B after Tr=     0.000000    0.000000    0.000000
         Rot=    1.000000    0.000000    0.000000    0.000000 Ang=   0.00 deg.
 Guess basis will be translated and rotated to current coordinates.
 Initial guess orbital symmetries:
 Alpha Orbitals:
       Occupied  (SG) (SG) (SG) (PI) (PI)
       Virtual   (SG) (SG) (PI) (PI) (SG) (SG) (SG) (PI) (SG) (PI)
                 (SG) (PI) (PI) (SG) (SG) (DLTA) (DLTA) (PI) (PI)
 Beta  Orbitals:
       Occupied  (SG) (SG) (SG) (?A)
       Virtual   (?A) (SG) (SG) (?A) (SG) (?A) (SG) (SG) (SG) (PI)
                 (PI) (SG) (PI) (PI) (SG) (SG) (DLTA) (DLTA) (PI)
                 (PI)
 Initial guess <Sx>= 0.0000 <Sy>= 0.0000 <Sz>= 0.5000 <S**2>= 0.7521 S= 0.5010
 Leave Link  401 at Mon Feb 10 17:09:30 2014, MaxMem= 4026531840 cpu:       2.5
 (Enter /usr/caen/gaussian-09revc/g09/l502.exe)
 UHF open shell SCF:
 Requested convergence on RMS density matrix=1.00D-08 within 128 cycles.
 Requested convergence on MAX density matrix=1.00D-06.
 Requested convergence on             energy=1.00D-06.
 No special actions if energy rises.
 Using DIIS extrapolation, IDIIS=  1040.
 Integral symmetry usage will be decided dynamically.
        16499 words used for storage of precomputed grid.
 Keep R1 and R2 ints in memory in canonical form, NReq=1001167.
 IEnd=       36934 IEndB=       36934 NGot=  4026531840 MDV=  4026406219
 LenX=  4026406219 LenY=  4026405153
 Symmetry not used in FoFDir.
 MinBra= 0 MaxBra= 2 Meth= 1.
 IRaf=       0 NMat=   1 IRICut=       1 DoRegI=T DoRafI=F ISym2E= 0 JSym2E=0.
 An orbital has undefined symmetry, so N**3 symmetry is turned off.

 Cycle   1  Pass 1  IDiag  1:
 Density matrix breaks symmetry, PCut= 1.00D-04
 Density has only Abelian symmetry.
 E= -75.7513056293821    
 DIIS: error= 2.38D-02 at cycle   1 NSaved=   1.
 NSaved= 1 IEnMin= 1 EnMin= -75.7513056293821     IErMin= 1 ErrMin= 2.38D-02
 ErrMax= 2.38D-02 EMaxC= 1.00D-01 BMatC= 3.09D-02 BMatP= 3.09D-02
 IDIUse=3 WtCom= 7.62D-01 WtEn= 2.38D-01
 Coeff-Com:  0.100D+01
 Coeff-En:   0.100D+01
 Coeff:      0.100D+01
 Gap=     8.466 Goal=   None    Shift=    0.000
 Gap=     0.221 Goal=   None    Shift=    0.000
 GapD=    0.221 DampG=1.000 DampE=0.500 DampFc=0.5000 IDamp=-1.
 Damping current iteration by 5.00D-01
 RMSDP=2.39D-03 MaxDP=2.20D-02              OVMax= 2.66D-02

 Cycle   2  Pass 1  IDiag  1:
 Density matrix breaks symmetry, PCut= 1.00D-04
 Density has only Abelian symmetry.
 E= -75.7529113118475     Delta-E=       -0.001605682465 Rises=F Damp=T
 DIIS: error= 1.19D-02 at cycle   2 NSaved=   2.
 NSaved= 2 IEnMin= 2 EnMin= -75.7529113118475     IErMin= 2 ErrMin= 1.19D-02
 ErrMax= 1.19D-02 EMaxC= 1.00D-01 BMatC= 8.16D-03 BMatP= 3.09D-02
 IDIUse=3 WtCom= 8.81D-01 WtEn= 1.19D-01
 Coeff-Com: -0.983D+00 0.198D+01
 Coeff-En:   0.000D+00 0.100D+01
 Coeff:     -0.865D+00 0.187D+01
 Gap=     0.364 Goal=   None    Shift=    0.000
 Gap=     0.147 Goal=   None    Shift=    0.000
 RMSDP=9.85D-04 MaxDP=8.11D-03 DE=-1.61D-03 OVMax= 8.57D-03

 Cycle   3  Pass 1  IDiag  1:
 Density matrix breaks symmetry, PCut= 1.00D-04
 Density has only Abelian symmetry.
 E= -75.7543848585789     Delta-E=       -0.001473546731 Rises=F Damp=F
 DIIS: error= 3.02D-03 at cycle   3 NSaved=   3.
 NSaved= 3 IEnMin= 3 EnMin= -75.7543848585789     IErMin= 3 ErrMin= 3.02D-03
 ErrMax= 3.02D-03 EMaxC= 1.00D-01 BMatC= 8.56D-04 BMatP= 8.16D-03
 IDIUse=3 WtCom= 9.70D-01 WtEn= 3.02D-02
 Coeff-Com: -0.505D+00 0.102D+01 0.485D+00
 Coeff-En:   0.000D+00 0.000D+00 0.100D+01
 Coeff:     -0.489D+00 0.989D+00 0.500D+00
 Gap=     0.369 Goal=   None    Shift=    0.000
 Gap=     0.148 Goal=   None    Shift=    0.000
 RMSDP=3.43D-04 MaxDP=3.74D-03 DE=-1.47D-03 OVMax= 4.05D-03

 Cycle   4  Pass 1  IDiag  1:
 Density matrix breaks symmetry, PCut= 1.00D-04
 Density has only Abelian symmetry.
 E= -75.7545268463181     Delta-E=       -0.000141987739 Rises=F Damp=F
 DIIS: error= 1.04D-04 at cycle   4 NSaved=   4.
 NSaved= 4 IEnMin= 4 EnMin= -75.7545268463181     IErMin= 4 ErrMin= 1.04D-04
 ErrMax= 1.04D-04 EMaxC= 1.00D-01 BMatC= 1.23D-06 BMatP= 8.56D-04
 IDIUse=3 WtCom= 9.99D-01 WtEn= 1.04D-03
 Coeff-Com: -0.144D-01 0.282D-01 0.446D-01 0.942D+00
 Coeff-En:   0.000D+00 0.000D+00 0.000D+00 0.100D+01
 Coeff:     -0.143D-01 0.282D-01 0.445D-01 0.942D+00
 Gap=     0.369 Goal=   None    Shift=    0.000
 Gap=     0.148 Goal=   None    Shift=    0.000
 RMSDP=1.57D-05 MaxDP=1.97D-04 DE=-1.42D-04 OVMax= 2.54D-04

 Cycle   5  Pass 1  IDiag  1:
 Density matrix breaks symmetry, PCut= 1.00D-04
 Density has only Abelian symmetry.
 E= -75.7545270661218     Delta-E=       -0.000000219804 Rises=F Damp=F
 DIIS: error= 1.37D-05 at cycle   5 NSaved=   5.
 NSaved= 5 IEnMin= 5 EnMin= -75.7545270661218     IErMin= 5 ErrMin= 1.37D-05
 ErrMax= 1.37D-05 EMaxC= 1.00D-01 BMatC= 1.80D-08 BMatP= 1.23D-06
 IDIUse=1 WtCom= 1.00D+00 WtEn= 0.00D+00
 Coeff-Com:  0.982D-04-0.425D-03 0.246D-02 0.105D+00 0.893D+00
 Coeff:      0.982D-04-0.425D-03 0.246D-02 0.105D+00 0.893D+00
 Gap=     0.369 Goal=   None    Shift=    0.000
 Gap=     0.148 Goal=   None    Shift=    0.000
 RMSDP=3.11D-06 MaxDP=3.46D-05 DE=-2.20D-07 OVMax= 3.40D-05

 Cycle   6  Pass 1  IDiag  1:
 Density matrix breaks symmetry, PCut= 1.00D-04
 Density has only Abelian symmetry.
 E= -75.7545270709029     Delta-E=       -0.000000004781 Rises=F Damp=F
 DIIS: error= 4.14D-06 at cycle   6 NSaved=   6.
 NSaved= 6 IEnMin= 6 EnMin= -75.7545270709029     IErMin= 6 ErrMin= 4.14D-06
 ErrMax= 4.14D-06 EMaxC= 1.00D-01 BMatC= 1.31D-09 BMatP= 1.80D-08
 IDIUse=1 WtCom= 1.00D+00 WtEn= 0.00D+00
 Coeff-Com:  0.138D-02-0.271D-02-0.336D-02-0.676D-01 0.237D-01 0.105D+01
 Coeff:      0.138D-02-0.271D-02-0.336D-02-0.676D-01 0.237D-01 0.105D+01
 Gap=     0.369 Goal=   None    Shift=    0.000
 Gap=     0.148 Goal=   None    Shift=    0.000
 RMSDP=9.32D-07 MaxDP=1.07D-05 DE=-4.78D-09 OVMax= 1.26D-05

 Cycle   7  Pass 1  IDiag  1:
 Density matrix breaks symmetry, PCut= 1.00D-04
 Density has only Abelian symmetry.
 E= -75.7545270713904     Delta-E=       -0.000000000488 Rises=F Damp=F
 DIIS: error= 6.66D-07 at cycle   7 NSaved=   7.
 NSaved= 7 IEnMin= 7 EnMin= -75.7545270713904     IErMin= 7 ErrMin= 6.66D-07
 ErrMax= 6.66D-07 EMaxC= 1.00D-01 BMatC= 2.63D-11 BMatP= 1.31D-09
 IDIUse=1 WtCom= 1.00D+00 WtEn= 0.00D+00
 Coeff-Com: -0.232D-03 0.467D-03 0.593D-03 0.966D-02-0.234D-01-0.186D+00
 Coeff-Com:  0.120D+01
 Coeff:     -0.232D-03 0.467D-03 0.593D-03 0.966D-02-0.234D-01-0.186D+00
 Coeff:      0.120D+01
 Gap=     0.369 Goal=   None    Shift=    0.000
 Gap=     0.148 Goal=   None    Shift=    0.000
 RMSDP=1.72D-07 MaxDP=1.59D-06 DE=-4.88D-10 OVMax= 2.64D-06

 Cycle   8  Pass 1  IDiag  1:
 Density matrix breaks symmetry, PCut= 1.00D-04
 Density has only Abelian symmetry.
 E= -75.7545270714063     Delta-E=       -0.000000000016 Rises=F Damp=F
 DIIS: error= 1.90D-07 at cycle   8 NSaved=   8.
 NSaved= 8 IEnMin= 8 EnMin= -75.7545270714063     IErMin= 8 ErrMin= 1.90D-07
 ErrMax= 1.90D-07 EMaxC= 1.00D-01 BMatC= 1.22D-12 BMatP= 2.63D-11
 IDIUse=1 WtCom= 1.00D+00 WtEn= 0.00D+00
 Coeff-Com:  0.116D-04-0.253D-04-0.477D-04-0.237D-03 0.275D-02 0.108D-01
 Coeff-Com: -0.225D+00 0.121D+01
 Coeff:      0.116D-04-0.253D-04-0.477D-04-0.237D-03 0.275D-02 0.108D-01
 Coeff:     -0.225D+00 0.121D+01
 Gap=     0.369 Goal=   None    Shift=    0.000
 Gap=     0.148 Goal=   None    Shift=    0.000
 RMSDP=3.93D-08 MaxDP=4.41D-07 DE=-1.59D-11 OVMax= 8.63D-07

 Cycle   9  Pass 1  IDiag  1:
 Density matrix breaks symmetry, PCut= 1.00D-04
 Density has only Abelian symmetry.
 E= -75.7545270714072     Delta-E=       -0.000000000001 Rises=F Damp=F
 DIIS: error= 4.10D-08 at cycle   9 NSaved=   9.
 NSaved= 9 IEnMin= 9 EnMin= -75.7545270714072     IErMin= 9 ErrMin= 4.10D-08
 ErrMax= 4.10D-08 EMaxC= 1.00D-01 BMatC= 6.37D-14 BMatP= 1.22D-12
 IDIUse=1 WtCom= 1.00D+00 WtEn= 0.00D+00
 Coeff-Com:  0.107D-04-0.212D-04-0.227D-04-0.468D-03 0.135D-02 0.816D-02
 Coeff-Com: -0.477D-01-0.140D+00 0.118D+01
 Coeff:      0.107D-04-0.212D-04-0.227D-04-0.468D-03 0.135D-02 0.816D-02
 Coeff:     -0.477D-01-0.140D+00 0.118D+01
 Gap=     0.369 Goal=   None    Shift=    0.000
 Gap=     0.148 Goal=   None    Shift=    0.000
 RMSDP=1.11D-08 MaxDP=1.07D-07 DE=-8.53D-13 OVMax= 2.25D-07

 Cycle  10  Pass 1  IDiag  1:
 Density matrix breaks symmetry, PCut= 1.00D-04
 Density has only Abelian symmetry.
 E= -75.7545270714072     Delta-E=        0.000000000000 Rises=F Damp=F
 DIIS: error= 1.19D-08 at cycle  10 NSaved=  10.
 NSaved=10 IEnMin=10 EnMin= -75.7545270714072     IErMin=10 ErrMin= 1.19D-08
 ErrMax= 1.19D-08 EMaxC= 1.00D-01 BMatC= 2.50D-15 BMatP= 6.37D-14
 IDIUse=1 WtCom= 1.00D+00 WtEn= 0.00D+00
 Coeff-Com: -0.560D-06 0.114D-05 0.138D-05 0.219D-04-0.130D-03-0.322D-03
 Coeff-Com:  0.457D-02-0.921D-02-0.645D-01 0.107D+01
 Coeff:     -0.560D-06 0.114D-05 0.138D-05 0.219D-04-0.130D-03-0.322D-03
 Coeff:      0.457D-02-0.921D-02-0.645D-01 0.107D+01
 Gap=     0.369 Goal=   None    Shift=    0.000
 Gap=     0.148 Goal=   None    Shift=    0.000
 RMSDP=3.86D-09 MaxDP=3.90D-08 DE=-2.84D-14 OVMax= 1.80D-07

 Density matrix breaks symmetry, PCut= 1.00D-04
 Density has only Abelian symmetry.
 SCF Done:  E(UB3LYP) =  -75.7545270714     A.U. after   10 cycles
             Convg  =    0.3860D-08             -V/T =  2.0015
 <Sx>= 0.0000 <Sy>= 0.0000 <Sz>= 0.5000 <S**2>= 0.7518 S= 0.5009
 <L.S>= 0.000000000000E+00
 KE= 7.563906996079D+01 PE=-1.883958591161D+02 EE= 3.266409503356D+01
 Annihilation of the first spin contaminant:
 S**2 before annihilation     0.7518,   after     0.7500
 Leave Link  502 at Mon Feb 10 17:09:35 2014, MaxMem= 4026531840 cpu:      32.1
 (Enter /usr/caen/gaussian-09revc/g09/l801.exe)
 Range of M.O.s used for correlation:     1    24
 NBasis=    24 NAE=     5 NBE=     4 NFC=     0 NFV=     0
 NROrb=     24 NOA=     5 NOB=     4 NVA=    19 NVB=    20
 Leave Link  801 at Mon Feb 10 17:09:35 2014, MaxMem= 4026531840 cpu:       0.1
 (Enter /usr/caen/gaussian-09revc/g09/l1101.exe)
 Using compressed storage, NAtomX=     2.
 Will process   3 centers per pass.
 Leave Link 1101 at Mon Feb 10 17:09:36 2014, MaxMem= 4026531840 cpu:       3.8
 (Enter /usr/caen/gaussian-09revc/g09/l1102.exe)
 Symmetrizing basis deriv contribution to polar:
 IMax=3 JMax=2 DiffMx= 0.00D+00
 Leave Link 1102 at Mon Feb 10 17:09:36 2014, MaxMem= 4026531840 cpu:       1.0
 (Enter /usr/caen/gaussian-09revc/g09/l1110.exe)
 Forming Gx(P) for the SCF density, NAtomX=     2.
 Integral derivatives from FoFDir/FoFCou, PRISM(SPDF).
 Do as many integral derivatives as possible in FoFDir.
 G2DrvN: MDV=    4026531720.
 G2DrvN: will do     3 centers at a time, making    1 passes doing MaxLOS=2.
 Calling FoFCou, ICntrl=  3107 FMM=F I1Cent=   0 AccDes= 0.00D+00.
 FoFCou: FMM=F IPFlag=           0 FMFlag=      100000 FMFlg1=           0
         NFxFlg=           0 DoJE=F BraDBF=F KetDBF=F FulRan=T
         Omega=  0.000000  0.000000  1.000000  0.000000  0.000000 ICntrl=    3107 IOpCl=  1
         NMat0=    1 NMatS0=    1 NMatT0=    0 NMatD0=    1 NMtDS0=    0 NMtDT0=    0
         I1Cent=           0 NGrid=           0.
 Symmetry not used in FoFCou.
 FoFDir/FoFCou used for L=0 through L=2.
[...]
 IEnd=       26139 IEndB=       26139 NGot=  4026531840 MDV=  4025022914
 LenX=  4025022914 LenY=  4025020072
 Symmetry not used in FoFDir.
 MinBra= 0 MaxBra= 3 Meth= 1.
 IRaf=       0 NMat=   1 IRICut=       1 DoRegI=T DoRafI=F ISym2E= 0 JSym2E=0.
 An orbital has undefined symmetry, so N**3 symmetry is turned off.

 Cycle   1  Pass 1  IDiag  1:
 Density matrix breaks symmetry, PCut= 1.00D-04
 Density has only Abelian symmetry.
 E= -75.4141200713279    
 DIIS: error= 1.52D-02 at cycle   1 NSaved=   1.
 NSaved= 1 IEnMin= 1 EnMin= -75.4141200713279     IErMin= 1 ErrMin= 1.52D-02
 ErrMax= 1.52D-02 EMaxC= 1.00D-01 BMatC= 3.72D-02 BMatP= 3.72D-02
 IDIUse=3 WtCom= 8.48D-01 WtEn= 1.52D-01
 Coeff-Com:  0.100D+01
 Coeff-En:   0.100D+01
 Coeff:      0.100D+01
 Gap=     0.873 Goal=   None    Shift=    0.000
 Gap=     0.836 Goal=   None    Shift=    0.000
 GapD=    0.836 DampG=2.000 DampE=0.500 DampFc=1.0000 IDamp=-1.
 RMSDP=2.70D-03 MaxDP=4.35D-02              OVMax= 1.17D-02

 Cycle   2  Pass 1  IDiag  1:
 Density matrix breaks symmetry, PCut= 1.00D-07
 Density has only Abelian symmetry.
 E= -75.4174894496259     Delta-E=       -0.003369378298 Rises=F Damp=F
 DIIS: error= 1.77D-03 at cycle   2 NSaved=   2.
 NSaved= 2 IEnMin= 2 EnMin= -75.4174894496259     IErMin= 2 ErrMin= 1.77D-03
 ErrMax= 1.77D-03 EMaxC= 1.00D-01 BMatC= 4.61D-04 BMatP= 3.72D-02
 IDIUse=3 WtCom= 9.82D-01 WtEn= 1.77D-02
 Coeff-Com: -0.728D-01 0.107D+01
 Coeff-En:   0.000D+00 0.100D+01
 Coeff:     -0.715D-01 0.107D+01
 Gap=     0.605 Goal=   None    Shift=    0.000
 Gap=     0.558 Goal=   None    Shift=    0.000
 RMSDP=3.87D-04 MaxDP=6.49D-03 DE=-3.37D-03 OVMax= 2.59D-03

 Cycle   3  Pass 1  IDiag  1:
 Density matrix breaks symmetry, PCut= 1.00D-07
 Density has only Abelian symmetry.
 E= -75.4175647840348     Delta-E=       -0.000075334409 Rises=F Damp=F
 DIIS: error= 3.58D-04 at cycle   3 NSaved=   3.
 NSaved= 3 IEnMin= 3 EnMin= -75.4175647840348     IErMin= 3 ErrMin= 3.58D-04
 ErrMax= 3.58D-04 EMaxC= 1.00D-01 BMatC= 2.19D-05 BMatP= 4.61D-04
 IDIUse=3 WtCom= 9.96D-01 WtEn= 3.58D-03
 Coeff-Com: -0.120D-01 0.578D-01 0.954D+00
 Coeff-En:   0.000D+00 0.000D+00 0.100D+01
 Coeff:     -0.119D-01 0.576D-01 0.954D+00
 Gap=     0.607 Goal=   None    Shift=    0.000
 Gap=     0.560 Goal=   None    Shift=    0.000
 RMSDP=4.44D-05 MaxDP=5.20D-04 DE=-7.53D-05 OVMax= 1.06D-03

 Cycle   4  Pass 1  IDiag  1:
 Density matrix breaks symmetry, PCut= 1.00D-07
 Density has only Abelian symmetry.
 E= -75.4175691690103     Delta-E=       -0.000004384975 Rises=F Damp=F
 DIIS: error= 1.40D-04 at cycle   4 NSaved=   4.
 NSaved= 4 IEnMin= 4 EnMin= -75.4175691690103     IErMin= 4 ErrMin= 1.40D-04
 ErrMax= 1.40D-04 EMaxC= 1.00D-01 BMatC= 3.16D-06 BMatP= 2.19D-05
 IDIUse=3 WtCom= 9.99D-01 WtEn= 1.40D-03
 Coeff-Com:  0.507D-02-0.805D-01 0.148D+00 0.927D+00
 Coeff-En:   0.000D+00 0.000D+00 0.000D+00 0.100D+01
 Coeff:      0.507D-02-0.803D-01 0.148D+00 0.928D+00
 Gap=     0.606 Goal=   None    Shift=    0.000
 Gap=     0.560 Goal=   None    Shift=    0.000
 RMSDP=1.37D-05 MaxDP=3.18D-04 DE=-4.38D-06 OVMax= 2.71D-04

 Cycle   5  Pass 1  IDiag  1:
 Density matrix breaks symmetry, PCut= 1.00D-07
 Density has only Abelian symmetry.
 E= -75.4175698173236     Delta-E=       -0.000000648313 Rises=F Damp=F
 DIIS: error= 5.33D-05 at cycle   5 NSaved=   5.
 NSaved= 5 IEnMin= 5 EnMin= -75.4175698173236     IErMin= 5 ErrMin= 5.33D-05
 ErrMax= 5.33D-05 EMaxC= 1.00D-01 BMatC= 8.40D-08 BMatP= 3.16D-06
 IDIUse=1 WtCom= 1.00D+00 WtEn= 0.00D+00
 Coeff-Com: -0.222D-03 0.695D-02-0.549D-01-0.959D-01 0.114D+01
 Coeff:     -0.222D-03 0.695D-02-0.549D-01-0.959D-01 0.114D+01
 Gap=     0.606 Goal=   None    Shift=    0.000
 Gap=     0.560 Goal=   None    Shift=    0.000
 RMSDP=5.89D-06 MaxDP=9.48D-05 DE=-6.48D-07 OVMax= 1.85D-04

 Cycle   6  Pass 1  IDiag  1:
 Density matrix breaks symmetry, PCut= 1.00D-07
 Density has only Abelian symmetry.
 E= -75.4175698655170     Delta-E=       -0.000000048193 Rises=F Damp=F
 DIIS: error= 1.59D-05 at cycle   6 NSaved=   6.
 NSaved= 6 IEnMin= 6 EnMin= -75.4175698655170     IErMin= 6 ErrMin= 1.59D-05
 ErrMax= 1.59D-05 EMaxC= 1.00D-01 BMatC= 1.39D-08 BMatP= 8.40D-08
 IDIUse=1 WtCom= 1.00D+00 WtEn= 0.00D+00
 Coeff-Com: -0.139D-03 0.100D-02 0.159D-01-0.115D-01-0.470D+00 0.146D+01
 Coeff:     -0.139D-03 0.100D-02 0.159D-01-0.115D-01-0.470D+00 0.146D+01
 Gap=     0.606 Goal=   None    Shift=    0.000
 Gap=     0.560 Goal=   None    Shift=    0.000
 RMSDP=2.55D-06 MaxDP=4.36D-05 DE=-4.82D-08 OVMax= 9.76D-05

 Cycle   7  Pass 1  IDiag  1:
 Density matrix breaks symmetry, PCut= 1.00D-07
 Density has only Abelian symmetry.
 E= -75.4175698774748     Delta-E=       -0.000000011958 Rises=F Damp=F
 DIIS: error= 7.13D-06 at cycle   7 NSaved=   7.
 NSaved= 7 IEnMin= 7 EnMin= -75.4175698774748     IErMin= 7 ErrMin= 7.13D-06
 ErrMax= 7.13D-06 EMaxC= 1.00D-01 BMatC= 3.34D-09 BMatP= 1.39D-08
 IDIUse=1 WtCom= 1.00D+00 WtEn= 0.00D+00
 Coeff-Com:  0.133D-03-0.212D-02-0.840D-03 0.258D-01 0.116D+00-0.943D+00
 Coeff-Com:  0.180D+01
 Coeff:      0.133D-03-0.212D-02-0.840D-03 0.258D-01 0.116D+00-0.943D+00
 Coeff:      0.180D+01
 Gap=     0.606 Goal=   None    Shift=    0.000
 Gap=     0.560 Goal=   None    Shift=    0.000
 RMSDP=1.42D-06 MaxDP=2.14D-05 DE=-1.20D-08 OVMax= 5.55D-05

 Cycle   8  Pass 1  IDiag  1:
 Density matrix breaks symmetry, PCut= 1.00D-07
 Density has only Abelian symmetry.
 E= -75.4175698809141     Delta-E=       -0.000000003439 Rises=F Damp=F
 DIIS: error= 2.72D-06 at cycle   8 NSaved=   8.
 NSaved= 8 IEnMin= 8 EnMin= -75.4175698809141     IErMin= 8 ErrMin= 2.72D-06
 ErrMax= 2.72D-06 EMaxC= 1.00D-01 BMatC= 4.49D-10 BMatP= 3.34D-09
 IDIUse=1 WtCom= 1.00D+00 WtEn= 0.00D+00
 Coeff-Com: -0.384D-04 0.882D-03-0.335D-02-0.105D-01 0.397D-01 0.232D+00
 Coeff-Com: -0.103D+01 0.177D+01
 Coeff:     -0.384D-04 0.882D-03-0.335D-02-0.105D-01 0.397D-01 0.232D+00
 Coeff:     -0.103D+01 0.177D+01
 Gap=     0.606 Goal=   None    Shift=    0.000
 Gap=     0.560 Goal=   None    Shift=    0.000
 RMSDP=5.64D-07 MaxDP=9.30D-06 DE=-3.44D-09 OVMax= 2.29D-05

 Cycle   9  Pass 1  IDiag  1:
 Density matrix breaks symmetry, PCut= 1.00D-07
 Density has only Abelian symmetry.
 E= -75.4175698813546     Delta-E=       -0.000000000441 Rises=F Damp=F
 DIIS: error= 4.14D-07 at cycle   9 NSaved=   9.
 NSaved= 9 IEnMin= 9 EnMin= -75.4175698813546     IErMin= 9 ErrMin= 4.14D-07
 ErrMax= 4.14D-07 EMaxC= 1.00D-01 BMatC= 1.23D-11 BMatP= 4.49D-10
 IDIUse=1 WtCom= 1.00D+00 WtEn= 0.00D+00
 Coeff-Com:  0.101D-04-0.275D-03 0.140D-02 0.275D-02-0.186D-01-0.553D-01
 Coeff-Com:  0.339D+00-0.727D+00 0.146D+01
 Coeff:      0.101D-04-0.275D-03 0.140D-02 0.275D-02-0.186D-01-0.553D-01
 Coeff:      0.339D+00-0.727D+00 0.146D+01
 Gap=     0.606 Goal=   None    Shift=    0.000
 Gap=     0.560 Goal=   None    Shift=    0.000
 RMSDP=7.95D-08 MaxDP=1.13D-06 DE=-4.41D-10 OVMax= 2.72D-06

 Cycle  10  Pass 1  IDiag  1:
 Density matrix breaks symmetry, PCut= 1.00D-07
 Density has only Abelian symmetry.
 E= -75.4175698813650     Delta-E=       -0.000000000010 Rises=F Damp=F
 DIIS: error= 1.29D-07 at cycle  10 NSaved=  10.
 NSaved=10 IEnMin=10 EnMin= -75.4175698813650     IErMin=10 ErrMin= 1.29D-07
 ErrMax= 1.29D-07 EMaxC= 1.00D-01 BMatC= 1.12D-12 BMatP= 1.23D-11
 IDIUse=1 WtCom= 1.00D+00 WtEn= 0.00D+00
 Coeff-Com: -0.408D-05 0.120D-03-0.660D-03-0.118D-02 0.917D-02 0.219D-01
 Coeff-Com: -0.150D+00 0.337D+00-0.883D+00 0.167D+01
 Coeff:     -0.408D-05 0.120D-03-0.660D-03-0.118D-02 0.917D-02 0.219D-01
 Coeff:     -0.150D+00 0.337D+00-0.883D+00 0.167D+01
 Gap=     0.606 Goal=   None    Shift=    0.000
 Gap=     0.560 Goal=   None    Shift=    0.000
 RMSDP=2.30D-08 MaxDP=2.41D-07 DE=-1.04D-11 OVMax= 9.97D-07

 Cycle  11  Pass 1  IDiag  1:
 Density matrix breaks symmetry, PCut= 1.00D-07
 Density has only Abelian symmetry.
 E= -75.4175698813660     Delta-E=       -0.000000000001 Rises=F Damp=F
 DIIS: error= 3.70D-08 at cycle  11 NSaved=  11.
 NSaved=11 IEnMin=11 EnMin= -75.4175698813660     IErMin=11 ErrMin= 3.70D-08
 ErrMax= 3.70D-08 EMaxC= 1.00D-01 BMatC= 7.70D-14 BMatP= 1.12D-12
 IDIUse=1 WtCom= 1.00D+00 WtEn= 0.00D+00
 Coeff-Com:  0.137D-05-0.420D-04 0.242D-03 0.402D-03-0.346D-02-0.678D-02
 Coeff-Com:  0.526D-01-0.124D+00 0.379D+00-0.925D+00 0.163D+01
 Coeff:      0.137D-05-0.420D-04 0.242D-03 0.402D-03-0.346D-02-0.678D-02
 Coeff:      0.526D-01-0.124D+00 0.379D+00-0.925D+00 0.163D+01
 Gap=     0.606 Goal=   None    Shift=    0.000
 Gap=     0.560 Goal=   None    Shift=    0.000
 RMSDP=4.76D-09 MaxDP=7.96D-08 DE=-9.52D-13 OVMax= 2.08D-07

 Density matrix breaks symmetry, PCut= 1.00D-07
 Density has only Abelian symmetry.
 SCF Done:  E(UHF) =  -75.4175698814     A.U. after   11 cycles
             Convg  =    0.4764D-08             -V/T =  2.0007
 <Sx>= 0.0000 <Sy>= 0.0000 <Sz>= 0.5000 <S**2>= 0.7568 S= 0.5034
 <L.S>= 0.000000000000E+00
 KE= 7.536479200098D+01 PE=-1.879664431328D+02 EE= 3.284303643344D+01
 Annihilation of the first spin contaminant:
 S**2 before annihilation     0.7568,   after     0.7500
 Leave Link  502 at Mon Feb 10 17:10:54 2014, MaxMem= 4026531840 cpu:      31.6
 (Enter /usr/caen/gaussian-09revc/g09/l801.exe)
 ExpMin= 3.60D-02 ExpMax= 8.59D+03 ExpMxC= 1.30D+03 IAcc=3 IRadAn=         5 AccDes= 0.00D+00
 HarFok:  IExCor=  205 AccDes= 0.00D+00 IRadAn=         5 IDoV=-2
 ScaDFX=  1.000000  1.000000  1.000000  1.000000
 DSYEVD returned Info=          69 IAlg= 4 N=    34 NDim=    34 NE2=   118427067 trying DSYEV.
 Largest valence mixing into a core orbital is  7.06D-05
 Largest core mixing into a valence orbital is  2.02D-05
 Largest valence mixing into a core orbital is  1.10D-04
 Largest core mixing into a valence orbital is  3.71D-05
 Range of M.O.s used for correlation:     2    44
 NBasis=    44 NAE=     5 NBE=     4 NFC=     1 NFV=     0
 NROrb=     43 NOA=     4 NOB=     3 NVA=    39 NVB=    40
 Leave Link  801 at Mon Feb 10 17:10:54 2014, MaxMem= 4026531840 cpu:       1.3
 (Enter /usr/caen/gaussian-09revc/g09/l906.exe)
 FulOut=F Deriv=F AODrv=F NAtomX=     2
   MMem=           0  MDisk=           4 MDiskD=           4
  W3Min=       15680 MinDsk=       76833 NBas6D=          49
 NBas2D=        1330    NTT=        1225    LW2=     2000000
    MDV=  4026510367 MDiskM=      410664 NBas2p=        1330
 Disk-based method using OVN memory for  4 occupieds at a time.
 Permanent disk used for amplitudes and <ij||ab> integrals=       51012 words.
 Estimated scratch disk usage=      998720 words.
 IMap=   1   2   3   4
 Actual    scratch disk usage=      993400 words.
 JobTyp=2 Pass  1:  I=   1 to   4 NPSUse=  8 ParTrn=T ParDer=T DoDerP=F.
 (rs|ai) integrals will be sorted in core.
 IMap=   1   2   3
 Actual    scratch disk usage=      998720 words.
 JobTyp=3 Pass  1:  I=   1 to   3 NPSUse=  8 ParTrn=T ParDer=T DoDerP=F.
 (rs|ai) integrals will be sorted in core.
 Spin components of T(2) and E(2):
     alpha-alpha T2 =       0.7098488723D-02 E2=     -0.3185419142D-01
     alpha-beta  T2 =       0.3348820527D-01 E2=     -0.1502976422D+00
     beta-beta   T2 =       0.3623144947D-02 E2=     -0.1472393599D-01
 The integrals were generated   2 times.
 (S**2,0)=  0.75676D+00           (S**2,1)=  0.75123D+00
 E(PUHF)=      -0.75420837971D+02        E(PMP2)=      -0.75616379260D+02
 ANorm=    0.1021865862D+01
 E2 =    -0.1968757696D+00 EUMP2 =    -0.75614445650993D+02
 Leave Link  906 at Mon Feb 10 17:11:01 2014, MaxMem= 4026531840 cpu:      44.8
 (Enter /usr/caen/gaussian-09revc/g09/l904.exe)

 Complete Basis Set (CBS) Extrapolation:
 M. R. Nyden and G. A. Petersson, JCP 75, 1843 (1981)
 G. A. Petersson and M. A. Al-Laham, JCP 94, 6081 (1991)
 G. A. Petersson, T. Tensfeldt, and J. A. Montgomery, JCP 94, 6091 (1991)
 J. A. Montgomery, J. W. Ochterski, and G. A. Petersson, JCP 101, 5900 (1994)
 
 Available Memory in CBS = 4026531840
 Minimum Number of PNO for Extrapolation =  10
 Absolute Overlaps: IRadAn =     99590
 LocTrn: ILocal=3 LocCor=F DoCore=F.
 LocMO: Using population method
 Initial Trace= 0.30000000D+01 Initial TraceA= 0.25061150D+01
 RMSG= 0.69768446D-16
 LocMO: Using population method
 Initial Trace= 0.30000000D+01 Initial TraceA= 0.24262421D+01
 RMSG= 0.58919110D-15
 <Sx>= 0.0000 <Sy>= 0.0000 <Sz>= 0.5000 <S**2>= 0.7568 S= 0.5034 S2Cor= 0.0095
 There are a total of       97940 grid points.
 ElSum from         orbitals=        8.9999999607
 E2(CBS)=      -0.220218 CBS-Int=       0.006685 OIii=       1.852059
 Leave Link  904 at Mon Feb 10 17:11:03 2014, MaxMem= 4026531840 cpu:       7.9
 (Enter /usr/caen/gaussian-09revc/g09/l601.exe)
 Copying SCF densities to generalized density rwf, IOpCl= 1 IROHF=0.

 **********************************************************************

            Population analysis using the SCF density.

 **********************************************************************

 Orbital symmetries:
 Alpha Orbitals:
       Occupied  (SG) (SG) (SG) (PI) (PI)
       Virtual   (SG) (PI) (SG) (PI) (SG) (SG) (SG) (PI) (PI) (SG)
                 (PI) (PI) (?A) (?A) (?A) (?A) (PI) (PI) (SG) (SG)
                 (PI) (PI) (SG) (?B) (?C) (?C) (?B) (?B) (?B) (?C)
                 (PI) (PI) (?D) (?D) (PI) (PI) (SG) (?D) (SG)
 Beta  Orbitals:
       Occupied  (SG) (SG) (SG) (?A)
       Virtual   (SG) (?A) (SG) (?A) (SG) (?A) (SG) (SG) (PI) (PI)
                 (SG) (?A) (?A) (SG) (?B) (?B) (?B) (PI) (PI) (SG)
                 (SG) (PI) (PI) (SG) (?C) (?C) (?D) (?D) (?D) (?D)
                 (?C) (PI) (PI) (DLTA) (DLTA) (PI) (PI) (SG) (SG)
                 (SG)
 Unable to determine electronic state:  an orbital has unidentified symmetry.
 Alpha  occ. eigenvalues --  -20.64117  -1.38874  -0.68211  -0.65888  -0.56213
 Alpha virt. eigenvalues --    0.04395   0.22378   0.22954   0.23883   0.24419
 Alpha virt. eigenvalues --    0.30109   0.66844   0.83590   0.85399   1.04651
 Alpha virt. eigenvalues --    1.17537   1.22759   1.49577   1.57573   1.67931
 Alpha virt. eigenvalues --    1.68168   1.98474   2.03067   2.42648   2.91750
 Alpha virt. eigenvalues --    3.91046   3.92784   4.44118   5.36204   5.38647
 Alpha virt. eigenvalues --    5.39131   5.39436   5.41628   5.46065   5.64701
 Alpha virt. eigenvalues --    5.89348   5.94251   7.14763   7.14879   7.31888
 Alpha virt. eigenvalues --    7.38557   7.53484   7.87682  51.45322
  Beta  occ. eigenvalues --  -20.60068  -1.23001  -0.63808  -0.51377
  Beta virt. eigenvalues --    0.04586   0.07191   0.23507   0.24305   0.24894
  Beta virt. eigenvalues --    0.30705   0.30848   0.67803   0.85136   0.86111
  Beta virt. eigenvalues --    1.05907   1.24616   1.32107   1.51546   1.61658
  Beta virt. eigenvalues --    1.76305   1.76459   2.03934   2.05904   2.44147
  Beta virt. eigenvalues --    2.92831   3.92089   3.92468   4.44952   5.43454
  Beta virt. eigenvalues --    5.43501   5.46035   5.46278   5.48001   5.51289
  Beta virt. eigenvalues --    5.67584   5.93950   5.95139   7.25191   7.25206
  Beta virt. eigenvalues --    7.40757   7.41826   7.55033   7.91465  51.47664
          Condensed to atoms (all electrons):
              1          2
     1  O    8.004307   0.246668
     2  H    0.246668   0.502356
 Mulliken atomic charges:
              1
     1  O   -0.250975
     2  H    0.250975
 Sum of Mulliken atomic charges =   0.00000
 Mulliken charges with hydrogens summed into heavy atoms:
              1
     1  O    0.000000
 Sum of Mulliken charges with hydrogens summed into heavy atoms =   0.00000
          Atomic-Atomic Spin Densities.
              1          2
     1  O    1.042315  -0.000882
     2  H   -0.000882  -0.040552
 Mulliken atomic spin densities:
              1
     1  O    1.041434
     2  H   -0.041434
 Sum of Mulliken atomic spin densities =   1.00000
 Electronic spatial extent (au):  <R**2>=             15.4213
 Charge=              0.0000 electrons
 Dipole moment (field-independent basis, Debye):
    X=              0.0000    Y=              0.0000    Z=             -1.8154  Tot=              1.8154
 Quadrupole moment (field-independent basis, Debye-Ang):
   XX=             -6.2812   YY=             -5.8730   ZZ=             -4.5274
   XY=              0.6309   XZ=              0.0000   YZ=              0.0000
 Traceless Quadrupole moment (field-independent basis, Debye-Ang):
   XX=             -0.7207   YY=             -0.3125   ZZ=              1.0332
   XY=              0.6309   XZ=              0.0000   YZ=              0.0000
 Octapole moment (field-independent basis, Debye-Ang**2):
  XXX=              0.0000  YYY=              0.0000  ZZZ=             -2.1440  XYY=              0.0000
  XXY=              0.0000  XXZ=             -0.2583  XZZ=              0.0000  YZZ=              0.0000
  YYZ=             -0.2296  XYZ=              0.0443
 Hexadecapole moment (field-independent basis, Debye-Ang**3):
 XXXX=             -5.0209 YYYY=             -4.4046 ZZZZ=             -5.2978 XXXY=              0.4764
 XXXZ=              0.0000 YYYX=              0.4762 YYYZ=              0.0000 ZZZX=              0.0000
 ZZZY=              0.0000 XXYY=             -1.5712 XXZZ=             -2.0037 YYZZ=             -1.8921
 XXYZ=              0.0000 YYXZ=              0.0000 ZZXY=              0.1726
 N-N= 4.341044817047D+00 E-N=-2.769316376510D+02  KE= 1.116176755951D+02
 Symmetry A1   KE= 1.021321017948D+02
 Symmetry A2   KE= 4.466186441668D-03
 Symmetry B1   KE= 5.425546284175D+00
 Symmetry B2   KE= 4.055561329652D+00
 Leave Link  601 at Mon Feb 10 17:11:03 2014, MaxMem= 4026531840 cpu:       2.0
 (Enter /usr/caen/gaussian-09revc/g09/l9999.exe)
 1\1\GINC-NYX5239\SP\UMP2-FC\CBSB3\H1O1(2)\HETANJIN\10-Feb-2014\0\\#P G
 eom=AllCheck Guess=TCheck SCRF=Check MP2/CBSB3 CBSExtrap=(NMin=10,MinP
 op)\\optimization and freq\\0,2\O,0,0.,0.,0.1081045433\H,0,0.,0.,-0.86
 71025433\\Version=EM64L-G09RevC.01\HF=-75.4175699\MP2=-75.6144457\E2(C
 BS)=-0.2202183\CBS-Int=-0.2135335\OIii=1.8520593\PUHF=-75.420838\PMP2-
 0=-75.6163793\S2=0.756763\S2-1=0.751226\S2A=0.750028\RMSD=4.764e-09\PG
 =C*V [C*(H1O1)]\\@


 QUHEN THE CAUSS IS TAKEN AWAY THE EFFECT WANISHETH.
 -- PROVERBS AND REASONS OF THE YEAR 1585
           AS REPRINTED IN PAISLEY MAGAZINE 1828.

 Complete Basis Set (CBS) Extrapolation:
 M. R. Nyden and G. A. Petersson, JCP 75, 1843 (1981)
 G. A. Petersson and M. A. Al-Laham, JCP 94, 6081 (1991)
 G. A. Petersson, T. Tensfeldt, and J. A. Montgomery, JCP 94, 6091 (1991)
 J. A. Montgomery, J. W. Ochterski, and G. A. Petersson, JCP 101, 5900 (1994)

 Temperature=               298.150000 Pressure=                       1.000000
 E(ZPE)=                      0.008356 E(Thermal)=                     0.010716
 E(SCF)=                    -75.417570 DE(MP2)=                       -0.196876
 DE(CBS)=                    -0.023343 DE(MP34)=                      -0.013362
 DE(CCSD)=                   -0.002846 DE(Int)=                        0.006685
 DE(Empirical)=              -0.010788
 CBS-QB3 (0 K)=             -75.649743 CBS-QB3 Energy=               -75.647383
 CBS-QB3 Enthalpy=          -75.646439 CBS-QB3 Free Energy=          -75.666671
 1\1\GINC-NYX5239\Mixed\CBS-QB3\CBS-QB3\H1O1(2)\HETANJIN\10-Feb-2014\0\
 \#p cbs-qb3 opt=calcfc freq geom=check guess=read\\optimization and fr
 eq\\0,2\O,0,0.,0.,0.1081045433\H,0,0.,0.,-0.8671025433\\Version=EM64L-
 G09RevC.01\HF/CbsB3=-75.4175699\E2(CBS)/CbsB3=-0.2202183\CBS-Int/CbsB3
 =0.0066847\OIii/CbsB3=1.8520593\MP2/CbsB4=-75.549506\MP4(SDQ)/CbsB4=-7
 5.5628675\MP4(SDQ)/6-31+G(d')=-75.5466105\QCISD(T)/6-31+G(d')=-75.5494
 566\CBSQB3=-75.6497435\FreqCoord=0.,0.,0.2042879805,0.,0.,-1.638586335
 9\PG=C*V [C*(H1O1)]\NImag=0\\-0.00001714,-0.00005473,-0.00012505,0.,0.
 ,0.49244061,0.00001714,0.00005473,0.,-0.00001714,0.00005473,0.00012505
 ,0.,-0.00005473,-0.00012505,0.,0.,-0.49244061,0.,0.,0.49244061\\0.,0.,
 -0.00000128,0.,0.,0.00000128\\\@
 Job cpu time:  0 days  0 hours  1 minutes 41.7 seconds.
 File lengths (MBytes):  RWF=     12 Int=      0 D2E=      0 Chk=      1 Scr=      1
 Normal termination of Gaussian 09 at Mon Feb 10 17:11:03 2014.
