 Entering Gaussian System, Link 0=g09
 Initial command:
 /usr/caen/gaussian-09revc/g09/l1.exe /scratch/avioli_flux/hetanjin/scratch/Gau-44366.inp -scrdir=/scratch/avioli_flux/hetanjin/scratch/
 Entering Link 1 = /usr/caen/gaussian-09revc/g09/l1.exe PID=     44367.
  
 Copyright (c) 1988,1990,1992,1993,1995,1998,2003,2009,2011,
            Gaussian, Inc.  All Rights Reserved.
  
 This is part of the Gaussian(R) 09 program.  It is based on
 the Gaussian(R) 03 system (copyright 2003, Gaussian, Inc.),
 the Gaussian(R) 98 system (copyright 1998, Gaussian, Inc.),
 the Gaussian(R) 94 system (copyright 1995, Gaussian, Inc.),
 the Gaussian 92(TM) system (copyright 1992, Gaussian, Inc.),
 the Gaussian 90(TM) system (copyright 1990, Gaussian, Inc.),
 the Gaussian 88(TM) system (copyright 1988, Gaussian, Inc.),
 the Gaussian 86(TM) system (copyright 1986, Carnegie Mellon
 University), and the Gaussian 82(TM) system (copyright 1983,
 Carnegie Mellon University). Gaussian is a federally registered
 trademark of Gaussian, Inc.
  
 This software contains proprietary and confidential information,
 including trade secrets, belonging to Gaussian, Inc.
  
 This software is provided under written license and may be
 used, copied, transmitted, or stored only in accord with that
 written license.
  
 The following legend is applicable only to US Government
 contracts under FAR:
  
                    RESTRICTED RIGHTS LEGEND
  
 Use, reproduction and disclosure by the US Government is
 subject to restrictions as set forth in subparagraphs (a)
 and (c) of the Commercial Computer Software - Restricted
 Rights clause in FAR 52.227-19.
  
 Gaussian, Inc.
 340 Quinnipiac St., Bldg. 40, Wallingford CT 06492
  
  
 ---------------------------------------------------------------
 Warning -- This program may not be used in any manner that
 competes with the business of Gaussian, Inc. or will provide
 assistance to any competitor of Gaussian, Inc.  The licensee
 of this program is prohibited from giving any competitor of
 Gaussian, Inc. access to this program.  By using this program,
 the user acknowledges that Gaussian, Inc. is engaged in the
 business of creating and licensing software in the field of
 computational chemistry and represents and warrants to the
 licensee that it is not a competitor of Gaussian, Inc. and that
 it will not use this program in any manner prohibited above.
 ---------------------------------------------------------------
  

 Cite this work as:
 Gaussian 09, Revision C.01,
 M. J. Frisch, G. W. Trucks, H. B. Schlegel, G. E. Scuseria, 
 M. A. Robb, J. R. Cheeseman, G. Scalmani, V. Barone, B. Mennucci, 
 G. A. Petersson, H. Nakatsuji, M. Caricato, X. Li, H. P. Hratchian, 
 A. F. Izmaylov, J. Bloino, G. Zheng, J. L. Sonnenberg, M. Hada, 
 M. Ehara, K. Toyota, R. Fukuda, J. Hasegawa, M. Ishida, T. Nakajima, 
 Y. Honda, O. Kitao, H. Nakai, T. Vreven, J. A. Montgomery, Jr., 
 J. E. Peralta, F. Ogliaro, M. Bearpark, J. J. Heyd, E. Brothers, 
 K. N. Kudin, V. N. Staroverov, T. Keith, R. Kobayashi, J. Normand, 
 K. Raghavachari, A. Rendell, J. C. Burant, S. S. Iyengar, J. Tomasi, 
 M. Cossi, N. Rega, J. M. Millam, M. Klene, J. E. Knox, J. B. Cross, 
 V. Bakken, C. Adamo, J. Jaramillo, R. Gomperts, R. E. Stratmann, 
 O. Yazyev, A. J. Austin, R. Cammi, C. Pomelli, J. W. Ochterski, 
 R. L. Martin, K. Morokuma, V. G. Zakrzewski, G. A. Voth, 
 P. Salvador, J. J. Dannenberg, S. Dapprich, A. D. Daniels, 
 O. Farkas, J. B. Foresman, J. V. Ortiz, J. Cioslowski, 
 and D. J. Fox, Gaussian, Inc., Wallingford CT, 2010.
 
 ******************************************
 Gaussian 09:  EM64L-G09RevC.01 23-Sep-2011
                15-Feb-2014 
 ******************************************
 %mem=30GB
 %nprocshared=8
 Will use up to    8 processors via shared memory.
 %chk=TS_1_1d.chk
 --------------------------------------------------
 #p UB3LYP/6-311++G(d,p) guess=mix stable=(opt,xqc)
 --------------------------------------------------
 1/38=1/1;
 2/12=2,17=6,18=5,40=1/2;
 3/5=4,6=6,7=1111,11=2,16=1,25=1,30=1,74=-5,116=2/1,2,3;
 4/13=-1/1;
 5/5=2,38=5/2;
 6/7=2,8=2,9=2,10=2,28=1/1;
 8/6=1,10=90,11=11/1;
 9/8=-3,42=1,46=1/14;
 5/5=2,8=3,13=1,17=40,38=5/2,8(-2);
 6/7=2,8=2,9=2,10=2,28=1/1;
 99/5=1,9=1/99;
 Leave Link    1 at Sat Feb 15 14:27:10 2014, MaxMem= 4026531840 cpu:       1.1
 (Enter /usr/caen/gaussian-09revc/g09/l101.exe)
 ------------------------------------
 TS_1_1d using cbs-qb3 to cal. energy
 ------------------------------------
 Charge =  0 Multiplicity = 2
 Symbolic Z-Matrix:
 C                    -3.20096  -1.59673  -0.14602 
 H                    -2.8582   -2.62128  -0.31245 
 H                    -3.47623  -1.16875  -1.11305 
 H                    -4.10278  -1.64057   0.47138 
 C                    -2.10821  -0.75679   0.52787 
 H                    -1.87395  -1.18851   1.51282 
 C                    -0.83055  -0.70113  -0.29496 
 H                    -0.81291  -1.37911  -1.15103 
 H                    -1.03061   0.51856  -0.88514 
 C                     0.49038  -0.57572   0.4291 
 H                     0.67134  -1.50961   0.98671 
 H                     0.4156    0.21327   1.18562 
 C                     1.68028  -0.31175  -0.50386 
 H                     1.53613   0.65137  -1.01008 
 H                     1.67845  -1.07442  -1.29258 
 C                     3.06047  -0.31771   0.17991 
 H                     3.16277  -1.27304   0.71379 
 C                     4.17765  -0.24804  -0.87082 
 H                     4.11984   0.68581  -1.44072 
 H                     5.16533  -0.28951  -0.40236 
 H                     4.10951  -1.07637  -1.58242 
 C                    -2.61275   0.68459   0.81564 
 H                    -3.60302   0.67256   1.27762 
 H                    -1.91235   1.23093   1.45552 
 C                     3.21338   0.81525   1.20521 
 H                     4.20542   0.79239   1.66554 
 H                     3.09236   1.79239   0.72475 
 H                     2.47764   0.74613   2.0103 
 O                    -2.78125   1.38442  -0.41001 
 O                    -1.49155   1.61133  -0.94833 
 
 NAtoms=     30 NQM=        0 NQMF=       0 NMMI=     30 NMMIF=      0
                NMic=       0 NMicF=      0.
                    Isotopes and Nuclear Properties:
 (Nuclear quadrupole moments (NQMom) in fm**2, nuclear magnetic moments (NMagM)
  in nuclear magnetons)

  Atom         1           2           3           4           5           6           7           8           9          10
 IAtWgt=          12           1           1           1          12           1          12           1           1          12
 AtmWgt=  12.0000000   1.0078250   1.0078250   1.0078250  12.0000000   1.0078250  12.0000000   1.0078250   1.0078250  12.0000000
 NucSpn=           0           1           1           1           0           1           0           1           1           0
 AtZEff=   0.0000000   0.0000000   0.0000000   0.0000000   0.0000000   0.0000000   0.0000000   0.0000000   0.0000000   0.0000000
 NQMom=    0.0000000   0.0000000   0.0000000   0.0000000   0.0000000   0.0000000   0.0000000   0.0000000   0.0000000   0.0000000
 NMagM=    0.0000000   2.7928460   2.7928460   2.7928460   0.0000000   2.7928460   0.0000000   2.7928460   2.7928460   0.0000000

  Atom        11          12          13          14          15          16          17          18          19          20
 IAtWgt=           1           1          12           1           1          12           1          12           1           1
 AtmWgt=   1.0078250   1.0078250  12.0000000   1.0078250   1.0078250  12.0000000   1.0078250  12.0000000   1.0078250   1.0078250
 NucSpn=           1           1           0           1           1           0           1           0           1           1
 AtZEff=   0.0000000   0.0000000   0.0000000   0.0000000   0.0000000   0.0000000   0.0000000   0.0000000   0.0000000   0.0000000
 NQMom=    0.0000000   0.0000000   0.0000000   0.0000000   0.0000000   0.0000000   0.0000000   0.0000000   0.0000000   0.0000000
 NMagM=    2.7928460   2.7928460   0.0000000   2.7928460   2.7928460   0.0000000   2.7928460   0.0000000   2.7928460   2.7928460

  Atom        21          22          23          24          25          26          27          28          29          30
 IAtWgt=           1          12           1           1          12           1           1           1          16          16
 AtmWgt=   1.0078250  12.0000000   1.0078250   1.0078250  12.0000000   1.0078250   1.0078250   1.0078250  15.9949146  15.9949146
 NucSpn=           1           0           1           1           0           1           1           1           0           0
 AtZEff=   0.0000000   0.0000000   0.0000000   0.0000000   0.0000000   0.0000000   0.0000000   0.0000000   0.0000000   0.0000000
 NQMom=    0.0000000   0.0000000   0.0000000   0.0000000   0.0000000   0.0000000   0.0000000   0.0000000   0.0000000   0.0000000
 NMagM=    2.7928460   0.0000000   2.7928460   2.7928460   0.0000000   2.7928460   2.7928460   2.7928460   0.0000000   0.0000000
 Leave Link  101 at Sat Feb 15 14:27:10 2014, MaxMem= 4026531840 cpu:       0.4
 (Enter /usr/caen/gaussian-09revc/g09/l202.exe)
                          Input orientation:                          
 ---------------------------------------------------------------------
 Center     Atomic      Atomic             Coordinates (Angstroms)
 Number     Number       Type             X           Y           Z
 ---------------------------------------------------------------------
      1          6           0       -3.200963   -1.596732   -0.146023
      2          1           0       -2.858204   -2.621280   -0.312449
      3          1           0       -3.476229   -1.168750   -1.113047
      4          1           0       -4.102776   -1.640572    0.471381
      5          6           0       -2.108207   -0.756792    0.527870
      6          1           0       -1.873947   -1.188508    1.512820
      7          6           0       -0.830553   -0.701131   -0.294959
      8          1           0       -0.812905   -1.379109   -1.151030
      9          1           0       -1.030613    0.518555   -0.885142
     10          6           0        0.490375   -0.575715    0.429101
     11          1           0        0.671341   -1.509610    0.986705
     12          1           0        0.415602    0.213269    1.185621
     13          6           0        1.680275   -0.311751   -0.503855
     14          1           0        1.536126    0.651367   -1.010077
     15          1           0        1.678446   -1.074422   -1.292575
     16          6           0        3.060468   -0.317705    0.179906
     17          1           0        3.162766   -1.273037    0.713793
     18          6           0        4.177655   -0.248042   -0.870823
     19          1           0        4.119840    0.685811   -1.440721
     20          1           0        5.165326   -0.289505   -0.402357
     21          1           0        4.109508   -1.076369   -1.582418
     22          6           0       -2.612750    0.684589    0.815644
     23          1           0       -3.603022    0.672561    1.277617
     24          1           0       -1.912345    1.230929    1.455515
     25          6           0        3.213379    0.815248    1.205211
     26          1           0        4.205417    0.792387    1.665542
     27          1           0        3.092358    1.792392    0.724749
     28          1           0        2.477640    0.746130    2.010295
     29          8           0       -2.781250    1.384417   -0.410006
     30          8           0       -1.491550    1.611326   -0.948326
 ---------------------------------------------------------------------
                    Distance matrix (angstroms):
                    1          2          3          4          5
     1  C    0.000000
     2  H    1.093106   0.000000
     3  H    1.092738   1.769959   0.000000
     4  H    1.093790   1.767806   1.767934   0.000000
     5  C    1.534193   2.178290   2.175730   2.182330   0.000000
     6  H    2.163187   2.520556   3.076179   2.501327   1.100628
     7  C    2.538331   2.792606   2.808476   3.489594   1.520706
     8  H    2.600042   2.535637   2.671889   3.677476   2.209930
     9  H    3.119480   3.677857   2.979929   3.992514   2.187309
    10  C    3.872883   3.993396   4.296959   4.715161   2.606755
    11  H    4.035517   3.921900   4.661275   4.803634   2.916016
    12  H    4.257807   4.582214   4.726542   4.935849   2.782673
    13  C    5.060208   5.095915   5.262613   6.013363   3.951596
    14  H    5.314184   5.523318   5.333585   6.264576   4.198733
    15  H    5.039447   4.892301   5.158663   6.070798   4.213508
    16  C    6.399036   6.370208   6.717471   7.290199   5.198950
    17  H    6.429705   6.254839   6.886543   7.278870   5.299456
    18  C    7.535801   7.446298   7.712867   8.503305   6.459662
    19  H    7.776915   7.804034   7.826048   8.756689   6.689172
    20  H    8.471679   8.355973   8.715195   9.406727   7.347650
    21  H    7.468400   7.249040   7.600806   8.483986   6.573844
    22  C    2.544646   3.501658   2.810749   2.782996   1.554013
    23  H    2.708891   3.732620   3.020228   2.500071   2.199919
    24  H    3.495873   4.342794   3.847298   3.743264   2.202254
    25  C    6.984788   7.139827   7.352647   7.752140   5.590114
    26  H    7.990252   8.090755   8.400851   8.739072   6.599705
    27  H    7.200715   7.481007   7.435872   7.976176   5.795082
    28  H    6.510395   6.723527   6.990750   7.167041   5.048401
    29  O    3.022101   4.007624   2.737869   3.416699   2.432565
    30  O    3.722555   4.492999   3.419782   4.405554   2.857867
                    6          7          8          9         10
     6  H    0.000000
     7  C    2.143425   0.000000
     8  H    2.873715   1.092164   0.000000
     9  H    3.061944   1.369662   1.928528   0.000000
    10  C    2.672074   1.511570   2.200181   2.288682   0.000000
    11  H    2.618854   2.133538   2.605749   3.242516   1.102647
    12  H    2.704454   2.140361   3.082991   2.544169   1.095632
    13  C    4.179495   2.549414   2.788196   2.860717   1.534909
    14  H    4.623716   2.818122   3.108158   2.573208   2.161148
    15  H    4.527997   2.725740   2.513901   3.169003   2.150439
    16  C    5.184921   3.938598   4.230956   4.309362   2.595004
    17  H    5.100399   4.158275   4.392582   4.832269   2.776505
    18  C    6.571767   5.061527   5.124794   5.264402   3.923418
    19  H    6.939882   5.267141   5.355351   5.183031   4.273254
    20  H    7.350338   6.010951   6.122662   6.267033   4.756932
    21  H    6.737567   5.118843   4.950545   5.426861   4.170730
    22  C    2.130816   2.515926   3.371364   2.328819   3.371523
    23  H    2.551196   3.470823   4.229944   3.364303   4.362805
    24  H    2.420420   2.822639   3.849044   2.600693   3.176563
    25  C    5.476363   4.572013   5.155389   4.740155   3.154659
    26  H    6.395775   5.606706   6.150775   5.830693   4.147533
    27  H    5.845597   4.758854   5.369175   4.605790   3.530673
    28  H    4.788174   4.284029   5.033717   4.554469   2.862983
    29  O    3.337724   2.857965   3.472834   2.010025   3.905093
    30  O    3.747337   2.492241   3.073166   1.187688   3.257066
                   11         12         13         14         15
    11  H    0.000000
    12  H    1.753078   0.000000
    13  C    2.162078   2.174712   0.000000
    14  H    3.066727   2.503716   1.097559   0.000000
    15  H    2.529578   3.065025   1.097155   1.754539   0.000000
    16  C    2.789174   2.879012   1.540291   2.163048   2.156573
    17  H    2.517468   3.158898   2.145814   3.053034   2.503631
    18  C    4.163676   4.312170   2.525001   2.793923   2.665863
    19  H    4.754410   4.565342   2.797200   2.619584   3.013432
    20  H    4.859429   5.033322   3.486600   3.798112   3.683329
    21  H    4.313825   4.792718   2.765703   3.151974   2.448280
    22  C    3.953356   3.087060   4.600417   4.532939   5.094416
    23  H    4.807981   4.045831   5.661779   5.625374   6.127948
    24  H    3.795493   2.554958   4.373318   4.278667   5.075473
    25  C    3.451763   2.861873   2.557624   2.783440   3.487952
    26  H    4.271967   3.863729   3.507385   3.782055   4.315207
    27  H    4.102824   3.141824   2.816179   2.594883   3.779863
    28  H    3.065749   2.283863   2.841805   3.165134   3.855136
    29  O    4.716628   3.759983   4.773992   4.420089   5.168530
    30  O    4.261770   3.185204   3.735807   3.176815   4.169008
                   16         17         18         19         20
    16  C    0.000000
    17  H    1.099163   0.000000
    18  C    1.535250   2.142807   0.000000
    19  H    2.180767   3.065128   1.095540   0.000000
    20  H    2.184091   2.494669   1.093926   1.767055   0.000000
    21  H    2.186742   2.491502   1.094138   1.767898   1.768177
    22  C    5.796047   6.099119   7.058581   7.100630   7.932897
    23  H    6.825518   7.062516   8.124176   8.187315   8.979522
    24  H    5.362305   5.707604   6.684856   6.713612   7.473743
    25  C    1.535648   2.145923   2.523951   2.799890   2.759502
    26  H    2.179524   2.501784   2.741607   3.109269   2.523514
    27  H    2.179537   3.066257   2.808396   2.639981   3.146722
    28  H    2.195850   2.495466   3.489881   3.822299   3.757271
    29  O    6.113173   6.607292   7.162655   7.012522   8.120969
    30  O    5.070990   5.722311   5.966837   5.708479   6.944439
                   21         22         23         24         25
    21  H    0.000000
    22  C    7.351219   0.000000
    23  H    8.409618   1.092796   0.000000
    24  H    7.128490   1.094755   1.789361   0.000000
    25  C    3.485992   5.840600   6.818279   5.148640   0.000000
    26  H    3.748425   6.871779   7.818987   6.137055   1.093877
    27  H    3.819346   5.812379   6.810859   5.088842   1.095582
    28  H    4.346502   5.229058   6.125086   4.451379   1.092817
    29  O    7.410301   1.421397   2.007516   2.063667   6.234457
    30  O    6.244808   2.286377   3.208491   2.469863   5.235248
                   26         27         28         29         30
    26  H    0.000000
    27  H    1.767485   0.000000
    28  H    1.762444   1.767815   0.000000
    29  O    7.312449   5.996114   5.824190   0.000000
    30  O    6.321266   4.883050   5.025582   1.415840   0.000000
 Stoichiometry    C9H19O2(2)
 Framework group  C1[X(C9H19O2)]
 Deg. of freedom    84
 Full point group                 C1      NOp   1
 Largest Abelian subgroup         C1      NOp   1
 Largest concise Abelian subgroup C1      NOp   1
                         Standard orientation:                         
 ---------------------------------------------------------------------
 Center     Atomic      Atomic             Coordinates (Angstroms)
 Number     Number       Type             X           Y           Z
 ---------------------------------------------------------------------
      1          6           0       -3.200963   -1.596732   -0.146023
      2          1           0       -2.858204   -2.621280   -0.312449
      3          1           0       -3.476229   -1.168750   -1.113047
      4          1           0       -4.102776   -1.640572    0.471381
      5          6           0       -2.108207   -0.756792    0.527870
      6          1           0       -1.873947   -1.188508    1.512820
      7          6           0       -0.830553   -0.701131   -0.294959
      8          1           0       -0.812905   -1.379109   -1.151030
      9          1           0       -1.030613    0.518555   -0.885142
     10          6           0        0.490375   -0.575715    0.429101
     11          1           0        0.671341   -1.509610    0.986705
     12          1           0        0.415602    0.213269    1.185621
     13          6           0        1.680275   -0.311751   -0.503855
     14          1           0        1.536126    0.651367   -1.010077
     15          1           0        1.678446   -1.074422   -1.292575
     16          6           0        3.060468   -0.317705    0.179906
     17          1           0        3.162766   -1.273037    0.713793
     18          6           0        4.177655   -0.248042   -0.870823
     19          1           0        4.119840    0.685811   -1.440721
     20          1           0        5.165326   -0.289505   -0.402357
     21          1           0        4.109508   -1.076369   -1.582418
     22          6           0       -2.612750    0.684589    0.815644
     23          1           0       -3.603022    0.672561    1.277617
     24          1           0       -1.912345    1.230929    1.455515
     25          6           0        3.213379    0.815248    1.205211
     26          1           0        4.205417    0.792387    1.665542
     27          1           0        3.092358    1.792392    0.724749
     28          1           0        2.477640    0.746130    2.010295
     29          8           0       -2.781250    1.384417   -0.410006
     30          8           0       -1.491550    1.611326   -0.948326
 ---------------------------------------------------------------------
 Rotational constants (GHZ):      1.9944411      0.4331529      0.4067287
 Leave Link  202 at Sat Feb 15 14:27:11 2014, MaxMem= 4026531840 cpu:       0.3
 (Enter /usr/caen/gaussian-09revc/g09/l301.exe)
 Standard basis: 6-311++G(d,p) (5D, 7F)
 Ernie: Thresh=  0.10000D-02 Tol=  0.10000D-05 Strict=F.
 There are   375 symmetry adapted basis functions of A   symmetry.
 Integral buffers will be    131072 words long.
 Raffenetti 2 integral format.
 Two-electron integral symmetry is turned on.
   375 basis functions,   567 primitive gaussians,   386 cartesian basis functions
    45 alpha electrons       44 beta electrons
       nuclear repulsion energy       658.4041183582 Hartrees.
 IExCor=  402 DFT=T Ex+Corr=B3LYP ExCW=0 ScaHFX=  0.200000
 ScaDFX=  0.800000  0.720000  1.000000  0.810000 ScalE2=  1.000000  1.000000
 IRadAn=      0 IRanWt=     -1 IRanGd=            0 ICorTp=0
 NAtoms=   30 NActive=   30 NUniq=   30 SFac= 1.00D+00 NAtFMM=   60 NAOKFM=F Big=F
 Leave Link  301 at Sat Feb 15 14:27:11 2014, MaxMem= 4026531840 cpu:       0.6
 (Enter /usr/caen/gaussian-09revc/g09/l302.exe)
 NPDir=0 NMtPBC=     1 NCelOv=     1 NCel=       1 NClECP=     1 NCelD=      1
         NCelK=      1 NCelE2=     1 NClLst=     1 CellRange=     0.0.
 One-electron integrals computed using PRISM.
 NBasis=   375 RedAO= T  NBF=   375
 NBsUse=   375 1.00D-06 NBFU=   375
 Precomputing XC quadrature grid using
 IXCGrd= 2 IRadAn=           0 IRanWt=          -1 IRanGd=           0 AccXCQ= 0.00D+00.
 NRdTot=    1960 NPtTot=      249976 NUsed=      264099 NTot=      264131
 NSgBfM=   386   386   386   386   386 NAtAll=    30    30.
 Leave Link  302 at Sat Feb 15 14:27:12 2014, MaxMem= 4026531840 cpu:       4.5
 (Enter /usr/caen/gaussian-09revc/g09/l303.exe)
 DipDrv:  MaxL=1.
 Leave Link  303 at Sat Feb 15 14:27:13 2014, MaxMem= 4026531840 cpu:       1.5
 (Enter /usr/caen/gaussian-09revc/g09/l401.exe)
 Harris functional with IExCor=  402 diagonalized for initial guess.
 ExpMin= 3.60D-02 ExpMax= 8.59D+03 ExpMxC= 1.30D+03 IAcc=3 IRadAn=         5 AccDes= 0.00D+00
 HarFok:  IExCor=  402 AccDes= 0.00D+00 IRadAn=         5 IDoV= 1
 ScaDFX=  1.000000  1.000000  1.000000  1.000000
 FoFCou: FMM=F IPFlag=           0 FMFlag=      100000 FMFlg1=           0
         NFxFlg=           0 DoJE=T BraDBF=F KetDBF=T FulRan=T
         Omega=  0.000000  0.000000  1.000000  0.000000  0.000000 ICntrl=     500 IOpCl=  0
         NMat0=    1 NMatS0=    1 NMatT0=    0 NMatD0=    1 NMtDS0=    0 NMtDT0=    0
         I1Cent=           4 NGrid=           0.
 Petite list used in FoFCou.
 Harris En= -504.893894876451    
 Mixing orbitals, IMix= 1 IMixAn=  0 NRI=1 NE=   45 Coef=  7.07106781D-01  7.07106781D-01
 Mixing orbitals, IMix= 1 IMixAn=  0 NRI=1 NE=   44 Coef= -7.07106781D-01  7.07106781D-01
 Initial guess orbital symmetries:
 Alpha Orbitals:
       Occupied  (A) (A) (A) (A) (A) (A) (A) (A) (A) (A) (A) (A)
                 (A) (A) (A) (A) (A) (A) (A) (A) (A) (A) (A) (A)
                 (A) (A) (A) (A) (A) (A) (A) (A) (A) (A) (A) (A)
                 (A) (A) (A) (A) (A) (A) (A) (A) (A)
       Virtual   (A) (A) (A) (A) (A) (A) (A) (A) (A) (A) (A) (A)
                 (A) (A) (A) (A) (A) (A) (A) (A) (A) (A) (A) (A)
                 (A) (A) (A) (A) (A) (A) (A) (A) (A) (A) (A) (A)
                 (A) (A) (A) (A) (A) (A) (A) (A) (A) (A) (A) (A)
                 (A) (A) (A) (A) (A) (A) (A) (A) (A) (A) (A) (A)
                 (A) (A) (A) (A) (A) (A) (A) (A) (A) (A) (A) (A)
                 (A) (A) (A) (A) (A) (A) (A) (A) (A) (A) (A) (A)
                 (A) (A) (A) (A) (A) (A) (A) (A) (A) (A) (A) (A)
                 (A) (A) (A) (A) (A) (A) (A) (A) (A) (A) (A) (A)
                 (A) (A) (A) (A) (A) (A) (A) (A) (A) (A) (A) (A)
                 (A) (A) (A) (A) (A) (A) (A) (A) (A) (A) (A) (A)
                 (A) (A) (A) (A) (A) (A) (A) (A) (A) (A) (A) (A)
                 (A) (A) (A) (A) (A) (A) (A) (A) (A) (A) (A) (A)
                 (A) (A) (A) (A) (A) (A) (A) (A) (A) (A) (A) (A)
                 (A) (A) (A) (A) (A) (A) (A) (A) (A) (A) (A) (A)
                 (A) (A) (A) (A) (A) (A) (A) (A) (A) (A) (A) (A)
                 (A) (A) (A) (A) (A) (A) (A) (A) (A) (A) (A) (A)
                 (A) (A) (A) (A) (A) (A) (A) (A) (A) (A) (A) (A)
                 (A) (A) (A) (A) (A) (A) (A) (A) (A) (A) (A) (A)
                 (A) (A) (A) (A) (A) (A) (A) (A) (A) (A) (A) (A)
                 (A) (A) (A) (A) (A) (A) (A) (A) (A) (A) (A) (A)
                 (A) (A) (A) (A) (A) (A) (A) (A) (A) (A) (A) (A)
                 (A) (A) (A) (A) (A) (A) (A) (A) (A) (A) (A) (A)
                 (A) (A) (A) (A) (A) (A) (A) (A) (A) (A) (A) (A)
                 (A) (A) (A) (A) (A) (A) (A) (A) (A) (A) (A) (A)
                 (A) (A) (A) (A) (A) (A) (A) (A) (A) (A) (A) (A)
                 (A) (A) (A) (A) (A) (A) (A) (A) (A) (A) (A) (A)
                 (A) (A) (A) (A) (A) (A)
 Beta  Orbitals:
       Occupied  (A) (A) (A) (A) (A) (A) (A) (A) (A) (A) (A) (A)
                 (A) (A) (A) (A) (A) (A) (A) (A) (A) (A) (A) (A)
                 (A) (A) (A) (A) (A) (A) (A) (A) (A) (A) (A) (A)
                 (A) (A) (A) (A) (A) (A) (A) (A)
       Virtual   (A) (A) (A) (A) (A) (A) (A) (A) (A) (A) (A) (A)
                 (A) (A) (A) (A) (A) (A) (A) (A) (A) (A) (A) (A)
                 (A) (A) (A) (A) (A) (A) (A) (A) (A) (A) (A) (A)
                 (A) (A) (A) (A) (A) (A) (A) (A) (A) (A) (A) (A)
                 (A) (A) (A) (A) (A) (A) (A) (A) (A) (A) (A) (A)
                 (A) (A) (A) (A) (A) (A) (A) (A) (A) (A) (A) (A)
                 (A) (A) (A) (A) (A) (A) (A) (A) (A) (A) (A) (A)
                 (A) (A) (A) (A) (A) (A) (A) (A) (A) (A) (A) (A)
                 (A) (A) (A) (A) (A) (A) (A) (A) (A) (A) (A) (A)
                 (A) (A) (A) (A) (A) (A) (A) (A) (A) (A) (A) (A)
                 (A) (A) (A) (A) (A) (A) (A) (A) (A) (A) (A) (A)
                 (A) (A) (A) (A) (A) (A) (A) (A) (A) (A) (A) (A)
                 (A) (A) (A) (A) (A) (A) (A) (A) (A) (A) (A) (A)
                 (A) (A) (A) (A) (A) (A) (A) (A) (A) (A) (A) (A)
                 (A) (A) (A) (A) (A) (A) (A) (A) (A) (A) (A) (A)
                 (A) (A) (A) (A) (A) (A) (A) (A) (A) (A) (A) (A)
                 (A) (A) (A) (A) (A) (A) (A) (A) (A) (A) (A) (A)
                 (A) (A) (A) (A) (A) (A) (A) (A) (A) (A) (A) (A)
                 (A) (A) (A) (A) (A) (A) (A) (A) (A) (A) (A) (A)
                 (A) (A) (A) (A) (A) (A) (A) (A) (A) (A) (A) (A)
                 (A) (A) (A) (A) (A) (A) (A) (A) (A) (A) (A) (A)
                 (A) (A) (A) (A) (A) (A) (A) (A) (A) (A) (A) (A)
                 (A) (A) (A) (A) (A) (A) (A) (A) (A) (A) (A) (A)
                 (A) (A) (A) (A) (A) (A) (A) (A) (A) (A) (A) (A)
                 (A) (A) (A) (A) (A) (A) (A) (A) (A) (A) (A) (A)
                 (A) (A) (A) (A) (A) (A) (A) (A) (A) (A) (A) (A)
                 (A) (A) (A) (A) (A) (A) (A) (A) (A) (A) (A) (A)
                 (A) (A) (A) (A) (A) (A) (A)
 The electronic state of the initial guess is 2-A.
 Initial guess <Sx>= 0.0000 <Sy>= 0.0000 <Sz>= 0.5000 <S**2>= 1.0000 S= 0.6180
 Leave Link  401 at Sat Feb 15 14:27:17 2014, MaxMem= 4026531840 cpu:      28.7
 (Enter /usr/caen/gaussian-09revc/g09/l502.exe)
 UHF open shell SCF:
 Requested convergence on RMS density matrix=1.00D-08 within 128 cycles.
 Requested convergence on MAX density matrix=1.00D-06.
 Requested convergence on             energy=1.00D-06.
 No special actions if energy rises.
 Using DIIS extrapolation, IDIIS=  1040.
 Integral symmetry usage will be decided dynamically.
       263816 words used for storage of precomputed grid.
 IEnd=      734950 IEndB=      734950 NGot=  4026531840 MDV=  4025962913
 LenX=  4025962913 LenY=  4025813476
 Fock matrices will be formed incrementally for  20 cycles.

 Cycle   1  Pass 1  IDiag  1:
 FoFCou: FMM=F IPFlag=           0 FMFlag=      100000 FMFlg1=           0
         NFxFlg=           0 DoJE=F BraDBF=F KetDBF=F FulRan=T
         Omega=  0.000000  0.000000  1.000000  0.000000  0.000000 ICntrl=       0 IOpCl=  1
         NMat0=    1 NMatS0=    1 NMatT0=    0 NMatD0=    1 NMtDS0=    0 NMtDT0=    0
         I1Cent=           0 NGrid=           0.
 Symmetry not used in FoFCou.
 E= -504.303946015306    
 DIIS: error= 3.74D-02 at cycle   1 NSaved=   1.
 NSaved= 1 IEnMin= 1 EnMin= -504.303946015306     IErMin= 1 ErrMin= 3.74D-02
 ErrMax= 3.74D-02 EMaxC= 1.00D-01 BMatC= 1.62D+00 BMatP= 1.62D+00
 IDIUse=3 WtCom= 6.26D-01 WtEn= 3.74D-01
 Coeff-Com:  0.100D+01
 Coeff-En:   0.100D+01
 Coeff:      0.100D+01
 Gap=     0.044 Goal=   None    Shift=    0.000
 Gap=    -0.070 Goal=   None    Shift=    0.000
 GapD=   -0.070 DampG=0.250 DampE=0.500 DampFc=0.2500 IDamp=-1.
 Damping current iteration by 2.50D-01
 RMSDP=1.61D-02 MaxDP=1.95D+00              OVMax= 4.84D-01

 Cycle   2  Pass 1  IDiag  1:
 RMSU=  1.95D-03    CP:  8.98D-01
 E= -504.445774232012     Delta-E=       -0.141828216706 Rises=F Damp=T
 DIIS: error= 1.60D-02 at cycle   2 NSaved=   2.
 NSaved= 2 IEnMin= 2 EnMin= -504.445774232012     IErMin= 2 ErrMin= 1.60D-02
 ErrMax= 1.60D-02 EMaxC= 1.00D-01 BMatC= 3.88D-01 BMatP= 1.62D+00
 IDIUse=3 WtCom= 8.40D-01 WtEn= 1.60D-01
 Coeff-Com: -0.460D+00 0.146D+01
 Coeff-En:   0.000D+00 0.100D+01
 Coeff:     -0.386D+00 0.139D+01
 Gap=    -0.084 Goal=   None    Shift=    0.000
 Gap=     0.146 Goal=   None    Shift=    0.000
 RMSDP=1.06D-02 MaxDP=1.19D+00 DE=-1.42D-01 OVMax= 7.14D-01

 Cycle   3  Pass 1  IDiag  1:
 RMSU=  8.25D-03    CP:  8.08D-01  8.19D-01
 E= -504.624166089927     Delta-E=       -0.178391857916 Rises=F Damp=F
 DIIS: error= 2.68D-02 at cycle   3 NSaved=   3.
 NSaved= 3 IEnMin= 3 EnMin= -504.624166089927     IErMin= 2 ErrMin= 1.60D-02
 ErrMax= 2.68D-02 EMaxC= 1.00D-01 BMatC= 7.58D-01 BMatP= 3.88D-01
 IDIUse=2 WtCom= 0.00D+00 WtEn= 1.00D+00
 Coeff-En:   0.000D+00 0.404D-01 0.960D+00
 Coeff:      0.000D+00 0.404D-01 0.960D+00
 Gap=     0.282 Goal=   None    Shift=    0.000
 Gap=     0.017 Goal=   None    Shift=    0.000
 RMSDP=1.21D-02 MaxDP=1.38D+00 DE=-1.78D-01 OVMax= 9.78D-01

 Cycle   4  Pass 1  IDiag  1:
 RMSU=  6.04D-03    CP:  8.16D-01  1.83D+00  8.90D-02
 E= -503.248217186059     Delta-E=        1.375948903868 Rises=F Damp=F
 DIIS: error= 4.79D-02 at cycle   4 NSaved=   4.
 NSaved= 4 IEnMin= 3 EnMin= -504.624166089927     IErMin= 2 ErrMin= 1.60D-02
 ErrMax= 4.79D-02 EMaxC= 1.00D-01 BMatC= 5.75D+00 BMatP= 3.88D-01
 IDIUse=2 WtCom= 0.00D+00 WtEn= 1.00D+00
 Coeff-En:   0.000D+00 0.000D+00 0.837D+00 0.163D+00
 Coeff:      0.000D+00 0.000D+00 0.837D+00 0.163D+00
 Gap=    -0.101 Goal=   None    Shift=    0.000
 Gap=     0.287 Goal=   None    Shift=    0.000
 RMSDP=7.11D-03 MaxDP=5.03D-01 DE= 1.38D+00 OVMax= 9.84D-01

 Cycle   5  Pass 1  IDiag  1:
 RMSU=  3.57D-03    CP:  7.45D-01  9.86D-01  4.06D-01  4.90D-01
 E= -504.724114247210     Delta-E=       -1.475897061152 Rises=F Damp=F
 DIIS: error= 2.15D-02 at cycle   5 NSaved=   5.
 NSaved= 5 IEnMin= 5 EnMin= -504.724114247210     IErMin= 2 ErrMin= 1.60D-02
 ErrMax= 2.15D-02 EMaxC= 1.00D-01 BMatC= 5.05D-01 BMatP= 3.88D-01
 IDIUse=2 WtCom= 0.00D+00 WtEn= 1.00D+00
 Coeff-En:   0.000D+00 0.000D+00 0.372D+00 0.000D+00 0.628D+00
 Coeff:      0.000D+00 0.000D+00 0.372D+00 0.000D+00 0.628D+00
 Gap=     0.272 Goal=   None    Shift=    0.000
 Gap=     0.093 Goal=   None    Shift=    0.000
 RMSDP=3.63D-03 MaxDP=3.36D-01 DE=-1.48D+00 OVMax= 2.14D-01

 Cycle   6  Pass 1  IDiag  1:
 RMSU=  1.35D-03    CP:  7.20D-01  8.80D-01  6.08D-01  2.51D-01  6.77D-01
 E= -504.822731714562     Delta-E=       -0.098617467352 Rises=F Damp=F
 DIIS: error= 8.49D-03 at cycle   6 NSaved=   6.
 NSaved= 6 IEnMin= 6 EnMin= -504.822731714562     IErMin= 6 ErrMin= 8.49D-03
 ErrMax= 8.49D-03 EMaxC= 1.00D-01 BMatC= 6.24D-02 BMatP= 3.88D-01
 IDIUse=3 WtCom= 9.15D-01 WtEn= 8.49D-02
 Coeff-Com: -0.761D-01 0.151D+00 0.149D+00-0.294D-01 0.345D+00 0.460D+00
 Coeff-En:   0.000D+00 0.000D+00 0.000D+00 0.000D+00 0.977D-01 0.902D+00
 Coeff:     -0.696D-01 0.138D+00 0.137D+00-0.269D-01 0.324D+00 0.497D+00
 Gap=     0.202 Goal=   None    Shift=    0.000
 Gap=     0.120 Goal=   None    Shift=    0.000
 RMSDP=1.35D-03 MaxDP=2.14D-01 DE=-9.86D-02 OVMax= 1.21D-01

 Cycle   7  Pass 1  IDiag  1:
 RMSU=  5.52D-04    CP:  7.41D-01  9.25D-01  5.93D-01  3.09D-01  7.48D-01
                    CP:  6.80D-01
 E= -504.833527187415     Delta-E=       -0.010795472853 Rises=F Damp=F
 DIIS: error= 5.96D-03 at cycle   7 NSaved=   7.
 NSaved= 7 IEnMin= 7 EnMin= -504.833527187415     IErMin= 7 ErrMin= 5.96D-03
 ErrMax= 5.96D-03 EMaxC= 1.00D-01 BMatC= 2.07D-02 BMatP= 6.24D-02
 IDIUse=3 WtCom= 9.40D-01 WtEn= 5.96D-02
 Coeff-Com:  0.212D-02-0.725D-03-0.276D-01 0.288D-02-0.457D-02 0.410D+00
 Coeff-Com:  0.618D+00
 Coeff-En:   0.000D+00 0.000D+00 0.000D+00 0.000D+00 0.000D+00 0.222D+00
 Coeff-En:   0.778D+00
 Coeff:      0.199D-02-0.682D-03-0.260D-01 0.271D-02-0.430D-02 0.399D+00
 Coeff:      0.628D+00
 Gap=     0.208 Goal=   None    Shift=    0.000
 Gap=     0.135 Goal=   None    Shift=    0.000
 RMSDP=6.97D-04 MaxDP=1.10D-01 DE=-1.08D-02 OVMax= 2.88D-02

 Cycle   8  Pass 1  IDiag  1:
 RMSU=  2.31D-04    CP:  7.31D-01  8.65D-01  5.94D-01  2.91D-01  7.19D-01
                    CP:  9.31D-01  9.47D-01
 E= -504.838085908337     Delta-E=       -0.004558720922 Rises=F Damp=F
 DIIS: error= 8.71D-04 at cycle   8 NSaved=   8.
 NSaved= 8 IEnMin= 8 EnMin= -504.838085908337     IErMin= 8 ErrMin= 8.71D-04
 ErrMax= 8.71D-04 EMaxC= 1.00D-01 BMatC= 6.05D-04 BMatP= 2.07D-02
 IDIUse=3 WtCom= 9.91D-01 WtEn= 8.71D-03
 Coeff-Com:  0.665D-02-0.393D-02-0.158D-01 0.503D-02-0.550D-01 0.780D-02
 Coeff-Com:  0.146D+00 0.909D+00
 Coeff-En:   0.000D+00 0.000D+00 0.000D+00 0.000D+00 0.000D+00 0.000D+00
 Coeff-En:   0.000D+00 0.100D+01
 Coeff:      0.660D-02-0.390D-02-0.157D-01 0.498D-02-0.545D-01 0.773D-02
 Coeff:      0.145D+00 0.910D+00
 Gap=     0.211 Goal=   None    Shift=    0.000
 Gap=     0.138 Goal=   None    Shift=    0.000
 RMSDP=3.43D-04 MaxDP=3.98D-02 DE=-4.56D-03 OVMax= 3.39D-02

 Cycle   9  Pass 1  IDiag  1:
 RMSU=  1.44D-04    CP:  7.26D-01  8.65D-01  5.79D-01  2.89D-01  7.33D-01
                    CP:  9.75D-01  9.77D-01  1.26D+00
 E= -504.838550143545     Delta-E=       -0.000464235208 Rises=F Damp=F
 DIIS: error= 4.59D-04 at cycle   9 NSaved=   9.
 NSaved= 9 IEnMin= 9 EnMin= -504.838550143545     IErMin= 9 ErrMin= 4.59D-04
 ErrMax= 4.59D-04 EMaxC= 1.00D-01 BMatC= 2.48D-04 BMatP= 6.05D-04
 IDIUse=3 WtCom= 9.95D-01 WtEn= 4.59D-03
 Coeff-Com:  0.266D-02-0.954D-03 0.331D-02 0.381D-03-0.143D-01-0.950D-01
 Coeff-Com: -0.108D+00 0.444D+00 0.768D+00
 Coeff-En:   0.000D+00 0.000D+00 0.000D+00 0.000D+00 0.000D+00 0.000D+00
 Coeff-En:   0.000D+00 0.000D+00 0.100D+01
 Coeff:      0.265D-02-0.950D-03 0.329D-02 0.379D-03-0.142D-01-0.946D-01
 Coeff:     -0.107D+00 0.442D+00 0.769D+00
 Gap=     0.210 Goal=   None    Shift=    0.000
 Gap=     0.140 Goal=   None    Shift=    0.000
 RMSDP=1.54D-04 MaxDP=2.16D-02 DE=-4.64D-04 OVMax= 2.39D-02

 Cycle  10  Pass 1  IDiag  1:
 RMSU=  5.15D-05    CP:  7.24D-01  8.58D-01  5.74D-01  2.92D-01  7.38D-01
                    CP:  9.89D-01  1.05D+00  1.51D+00  1.08D+00
 E= -504.838714633325     Delta-E=       -0.000164489780 Rises=F Damp=F
 DIIS: error= 2.43D-04 at cycle  10 NSaved=  10.
 NSaved=10 IEnMin=10 EnMin= -504.838714633325     IErMin=10 ErrMin= 2.43D-04
 ErrMax= 2.43D-04 EMaxC= 1.00D-01 BMatC= 5.76D-05 BMatP= 2.48D-04
 IDIUse=3 WtCom= 9.98D-01 WtEn= 2.43D-03
 Coeff-Com:  0.634D-03 0.562D-03 0.466D-02-0.850D-04-0.328D-02-0.304D-01
 Coeff-Com: -0.494D-01-0.176D-01 0.217D+00 0.878D+00
 Coeff-En:   0.000D+00 0.000D+00 0.000D+00 0.000D+00 0.000D+00 0.000D+00
 Coeff-En:   0.000D+00 0.000D+00 0.000D+00 0.100D+01
 Coeff:      0.633D-03 0.561D-03 0.464D-02-0.847D-04-0.327D-02-0.303D-01
 Coeff:     -0.493D-01-0.176D-01 0.217D+00 0.878D+00
 Gap=     0.210 Goal=   None    Shift=    0.000
 Gap=     0.140 Goal=   None    Shift=    0.000
 RMSDP=9.71D-05 MaxDP=1.04D-02 DE=-1.64D-04 OVMax= 1.00D-02

 Cycle  11  Pass 1  IDiag  1:
 RMSU=  2.92D-05    CP:  7.24D-01  8.56D-01  5.78D-01  2.89D-01  7.33D-01
                    CP:  1.00D+00  1.10D+00  1.62D+00  1.22D+00  1.07D+00
 E= -504.838752293425     Delta-E=       -0.000037660100 Rises=F Damp=F
 DIIS: error= 9.37D-05 at cycle  11 NSaved=  11.
 NSaved=11 IEnMin=11 EnMin= -504.838752293425     IErMin=11 ErrMin= 9.37D-05
 ErrMax= 9.37D-05 EMaxC= 1.00D-01 BMatC= 1.09D-05 BMatP= 5.76D-05
 IDIUse=1 WtCom= 1.00D+00 WtEn= 0.00D+00
 Coeff-Com: -0.295D-03 0.724D-03 0.119D-02 0.336D-04-0.115D-02 0.841D-02
 Coeff-Com:  0.710D-02-0.990D-01-0.828D-01 0.295D+00 0.871D+00
 Coeff:     -0.295D-03 0.724D-03 0.119D-02 0.336D-04-0.115D-02 0.841D-02
 Coeff:      0.710D-02-0.990D-01-0.828D-01 0.295D+00 0.871D+00
 Gap=     0.210 Goal=   None    Shift=    0.000
 Gap=     0.140 Goal=   None    Shift=    0.000
 RMSDP=3.85D-05 MaxDP=3.92D-03 DE=-3.77D-05 OVMax= 5.34D-03

 Cycle  12  Pass 1  IDiag  1:
 RMSU=  1.01D-05    CP:  7.24D-01  8.54D-01  5.78D-01  2.89D-01  7.32D-01
                    CP:  1.01D+00  1.12D+00  1.67D+00  1.28D+00  1.29D+00
                    CP:  1.04D+00
 E= -504.838759973374     Delta-E=       -0.000007679949 Rises=F Damp=F
 DIIS: error= 3.12D-05 at cycle  12 NSaved=  12.
 NSaved=12 IEnMin=12 EnMin= -504.838759973374     IErMin=12 ErrMin= 3.12D-05
 ErrMax= 3.12D-05 EMaxC= 1.00D-01 BMatC= 1.78D-06 BMatP= 1.09D-05
 IDIUse=1 WtCom= 1.00D+00 WtEn= 0.00D+00
 Coeff-Com: -0.499D-03 0.651D-03-0.255D-03-0.990D-05 0.487D-03 0.913D-02
 Coeff-Com:  0.110D-01-0.370D-01-0.725D-01-0.682D-01 0.373D+00 0.784D+00
 Coeff:     -0.499D-03 0.651D-03-0.255D-03-0.990D-05 0.487D-03 0.913D-02
 Coeff:      0.110D-01-0.370D-01-0.725D-01-0.682D-01 0.373D+00 0.784D+00
 Gap=     0.210 Goal=   None    Shift=    0.000
 Gap=     0.140 Goal=   None    Shift=    0.000
 RMSDP=1.90D-05 MaxDP=2.38D-03 DE=-7.68D-06 OVMax= 2.12D-03

 Cycle  13  Pass 1  IDiag  1:
 RMSU=  4.70D-06    CP:  7.24D-01  8.54D-01  5.77D-01  2.89D-01  7.32D-01
                    CP:  1.01D+00  1.12D+00  1.69D+00  1.32D+00  1.37D+00
                    CP:  1.12D+00  1.00D+00
 E= -504.838761110654     Delta-E=       -0.000001137279 Rises=F Damp=F
 DIIS: error= 9.02D-06 at cycle  13 NSaved=  13.
 NSaved=13 IEnMin=13 EnMin= -504.838761110654     IErMin=13 ErrMin= 9.02D-06
 ErrMax= 9.02D-06 EMaxC= 1.00D-01 BMatC= 2.53D-07 BMatP= 1.78D-06
 IDIUse=1 WtCom= 1.00D+00 WtEn= 0.00D+00
 Coeff-Com: -0.382D-04-0.877D-04-0.195D-03 0.105D-05 0.754D-03 0.211D-02
 Coeff-Com:  0.201D-02 0.816D-03-0.121D-01-0.665D-01 0.919D-02 0.291D+00
 Coeff-Com:  0.773D+00
 Coeff:     -0.382D-04-0.877D-04-0.195D-03 0.105D-05 0.754D-03 0.211D-02
 Coeff:      0.201D-02 0.816D-03-0.121D-01-0.665D-01 0.919D-02 0.291D+00
 Coeff:      0.773D+00
 Gap=     0.210 Goal=   None    Shift=    0.000
 Gap=     0.140 Goal=   None    Shift=    0.000
 RMSDP=5.44D-06 MaxDP=4.56D-04 DE=-1.14D-06 OVMax= 6.02D-04

 Cycle  14  Pass 1  IDiag  1:
 RMSU=  1.81D-06    CP:  7.24D-01  8.54D-01  5.77D-01  2.89D-01  7.32D-01
                    CP:  1.01D+00  1.12D+00  1.69D+00  1.33D+00  1.38D+00
                    CP:  1.18D+00  9.88D-01  9.94D-01
 E= -504.838761232708     Delta-E=       -0.000000122054 Rises=F Damp=F
 DIIS: error= 3.71D-06 at cycle  14 NSaved=  14.
 NSaved=14 IEnMin=14 EnMin= -504.838761232708     IErMin=14 ErrMin= 3.71D-06
 ErrMax= 3.71D-06 EMaxC= 1.00D-01 BMatC= 2.53D-08 BMatP= 2.53D-07
 IDIUse=1 WtCom= 1.00D+00 WtEn= 0.00D+00
 Coeff-Com:  0.529D-04-0.662D-04-0.254D-04 0.425D-05 0.361D-04-0.348D-03
 Coeff-Com:  0.139D-03 0.506D-02 0.283D-02-0.140D-01-0.433D-01-0.137D-01
 Coeff-Com:  0.207D+00 0.857D+00
 Coeff:      0.529D-04-0.662D-04-0.254D-04 0.425D-05 0.361D-04-0.348D-03
 Coeff:      0.139D-03 0.506D-02 0.283D-02-0.140D-01-0.433D-01-0.137D-01
 Coeff:      0.207D+00 0.857D+00
 Gap=     0.210 Goal=   None    Shift=    0.000
 Gap=     0.140 Goal=   None    Shift=    0.000
 RMSDP=1.75D-06 MaxDP=1.85D-04 DE=-1.22D-07 OVMax= 1.57D-04

 Cycle  15  Pass 1  IDiag  1:
 RMSU=  4.64D-07    CP:  7.24D-01  8.54D-01  5.77D-01  2.89D-01  7.32D-01
                    CP:  1.01D+00  1.13D+00  1.69D+00  1.33D+00  1.39D+00
                    CP:  1.18D+00  1.03D+00  1.07D+00  9.28D-01
 E= -504.838761245829     Delta-E=       -0.000000013121 Rises=F Damp=F
 DIIS: error= 1.25D-06 at cycle  15 NSaved=  15.
 NSaved=15 IEnMin=15 EnMin= -504.838761245829     IErMin=15 ErrMin= 1.25D-06
 ErrMax= 1.25D-06 EMaxC= 1.00D-01 BMatC= 3.24D-09 BMatP= 2.53D-08
 IDIUse=1 WtCom= 1.00D+00 WtEn= 0.00D+00
 Coeff-Com:  0.253D-04-0.184D-04 0.597D-05-0.323D-06-0.809D-04-0.321D-03
 Coeff-Com: -0.952D-05 0.194D-02 0.181D-02-0.612D-03-0.169D-01-0.279D-01
 Coeff-Com:  0.106D-01 0.298D+00 0.734D+00
 Coeff:      0.253D-04-0.184D-04 0.597D-05-0.323D-06-0.809D-04-0.321D-03
 Coeff:     -0.952D-05 0.194D-02 0.181D-02-0.612D-03-0.169D-01-0.279D-01
 Coeff:      0.106D-01 0.298D+00 0.734D+00
 Gap=     0.210 Goal=   None    Shift=    0.000
 Gap=     0.140 Goal=   None    Shift=    0.000
 RMSDP=4.31D-07 MaxDP=3.81D-05 DE=-1.31D-08 OVMax= 4.30D-05

 Cycle  16  Pass 1  IDiag  1:
 RMSU=  1.97D-07    CP:  7.24D-01  8.54D-01  5.77D-01  2.89D-01  7.32D-01
                    CP:  1.01D+00  1.13D+00  1.70D+00  1.33D+00  1.39D+00
                    CP:  1.18D+00  1.04D+00  1.08D+00  9.72D-01  8.52D-01
 E= -504.838761246909     Delta-E=       -0.000000001080 Rises=F Damp=F
 DIIS: error= 5.04D-07 at cycle  16 NSaved=  16.
 NSaved=16 IEnMin=16 EnMin= -504.838761246909     IErMin=16 ErrMin= 5.04D-07
 ErrMax= 5.04D-07 EMaxC= 1.00D-01 BMatC= 4.64D-10 BMatP= 3.24D-09
 IDIUse=1 WtCom= 1.00D+00 WtEn= 0.00D+00
 Coeff-Com:  0.583D-05-0.316D-05 0.468D-05 0.540D-06-0.424D-04-0.100D-03
 Coeff-Com: -0.525D-04 0.232D-03 0.537D-03 0.110D-02-0.270D-02-0.912D-02
 Coeff-Com: -0.146D-01 0.164D-01 0.286D+00 0.722D+00
 Coeff:      0.583D-05-0.316D-05 0.468D-05 0.540D-06-0.424D-04-0.100D-03
 Coeff:     -0.525D-04 0.232D-03 0.537D-03 0.110D-02-0.270D-02-0.912D-02
 Coeff:     -0.146D-01 0.164D-01 0.286D+00 0.722D+00
 Gap=     0.210 Goal=   None    Shift=    0.000
 Gap=     0.140 Goal=   None    Shift=    0.000
 RMSDP=1.69D-07 MaxDP=1.79D-05 DE=-1.08D-09 OVMax= 1.36D-05

 Cycle  17  Pass 1  IDiag  1:
 RMSU=  5.90D-08    CP:  7.24D-01  8.54D-01  5.77D-01  2.89D-01  7.32D-01
                    CP:  1.01D+00  1.13D+00  1.70D+00  1.33D+00  1.39D+00
                    CP:  1.18D+00  1.03D+00  1.08D+00  9.73D-01  8.92D-01
                    CP:  9.15D-01
 E= -504.838761247065     Delta-E=       -0.000000000156 Rises=F Damp=F
 DIIS: error= 1.73D-07 at cycle  17 NSaved=  17.
 NSaved=17 IEnMin=17 EnMin= -504.838761247065     IErMin=17 ErrMin= 1.73D-07
 ErrMax= 1.73D-07 EMaxC= 1.00D-01 BMatC= 5.42D-11 BMatP= 4.64D-10
 IDIUse=1 WtCom= 1.00D+00 WtEn= 0.00D+00
 Coeff-Com: -0.376D-05 0.459D-05 0.228D-05-0.448D-06 0.246D-05 0.920D-05
 Coeff-Com: -0.442D-04-0.236D-03 0.143D-06 0.641D-03 0.148D-02 0.874D-03
 Coeff-Com: -0.664D-02-0.446D-01-0.244D-01 0.270D+00 0.803D+00
 Coeff:     -0.376D-05 0.459D-05 0.228D-05-0.448D-06 0.246D-05 0.920D-05
 Coeff:     -0.442D-04-0.236D-03 0.143D-06 0.641D-03 0.148D-02 0.874D-03
 Coeff:     -0.664D-02-0.446D-01-0.244D-01 0.270D+00 0.803D+00
 Gap=     0.210 Goal=   None    Shift=    0.000
 Gap=     0.140 Goal=   None    Shift=    0.000
 RMSDP=6.98D-08 MaxDP=6.61D-06 DE=-1.56D-10 OVMax= 5.15D-06

 Cycle  18  Pass 1  IDiag  1:
 RMSU=  2.45D-08    CP:  7.24D-01  8.54D-01  5.77D-01  2.89D-01  7.32D-01
                    CP:  1.01D+00  1.13D+00  1.70D+00  1.33D+00  1.39D+00
                    CP:  1.18D+00  1.04D+00  1.08D+00  9.71D-01  9.31D-01
                    CP:  9.64D-01  9.29D-01
 E= -504.838761247083     Delta-E=       -0.000000000019 Rises=F Damp=F
 DIIS: error= 5.41D-08 at cycle  18 NSaved=  18.
 NSaved=18 IEnMin=18 EnMin= -504.838761247083     IErMin=18 ErrMin= 5.41D-08
 ErrMax= 5.41D-08 EMaxC= 1.00D-01 BMatC= 5.12D-12 BMatP= 5.42D-11
 IDIUse=1 WtCom= 1.00D+00 WtEn= 0.00D+00
 Coeff-Com: -0.153D-05 0.152D-05 0.568D-06-0.177D-06 0.487D-05 0.100D-04
 Coeff-Com: -0.146D-04-0.972D-04-0.298D-04 0.181D-03 0.637D-03 0.721D-03
 Coeff-Com: -0.130D-02-0.141D-01-0.236D-01 0.361D-01 0.250D+00 0.751D+00
 Coeff:     -0.153D-05 0.152D-05 0.568D-06-0.177D-06 0.487D-05 0.100D-04
 Coeff:     -0.146D-04-0.972D-04-0.298D-04 0.181D-03 0.637D-03 0.721D-03
 Coeff:     -0.130D-02-0.141D-01-0.236D-01 0.361D-01 0.250D+00 0.751D+00
 Gap=     0.210 Goal=   None    Shift=    0.000
 Gap=     0.140 Goal=   None    Shift=    0.000
 RMSDP=3.08D-08 MaxDP=4.23D-06 DE=-1.86D-11 OVMax= 5.03D-07

 Cycle  19  Pass 1  IDiag  1:
 RMSU=  9.26D-09    CP:  7.24D-01  8.54D-01  5.77D-01  2.89D-01  7.32D-01
                    CP:  1.01D+00  1.13D+00  1.70D+00  1.33D+00  1.39D+00
                    CP:  1.18D+00  1.04D+00  1.08D+00  9.72D-01  9.25D-01
                    CP:  9.92D-01  9.45D-01  6.93D-01
 E= -504.838761247085     Delta-E=       -0.000000000002 Rises=F Damp=F
 DIIS: error= 2.03D-08 at cycle  19 NSaved=  19.
 NSaved=19 IEnMin=19 EnMin= -504.838761247085     IErMin=19 ErrMin= 2.03D-08
 ErrMax= 2.03D-08 EMaxC= 1.00D-01 BMatC= 8.94D-13 BMatP= 5.12D-12
 IDIUse=1 WtCom= 1.00D+00 WtEn= 0.00D+00
 Coeff-Com:  0.154D-07-0.475D-07-0.222D-06-0.563D-07 0.149D-05 0.269D-05
 Coeff-Com:  0.367D-05 0.331D-05-0.173D-04-0.286D-04-0.868D-06 0.605D-04
 Coeff-Com:  0.505D-03 0.296D-02-0.331D-02-0.354D-01-0.538D-01 0.282D+00
 Coeff-Com:  0.807D+00
 Coeff:      0.154D-07-0.475D-07-0.222D-06-0.563D-07 0.149D-05 0.269D-05
 Coeff:      0.367D-05 0.331D-05-0.173D-04-0.286D-04-0.868D-06 0.605D-04
 Coeff:      0.505D-03 0.296D-02-0.331D-02-0.354D-01-0.538D-01 0.282D+00
 Coeff:      0.807D+00
 Gap=     0.210 Goal=   None    Shift=    0.000
 Gap=     0.140 Goal=   None    Shift=    0.000
 RMSDP=1.36D-08 MaxDP=1.94D-06 DE=-2.05D-12 OVMax= 2.66D-07

 Cycle  20  Pass 1  IDiag  1:
 Restarting incremental Fock formation.
 E= -504.838761247106     Delta-E=       -0.000000000021 Rises=F Damp=F
 DIIS: error= 7.54D-09 at cycle  20 NSaved=  20.
 NSaved=20 IEnMin=20 EnMin= -504.838761247106     IErMin=20 ErrMin= 7.54D-09
 ErrMax= 7.54D-09 EMaxC= 1.00D-01 BMatC= 1.54D-13 BMatP= 8.94D-13
 IDIUse=1 WtCom= 1.00D+00 WtEn= 0.00D+00
 Coeff-Com:  0.236D-06-0.272D-06-0.246D-06 0.112D-07-0.112D-06 0.362D-06
 Coeff-Com:  0.423D-05 0.130D-04-0.699D-05-0.386D-04-0.746D-04-0.411D-04
 Coeff-Com:  0.413D-03 0.303D-02 0.153D-02-0.197D-01-0.567D-01 0.140D-01
 Coeff-Com:  0.350D+00 0.708D+00
 Coeff:      0.236D-06-0.272D-06-0.246D-06 0.112D-07-0.112D-06 0.362D-06
 Coeff:      0.423D-05 0.130D-04-0.699D-05-0.386D-04-0.746D-04-0.411D-04
 Coeff:      0.413D-03 0.303D-02 0.153D-02-0.197D-01-0.567D-01 0.140D-01
 Coeff:      0.350D+00 0.708D+00
 Gap=     0.210 Goal=   None    Shift=    0.000
 Gap=     0.140 Goal=   None    Shift=    0.000
 RMSDP=9.78D-09 MaxDP=1.14D-06 DE=-2.09D-11 OVMax= 1.32D-07

 Cycle  21  Pass 1  IDiag  1:
 RMSU=  5.41D-09    CP:  1.00D+00
 E= -504.838761247109     Delta-E=       -0.000000000003 Rises=F Damp=F
 DIIS: error= 3.19D-09 at cycle  21 NSaved=  20.
 NSaved=20 IEnMin=20 EnMin= -504.838761247109     IErMin=20 ErrMin= 3.19D-09
 ErrMax= 3.19D-09 EMaxC= 1.00D-01 BMatC= 1.29D-14 BMatP= 1.54D-13
 IDIUse=1 WtCom= 1.00D+00 WtEn= 0.00D+00
 Coeff-Com:  0.387D-07-0.331D-07-0.393D-07-0.188D-06-0.197D-06 0.609D-06
 Coeff-Com:  0.314D-05 0.687D-06-0.828D-05-0.194D-04-0.872D-05 0.580D-04
 Coeff-Com:  0.376D-03 0.658D-03-0.602D-03-0.773D-02-0.330D-01-0.150D-01
 Coeff-Com:  0.183D+00 0.872D+00
 Coeff:      0.387D-07-0.331D-07-0.393D-07-0.188D-06-0.197D-06 0.609D-06
 Coeff:      0.314D-05 0.687D-06-0.828D-05-0.194D-04-0.872D-05 0.580D-04
 Coeff:      0.376D-03 0.658D-03-0.602D-03-0.773D-02-0.330D-01-0.150D-01
 Coeff:      0.183D+00 0.872D+00
 Gap=     0.210 Goal=   None    Shift=    0.000
 Gap=     0.140 Goal=   None    Shift=    0.000
 RMSDP=4.35D-09 MaxDP=5.10D-07 DE=-2.96D-12 OVMax= 6.81D-08

 SCF Done:  E(UB3LYP) =  -504.838761247     A.U. after   21 cycles
             Convg  =    0.4352D-08             -V/T =  2.0045
 <Sx>= 0.0000 <Sy>= 0.0000 <Sz>= 0.5000 <S**2>= 0.7566 S= 0.5033
 <L.S>= 0.000000000000E+00
 KE= 5.025886884047D+02 PE=-2.492403721127D+03 EE= 8.265721531170D+02
 Annihilation of the first spin contaminant:
 S**2 before annihilation     0.7566,   after     0.7500
 Leave Link  502 at Sat Feb 15 14:32:35 2014, MaxMem= 4026531840 cpu:    2539.7
 (Enter /usr/caen/gaussian-09revc/g09/l601.exe)
 Copying SCF densities to generalized density rwf, IOpCl= 1 IROHF=0.

 **********************************************************************

            Population analysis using the SCF density.

 **********************************************************************

 Orbital symmetries:
 Alpha Orbitals:
       Occupied  (A) (A) (A) (A) (A) (A) (A) (A) (A) (A) (A) (A)
                 (A) (A) (A) (A) (A) (A) (A) (A) (A) (A) (A) (A)
                 (A) (A) (A) (A) (A) (A) (A) (A) (A) (A) (A) (A)
                 (A) (A) (A) (A) (A) (A) (A) (A) (A)
       Virtual   (A) (A) (A) (A) (A) (A) (A) (A) (A) (A) (A) (A)
                 (A) (A) (A) (A) (A) (A) (A) (A) (A) (A) (A) (A)
                 (A) (A) (A) (A) (A) (A) (A) (A) (A) (A) (A) (A)
                 (A) (A) (A) (A) (A) (A) (A) (A) (A) (A) (A) (A)
                 (A) (A) (A) (A) (A) (A) (A) (A) (A) (A) (A) (A)
                 (A) (A) (A) (A) (A) (A) (A) (A) (A) (A) (A) (A)
                 (A) (A) (A) (A) (A) (A) (A) (A) (A) (A) (A) (A)
                 (A) (A) (A) (A) (A) (A) (A) (A) (A) (A) (A) (A)
                 (A) (A) (A) (A) (A) (A) (A) (A) (A) (A) (A) (A)
                 (A) (A) (A) (A) (A) (A) (A) (A) (A) (A) (A) (A)
                 (A) (A) (A) (A) (A) (A) (A) (A) (A) (A) (A) (A)
                 (A) (A) (A) (A) (A) (A) (A) (A) (A) (A) (A) (A)
                 (A) (A) (A) (A) (A) (A) (A) (A) (A) (A) (A) (A)
                 (A) (A) (A) (A) (A) (A) (A) (A) (A) (A) (A) (A)
                 (A) (A) (A) (A) (A) (A) (A) (A) (A) (A) (A) (A)
                 (A) (A) (A) (A) (A) (A) (A) (A) (A) (A) (A) (A)
                 (A) (A) (A) (A) (A) (A) (A) (A) (A) (A) (A) (A)
                 (A) (A) (A) (A) (A) (A) (A) (A) (A) (A) (A) (A)
                 (A) (A) (A) (A) (A) (A) (A) (A) (A) (A) (A) (A)
                 (A) (A) (A) (A) (A) (A) (A) (A) (A) (A) (A) (A)
                 (A) (A) (A) (A) (A) (A) (A) (A) (A) (A) (A) (A)
                 (A) (A) (A) (A) (A) (A) (A) (A) (A) (A) (A) (A)
                 (A) (A) (A) (A) (A) (A) (A) (A) (A) (A) (A) (A)
                 (A) (A) (A) (A) (A) (A) (A) (A) (A) (A) (A) (A)
                 (A) (A) (A) (A) (A) (A) (A) (A) (A) (A) (A) (A)
                 (A) (A) (A) (A) (A) (A) (A) (A) (A) (A) (A) (A)
                 (A) (A) (A) (A) (A) (A) (A) (A) (A) (A) (A) (A)
                 (A) (A) (A) (A) (A) (A)
 Beta  Orbitals:
       Occupied  (A) (A) (A) (A) (A) (A) (A) (A) (A) (A) (A) (A)
                 (A) (A) (A) (A) (A) (A) (A) (A) (A) (A) (A) (A)
                 (A) (A) (A) (A) (A) (A) (A) (A) (A) (A) (A) (A)
                 (A) (A) (A) (A) (A) (A) (A) (A)
       Virtual   (A) (A) (A) (A) (A) (A) (A) (A) (A) (A) (A) (A)
                 (A) (A) (A) (A) (A) (A) (A) (A) (A) (A) (A) (A)
                 (A) (A) (A) (A) (A) (A) (A) (A) (A) (A) (A) (A)
                 (A) (A) (A) (A) (A) (A) (A) (A) (A) (A) (A) (A)
                 (A) (A) (A) (A) (A) (A) (A) (A) (A) (A) (A) (A)
                 (A) (A) (A) (A) (A) (A) (A) (A) (A) (A) (A) (A)
                 (A) (A) (A) (A) (A) (A) (A) (A) (A) (A) (A) (A)
                 (A) (A) (A) (A) (A) (A) (A) (A) (A) (A) (A) (A)
                 (A) (A) (A) (A) (A) (A) (A) (A) (A) (A) (A) (A)
                 (A) (A) (A) (A) (A) (A) (A) (A) (A) (A) (A) (A)
                 (A) (A) (A) (A) (A) (A) (A) (A) (A) (A) (A) (A)
                 (A) (A) (A) (A) (A) (A) (A) (A) (A) (A) (A) (A)
                 (A) (A) (A) (A) (A) (A) (A) (A) (A) (A) (A) (A)
                 (A) (A) (A) (A) (A) (A) (A) (A) (A) (A) (A) (A)
                 (A) (A) (A) (A) (A) (A) (A) (A) (A) (A) (A) (A)
                 (A) (A) (A) (A) (A) (A) (A) (A) (A) (A) (A) (A)
                 (A) (A) (A) (A) (A) (A) (A) (A) (A) (A) (A) (A)
                 (A) (A) (A) (A) (A) (A) (A) (A) (A) (A) (A) (A)
                 (A) (A) (A) (A) (A) (A) (A) (A) (A) (A) (A) (A)
                 (A) (A) (A) (A) (A) (A) (A) (A) (A) (A) (A) (A)
                 (A) (A) (A) (A) (A) (A) (A) (A) (A) (A) (A) (A)
                 (A) (A) (A) (A) (A) (A) (A) (A) (A) (A) (A) (A)
                 (A) (A) (A) (A) (A) (A) (A) (A) (A) (A) (A) (A)
                 (A) (A) (A) (A) (A) (A) (A) (A) (A) (A) (A) (A)
                 (A) (A) (A) (A) (A) (A) (A) (A) (A) (A) (A) (A)
                 (A) (A) (A) (A) (A) (A) (A) (A) (A) (A) (A) (A)
                 (A) (A) (A) (A) (A) (A) (A) (A) (A) (A) (A) (A)
                 (A) (A) (A) (A) (A) (A) (A)
 The electronic state is 2-A.
 Alpha  occ. eigenvalues --  -19.19076 -19.17612 -10.23284 -10.19808 -10.19567
 Alpha  occ. eigenvalues --  -10.18149 -10.17892 -10.17085 -10.17010 -10.16020
 Alpha  occ. eigenvalues --  -10.15989  -1.13448  -0.89439  -0.83877  -0.81196
 Alpha  occ. eigenvalues --   -0.75907  -0.69445  -0.68799  -0.67567  -0.61613
 Alpha  occ. eigenvalues --   -0.59440  -0.56461  -0.52722  -0.50064  -0.47929
 Alpha  occ. eigenvalues --   -0.47224  -0.45989  -0.44514  -0.43983  -0.43228
 Alpha  occ. eigenvalues --   -0.41971  -0.40100  -0.38944  -0.38575  -0.37761
 Alpha  occ. eigenvalues --   -0.37317  -0.37029  -0.36047  -0.35183  -0.33303
 Alpha  occ. eigenvalues --   -0.32997  -0.32706  -0.32052  -0.26895  -0.22401
 Alpha virt. eigenvalues --   -0.01402  -0.00477   0.00017   0.00629   0.01578
 Alpha virt. eigenvalues --    0.01776   0.02178   0.02552   0.03610   0.03860
 Alpha virt. eigenvalues --    0.04007   0.04412   0.05357   0.05593   0.05896
 Alpha virt. eigenvalues --    0.06110   0.06826   0.07462   0.07923   0.08818
 Alpha virt. eigenvalues --    0.09048   0.09625   0.09919   0.10386   0.10712
 Alpha virt. eigenvalues --    0.11136   0.11268   0.11776   0.11933   0.12184
 Alpha virt. eigenvalues --    0.12649   0.13058   0.13157   0.13533   0.13783
 Alpha virt. eigenvalues --    0.14305   0.14571   0.14815   0.14920   0.15437
 Alpha virt. eigenvalues --    0.15621   0.16267   0.16502   0.16928   0.17049
 Alpha virt. eigenvalues --    0.17527   0.17551   0.18030   0.18370   0.18606
 Alpha virt. eigenvalues --    0.19063   0.19608   0.19871   0.20192   0.20827
 Alpha virt. eigenvalues --    0.21209   0.21534   0.22190   0.22444   0.22849
 Alpha virt. eigenvalues --    0.23646   0.24176   0.24763   0.24968   0.25552
 Alpha virt. eigenvalues --    0.26202   0.26726   0.27157   0.27387   0.28313
 Alpha virt. eigenvalues --    0.28545   0.29299   0.30336   0.30815   0.31016
 Alpha virt. eigenvalues --    0.32007   0.32711   0.32946   0.33393   0.33975
 Alpha virt. eigenvalues --    0.34073   0.34523   0.35330   0.35463   0.36192
 Alpha virt. eigenvalues --    0.36926   0.37668   0.39182   0.39880   0.40993
 Alpha virt. eigenvalues --    0.43530   0.43915   0.45923   0.46368   0.47330
 Alpha virt. eigenvalues --    0.47839   0.49153   0.51008   0.51765   0.52541
 Alpha virt. eigenvalues --    0.52891   0.53395   0.54944   0.56459   0.57013
 Alpha virt. eigenvalues --    0.57952   0.59124   0.59514   0.60814   0.61301
 Alpha virt. eigenvalues --    0.63848   0.64323   0.64663   0.65809   0.66511
 Alpha virt. eigenvalues --    0.67123   0.67861   0.68255   0.68961   0.69172
 Alpha virt. eigenvalues --    0.69601   0.70081   0.71552   0.72097   0.72498
 Alpha virt. eigenvalues --    0.72966   0.74187   0.74343   0.75346   0.75476
 Alpha virt. eigenvalues --    0.77059   0.77607   0.78667   0.79241   0.80083
 Alpha virt. eigenvalues --    0.81177   0.83262   0.85942   0.88144   0.90433
 Alpha virt. eigenvalues --    0.94455   0.97124   0.98084   0.99925   1.01266
 Alpha virt. eigenvalues --    1.04086   1.05187   1.07636   1.08719   1.10582
 Alpha virt. eigenvalues --    1.12235   1.13364   1.14869   1.16513   1.16959
 Alpha virt. eigenvalues --    1.18679   1.20390   1.20909   1.22967   1.26885
 Alpha virt. eigenvalues --    1.30822   1.32343   1.34455   1.37651   1.41030
 Alpha virt. eigenvalues --    1.43298   1.45024   1.45574   1.45848   1.47169
 Alpha virt. eigenvalues --    1.47347   1.47779   1.48905   1.51011   1.53672
 Alpha virt. eigenvalues --    1.55071   1.56562   1.56779   1.58039   1.58770
 Alpha virt. eigenvalues --    1.59461   1.59681   1.60964   1.61318   1.62400
 Alpha virt. eigenvalues --    1.63433   1.64014   1.64993   1.65256   1.66528
 Alpha virt. eigenvalues --    1.66980   1.68535   1.68888   1.71002   1.71672
 Alpha virt. eigenvalues --    1.73518   1.74430   1.74902   1.75914   1.76957
 Alpha virt. eigenvalues --    1.78833   1.79407   1.80382   1.80900   1.81603
 Alpha virt. eigenvalues --    1.83380   1.86068   1.87389   1.89605   1.91735
 Alpha virt. eigenvalues --    1.93569   1.96960   1.97892   1.99897   2.03489
 Alpha virt. eigenvalues --    2.06139   2.06456   2.07436   2.09469   2.10966
 Alpha virt. eigenvalues --    2.13788   2.14659   2.15652   2.16394   2.18551
 Alpha virt. eigenvalues --    2.21160   2.22284   2.24376   2.26016   2.28166
 Alpha virt. eigenvalues --    2.31122   2.32581   2.34616   2.37068   2.38616
 Alpha virt. eigenvalues --    2.40988   2.43226   2.45323   2.46683   2.47600
 Alpha virt. eigenvalues --    2.48786   2.49848   2.50154   2.50673   2.52127
 Alpha virt. eigenvalues --    2.54139   2.56211   2.57116   2.57300   2.57946
 Alpha virt. eigenvalues --    2.58614   2.59453   2.59692   2.61590   2.63398
 Alpha virt. eigenvalues --    2.64284   2.64653   2.65873   2.67655   2.70461
 Alpha virt. eigenvalues --    2.72160   2.73086   2.74555   2.75650   2.76418
 Alpha virt. eigenvalues --    2.77734   2.79037   2.80989   2.82595   2.85760
 Alpha virt. eigenvalues --    2.87911   2.89138   2.92215   2.93131   2.93393
 Alpha virt. eigenvalues --    2.95720   2.96967   2.97940   2.98667   3.01935
 Alpha virt. eigenvalues --    3.03530   3.05367   3.08212   3.16136   3.17326
 Alpha virt. eigenvalues --    3.19581   3.23034   3.25536   3.31978   3.38860
 Alpha virt. eigenvalues --    3.44504   3.47920   3.53122   3.71305   3.77765
 Alpha virt. eigenvalues --    3.78526   3.78832   3.80282   3.80955   3.81939
 Alpha virt. eigenvalues --    3.83379   3.84343   3.87148   3.89877   3.94968
 Alpha virt. eigenvalues --    3.99145   4.02239   4.12035   4.20435   4.26889
 Alpha virt. eigenvalues --    4.29850   4.32720   4.41069   4.89127   5.02600
 Alpha virt. eigenvalues --    5.08298   5.32291   5.45255   5.78431  23.80265
 Alpha virt. eigenvalues --   23.82839  23.85034  23.88420  23.89699  23.92278
 Alpha virt. eigenvalues --   23.97632  23.97660  23.98578  49.86411  49.89782
  Beta  occ. eigenvalues --  -19.18840 -19.16447 -10.23231 -10.19817 -10.18698
  Beta  occ. eigenvalues --  -10.18173 -10.17892 -10.17076 -10.17006 -10.16020
  Beta  occ. eigenvalues --  -10.15990  -1.12238  -0.87673  -0.83200  -0.80957
  Beta  occ. eigenvalues --   -0.75645  -0.69132  -0.68795  -0.66877  -0.61260
  Beta  occ. eigenvalues --   -0.58282  -0.56400  -0.51474  -0.49752  -0.47648
  Beta  occ. eigenvalues --   -0.46680  -0.45528  -0.44211  -0.43792  -0.42542
  Beta  occ. eigenvalues --   -0.40919  -0.39874  -0.38872  -0.37991  -0.37496
  Beta  occ. eigenvalues --   -0.36822  -0.36089  -0.35622  -0.34905  -0.32965
  Beta  occ. eigenvalues --   -0.32861  -0.31996  -0.31472  -0.25452
  Beta virt. eigenvalues --   -0.11422  -0.01365  -0.00469   0.00049   0.00671
  Beta virt. eigenvalues --    0.01627   0.01841   0.02305   0.02778   0.03642
  Beta virt. eigenvalues --    0.03901   0.04075   0.04468   0.05492   0.05640
  Beta virt. eigenvalues --    0.05926   0.06165   0.06863   0.07507   0.07950
  Beta virt. eigenvalues --    0.08853   0.09107   0.09658   0.09989   0.10471
  Beta virt. eigenvalues --    0.10737   0.11198   0.11349   0.11820   0.11972
  Beta virt. eigenvalues --    0.12222   0.12730   0.13088   0.13224   0.13602
  Beta virt. eigenvalues --    0.13812   0.14329   0.14629   0.14874   0.14950
  Beta virt. eigenvalues --    0.15476   0.15660   0.16325   0.16578   0.17072
  Beta virt. eigenvalues --    0.17143   0.17594   0.17632   0.18100   0.18542
  Beta virt. eigenvalues --    0.18756   0.19167   0.19670   0.19938   0.20247
  Beta virt. eigenvalues --    0.21035   0.21289   0.21734   0.22309   0.22593
  Beta virt. eigenvalues --    0.22927   0.23752   0.24235   0.24925   0.25049
  Beta virt. eigenvalues --    0.25659   0.26381   0.26765   0.27207   0.27432
  Beta virt. eigenvalues --    0.28430   0.28752   0.29422   0.30422   0.30993
  Beta virt. eigenvalues --    0.31276   0.32126   0.32757   0.33253   0.33575
  Beta virt. eigenvalues --    0.34119   0.34344   0.34887   0.35442   0.35607
  Beta virt. eigenvalues --    0.36443   0.37190   0.37865   0.39283   0.39996
  Beta virt. eigenvalues --    0.41095   0.43648   0.43948   0.46070   0.46451
  Beta virt. eigenvalues --    0.47437   0.47967   0.49283   0.51168   0.52052
  Beta virt. eigenvalues --    0.52620   0.53073   0.53506   0.55149   0.56825
  Beta virt. eigenvalues --    0.57080   0.58029   0.59219   0.59661   0.60986
  Beta virt. eigenvalues --    0.61489   0.63968   0.64405   0.64847   0.65872
  Beta virt. eigenvalues --    0.66599   0.67261   0.67983   0.68330   0.69205
  Beta virt. eigenvalues --    0.69482   0.69755   0.70207   0.71606   0.72241
  Beta virt. eigenvalues --    0.72762   0.73186   0.74299   0.74546   0.75426
  Beta virt. eigenvalues --    0.75810   0.77126   0.77700   0.78762   0.79370
  Beta virt. eigenvalues --    0.80197   0.81262   0.83359   0.86113   0.88239
  Beta virt. eigenvalues --    0.90545   0.94704   0.97220   0.98360   1.00032
  Beta virt. eigenvalues --    1.01343   1.04252   1.05404   1.08066   1.08992
  Beta virt. eigenvalues --    1.11371   1.12688   1.13545   1.15738   1.16778
  Beta virt. eigenvalues --    1.17189   1.18793   1.20749   1.21103   1.23453
  Beta virt. eigenvalues --    1.27251   1.31028   1.32523   1.34970   1.38064
  Beta virt. eigenvalues --    1.41154   1.43514   1.45094   1.45860   1.45927
  Beta virt. eigenvalues --    1.47247   1.47402   1.47889   1.49289   1.51541
  Beta virt. eigenvalues --    1.54228   1.55396   1.56750   1.56851   1.58350
  Beta virt. eigenvalues --    1.58818   1.59710   1.59978   1.61194   1.61624
  Beta virt. eigenvalues --    1.62600   1.63560   1.64089   1.65104   1.65440
  Beta virt. eigenvalues --    1.66787   1.67365   1.68660   1.69027   1.71116
  Beta virt. eigenvalues --    1.71827   1.73658   1.74510   1.75057   1.76053
  Beta virt. eigenvalues --    1.77242   1.79033   1.79595   1.80556   1.81128
  Beta virt. eigenvalues --    1.81727   1.83526   1.86415   1.87788   1.89956
  Beta virt. eigenvalues --    1.91978   1.93791   1.97238   1.97979   2.00256
  Beta virt. eigenvalues --    2.03745   2.06381   2.06586   2.07495   2.09681
  Beta virt. eigenvalues --    2.11390   2.13937   2.14780   2.15769   2.16916
  Beta virt. eigenvalues --    2.19089   2.21456   2.22669   2.24977   2.26267
  Beta virt. eigenvalues --    2.28337   2.31274   2.32840   2.34801   2.37281
  Beta virt. eigenvalues --    2.39071   2.41171   2.43899   2.45508   2.46721
  Beta virt. eigenvalues --    2.47750   2.48825   2.49879   2.50233   2.50798
  Beta virt. eigenvalues --    2.52192   2.54168   2.56380   2.57231   2.57649
  Beta virt. eigenvalues --    2.58107   2.59228   2.59646   2.59830   2.61802
  Beta virt. eigenvalues --    2.63633   2.64421   2.64824   2.66095   2.67824
  Beta virt. eigenvalues --    2.70597   2.72470   2.73282   2.74705   2.75732
  Beta virt. eigenvalues --    2.76477   2.77881   2.79274   2.81079   2.82801
  Beta virt. eigenvalues --    2.85959   2.88085   2.89597   2.92576   2.93374
  Beta virt. eigenvalues --    2.93781   2.95758   2.97170   2.98586   2.99135
  Beta virt. eigenvalues --    3.02343   3.04140   3.05958   3.08424   3.16312
  Beta virt. eigenvalues --    3.17600   3.19990   3.24114   3.26166   3.32577
  Beta virt. eigenvalues --    3.39082   3.45611   3.48948   3.53662   3.72112
  Beta virt. eigenvalues --    3.77887   3.78541   3.78966   3.80334   3.81005
  Beta virt. eigenvalues --    3.82015   3.83481   3.84859   3.87226   3.90555
  Beta virt. eigenvalues --    3.96670   3.99161   4.02595   4.12226   4.20955
  Beta virt. eigenvalues --    4.27151   4.29852   4.32906   4.41411   4.89596
  Beta virt. eigenvalues --    5.03547   5.09258   5.36067   5.45645   5.79182
  Beta virt. eigenvalues --   23.80559  23.82911  23.85257  23.88678  23.89796
  Beta virt. eigenvalues --   23.92356  23.97635  23.97660  23.98582  49.87072
  Beta virt. eigenvalues --   49.90513
          Condensed to atoms (all electrons):
              1          2          3          4          5          6
     1  C    6.020355   0.346189   0.420901   0.389643  -0.421143  -0.095182
     2  H    0.346189   0.585991  -0.040611  -0.029293  -0.003131  -0.004067
     3  H    0.420901  -0.040611   0.511430  -0.031130   0.055612   0.013037
     4  H    0.389643  -0.029293  -0.031130   0.576555  -0.011826  -0.015683
     5  C   -0.421143  -0.003131   0.055612  -0.011826  10.148149   0.429771
     6  H   -0.095182  -0.004067   0.013037  -0.015683   0.429771   0.591477
     7  C    0.359952  -0.039233  -0.081519  -0.012587  -3.591861  -0.031589
     8  H   -0.031078  -0.010114  -0.001580   0.002886  -0.032674   0.007914
     9  H    0.041110  -0.006199  -0.003635   0.005443   0.237707  -0.007117
    10  C   -0.188188   0.064620   0.006626  -0.000901   0.344611  -0.035284
    11  H    0.029754  -0.005741   0.002728   0.001472  -0.005553   0.002870
    12  H    0.000700   0.002775  -0.001653   0.000530   0.213588   0.003407
    13  C   -0.081535  -0.002008  -0.007741  -0.002922  -0.446194  -0.012776
    14  H    0.004899  -0.000578   0.000779  -0.000014  -0.053429  -0.001587
    15  H   -0.000675   0.001685  -0.000280   0.000005   0.010175  -0.000421
    16  C   -0.009691   0.003962   0.000686  -0.000523  -0.050474  -0.005143
    17  H   -0.002151   0.000205  -0.000058  -0.000115  -0.008214   0.000815
    18  C   -0.000354   0.000167  -0.000144   0.000032  -0.001602  -0.001191
    19  H   -0.000144   0.000035  -0.000038  -0.000012  -0.001647  -0.000028
    20  H   -0.000003  -0.000005   0.000006   0.000003   0.000304  -0.000053
    21  H    0.000141  -0.000065   0.000008   0.000018   0.002835   0.000051
    22  C   -0.095186   0.000198  -0.047915  -0.009042  -1.379483  -0.064358
    23  H   -0.062969   0.008626   0.001787  -0.007612  -0.168125   0.005549
    24  H    0.035025  -0.008812   0.004108   0.004101   0.201585   0.008174
    25  C    0.000130  -0.000354   0.000025   0.000002   0.029653   0.002834
    26  H    0.000026   0.000024  -0.000014  -0.000015  -0.001060   0.000058
    27  H    0.000169  -0.000029   0.000070   0.000017   0.005269   0.000369
    28  H   -0.000426  -0.000039  -0.000018  -0.000040  -0.025857  -0.001642
    29  O   -0.050894  -0.004182   0.014371  -0.003744   0.023787   0.021935
    30  O   -0.011025   0.003408  -0.001780  -0.000693  -0.002991   0.001141
              7          8          9         10         11         12
     1  C    0.359952  -0.031078   0.041110  -0.188188   0.029754   0.000700
     2  H   -0.039233  -0.010114  -0.006199   0.064620  -0.005741   0.002775
     3  H   -0.081519  -0.001580  -0.003635   0.006626   0.002728  -0.001653
     4  H   -0.012587   0.002886   0.005443  -0.000901   0.001472   0.000530
     5  C   -3.591861  -0.032674   0.237707   0.344611  -0.005553   0.213588
     6  H   -0.031589   0.007914  -0.007117  -0.035284   0.002870   0.003407
     7  C   11.787577   0.234164   0.277740  -2.913266  -0.076805  -0.032398
     8  H    0.234164   0.558130  -0.038562   0.053241  -0.008721  -0.013289
     9  H    0.277740  -0.038562   0.523207  -0.346586   0.009989   0.031531
    10  C   -2.913266   0.053241  -0.346586   9.820967   0.496249   0.159845
    11  H   -0.076805  -0.008721   0.009989   0.496249   0.677911  -0.130669
    12  H   -0.032398  -0.013289   0.031531   0.159845  -0.130669   0.802528
    13  C    0.959214  -0.027799   0.040432  -2.102538  -0.110355  -0.045719
    14  H   -0.020446   0.007126  -0.006997  -0.001819   0.022835  -0.028504
    15  H   -0.033757  -0.011038  -0.005768  -0.015471  -0.019886   0.015021
    16  C   -0.608249  -0.003501  -0.026776   0.754615   0.002295   0.033545
    17  H    0.015681  -0.000419   0.002143  -0.046244   0.009515   0.015391
    18  C   -0.048699  -0.002612   0.001674  -0.218723  -0.007242   0.008301
    19  H    0.007843  -0.000891   0.001430  -0.016702  -0.000033   0.004276
    20  H   -0.006309   0.000270  -0.000322   0.016558   0.000834  -0.002418
    21  H   -0.001538   0.001105  -0.000001  -0.000858  -0.000297  -0.000618
    22  C    0.644517   0.040723  -0.114602   0.251952  -0.007986  -0.119167
    23  H    0.082823   0.001816  -0.037689   0.064812  -0.004683  -0.006731
    24  H   -0.188944   0.005619   0.024223   0.013885   0.016229  -0.019831
    25  C    0.068089   0.002538   0.000329   0.075055  -0.033990   0.013259
    26  H    0.009444   0.000048   0.000638  -0.019758  -0.003812   0.005742
    27  H   -0.013603   0.000294  -0.000309   0.040624   0.005626  -0.000011
    28  H   -0.044014   0.002031  -0.007730   0.120046   0.001238  -0.034901
    29  O    0.000446   0.005553  -0.017094  -0.010038   0.003761  -0.005545
    30  O   -0.170144   0.011127   0.052868   0.182617  -0.002834  -0.024662
             13         14         15         16         17         18
     1  C   -0.081535   0.004899  -0.000675  -0.009691  -0.002151  -0.000354
     2  H   -0.002008  -0.000578   0.001685   0.003962   0.000205   0.000167
     3  H   -0.007741   0.000779  -0.000280   0.000686  -0.000058  -0.000144
     4  H   -0.002922  -0.000014   0.000005  -0.000523  -0.000115   0.000032
     5  C   -0.446194  -0.053429   0.010175  -0.050474  -0.008214  -0.001602
     6  H   -0.012776  -0.001587  -0.000421  -0.005143   0.000815  -0.001191
     7  C    0.959214  -0.020446  -0.033757  -0.608249   0.015681  -0.048699
     8  H   -0.027799   0.007126  -0.011038  -0.003501  -0.000419  -0.002612
     9  H    0.040432  -0.006997  -0.005768  -0.026776   0.002143   0.001674
    10  C   -2.102538  -0.001819  -0.015471   0.754615  -0.046244  -0.218723
    11  H   -0.110355   0.022835  -0.019886   0.002295   0.009515  -0.007242
    12  H   -0.045719  -0.028504   0.015021   0.033545   0.015391   0.008301
    13  C    8.749461   0.392759   0.375881  -1.509491  -0.101198   0.348785
    14  H    0.392759   0.578895  -0.066541   0.062536   0.017001  -0.000565
    15  H    0.375881  -0.066541   0.656514  -0.057834  -0.019676   0.022648
    16  C   -1.509491   0.062536  -0.057834   6.724348   0.569875  -0.118988
    17  H   -0.101198   0.017001  -0.019676   0.569875   0.628652  -0.057010
    18  C    0.348785  -0.000565   0.022648  -0.118988  -0.057010   5.678939
    19  H   -0.061140   0.001364   0.001135   0.075232   0.017917   0.386743
    20  H    0.032080  -0.001732   0.001384  -0.082077  -0.015456   0.391666
    21  H   -0.019396   0.003080   0.001432  -0.043153  -0.013305   0.401643
    22  C    0.144434   0.012797   0.000089  -0.016760   0.000380   0.000567
    23  H    0.003795  -0.000349   0.000395   0.000490  -0.000008  -0.000060
    24  H   -0.037630   0.002518  -0.001305  -0.005596  -0.001137  -0.000359
    25  C    0.095464  -0.074181   0.022112  -0.116505  -0.139422  -0.163831
    26  H    0.059613  -0.005959  -0.002611  -0.099769  -0.003112  -0.000300
    27  H   -0.117241   0.012779  -0.003130   0.087564   0.012712  -0.016585
    28  H   -0.074537   0.005237   0.004020  -0.035189  -0.018661   0.008376
    29  O   -0.005176   0.000750  -0.000486  -0.001720   0.000021  -0.000462
    30  O   -0.056582   0.008023   0.002793   0.008343  -0.000806   0.000653
             19         20         21         22         23         24
     1  C   -0.000144  -0.000003   0.000141  -0.095186  -0.062969   0.035025
     2  H    0.000035  -0.000005  -0.000065   0.000198   0.008626  -0.008812
     3  H   -0.000038   0.000006   0.000008  -0.047915   0.001787   0.004108
     4  H   -0.000012   0.000003   0.000018  -0.009042  -0.007612   0.004101
     5  C   -0.001647   0.000304   0.002835  -1.379483  -0.168125   0.201585
     6  H   -0.000028  -0.000053   0.000051  -0.064358   0.005549   0.008174
     7  C    0.007843  -0.006309  -0.001538   0.644517   0.082823  -0.188944
     8  H   -0.000891   0.000270   0.001105   0.040723   0.001816   0.005619
     9  H    0.001430  -0.000322  -0.000001  -0.114602  -0.037689   0.024223
    10  C   -0.016702   0.016558  -0.000858   0.251952   0.064812   0.013885
    11  H   -0.000033   0.000834  -0.000297  -0.007986  -0.004683   0.016229
    12  H    0.004276  -0.002418  -0.000618  -0.119167  -0.006731  -0.019831
    13  C   -0.061140   0.032080  -0.019396   0.144434   0.003795  -0.037630
    14  H    0.001364  -0.001732   0.003080   0.012797  -0.000349   0.002518
    15  H    0.001135   0.001384   0.001432   0.000089   0.000395  -0.001305
    16  C    0.075232  -0.082077  -0.043153  -0.016760   0.000490  -0.005596
    17  H    0.017917  -0.015456  -0.013305   0.000380  -0.000008  -0.001137
    18  C    0.386743   0.391666   0.401643   0.000567  -0.000060  -0.000359
    19  H    0.557375  -0.034129  -0.046559  -0.000017   0.000036  -0.000386
    20  H   -0.034129   0.561980  -0.018754   0.000087  -0.000012   0.000120
    21  H   -0.046559  -0.018754   0.582734  -0.000342  -0.000012   0.000122
    22  C   -0.000017   0.000087  -0.000342   6.517522   0.421391   0.216201
    23  H    0.000036  -0.000012  -0.000012   0.421391   0.603977  -0.067264
    24  H   -0.000386   0.000120   0.000122   0.216201  -0.067264   0.650124
    25  C   -0.039714  -0.002063   0.025527  -0.005842   0.000091   0.001052
    26  H    0.004029  -0.000904   0.001025  -0.000978   0.000030  -0.000502
    27  H    0.010233   0.001648  -0.002192  -0.002305  -0.000213   0.001181
    28  H   -0.006864   0.004244  -0.002249   0.020091   0.001475  -0.001516
    29  O    0.000046  -0.000012  -0.000011   0.238575  -0.059150  -0.039124
    30  O   -0.000813   0.000135   0.000056   0.017954   0.019924   0.003845
             25         26         27         28         29         30
     1  C    0.000130   0.000026   0.000169  -0.000426  -0.050894  -0.011025
     2  H   -0.000354   0.000024  -0.000029  -0.000039  -0.004182   0.003408
     3  H    0.000025  -0.000014   0.000070  -0.000018   0.014371  -0.001780
     4  H    0.000002  -0.000015   0.000017  -0.000040  -0.003744  -0.000693
     5  C    0.029653  -0.001060   0.005269  -0.025857   0.023787  -0.002991
     6  H    0.002834   0.000058   0.000369  -0.001642   0.021935   0.001141
     7  C    0.068089   0.009444  -0.013603  -0.044014   0.000446  -0.170144
     8  H    0.002538   0.000048   0.000294   0.002031   0.005553   0.011127
     9  H    0.000329   0.000638  -0.000309  -0.007730  -0.017094   0.052868
    10  C    0.075055  -0.019758   0.040624   0.120046  -0.010038   0.182617
    11  H   -0.033990  -0.003812   0.005626   0.001238   0.003761  -0.002834
    12  H    0.013259   0.005742  -0.000011  -0.034901  -0.005545  -0.024662
    13  C    0.095464   0.059613  -0.117241  -0.074537  -0.005176  -0.056582
    14  H   -0.074181  -0.005959   0.012779   0.005237   0.000750   0.008023
    15  H    0.022112  -0.002611  -0.003130   0.004020  -0.000486   0.002793
    16  C   -0.116505  -0.099769   0.087564  -0.035189  -0.001720   0.008343
    17  H   -0.139422  -0.003112   0.012712  -0.018661   0.000021  -0.000806
    18  C   -0.163831  -0.000300  -0.016585   0.008376  -0.000462   0.000653
    19  H   -0.039714   0.004029   0.010233  -0.006864   0.000046  -0.000813
    20  H   -0.002063  -0.000904   0.001648   0.004244  -0.000012   0.000135
    21  H    0.025527   0.001025  -0.002192  -0.002249  -0.000011   0.000056
    22  C   -0.005842  -0.000978  -0.002305   0.020091   0.238575   0.017954
    23  H    0.000091   0.000030  -0.000213   0.001475  -0.059150   0.019924
    24  H    0.001052  -0.000502   0.001181  -0.001516  -0.039124   0.003845
    25  C    5.707781   0.411775   0.348347   0.415495  -0.000599  -0.002188
    26  H    0.411775   0.569624  -0.032091  -0.031532  -0.000014  -0.000454
    27  H    0.348347  -0.032091   0.555585  -0.042302   0.000001   0.001722
    28  H    0.415495  -0.031532  -0.042302   0.609396  -0.000100   0.003254
    29  O   -0.000599  -0.000014   0.000001  -0.000100   7.815742   0.081986
    30  O   -0.002188  -0.000454   0.001722   0.003254   0.081986   8.037350
 Mulliken atomic charges:
              1
     1  C   -0.598348
     2  H    0.136575
     3  H    0.185941
     4  H    0.145446
     5  C    0.502220
     6  H    0.186718
     7  C   -0.532530
     8  H    0.247695
     9  H    0.368921
    10  C   -0.549948
    11  H    0.135301
    12  H    0.155677
    13  C   -0.379941
    14  H    0.129324
    15  H    0.123590
    16  C    0.467948
    17  H    0.136687
    18  C   -0.611466
    19  H    0.141422
    20  H    0.152929
    21  H    0.129572
    22  C   -0.663498
    23  H    0.197860
    24  H    0.184293
    25  C   -0.640868
    26  H    0.140810
    27  H    0.145800
    28  H    0.132714
    29  O   -0.008621
    30  O   -0.162223
 Sum of Mulliken atomic charges =   0.00000
 Mulliken charges with hydrogens summed into heavy atoms:
              1
     1  C   -0.130386
     5  C    0.688938
     7  C   -0.284835
    10  C   -0.258971
    13  C   -0.127027
    16  C    0.604635
    18  C   -0.187543
    22  C   -0.281344
    25  C   -0.221544
    29  O   -0.008621
    30  O    0.206699
 Sum of Mulliken charges with hydrogens summed into heavy atoms =   0.00000
          Atomic-Atomic Spin Densities.
              1          2          3          4          5          6
     1  C   -0.007112   0.002463  -0.002034  -0.000069   0.008363   0.003915
     2  H    0.002463   0.000648  -0.001056   0.001599  -0.001618  -0.004762
     3  H   -0.002034  -0.001056   0.001460  -0.000896  -0.002298   0.001790
     4  H   -0.000069   0.001599  -0.000896   0.001560   0.005243  -0.003029
     5  C    0.008363  -0.001618  -0.002298   0.005243   0.057646  -0.039686
     6  H    0.003915  -0.004762   0.001790  -0.003029  -0.039686   0.078820
     7  C    0.004107  -0.005847   0.007541  -0.002887  -0.210004   0.048751
     8  H    0.000511   0.001860  -0.001292   0.000252   0.006135  -0.004936
     9  H   -0.006287  -0.001100   0.000515  -0.000109  -0.009726   0.004822
    10  C    0.000713   0.006126  -0.004697   0.002397   0.092500  -0.044694
    11  H    0.000259  -0.001500   0.000450  -0.000512  -0.016785   0.015848
    12  H    0.001568   0.000326  -0.000249   0.000413   0.006172  -0.009768
[...]
 0361,0.00006742,-0.00074007,-0.00050246,0.00003575,0.00017309,0.000151
 86,0.00060858,0.00030306,0.00040441,0.00018231,0.00028227,0.00021771,-
 0.00000728,-0.00002117,-0.00002236,-0.00014462,-0.00000248,0.00011489,
 0.00005118,-0.00001947,-0.00000604,-0.00000270,0.00000376,-0.00000566,
 0.00000152,0.00000727,-0.00000302,0.00000167,-0.00000283,0.00000038,-0
 .00000882,-0.00000286,-0.00000374,-0.00000088,0.00000466,0.00000883,-0
 .08872648,-0.11535053,-0.07596185,0.00115124,0.00115239,0.00064229,0.0
 8941007,0.12469373,0.00068799,-0.00050042,0.00083750,-0.00035300,0.000
 10921,0.00000878,0.00010733,0.00026293,0.00010287,-0.00032387,-0.00008
 078,0.00007537,-0.00244906,-0.00435743,-0.00239639,0.00025573,0.000097
 23,0.00082215,-0.00120530,0.00076994,-0.00072292,0.00004263,-0.0001218
 5,0.00026378,0.00052762,-0.00203069,-0.00008773,-0.00004554,-0.0006142
 3,-0.00017456,0.00011619,0.00018293,0.00016011,0.00033076,0.00012874,0
 .00046454,0.00006988,0.00014753,0.00011681,-0.00000407,-0.00002147,-0.
 00003599,-0.00008235,0.00001586,0.00006933,0.00001655,-0.00002012,-0.0
 0001951,-0.00000046,0.00001261,0.00000239,0.00000692,0.00000726,0.0000
 0656,-0.00000011,-0.00000141,-0.00000436,0.00000216,-0.00000133,-0.000
 00208,-0.00000343,0.00000487,0.00000568,-0.08444078,-0.07154909,-0.122
 07304,0.00799932,0.00626550,0.01003021,0.10495458,0.07411128,0.1436547
 5,-0.00000371,0.00000980,0.00003268,0.00001024,0.00000707,-0.00000752,
 0.00001418,0.00000070,0.00000428,-0.00002491,-0.00000300,0.00000456,-0
 .00001338,0.00013700,0.00003719,-0.00001812,-0.00003462,0.00003694,0.0
 0002961,-0.00034820,0.00003583,0.00002327,0.00019588,0.00013674,0.0000
 6519,0.00012230,-0.00006439,0.00039533,-0.00021732,-0.00088532,-0.0000
 6105,-0.00033572,0.00009123,-0.00088068,-0.00028221,-0.00041435,-0.003
 93879,-0.02392702,-0.02308661,0.00131832,-0.00028749,0.00085802,-0.005
 74270,-0.00059443,-0.00290468,-0.07835771,-0.00667981,-0.00658256,0.00
 012962,0.00250066,0.00234279,0.00099173,0.01911731,0.01838429,0.000682
 45,0.00000603,-0.00081690,0.00050786,0.00079849,0.00065000,-0.00367387
 ,0.00020456,0.00428680,-0.00008632,-0.00007244,-0.00010288,-0.00002104
 ,0.00001480,0.00001395,0.00002164,0.00002349,0.00001087,0.56739954,0.0
 0002960,-0.00002015,-0.00003272,-0.00000406,-0.00000008,0.00000284,-0.
 00000167,0.00000223,0.00000418,0.00002194,0.00001103,-0.00000097,0.000
 08498,-0.00003878,0.00007406,-0.00001522,-0.00000302,0.00000283,0.0001
 6968,0.00028281,-0.00039539,-0.00002134,-0.00004398,0.00004934,0.00005
 129,-0.00009103,0.00004573,0.00013343,0.00000763,0.00042977,0.00004854
 ,0.00000457,0.00000116,-0.00033944,0.00007604,-0.00016600,-0.00425123,
 -0.00097540,-0.00228527,0.00104206,0.00119153,0.00127081,0.00117922,0.
 00100979,0.00153033,-0.00576494,-0.13493444,-0.04916909,-0.00264949,-0
 .02422031,-0.02209389,0.00294078,0.00034556,-0.00299750,-0.00065262,0.
 00102518,0.00135368,-0.00034065,0.00000179,0.00037754,-0.00104342,0.00
 105548,0.00178469,-0.00000828,0.00009568,-0.00000376,0.00001002,-0.000
 01321,0.00000075,-0.00000451,0.00000764,-0.00001535,-0.00893398,0.4989
 7585,0.00002328,0.00000840,-0.00002556,-0.00000103,-0.00000257,-0.0000
 0520,-0.00000586,-0.00000691,-0.00000749,0.,0.00000293,0.00000933,0.00
 009252,0.00004638,0.00010634,0.00001777,0.00003994,-0.00001323,0.00056
 414,-0.00043381,-0.00051753,-0.00021399,0.00001756,-0.00013093,-0.0000
 5812,0.00002834,-0.00001024,-0.00068470,0.00095151,0.00090963,-0.00014
 892,-0.00009213,0.00012594,0.00023703,-0.00090551,-0.00023739,-0.00677
 095,-0.01208038,-0.01340386,0.00101348,-0.00068413,0.00038032,-0.00191
 841,-0.00011507,-0.00018887,-0.00436640,-0.04651345,-0.11957885,0.0013
 9543,0.00976093,0.00950118,0.00265361,-0.02088799,-0.02333819,-0.00104
 730,-0.00067529,0.00088739,-0.00152330,0.00024807,0.00133647,0.0026973
 5,-0.00000582,-0.00287041,0.00008092,-0.00001728,0.00010171,-0.0000195
 1,0.00000056,-0.00001745,0.00000898,-0.00005835,-0.00001504,-0.0102335
 2,-0.05065186,0.52068368,-0.00000821,0.00001690,0.00002542,0.00000669,
 -0.00000793,-0.00000686,0.00000408,0.00000355,-0.00000304,-0.00002982,
 -0.00000601,0.00000638,-0.00000918,0.00004960,-0.00001752,0.00001582,-
 0.00000757,-0.00000069,0.00015839,-0.00024955,0.00002261,-0.00010881,0
 .00001352,-0.00005557,-0.00000392,0.00013588,-0.00000245,-0.00001017,0
 .00043585,-0.00006413,-0.00002368,-0.00010321,0.00000079,0.00030196,-0
 .00019283,-0.00020275,0.00113356,-0.00093050,0.00030070,0.00012011,0.0
 0007537,0.00017410,-0.00019005,-0.00005291,-0.00017569,-0.00295833,0.0
 0027778,-0.00039684,0.00018072,-0.00060970,0.00000953,0.00065357,0.000
 51971,0.00085864,-0.00003756,-0.00004217,-0.00001925,0.00065295,0.0000
 5803,-0.00023291,0.00028233,-0.00013060,0.00006935,0.00004367,-0.00003
 289,-0.00001867,-0.00003145,-0.00000032,0.00000214,0.00002087,-0.00002
 757,-0.00001394,-0.26258260,0.00593106,-0.09696798,0.28510180,-0.00001
 041,0.00001077,0.00001391,0.00000403,0.00000231,-0.00000168,0.00000227
 ,-0.00000138,-0.00000088,-0.00001074,-0.00000389,0.00000093,-0.0000282
 4,0.00003402,-0.00000579,0.00000440,-0.00000438,0.00000368,-0.00003697
 ,-0.00010574,0.00013104,0.00001463,0.00005502,0.00001831,-0.00002034,0
 .00005500,-0.00004061,0.00032740,0.00011118,-0.00035480,-0.00001172,-0
 .00000204,0.00003979,-0.00003554,-0.00001911,0.00016142,0.00090090,-0.
 00369755,-0.00304895,-0.00008932,0.00019831,-0.00028893,-0.00132969,0.
 00013525,-0.00084122,-0.02347320,0.00043189,-0.01054760,-0.00015077,0.
 00067569,0.00088180,-0.00073655,0.00077437,0.00085847,0.00020401,-0.00
 001720,0.00002769,0.00055136,0.00015653,-0.00013875,-0.00007009,-0.000
 09216,0.00034759,-0.00002263,-0.00005916,-0.00003453,-0.00000390,0.000
 00958,0.00000434,0.00000370,0.00000374,0.00001290,0.00673507,-0.046755
 22,0.00355348,-0.00649054,0.04903127,-0.00000858,0.00000764,0.00001596
 ,0.00000456,0.00000021,-0.00000127,0.00000323,0.00000210,-0.00000051,-
 0.00001236,-0.00000351,0.00000092,-0.00004492,0.00003811,-0.00001854,-
 0.00000132,-0.00001565,0.00000405,-0.00018383,0.00007661,0.00028019,0.
 00012397,0.00004218,0.00006214,0.00002332,0.00005899,-0.00002518,0.000
 66565,-0.00016230,-0.00032169,-0.00007201,-0.00004272,0.00001607,-0.00
 026460,0.00030774,0.00024011,0.00111668,-0.00411427,-0.00277875,0.0004
 0335,-0.00003255,0.00030000,-0.00147680,-0.00039064,-0.00055898,-0.020
 13745,0.00197137,-0.00998197,0.00043006,0.00006701,0.00083697,-0.00147
 506,0.00068308,0.00055844,0.00001107,-0.00001185,-0.00009197,0.0009692
 4,-0.00031680,-0.00019477,0.00025748,0.00010335,0.00040563,-0.00003191
 ,-0.00003467,-0.00004646,-0.00000590,0.00000630,0.00000956,0.00000512,
 0.00001056,0.00000630,-0.09571413,0.00306542,-0.08944200,0.10633595,-0
 .00024166,0.09626628,-0.00000466,0.00000243,-0.00000725,-0.00000030,0.
 00000564,0.00000356,-0.00000251,-0.00000357,-0.00000058,0.00000707,-0.
 00000030,-0.00000126,-0.00000319,-0.00000776,0.00000750,0.00000661,0.0
 0000764,-0.00000610,-0.00000648,0.00000992,-0.00001375,0.00000875,-0.0
 0000068,-0.00000561,-0.00004042,-0.00001802,-0.00002086,-0.00013254,0.
 00001273,-0.00001244,0.00006914,0.00016870,0.00000345,-0.00006127,-0.0
 0009671,0.00015651,0.00056898,-0.00111833,0.00082207,0.00017288,0.0001
 7112,-0.00021242,0.00001162,0.00018083,0.00002120,-0.00066631,-0.00334
 454,0.00120456,0.00060864,-0.00072425,-0.00046132,-0.00005023,0.000739
 44,-0.00034000,0.00018460,0.00006301,0.00033017,0.00000349,0.00010770,
 -0.00008360,-0.00008800,-0.00020629,0.00007166,-0.00002618,-0.00003549
 ,-0.00001285,0.00001197,0.00000534,-0.00000004,-0.00000956,0.00000548,
 0.00001885,-0.05149723,0.02906363,-0.01396834,-0.00300322,0.02716389,-
 0.01305090,0.05069524,-0.00001060,0.00000526,0.00000623,0.00000294,0.0
 0000672,0.00000429,-0.00000178,-0.00000066,-0.00000294,-0.00000435,-0.
 00000393,0.00000067,-0.00002876,0.00000658,-0.00000499,0.00001484,-0.0
 0000029,-0.00001126,-0.00000036,-0.00006238,0.00009259,-0.00000382,0.0
 0000727,-0.00001279,-0.00006569,0.00005040,-0.00003573,-0.00020900,0.0
 0001374,-0.00016775,0.00016156,0.00016825,-0.00008037,-0.00009380,-0.0
 0016484,0.00012720,0.00097818,0.00074449,0.00131323,-0.00083173,0.0005
 3189,-0.00071165,0.00007994,0.00051814,-0.00013192,0.00283694,-0.02447
 236,0.01080572,-0.00055265,-0.00264302,-0.00429428,-0.00047079,0.00074
 436,0.00119078,0.00054108,0.00050074,-0.00093689,-0.00000639,-0.000002
 86,-0.00006339,-0.00013981,0.00045310,-0.00018001,-0.00001095,-0.00007
 409,-0.00003183,0.00000267,0.00000669,0.00000167,-0.00000145,0.0000052
 0,0.00001847,0.02893368,-0.24702454,0.09996165,0.00039652,-0.00001174,
 -0.00001520,-0.03151477,0.27279172,0.00000807,-0.00001191,-0.00000126,
 -0.00000270,-0.00000423,-0.00000277,0.00000043,0.00000150,0.00000282,0
 .00000440,0.00000344,-0.00000216,0.00000568,-0.00001190,-0.00002103,-0
 .00001050,-0.00000228,0.00000886,-0.00006872,0.00008181,-0.00002725,0.
 00001374,-0.00001215,0.00002014,0.00001642,-0.00005907,0.00003546,0.00
 002945,0.00005437,0.00006559,0.00007796,-0.00005951,-0.00009735,-0.000
 01391,0.00013557,-0.00008263,0.00069496,-0.00031335,0.00151496,0.00000
 619,0.00056591,-0.00004263,0.00026978,0.00024043,0.00013114,0.00295649
 ,-0.02061089,0.00956981,-0.00038381,-0.00402602,-0.00245995,-0.0003455
 1,-0.00050394,0.00166211,-0.00005007,0.00043138,-0.00027358,0.00005725
 ,0.00006001,-0.00011118,-0.00017534,0.00026180,0.00016614,0.00002227,0
 .00005921,0.00004605,0.00000058,-0.00000324,-0.00000567,-0.00000534,0.
 00000454,-0.00001711,-0.01405606,0.10021471,-0.09679553,-0.00077962,0.
 01091683,-0.00639645,0.01616183,-0.10794067,0.10363826,0.00000991,-0.0
 0000392,-0.00001696,-0.00000227,0.00000230,0.00000380,-0.00000369,-0.0
 0000161,-0.00000161,0.00001339,0.00000350,-0.00000020,0.00004481,-0.00
 002283,0.00003424,-0.00000061,0.00001261,-0.00000475,0.00007355,-0.000
 01269,-0.00020233,-0.00004230,-0.00001887,-0.00002656,-0.00000152,-0.0
 0004871,0.00001002,-0.00096580,-0.00038000,-0.00040361,0.00004421,0.00
 008376,0.00008046,-0.00110990,-0.00072577,-0.00086396,0.00006552,0.000
 43885,0.00001622,-0.00004801,-0.00001415,-0.00007406,0.00013102,0.0000
 0139,0.00015691,0.00246446,0.00108638,-0.00359128,0.00015972,0.0006061
 2,0.00026505,0.00037127,0.00031148,-0.00031416,-0.00006818,-0.00010291
 ,-0.00002209,0.00049832,-0.00017154,-0.00015165,0.00030175,-0.00020915
 ,0.00012672,-0.00001146,0.00000133,0.00001888,0.00001353,-0.00000092,-
 0.00000101,-0.00001671,0.00000970,0.00000891,-0.16467815,-0.01656825,0
 .12912094,-0.01962894,-0.00344548,0.02213521,0.00316550,-0.00008270,-0
 .00439256,0.17920048,0.00000887,-0.00001351,-0.00000513,-0.00000421,-0
 .00000405,-0.00000486,0.00000002,-0.00000099,0.00000222,0.00000644,0.0
 0000459,-0.00000182,-0.00000602,-0.00001168,-0.00003047,-0.00001196,0.
 00000770,0.00000923,-0.00008334,0.00000064,0.00001944,0.00004145,-0.00
 000900,0.00000471,0.00004998,-0.00007163,0.00004076,-0.00038915,0.0001
 8216,-0.00011775,-0.00003236,-0.00030188,-0.00002048,-0.00043803,0.000
 11849,-0.00016226,0.00018708,0.00071066,0.00070055,-0.00012159,-0.0000
 1988,0.00001145,0.00017410,-0.00005140,0.00012136,0.01834903,0.0030737
 6,-0.01749020,0.00036099,0.00099416,0.00087276,-0.00137301,-0.00375076
 ,-0.00301535,-0.00002474,0.00019926,-0.00037076,-0.00018574,-0.0001138
 1,0.00023642,0.00095316,0.00022949,-0.00141862,0.00002842,0.00007138,0
 .00009111,0.00000049,-0.00000432,-0.00000963,-0.00000601,-0.00000292,-
 0.00001606,-0.01701215,-0.04993566,0.01843646,0.00101177,-0.00091698,-
 0.00102384,-0.02068094,-0.00212901,0.02054315,0.01922341,0.05175458,-0
 .00000221,-0.00001000,-0.00001503,-0.00000236,0.00001163,0.00000556,-0
 .00000033,-0.00000411,0.00000465,0.00002099,0.00000415,-0.00000680,-0.
 00004724,-0.00003639,-0.00001086,-0.00001892,-0.00000735,0.00000598,-0
 .00044420,0.00043855,0.00034639,0.00026859,0.00003479,0.00015296,0.000
 04619,-0.00010290,-0.00003499,0.00056898,-0.00081985,-0.00041158,-0.00
 005913,-0.00001103,-0.00003338,-0.00106130,0.00051488,0.00064433,0.000
 99286,0.00047519,0.00001564,-0.00005026,-0.00005918,-0.00003451,-0.000
 05600,-0.00003487,0.00015374,0.01437084,0.00427403,-0.01512575,-0.0002
 3892,-0.00008423,0.00106320,-0.00181958,-0.00443458,-0.00215018,-0.000
 29090,0.00002714,0.00039088,0.00012717,0.00002448,0.00022775,0.0012276
 7,-0.00010945,-0.00093304,-0.00010067,0.00000616,-0.00004846,0.0000319
 7,0.00000374,0.00001041,-0.00001644,0.00004689,0.00003116,0.12785810,0
 .01758495,-0.18733548,-0.00880474,-0.00145662,0.01082254,0.00936005,0.
 00108453,-0.01049053,-0.14190773,-0.01735943,0.20263314,0.00123976,-0.
 00135947,-0.00094035,-0.00002604,-0.00075076,0.00012639,0.00045372,0.0
 0037863,0.00099227,0.00076200,0.00025374,0.00010078,-0.00871820,0.0140
 7607,-0.00342392,0.00128961,0.00058470,-0.00064850,0.00584909,-0.02016
 156,0.01581726,0.00012027,0.00329251,-0.00339004,-0.03800655,0.0418341
 2,-0.00041256,-0.00020202,0.00561181,-0.00243672,-0.00200526,-0.000847
 42,-0.00093644,-0.00031870,-0.00066725,-0.00002492,0.00083084,-0.00023
 802,-0.00066685,-0.00000312,0.00003657,0.00008878,0.00004867,0.0000676
 2,-0.00002311,0.00023152,0.00008262,0.00034639,-0.00001366,-0.00008532
 ,-0.00002175,-0.00014756,-0.00003247,-0.00023873,0.00001369,-0.0000448
 4,0.00005384,-0.00019455,-0.00001082,0.00002670,0.00005141,0.00001131,
 0.00000562,-0.09191122,0.00038005,-0.02797022,0.00229184,-0.01762899,0
 .03109215,-0.00397384,0.01396643,-0.02247283,-0.00011997,0.00013003,-0
 .00006793,-0.00016237,-0.00006210,-0.00005649,0.00002311,-0.00006266,0
 .00006201,0.00005362,0.00008436,0.00014830,0.32711352,-0.00029185,0.00
 164274,-0.00008641,0.00020031,0.00015674,0.00039886,0.00004624,-0.0004
 9181,0.00069110,-0.00028103,-0.00038813,0.00044667,0.01454737,-0.03034
 613,0.03517552,0.00375246,-0.00776195,-0.00132033,-0.00323101,-0.00153
 634,0.00997607,-0.00025497,0.00165087,-0.00133623,0.01997908,0.0085218
 5,-0.00758145,0.00056761,-0.00124686,0.00043262,0.00020416,0.00040278,
 -0.00028154,0.00001387,-0.00017839,0.00011059,-0.00006935,-0.00009725,
 0.00034858,0.00015627,0.00007786,-0.00019422,0.00000235,0.00003796,-0.
 00002287,0.00002312,0.00002851,-0.00011433,-0.00004369,0.00005331,-0.0
 0002323,0.00003782,-0.00001216,0.00004977,0.00001343,0.00002162,-0.000
 01949,0.00002583,0.00000293,-0.00001321,-0.00000633,0.00000429,0.00000
 826,0.02632745,-0.08484225,0.04823291,-0.00198993,-0.00249087,0.003823
 77,0.00059955,0.00924419,-0.00277146,-0.00000304,-0.00006606,0.0000424
 3,0.00000669,0.00002690,-0.00000127,0.00002747,0.00005002,-0.00002975,
 0.00001107,-0.00002627,-0.00001330,-0.01616580,0.15461582,-0.00148948,
 -0.00109772,0.00088999,0.00058786,-0.00006504,0.00064032,0.00096714,0.
 00006272,0.00108467,-0.00023849,-0.00021438,0.00006525,-0.00583726,0.0
 2051505,-0.00930646,-0.00079876,0.00126573,0.00182889,0.00252967,0.013
 95581,-0.01278437,0.00019481,-0.00223000,0.00251114,0.01476085,-0.0215
 4041,0.00176511,-0.00059317,-0.00357096,0.00112303,0.00125316,0.000264
 89,0.00060283,0.00051498,0.00051436,0.00019691,-0.00026656,0.00040009,
 0.00029570,0.00011395,-0.00019940,-0.00018323,-0.00014155,0.00005133,0
 .00013505,-0.00011288,-0.00010491,-0.00008697,0.00003086,0.00003462,0.
 00002593,0.00004860,0.00004993,0.00008263,0.00000367,-0.00000497,-0.00
 002504,0.00007433,-0.00000296,-0.00000229,-0.00003141,0.00001470,0.000
 01474,-0.05754584,0.05269503,-0.15738254,0.00087708,0.00846896,-0.0166
 4276,-0.00771881,0.01949335,-0.03776278,0.00011852,-0.00004578,-0.0000
 3348,0.00003800,0.00004287,0.00004140,0.00000447,0.00003369,-0.0000405
 2,-0.00002600,-0.00006050,0.00001199,-0.01545974,-0.11631878,0.2801963
 8,-0.00140685,0.00064169,0.00131020,0.00046970,0.00065805,0.00011629,-
 0.00012890,-0.00086309,-0.00052844,-0.00066367,0.00004407,-0.00033280,
 0.00731324,-0.00652964,-0.00571233,-0.00313223,0.00290038,0.00110363,-
 0.00897356,0.06285210,-0.04106232,0.00009025,-0.00543203,0.00563194,-0
 .00101695,-0.06595810,0.02201190,0.00138295,-0.00714396,0.00363032,0.0
 0214091,0.00110970,0.00133097,0.00044114,0.00085865,0.00060547,-0.0008
 3244,-0.00018925,0.00143258,-0.00003140,0.00014304,-0.00042856,-0.0001
 6368,0.00013706,0.00004821,-0.00016554,-0.00007002,-0.00043916,-0.0000
 0915,0.00014033,-0.00001362,0.00017963,0.00000731,0.00026663,0.0000153
 8,0.00005750,-0.00007433,0.00018225,0.00001646,-0.00004729,-0.00005426
 ,0.00000788,0.00001344,-0.01914038,-0.00037631,0.02976913,0.00373026,-
 0.00105371,0.00062119,0.00373458,0.00129335,-0.00376154,0.00011125,-0.
 00023714,0.00009080,0.00011181,0.00011654,0.00005136,0.00005451,0.0001
 4369,-0.00010337,-0.00003350,-0.00011032,-0.00010079,-0.19456963,-0.04
 420519,0.06814199,0.21036429,0.00033206,-0.00052208,-0.00035833,-0.000
 00962,-0.00018820,-0.00010375,-0.00025606,0.00012435,0.00012245,0.0003
 4626,0.00004691,-0.00005874,-0.00489647,0.00861270,0.00104101,0.001262
 96,-0.00088896,-0.00046762,0.02232545,-0.10718320,0.04992485,-0.000371
 40,0.00270760,-0.00328801,-0.03689984,0.02247912,-0.01508406,-0.003274
 61,0.00607873,-0.00430173,-0.00071671,-0.00089000,0.00038669,0.0002193
 1,0.00005669,0.00035134,0.00075753,-0.00016820,-0.00046645,0.00054668,
 0.00036797,-0.00010802,-0.00002218,-0.00004411,0.00005253,0.00020744,0
 .00034206,-0.00008189,-0.00017409,-0.00004742,-0.00003393,-0.00001543,
 -0.00002659,-0.00006607,0.00001556,-0.00000356,0.00002023,-0.00005742,
 -0.00000490,-0.00000145,0.00002020,-0.00000321,0.00000286,-0.01956828,
 -0.00943779,0.00902212,0.00067392,-0.00075287,0.00261440,0.00127595,0.
 00094315,-0.00004557,-0.00007538,0.00002906,0.00003191,-0.00004796,-0.
 00002527,-0.00003371,0.00001667,-0.00001486,0.00001424,0.00001760,0.00
 001686,0.00001223,-0.02267307,-0.04705393,0.02759269,0.06104093,0.1254
 4996,0.00030904,0.00022781,-0.00120102,-0.00001579,-0.00012982,0.00022
 961,0.00019287,0.00033306,0.00047748,0.00010939,-0.00000922,0.00018121
 ,-0.00234393,-0.00030210,0.00166658,0.00120369,-0.00099396,-0.00000042
 ,-0.00038928,0.00113803,0.00822191,-0.00021996,0.00249709,-0.00093667,
 0.00153128,0.01760937,-0.01868199,0.00041505,0.00200349,-0.00104502,-0
 .00062545,-0.00030593,-0.00020417,0.00009303,-0.00016000,0.00044536,0.
 00045983,0.00015001,-0.00057182,-0.00024376,-0.00014361,0.00023958,-0.
 00000643,0.00003766,0.00005586,0.00002588,-0.00009550,0.00021127,0.000
 04585,-0.00003588,0.00002562,-0.00007867,0.00001291,-0.00011397,-0.000
 01797,-0.00003679,0.00001941,-0.00008057,-0.00000866,0.00002393,0.0000
 1313,0.00001898,0.00000978,0.05077450,0.01054814,-0.02841735,-0.000288
 50,0.00587913,-0.00622771,0.00243788,-0.00198502,0.00665322,-0.0000338
 5,0.00006481,-0.00007527,-0.00008097,-0.00001300,-0.00000801,0.0000314
 1,-0.00001904,0.00000628,0.00002315,0.00001753,0.00011026,0.03033064,0
 .03039072,-0.05726152,-0.08357147,-0.06669021,0.09616757\\-0.00000130,
 0.00000082,0.00000624,-0.00000193,0.00000035,0.00000909,-0.00000022,0.
 00000158,0.00000754,0.00000040,0.00000252,0.00000864,-0.00000170,0.,0.
 00000854,0.00000215,0.00000320,0.00000411,-0.00000129,0.00000011,0.000
 00510,-0.00000096,-0.00000177,0.00000213,-0.00000087,-0.00000186,-0.00
 000140,0.00000331,0.00000006,-0.00000062,0.00000065,0.00000143,0.00000
 210,-0.00000031,0.00000198,0.00000005,-0.00000110,0.00000032,0.0000014
 8,-0.00000094,-0.00000228,-0.00000342,-0.00000187,-0.00000305,-0.00000
 271,0.00000466,-0.00000537,-0.00001030,-0.00000038,0.00000008,-0.00000
 164,0.00000019,-0.00000112,-0.00000720,-0.00000328,-0.00000457,-0.0000
 0492,-0.00000117,-0.00000249,-0.00000705,-0.00000421,-0.00000418,-0.00
 000203,0.00000156,0.00000214,0.00000035,0.00000201,0.00000398,0.000004
 16,0.00000309,0.00000228,0.00000033,-0.00000019,-0.00000005,-0.0000054
 2,0.00000286,0.00000124,-0.00000677,0.00000054,0.00000070,-0.00000790,
 0.00000319,0.00000440,-0.00000285,-0.00000329,-0.00000037,0.00000687,0
 .00000044,-0.00000009,-0.00000251\\\@
 Job cpu time:  0 days  7 hours 58 minutes 27.7 seconds.
 File lengths (MBytes):  RWF=  72396 Int=      0 D2E=      0 Chk=     33 Scr=      1
 Normal termination of Gaussian 09 at Sun Feb 16 04:28:27 2014.
