 Entering Gaussian System, Link 0=g09
 Initial command:
 /usr/caen/gaussian-09revc/g09/l1.exe /scratch/avioli_flux/hetanjin/scratch/Gau-59330.inp -scrdir=/scratch/avioli_flux/hetanjin/scratch/
 Entering Link 1 = /usr/caen/gaussian-09revc/g09/l1.exe PID=     59331.
  
 Copyright (c) 1988,1990,1992,1993,1995,1998,2003,2009,2011,
            Gaussian, Inc.  All Rights Reserved.
  
 This is part of the Gaussian(R) 09 program.  It is based on
 the Gaussian(R) 03 system (copyright 2003, Gaussian, Inc.),
 the Gaussian(R) 98 system (copyright 1998, Gaussian, Inc.),
 the Gaussian(R) 94 system (copyright 1995, Gaussian, Inc.),
 the Gaussian 92(TM) system (copyright 1992, Gaussian, Inc.),
 the Gaussian 90(TM) system (copyright 1990, Gaussian, Inc.),
 the Gaussian 88(TM) system (copyright 1988, Gaussian, Inc.),
 the Gaussian 86(TM) system (copyright 1986, Carnegie Mellon
 University), and the Gaussian 82(TM) system (copyright 1983,
 Carnegie Mellon University). Gaussian is a federally registered
 trademark of Gaussian, Inc.
  
 This software contains proprietary and confidential information,
 including trade secrets, belonging to Gaussian, Inc.
  
 This software is provided under written license and may be
 used, copied, transmitted, or stored only in accord with that
 written license.
  
 The following legend is applicable only to US Government
 contracts under FAR:
  
                    RESTRICTED RIGHTS LEGEND
  
 Use, reproduction and disclosure by the US Government is
 subject to restrictions as set forth in subparagraphs (a)
 and (c) of the Commercial Computer Software - Restricted
 Rights clause in FAR 52.227-19.
  
 Gaussian, Inc.
 340 Quinnipiac St., Bldg. 40, Wallingford CT 06492
  
  
 ---------------------------------------------------------------
 Warning -- This program may not be used in any manner that
 competes with the business of Gaussian, Inc. or will provide
 assistance to any competitor of Gaussian, Inc.  The licensee
 of this program is prohibited from giving any competitor of
 Gaussian, Inc. access to this program.  By using this program,
 the user acknowledges that Gaussian, Inc. is engaged in the
 business of creating and licensing software in the field of
 computational chemistry and represents and warrants to the
 licensee that it is not a competitor of Gaussian, Inc. and that
 it will not use this program in any manner prohibited above.
 ---------------------------------------------------------------
  

 Cite this work as:
 Gaussian 09, Revision C.01,
 M. J. Frisch, G. W. Trucks, H. B. Schlegel, G. E. Scuseria, 
 M. A. Robb, J. R. Cheeseman, G. Scalmani, V. Barone, B. Mennucci, 
 G. A. Petersson, H. Nakatsuji, M. Caricato, X. Li, H. P. Hratchian, 
 A. F. Izmaylov, J. Bloino, G. Zheng, J. L. Sonnenberg, M. Hada, 
 M. Ehara, K. Toyota, R. Fukuda, J. Hasegawa, M. Ishida, T. Nakajima, 
 Y. Honda, O. Kitao, H. Nakai, T. Vreven, J. A. Montgomery, Jr., 
 J. E. Peralta, F. Ogliaro, M. Bearpark, J. J. Heyd, E. Brothers, 
 K. N. Kudin, V. N. Staroverov, T. Keith, R. Kobayashi, J. Normand, 
 K. Raghavachari, A. Rendell, J. C. Burant, S. S. Iyengar, J. Tomasi, 
 M. Cossi, N. Rega, J. M. Millam, M. Klene, J. E. Knox, J. B. Cross, 
 V. Bakken, C. Adamo, J. Jaramillo, R. Gomperts, R. E. Stratmann, 
 O. Yazyev, A. J. Austin, R. Cammi, C. Pomelli, J. W. Ochterski, 
 R. L. Martin, K. Morokuma, V. G. Zakrzewski, G. A. Voth, 
 P. Salvador, J. J. Dannenberg, S. Dapprich, A. D. Daniels, 
 O. Farkas, J. B. Foresman, J. V. Ortiz, J. Cioslowski, 
 and D. J. Fox, Gaussian, Inc., Wallingford CT, 2010.
 
 ******************************************
 Gaussian 09:  EM64L-G09RevC.01 23-Sep-2011
                17-Feb-2014 
 ******************************************
 %mem=30GB
 %nprocshared=8
 Will use up to    8 processors via shared memory.
 %chk=TS_1_1e.chk
 -------------------------------
 #p cbs-qb3 opt=(TS,calcfc) freq
 -------------------------------
 1/5=1,10=4,14=-1,18=20,26=3,38=1/1,3;
 2/9=110,12=2,17=6,18=5,40=1/2;
 3/5=4,6=6,7=700,11=2,16=1,25=1,30=1,71=2,74=-5/1,2,3;
 4//1;
 5/5=2,38=5/2;
 8/6=4,10=90,11=11/1;
 11/6=1,8=1,9=11,15=111,16=1/1,2,10;
 10/6=1,7=6,13=1/2;
 6/7=2,8=2,9=2,10=2,28=1/1;
 7/10=1,18=20,25=1/1,2,3,16;
 1/5=1,10=4,14=-1,18=20/3(2);
 2/9=110/2;
 99//99;
 2/9=110/2;
 3/5=4,6=6,7=700,11=2,16=1,25=1,30=1,71=1,74=-5/1,2,3;
 4/5=5,16=3/1;
 5/5=2,38=5/2;
 7//1,2,3,16;
 1/5=1,14=-1,18=20/3(-5);
 2/9=110/2;
 6/7=2,8=2,9=2,10=2,19=2,28=1/1;
 99/9=1/99;
 Leave Link    1 at Mon Feb 17 01:50:15 2014, MaxMem= 4026531840 cpu:       1.3
 (Enter /usr/caen/gaussian-09revc/g09/l101.exe)
 ------------------------------------
 TS_1_1e using cbs-qb3 to cal. energy
 ------------------------------------
 Charge =  0 Multiplicity = 2
 Symbolic Z-Matrix:
 C                    -3.54254  -1.39942   0.26977 
 H                    -3.39431  -2.30642   0.86191 
 H                    -3.71787  -1.70012  -0.76854 
 H                    -4.45259  -0.91177   0.63285 
 C                    -2.32789  -0.46859   0.37671 
 H                    -2.15001  -0.2657    1.4385 
 C                    -1.04431  -1.11421  -0.19403 
 H                    -1.06297  -2.19245   0.02442 
 H                    -1.03612  -1.02439  -1.28621 
 C                     0.23528  -0.53563   0.38333 
 H                     0.32758  -0.69477   1.46299 
 H                    -0.05231   0.79751   0.38113 
 C                     1.51223  -0.75926  -0.3905 
 H                     1.44052  -0.26     -1.3667 
 H                     1.57899  -1.83602  -0.62072 
 C                     2.81202  -0.33095   0.3161 
 H                     2.83424  -0.83154   1.29406 
 C                     4.0348   -0.80673  -0.48072 
 H                     4.05643  -0.34498  -1.47395 
 H                     4.96514  -0.53926   0.02835 
 H                     4.02808  -1.89239  -0.61765 
 C                    -2.65251   0.87134  -0.31501 
 H                    -3.22223   0.69996  -1.23458 
 H                    -3.23482   1.52337   0.34553 
 C                     2.87597   1.18374   0.5561 
 H                     3.80832   1.45627   1.05925 
 H                     2.8349    1.72998  -0.39214 
 H                     2.04879   1.54061   1.17389 
 O                    -1.50113   1.57584  -0.79418 
 O                    -0.62614   1.82546   0.28508 
 
 NAtoms=     30 NQM=        0 NQMF=       0 NMMI=     30 NMMIF=      0
                NMic=       0 NMicF=      0.
                    Isotopes and Nuclear Properties:
 (Nuclear quadrupole moments (NQMom) in fm**2, nuclear magnetic moments (NMagM)
  in nuclear magnetons)

  Atom         1           2           3           4           5           6           7           8           9          10
 IAtWgt=          12           1           1           1          12           1          12           1           1          12
 AtmWgt=  12.0000000   1.0078250   1.0078250   1.0078250  12.0000000   1.0078250  12.0000000   1.0078250   1.0078250  12.0000000
 NucSpn=           0           1           1           1           0           1           0           1           1           0
 AtZEff=   0.0000000   0.0000000   0.0000000   0.0000000   0.0000000   0.0000000   0.0000000   0.0000000   0.0000000   0.0000000
 NQMom=    0.0000000   0.0000000   0.0000000   0.0000000   0.0000000   0.0000000   0.0000000   0.0000000   0.0000000   0.0000000
 NMagM=    0.0000000   2.7928460   2.7928460   2.7928460   0.0000000   2.7928460   0.0000000   2.7928460   2.7928460   0.0000000

  Atom        11          12          13          14          15          16          17          18          19          20
 IAtWgt=           1           1          12           1           1          12           1          12           1           1
 AtmWgt=   1.0078250   1.0078250  12.0000000   1.0078250   1.0078250  12.0000000   1.0078250  12.0000000   1.0078250   1.0078250
 NucSpn=           1           1           0           1           1           0           1           0           1           1
 AtZEff=   0.0000000   0.0000000   0.0000000   0.0000000   0.0000000   0.0000000   0.0000000   0.0000000   0.0000000   0.0000000
 NQMom=    0.0000000   0.0000000   0.0000000   0.0000000   0.0000000   0.0000000   0.0000000   0.0000000   0.0000000   0.0000000
 NMagM=    2.7928460   2.7928460   0.0000000   2.7928460   2.7928460   0.0000000   2.7928460   0.0000000   2.7928460   2.7928460

  Atom        21          22          23          24          25          26          27          28          29          30
 IAtWgt=           1          12           1           1          12           1           1           1          16          16
 AtmWgt=   1.0078250  12.0000000   1.0078250   1.0078250  12.0000000   1.0078250   1.0078250   1.0078250  15.9949146  15.9949146
 NucSpn=           1           0           1           1           0           1           1           1           0           0
 AtZEff=   0.0000000   0.0000000   0.0000000   0.0000000   0.0000000   0.0000000   0.0000000   0.0000000   0.0000000   0.0000000
 NQMom=    0.0000000   0.0000000   0.0000000   0.0000000   0.0000000   0.0000000   0.0000000   0.0000000   0.0000000   0.0000000
 NMagM=    2.7928460   0.0000000   2.7928460   2.7928460   0.0000000   2.7928460   2.7928460   2.7928460   0.0000000   0.0000000
 Leave Link  101 at Mon Feb 17 01:50:16 2014, MaxMem= 4026531840 cpu:       2.8
 (Enter /usr/caen/gaussian-09revc/g09/l103.exe)

 GradGradGradGradGradGradGradGradGradGradGradGradGradGradGradGradGradGrad
 Berny optimization.
 Initialization pass.
                           ----------------------------
                           !    Initial Parameters    !
                           ! (Angstroms and Degrees)  !
 --------------------------                            --------------------------
 ! Name  Definition              Value          Derivative Info.                !
 --------------------------------------------------------------------------------
 ! R1    R(1,2)                  1.0933         calculate D2E/DX2 analytically  !
 ! R2    R(1,3)                  1.0951         calculate D2E/DX2 analytically  !
 ! R3    R(1,4)                  1.0944         calculate D2E/DX2 analytically  !
 ! R4    R(1,5)                  1.534          calculate D2E/DX2 analytically  !
 ! R5    R(5,6)                  1.0955         calculate D2E/DX2 analytically  !
 ! R6    R(5,7)                  1.546          calculate D2E/DX2 analytically  !
 ! R7    R(5,22)                 1.5425         calculate D2E/DX2 analytically  !
 ! R8    R(7,8)                  1.1003         calculate D2E/DX2 analytically  !
 ! R9    R(7,9)                  1.0959         calculate D2E/DX2 analytically  !
 ! R10   R(7,10)                 1.5184         calculate D2E/DX2 analytically  !
 ! R11   R(10,11)                1.0952         calculate D2E/DX2 analytically  !
 ! R12   R(10,12)                1.3638         calculate D2E/DX2 analytically  !
 ! R13   R(10,13)                1.5098         calculate D2E/DX2 analytically  !
 ! R14   R(12,30)                1.1812         calculate D2E/DX2 analytically  !
 ! R15   R(13,14)                1.0988         calculate D2E/DX2 analytically  !
 ! R16   R(13,15)                1.1031         calculate D2E/DX2 analytically  !
 ! R17   R(13,16)                1.5402         calculate D2E/DX2 analytically  !
 ! R18   R(16,17)                1.0989         calculate D2E/DX2 analytically  !
 ! R19   R(16,18)                1.5351         calculate D2E/DX2 analytically  !
 ! R20   R(16,25)                1.5349         calculate D2E/DX2 analytically  !
 ! R21   R(18,19)                1.0955         calculate D2E/DX2 analytically  !
 ! R22   R(18,20)                1.0937         calculate D2E/DX2 analytically  !
 ! R23   R(18,21)                1.0943         calculate D2E/DX2 analytically  !
 ! R24   R(22,23)                1.0952         calculate D2E/DX2 analytically  !
 ! R25   R(22,24)                1.0957         calculate D2E/DX2 analytically  !
 ! R26   R(22,29)                1.4323         calculate D2E/DX2 analytically  !
 ! R27   R(25,26)                1.0939         calculate D2E/DX2 analytically  !
 ! R28   R(25,27)                1.0951         calculate D2E/DX2 analytically  !
 ! R29   R(25,28)                1.0924         calculate D2E/DX2 analytically  !
 ! R30   R(29,30)                1.4116         calculate D2E/DX2 analytically  !
 ! A1    A(2,1,3)              107.905          calculate D2E/DX2 analytically  !
 ! A2    A(2,1,4)              107.6202         calculate D2E/DX2 analytically  !
 ! A3    A(2,1,5)              110.9946         calculate D2E/DX2 analytically  !
 ! A4    A(3,1,4)              107.684          calculate D2E/DX2 analytically  !
 ! A5    A(3,1,5)              111.0686         calculate D2E/DX2 analytically  !
 ! A6    A(4,1,5)              111.4015         calculate D2E/DX2 analytically  !
 ! A7    A(1,5,6)              107.9692         calculate D2E/DX2 analytically  !
 ! A8    A(1,5,7)              112.226          calculate D2E/DX2 analytically  !
 ! A9    A(1,5,22)             109.22           calculate D2E/DX2 analytically  !
 ! A10   A(6,5,7)              107.4778         calculate D2E/DX2 analytically  !
 ! A11   A(6,5,22)             107.9341         calculate D2E/DX2 analytically  !
 ! A12   A(7,5,22)             111.8356         calculate D2E/DX2 analytically  !
 ! A13   A(5,7,8)              108.775          calculate D2E/DX2 analytically  !
 ! A14   A(5,7,9)              109.8703         calculate D2E/DX2 analytically  !
 ! A15   A(5,7,10)             113.5893         calculate D2E/DX2 analytically  !
 ! A16   A(8,7,9)              106.1591         calculate D2E/DX2 analytically  !
 ! A17   A(8,7,10)             108.193          calculate D2E/DX2 analytically  !
 ! A18   A(9,7,10)             109.9641         calculate D2E/DX2 analytically  !
 ! A19   A(7,10,11)            112.9853         calculate D2E/DX2 analytically  !
 ! A20   A(7,10,12)            101.196          calculate D2E/DX2 analytically  !
 ! A21   A(7,10,13)            117.4802         calculate D2E/DX2 analytically  !
 ! A22   A(11,10,12)            99.2876         calculate D2E/DX2 analytically  !
 ! A23   A(11,10,13)           114.3598         calculate D2E/DX2 analytically  !
 ! A24   A(12,10,13)           108.8032         calculate D2E/DX2 analytically  !
 ! A25   A(10,12,30)           162.4165         calculate D2E/DX2 analytically  !
 ! A26   A(10,13,14)           109.4424         calculate D2E/DX2 analytically  !
 ! A27   A(10,13,15)           107.6218         calculate D2E/DX2 analytically  !
 ! A28   A(10,13,16)           115.9406         calculate D2E/DX2 analytically  !
 ! A29   A(14,13,15)           105.1914         calculate D2E/DX2 analytically  !
 ! A30   A(14,13,16)           109.6519         calculate D2E/DX2 analytically  !
 ! A31   A(15,13,16)           108.4285         calculate D2E/DX2 analytically  !
 ! A32   A(13,16,17)           107.3782         calculate D2E/DX2 analytically  !
 ! A33   A(13,16,18)           110.3588         calculate D2E/DX2 analytically  !
 ! A34   A(13,16,25)           112.4155         calculate D2E/DX2 analytically  !
 ! A35   A(17,16,18)           107.7376         calculate D2E/DX2 analytically  !
 ! A36   A(17,16,25)           108.0323         calculate D2E/DX2 analytically  !
 ! A37   A(18,16,25)           110.7217         calculate D2E/DX2 analytically  !
 ! A38   A(16,18,19)           110.8363         calculate D2E/DX2 analytically  !
 ! A39   A(16,18,20)           111.1108         calculate D2E/DX2 analytically  !
 ! A40   A(16,18,21)           111.5655         calculate D2E/DX2 analytically  !
 ! A41   A(19,18,20)           107.5844         calculate D2E/DX2 analytically  !
 ! A42   A(19,18,21)           107.748          calculate D2E/DX2 analytically  !
 ! A43   A(20,18,21)           107.8235         calculate D2E/DX2 analytically  !
 ! A44   A(5,22,23)            110.491          calculate D2E/DX2 analytically  !
 ! A45   A(5,22,24)            111.0042         calculate D2E/DX2 analytically  !
 ! A46   A(5,22,29)            114.0859         calculate D2E/DX2 analytically  !
 ! A47   A(23,22,24)           108.8341         calculate D2E/DX2 analytically  !
 ! A48   A(23,22,29)           102.3701         calculate D2E/DX2 analytically  !
 ! A49   A(24,22,29)           109.6452         calculate D2E/DX2 analytically  !
 ! A50   A(16,25,26)           110.6878         calculate D2E/DX2 analytically  !
 ! A51   A(16,25,27)           110.8109         calculate D2E/DX2 analytically  !
 ! A52   A(16,25,28)           112.2883         calculate D2E/DX2 analytically  !
 ! A53   A(26,25,27)           107.8158         calculate D2E/DX2 analytically  !
 ! A54   A(26,25,28)           107.6905         calculate D2E/DX2 analytically  !
 ! A55   A(27,25,28)           107.3587         calculate D2E/DX2 analytically  !
 ! A56   A(22,29,30)           109.2363         calculate D2E/DX2 analytically  !
 ! A57   A(12,30,29)           102.0872         calculate D2E/DX2 analytically  !
 ! D1    D(2,1,5,6)            -55.4352         calculate D2E/DX2 analytically  !
 ! D2    D(2,1,5,7)             62.8335         calculate D2E/DX2 analytically  !
 ! D3    D(2,1,5,22)          -172.5575         calculate D2E/DX2 analytically  !
 ! D4    D(3,1,5,6)           -175.4835         calculate D2E/DX2 analytically  !
 ! D5    D(3,1,5,7)            -57.2148         calculate D2E/DX2 analytically  !
 ! D6    D(3,1,5,22)            67.3943         calculate D2E/DX2 analytically  !
 ! D7    D(4,1,5,6)             64.4753         calculate D2E/DX2 analytically  !
 ! D8    D(4,1,5,7)           -177.256          calculate D2E/DX2 analytically  !
 ! D9    D(4,1,5,22)           -52.6469         calculate D2E/DX2 analytically  !
 ! D10   D(1,5,7,8)            -35.2257         calculate D2E/DX2 analytically  !
 ! D11   D(1,5,7,9)             80.5858         calculate D2E/DX2 analytically  !
 ! D12   D(1,5,7,10)          -155.7748         calculate D2E/DX2 analytically  !
 ! D13   D(6,5,7,8)             83.3332         calculate D2E/DX2 analytically  !
 ! D14   D(6,5,7,9)           -160.8552         calculate D2E/DX2 analytically  !
 ! D15   D(6,5,7,10)           -37.2159         calculate D2E/DX2 analytically  !
 ! D16   D(22,5,7,8)          -158.3761         calculate D2E/DX2 analytically  !
 ! D17   D(22,5,7,9)           -42.5645         calculate D2E/DX2 analytically  !
 ! D18   D(22,5,7,10)           81.0748         calculate D2E/DX2 analytically  !
 ! D19   D(1,5,22,23)          -39.6948         calculate D2E/DX2 analytically  !
 ! D20   D(1,5,22,24)           81.1456         calculate D2E/DX2 analytically  !
 ! D21   D(1,5,22,29)         -154.3756         calculate D2E/DX2 analytically  !
 ! D22   D(6,5,22,23)         -156.8392         calculate D2E/DX2 analytically  !
 ! D23   D(6,5,22,24)          -35.9989         calculate D2E/DX2 analytically  !
 ! D24   D(6,5,22,29)           88.48           calculate D2E/DX2 analytically  !
 ! D25   D(7,5,22,23)           85.1422         calculate D2E/DX2 analytically  !
 ! D26   D(7,5,22,24)         -154.0174         calculate D2E/DX2 analytically  !
 ! D27   D(7,5,22,29)          -29.5386         calculate D2E/DX2 analytically  !
 ! D28   D(5,7,10,11)           62.5014         calculate D2E/DX2 analytically  !
 ! D29   D(5,7,10,12)          -42.727          calculate D2E/DX2 analytically  !
 ! D30   D(5,7,10,13)         -160.9763         calculate D2E/DX2 analytically  !
 ! D31   D(8,7,10,11)          -58.3752         calculate D2E/DX2 analytically  !
 ! D32   D(8,7,10,12)         -163.6035         calculate D2E/DX2 analytically  !
 ! D33   D(8,7,10,13)           78.1471         calculate D2E/DX2 analytically  !
 ! D34   D(9,7,10,11)         -173.9104         calculate D2E/DX2 analytically  !
 ! D35   D(9,7,10,12)           80.8613         calculate D2E/DX2 analytically  !
 ! D36   D(9,7,10,13)          -37.3881         calculate D2E/DX2 analytically  !
 ! D37   D(7,10,12,30)           7.5126         calculate D2E/DX2 analytically  !
 ! D38   D(11,10,12,30)       -108.3189         calculate D2E/DX2 analytically  !
 ! D39   D(13,10,12,30)        131.8669         calculate D2E/DX2 analytically  !
 ! D40   D(7,10,13,14)          63.5005         calculate D2E/DX2 analytically  !
 ! D41   D(7,10,13,15)         -50.3088         calculate D2E/DX2 analytically  !
 ! D42   D(7,10,13,16)        -171.8669         calculate D2E/DX2 analytically  !
 ! D43   D(11,10,13,14)       -160.5544         calculate D2E/DX2 analytically  !
 ! D44   D(11,10,13,15)         85.6362         calculate D2E/DX2 analytically  !
 ! D45   D(11,10,13,16)        -35.9218         calculate D2E/DX2 analytically  !
 ! D46   D(12,10,13,14)        -50.5974         calculate D2E/DX2 analytically  !
 ! D47   D(12,10,13,15)       -164.4068         calculate D2E/DX2 analytically  !
 ! D48   D(12,10,13,16)         74.0352         calculate D2E/DX2 analytically  !
 ! D49   D(10,12,30,29)        -35.4829         calculate D2E/DX2 analytically  !
 ! D50   D(10,13,16,17)         54.1823         calculate D2E/DX2 analytically  !
 ! D51   D(10,13,16,18)        171.3524         calculate D2E/DX2 analytically  !
 ! D52   D(10,13,16,25)        -64.5007         calculate D2E/DX2 analytically  !
 ! D53   D(14,13,16,17)        178.707          calculate D2E/DX2 analytically  !
 ! D54   D(14,13,16,18)        -64.1229         calculate D2E/DX2 analytically  !
 ! D55   D(14,13,16,25)         60.0239         calculate D2E/DX2 analytically  !
 ! D56   D(15,13,16,17)        -66.9447         calculate D2E/DX2 analytically  !
 ! D57   D(15,13,16,18)         50.2254         calculate D2E/DX2 analytically  !
 ! D58   D(15,13,16,25)        174.3723         calculate D2E/DX2 analytically  !
 ! D59   D(13,16,18,19)         62.4104         calculate D2E/DX2 analytically  !
 ! D60   D(13,16,18,20)       -178.0222         calculate D2E/DX2 analytically  !
 ! D61   D(13,16,18,21)        -57.6646         calculate D2E/DX2 analytically  !
 ! D62   D(17,16,18,19)        179.358          calculate D2E/DX2 analytically  !
 ! D63   D(17,16,18,20)        -61.0747         calculate D2E/DX2 analytically  !
 ! D64   D(17,16,18,21)         59.2829         calculate D2E/DX2 analytically  !
 ! D65   D(25,16,18,19)        -62.7059         calculate D2E/DX2 analytically  !
 ! D66   D(25,16,18,20)         56.8614         calculate D2E/DX2 analytically  !
 ! D67   D(25,16,18,21)        177.219          calculate D2E/DX2 analytically  !
 ! D68   D(13,16,25,26)        179.9469         calculate D2E/DX2 analytically  !
 ! D69   D(13,16,25,27)        -60.4888         calculate D2E/DX2 analytically  !
 ! D70   D(13,16,25,28)         59.5602         calculate D2E/DX2 analytically  !
 ! D71   D(17,16,25,26)         61.6486         calculate D2E/DX2 analytically  !
 ! D72   D(17,16,25,27)       -178.787          calculate D2E/DX2 analytically  !
 ! D73   D(17,16,25,28)        -58.738          calculate D2E/DX2 analytically  !
 ! D74   D(18,16,25,26)        -56.1075         calculate D2E/DX2 analytically  !
 ! D75   D(18,16,25,27)         63.4568         calculate D2E/DX2 analytically  !
 ! D76   D(18,16,25,28)       -176.4942         calculate D2E/DX2 analytically  !
 ! D77   D(5,22,29,30)         -58.2052         calculate D2E/DX2 analytically  !
 ! D78   D(23,22,29,30)       -177.5852         calculate D2E/DX2 analytically  !
 ! D79   D(24,22,29,30)         66.9968         calculate D2E/DX2 analytically  !
 ! D80   D(22,29,30,12)         81.672          calculate D2E/DX2 analytically  !
 --------------------------------------------------------------------------------
 Trust Radius=3.00D-01 FncErr=1.00D-07 GrdErr=1.00D-06
 Number of steps in this run=    177 maximum allowed number of steps=    180.
 Search for a saddle point of order  1.
 GradGradGradGradGradGradGradGradGradGradGradGradGradGradGradGradGradGrad

 Leave Link  103 at Mon Feb 17 01:50:16 2014, MaxMem= 4026531840 cpu:       0.1
 (Enter /usr/caen/gaussian-09revc/g09/l202.exe)
                          Input orientation:                          
 ---------------------------------------------------------------------
 Center     Atomic      Atomic             Coordinates (Angstroms)
 Number     Number       Type             X           Y           Z
 ---------------------------------------------------------------------
      1          6           0       -3.542540   -1.399421    0.269766
      2          1           0       -3.394307   -2.306415    0.861905
      3          1           0       -3.717868   -1.700120   -0.768542
      4          1           0       -4.452587   -0.911771    0.632853
      5          6           0       -2.327885   -0.468591    0.376713
      6          1           0       -2.150009   -0.265697    1.438503
      7          6           0       -1.044308   -1.114214   -0.194030
      8          1           0       -1.062974   -2.192448    0.024418
      9          1           0       -1.036124   -1.024393   -1.286214
     10          6           0        0.235281   -0.535629    0.383325
     11          1           0        0.327577   -0.694767    1.462991
     12          1           0       -0.052307    0.797509    0.381132
     13          6           0        1.512231   -0.759258   -0.390503
     14          1           0        1.440523   -0.260003   -1.366699
     15          1           0        1.578986   -1.836015   -0.620722
     16          6           0        2.812021   -0.330947    0.316097
     17          1           0        2.834242   -0.831543    1.294061
     18          6           0        4.034796   -0.806728   -0.480718
     19          1           0        4.056431   -0.344984   -1.473949
     20          1           0        4.965142   -0.539256    0.028351
     21          1           0        4.028083   -1.892389   -0.617650
     22          6           0       -2.652513    0.871339   -0.315011
     23          1           0       -3.222227    0.699956   -1.234578
     24          1           0       -3.234823    1.523366    0.345532
     25          6           0        2.875974    1.183738    0.556098
     26          1           0        3.808324    1.456274    1.059248
     27          1           0        2.834902    1.729984   -0.392137
     28          1           0        2.048786    1.540606    1.173891
     29          8           0       -1.501128    1.575835   -0.794182
     30          8           0       -0.626137    1.825462    0.285080
 ---------------------------------------------------------------------
                    Distance matrix (angstroms):
                    1          2          3          4          5
     1  C    0.000000
     2  H    1.093270   0.000000
     3  H    1.095100   1.769362   0.000000
     4  H    1.094450   1.765631   1.767828   0.000000
     5  C    1.534037   2.179510   2.181817   2.185492   0.000000
     6  H    2.142526   2.458714   3.063788   2.523559   1.095538
     7  C    2.556876   2.838809   2.796654   3.512988   1.546010
     8  H    2.614830   2.479816   2.814185   3.674208   2.166978
     9  H    2.973860   3.437881   2.813600   3.920169   2.177817
    10  C    3.876979   4.066772   4.279045   4.709549   2.564051
    11  H    4.110733   4.100138   4.728224   4.856561   2.877957
    12  H    4.125607   4.586333   4.582165   4.727311   2.604090
    13  C    5.137750   5.294935   5.327483   6.053889   3.926780
    14  H    5.367235   5.703513   5.388945   6.257136   4.157390
    15  H    5.216667   5.210864   5.300658   6.229410   4.257742
    16  C    6.443930   6.535969   6.759477   7.294671   5.142106
    17  H    6.483442   6.415359   6.923793   7.317206   5.255551
    18  C    7.637443   7.696965   7.809276   8.560768   6.429093
    19  H    7.867448   8.050896   7.922987   8.784261   6.648287
    20  H    8.554462   8.584757   8.796437   9.444459   7.301684
    21  H    7.638381   7.579734   7.749806   8.628275   6.588952
    22  C    2.508080   3.468935   2.820119   2.705216   1.542491
    23  H    2.602506   3.669212   2.494637   2.756583   2.182111
    24  H    2.939917   3.867725   3.444613   2.737772   2.188927
    25  C    6.924740   7.182695   7.317791   7.622654   5.462831
    26  H    7.925495   8.128632   8.363445   8.604191   6.467149
    27  H    7.134638   7.527827   7.405815   7.819013   5.663853
    28  H    6.381546   6.672643   6.894175   6.969557   4.881354
    29  O    3.761847   4.625864   3.955563   4.115303   2.496838
    30  O    4.348047   5.006785   4.806105   4.717532   2.857800
                    6          7          8          9         10
     6  H    0.000000
     7  C    2.146560   0.000000
     8  H    2.625576   1.100298   0.000000
     9  H    3.039810   1.095902   1.755799   0.000000
    10  C    2.622188   1.518370   2.135259   2.154698   0.000000
    11  H    2.514584   2.191740   2.499234   3.086497   1.095227
    12  H    2.578526   2.229251   3.176246   2.658433   1.363807
    13  C    4.123211   2.588530   2.976218   2.714168   1.509775
    14  H    4.556436   2.877362   3.455003   2.593174   2.142700
    15  H    4.540012   2.754040   2.742846   2.817873   2.122418
    16  C    5.087808   3.967998   4.308811   4.225694   2.585731
    17  H    5.018347   4.163829   4.318836   4.655614   2.769766
    18  C    6.498303   5.096473   5.306849   5.139108   3.905942
    19  H    6.856279   5.314833   5.645045   5.141105   4.252881
    20  H    7.258701   6.040987   6.250699   6.162681   4.743164
    21  H    6.711387   5.149190   5.140151   5.181369   4.150674
    22  C    2.149459   2.558003   3.468233   2.673901   3.287337
    23  H    3.037680   3.019484   3.822754   2.784797   4.012311
    24  H    2.360541   3.470780   4.315937   3.740047   4.035159
    25  C    5.304715   4.605636   5.215039   4.855354   3.155841
    26  H    6.213755   5.632597   6.173620   5.926515   4.146225
    27  H    5.673035   4.814247   5.545487   4.834336   3.534455
    28  H    4.578496   4.299594   4.993999   4.706167   2.867847
    29  O    2.966002   2.793784   3.880985   2.686915   2.976562
    30  O    2.832934   3.007675   4.049984   3.280050   2.515242
                   11         12         13         14         15
    11  H    0.000000
    12  H    1.881919   0.000000
    13  C    2.200683   2.338102   0.000000
    14  H    3.071614   2.530175   1.098798   0.000000
    15  H    2.685206   3.255807   1.103115   1.749133   0.000000
    16  C    2.760470   3.079288   1.540191   2.172059   2.159452
    17  H    2.516071   3.437938   2.142591   3.057573   2.500205
    18  C    4.187363   4.474458   2.524624   2.795375   2.666465
    19  H    4.759445   4.650628   2.796146   2.619484   3.014781
    20  H    4.856890   5.204439   3.485173   3.800932   3.683603
    21  H    4.411021   4.988256   2.768590   3.149798   2.449748
    22  C    3.807219   2.692794   4.473213   4.374806   5.032773
    23  H    4.671535   3.559274   5.025620   4.762375   5.464395
    24  H    4.342755   3.264436   5.318519   5.288762   5.949105
    25  C    3.293260   2.958820   2.555598   2.800367   3.490844
    26  H    4.111640   3.974706   3.504626   3.799646   4.316412
    27  H    3.950645   3.131043   2.818827   2.618036   3.787601
    28  H    2.836024   2.365428   2.832771   3.172818   3.852651
    29  O    3.687089   2.021444   3.833530   3.514454   4.599773
    30  O    2.940850   1.181183   3.421960   3.368772   4.369148
                   16         17         18         19         20
    16  C    0.000000
    17  H    1.098865   0.000000
    18  C    1.535077   2.142845   0.000000
    19  H    2.180142   3.064697   1.095529   0.000000
    20  H    2.182228   2.495634   1.093726   1.766466   0.000000
    21  H    2.188331   2.491042   1.094283   1.768761   1.768153
    22  C    5.630712   5.966020   6.896627   6.916105   7.754763
    23  H    6.315022   6.739460   7.450019   7.357177   8.376374
    24  H    6.324845   6.578667   7.678502   7.743619   8.461350
    25  C    1.534914   2.146553   2.525829   2.802064   2.758958
    26  H    2.176936   2.497615   2.746628   3.118201   2.526483
    27  H    2.179347   3.066706   2.807579   2.639686   3.140730
    28  H    2.195689   2.501694   3.491696   3.820621   3.760747
    29  O    4.844769   5.380675   6.035008   5.919298   6.852942
    30  O    4.058570   4.477939   5.407325   5.452656   6.076200
                   21         22         23         24         25
    21  H    0.000000
    22  C    7.236031   0.000000
    23  H    7.724497   1.095240   0.000000
    24  H    8.083620   1.095692   1.781828   0.000000
    25  C    3.488208   5.605407   6.374058   6.123849   0.000000
    26  H    3.751510   6.631225   7.433862   7.079535   1.093943
    27  H    3.820487   5.554723   6.201570   6.117876   1.095090
    28  H    4.348872   4.976641   5.855851   5.348177   1.092366
    29  O    6.529312   1.432343   1.980731   2.075428   4.597393
    30  O    6.024874   2.318763   3.211823   2.626815   3.570720
                   26         27         28         29         30
    26  H    0.000000
    27  H    1.768894   0.000000
    28  H    1.765284   1.762466   0.000000
    29  O    5.624925   4.357357   4.059118   0.000000
    30  O    4.516645   3.527964   2.833080   1.411641   0.000000
 Stoichiometry    C9H19O2(2)
 Framework group  C1[X(C9H19O2)]
 Deg. of freedom    84
 Full point group                 C1      NOp   1
 Largest Abelian subgroup         C1      NOp   1
 Largest concise Abelian subgroup C1      NOp   1
                         Standard orientation:                         
 ---------------------------------------------------------------------
 Center     Atomic      Atomic             Coordinates (Angstroms)
 Number     Number       Type             X           Y           Z
 ---------------------------------------------------------------------
      1          6           0        3.542540   -1.399421   -0.269766
      2          1           0        3.394307   -2.306415   -0.861905
      3          1           0        3.717868   -1.700120    0.768542
      4          1           0        4.452587   -0.911771   -0.632853
      5          6           0        2.327885   -0.468591   -0.376713
      6          1           0        2.150009   -0.265697   -1.438503
      7          6           0        1.044308   -1.114214    0.194030
      8          1           0        1.062974   -2.192448   -0.024418
      9          1           0        1.036124   -1.024393    1.286214
     10          6           0       -0.235281   -0.535629   -0.383325
     11          1           0       -0.327577   -0.694767   -1.462991
     12          1           0        0.052307    0.797509   -0.381132
     13          6           0       -1.512231   -0.759258    0.390503
     14          1           0       -1.440523   -0.260003    1.366699
     15          1           0       -1.578986   -1.836015    0.620722
     16          6           0       -2.812021   -0.330947   -0.316097
     17          1           0       -2.834242   -0.831543   -1.294061
     18          6           0       -4.034796   -0.806728    0.480718
     19          1           0       -4.056431   -0.344984    1.473949
     20          1           0       -4.965142   -0.539256   -0.028351
     21          1           0       -4.028083   -1.892389    0.617650
     22          6           0        2.652513    0.871339    0.315011
     23          1           0        3.222227    0.699956    1.234578
     24          1           0        3.234823    1.523366   -0.345532
     25          6           0       -2.875974    1.183738   -0.556098
     26          1           0       -3.808324    1.456274   -1.059248
     27          1           0       -2.834902    1.729984    0.392137
     28          1           0       -2.048786    1.540606   -1.173891
     29          8           0        1.501128    1.575835    0.794182
     30          8           0        0.626137    1.825462   -0.285080
 ---------------------------------------------------------------------
 Rotational constants (GHZ):      1.9489469      0.5107633      0.4364900
 Leave Link  202 at Mon Feb 17 01:50:16 2014, MaxMem= 4026531840 cpu:       0.3
 (Enter /usr/caen/gaussian-09revc/g09/l301.exe)
 Standard basis: 6-311G(2d,d,p) (5D, 7F)
 Ernie: Thresh=  0.10000D-02 Tol=  0.10000D-05 Strict=F.
 There are   312 symmetry adapted basis functions of A   symmetry.
 Integral buffers will be    131072 words long.
 Raffenetti 2 integral format.
 Two-electron integral symmetry is turned on.
   312 basis functions,   504 primitive gaussians,   323 cartesian basis functions
    45 alpha electrons       44 beta electrons
       nuclear repulsion energy       670.2952600923 Hartrees.
 IExCor=  402 DFT=T Ex+Corr=B3LYP ExCW=0 ScaHFX=  0.200000
 ScaDFX=  0.800000  0.720000  1.000000  0.810000 ScalE2=  1.000000  1.000000
 IRadAn=      0 IRanWt=     -1 IRanGd=            0 ICorTp=0
 NAtoms=   30 NActive=   30 NUniq=   30 SFac= 1.00D+00 NAtFMM=   60 NAOKFM=F Big=F
 Leave Link  301 at Mon Feb 17 01:50:17 2014, MaxMem= 4026531840 cpu:       0.9
 (Enter /usr/caen/gaussian-09revc/g09/l302.exe)
 NPDir=0 NMtPBC=     1 NCelOv=     1 NCel=       1 NClECP=     1 NCelD=      1
         NCelK=      1 NCelE2=     1 NClLst=     1 CellRange=     0.0.
 One-electron integrals computed using PRISM.
 NBasis=   312 RedAO= T  NBF=   312
 NBsUse=   312 1.00D-06 NBFU=   312
 Precomputing XC quadrature grid using
 IXCGrd= 2 IRadAn=           0 IRanWt=          -1 IRanGd=           0 AccXCQ= 0.00D+00.
 NRdTot=    1911 NPtTot=      243552 NUsed=      257332 NTot=      257364
 NSgBfM=   323   323   323   323   323 NAtAll=    30    30.
 Leave Link  302 at Mon Feb 17 01:50:18 2014, MaxMem= 4026531840 cpu:       4.6
 (Enter /usr/caen/gaussian-09revc/g09/l303.exe)
 DipDrv:  MaxL=1.
 Leave Link  303 at Mon Feb 17 01:50:18 2014, MaxMem= 4026531840 cpu:       2.5
 (Enter /usr/caen/gaussian-09revc/g09/l401.exe)
 Harris functional with IExCor=  402 diagonalized for initial guess.
 ExpMin= 1.03D-01 ExpMax= 8.59D+03 ExpMxC= 1.30D+03 IAcc=1 IRadAn=         1 AccDes= 0.00D+00
 HarFok:  IExCor=  402 AccDes= 0.00D+00 IRadAn=         1 IDoV= 1
 ScaDFX=  1.000000  1.000000  1.000000  1.000000
 FoFCou: FMM=F IPFlag=           0 FMFlag=      100000 FMFlg1=           0
         NFxFlg=           0 DoJE=T BraDBF=F KetDBF=T FulRan=T
         Omega=  0.000000  0.000000  1.000000  0.000000  0.000000 ICntrl=     500 IOpCl=  0
         NMat0=    1 NMatS0=    1 NMatT0=    0 NMatD0=    1 NMtDS0=    0 NMtDT0=    0
         I1Cent=           4 NGrid=           0.
 Petite list used in FoFCou.
 Harris En= -504.890016053752    
 Initial guess orbital symmetries:
 Alpha Orbitals:
       Occupied  (A) (A) (A) (A) (A) (A) (A) (A) (A) (A) (A) (A)
                 (A) (A) (A) (A) (A) (A) (A) (A) (A) (A) (A) (A)
                 (A) (A) (A) (A) (A) (A) (A) (A) (A) (A) (A) (A)
                 (A) (A) (A) (A) (A) (A) (A) (A) (A)
       Virtual   (A) (A) (A) (A) (A) (A) (A) (A) (A) (A) (A) (A)
                 (A) (A) (A) (A) (A) (A) (A) (A) (A) (A) (A) (A)
                 (A) (A) (A) (A) (A) (A) (A) (A) (A) (A) (A) (A)
                 (A) (A) (A) (A) (A) (A) (A) (A) (A) (A) (A) (A)
                 (A) (A) (A) (A) (A) (A) (A) (A) (A) (A) (A) (A)
                 (A) (A) (A) (A) (A) (A) (A) (A) (A) (A) (A) (A)
                 (A) (A) (A) (A) (A) (A) (A) (A) (A) (A) (A) (A)
                 (A) (A) (A) (A) (A) (A) (A) (A) (A) (A) (A) (A)
                 (A) (A) (A) (A) (A) (A) (A) (A) (A) (A) (A) (A)
                 (A) (A) (A) (A) (A) (A) (A) (A) (A) (A) (A) (A)
                 (A) (A) (A) (A) (A) (A) (A) (A) (A) (A) (A) (A)
                 (A) (A) (A) (A) (A) (A) (A) (A) (A) (A) (A) (A)
                 (A) (A) (A) (A) (A) (A) (A) (A) (A) (A) (A) (A)
                 (A) (A) (A) (A) (A) (A) (A) (A) (A) (A) (A) (A)
                 (A) (A) (A) (A) (A) (A) (A) (A) (A) (A) (A) (A)
                 (A) (A) (A) (A) (A) (A) (A) (A) (A) (A) (A) (A)
                 (A) (A) (A) (A) (A) (A) (A) (A) (A) (A) (A) (A)
                 (A) (A) (A) (A) (A) (A) (A) (A) (A) (A) (A) (A)
                 (A) (A) (A) (A) (A) (A) (A) (A) (A) (A) (A) (A)
                 (A) (A) (A) (A) (A) (A) (A) (A) (A) (A) (A) (A)
                 (A) (A) (A) (A) (A) (A) (A) (A) (A) (A) (A) (A)
                 (A) (A) (A) (A) (A) (A) (A) (A) (A) (A) (A) (A)
                 (A) (A) (A)
 Beta  Orbitals:
       Occupied  (A) (A) (A) (A) (A) (A) (A) (A) (A) (A) (A) (A)
                 (A) (A) (A) (A) (A) (A) (A) (A) (A) (A) (A) (A)
                 (A) (A) (A) (A) (A) (A) (A) (A) (A) (A) (A) (A)
                 (A) (A) (A) (A) (A) (A) (A) (A)
       Virtual   (A) (A) (A) (A) (A) (A) (A) (A) (A) (A) (A) (A)
                 (A) (A) (A) (A) (A) (A) (A) (A) (A) (A) (A) (A)
                 (A) (A) (A) (A) (A) (A) (A) (A) (A) (A) (A) (A)
                 (A) (A) (A) (A) (A) (A) (A) (A) (A) (A) (A) (A)
                 (A) (A) (A) (A) (A) (A) (A) (A) (A) (A) (A) (A)
                 (A) (A) (A) (A) (A) (A) (A) (A) (A) (A) (A) (A)
                 (A) (A) (A) (A) (A) (A) (A) (A) (A) (A) (A) (A)
                 (A) (A) (A) (A) (A) (A) (A) (A) (A) (A) (A) (A)
                 (A) (A) (A) (A) (A) (A) (A) (A) (A) (A) (A) (A)
                 (A) (A) (A) (A) (A) (A) (A) (A) (A) (A) (A) (A)
                 (A) (A) (A) (A) (A) (A) (A) (A) (A) (A) (A) (A)
                 (A) (A) (A) (A) (A) (A) (A) (A) (A) (A) (A) (A)
                 (A) (A) (A) (A) (A) (A) (A) (A) (A) (A) (A) (A)
                 (A) (A) (A) (A) (A) (A) (A) (A) (A) (A) (A) (A)
                 (A) (A) (A) (A) (A) (A) (A) (A) (A) (A) (A) (A)
                 (A) (A) (A) (A) (A) (A) (A) (A) (A) (A) (A) (A)
                 (A) (A) (A) (A) (A) (A) (A) (A) (A) (A) (A) (A)
                 (A) (A) (A) (A) (A) (A) (A) (A) (A) (A) (A) (A)
                 (A) (A) (A) (A) (A) (A) (A) (A) (A) (A) (A) (A)
                 (A) (A) (A) (A) (A) (A) (A) (A) (A) (A) (A) (A)
                 (A) (A) (A) (A) (A) (A) (A) (A) (A) (A) (A) (A)
                 (A) (A) (A) (A) (A) (A) (A) (A) (A) (A) (A) (A)
                 (A) (A) (A) (A)
 The electronic state of the initial guess is 2-A.
 Initial guess <Sx>= 0.0000 <Sy>= 0.0000 <Sz>= 0.5000 <S**2>= 0.7500 S= 0.5000
 Leave Link  401 at Mon Feb 17 01:50:20 2014, MaxMem= 4026531840 cpu:       7.1
 (Enter /usr/caen/gaussian-09revc/g09/l502.exe)
 UHF open shell SCF:
 Requested convergence on RMS density matrix=1.00D-08 within 128 cycles.
 Requested convergence on MAX density matrix=1.00D-06.
 Requested convergence on             energy=1.00D-06.
 No special actions if energy rises.
 Using DIIS extrapolation, IDIIS=  1040.
 Integral symmetry usage will be decided dynamically.
       257049 words used for storage of precomputed grid.
 Keep R1 and R2 ints in memory in canonical form, NReq=2755661780.
 IEnd=      593207 IEndB=      593207 NGot=  4026531840 MDV=  1287997296
 LenX=  1287997296 LenY=  1287892526
 Symmetry not used in FoFDir.
 MinBra= 0 MaxBra= 2 Meth= 1.
 IRaf=       0 NMat=   1 IRICut=       1 DoRegI=T DoRafI=F ISym2E= 0 JSym2E=0.
 Integral accuracy reduced to 1.0D-05 until final iterations.

 Cycle   1  Pass 0  IDiag  1:
 E= -504.465924471229    
 DIIS: error= 3.46D-02 at cycle   1 NSaved=   1.
 NSaved= 1 IEnMin= 1 EnMin= -504.465924471229     IErMin= 1 ErrMin= 3.46D-02
 ErrMax= 3.46D-02 EMaxC= 1.00D-01 BMatC= 1.46D+00 BMatP= 1.46D+00
 IDIUse=3 WtCom= 6.54D-01 WtEn= 3.46D-01
 Coeff-Com:  0.100D+01
 Coeff-En:   0.100D+01
 Coeff:      0.100D+01
 Gap=     0.199 Goal=   None    Shift=    0.000
 Gap=     0.195 Goal=   None    Shift=    0.000
 GapD=    0.195 DampG=1.000 DampE=0.500 DampFc=0.5000 IDamp=-1.
 Damping current iteration by 5.00D-01
 RMSDP=3.31D-03 MaxDP=1.20D-01              OVMax= 2.21D-01

 Cycle   2  Pass 0  IDiag  1:
 E= -504.615748724385     Delta-E=       -0.149824253156 Rises=F Damp=T
 DIIS: error= 5.40D-03 at cycle   2 NSaved=   2.
 NSaved= 2 IEnMin= 2 EnMin= -504.615748724385     IErMin= 2 ErrMin= 5.40D-03
 ErrMax= 5.40D-03 EMaxC= 1.00D-01 BMatC= 1.10D-01 BMatP= 1.46D+00
 IDIUse=3 WtCom= 9.46D-01 WtEn= 5.40D-02
 Coeff-Com:  0.868D-01 0.913D+00
 Coeff-En:   0.182D+00 0.818D+00
 Coeff:      0.919D-01 0.908D+00
 Gap=     0.299 Goal=   None    Shift=    0.000
 Gap=     0.214 Goal=   None    Shift=    0.000
 RMSDP=9.59D-04 MaxDP=4.22D-02 DE=-1.50D-01 OVMax= 2.05D-01

 Cycle   3  Pass 0  IDiag  1:
 E= -504.815024059106     Delta-E=       -0.199275334721 Rises=F Damp=F
 DIIS: error= 8.86D-03 at cycle   3 NSaved=   3.
 NSaved= 3 IEnMin= 3 EnMin= -504.815024059106     IErMin= 2 ErrMin= 5.40D-03
 ErrMax= 8.86D-03 EMaxC= 1.00D-01 BMatC= 8.23D-02 BMatP= 1.10D-01
 IDIUse=3 WtCom= 9.11D-01 WtEn= 8.86D-02
 Coeff-Com: -0.554D-02 0.458D+00 0.548D+00
 Coeff-En:   0.000D+00 0.000D+00 0.100D+01
 Coeff:     -0.505D-02 0.417D+00 0.588D+00
 Gap=     0.273 Goal=   None    Shift=    0.000
 Gap=     0.158 Goal=   None    Shift=    0.000
 RMSDP=6.10D-04 MaxDP=2.92D-02 DE=-1.99D-01 OVMax= 1.26D-01

 Cycle   4  Pass 0  IDiag  1:
 E= -504.825862663441     Delta-E=       -0.010838604335 Rises=F Damp=F
 DIIS: error= 4.42D-03 at cycle   4 NSaved=   4.
 NSaved= 4 IEnMin= 4 EnMin= -504.825862663441     IErMin= 4 ErrMin= 4.42D-03
 ErrMax= 4.42D-03 EMaxC= 1.00D-01 BMatC= 3.61D-02 BMatP= 8.23D-02
 IDIUse=3 WtCom= 9.56D-01 WtEn= 4.42D-02
 Coeff-Com: -0.168D-01 0.115D+00 0.409D+00 0.493D+00
 Coeff-En:   0.000D+00 0.000D+00 0.312D+00 0.688D+00
 Coeff:     -0.160D-01 0.110D+00 0.405D+00 0.502D+00
 Gap=     0.266 Goal=   None    Shift=    0.000
 Gap=     0.150 Goal=   None    Shift=    0.000
 RMSDP=2.32D-04 MaxDP=1.12D-02 DE=-1.08D-02 OVMax= 3.31D-02

 Cycle   5  Pass 0  IDiag  1:
 E= -504.832777783635     Delta-E=       -0.006915120194 Rises=F Damp=F
 DIIS: error= 8.03D-04 at cycle   5 NSaved=   5.
 NSaved= 5 IEnMin= 5 EnMin= -504.832777783635     IErMin= 5 ErrMin= 8.03D-04
 ErrMax= 8.03D-04 EMaxC= 1.00D-01 BMatC= 1.06D-03 BMatP= 3.61D-02
 IDIUse=3 WtCom= 9.92D-01 WtEn= 8.03D-03
 Coeff-Com: -0.666D-02 0.201D-01 0.162D+00 0.226D+00 0.599D+00
 Coeff-En:   0.000D+00 0.000D+00 0.000D+00 0.000D+00 0.100D+01
 Coeff:     -0.661D-02 0.200D-01 0.161D+00 0.224D+00 0.602D+00
 Gap=     0.258 Goal=   None    Shift=    0.000
 Gap=     0.152 Goal=   None    Shift=    0.000
 RMSDP=5.72D-05 MaxDP=2.59D-03 DE=-6.92D-03 OVMax= 6.09D-03

 Cycle   6  Pass 0  IDiag  1:
 E= -504.832949278965     Delta-E=       -0.000171495330 Rises=F Damp=F
 DIIS: error= 7.18D-04 at cycle   6 NSaved=   6.
 NSaved= 6 IEnMin= 6 EnMin= -504.832949278965     IErMin= 6 ErrMin= 7.18D-04
 ErrMax= 7.18D-04 EMaxC= 1.00D-01 BMatC= 4.98D-04 BMatP= 1.06D-03
 IDIUse=3 WtCom= 9.93D-01 WtEn= 7.18D-03
 Coeff-Com: -0.749D-03-0.874D-02 0.355D-01 0.484D-01 0.406D+00 0.520D+00
 Coeff-En:   0.000D+00 0.000D+00 0.000D+00 0.000D+00 0.213D+00 0.787D+00
 Coeff:     -0.744D-03-0.868D-02 0.353D-01 0.480D-01 0.405D+00 0.522D+00
 Gap=     0.259 Goal=   None    Shift=    0.000
 Gap=     0.152 Goal=   None    Shift=    0.000
 RMSDP=2.94D-05 MaxDP=1.53D-03 DE=-1.71D-04 OVMax= 5.62D-03

 Cycle   7  Pass 0  IDiag  1:
 E= -504.833040265158     Delta-E=       -0.000090986193 Rises=F Damp=F
 DIIS: error= 2.41D-04 at cycle   7 NSaved=   7.
 NSaved= 7 IEnMin= 7 EnMin= -504.833040265158     IErMin= 7 ErrMin= 2.41D-04
 ErrMax= 2.41D-04 EMaxC= 1.00D-01 BMatC= 6.04D-05 BMatP= 4.98D-04
 IDIUse=3 WtCom= 9.98D-01 WtEn= 2.41D-03
 Coeff-Com:  0.130D-02-0.846D-02-0.140D-01-0.298D-01 0.770D-01 0.279D+00
 Coeff-Com:  0.695D+00
 Coeff-En:   0.000D+00 0.000D+00 0.000D+00 0.000D+00 0.000D+00 0.000D+00
 Coeff-En:   0.100D+01
 Coeff:      0.130D-02-0.844D-02-0.140D-01-0.298D-01 0.768D-01 0.279D+00
 Coeff:      0.696D+00
 Gap=     0.260 Goal=   None    Shift=    0.000
 Gap=     0.153 Goal=   None    Shift=    0.000
 RMSDP=1.51D-05 MaxDP=9.18D-04 DE=-9.10D-05 OVMax= 2.30D-03

 Cycle   8  Pass 0  IDiag  1:
 E= -504.833057203226     Delta-E=       -0.000016938069 Rises=F Damp=F
 DIIS: error= 8.41D-05 at cycle   8 NSaved=   8.
 NSaved= 8 IEnMin= 8 EnMin= -504.833057203226     IErMin= 8 ErrMin= 8.41D-05
 ErrMax= 8.41D-05 EMaxC= 1.00D-01 BMatC= 1.12D-05 BMatP= 6.04D-05
 IDIUse=1 WtCom= 1.00D+00 WtEn= 0.00D+00
 Coeff-Com:  0.893D-03-0.143D-02-0.147D-01-0.291D-01-0.718D-01-0.495D-03
 Coeff-Com:  0.361D+00 0.756D+00
 Coeff:      0.893D-03-0.143D-02-0.147D-01-0.291D-01-0.718D-01-0.495D-03
 Coeff:      0.361D+00 0.756D+00
 Gap=     0.260 Goal=   None    Shift=    0.000
 Gap=     0.153 Goal=   None    Shift=    0.000
 RMSDP=7.67D-06 MaxDP=3.08D-04 DE=-1.69D-05 OVMax= 2.19D-03

 Initial convergence to 1.0D-05 achieved.  Increase integral accuracy.
 Cycle   9  Pass 1  IDiag  1:
 E= -504.833090994631     Delta-E=       -0.000033791405 Rises=F Damp=F
 DIIS: error= 2.24D-05 at cycle   1 NSaved=   1.
 NSaved= 1 IEnMin= 1 EnMin= -504.833090994631     IErMin= 1 ErrMin= 2.24D-05
 ErrMax= 2.24D-05 EMaxC= 1.00D-01 BMatC= 1.44D-06 BMatP= 1.44D-06
 IDIUse=1 WtCom= 1.00D+00 WtEn= 0.00D+00
 Coeff-Com:  0.100D+01
 Coeff:      0.100D+01
 Gap=     0.260 Goal=   None    Shift=    0.000
 Gap=     0.153 Goal=   None    Shift=    0.000
 RMSDP=7.67D-06 MaxDP=3.08D-04 DE=-3.38D-05 OVMax= 3.67D-04

 Cycle  10  Pass 1  IDiag  1:
 E= -504.833091380070     Delta-E=       -0.000000385438 Rises=F Damp=F
 DIIS: error= 2.15D-05 at cycle   2 NSaved=   2.
 NSaved= 2 IEnMin= 2 EnMin= -504.833091380070     IErMin= 2 ErrMin= 2.15D-05
 ErrMax= 2.15D-05 EMaxC= 1.00D-01 BMatC= 7.62D-07 BMatP= 1.44D-06
 IDIUse=1 WtCom= 1.00D+00 WtEn= 0.00D+00
 Coeff-Com:  0.390D+00 0.610D+00
 Coeff:      0.390D+00 0.610D+00
 Gap=     0.260 Goal=   None    Shift=    0.000
 Gap=     0.153 Goal=   None    Shift=    0.000
 RMSDP=1.77D-06 MaxDP=8.35D-05 DE=-3.85D-07 OVMax= 3.03D-04

 Cycle  11  Pass 1  IDiag  1:
 E= -504.833091538659     Delta-E=       -0.000000158589 Rises=F Damp=F
 DIIS: error= 1.35D-05 at cycle   3 NSaved=   3.
 NSaved= 3 IEnMin= 3 EnMin= -504.833091538659     IErMin= 3 ErrMin= 1.35D-05
 ErrMax= 1.35D-05 EMaxC= 1.00D-01 BMatC= 2.55D-07 BMatP= 7.62D-07
 IDIUse=1 WtCom= 1.00D+00 WtEn= 0.00D+00
 Coeff-Com: -0.276D-02 0.349D+00 0.654D+00
 Coeff:     -0.276D-02 0.349D+00 0.654D+00
 Gap=     0.260 Goal=   None    Shift=    0.000
 Gap=     0.153 Goal=   None    Shift=    0.000
 RMSDP=8.89D-07 MaxDP=4.17D-05 DE=-1.59D-07 OVMax= 1.58D-04

 Cycle  12  Pass 1  IDiag  1:
 E= -504.833091601087     Delta-E=       -0.000000062428 Rises=F Damp=F
 DIIS: error= 7.50D-06 at cycle   4 NSaved=   4.
 NSaved= 4 IEnMin= 4 EnMin= -504.833091601087     IErMin= 4 ErrMin= 7.50D-06
 ErrMax= 7.50D-06 EMaxC= 1.00D-01 BMatC= 5.97D-08 BMatP= 2.55D-07
 IDIUse=1 WtCom= 1.00D+00 WtEn= 0.00D+00
 Coeff-Com: -0.546D-01 0.135D+00 0.398D+00 0.522D+00
 Coeff:     -0.546D-01 0.135D+00 0.398D+00 0.522D+00
 Gap=     0.260 Goal=   None    Shift=    0.000
 Gap=     0.153 Goal=   None    Shift=    0.000
 RMSDP=4.25D-07 MaxDP=1.76D-05 DE=-6.24D-08 OVMax= 1.00D-04

 Cycle  13  Pass 1  IDiag  1:
 E= -504.833091617735     Delta-E=       -0.000000016648 Rises=F Damp=F
 DIIS: error= 3.79D-06 at cycle   5 NSaved=   5.
 NSaved= 5 IEnMin= 5 EnMin= -504.833091617735     IErMin= 5 ErrMin= 3.79D-06
 ErrMax= 3.79D-06 EMaxC= 1.00D-01 BMatC= 1.08D-08 BMatP= 5.97D-08
 IDIUse=1 WtCom= 1.00D+00 WtEn= 0.00D+00
 Coeff-Com: -0.259D-01-0.336D-01-0.651D-02 0.270D+00 0.796D+00
 Coeff:     -0.259D-01-0.336D-01-0.651D-02 0.270D+00 0.796D+00
 Gap=     0.260 Goal=   None    Shift=    0.000
 Gap=     0.153 Goal=   None    Shift=    0.000
 RMSDP=2.84D-07 MaxDP=1.13D-05 DE=-1.66D-08 OVMax= 8.19D-05

 Cycle  14  Pass 1  IDiag  1:
 E= -504.833091622528     Delta-E=       -0.000000004794 Rises=F Damp=F
 DIIS: error= 2.33D-06 at cycle   6 NSaved=   6.
 NSaved= 6 IEnMin= 6 EnMin= -504.833091622528     IErMin= 6 ErrMin= 2.33D-06
 ErrMax= 2.33D-06 EMaxC= 1.00D-01 BMatC= 4.33D-09 BMatP= 1.08D-08
 IDIUse=1 WtCom= 1.00D+00 WtEn= 0.00D+00
 Coeff-Com:  0.310D-02-0.766D-01-0.167D+00-0.145D-01 0.534D+00 0.721D+00
 Coeff:      0.310D-02-0.766D-01-0.167D+00-0.145D-01 0.534D+00 0.721D+00
 Gap=     0.260 Goal=   None    Shift=    0.000
 Gap=     0.153 Goal=   None    Shift=    0.000
 RMSDP=2.03D-07 MaxDP=9.36D-06 DE=-4.79D-09 OVMax= 4.45D-05

 Cycle  15  Pass 1  IDiag  1:
 E= -504.833091624173     Delta-E=       -0.000000001645 Rises=F Damp=F
 DIIS: error= 7.67D-07 at cycle   7 NSaved=   7.
 NSaved= 7 IEnMin= 7 EnMin= -504.833091624173     IErMin= 7 ErrMin= 7.67D-07
 ErrMax= 7.67D-07 EMaxC= 1.00D-01 BMatC= 1.12D-09 BMatP= 4.33D-09
 IDIUse=1 WtCom= 1.00D+00 WtEn= 0.00D+00
 Coeff-Com:  0.567D-02-0.453D-01-0.107D+00-0.446D-01 0.250D+00 0.478D+00
 Coeff-Com:  0.464D+00
 Coeff:      0.567D-02-0.453D-01-0.107D+00-0.446D-01 0.250D+00 0.478D+00
 Coeff:      0.464D+00
 Gap=     0.260 Goal=   None    Shift=    0.000
 Gap=     0.153 Goal=   None    Shift=    0.000
 RMSDP=5.26D-08 MaxDP=2.26D-06 DE=-1.65D-09 OVMax= 1.50D-05

 Cycle  16  Pass 1  IDiag  1:
 E= -504.833091624432     Delta-E=       -0.000000000259 Rises=F Damp=F
 DIIS: error= 1.31D-07 at cycle   8 NSaved=   8.
 NSaved= 8 IEnMin= 8 EnMin= -504.833091624432     IErMin= 8 ErrMin= 1.31D-07
 ErrMax= 1.31D-07 EMaxC= 1.00D-01 BMatC= 3.03D-11 BMatP= 1.12D-09
 IDIUse=1 WtCom= 1.00D+00 WtEn= 0.00D+00
 Coeff-Com:  0.151D-02-0.706D-02-0.164D-01-0.169D-01 0.229D-01 0.783D-01
 Coeff-Com:  0.138D+00 0.799D+00
 Coeff:      0.151D-02-0.706D-02-0.164D-01-0.169D-01 0.229D-01 0.783D-01
 Coeff:      0.138D+00 0.799D+00
 Gap=     0.260 Goal=   None    Shift=    0.000
 Gap=     0.153 Goal=   None    Shift=    0.000
 RMSDP=1.62D-08 MaxDP=5.71D-07 DE=-2.59D-10 OVMax= 3.99D-06

 Cycle  17  Pass 1  IDiag  1:
 E= -504.833091624443     Delta-E=       -0.000000000010 Rises=F Damp=F
 DIIS: error= 5.84D-08 at cycle   9 NSaved=   9.
 NSaved= 9 IEnMin= 9 EnMin= -504.833091624443     IErMin= 9 ErrMin= 5.84D-08
 ErrMax= 5.84D-08 EMaxC= 1.00D-01 BMatC= 6.24D-12 BMatP= 3.03D-11
 IDIUse=1 WtCom= 1.00D+00 WtEn= 0.00D+00
 Coeff-Com: -0.333D-03 0.438D-02 0.112D-01 0.918D-03-0.289D-01-0.484D-01
 Coeff-Com: -0.396D-01 0.246D+00 0.854D+00
 Coeff:     -0.333D-03 0.438D-02 0.112D-01 0.918D-03-0.289D-01-0.484D-01
 Coeff:     -0.396D-01 0.246D+00 0.854D+00
 Gap=     0.260 Goal=   None    Shift=    0.000
 Gap=     0.153 Goal=   None    Shift=    0.000
 RMSDP=7.61D-09 MaxDP=2.49D-07 DE=-1.05D-11 OVMax= 1.99D-06

 SCF Done:  E(UB3LYP) =  -504.833091624     A.U. after   17 cycles
             Convg  =    0.7612D-08             -V/T =  2.0043
 <Sx>= 0.0000 <Sy>= 0.0000 <Sz>= 0.5000 <S**2>= 0.7566 S= 0.5033
 <L.S>= 0.000000000000E+00
 KE= 5.026816245819D+02 PE=-2.516737554300D+03 EE= 8.389275780018D+02
 Annihilation of the first spin contaminant:
 S**2 before annihilation     0.7566,   after     0.7500
 Leave Link  502 at Mon Feb 17 01:52:04 2014, MaxMem= 4026531840 cpu:     824.1
 (Enter /usr/caen/gaussian-09revc/g09/l801.exe)
 Range of M.O.s used for correlation:     1   312
 NBasis=   312 NAE=    45 NBE=    44 NFC=     0 NFV=     0
 NROrb=    312 NOA=    45 NOB=    44 NVA=   267 NVB=   268
 Leave Link  801 at Mon Feb 17 01:52:05 2014, MaxMem= 4026531840 cpu:       0.3
 (Enter /usr/caen/gaussian-09revc/g09/l1101.exe)
 Using compressed storage, NAtomX=    30.
 Will process  31 centers per pass.
 Leave Link 1101 at Mon Feb 17 01:52:05 2014, MaxMem= 4026531840 cpu:       4.0
 (Enter /usr/caen/gaussian-09revc/g09/l1102.exe)
 Symmetrizing basis deriv contribution to polar:
 IMax=3 JMax=2 DiffMx= 0.00D+00
 Leave Link 1102 at Mon Feb 17 01:52:06 2014, MaxMem= 4026531840 cpu:       1.6
 (Enter /usr/caen/gaussian-09revc/g09/l1110.exe)
 Forming Gx(P) for the SCF density, NAtomX=    30.
 Integral derivatives from FoFDir/FoFCou, PRISM(SPDF).
 Do as many integral derivatives as possible in FoFDir.
 G2DrvN: MDV=    4026531496.
 G2DrvN: will do    31 centers at a time, making    1 passes doing MaxLOS=2.
 Calling FoFCou, ICntrl=  3107 FMM=F I1Cent=   0 AccDes= 0.00D+00.
 FoFCou: FMM=F IPFlag=           0 FMFlag=      100000 FMFlg1=           0
         NFxFlg=           0 DoJE=F BraDBF=F KetDBF=F FulRan=T
         Omega=  0.000000  0.000000  1.000000  0.000000  0.000000 ICntrl=    3107 IOpCl=  1
         NMat0=    1 NMatS0=    1 NMatT0=    0 NMatD0=    1 NMtDS0=    0 NMtDT0=    0
         I1Cent=           0 NGrid=           0.
 Symmetry not used in FoFCou.
 FoFDir/FoFCou used for L=0 through L=2.
 End of G2Drv Frequency-dependent properties file   721 does not exist.
 End of G2Drv Frequency-dependent properties file   722 does not exist.
 Leave Link 1110 at Mon Feb 17 01:54:31 2014, MaxMem= 4026531840 cpu:    1160.2
 (Enter /usr/caen/gaussian-09revc/g09/l1002.exe)
 Minotr:  UHF open shell wavefunction.
          IDoAtm=111111111111111111111111111111
          Direct CPHF calculation.
          Differentiating once with respect to nuclear coordinates.
          Requested convergence is 1.0D-06 RMS, and 1.0D-05 maximum.
          Secondary convergence is 1.0D-12 RMS, and 1.0D-12 maximum.
          NewPWx=T KeepS1=F KeepF1=F KeepIn=T MapXYZ=F SortEE=F KeepMc=T.
          MDV=    4026531536 using IRadAn=       2.
 Generate precomputed XC quadrature information.
          Keep R1 and R2 ints in memory in canonical form, NReq=2738891878.
 Symmetry not used in FoFDir.
 MinBra= 0 MaxBra= 2 Meth= 1.
 IRaf=       0 NMat=   1 IRICut=       1 DoRegI=T DoRafI=F ISym2E= 0 JSym2E=0.
          Solving linear equations simultaneously, MaxMat=       0.
          There are    93 degrees of freedom in the 1st order CPHF.  IDoFFX=5.
     87 vectors produced by pass  0 Test12= 2.56D-10 1.08D-07 XBig12= 3.64D-01 3.09D-01.
 AX will form    87 AO Fock derivatives at one time.
     87 vectors produced by pass  1 Test12= 2.56D-10 1.08D-07 XBig12= 2.99D-02 4.45D-02.
     87 vectors produced by pass  2 Test12= 2.56D-10 1.08D-07 XBig12= 8.73D-05 1.71D-03.
     87 vectors produced by pass  3 Test12= 2.56D-10 1.08D-07 XBig12= 8.46D-07 6.92D-05.
     71 vectors produced by pass  4 Test12= 2.56D-10 1.08D-07 XBig12= 3.89D-09 4.98D-06.
     14 vectors produced by pass  5 Test12= 2.56D-10 1.08D-07 XBig12= 1.09D-11 2.22D-07.
 Inverted reduced A of dimension   433 with in-core refinement.
 End of Minotr Frequency-dependent properties file   721 does not exist.
 End of Minotr Frequency-dependent properties file   722 does not exist.
 Leave Link 1002 at Mon Feb 17 01:58:13 2014, MaxMem= 4026531840 cpu:    1770.4
 (Enter /usr/caen/gaussian-09revc/g09/l601.exe)
 Copying SCF densities to generalized density rwf, IOpCl= 1 IROHF=0.

 **********************************************************************

            Population analysis using the SCF density.

 **********************************************************************

 Orbital symmetries:
 Alpha Orbitals:
       Occupied  (A) (A) (A) (A) (A) (A) (A) (A) (A) (A) (A) (A)
                 (A) (A) (A) (A) (A) (A) (A) (A) (A) (A) (A) (A)
                 (A) (A) (A) (A) (A) (A) (A) (A) (A) (A) (A) (A)
                 (A) (A) (A) (A) (A) (A) (A) (A) (A)
       Virtual   (A) (A) (A) (A) (A) (A) (A) (A) (A) (A) (A) (A)
                 (A) (A) (A) (A) (A) (A) (A) (A) (A) (A) (A) (A)
                 (A) (A) (A) (A) (A) (A) (A) (A) (A) (A) (A) (A)
                 (A) (A) (A) (A) (A) (A) (A) (A) (A) (A) (A) (A)
                 (A) (A) (A) (A) (A) (A) (A) (A) (A) (A) (A) (A)
                 (A) (A) (A) (A) (A) (A) (A) (A) (A) (A) (A) (A)
                 (A) (A) (A) (A) (A) (A) (A) (A) (A) (A) (A) (A)
                 (A) (A) (A) (A) (A) (A) (A) (A) (A) (A) (A) (A)
                 (A) (A) (A) (A) (A) (A) (A) (A) (A) (A) (A) (A)
                 (A) (A) (A) (A) (A) (A) (A) (A) (A) (A) (A) (A)
                 (A) (A) (A) (A) (A) (A) (A) (A) (A) (A) (A) (A)
                 (A) (A) (A) (A) (A) (A) (A) (A) (A) (A) (A) (A)
                 (A) (A) (A) (A) (A) (A) (A) (A) (A) (A) (A) (A)
                 (A) (A) (A) (A) (A) (A) (A) (A) (A) (A) (A) (A)
                 (A) (A) (A) (A) (A) (A) (A) (A) (A) (A) (A) (A)
                 (A) (A) (A) (A) (A) (A) (A) (A) (A) (A) (A) (A)
                 (A) (A) (A) (A) (A) (A) (A) (A) (A) (A) (A) (A)
                 (A) (A) (A) (A) (A) (A) (A) (A) (A) (A) (A) (A)
                 (A) (A) (A) (A) (A) (A) (A) (A) (A) (A) (A) (A)
                 (A) (A) (A) (A) (A) (A) (A) (A) (A) (A) (A) (A)
                 (A) (A) (A) (A) (A) (A) (A) (A) (A) (A) (A) (A)
                 (A) (A) (A) (A) (A) (A) (A) (A) (A) (A) (A) (A)
                 (A) (A) (A)
 Beta  Orbitals:
       Occupied  (A) (A) (A) (A) (A) (A) (A) (A) (A) (A) (A) (A)
                 (A) (A) (A) (A) (A) (A) (A) (A) (A) (A) (A) (A)
                 (A) (A) (A) (A) (A) (A) (A) (A) (A) (A) (A) (A)
                 (A) (A) (A) (A) (A) (A) (A) (A)
       Virtual   (A) (A) (A) (A) (A) (A) (A) (A) (A) (A) (A) (A)
                 (A) (A) (A) (A) (A) (A) (A) (A) (A) (A) (A) (A)
                 (A) (A) (A) (A) (A) (A) (A) (A) (A) (A) (A) (A)
                 (A) (A) (A) (A) (A) (A) (A) (A) (A) (A) (A) (A)
                 (A) (A) (A) (A) (A) (A) (A) (A) (A) (A) (A) (A)
                 (A) (A) (A) (A) (A) (A) (A) (A) (A) (A) (A) (A)
                 (A) (A) (A) (A) (A) (A) (A) (A) (A) (A) (A) (A)
                 (A) (A) (A) (A) (A) (A) (A) (A) (A) (A) (A) (A)
                 (A) (A) (A) (A) (A) (A) (A) (A) (A) (A) (A) (A)
                 (A) (A) (A) (A) (A) (A) (A) (A) (A) (A) (A) (A)
                 (A) (A) (A) (A) (A) (A) (A) (A) (A) (A) (A) (A)
                 (A) (A) (A) (A) (A) (A) (A) (A) (A) (A) (A) (A)
                 (A) (A) (A) (A) (A) (A) (A) (A) (A) (A) (A) (A)
                 (A) (A) (A) (A) (A) (A) (A) (A) (A) (A) (A) (A)
                 (A) (A) (A) (A) (A) (A) (A) (A) (A) (A) (A) (A)
                 (A) (A) (A) (A) (A) (A) (A) (A) (A) (A) (A) (A)
                 (A) (A) (A) (A) (A) (A) (A) (A) (A) (A) (A) (A)
                 (A) (A) (A) (A) (A) (A) (A) (A) (A) (A) (A) (A)
                 (A) (A) (A) (A) (A) (A) (A) (A) (A) (A) (A) (A)
                 (A) (A) (A) (A) (A) (A) (A) (A) (A) (A) (A) (A)
                 (A) (A) (A) (A) (A) (A) (A) (A) (A) (A) (A) (A)
                 (A) (A) (A) (A) (A) (A) (A) (A) (A) (A) (A) (A)
                 (A) (A) (A) (A)
 The electronic state is 2-A.
 Alpha  occ. eigenvalues --  -19.17569 -19.16447 -10.21982 -10.19021 -10.18588
 Alpha  occ. eigenvalues --  -10.17928 -10.17723 -10.17386 -10.17058 -10.15854
 Alpha  occ. eigenvalues --  -10.15345  -1.12178  -0.88609  -0.83360  -0.80659
 Alpha  occ. eigenvalues --   -0.75719  -0.68934  -0.68435  -0.67250  -0.61429
 Alpha  occ. eigenvalues --   -0.57376  -0.56435  -0.53005  -0.49067  -0.47778
 Alpha  occ. eigenvalues --   -0.46593  -0.45094  -0.44120  -0.43676  -0.42123
 Alpha  occ. eigenvalues --   -0.41418  -0.39675  -0.39305  -0.38586  -0.37997
 Alpha  occ. eigenvalues --   -0.37450  -0.36109  -0.35704  -0.33523  -0.33442
 Alpha  occ. eigenvalues --   -0.32771  -0.32006  -0.28946  -0.27275  -0.22319
 Alpha virt. eigenvalues --    0.03664   0.04231   0.04541   0.05548   0.06676
 Alpha virt. eigenvalues --    0.07778   0.07991   0.08804   0.10033   0.10324
 Alpha virt. eigenvalues --    0.10778   0.11399   0.12474   0.12902   0.13207
 Alpha virt. eigenvalues --    0.14205   0.14726   0.15263   0.16155   0.17012
 Alpha virt. eigenvalues --    0.19104   0.19768   0.21156   0.21592   0.22865
 Alpha virt. eigenvalues --    0.23274   0.24438   0.25667   0.26463   0.28001
 Alpha virt. eigenvalues --    0.30716   0.31405   0.32905   0.33082   0.34345
 Alpha virt. eigenvalues --    0.35450   0.36786   0.37610   0.39749   0.39981
 Alpha virt. eigenvalues --    0.42737   0.45133   0.45868   0.46791   0.48152
 Alpha virt. eigenvalues --    0.50350   0.51395   0.52007   0.52213   0.55130
 Alpha virt. eigenvalues --    0.55597   0.55922   0.57020   0.57318   0.57561
 Alpha virt. eigenvalues --    0.57856   0.58149   0.58429   0.58882   0.59235
 Alpha virt. eigenvalues --    0.59657   0.60228   0.61044   0.61195   0.61595
 Alpha virt. eigenvalues --    0.61882   0.62415   0.63952   0.64694   0.65453
 Alpha virt. eigenvalues --    0.65890   0.66465   0.69479   0.71171   0.75657
 Alpha virt. eigenvalues --    0.76768   0.79121   0.82940   0.85711   0.86679
 Alpha virt. eigenvalues --    0.90290   0.92265   0.93775   0.96523   0.97646
 Alpha virt. eigenvalues --    0.98241   0.99623   1.01599   1.03675   1.06754
 Alpha virt. eigenvalues --    1.09749   1.12521   1.13972   1.15285   1.17174
 Alpha virt. eigenvalues --    1.20071   1.22143   1.25603   1.26130   1.27985
 Alpha virt. eigenvalues --    1.30059   1.36772   1.37649   1.38723   1.40161
 Alpha virt. eigenvalues --    1.41078   1.42608   1.44492   1.45152   1.45591
 Alpha virt. eigenvalues --    1.46552   1.47229   1.48455   1.49746   1.49973
 Alpha virt. eigenvalues --    1.50836   1.51784   1.52319   1.52651   1.53532
 Alpha virt. eigenvalues --    1.54870   1.56240   1.57056   1.57828   1.58042
 Alpha virt. eigenvalues --    1.60476   1.60729   1.61612   1.62447   1.64146
 Alpha virt. eigenvalues --    1.64347   1.66446   1.68189   1.70881   1.71055
 Alpha virt. eigenvalues --    1.72997   1.73367   1.75322   1.76611   1.77969
 Alpha virt. eigenvalues --    1.78798   1.79637   1.80084   1.82212   1.82938
 Alpha virt. eigenvalues --    1.85084   1.87379   1.89726   1.90872   1.92633
 Alpha virt. eigenvalues --    1.94649   1.97949   1.98954   2.00169   2.01402
 Alpha virt. eigenvalues --    2.02898   2.08319   2.08712   2.09835   2.11184
 Alpha virt. eigenvalues --    2.11954   2.14910   2.15204   2.15771   2.16657
 Alpha virt. eigenvalues --    2.19353   2.21974   2.23523   2.27281   2.28807
 Alpha virt. eigenvalues --    2.31713   2.32764   2.35523   2.36050   2.38325
 Alpha virt. eigenvalues --    2.39745   2.40094   2.42740   2.42907   2.44009
 Alpha virt. eigenvalues --    2.45832   2.46844   2.47590   2.48858   2.49260
 Alpha virt. eigenvalues --    2.50652   2.51058   2.51745   2.54175   2.54596
 Alpha virt. eigenvalues --    2.55726   2.56490   2.57619   2.58453   2.59967
 Alpha virt. eigenvalues --    2.60612   2.62818   2.64562   2.65093   2.67187
 Alpha virt. eigenvalues --    2.68119   2.69350   2.70874   2.72808   2.75066
 Alpha virt. eigenvalues --    2.76101   2.76456   2.77802   2.80402   2.81790
 Alpha virt. eigenvalues --    2.84123   2.86218   2.87968   2.89473   2.90609
 Alpha virt. eigenvalues --    2.94103   2.96655   3.00325   3.01747   3.06421
 Alpha virt. eigenvalues --    3.07638   3.09915   3.12189   3.21285   3.23951
 Alpha virt. eigenvalues --    3.30835   3.34626   3.41037   3.43646   3.49785
 Alpha virt. eigenvalues --    3.66909   3.73746   3.76724   3.77792   3.78502
 Alpha virt. eigenvalues --    3.78659   3.79617   3.81754   3.82611   3.84303
 Alpha virt. eigenvalues --    3.87518   3.92159   3.96218   3.98748   4.10354
 Alpha virt. eigenvalues --    4.21675   4.25315   4.29548   4.31557   4.40979
 Alpha virt. eigenvalues --    4.72497   4.88739   4.91665   5.21779   5.32315
 Alpha virt. eigenvalues --    5.79133  23.77022  23.78781  23.81512  23.83355
 Alpha virt. eigenvalues --   23.88124  23.90988  23.92123  23.93122  23.94838
 Alpha virt. eigenvalues --   49.80483  49.85724
  Beta  occ. eigenvalues --  -19.17396 -19.15232 -10.21989 -10.18556 -10.18112
  Beta  occ. eigenvalues --  -10.17951 -10.17720 -10.17405 -10.17058 -10.15853
  Beta  occ. eigenvalues --  -10.15344  -1.10935  -0.86870  -0.82766  -0.80524
  Beta  occ. eigenvalues --   -0.75006  -0.68816  -0.68416  -0.66989  -0.60432
  Beta  occ. eigenvalues --   -0.56850  -0.56325  -0.51456  -0.48757  -0.47335
  Beta  occ. eigenvalues --   -0.46337  -0.44827  -0.43710  -0.43280  -0.41298
  Beta  occ. eigenvalues --   -0.39909  -0.39196  -0.39015  -0.38463  -0.37784
  Beta  occ. eigenvalues --   -0.37079  -0.35734  -0.35329  -0.33350  -0.33259
  Beta  occ. eigenvalues --   -0.32694  -0.31845  -0.27457  -0.26034
  Beta virt. eigenvalues --   -0.10732   0.03833   0.04281   0.04958   0.05808
  Beta virt. eigenvalues --    0.06836   0.07787   0.08053   0.08888   0.10071
  Beta virt. eigenvalues --    0.10399   0.10869   0.11513   0.12524   0.12956
  Beta virt. eigenvalues --    0.13277   0.14325   0.14873   0.15411   0.16244
  Beta virt. eigenvalues --    0.17121   0.19365   0.20041   0.21443   0.21741
  Beta virt. eigenvalues --    0.23009   0.23544   0.24599   0.25869   0.27177
  Beta virt. eigenvalues --    0.28279   0.30879   0.31850   0.33066   0.33167
  Beta virt. eigenvalues --    0.34494   0.35643   0.36945   0.37867   0.39989
  Beta virt. eigenvalues --    0.40197   0.43046   0.45274   0.45976   0.47067
  Beta virt. eigenvalues --    0.48619   0.51287   0.51483   0.52116   0.52854
  Beta virt. eigenvalues --    0.55259   0.55832   0.55961   0.57144   0.57539
  Beta virt. eigenvalues --    0.57803   0.57974   0.58205   0.58550   0.58954
  Beta virt. eigenvalues --    0.59418   0.59790   0.60309   0.61221   0.61578
  Beta virt. eigenvalues --    0.61770   0.61951   0.62507   0.64038   0.64827
  Beta virt. eigenvalues --    0.65813   0.66008   0.66596   0.69625   0.71328
  Beta virt. eigenvalues --    0.76036   0.77284   0.79448   0.83606   0.86202
  Beta virt. eigenvalues --    0.86931   0.90446   0.92644   0.94158   0.96958
  Beta virt. eigenvalues --    0.97887   0.98308   1.00003   1.01747   1.04039
  Beta virt. eigenvalues --    1.06958   1.09958   1.12852   1.14384   1.15495
  Beta virt. eigenvalues --    1.17295   1.20262   1.22348   1.25672   1.26454
  Beta virt. eigenvalues --    1.28292   1.30434   1.36930   1.37928   1.38865
  Beta virt. eigenvalues --    1.40335   1.41422   1.42819   1.44891   1.45217
  Beta virt. eigenvalues --    1.45747   1.46876   1.47720   1.48691   1.49840
  Beta virt. eigenvalues --    1.50199   1.50926   1.51992   1.52552   1.52843
  Beta virt. eigenvalues --    1.54272   1.54981   1.56379   1.57178   1.58067
  Beta virt. eigenvalues --    1.58345   1.60608   1.60805   1.61887   1.62629
  Beta virt. eigenvalues --    1.64360   1.64489   1.66560   1.68313   1.71078
  Beta virt. eigenvalues --    1.71297   1.73138   1.73611   1.75490   1.76666
  Beta virt. eigenvalues --    1.78105   1.79044   1.79704   1.80304   1.82330
  Beta virt. eigenvalues --    1.83213   1.85235   1.87481   1.89944   1.91109
  Beta virt. eigenvalues --    1.92839   1.94902   1.98118   1.99389   2.00528
  Beta virt. eigenvalues --    2.01527   2.03044   2.08568   2.09049   2.10096
  Beta virt. eigenvalues --    2.11584   2.12851   2.15220   2.15534   2.15968
  Beta virt. eigenvalues --    2.17080   2.19474   2.22241   2.23706   2.27527
  Beta virt. eigenvalues --    2.28998   2.31863   2.33047   2.35648   2.36127
  Beta virt. eigenvalues --    2.38409   2.39932   2.40428   2.42849   2.43191
  Beta virt. eigenvalues --    2.44139   2.46045   2.47061   2.47890   2.49019
  Beta virt. eigenvalues --    2.49560   2.50740   2.51102   2.51836   2.54436
  Beta virt. eigenvalues --    2.54742   2.55943   2.56587   2.57776   2.58810
  Beta virt. eigenvalues --    2.60300   2.60671   2.62990   2.64810   2.65679
  Beta virt. eigenvalues --    2.67401   2.68248   2.69596   2.71139   2.72930
  Beta virt. eigenvalues --    2.75312   2.76375   2.76620   2.77988   2.80639
  Beta virt. eigenvalues --    2.81897   2.84333   2.86470   2.88105   2.89584
  Beta virt. eigenvalues --    2.90808   2.94321   2.96993   3.01835   3.02069
  Beta virt. eigenvalues --    3.06692   3.08326   3.10165   3.12410   3.21559
  Beta virt. eigenvalues --    3.26015   3.31203   3.35232   3.43005   3.43907
  Beta virt. eigenvalues --    3.50062   3.67419   3.74062   3.77132   3.77837
  Beta virt. eigenvalues --    3.78631   3.78911   3.79721   3.81782   3.83272
  Beta virt. eigenvalues --    3.84851   3.88121   3.92741   3.96495   3.98884
  Beta virt. eigenvalues --    4.11314   4.21963   4.25411   4.29556   4.31741
  Beta virt. eigenvalues --    4.41398   4.73040   4.89672   4.92556   5.24541
  Beta virt. eigenvalues --    5.33575   5.79896  23.77032  23.79408  23.81529
  Beta virt. eigenvalues --   23.83496  23.88327  23.90974  23.92148  23.93122
  Beta virt. eigenvalues --   23.94854  49.81203  49.86384
          Condensed to atoms (all electrons):
              1          2          3          4          5          6
     1  C    4.868668   0.402744   0.400551   0.403895   0.350660  -0.037869
     2  H    0.402744   0.577215  -0.029448  -0.028057  -0.030447  -0.006223
     3  H    0.400551  -0.029448   0.587264  -0.031331  -0.036342   0.008974
     4  H    0.403895  -0.028057  -0.031331   0.580495  -0.036908  -0.006511
     5  C    0.350660  -0.030447  -0.036342  -0.036908   5.240875   0.413150
     6  H   -0.037869  -0.006223   0.008974  -0.006511   0.413150   0.588629
     7  C   -0.057358  -0.006535  -0.006797   0.008818   0.311569  -0.059004
     8  H   -0.005811   0.004254  -0.000596   0.000401  -0.040286  -0.002021
     9  H   -0.001695  -0.000564   0.003560  -0.000422  -0.042227   0.008083
    10  C    0.007159  -0.000001   0.000231  -0.000475  -0.045913  -0.000049
    11  H   -0.000219  -0.000049   0.000015  -0.000006  -0.005081   0.004652
    12  H   -0.000098   0.000051  -0.000121   0.000044  -0.002982  -0.004804
    13  C   -0.000234  -0.000016   0.000002   0.000010   0.006293   0.000524
    14  H   -0.000013  -0.000001  -0.000006   0.000000  -0.000493  -0.000004
    15  H   -0.000003   0.000002   0.000008   0.000001   0.000170  -0.000001
    16  C    0.000004   0.000000   0.000000   0.000000  -0.000271   0.000021
    17  H    0.000000   0.000000   0.000000   0.000000  -0.000004  -0.000011
    18  C    0.000000   0.000000   0.000000   0.000000   0.000002   0.000001
    19  H    0.000000   0.000000   0.000000   0.000000   0.000001   0.000000
    20  H    0.000000   0.000000   0.000000   0.000000   0.000000   0.000000
    21  H    0.000000   0.000000   0.000000   0.000000   0.000000   0.000000
    22  C   -0.049106   0.006399  -0.006443  -0.002518   0.324127  -0.040576
    23  H   -0.002132   0.000277   0.005482  -0.001699  -0.039556   0.008763
    24  H   -0.000515  -0.000735  -0.001014   0.004174  -0.058970  -0.010495
    25  C    0.000000   0.000000   0.000000   0.000000   0.000041  -0.000012
    26  H    0.000000   0.000000   0.000000   0.000000  -0.000001  -0.000001
    27  H    0.000000   0.000000   0.000000   0.000000  -0.000003  -0.000005
    28  H   -0.000001   0.000000   0.000000   0.000000  -0.000036   0.000028
    29  O    0.003218  -0.000237  -0.000076   0.000051  -0.044583   0.000259
    30  O    0.000551   0.000008  -0.000010  -0.000021   0.007181   0.006607
              7          8          9         10         11         12
     1  C   -0.057358  -0.005811  -0.001695   0.007159  -0.000219  -0.000098
     2  H   -0.006535   0.004254  -0.000564  -0.000001  -0.000049   0.000051
     3  H   -0.006797  -0.000596   0.003560   0.000231   0.000015  -0.000121
     4  H    0.008818   0.000401  -0.000422  -0.000475  -0.000006   0.000044
     5  C    0.311569  -0.040286  -0.042227  -0.045913  -0.005081  -0.002982
     6  H   -0.059004  -0.002021   0.008083  -0.000049   0.004652  -0.004804
     7  C    4.990095   0.403341   0.405487   0.334685  -0.035689  -0.011666
     8  H    0.403341   0.592108  -0.032658  -0.040549  -0.007679   0.004001
     9  H    0.405487  -0.032658   0.568919  -0.038573   0.007857  -0.004181
    10  C    0.334685  -0.040549  -0.038573   5.297104   0.387368   0.218852
    11  H   -0.035689  -0.007679   0.007857   0.387368   0.571195  -0.015303
    12  H   -0.011666   0.004001  -0.004181   0.218852  -0.015303   0.441332
    13  C   -0.050230  -0.003113  -0.002509   0.345861  -0.038601  -0.013250
    14  H   -0.004824  -0.000662   0.004458  -0.041198   0.008261  -0.005908
    15  H   -0.002717   0.004527  -0.000807  -0.045553  -0.002511   0.003256
    16  C    0.005447  -0.000320   0.000377  -0.058231  -0.003600  -0.001861
    17  H   -0.000226   0.000002   0.000021  -0.007309   0.005838  -0.000470
    18  C   -0.000226   0.000000   0.000001   0.007564   0.000084   0.000004
    19  H   -0.000010   0.000003  -0.000009  -0.000067   0.000024  -0.000005
    20  H    0.000013   0.000000   0.000001  -0.000397  -0.000019   0.000009
    21  H   -0.000029  -0.000003   0.000004   0.000048   0.000013   0.000005
    22  C   -0.054138   0.006561  -0.006956  -0.007621  -0.000001   0.002738
    23  H   -0.006872  -0.000218   0.002295   0.000707   0.000001  -0.001474
    24  H    0.011154  -0.000348   0.000843  -0.000973   0.000081   0.001453
    25  C    0.000033   0.000011  -0.000089  -0.001679  -0.001014  -0.000244
    26  H    0.000011   0.000001  -0.000001  -0.000013  -0.000171   0.000054
    27  H   -0.000052   0.000005  -0.000010  -0.000882   0.000149   0.000234
    28  H    0.000094  -0.000010   0.000021   0.004813   0.000437  -0.000942
    29  O    0.004993   0.000161   0.006983   0.002736   0.000982  -0.034153
    30  O   -0.009210  -0.000411   0.000059  -0.071191   0.001665   0.140576
             13         14         15         16         17         18
     1  C   -0.000234  -0.000013  -0.000003   0.000004   0.000000   0.000000
     2  H   -0.000016  -0.000001   0.000002   0.000000   0.000000   0.000000
     3  H    0.000002  -0.000006   0.000008   0.000000   0.000000   0.000000
     4  H    0.000010   0.000000   0.000001   0.000000   0.000000   0.000000
     5  C    0.006293  -0.000493   0.000170  -0.000271  -0.000004   0.000002
     6  H    0.000524  -0.000004  -0.000001   0.000021  -0.000011   0.000001
     7  C   -0.050230  -0.004824  -0.002717   0.005447  -0.000226  -0.000226
     8  H   -0.003113  -0.000662   0.004527  -0.000320   0.000002   0.000000
     9  H   -0.002509   0.004458  -0.000807   0.000377   0.000021   0.000001
    10  C    0.345861  -0.041198  -0.045553  -0.058231  -0.007309   0.007564
    11  H   -0.038601   0.008261  -0.002511  -0.003600   0.005838   0.000084
    12  H   -0.013250  -0.005908   0.003256  -0.001861  -0.000470   0.000004
    13  C    4.956711   0.400332   0.400129   0.363640  -0.049563  -0.066864
    14  H    0.400332   0.579635  -0.036574  -0.033072   0.009389  -0.004227
    15  H    0.400129  -0.036574   0.610621  -0.042550  -0.006355  -0.006257
    16  C    0.363640  -0.033072  -0.042550   5.051135   0.410119   0.376546
    17  H   -0.049563   0.009389  -0.006355   0.410119   0.623417  -0.040352
    18  C   -0.066864  -0.004227  -0.006257   0.376546  -0.040352   4.864796
    19  H   -0.007097   0.004754  -0.000798  -0.038111   0.009703   0.402813
    20  H    0.008557  -0.000301   0.000168  -0.032080  -0.006872   0.402273
    21  H   -0.005692  -0.000558   0.004898  -0.032928  -0.006527   0.401164
    22  C    0.000049   0.000011  -0.000042   0.000008   0.000002   0.000000
    23  H    0.000064  -0.000031  -0.000004   0.000004   0.000000   0.000000
    24  H   -0.000001   0.000019  -0.000005   0.000005   0.000000   0.000000
    25  C   -0.065264  -0.008260   0.009257   0.352072  -0.046696  -0.065262
    26  H    0.008733  -0.000170  -0.000429  -0.033476  -0.006914  -0.006468
    27  H   -0.005843   0.004910  -0.000003  -0.039731   0.009305  -0.004956
    28  H   -0.006687  -0.000459  -0.000080  -0.030504  -0.005591   0.007519
    29  O   -0.001220   0.001803  -0.000077   0.000037  -0.000002   0.000000
    30  O    0.002664   0.001780  -0.000204  -0.001283   0.000002  -0.000005
             19         20         21         22         23         24
     1  C    0.000000   0.000000   0.000000  -0.049106  -0.002132  -0.000515
     2  H    0.000000   0.000000   0.000000   0.006399   0.000277  -0.000735
     3  H    0.000000   0.000000   0.000000  -0.006443   0.005482  -0.001014
     4  H    0.000000   0.000000   0.000000  -0.002518  -0.001699   0.004174
     5  C    0.000001   0.000000   0.000000   0.324127  -0.039556  -0.058970
     6  H    0.000000   0.000000   0.000000  -0.040576   0.008763  -0.010495
     7  C   -0.000010   0.000013  -0.000029  -0.054138  -0.006872   0.011154
     8  H    0.000003   0.000000  -0.000003   0.006561  -0.000218  -0.000348
[...]
 0.00009650,-0.00053753,0.00083833,-0.00023741,0.00017442,0.00025617,0.
 00018063,0.00001289,-0.00003999,-0.00000761,-0.00012648,0.00003923,0.0
 0005170,0.00001804,-0.00001742,-0.00008395,-0.00000059,0.00000082,0.00
 000364,0.00002530,0.00002294,0.00002997,-0.00000204,-0.00000150,-0.000
 00546,0.00002422,-0.00000119,-0.00000291,-0.00000822,0.00000355,0.0000
 0016,0.08123605,-0.15044876,-0.09764582,0.00251012,-0.00214180,-0.0022
 8526,-0.08404442,0.15854692,-0.00039282,-0.00066266,0.00001879,-0.0000
 5973,-0.00008624,0.00004165,0.00007499,0.00015551,0.00009564,-0.000040
 59,-0.00024743,0.00011320,-0.00922785,0.01133984,0.00769026,-0.0004092
 9,-0.00020811,0.00135138,-0.00004263,0.00295439,-0.00092272,-0.0009076
 9,0.00046896,0.00030339,-0.00012936,0.00018704,0.00012268,0.00016176,0
 .00185093,0.00047161,0.00009443,-0.00031955,-0.00004086,0.00092877,-0.
 00172990,-0.00011461,-0.00018553,-0.00042339,-0.00005784,-0.00002555,0
 .00004600,0.00002383,0.00019648,-0.00005489,-0.00007689,-0.00007651,-0
 .00001276,-0.00002532,0.00000643,0.00000277,0.00001004,0.00000374,0.00
 001294,0.00001457,-0.00000487,0.00000028,-0.00000451,0.00002530,0.0000
 0688,0.00000421,-0.00000626,-0.00000540,-0.00000295,0.07339777,-0.0957
 1714,-0.13935535,0.01312066,-0.01613820,-0.01427498,-0.08794204,0.0970
 6131,0.15060280,-0.00001749,0.00003626,0.00001980,0.00000835,0.0000030
 1,-0.00000854,0.00001175,-0.00000399,0.00000422,-0.00002941,-0.0000071
 2,0.00000174,0.00000420,0.00000371,-0.00007302,-0.00004726,0.00000502,
 0.00004122,-0.00015270,0.00014495,0.00014350,0.00007008,0.00013162,-0.
 00003457,0.00011666,-0.00004692,0.00008191,0.00084805,-0.00128148,-0.0
 0108901,-0.00013650,-0.00014772,0.00036384,-0.00074428,-0.00026210,-0.
 00032760,-0.00146423,-0.03044629,-0.00492341,0.00104535,0.00026409,0.0
 0071960,-0.00516599,-0.00258246,-0.00254845,-0.07815041,-0.00235097,-0
 .00028564,-0.00007027,0.00148632,0.00016375,-0.00132983,0.02945123,0.0
 0496508,0.00093184,-0.00045379,-0.00074023,0.00063742,0.00091754,0.000
 05702,-0.00451941,0.00259857,0.00329140,-0.00006566,-0.00012580,0.0000
 6702,0.00002709,0.00001616,-0.00000686,-0.00001707,0.00003755,-0.00002
 221,0.57308046,0.00006023,-0.00005569,-0.00002014,-0.00001062,-0.00001
 139,0.00000319,-0.00000882,0.00000030,-0.00000033,0.00002768,0.0000141
 7,-0.00000327,0.00004640,0.00012693,0.00010869,0.00001342,-0.00000023,
 -0.00001963,0.00039577,-0.00024622,-0.00030578,-0.00000397,-0.00002325
 ,-0.00003059,-0.00005197,-0.00000652,-0.00001336,0.00007069,0.00058107
 ,0.00075157,-0.00005345,0.00012797,-0.00002985,0.00010170,0.00065611,0
 .00009620,-0.00606528,-0.01393859,-0.00467170,0.00134171,0.00133547,0.
 00074911,-0.00049769,0.00115296,0.00020101,-0.00049136,-0.17665749,-0.
 01193584,-0.00013575,-0.01899405,-0.00235889,0.00554917,-0.01652531,-0
 .00557707,-0.00131509,0.00127589,0.00097131,-0.00126039,0.00071087,0.0
 0068928,0.00043988,0.00082165,-0.00034490,0.00013918,0.00013253,-0.000
 08837,-0.00002776,-0.00001514,0.00000397,-0.00002151,-0.00002650,0.000
 02954,-0.00840196,0.46004134,0.00003314,-0.00000287,0.00001275,-0.0000
 0884,-0.00002092,0.00000074,-0.00000522,-0.00000650,-0.00000738,-0.000
 00862,0.00000670,0.00000043,0.00002821,0.00004160,-0.00000647,0.000010
 44,0.00001255,-0.00001016,0.00008553,-0.00015525,0.00003977,-0.0000532
 0,-0.00002440,-0.00007281,-0.00002721,-0.00004086,-0.00000789,0.000217
 43,0.00003241,0.00000978,-0.00008002,0.00014865,0.00006017,0.00009287,
 0.00131326,0.00030471,-0.00218865,-0.01639280,-0.00344695,0.00042571,-
 0.00115623,0.00049142,-0.00266122,-0.00156145,-0.00089134,0.00070027,-
 0.00953754,-0.08061847,0.00053716,0.02984237,0.00471662,0.00224462,-0.
 02144634,-0.00392181,-0.00046289,-0.00098170,0.00054299,-0.00112925,0.
 00068968,0.00050463,0.00281637,-0.00199503,-0.00183347,0.00014143,0.00
 016879,-0.00028728,-0.00011518,-0.00006772,0.00001611,-0.00002280,0.00
 000212,0.00004455,-0.00271652,-0.00960453,0.56221879,0.00001251,0.0000
 1211,0.00001976,-0.00000283,-0.00002109,0.00000109,-0.00000023,-0.0000
 0367,-0.00000696,-0.00002485,0.00000655,0.00000095,0.00000043,-0.00002
 539,-0.00003775,0.00001107,0.00000477,-0.00000016,0.00004044,-0.000076
 17,0.00004892,-0.00006133,-0.00004880,-0.00002448,-0.00001668,0.000007
 09,-0.00000181,0.00010750,-0.00009637,-0.00022977,0.00000192,0.0000974
 6,-0.00000528,0.00028550,0.00057200,-0.00001065,0.00106279,-0.00013903
 ,0.00076609,0.00006233,0.00015538,0.00008502,-0.00008125,-0.00004511,-
 0.00011941,-0.00111762,0.00038311,0.00037648,0.00013546,-0.00052249,0.
 00029603,0.00067163,0.00083955,0.00047862,-0.00003347,-0.00001909,0.00
 003062,0.00056822,-0.00001362,-0.00016390,0.00025933,-0.00009011,0.000
 12491,0.00021806,0.00010281,-0.00015303,-0.00006101,-0.00003667,0.0000
 0190,-0.00004031,0.00000690,0.00004703,-0.23834993,-0.05755359,-0.0982
 2908,0.25836591,-0.00002105,0.00003129,0.00001384,0.00000425,0.0000011
 6,-0.00000298,0.00000605,-0.00000307,-0.00000146,-0.00002294,-0.000005
 01,0.00000267,-0.00001170,-0.00005664,-0.00004358,-0.00001383,0.000005
 94,0.00001257,-0.00020487,0.00021053,0.00009667,0.00005710,0.00004963,
 0.00001165,0.00004432,-0.00001855,0.00002728,0.00075081,-0.00044075,-0
 .00039098,-0.00006611,-0.00000593,0.00012166,-0.00024368,-0.00007701,0
 .00002019,0.00157370,-0.00629474,-0.00006262,0.00014385,0.00003922,-0.
 00014313,-0.00182696,-0.00084066,-0.00092465,-0.02900289,-0.00902688,-
 0.01576650,0.00001983,0.00121533,0.00065373,-0.00150075,0.00146155,0.0
 0015406,0.00017885,-0.00004885,-0.00000445,0.00095464,-0.00006550,-0.0
 0004156,0.00003961,0.00027874,0.00045110,0.00002555,-0.00005113,0.0000
 6896,0.00002109,0.00001320,-0.00000921,-0.00000525,0.00001935,-0.00000
 462,-0.05612997,-0.06315896,-0.02846917,0.06283744,0.07059274,-0.00000
 734,0.00000922,0.00000796,0.00000146,-0.00000181,0.00000028,0.00000188
 ,-0.00000033,-0.00000251,-0.00000990,-0.00000090,0.00000137,-0.0000094
 4,-0.00002109,-0.00003291,-0.00000559,-0.00000200,0.00000514,-0.000116
 59,0.00010418,0.00005620,0.00003455,0.00002177,0.00001804,0.00003265,0
 .00001415,0.00001161,0.00029622,-0.00007690,-0.00008002,-0.00007270,-0
 .00011447,0.00006661,-0.00006995,-0.00013019,-0.00017495,0.00040598,-0
 .00111921,0.00060577,0.00030175,0.00015612,0.00040457,-0.00042416,-0.0
 0036908,0.00020650,-0.00310871,-0.00047632,-0.00306788,0.00040541,-0.0
 0022475,0.00043302,-0.00074837,0.00022291,-0.00010480,-0.00008830,-0.0
 0005435,-0.00006594,0.00054093,-0.00032064,0.00017068,0.00026251,0.000
 20090,0.00008263,0.00003508,-0.00001006,0.00003080,0.00000874,0.000003
 63,-0.00000745,-0.00000755,0.00000548,0.00000453,-0.09759013,-0.029088
 84,-0.09777282,0.10819098,0.03317488,0.10172784,-0.00001276,0.00000179
 ,-0.00001156,0.00000201,0.00001192,-0.00000095,-0.00000203,-0.00000099
 ,0.00000073,0.00000570,-0.00000379,0.00000178,0.00000827,-0.00000755,0
 .00002688,0.00000223,-0.00000240,-0.00000539,-0.00000847,0.00008574,-0
 .00008847,0.00003373,0.00001123,0.00001807,-0.00003252,-0.00003174,-0.
 00002609,-0.00007553,-0.00031190,0.00011485,0.00008817,0.00015047,-0.0
 0011013,-0.00021106,0.00002061,0.00030108,0.00042599,-0.00039220,0.001
 17942,0.00007992,-0.00013917,-0.00020872,-0.00002728,0.00012583,-0.000
 09625,-0.00118658,-0.00075976,0.00106680,0.00066031,-0.00040910,0.0000
 4924,0.00003229,0.00029030,-0.00086280,0.00018870,0.00023167,0.0002157
 7,-0.00000160,0.00007188,-0.00011855,-0.00006505,-0.00017527,0.0001620
 9,-0.00007154,-0.00007266,0.00005191,0.00002819,0.00002044,-0.00000098
 ,0.00001964,0.00000347,-0.00002178,-0.04851189,0.00821298,-0.01581483,
 -0.00119958,0.01414886,-0.02471028,0.04761030,-0.00000796,0.00000488,0
 .00000231,0.00000269,0.00000527,-0.00000124,-0.00000024,-0.00000073,-0
 .00000096,-0.00000205,-0.00000171,0.00000030,-0.00000787,-0.00001642,-
 0.00000679,0.00000170,-0.00000393,-0.00000196,-0.00002999,0.00003662,0
 .00001347,0.00001066,0.00000097,0.00000697,-0.00002819,-0.00001573,-0.
 00001612,-0.00023436,-0.00001228,-0.00009957,0.00017537,0.00001873,-0.
 00011684,-0.00014212,-0.00007714,0.00012718,0.00102433,0.00141702,0.00
 135414,-0.00062227,0.00012263,-0.00086057,0.00021115,0.00045445,-0.000
 29007,0.00210051,-0.01805575,0.03021229,-0.00012586,-0.00647486,-0.001
 53744,-0.00079791,0.00143075,0.00126188,0.00050695,0.00004925,-0.00097
 958,0.00003923,-0.00003901,-0.00011475,-0.00020895,0.00038662,-0.00035
 889,-0.00004880,-0.00003486,0.00001079,0.00000125,0.00000241,-0.000000
 07,0.00000990,0.00000500,-0.00001199,0.00783841,-0.10527227,0.10656439
 ,0.00030492,0.00393829,-0.00806639,-0.00861519,0.11759325,0.00001161,-
 0.00001196,-0.00000071,-0.00000281,-0.00000865,0.00000125,-0.00000029,
 0.00000282,0.00000456,0.00000793,0.00000306,-0.00000374,-0.00000039,0.
 00002567,-0.00001885,-0.00000348,-0.00000135,0.00000896,0.00000813,-0.
 00009440,0.00004628,-0.00001440,-0.00000656,-0.00002074,0.00001883,0.0
 0002127,0.00001937,0.00002042,0.00051455,-0.00004135,-0.00004661,-0.00
 014583,0.00006033,0.00018739,-0.00015705,-0.00020085,0.00004670,-0.000
 41937,0.00096894,0.00041683,0.00042130,0.00018069,0.00017886,0.0000654
 8,0.00017383,0.00050499,-0.00185646,0.00373493,0.00003149,-0.00141430,
 0.00134734,-0.00008126,-0.00035146,0.00093619,-0.00040582,0.00032052,0
 .00027615,0.00005187,0.00003982,-0.00008613,-0.00011052,0.00008728,0.0
 0023270,-0.00000097,0.00004933,-0.00003326,-0.00001080,-0.00000906,0.0
 0000517,-0.00000425,-0.00000812,0.00000244,-0.01510484,0.10699253,-0.2
 4405519,-0.00022073,0.00572114,-0.01190587,0.01707089,-0.11828170,0.26
 451974,0.00001046,-0.00001471,-0.00000556,-0.00000189,0.00000373,0.000
 00180,-0.00000253,0.00000030,-0.00000309,0.00001414,0.00000154,-0.0000
 0013,0.00001444,0.00002023,0.00003243,0.00000299,0.00000143,-0.0000068
 6,0.00008453,-0.00004458,-0.00011188,-0.00000514,-0.00001008,0.0000094
 1,-0.00002135,-0.00000998,-0.00001103,-0.00024096,-0.00049094,0.000089
 21,0.00002376,-0.00003609,-0.00007414,-0.00115377,-0.00010734,-0.00049
 851,0.00029634,0.00027225,-0.00022714,-0.00000527,-0.00001243,-0.00005
 354,0.00009029,0.00014216,0.00010547,0.00143881,-0.00082382,-0.0023711
 6,0.00011273,0.00055390,-0.00017504,0.00058314,0.00022510,-0.00046263,
 -0.00004262,-0.00011406,0.00000509,0.00047091,-0.00019682,0.00001556,0
 .00025818,-0.00004240,0.00025306,-0.00003310,0.00007635,0.00002809,0.0
 0000595,0.00000103,-0.00000688,0.00000449,-0.00001248,-0.00000404,-0.1
 9780413,0.05979382,0.11667823,-0.02038730,0.00785032,0.01650961,0.0018
 5546,-0.00144651,-0.00201061,0.21511329,-0.00000788,-0.00000212,-0.000
 00735,0.00000277,0.00000623,-0.00000171,0.00000262,0.00000366,0.000008
 35,0.00001249,-0.00000238,-0.00000363,-0.00002475,0.00001591,-0.000015
 81,-0.00001552,-0.00000118,0.00001151,-0.00018058,0.00001284,0.0002039
 8,0.00004848,0.00005928,-0.00000076,0.00009142,0.00002497,0.00005938,-
 0.00014456,0.00050333,-0.00025534,-0.00011165,-0.00049358,0.00017764,-
 0.00050288,-0.00054368,-0.00031399,0.00061757,0.00144285,0.00029855,-0
 .00012006,-0.00011794,-0.00003620,0.00015703,0.00003528,0.00025846,0.0
 2556304,-0.00831414,-0.01944022,-0.00001648,0.00132602,0.00065569,-0.0
 0165705,-0.00667956,-0.00010107,-0.00016917,0.00007600,-0.00019023,-0.
 00006104,0.00008330,0.00029185,0.00165992,-0.00073899,-0.00127994,-0.0
 0017696,-0.00004526,0.00000758,0.00000935,0.00000056,0.00001323,0.0000
 2992,0.00000095,-0.00002548,0.05900560,-0.07152289,-0.04642417,-0.0061
 9955,0.00203998,0.00597754,-0.01258114,0.00452367,0.00849571,-0.065079
 34,0.07786847,-0.00003350,0.00001050,-0.00002531,0.00000941,0.00002976
 ,-0.00000448,0.00000233,-0.00000119,0.00000563,0.00000763,-0.00000951,
 0.00000360,-0.00001230,-0.00003263,0.00003017,-0.00001964,-0.00000194,
 0.00000327,-0.00016090,0.00028759,-0.00005393,0.00011343,0.00008820,0.
 00005180,0.00003519,-0.00002805,0.00001245,0.00020834,-0.00050282,0.00
 009166,0.00003569,0.00008397,0.00006099,-0.00093988,-0.00091276,0.0001
 6529,0.00063936,0.00018620,-0.00003720,0.00003784,-0.00007901,-0.00007
 096,-0.00013923,-0.00001960,0.00004222,0.00175874,-0.00008930,-0.00325
 358,-0.00042492,-0.00028900,0.00058976,-0.00065275,-0.00118116,0.00069
 680,-0.00028500,0.00018672,0.00045794,0.00026060,0.00008708,0.00001670
 ,0.00045788,-0.00015050,0.00024505,-0.00018795,-0.00018443,0.00032679,
 0.00012225,0.00007372,-0.00002358,0.00004123,0.00000698,-0.00005292,0.
 11511284,-0.04659371,-0.13548443,-0.01129898,0.00534602,0.00918956,0.0
 2203023,-0.00872227,-0.01640780,-0.12746108,0.05163787,0.14334532,0.00
 251547,-0.00212722,0.00183424,-0.00100961,-0.00077370,-0.00010118,-0.0
 0007071,-0.00001083,-0.00018942,0.00080298,0.00068213,-0.00023565,-0.0
 0569831,-0.01241465,0.00054906,-0.00022383,0.00110931,0.00005776,-0.00
 286621,0.00300576,0.00019277,0.00167117,0.00066374,0.00045874,0.000606
 88,0.00022752,-0.00037904,0.00353247,-0.02412588,-0.00534130,-0.000849
 68,0.00425915,0.00071511,-0.02724214,0.02974391,-0.02210560,0.00096210
 ,0.00455178,0.00010353,-0.00019165,-0.00038860,0.00027965,-0.00170817,
 0.00014415,0.00077608,0.00062947,0.00009366,0.00048416,0.00002704,-0.0
 0006756,-0.00000653,-0.00007994,-0.00011127,-0.00019275,-0.00000420,-0
 .00000171,0.00008306,-0.00023095,-0.00004759,-0.00001467,0.00007433,-0
 .00000594,0.00001080,-0.13240280,-0.04105264,0.06681116,-0.02315746,-0
 .01190380,0.00318090,-0.03224001,-0.01747757,0.01359638,0.00020591,-0.
 00017683,-0.00094805,-0.00037529,-0.00005305,0.00012032,-0.00010697,0.
 00001927,0.00018538,-0.00027538,0.00035021,0.00056841,0.30799377,0.003
 75783,-0.00637523,0.00591699,-0.00254413,-0.00179823,-0.00038665,0.000
 10153,0.00014838,-0.00040253,-0.00002136,0.00039306,0.00009232,-0.0348
 8420,-0.01934590,0.01035539,0.00007831,-0.00032076,0.00107894,-0.00186
 345,0.00462845,-0.00210759,0.00027931,0.00030736,0.00173843,0.00054182
 ,-0.00022143,0.00128938,0.00154264,-0.01439581,0.00078349,0.00011823,0
 .00104944,0.00023197,0.00325688,0.02098070,0.01632682,0.00030652,0.003
 31161,0.00032681,-0.00026755,-0.00022332,0.00006570,-0.00098329,0.0001
 0470,0.00040572,0.00027595,-0.00022754,0.00023375,0.00004044,0.0000317
 3,-0.00001307,-0.00000114,0.00004910,-0.00004463,-0.00000469,-0.000016
 46,0.00001482,-0.00004230,-0.00003093,-0.00000460,0.00001676,0.0000110
 2,0.00001042,-0.03135174,-0.08238699,0.03848434,-0.00846888,-0.0035511
 9,0.00051192,0.00466287,0.01155852,-0.00019824,0.00007740,0.00001741,-
 0.00037483,-0.00013352,0.00001922,0.00002279,0.00001619,-0.00000892,-0
 .00000677,0.00004483,-0.00006682,0.00031169,0.08971906,0.13551037,-0.0
 0133647,0.00113364,-0.00240195,0.00049958,0.00061680,0.00071502,-0.000
 07132,0.00035909,0.00035772,0.00001360,-0.00012836,-0.00016785,0.01696
 250,0.00956623,-0.00397399,-0.00014679,0.00012114,-0.00015907,-0.00087
 653,0.00262377,-0.00023050,0.00146802,0.00035659,0.00166333,-0.0000433
 0,0.00042552,0.00144807,0.00105272,-0.02724972,-0.00397598,-0.00059816
 ,0.00410299,0.00080048,-0.02649589,0.03910493,-0.01465008,0.00064247,0
 .00527543,-0.00039836,-0.00049433,-0.00026443,0.00047699,-0.00173561,0
 .00013855,0.00079713,0.00065707,0.00030201,0.00064213,0.00010614,-0.00
 012393,0.00007727,-0.00017365,-0.00023333,-0.00022282,-0.00002650,0.00
 000013,0.00009826,-0.00023588,-0.00002943,0.00001444,0.00011322,-0.000
 09506,-0.00003393,0.04250800,0.02789114,-0.11635513,-0.02728984,-0.014
 55373,0.00725644,0.02522493,0.01350507,-0.00754428,0.00026951,0.000005
 44,-0.00016359,-0.00002386,-0.00025461,0.00004077,-0.00026796,-0.00000
 778,0.00031611,-0.00015417,0.00037513,-0.00041520,0.02766818,-0.042252
 92,0.29894427,-0.00042255,0.00198062,-0.00173320,0.00076484,0.00045085
 ,0.00013059,-0.00019942,-0.00007698,0.00014519,-0.00035852,-0.00013040
 ,0.00000989,0.00563662,0.00120243,0.00165023,0.00014375,-0.00065643,-0
 .00084648,0.00057452,-0.00892508,0.00191351,-0.00154504,-0.00014321,-0
 .00248518,-0.00023136,-0.00026878,-0.00089443,-0.01344350,0.08308713,0
 .00573666,0.00067168,-0.00691169,-0.00130641,0.00651385,-0.05585496,0.
 00655645,0.00104188,-0.00768079,-0.00082275,0.00044687,0.00003304,-0.0
 0025734,0.00179166,0.00022108,-0.00059418,-0.00091858,-0.00036929,-0.0
 0054227,-0.00009493,0.00021916,-0.00006365,0.00019041,0.00031775,0.000
 19292,0.00005157,-0.00003705,-0.00013435,0.00025665,0.00001743,-0.0000
 1198,-0.00015297,0.00012737,0.00004514,-0.04165897,-0.01642161,-0.0422
 1672,-0.00645875,-0.00399614,0.00365889,0.00582596,0.00294762,-0.00215
 497,-0.00041072,-0.00011661,0.00046016,-0.00005141,0.00044675,-0.00017
 905,0.00047196,0.00007195,-0.00072357,-0.00040647,-0.00050178,0.000174
 73,-0.09028829,-0.02427033,-0.05721568,0.13225928,0.00012108,-0.000461
 38,-0.00044807,-0.00007205,-0.00003652,0.00014737,-0.00009851,-0.00001
 884,0.00012573,0.00012955,0.00006131,-0.00005300,-0.00230676,-0.000311
 23,-0.00139067,-0.00054397,0.00003048,-0.00066550,0.00238892,0.0044530
 6,0.00074893,0.00016384,0.00047166,0.00086163,-0.00025642,-0.00043927,
 -0.00008827,0.02778363,-0.10868771,-0.00448493,-0.00110473,0.00631496,
 0.00142790,-0.02041542,0.01373239,-0.02520937,-0.00207074,0.00369808,0
 .00186947,0.00050606,0.00019473,-0.00093213,-0.00005424,-0.00061819,-0
 .00083262,0.00029704,-0.00020890,-0.00030085,-0.00005469,0.00001061,-0
 .00003157,0.00012462,-0.00001506,0.00008026,-0.00001180,-0.00001801,0.
 00001350,0.00001017,-0.00002431,-0.00000893,-0.00000389,0.00008288,0.0
 0001992,-0.01251345,-0.00425260,-0.02090751,-0.00406284,-0.00117776,0.
 00155845,0.00116605,0.00046110,0.00172959,0.00022313,-0.00054016,-0.00
 056021,-0.00030583,0.00017751,0.00016374,0.00009949,0.00002380,0.00001
 255,-0.00054541,0.00050525,0.00046158,-0.02383079,-0.04915152,-0.02071
 030,0.03523795,0.13574367,-0.00108957,0.00178785,-0.00023054,0.0007701
 5,0.00045842,-0.00003669,0.00031864,0.00022020,0.00014265,-0.00036845,
 -0.00020030,0.00002327,0.00532412,0.00250001,0.00038368,0.00027040,-0.
 00090230,0.00102317,0.00214429,-0.00763098,0.00145768,-0.00181121,-0.0
 0017540,-0.00219951,-0.00042994,-0.00011431,-0.00070098,-0.00501028,0.
 04213093,0.00783758,0.00063591,-0.00552793,-0.00005417,0.01505383,-0.0
 5474408,-0.01847471,-0.00090643,-0.00751843,-0.00010653,0.00024066,0.0
 0050264,-0.00002765,0.00221623,0.00014865,-0.00081197,-0.00112383,-0.0
 0016131,-0.00067818,-0.00002747,0.00006583,0.00001100,0.00019713,0.000
 34625,0.00026690,-0.00001918,0.00000025,-0.00007109,0.00030716,0.00004
 027,-0.00000502,-0.00017208,0.00010910,0.00004984,-0.02312902,-0.00921
 140,0.00260433,0.00121931,0.00066118,0.00406452,0.00185271,0.00234872,
 0.00155764,0.00016861,0.00008496,-0.00038339,0.00005744,0.00024311,0.0
 0015126,0.00005498,-0.00007872,-0.00006051,-0.00009047,-0.00037660,0.0
 0049439,-0.08816152,-0.03240989,-0.16295570,0.09150787,0.06740333,0.16
 672875\\0.00000142,-0.00000470,-0.00000063,0.00000248,-0.00000567,-0.0
 0000219,0.00000152,-0.00000342,-0.00000122,0.00000083,-0.00000643,0.00
 000022,0.00000103,-0.00000340,-0.00000035,0.00000053,-0.00000517,0.000
 00067,0.00000050,0.00000029,-0.00000138,0.00000253,-0.00000158,-0.0000
 0292,0.00000022,0.00000081,-0.00000097,-0.00000044,-0.00000085,0.00000
 146,0.00000034,-0.00000157,-0.00000097,-0.00000016,0.00000069,-0.00000
 231,0.00000054,0.00000129,-0.00000230,0.00000023,0.00000373,-0.0000001
 4,0.00000236,0.00000286,-0.00000269,0.00000127,0.00000322,-0.00000071,
 0.00000111,0.00000094,-0.00000157,0.00000058,0.00000500,-0.00000188,-0
 .00000026,0.00000700,-0.00000120,0.00000016,0.00000575,-0.00000184,0.0
 0000173,0.00000559,-0.00000363,-0.00000196,-0.00000333,0.00000281,-0.0
 0000142,-0.00000178,0.00000247,-0.00000195,-0.00000447,0.00000376,-0.0
 0000107,0.00000178,0.00000233,-0.00000152,0.00000253,0.00000177,-0.000
 00279,0.00000406,0.00000268,-0.00000050,0.00000030,0.00000176,-0.00000
 279,-0.00000040,0.00000268,-0.00000453,-0.00000305,0.00000629\\\@
 Job cpu time:  0 days  9 hours 35 minutes 10.0 seconds.
 File lengths (MBytes):  RWF=  73749 Int=      0 D2E=      0 Chk=     26 Scr=      1
 Normal termination of Gaussian 09 at Mon Feb 17 20:05:53 2014.
