Title Card Required                                                     
Freq      RB3LYP                                                      6-31G(d)            
Number of atoms                            I                2
Info1-9                                    I   N=           9
          16          11        1002           0           0         100
           6          18        -502
Charge                                     I                0
Multiplicity                               I                1
Number of electrons                        I                2
Number of alpha electrons                  I                1
Number of beta electrons                   I                1
Number of basis functions                  I                4
Number of independent functions            I                4
Number of point charges in /Mol/           I                0
Number of translation vectors              I                0
Atomic numbers                             I   N=           2
           1           1
Nuclear charges                            R   N=           2
  1.00000000E+00  1.00000000E+00
Current cartesian coordinates              R   N=           6
  0.00000000E+00  0.00000000E+00  7.01832687E-01  8.32667268E-17  0.00000000E+00
 -7.01832687E-01
Force Field                                I                0
Int Atom Types                             I   N=           2
           0           0
MM charges                                 R   N=           2
  0.00000000E+00  0.00000000E+00
Integer atomic weights                     I   N=           2
           1           1
Real atomic weights                        R   N=           2
  1.00782504E+00  1.00782504E+00
Atom fragment info                         I   N=           2
           0           0
Atom residue num                           I   N=           2
           0           0
Nuclear spins                              I   N=           2
           1           1
Nuclear ZEff                               R   N=           2
 -1.00000000E+00 -1.00000000E+00
Nuclear ZNuc                               R   N=           2
  1.00000000E+00  1.00000000E+00
Nuclear QMom                               R   N=           2
  0.00000000E+00  0.00000000E+00
Nuclear GFac                               R   N=           2
  2.79284600E+00  2.79284600E+00
MicOpt                                     I   N=           2
          -1          -1
Number of contracted shells                I                4
Number of primitive shells                 I                8
Pure/Cartesian d shells                    I                1
Pure/Cartesian f shells                    I                0
Highest angular momentum                   I                0
Largest degree of contraction              I                3
Shell types                                I   N=           4
           0           0           0           0
Number of primitives per shell             I   N=           4
           3           1           3           1
Shell to atom map                          I   N=           4
           1           1           2           2
Primitive exponents                        R   N=           8
  1.87311370E+01  2.82539436E+00  6.40121692E-01  1.61277759E-01  1.87311370E+01
  2.82539436E+00  6.40121692E-01  1.61277759E-01
Contraction coefficients                   R   N=           8
  3.34946043E-02  2.34726953E-01  8.13757326E-01  1.00000000E+00  3.34946043E-02
  2.34726953E-01  8.13757326E-01  1.00000000E+00
Coordinates of each shell                  R   N=          12
  0.00000000E+00  0.00000000E+00  7.01832687E-01  0.00000000E+00  0.00000000E+00
  7.01832687E-01  8.32667268E-17  0.00000000E+00 -7.01832687E-01  8.32667268E-17
  0.00000000E+00 -7.01832687E-01
Constraint Structure                       R   N=           6
  0.00000000E+00  0.00000000E+00  7.01832687E-01  8.32667268E-17  0.00000000E+00
 -7.01832687E-01
Num ILSW                                   I              100
ILSW                                       I   N=         100
           0           1           0           0           2           0
           0           0           0           0         402          -1
           0           0           0           0           2           0
           0           0           1           0           1           0
           1           0           0           0           0           0
           0           0      100000           0          -1           0
           0           0           0           0           0           0
           0           0           0           1           0           0
           0           0           1           0           0           0
           0           0           4          41           0           0
           0           0           5           0           0           0
           0           0           0           0           0           0
           0           0           0           0           0           0
           0           0           0           0           0           0
           0           0           0           0           0           0
           0           0           0           0           0           0
           0           0           0           0
Num RLSW                                   I               41
RLSW                                       R   N=          41
  8.00000000E-01  7.20000000E-01  1.00000000E+00  8.10000000E-01  2.00000000E-01
  0.00000000E+00  0.00000000E+00  1.00000000E+00  0.00000000E+00  0.00000000E+00
  0.00000000E+00  0.00000000E+00  1.00000000E+00  0.00000000E+00  0.00000000E+00
  0.00000000E+00  0.00000000E+00  1.00000000E+00  0.00000000E+00  0.00000000E+00
  0.00000000E+00  0.00000000E+00  1.00000000E+00  0.00000000E+00  0.00000000E+00
  0.00000000E+00  0.00000000E+00  1.00000000E+00  0.00000000E+00  0.00000000E+00
  0.00000000E+00  0.00000000E+00  1.00000000E+00  0.00000000E+00  0.00000000E+00
  0.00000000E+00  0.00000000E+00  0.00000000E+00  1.00000000E+00  1.00000000E+00
  0.00000000E+00
MxBond                                     I                1
NBond                                      I   N=           2
           1           1
IBond                                      I   N=           2
           2           1
RBond                                      R   N=           2
  2.00000000E+00  2.00000000E+00
Virial Ratio                               R      2.028231332676434E+00
SCF Energy                                 R     -1.175482387704973E+00
Total Energy                               R     -1.175482387704973E+00
RMS Force                                  R      1.730712542569191E-07
External E-field                           R   N=          35
  0.00000000E+00  0.00000000E+00  0.00000000E+00  0.00000000E+00  0.00000000E+00
  0.00000000E+00  0.00000000E+00  0.00000000E+00  0.00000000E+00  0.00000000E+00
  0.00000000E+00  0.00000000E+00  0.00000000E+00  0.00000000E+00  0.00000000E+00
  0.00000000E+00  0.00000000E+00  0.00000000E+00  0.00000000E+00  0.00000000E+00
  0.00000000E+00  0.00000000E+00  0.00000000E+00  0.00000000E+00  0.00000000E+00
  0.00000000E+00  0.00000000E+00  0.00000000E+00  0.00000000E+00  0.00000000E+00
  0.00000000E+00  0.00000000E+00  0.00000000E+00  0.00000000E+00  0.00000000E+00
IOpCl                                      I                0
IROHF                                      I                0
Alpha Orbital Energies                     R   N=           4
 -4.33957639E-01  1.00087774E-01  5.81380977E-01  1.10720254E+00
Alpha MO coefficients                      R   N=          16
  3.32632739E-01  2.66984672E-01  3.32632739E-01  2.66984672E-01  1.80205116E-01
  1.63688807E+00 -1.80205116E-01 -1.63688807E+00  7.64906377E-01 -6.88591677E-01
  7.64906377E-01 -6.88591677E-01 -1.11260006E+00  1.43267519E+00  1.11260006E+00
 -1.43267519E+00
Total SCF Density                          R   N=          10
  2.21289078E-01  1.77615685E-01  1.42561630E-01  2.21289078E-01  1.77615685E-01
  2.21289078E-01  1.77615685E-01  1.42561630E-01  1.77615685E-01  1.42561630E-01
Mulliken Charges                           R   N=           2
 -4.44089210E-16 -4.44089210E-16
Optimization MaxStp                        I                2
Optimization Job offset                    I                0
Optimization Num results per geometry      I                2
Optimization Num geometry variables        I                6
Opt point       1 Results for each geome   R   N=           2
 -1.17548239E+00  0.00000000E+00
Opt point       1 Geometries               R   N=           6
  0.00000000E+00  0.00000000E+00  7.01832687E-01  8.32667268E-17  0.00000000E+00
 -7.01832687E-01
Opt point       1 Gradient at each geome   R   N=           6
 -2.26529795E-17  0.00000000E+00 -2.99768206E-07  2.26529795E-17  0.00000000E+00
  2.99768206E-07
Optimization Number of geometries          I   N=           1
           1
ONIOM Charges                              I   N=          16
           0           0           0           0           0           0
           0           0           0           0           0           0
           0           0           0           0
ONIOM Multiplicities                       I   N=          16
           1           0           0           0           0           0
           0           0           0           0           0           0
           0           0           0           0
Atom Layers                                I   N=           2
           1           1
Atom Modifiers                             I   N=           2
           0           0
Force Field                                I                0
Int Atom Modified Types                    I   N=           2
           0           0
Link Atoms                                 I   N=           2
           0           0
Atom Modified MM Charges                   R   N=           2
  0.00000000E+00  0.00000000E+00
Link Distances                             R   N=           8
  0.00000000E+00  0.00000000E+00  0.00000000E+00  0.00000000E+00  0.00000000E+00
  0.00000000E+00  0.00000000E+00  0.00000000E+00
Cartesian Gradient                         R   N=           6
 -2.26529795E-17  0.00000000E+00 -2.99768206E-07  2.26529795E-17  0.00000000E+00
  2.99768206E-07
Cartesian Force Constants                  R   N=          21
 -2.71907689E-06  0.00000000E+00 -2.71907690E-06  1.21420714E-17  1.10549468E-17
  3.78156210E-01  2.71907689E-06  0.00000000E+00 -1.03065248E-17 -2.71907689E-06
  0.00000000E+00  2.71907690E-06 -1.10549468E-17  0.00000000E+00 -2.71907690E-06
 -1.03065248E-17 -1.10549468E-17 -3.78156210E-01  8.47097827E-18  1.10549468E-17
  3.78156210E-01
Dipole Moment                              R   N=           3
 -2.46519033E-32  0.00000000E+00 -1.38777878E-17
Dipole Derivatives                         R   N=          18
 -6.66133815E-16  0.00000000E+00 -1.19267633E-27  0.00000000E+00 -6.66133815E-16
  0.00000000E+00 -5.25479046E-27  0.00000000E+00  8.85724901E-11 -4.44089210E-16
  0.00000000E+00  9.69284394E-27  0.00000000E+00 -4.44089210E-16  0.00000000E+00
 -1.65618125E-17  0.00000000E+00  8.83676253E-11
Polarizability                             R   N=           6
  2.24422313E-32  0.00000000E+00  0.00000000E+00 -3.78318979E-16  0.00000000E+00
  6.37749641E+00
QEq coupling tensors                       R   N=          12
  1.85204865E-01  0.00000000E+00  1.85204865E-01  4.27147229E-17  0.00000000E+00
 -3.70409729E-01  1.85204865E-01  0.00000000E+00  1.85204865E-01  1.69724057E-17
  0.00000000E+00 -3.70409729E-01
