 Entering Gaussian System, Link 0=/share/apps/g09/g09
 Input=C3H7_1_relax.gjf
 Output=C3H7_1_relax.log
 Initial command:
 /share/apps/g09/l1.exe /state/partition1/Gau-16934.inp -scrdir=/state/partition1/
 Entering Link 1 = /share/apps/g09/l1.exe PID=     16935.
  
 Copyright (c) 1988,1990,1992,1993,1995,1998,2003,2009, Gaussian, Inc.
                  All Rights Reserved.
  
 This is part of the Gaussian(R) 09 program.  It is based on
 the Gaussian(R) 03 system (copyright 2003, Gaussian, Inc.),
 the Gaussian(R) 98 system (copyright 1998, Gaussian, Inc.),
 the Gaussian(R) 94 system (copyright 1995, Gaussian, Inc.),
 the Gaussian 92(TM) system (copyright 1992, Gaussian, Inc.),
 the Gaussian 90(TM) system (copyright 1990, Gaussian, Inc.),
 the Gaussian 88(TM) system (copyright 1988, Gaussian, Inc.),
 the Gaussian 86(TM) system (copyright 1986, Carnegie Mellon
 University), and the Gaussian 82(TM) system (copyright 1983,
 Carnegie Mellon University). Gaussian is a federally registered
 trademark of Gaussian, Inc.
  
 This software contains proprietary and confidential information,
 including trade secrets, belonging to Gaussian, Inc.
  
 This software is provided under written license and may be
 used, copied, transmitted, or stored only in accord with that
 written license.
  
 The following legend is applicable only to US Government
 contracts under FAR:
  
                    RESTRICTED RIGHTS LEGEND
  
 Use, reproduction and disclosure by the US Government is
 subject to restrictions as set forth in subparagraphs (a)
 and (c) of the Commercial Computer Software - Restricted
 Rights clause in FAR 52.227-19.
  
 Gaussian, Inc.
 340 Quinnipiac St., Bldg. 40, Wallingford CT 06492
  
  
 ---------------------------------------------------------------
 Warning -- This program may not be used in any manner that
 competes with the business of Gaussian, Inc. or will provide
 assistance to any competitor of Gaussian, Inc.  The licensee
 of this program is prohibited from giving any competitor of
 Gaussian, Inc. access to this program.  By using this program,
 the user acknowledges that Gaussian, Inc. is engaged in the
 business of creating and licensing software in the field of
 computational chemistry and represents and warrants to the
 licensee that it is not a competitor of Gaussian, Inc. and that
 it will not use this program in any manner prohibited above.
 ---------------------------------------------------------------
  

 Cite this work as:
 Gaussian 09, Revision A.01,
 M. J. Frisch, G. W. Trucks, H. B. Schlegel, G. E. Scuseria, 
 M. A. Robb, J. R. Cheeseman, G. Scalmani, V. Barone, B. Mennucci, 
 G. A. Petersson, H. Nakatsuji, M. Caricato, X. Li, H. P. Hratchian, 
 A. F. Izmaylov, J. Bloino, G. Zheng, J. L. Sonnenberg, M. Hada, 
 M. Ehara, K. Toyota, R. Fukuda, J. Hasegawa, M. Ishida, T. Nakajima, 
 Y. Honda, O. Kitao, H. Nakai, T. Vreven, J. A. Montgomery, Jr., 
 J. E. Peralta, F. Ogliaro, M. Bearpark, J. J. Heyd, E. Brothers, 
 K. N. Kudin, V. N. Staroverov, R. Kobayashi, J. Normand, 
 K. Raghavachari, A. Rendell, J. C. Burant, S. S. Iyengar, J. Tomasi, 
 M. Cossi, N. Rega, J. M. Millam, M. Klene, J. E. Knox, J. B. Cross, 
 V. Bakken, C. Adamo, J. Jaramillo, R. Gomperts, R. E. Stratmann, 
 O. Yazyev, A. J. Austin, R. Cammi, C. Pomelli, J. W. Ochterski, 
 R. L. Martin, K. Morokuma, V. G. Zakrzewski, G. A. Voth, 
 P. Salvador, J. J. Dannenberg, S. Dapprich, A. D. Daniels, 
 O. Farkas, J. B. Foresman, J. V. Ortiz, J. Cioslowski, 
 and D. J. Fox, Gaussian, Inc., Wallingford CT, 2009.
 
 ******************************************
 Gaussian 09:  EM64L-G09RevA.01  8-May-2009
                 1-Apr-2015 
 ******************************************
 %mem=28GB
 %nprocshared=12
 Will use up to   12 processors via shared memory.
 %chk=C3H7_1_relax.chk
 -----------------------------------
 #p ub3lyp/6-31g(d) opt=modredundant
 -----------------------------------
 1/14=-1,18=120,19=15,26=3,38=1/1,3;
 2/9=110,12=2,17=6,18=5,40=1/2;
 3/5=1,6=6,7=1,11=2,16=1,25=1,30=1,71=1,74=-5,116=2/1,2,3;
 4//1;
 5/5=2,38=5/2;
 6/7=2,8=2,9=2,10=2,28=1/1;
 7//1,2,3,16;
 1/14=-1,18=20,19=15/3(2);
 2/9=110/2;
 99//99;
 2/9=110/2;
 3/5=1,6=6,7=1,11=2,16=1,25=1,30=1,71=1,74=-5,116=2/1,2,3;
 4/5=5,16=3/1;
 5/5=2,38=5/2;
 7//1,2,3,16;
 1/14=-1,18=20,19=15/3(-5);
 2/9=110/2;
 6/7=2,8=2,9=2,10=2,19=2,28=1/1;
 99/9=1/99;
 Leave Link    1 at Wed Apr  1 22:08:34 2015, MaxMem= 3758096384 cpu:       0.4
 (Enter /share/apps/g09/l101.exe)
 ---------------------------------------------------
 C3H7O2_62_b3631gd using cbs-qb3 to calculate energy
 ---------------------------------------------------
 Symbolic Z-matrix:
 Charge =  0 Multiplicity = 2
 C                     1.22803  -0.2446   -0.04047 
 H                     1.30125  -0.76495  -1.00199 
 H                     1.2837   -1.00076   0.75205 
 H                     2.1014    0.40956   0.05965 
 C                    -0.0802    0.55407   0.05507 
 H                    -0.07837   1.11845   1.00739 
 H                    -0.10405   1.3251   -0.72872 
 C                    -1.30463  -0.29393  -0.03356 
 H                    -1.30228  -1.31063   0.35007 
 H                    -2.26084   0.12996  -0.3247 
 
 NAtoms=     10 NQM=     10 NQMF=      0 NMic=      0 NMicF=      0 NTot=     10.
 The following ModRedundant input section has been read:
 D    1    5    8    9 S  36 10.000                                            
                    Isotopes and Nuclear Properties:
 (Nuclear quadrupole moments (NQMom) in fm**2, nuclear magnetic moments (NMagM)
  in nuclear magnetons)

  Atom         1           2           3           4           5           6           7           8           9          10
 IAtWgt=          12           1           1           1          12           1           1          12           1           1
 AtmWgt=  12.0000000   1.0078250   1.0078250   1.0078250  12.0000000   1.0078250   1.0078250  12.0000000   1.0078250   1.0078250
 NucSpn=           0           1           1           1           0           1           1           0           1           1
 AtZEff=   0.0000000   0.0000000   0.0000000   0.0000000   0.0000000   0.0000000   0.0000000   0.0000000   0.0000000   0.0000000
 NQMom=    0.0000000   0.0000000   0.0000000   0.0000000   0.0000000   0.0000000   0.0000000   0.0000000   0.0000000   0.0000000
 NMagM=    0.0000000   2.7928460   2.7928460   2.7928460   0.0000000   2.7928460   2.7928460   0.0000000   2.7928460   2.7928460
 Leave Link  101 at Wed Apr  1 22:08:34 2015, MaxMem= 3758096384 cpu:       0.5
 (Enter /share/apps/g09/l103.exe)

 GradGradGradGradGradGradGradGradGradGradGradGradGradGradGradGradGradGrad
 Berny optimization.
 Initialization pass.
                           ----------------------------
                           !    Initial Parameters    !
                           ! (Angstroms and Degrees)  !
 --------------------------                            --------------------------
 ! Name  Definition              Value          Derivative Info.                !
 --------------------------------------------------------------------------------
 ! R1    R(1,2)                  1.0957         estimate D2E/DX2                !
 ! R2    R(1,3)                  1.0968         estimate D2E/DX2                !
 ! R3    R(1,4)                  1.0958         estimate D2E/DX2                !
 ! R4    R(1,5)                  1.5357         estimate D2E/DX2                !
 ! R5    R(5,6)                  1.107          estimate D2E/DX2                !
 ! R6    R(5,7)                  1.0997         estimate D2E/DX2                !
 ! R7    R(5,8)                  1.492          estimate D2E/DX2                !
 ! R8    R(8,9)                  1.0867         estimate D2E/DX2                !
 ! R9    R(8,10)                 1.0857         estimate D2E/DX2                !
 ! A1    A(2,1,3)              107.6546         estimate D2E/DX2                !
 ! A2    A(2,1,4)              108.0836         estimate D2E/DX2                !
 ! A3    A(2,1,5)              111.0072         estimate D2E/DX2                !
 ! A4    A(3,1,4)              107.7639         estimate D2E/DX2                !
 ! A5    A(3,1,5)              110.9059         estimate D2E/DX2                !
 ! A6    A(4,1,5)              111.2731         estimate D2E/DX2                !
 ! A7    A(1,5,6)              108.4969         estimate D2E/DX2                !
 ! A8    A(1,5,7)              109.8014         estimate D2E/DX2                !
 ! A9    A(1,5,8)              113.5658         estimate D2E/DX2                !
 ! A10   A(6,5,7)              104.816          estimate D2E/DX2                !
 ! A11   A(6,5,8)              110.0118         estimate D2E/DX2                !
 ! A12   A(7,5,8)              109.7762         estimate D2E/DX2                !
 ! A13   A(5,8,9)              120.5978         estimate D2E/DX2                !
 ! A14   A(5,8,10)             121.1168         estimate D2E/DX2                !
 ! A15   A(9,8,10)             117.5069         estimate D2E/DX2                !
 ! D1    D(2,1,5,6)           -176.0113         estimate D2E/DX2                !
 ! D2    D(2,1,5,7)            -61.9922         estimate D2E/DX2                !
 ! D3    D(2,1,5,8)             61.332          estimate D2E/DX2                !
 ! D4    D(3,1,5,6)             64.3553         estimate D2E/DX2                !
 ! D5    D(3,1,5,7)            178.3744         estimate D2E/DX2                !
 ! D6    D(3,1,5,8)            -58.3014         estimate D2E/DX2                !
 ! D7    D(4,1,5,6)            -55.5917         estimate D2E/DX2                !
 ! D8    D(4,1,5,7)             58.4274         estimate D2E/DX2                !
 ! D9    D(4,1,5,8)           -178.2484         estimate D2E/DX2                !
 ! D10   D(1,5,8,9)             31.8807         Scan                            !
 ! D11   D(1,5,8,10)          -158.4771         estimate D2E/DX2                !
 ! D12   D(6,5,8,9)            -89.9369         estimate D2E/DX2                !
 ! D13   D(6,5,8,10)            79.7053         estimate D2E/DX2                !
 ! D14   D(7,5,8,9)            155.2187         estimate D2E/DX2                !
 ! D15   D(7,5,8,10)           -35.1391         estimate D2E/DX2                !
 --------------------------------------------------------------------------------
 Trust Radius=3.00D-01 FncErr=1.00D-07 GrdErr=1.00D-06
 Number of optimizations in scan=  37
 Number of steps in this run=  49 maximum allowed number of steps= 100.
 GradGradGradGradGradGradGradGradGradGradGradGradGradGradGradGradGradGrad

 Leave Link  103 at Wed Apr  1 22:08:34 2015, MaxMem= 3758096384 cpu:       0.1
 (Enter /share/apps/g09/l202.exe)
                          Input orientation:                          
 ---------------------------------------------------------------------
 Center     Atomic      Atomic             Coordinates (Angstroms)
 Number     Number       Type             X           Y           Z
 ---------------------------------------------------------------------
      1          6           0        1.228025   -0.244599   -0.040468
      2          1           0        1.301254   -0.764945   -1.001988
      3          1           0        1.283700   -1.000757    0.752048
      4          1           0        2.101404    0.409563    0.059652
      5          6           0       -0.080200    0.554070    0.055066
      6          1           0       -0.078374    1.118455    1.007391
      7          1           0       -0.104051    1.325099   -0.728721
      8          6           0       -1.304629   -0.293929   -0.033557
      9          1           0       -1.302278   -1.310629    0.350068
     10          1           0       -2.260838    0.129959   -0.324698
 ---------------------------------------------------------------------
                    Distance matrix (angstroms):
                    1          2          3          4          5
     1  C    0.000000
     2  H    1.095739   0.000000
     3  H    1.096794   1.769903   0.000000
     4  H    1.095784   1.773919   1.771173   0.000000
     5  C    1.535725   2.183021   2.182543   2.186390   0.000000
     6  H    2.159306   3.080288   2.532095   2.480357   1.107003
     7  H    2.170730   2.533346   3.086768   2.514711   1.099717
     8  C    2.533144   2.819635   2.795752   3.479174   1.492040
     9  H    2.773332   2.983992   2.635316   3.824716   2.248912
    10  H    3.520404   3.734712   3.873196   4.388059   2.253724
                    6          7          8          9         10
     6  H    0.000000
     7  H    1.748555   0.000000
     8  C    2.140585   2.132110   0.000000
     9  H    2.798297   3.089757   1.086670   0.000000
    10  H    2.741302   2.498665   1.085716   1.857267   0.000000
 Stoichiometry    C3H7(2)
 Framework group  C1[X(C3H7)]
 Deg. of freedom    24
 Full point group                 C1      NOp   1
 Largest Abelian subgroup         C1      NOp   1
 Largest concise Abelian subgroup C1      NOp   1
                         Standard orientation:                         
 ---------------------------------------------------------------------
 Center     Atomic      Atomic             Coordinates (Angstroms)
 Number     Number       Type             X           Y           Z
 ---------------------------------------------------------------------
      1          6           0        1.228025   -0.244599   -0.040468
      2          1           0        1.301254   -0.764945   -1.001988
      3          1           0        1.283700   -1.000757    0.752048
      4          1           0        2.101404    0.409563    0.059652
      5          6           0       -0.080200    0.554070    0.055066
      6          1           0       -0.078374    1.118455    1.007391
      7          1           0       -0.104051    1.325099   -0.728721
      8          6           0       -1.304629   -0.293929   -0.033557
      9          1           0       -1.302278   -1.310629    0.350068
     10          1           0       -2.260838    0.129959   -0.324698
 ---------------------------------------------------------------------
 Rotational constants (GHZ):     32.7612553      8.9121407      7.7429830
 Leave Link  202 at Wed Apr  1 22:08:34 2015, MaxMem= 3758096384 cpu:       0.1
 (Enter /share/apps/g09/l301.exe)
 Standard basis: 6-31G(d) (6D, 7F)
 Ernie: Thresh=  0.10000D-02 Tol=  0.10000D-05 Strict=F.
 There are    59 symmetry adapted basis functions of A   symmetry.
 Integral buffers will be    131072 words long.
 Raffenetti 2 integral format.
 Two-electron integral symmetry is turned on.
    59 basis functions,   112 primitive gaussians,    59 cartesian basis functions
    13 alpha electrons       12 beta electrons
       nuclear repulsion energy        75.6425730142 Hartrees.
 IExCor=  402 DFT=T Ex+Corr=B3LYP ExCW=0 ScaHFX=  0.200000
 ScaDFX=  0.800000  0.720000  1.000000  0.810000 ScalE2=  1.000000  1.000000
 IRadAn=      0 IRanWt=     -1 IRanGd=            0 ICorTp=0
 NAtoms=   10 NActive=   10 NUniq=   10 SFac= 7.50D-01 NAtFMM=   80 NAOKFM=F Big=F
 Leave Link  301 at Wed Apr  1 22:08:34 2015, MaxMem= 3758096384 cpu:       0.6
 (Enter /share/apps/g09/l302.exe)
 NPDir=0 NMtPBC=     1 NCelOv=     1 NCel=       1 NClECP=     1 NCelD=      1
         NCelK=      1 NCelE2=     1 NClLst=     1 CellRange=     0.0.
 One-electron integrals computed using PRISM.
 NBasis=    59 RedAO= T  NBF=    59
 NBsUse=    59 1.00D-06 NBFU=    59
 Precomputing XC quadrature grid using
 IXCGrd= 2 IRadAn=           0 IRanWt=          -1 IRanGd=           0 AccXCQ= 1.00D-10.
 NRdTot=     616 NPtTot=       78248 NUsed=       82703 NTot=       82735
 NSgBfM=    59    59    59    59    59 NAtAll=    10    10.
 Leave Link  302 at Wed Apr  1 22:08:34 2015, MaxMem= 3758096384 cpu:       1.9
 (Enter /share/apps/g09/l303.exe)
 DipDrv:  MaxL=1.
 Leave Link  303 at Wed Apr  1 22:08:34 2015, MaxMem= 3758096384 cpu:       0.2
 (Enter /share/apps/g09/l401.exe)
 Harris functional with IExCor=  402 diagonalized for initial guess.
 ExpMin= 1.61D-01 ExpMax= 3.05D+03 ExpMxC= 4.57D+02 IAcc=1 IRadAn=         1 AccDes= 0.00D+00
 HarFok:  IExCor=  402 AccDes= 0.00D+00 IRadAn=         1 IDoV= 1
 ScaDFX=  1.000000  1.000000  1.000000  1.000000
 FoFCou: FMM=F IPFlag=           0 FMFlag=      100000 FMFlg1=           0
         NFxFlg=           0 DoJE=T BraDBF=F KetDBF=T FulRan=T
         Omega=  0.000000  0.000000  1.000000  0.000000  0.000000 ICntrl=     500 IOpCl=  0
         NMat0=    1 NMatS0=    1 NMatT0=    0 NMatD0=    1 NMtDS0=    0 NMtDT0=    0
         I1Cent=           4 NGrid=           0.
 Petite list used in FoFCou.
 Harris En= -118.499797908514    
 Initial guess orbital symmetries:
 Alpha Orbitals:
       Occupied  (A) (A) (A) (A) (A) (A) (A) (A) (A) (A) (A) (A)
                 (A)
       Virtual   (A) (A) (A) (A) (A) (A) (A) (A) (A) (A) (A) (A)
                 (A) (A) (A) (A) (A) (A) (A) (A) (A) (A) (A) (A)
                 (A) (A) (A) (A) (A) (A) (A) (A) (A) (A) (A) (A)
                 (A) (A) (A) (A) (A) (A) (A) (A) (A) (A)
 Beta  Orbitals:
       Occupied  (A) (A) (A) (A) (A) (A) (A) (A) (A) (A) (A) (A)
       Virtual   (A) (A) (A) (A) (A) (A) (A) (A) (A) (A) (A) (A)
                 (A) (A) (A) (A) (A) (A) (A) (A) (A) (A) (A) (A)
                 (A) (A) (A) (A) (A) (A) (A) (A) (A) (A) (A) (A)
                 (A) (A) (A) (A) (A) (A) (A) (A) (A) (A) (A)
 The electronic state of the initial guess is 2-A.
 Initial guess <Sx>= 0.0000 <Sy>= 0.0000 <Sz>= 0.5000 <S**2>= 0.7500 S= 0.5000
 Leave Link  401 at Wed Apr  1 22:08:35 2015, MaxMem= 3758096384 cpu:       3.8
 (Enter /share/apps/g09/l502.exe)
 UHF open shell SCF:
 Requested convergence on RMS density matrix=1.00D-08 within 128 cycles.
 Requested convergence on MAX density matrix=1.00D-06.
 Requested convergence on             energy=1.00D-06.
 No special actions if energy rises.
 Using DIIS extrapolation, IDIIS=  1040.
 Integral symmetry usage will be decided dynamically.
        82600 words used for storage of precomputed grid.
 Keep R1 and R2 ints in memory in canonical form, NReq=4123375.
 IEnd=      112356 IEndB=      112356 NGot=  3758096384 MDV=  3754869511
 LenX=  3754869511 LenY=  3754865589
 Symmetry not used in FoFDir.
 MinBra= 0 MaxBra= 2 Meth= 1.
 IRaf=       0 NMat=   1 IRICut=       1 DoRegI=T DoRafI=F ISym2E= 0 JSym2E=0.
 Integral accuracy reduced to 1.0D-05 until final iterations.

 Cycle   1  Pass 0  IDiag  1:
 E= -118.332880921029    
 DIIS: error= 5.59D-02 at cycle   1 NSaved=   1.
 NSaved= 1 IEnMin= 1 EnMin= -118.332880921029     IErMin= 1 ErrMin= 5.59D-02
 ErrMax= 5.59D-02 EMaxC= 1.00D-01 BMatC= 4.79D-01 BMatP= 4.79D-01
 IDIUse=3 WtCom= 4.41D-01 WtEn= 5.59D-01
 Coeff-Com:  0.100D+01
 Coeff-En:   0.100D+01
 Coeff:      0.100D+01
 Gap=     0.242 Goal=   None    Shift=    0.000
 Gap=     0.308 Goal=   None    Shift=    0.000
 GapD=    0.242 DampG=1.000 DampE=0.500 DampFc=0.5000 IDamp=-1.
 Damping current iteration by 5.00D-01
 RMSDP=1.29D-02 MaxDP=1.40D-01              OVMax= 1.88D-01

 Cycle   2  Pass 0  IDiag  1:
 E= -118.395705848420     Delta-E=       -0.062824927391 Rises=F Damp=T
 DIIS: error= 9.74D-03 at cycle   2 NSaved=   2.
 NSaved= 2 IEnMin= 2 EnMin= -118.395705848420     IErMin= 2 ErrMin= 9.74D-03
 ErrMax= 9.74D-03 EMaxC= 1.00D-01 BMatC= 1.87D-02 BMatP= 4.79D-01
 IDIUse=3 WtCom= 9.03D-01 WtEn= 9.74D-02
 Coeff-Com:  0.694D-01 0.931D+00
 Coeff-En:   0.100D+00 0.900D+00
 Coeff:      0.724D-01 0.928D+00
 Gap=     0.293 Goal=   None    Shift=    0.000
 Gap=     0.319 Goal=   None    Shift=    0.000
 RMSDP=1.73D-03 MaxDP=1.97D-02 DE=-6.28D-02 OVMax= 9.29D-02

 Cycle   3  Pass 0  IDiag  1:
 E= -118.470923803297     Delta-E=       -0.075217954877 Rises=F Damp=F
 DIIS: error= 2.36D-03 at cycle   3 NSaved=   3.
 NSaved= 3 IEnMin= 3 EnMin= -118.470923803297     IErMin= 3 ErrMin= 2.36D-03
 ErrMax= 2.36D-03 EMaxC= 1.00D-01 BMatC= 1.57D-03 BMatP= 1.87D-02
 IDIUse=3 WtCom= 9.76D-01 WtEn= 2.36D-02
 Coeff-Com: -0.202D-03 0.151D+00 0.849D+00
 Coeff-En:   0.000D+00 0.000D+00 0.100D+01
 Coeff:     -0.197D-03 0.148D+00 0.853D+00
 Gap=     0.303 Goal=   None    Shift=    0.000
 Gap=     0.297 Goal=   None    Shift=    0.000
 RMSDP=5.31D-04 MaxDP=9.41D-03 DE=-7.52D-02 OVMax= 9.17D-03

 Cycle   4  Pass 0  IDiag  1:
 E= -118.471216900160     Delta-E=       -0.000293096863 Rises=F Damp=F
 DIIS: error= 1.08D-03 at cycle   4 NSaved=   4.
 NSaved= 4 IEnMin= 4 EnMin= -118.471216900160     IErMin= 4 ErrMin= 1.08D-03
 ErrMax= 1.08D-03 EMaxC= 1.00D-01 BMatC= 5.53D-04 BMatP= 1.57D-03
 IDIUse=3 WtCom= 9.89D-01 WtEn= 1.08D-02
 Coeff-Com: -0.205D-02 0.120D-01 0.368D+00 0.622D+00
 Coeff-En:   0.000D+00 0.000D+00 0.139D+00 0.861D+00
 Coeff:     -0.203D-02 0.119D-01 0.365D+00 0.625D+00
 Gap=     0.299 Goal=   None    Shift=    0.000
 Gap=     0.302 Goal=   None    Shift=    0.000
 RMSDP=2.00D-04 MaxDP=3.31D-03 DE=-2.93D-04 OVMax= 3.84D-03

 Cycle   5  Pass 0  IDiag  1:
 E= -118.471351584545     Delta-E=       -0.000134684385 Rises=F Damp=F
 DIIS: error= 3.05D-04 at cycle   5 NSaved=   5.
 NSaved= 5 IEnMin= 5 EnMin= -118.471351584545     IErMin= 5 ErrMin= 3.05D-04
 ErrMax= 3.05D-04 EMaxC= 1.00D-01 BMatC= 3.46D-05 BMatP= 5.53D-04
 IDIUse=3 WtCom= 9.97D-01 WtEn= 3.05D-03
 Coeff-Com: -0.631D-03-0.913D-02 0.587D-01 0.225D+00 0.726D+00
 Coeff-En:   0.000D+00 0.000D+00 0.000D+00 0.000D+00 0.100D+01
 Coeff:     -0.629D-03-0.910D-02 0.586D-01 0.224D+00 0.727D+00
 Gap=     0.300 Goal=   None    Shift=    0.000
 Gap=     0.301 Goal=   None    Shift=    0.000
 RMSDP=5.83D-05 MaxDP=1.22D-03 DE=-1.35D-04 OVMax= 1.06D-03

 Cycle   6  Pass 0  IDiag  1:
 E= -118.471361742460     Delta-E=       -0.000010157915 Rises=F Damp=F
 DIIS: error= 6.92D-05 at cycle   6 NSaved=   6.
 NSaved= 6 IEnMin= 6 EnMin= -118.471361742460     IErMin= 6 ErrMin= 6.92D-05
 ErrMax= 6.92D-05 EMaxC= 1.00D-01 BMatC= 1.63D-06 BMatP= 3.46D-05
 IDIUse=1 WtCom= 1.00D+00 WtEn= 0.00D+00
 Coeff-Com:  0.116D-03-0.774D-03-0.437D-01-0.809D-01-0.230D-01 0.115D+01
 Coeff:      0.116D-03-0.774D-03-0.437D-01-0.809D-01-0.230D-01 0.115D+01
 Gap=     0.301 Goal=   None    Shift=    0.000
 Gap=     0.302 Goal=   None    Shift=    0.000
 RMSDP=2.34D-05 MaxDP=3.68D-04 DE=-1.02D-05 OVMax= 4.12D-04

 Cycle   7  Pass 0  IDiag  1:
 E= -118.471362744031     Delta-E=       -0.000001001572 Rises=F Damp=F
 DIIS: error= 2.73D-05 at cycle   7 NSaved=   7.
 NSaved= 7 IEnMin= 7 EnMin= -118.471362744031     IErMin= 7 ErrMin= 2.73D-05
 ErrMax= 2.73D-05 EMaxC= 1.00D-01 BMatC= 1.28D-07 BMatP= 1.63D-06
 IDIUse=1 WtCom= 1.00D+00 WtEn= 0.00D+00
 Coeff-Com:  0.341D-04 0.523D-03-0.130D-01-0.318D-01-0.548D-01 0.243D+00
 Coeff-Com:  0.856D+00
 Coeff:      0.341D-04 0.523D-03-0.130D-01-0.318D-01-0.548D-01 0.243D+00
 Coeff:      0.856D+00
 Gap=     0.301 Goal=   None    Shift=    0.000
 Gap=     0.302 Goal=   None    Shift=    0.000
 RMSDP=5.86D-06 MaxDP=7.95D-05 DE=-1.00D-06 OVMax= 9.66D-05

 Initial convergence to 1.0D-05 achieved.  Increase integral accuracy.
 Cycle   8  Pass 1  IDiag  1:
 E= -118.471371521504     Delta-E=       -0.000008777473 Rises=F Damp=F
 DIIS: error= 7.17D-06 at cycle   1 NSaved=   1.
 NSaved= 1 IEnMin= 1 EnMin= -118.471371521504     IErMin= 1 ErrMin= 7.17D-06
 ErrMax= 7.17D-06 EMaxC= 1.00D-01 BMatC= 4.09D-08 BMatP= 4.09D-08
 IDIUse=1 WtCom= 1.00D+00 WtEn= 0.00D+00
 Coeff-Com:  0.100D+01
 Coeff:      0.100D+01
 Gap=     0.301 Goal=   None    Shift=    0.000
 Gap=     0.302 Goal=   None    Shift=    0.000
 RMSDP=5.86D-06 MaxDP=7.95D-05 DE=-8.78D-06 OVMax= 5.37D-05

 Cycle   9  Pass 1  IDiag  1:
 E= -118.471371531542     Delta-E=       -0.000000010037 Rises=F Damp=F
 DIIS: error= 8.46D-06 at cycle   2 NSaved=   2.
 NSaved= 2 IEnMin= 2 EnMin= -118.471371531542     IErMin= 1 ErrMin= 7.17D-06
 ErrMax= 8.46D-06 EMaxC= 1.00D-01 BMatC= 1.81D-08 BMatP= 4.09D-08
 IDIUse=1 WtCom= 1.00D+00 WtEn= 0.00D+00
 Coeff-Com:  0.365D+00 0.635D+00
 Coeff:      0.365D+00 0.635D+00
 Gap=     0.301 Goal=   None    Shift=    0.000
 Gap=     0.302 Goal=   None    Shift=    0.000
 RMSDP=1.40D-06 MaxDP=1.97D-05 DE=-1.00D-08 OVMax= 2.31D-05

 Cycle  10  Pass 1  IDiag  1:
 E= -118.471371535431     Delta-E=       -0.000000003890 Rises=F Damp=F
 DIIS: error= 3.65D-06 at cycle   3 NSaved=   3.
 NSaved= 3 IEnMin= 3 EnMin= -118.471371535431     IErMin= 3 ErrMin= 3.65D-06
 ErrMax= 3.65D-06 EMaxC= 1.00D-01 BMatC= 3.04D-09 BMatP= 1.81D-08
 IDIUse=1 WtCom= 1.00D+00 WtEn= 0.00D+00
 Coeff-Com: -0.426D-01 0.272D+00 0.771D+00
 Coeff:     -0.426D-01 0.272D+00 0.771D+00
 Gap=     0.301 Goal=   None    Shift=    0.000
 Gap=     0.302 Goal=   None    Shift=    0.000
 RMSDP=4.29D-07 MaxDP=6.94D-06 DE=-3.89D-09 OVMax= 1.01D-05

 Cycle  11  Pass 1  IDiag  1:
 E= -118.471371536244     Delta-E=       -0.000000000813 Rises=F Damp=F
 DIIS: error= 3.29D-07 at cycle   4 NSaved=   4.
 NSaved= 4 IEnMin= 4 EnMin= -118.471371536244     IErMin= 4 ErrMin= 3.29D-07
 ErrMax= 3.29D-07 EMaxC= 1.00D-01 BMatC= 3.13D-11 BMatP= 3.04D-09
 IDIUse=1 WtCom= 1.00D+00 WtEn= 0.00D+00
 Coeff-Com: -0.474D-02-0.422D-01-0.785D-01 0.113D+01
 Coeff:     -0.474D-02-0.422D-01-0.785D-01 0.113D+01
 Gap=     0.301 Goal=   None    Shift=    0.000
 Gap=     0.302 Goal=   None    Shift=    0.000
 RMSDP=1.11D-07 MaxDP=1.45D-06 DE=-8.13D-10 OVMax= 2.21D-06

 Cycle  12  Pass 1  IDiag  1:
 E= -118.471371536265     Delta-E=       -0.000000000021 Rises=F Damp=F
 DIIS: error= 1.82D-07 at cycle   5 NSaved=   5.
 NSaved= 5 IEnMin= 5 EnMin= -118.471371536265     IErMin= 5 ErrMin= 1.82D-07
 ErrMax= 1.82D-07 EMaxC= 1.00D-01 BMatC= 7.54D-12 BMatP= 3.13D-11
 IDIUse=1 WtCom= 1.00D+00 WtEn= 0.00D+00
 Coeff-Com:  0.480D-02-0.508D-01-0.131D+00 0.308D+00 0.869D+00
 Coeff:      0.480D-02-0.508D-01-0.131D+00 0.308D+00 0.869D+00
 Gap=     0.301 Goal=   None    Shift=    0.000
 Gap=     0.302 Goal=   None    Shift=    0.000
 RMSDP=4.51D-08 MaxDP=6.68D-07 DE=-2.07D-11 OVMax= 8.25D-07

 Cycle  13  Pass 1  IDiag  1:
 E= -118.471371536268     Delta-E=       -0.000000000003 Rises=F Damp=F
 DIIS: error= 6.40D-08 at cycle   6 NSaved=   6.
 NSaved= 6 IEnMin= 6 EnMin= -118.471371536268     IErMin= 6 ErrMin= 6.40D-08
 ErrMax= 6.40D-08 EMaxC= 1.00D-01 BMatC= 1.10D-12 BMatP= 7.54D-12
 IDIUse=1 WtCom= 1.00D+00 WtEn= 0.00D+00
 Coeff-Com:  0.228D-02-0.152D-01-0.416D-01 0.966D-02 0.339D+00 0.705D+00
 Coeff:      0.228D-02-0.152D-01-0.416D-01 0.966D-02 0.339D+00 0.705D+00
 Gap=     0.301 Goal=   None    Shift=    0.000
 Gap=     0.302 Goal=   None    Shift=    0.000
 RMSDP=1.23D-08 MaxDP=2.33D-07 DE=-3.07D-12 OVMax= 2.04D-07

 Cycle  14  Pass 1  IDiag  1:
 E= -118.471371536269     Delta-E=        0.000000000000 Rises=F Damp=F
 DIIS: error= 1.39D-08 at cycle   7 NSaved=   7.
 NSaved= 7 IEnMin= 7 EnMin= -118.471371536269     IErMin= 7 ErrMin= 1.39D-08
 ErrMax= 1.39D-08 EMaxC= 1.00D-01 BMatC= 7.66D-14 BMatP= 1.10D-12
 IDIUse=1 WtCom= 1.00D+00 WtEn= 0.00D+00
 Coeff-Com:  0.119D-03 0.101D-02 0.192D-02-0.311D-01 0.480D-02 0.214D+00
 Coeff-Com:  0.809D+00
 Coeff:      0.119D-03 0.101D-02 0.192D-02-0.311D-01 0.480D-02 0.214D+00
 Coeff:      0.809D+00
 Gap=     0.301 Goal=   None    Shift=    0.000
 Gap=     0.302 Goal=   None    Shift=    0.000
 RMSDP=3.75D-09 MaxDP=5.16D-08 DE=-3.98D-13 OVMax= 5.75D-08

 SCF Done:  E(UB3LYP) =  -118.471371536     A.U. after   14 cycles
             Convg  =    0.3753D-08             -V/T =  2.0104
 <Sx>= 0.0000 <Sy>= 0.0000 <Sz>= 0.5000 <S**2>= 0.7539 S= 0.5019
 <L.S>= 0.000000000000E+00
 KE= 1.172559823939D+02 PE=-4.245838803293D+02 EE= 1.132139533849D+02
 Annihilation of the first spin contaminant:
 S**2 before annihilation     0.7539,   after     0.7500
 Leave Link  502 at Wed Apr  1 22:08:37 2015, MaxMem= 3758096384 cpu:      28.0
 (Enter /share/apps/g09/l601.exe)
 Copying SCF densities to generalized density rwf, IOpCl= 1 IROHF=0.

 **********************************************************************

            Population analysis using the SCF density.

 **********************************************************************

 Orbital symmetries:
 Alpha Orbitals:
       Occupied  (A) (A) (A) (A) (A) (A) (A) (A) (A) (A) (A) (A)
                 (A)
       Virtual   (A) (A) (A) (A) (A) (A) (A) (A) (A) (A) (A) (A)
                 (A) (A) (A) (A) (A) (A) (A) (A) (A) (A) (A) (A)
                 (A) (A) (A) (A) (A) (A) (A) (A) (A) (A) (A) (A)
                 (A) (A) (A) (A) (A) (A) (A) (A) (A) (A)
 Beta  Orbitals:
       Occupied  (A) (A) (A) (A) (A) (A) (A) (A) (A) (A) (A) (A)
       Virtual   (A) (A) (A) (A) (A) (A) (A) (A) (A) (A) (A) (A)
                 (A) (A) (A) (A) (A) (A) (A) (A) (A) (A) (A) (A)
                 (A) (A) (A) (A) (A) (A) (A) (A) (A) (A) (A) (A)
                 (A) (A) (A) (A) (A) (A) (A) (A) (A) (A) (A)
 The electronic state is 2-A.
 Alpha  occ. eigenvalues --  -10.18535 -10.18367 -10.17350  -0.77841  -0.67109
 Alpha  occ. eigenvalues --   -0.57922  -0.45136  -0.43685  -0.40349  -0.35648
 Alpha  occ. eigenvalues --   -0.34927  -0.33954  -0.19553
 Alpha virt. eigenvalues --    0.10503   0.13971   0.14697   0.15593   0.17474
 Alpha virt. eigenvalues --    0.18734   0.20248   0.24450   0.28042   0.51331
 Alpha virt. eigenvalues --    0.52172   0.54190   0.57689   0.59544   0.61952
 Alpha virt. eigenvalues --    0.67096   0.72448   0.80667   0.84745   0.86768
 Alpha virt. eigenvalues --    0.89487   0.91282   0.93878   0.96075   0.96666
 Alpha virt. eigenvalues --    1.00328   1.18901   1.42905   1.49072   1.59883
 Alpha virt. eigenvalues --    1.68178   1.83735   1.91596   1.94718   1.98741
 Alpha virt. eigenvalues --    2.06623   2.14142   2.23878   2.33617   2.35882
 Alpha virt. eigenvalues --    2.42970   2.61152   2.68365   4.09489   4.20695
 Alpha virt. eigenvalues --    4.44457
  Beta  occ. eigenvalues --  -10.18623 -10.17318 -10.16987  -0.76931  -0.65372
  Beta  occ. eigenvalues --   -0.56437  -0.44569  -0.43005  -0.39803  -0.34980
  Beta  occ. eigenvalues --   -0.34346  -0.33634
  Beta virt. eigenvalues --   -0.03466   0.10719   0.14879   0.15270   0.15908
  Beta virt. eigenvalues --    0.17595   0.18967   0.20734   0.24943   0.28681
  Beta virt. eigenvalues --    0.51670   0.52470   0.55893   0.59096   0.63289
  Beta virt. eigenvalues --    0.64029   0.67298   0.73172   0.81942   0.85461
  Beta virt. eigenvalues --    0.87147   0.89760   0.91593   0.94512   0.96427
  Beta virt. eigenvalues --    0.98445   1.00616   1.19784   1.44540   1.49952
  Beta virt. eigenvalues --    1.60043   1.73576   1.85264   1.93223   1.95630
  Beta virt. eigenvalues --    2.01391   2.09057   2.16998   2.24248   2.34273
  Beta virt. eigenvalues --    2.37142   2.43729   2.61966   2.68932   4.11798
  Beta virt. eigenvalues --    4.21669   4.44814
          Condensed to atoms (all electrons):
              1          2          3          4          5          6
     1  C    5.063972   0.377845   0.378859   0.370200   0.378246  -0.042056
     2  H    0.377845   0.570249  -0.032494  -0.030113  -0.035318   0.005497
     3  H    0.378859  -0.032494   0.576215  -0.031395  -0.035641  -0.004557
     4  H    0.370200  -0.030113  -0.031395   0.578886  -0.028443  -0.002258
     5  C    0.378246  -0.035318  -0.035641  -0.028443   4.905609   0.371781
     6  H   -0.042056   0.005497  -0.004557  -0.002258   0.371781   0.618039
     7  H   -0.036413  -0.004990   0.005129  -0.002789   0.377548  -0.042852
     8  C   -0.048254  -0.000033  -0.004209   0.004486   0.394361  -0.050278
     9  H   -0.005527   0.000163   0.004272   0.000054  -0.040098   0.000619
    10  H    0.003879   0.000029  -0.000013  -0.000155  -0.031630   0.001020
              7          8          9         10
     1  C   -0.036413  -0.048254  -0.005527   0.003879
     2  H   -0.004990  -0.000033   0.000163   0.000029
     3  H    0.005129  -0.004209   0.004272  -0.000013
     4  H   -0.002789   0.004486   0.000054  -0.000155
     5  C    0.377548   0.394361  -0.040098  -0.031630
     6  H   -0.042852  -0.050278   0.000619   0.001020
     7  H    0.602126  -0.040444   0.004489  -0.004355
     8  C   -0.040444   5.304679   0.374373   0.368844
     9  H    0.004489   0.374373   0.560548  -0.038198
    10  H   -0.004355   0.368844  -0.038198   0.561312
 Mulliken atomic charges:
              1
     1  C   -0.440752
     2  H    0.149165
     3  H    0.143833
     4  H    0.141526
     5  C   -0.256416
     6  H    0.145047
     7  H    0.142550
     8  C   -0.303525
     9  H    0.139305
    10  H    0.139266
 Sum of Mulliken atomic charges =   0.00000
 Mulliken charges with hydrogens summed into heavy atoms:
              1
     1  C   -0.006227
     5  C    0.031181
     8  C   -0.024954
 Sum of Mulliken charges with hydrogens summed into heavy atoms =   0.00000
          Atomic-Atomic Spin Densities.
              1          2          3          4          5          6
     1  C    0.027754  -0.006824   0.001249  -0.004532   0.008139  -0.009751
     2  H   -0.006824   0.003946  -0.000963   0.002090  -0.001075   0.001001
     3  H    0.001249  -0.000963   0.000126  -0.000657   0.000704  -0.001337
     4  H   -0.004532   0.002090  -0.000657   0.002510   0.000214   0.002303
     5  C    0.008139  -0.001075   0.000704   0.000214  -0.065225   0.012363
     6  H   -0.009751   0.001001  -0.001337   0.002303   0.012363   0.101132
     7  H    0.006762  -0.001370   0.000252  -0.001049   0.006222  -0.013619
     8  C   -0.012647   0.005465  -0.000375   0.000490  -0.038189  -0.030981
     9  H    0.000840  -0.000114   0.000090  -0.000047   0.000115  -0.000477
    10  H    0.000059  -0.000039   0.000020  -0.000001  -0.000406  -0.000560
              7          8          9         10
     1  C    0.006762  -0.012647   0.000840   0.000059
     2  H   -0.001370   0.005465  -0.000114  -0.000039
     3  H    0.000252  -0.000375   0.000090   0.000020
     4  H   -0.001049   0.000490  -0.000047  -0.000001
     5  C    0.006222  -0.038189   0.000115  -0.000406
     6  H   -0.013619  -0.030981  -0.000477  -0.000560
     7  H    0.030651  -0.011487   0.000095   0.000877
     8  C   -0.011487   1.189676  -0.007303  -0.006391
     9  H    0.000095  -0.007303  -0.046469   0.002328
    10  H    0.000877  -0.006391   0.002328  -0.047069
 Mulliken atomic spin densities:
              1
     1  C    0.011049
     2  H    0.002117
     3  H   -0.000892
     4  H    0.001320
     5  C   -0.077138
     6  H    0.060074
     7  H    0.017336
     8  C    1.088260
     9  H   -0.050943
    10  H   -0.051184
 Sum of Mulliken atomic spin densities =   1.00000
 Electronic spatial extent (au):  <R**2>=            212.3332
 Charge=              0.0000 electrons
 Dipole moment (field-independent basis, Debye):
    X=              0.1243    Y=              0.1820    Z=              0.1210  Tot=              0.2514
 Quadrupole moment (field-independent basis, Debye-Ang):
   XX=            -20.8076   YY=            -20.3794   ZZ=            -21.1677
   XY=             -0.0521   XZ=              0.1072   YZ=             -0.4544
 Traceless Quadrupole moment (field-independent basis, Debye-Ang):
   XX=             -0.0227   YY=              0.4055   ZZ=             -0.3828
   XY=             -0.0521   XZ=              0.1072   YZ=             -0.4544
 Octapole moment (field-independent basis, Debye-Ang**2):
  XXX=             -0.9566  YYY=             -0.2618  ZZZ=              0.1383  XYY=             -0.0597
  XXY=              1.0939  XXZ=             -0.5809  XZZ=              1.1562  YZZ=              0.3379
  YYZ=              0.5068  XYZ=              0.6276
 Hexadecapole moment (field-independent basis, Debye-Ang**3):
 XXXX=           -185.3592 YYYY=            -64.3796 ZZZZ=            -36.8279 XXXY=              0.1528
 XXXZ=              2.3952 YYYX=              0.7855 YYYZ=             -1.5690 ZZZX=             -0.4640
 ZZZY=              0.0263 XXYY=            -42.1399 XXZZ=            -39.4565 YYZZ=            -15.9825
 XXYZ=             -0.8632 YYXZ=             -0.4043 ZZXY=             -1.1283
 N-N= 7.564257301424D+01 E-N=-6.320776398606D+02  KE= 1.752503509760D+02
                          Isotropic Fermi Contact Couplings
        Atom                 a.u.       MegaHertz       Gauss      10(-4) cm-1
     1  C(13)              0.01532      17.22084       6.14482       5.74425
     2  H(1)              -0.00042      -1.87086      -0.66757      -0.62405
     3  H(1)              -0.00032      -1.43538      -0.51218      -0.47879
     4  H(1)              -0.00002      -0.09779      -0.03489      -0.03262
     5  C(13)             -0.02584     -29.04492     -10.36395      -9.68834
     6  H(1)               0.03125     139.66149      49.83469      46.58606
     7  H(1)               0.00952      42.55715      15.18545      14.19554
     8  C(13)              0.11974     134.61325      48.03335      44.90215
     9  H(1)              -0.01499     -67.01497     -23.91261     -22.35379
    10  H(1)              -0.01505     -67.27973     -24.00708     -22.44210
 --------------------------------------------------------
       Center         ----  Spin Dipole Couplings  ----
                      3XX-RR        3YY-RR        3ZZ-RR
 --------------------------------------------------------
     1   Atom        0.021949     -0.009711     -0.012238
     2   Atom        0.010305     -0.005550     -0.004756
     3   Atom        0.007605     -0.003972     -0.003633
     4   Atom        0.006653     -0.003121     -0.003532
     5   Atom        0.005424     -0.006369      0.000945
     6   Atom        0.001583      0.001570     -0.003153
     7   Atom       -0.000949      0.008405     -0.007457
     8   Atom       -0.466600     -0.393100      0.859699
     9   Atom       -0.067616      0.064126      0.003490
    10   Atom        0.044594     -0.041585     -0.003008
 --------------------------------------------------------
                        XY            XZ            YZ
 --------------------------------------------------------
     1   Atom       -0.007377      0.005526     -0.001536
     2   Atom       -0.002996     -0.004860      0.002108
     3   Atom       -0.004413      0.004591     -0.001580
     4   Atom        0.001780      0.000310      0.000400
     5   Atom        0.012698      0.000417      0.006906
     6   Atom        0.011173      0.005024      0.008825
     7   Atom        0.012255     -0.004340     -0.005368
     8   Atom       -0.101775     -0.311995      0.442858
     9   Atom       -0.005718     -0.012010     -0.029225
    10   Atom       -0.054839      0.022629      0.002142
 --------------------------------------------------------


 ---------------------------------------------------------------------------------
              Anisotropic Spin Dipole Couplings in Principal Axis System
 ---------------------------------------------------------------------------------

       Atom             a.u.   MegaHertz   Gauss  10(-4) cm-1        Axes

              Baa    -0.0132    -1.769    -0.631    -0.590 -0.1133  0.1908  0.9751
     1 C(13)  Bbb    -0.0113    -1.516    -0.541    -0.506  0.2391  0.9578 -0.1596
              Bcc     0.0245     3.285     1.172     1.096  0.9644 -0.2150  0.1541
 
              Baa    -0.0074    -3.927    -1.401    -1.310  0.0765 -0.7002  0.7098
     2 H(1)   Bbb    -0.0051    -2.695    -0.962    -0.899  0.3375  0.6881  0.6423
              Bcc     0.0124     6.622     2.363     2.209  0.9382 -0.1904 -0.2890
 
              Baa    -0.0055    -2.916    -1.041    -0.973  0.2763  0.9524  0.1289
     3 H(1)   Bbb    -0.0053    -2.812    -1.003    -0.938 -0.3440 -0.0272  0.9386
              Bcc     0.0107     5.728     2.044     1.911  0.8974 -0.3036  0.3201
 
              Baa    -0.0038    -2.046    -0.730    -0.682  0.0866 -0.6429  0.7610
     4 H(1)   Bbb    -0.0031    -1.679    -0.599    -0.560 -0.1560  0.7457  0.6477
              Bcc     0.0070     3.725     1.329     1.242  0.9840  0.1748  0.0357
 
              Baa    -0.0163    -2.193    -0.783    -0.732 -0.4734  0.8219 -0.3169
     5 C(13)  Bbb     0.0015     0.205     0.073     0.068 -0.4260  0.1013  0.8990
              Bcc     0.0148     1.989     0.710     0.663  0.7710  0.5606  0.3022
 
              Baa    -0.0113    -6.042    -2.156    -2.015 -0.4291  0.7330 -0.5278
     6 H(1)   Bbb    -0.0061    -3.275    -1.169    -1.092 -0.6695  0.1341  0.7306
              Bcc     0.0175     9.317     3.325     3.108  0.6063  0.6669  0.4332
 
              Baa    -0.0098    -5.253    -1.874    -1.752  0.7092 -0.2868  0.6440
     7 H(1)   Bbb    -0.0088    -4.703    -1.678    -1.569 -0.4380  0.5366  0.7213
              Bcc     0.0187     9.956     3.552     3.321  0.5524  0.7936 -0.2549
 
              Baa    -0.5381   -72.204   -25.764   -24.085  0.8470  0.5312  0.0207
     8 C(13)  Bbb    -0.5324   -71.446   -25.494   -23.832 -0.4889  0.7937 -0.3620
              Bcc     1.0705   143.651    51.258    47.917 -0.2088  0.2965  0.9319
 
              Baa    -0.0705   -37.592   -13.414   -12.539  0.9779  0.0832  0.1917
     9 H(1)   Bbb    -0.0055    -2.917    -1.041    -0.973 -0.2089  0.3640  0.9077
              Bcc     0.0759    40.509    14.455    13.512 -0.0057  0.9277 -0.3734
 
              Baa    -0.0704   -37.560   -13.402   -12.529  0.4520  0.8737 -0.1796
    10 H(1)   Bbb    -0.0057    -3.029    -1.081    -1.010 -0.1378  0.2673  0.9537
              Bcc     0.0761    40.589    14.483    13.539  0.8813 -0.4064  0.2412
 

 ---------------------------------------------------------------------------------

 No NMR shielding tensors so no spin-rotation constants.
 Leave Link  601 at Wed Apr  1 22:08:38 2015, MaxMem= 3758096384 cpu:       6.9
 (Enter /share/apps/g09/l701.exe)
 Compute integral first derivatives.
 ... and contract with generalized density number  0.
 Leave Link  701 at Wed Apr  1 22:08:39 2015, MaxMem= 3758096384 cpu:       4.9
 (Enter /share/apps/g09/l702.exe)
 L702 exits ... SP integral derivatives will be done elsewhere.
 Leave Link  702 at Wed Apr  1 22:08:39 2015, MaxMem= 3758096384 cpu:       0.2
 (Enter /share/apps/g09/l703.exe)
 Compute integral first derivatives, UseDBF=F ICtDFT=           0.
 Integral derivatives from FoFDir, PRISM(SPDF).
 Calling FoFJK, ICntrl=      2127 FMM=F ISym2X=0 I1Cent= 0 IOpClX= 1 NMat=1 NMatS=1 NMatT=0.
 FoFCou: FMM=F IPFlag=           0 FMFlag=      100000 FMFlg1=         800
         NFxFlg=           0 DoJE=F BraDBF=F KetDBF=F FulRan=T
         Omega=  0.000000  0.000000  1.000000  0.000000  0.000000 ICntrl=    2127 IOpCl=  1
         NMat0=    1 NMatS0=    1 NMatT0=    0 NMatD0=    1 NMtDS0=    0 NMtDT0=    0
         I1Cent=           0 NGrid=           0.
 Symmetry not used in FoFCou.
 Leave Link  703 at Wed Apr  1 22:08:40 2015, MaxMem= 3758096384 cpu:       8.9
 (Enter /share/apps/g09/l716.exe)
 Dipole        = 4.88969875D-02 7.15863610D-02 4.76008755D-02
 ***** Axes restored to original set *****
 -------------------------------------------------------------------
 Center     Atomic                   Forces (Hartrees/Bohr)
 Number     Number              X              Y              Z
 -------------------------------------------------------------------
      1        6          -0.000017082    0.000014417    0.000003300
      2        1           0.000003063   -0.000005205    0.000001984
      3        1           0.000003061    0.000000803    0.000001469
      4        1           0.000001807   -0.000000940   -0.000001071
      5        6           0.000023337   -0.000003758   -0.000004345
      6        1          -0.000003297    0.000002274   -0.000003703
      7        1          -0.000001178   -0.000003696   -0.000004442
      8        6          -0.000013020   -0.000009709    0.000008884
      9        1          -0.000000414    0.000002411    0.000000942
     10        1           0.000003724    0.000003403   -0.000003018
 -------------------------------------------------------------------
 Cartesian Forces:  Max     0.000023337 RMS     0.000007291
 Leave Link  716 at Wed Apr  1 22:08:40 2015, MaxMem= 3758096384 cpu:       0.2
 (Enter /share/apps/g09/l103.exe)

 GradGradGradGradGradGradGradGradGradGradGradGradGradGradGradGradGradGrad
 Berny optimization.
 Internal  Forces:  Max     0.000012966 RMS     0.000004115
 Search for a local minimum.
 Step number   1 out of a maximum of   49 on scan point     1 out of    37
 All quantities printed in internal units (Hartrees-Bohrs-Radians)
 RMS Force = .41688D-05 SwitMx=.10000D-02 MixMth= 2
 Mixed Optimization -- En-DIIS/RFO-DIIS
 Second derivative matrix not updated -- first step.
     Eigenvalues ---    0.00293   0.00909   0.03246   0.05400   0.05435
     Eigenvalues ---    0.05491   0.09616   0.12031   0.16000   0.16000
     Eigenvalues ---    0.16000   0.16000   0.16000   0.21891   0.28901
     Eigenvalues ---    0.32919   0.33227   0.33713   0.34039   0.34153
     Eigenvalues ---    0.34158   0.35200   0.353121000.000001000.00000
     Eigenvalues --- 1000.000001000.000001000.000001000.000001000.00000
     Eigenvalues --- 1000.000001000.000001000.000001000.000001000.00000
     Eigenvalues --- 1000.000001000.000001000.000001000.00000
 RFO step:  Lambda= 0.00000000D+00 EMin= 2.93372919D-03
 Linear search not attempted -- first point.
 Iteration  1 RMS(Cart)=  0.00005102 RMS(Int)=  0.00000000
 Iteration  2 RMS(Cart)=  0.00000000 RMS(Int)=  0.00000000
 Iteration  1 RMS(Cart)=  0.00000000 RMS(Int)=  0.00000000
 Variable       Old X    -DE/DX   Delta X   Delta X   Delta X     New X
                                 (Linear)    (Quad)   (Total)
    R1        2.07065   0.00000   0.00000   0.00000   0.00000   2.07065
    R2        2.07264   0.00000   0.00000   0.00000   0.00000   2.07264
    R3        2.07073   0.00000   0.00000   0.00000   0.00000   2.07073
    R4        2.90210  -0.00001   0.00000  -0.00004  -0.00004   2.90205
    R5        2.09193   0.00000   0.00000   0.00000   0.00000   2.09193
    R6        2.07816   0.00000   0.00000   0.00000   0.00000   2.07816
    R7        2.81955   0.00001   0.00000   0.00003   0.00003   2.81958
    R8        2.05351   0.00000   0.00000  -0.00001  -0.00001   2.05350
    R9        2.05171   0.00000   0.00000   0.00000   0.00000   2.05170
    A1        1.87893   0.00000   0.00000  -0.00002  -0.00002   1.87890
    A2        1.88642   0.00000   0.00000  -0.00002  -0.00002   1.88640
    A3        1.93744   0.00000   0.00000   0.00002   0.00002   1.93746
    A4        1.88083   0.00000   0.00000  -0.00002  -0.00002   1.88082
    A5        1.93567   0.00000   0.00000   0.00003   0.00003   1.93570
    A6        1.94208   0.00000   0.00000   0.00001   0.00001   1.94209
    A7        1.89363   0.00000   0.00000   0.00002   0.00002   1.89365
    A8        1.91640   0.00000   0.00000  -0.00002  -0.00002   1.91638
    A9        1.98210   0.00001   0.00000   0.00005   0.00005   1.98215
   A10        1.82938   0.00000   0.00000   0.00000   0.00000   1.82938
   A11        1.92007  -0.00001   0.00000  -0.00003  -0.00003   1.92004
   A12        1.91596   0.00000   0.00000  -0.00003  -0.00003   1.91592
   A13        2.10483   0.00001   0.00000   0.00004   0.00004   2.10487
   A14        2.11389  -0.00001   0.00000  -0.00005  -0.00005   2.11384
   A15        2.05088   0.00000   0.00000   0.00003   0.00003   2.05091
    D1       -3.07198   0.00000   0.00000   0.00003   0.00003  -3.07194
    D2       -1.08197   0.00000   0.00000   0.00003   0.00003  -1.08193
    D3        1.07044   0.00000   0.00000   0.00002   0.00002   1.07046
    D4        1.12321   0.00000   0.00000   0.00003   0.00003   1.12324
    D5        3.11322   0.00000   0.00000   0.00003   0.00003   3.11325
    D6       -1.01755   0.00000   0.00000   0.00002   0.00002  -1.01754
    D7       -0.97026   0.00000   0.00000   0.00003   0.00003  -0.97023
    D8        1.01975   0.00000   0.00000   0.00003   0.00003   1.01978
    D9       -3.11102   0.00000   0.00000   0.00001   0.00001  -3.11101
   D10        0.55642   0.00000   0.00000   0.00000   0.00000   0.55642
   D11       -2.76595   0.00000   0.00000   0.00013   0.00013  -2.76582
   D12       -1.56970   0.00000   0.00000  -0.00004  -0.00004  -1.56974
   D13        1.39112   0.00000   0.00000   0.00009   0.00009   1.39121
   D14        2.70908   0.00000   0.00000  -0.00001  -0.00001   2.70907
   D15       -0.61329   0.00000   0.00000   0.00012   0.00012  -0.61317
         Item               Value     Threshold  Converged?
 Maximum Force            0.000013     0.000450     YES
 RMS     Force            0.000004     0.000300     YES
 Maximum Displacement     0.000170     0.001800     YES
 RMS     Displacement     0.000051     0.001200     YES
 Predicted change in Energy=-1.759209D-09
 Optimization completed.
    -- Stationary point found.
                           ----------------------------
                           !   Optimized Parameters   !
                           ! (Angstroms and Degrees)  !
 --------------------------                            --------------------------
 ! Name  Definition              Value          Derivative Info.                !
 --------------------------------------------------------------------------------
 ! R1    R(1,2)                  1.0957         -DE/DX =    0.0                 !
 ! R2    R(1,3)                  1.0968         -DE/DX =    0.0                 !
 ! R3    R(1,4)                  1.0958         -DE/DX =    0.0                 !
 ! R4    R(1,5)                  1.5357         -DE/DX =    0.0                 !
 ! R5    R(5,6)                  1.107          -DE/DX =    0.0                 !
 ! R6    R(5,7)                  1.0997         -DE/DX =    0.0                 !
 ! R7    R(5,8)                  1.492          -DE/DX =    0.0                 !
 ! R8    R(8,9)                  1.0867         -DE/DX =    0.0                 !
 ! R9    R(8,10)                 1.0857         -DE/DX =    0.0                 !
 ! A1    A(2,1,3)              107.6546         -DE/DX =    0.0                 !
 ! A2    A(2,1,4)              108.0836         -DE/DX =    0.0                 !
 ! A3    A(2,1,5)              111.0072         -DE/DX =    0.0                 !
 ! A4    A(3,1,4)              107.7639         -DE/DX =    0.0                 !
 ! A5    A(3,1,5)              110.9059         -DE/DX =    0.0                 !
 ! A6    A(4,1,5)              111.2731         -DE/DX =    0.0                 !
 ! A7    A(1,5,6)              108.4969         -DE/DX =    0.0                 !
 ! A8    A(1,5,7)              109.8014         -DE/DX =    0.0                 !
 ! A9    A(1,5,8)              113.5658         -DE/DX =    0.0                 !
 ! A10   A(6,5,7)              104.816          -DE/DX =    0.0                 !
 ! A11   A(6,5,8)              110.0118         -DE/DX =    0.0                 !
 ! A12   A(7,5,8)              109.7762         -DE/DX =    0.0                 !
 ! A13   A(5,8,9)              120.5978         -DE/DX =    0.0                 !
 ! A14   A(5,8,10)             121.1168         -DE/DX =    0.0                 !
 ! A15   A(9,8,10)             117.5069         -DE/DX =    0.0                 !
 ! D1    D(2,1,5,6)           -176.0113         -DE/DX =    0.0                 !
 ! D2    D(2,1,5,7)            -61.9922         -DE/DX =    0.0                 !
 ! D3    D(2,1,5,8)             61.332          -DE/DX =    0.0                 !
 ! D4    D(3,1,5,6)             64.3553         -DE/DX =    0.0                 !
 ! D5    D(3,1,5,7)            178.3744         -DE/DX =    0.0                 !
 ! D6    D(3,1,5,8)            -58.3014         -DE/DX =    0.0                 !
 ! D7    D(4,1,5,6)            -55.5917         -DE/DX =    0.0                 !
 ! D8    D(4,1,5,7)             58.4274         -DE/DX =    0.0                 !
 ! D9    D(4,1,5,8)           -178.2484         -DE/DX =    0.0                 !
 ! D10   D(1,5,8,9)             31.8807         -DE/DX =    0.0                 !
 ! D11   D(1,5,8,10)          -158.4771         -DE/DX =    0.0                 !
 ! D12   D(6,5,8,9)            -89.9369         -DE/DX =    0.0                 !
 ! D13   D(6,5,8,10)            79.7053         -DE/DX =    0.0                 !
 ! D14   D(7,5,8,9)            155.2187         -DE/DX =    0.0                 !
 ! D15   D(7,5,8,10)           -35.1391         -DE/DX =    0.0                 !
 --------------------------------------------------------------------------------
 Iteration  1 RMS(Cart)=  0.01992877 RMS(Int)=  0.02030503
 Iteration  2 RMS(Cart)=  0.00041940 RMS(Int)=  0.02029980
 Iteration  3 RMS(Cart)=  0.00000166 RMS(Int)=  0.02029980
 Iteration  4 RMS(Cart)=  0.00000007 RMS(Int)=  0.02029980
 Iteration  1 RMS(Cart)=  0.01052723 RMS(Int)=  0.01072003
 Iteration  2 RMS(Cart)=  0.00556794 RMS(Int)=  0.01197997
 Iteration  3 RMS(Cart)=  0.00294486 RMS(Int)=  0.01348294
 Iteration  4 RMS(Cart)=  0.00155772 RMS(Int)=  0.01443962
 Iteration  5 RMS(Cart)=  0.00082406 RMS(Int)=  0.01498146
 Iteration  6 RMS(Cart)=  0.00043597 RMS(Int)=  0.01527692
 Iteration  7 RMS(Cart)=  0.00023066 RMS(Int)=  0.01543555
 Iteration  8 RMS(Cart)=  0.00012204 RMS(Int)=  0.01552010
 Iteration  9 RMS(Cart)=  0.00006457 RMS(Int)=  0.01556500
 Iteration 10 RMS(Cart)=  0.00003416 RMS(Int)=  0.01558881
 Iteration 11 RMS(Cart)=  0.00001808 RMS(Int)=  0.01560142
 Iteration 12 RMS(Cart)=  0.00000956 RMS(Int)=  0.01560809
 Iteration 13 RMS(Cart)=  0.00000506 RMS(Int)=  0.01561163
 Iteration 14 RMS(Cart)=  0.00000268 RMS(Int)=  0.01561349
 Iteration 15 RMS(Cart)=  0.00000142 RMS(Int)=  0.01561448
 Iteration 16 RMS(Cart)=  0.00000075 RMS(Int)=  0.01561501
 GradGradGradGradGradGradGradGradGradGradGradGradGradGradGradGradGradGrad

 Leave Link  103 at Wed Apr  1 22:08:41 2015, MaxMem= 3758096384 cpu:       9.9
 (Enter /share/apps/g09/l202.exe)
                          Input orientation:                          
 ---------------------------------------------------------------------
 Center     Atomic      Atomic             Coordinates (Angstroms)
 Number     Number       Type             X           Y           Z
 ---------------------------------------------------------------------
      1          6           0        1.232542   -0.242125   -0.050927
      2          1           0        1.297151   -0.739022   -1.025419
      3          1           0        1.304412   -1.016368    0.722648
      4          1           0        2.102148    0.416401    0.053372
      5          6           0       -0.080376    0.543680    0.080463
      6          1           0       -0.124717    1.121724    1.023628
      7          1           0       -0.066598    1.302886   -0.715109
      8          6           0       -1.299193   -0.306936   -0.051180
      9          1           0       -1.338269   -1.281835    0.428385
     10          1           0       -2.243085    0.123883   -0.371068
 ---------------------------------------------------------------------
                    Distance matrix (angstroms):
                    1          2          3          4          5
     1  C    0.000000
     2  H    1.095772   0.000000
     3  H    1.096831   1.769948   0.000000
     4  H    1.095787   1.773927   1.771198   0.000000
     5  C    1.535743   2.183090   2.182611   2.186400   0.000000
     6  H    2.203839   3.111700   2.589292   2.529389   1.107096
     7  H    2.125079   2.474974   3.053810   2.465741   1.099781
     8  C    2.532565   2.806571   2.807288   3.478976   1.492110
     9  H    2.814215   3.058371   2.672232   3.855012   2.244070
    10  H    3.509478   3.702168   3.883442   4.375702   2.248871
                    6          7          8          9         10
     6  H    0.000000
     7  H    1.749115   0.000000
     8  C    2.139083   2.133452   0.000000
     9  H    2.757557   3.099276   1.087170   0.000000
    10  H    2.725499   2.499101   1.085756   1.853068   0.000000
 Stoichiometry    C3H7(2)
 Framework group  C1[X(C3H7)]
 Deg. of freedom    24
 Full point group                 C1      NOp   1
 Largest Abelian subgroup         C1      NOp   1
 Largest concise Abelian subgroup C1      NOp   1
                         Standard orientation:                         
 ---------------------------------------------------------------------
 Center     Atomic      Atomic             Coordinates (Angstroms)
 Number     Number       Type             X           Y           Z
 ---------------------------------------------------------------------
      1          6           0        1.229390   -0.245715   -0.041495
      2          1           0        1.294766   -0.760204   -1.006764
      3          1           0        1.293998   -1.006484    0.745966
      4          1           0        2.102339    0.409659    0.054397
      5          6           0       -0.079510    0.549671    0.070952
      6          1           0       -0.124041    1.144622    1.003536
      7          1           0       -0.058477    1.294534   -0.737909
      8          6           0       -1.302654   -0.296281   -0.050194
      9          1           0       -1.349047   -1.262270    0.446445
     10          1           0       -2.242892    0.134089   -0.381252
 ---------------------------------------------------------------------
 Rotational constants (GHZ):     32.7844923      8.8815744      7.7586003
 Leave Link  202 at Wed Apr  1 22:08:41 2015, MaxMem= 3758096384 cpu:       0.3
 (Enter /share/apps/g09/l301.exe)
 Standard basis: 6-31G(d) (6D, 7F)
 Ernie: Thresh=  0.10000D-02 Tol=  0.10000D-05 Strict=F.
 There are    59 symmetry adapted basis functions of A   symmetry.
 Integral buffers will be    131072 words long.
 Raffenetti 2 integral format.
 Two-electron integral symmetry is turned on.
    59 basis functions,   112 primitive gaussians,    59 cartesian basis functions
    13 alpha electrons       12 beta electrons
       nuclear repulsion energy        75.6335093440 Hartrees.
 IExCor=  402 DFT=T Ex+Corr=B3LYP ExCW=0 ScaHFX=  0.200000
 ScaDFX=  0.800000  0.720000  1.000000  0.810000 ScalE2=  1.000000  1.000000
 IRadAn=      0 IRanWt=     -1 IRanGd=            0 ICorTp=0
 NAtoms=   10 NActive=   10 NUniq=   10 SFac= 7.50D-01 NAtFMM=   80 NAOKFM=F Big=F
 Leave Link  301 at Wed Apr  1 22:08:41 2015, MaxMem= 3758096384 cpu:       0.4
 (Enter /share/apps/g09/l302.exe)
 NPDir=0 NMtPBC=     1 NCelOv=     1 NCel=       1 NClECP=     1 NCelD=      1
         NCelK=      1 NCelE2=     1 NClLst=     1 CellRange=     0.0.
 One-electron integrals computed using PRISM.
 NBasis=    59 RedAO= T  NBF=    59
 NBsUse=    59 1.00D-06 NBFU=    59
 Precomputing XC quadrature grid using
 IXCGrd= 2 IRadAn=           0 IRanWt=          -1 IRanGd=           0 AccXCQ= 1.00D-10.
 NRdTot=     616 NPtTot=       78248 NUsed=       82703 NTot=       82735
 NSgBfM=    59    59    59    59    59 NAtAll=    10    10.
 Leave Link  302 at Wed Apr  1 22:08:42 2015, MaxMem= 3758096384 cpu:       3.8
 (Enter /share/apps/g09/l303.exe)
 DipDrv:  MaxL=1.
 Leave Link  303 at Wed Apr  1 22:08:42 2015, MaxMem= 3758096384 cpu:       0.7
 (Enter /share/apps/g09/l401.exe)
 Initial guess read from the read-write file.
 B after Tr=     0.000000    0.000000    0.000000
         Rot=    1.000000    0.000000    0.000000    0.000000 Ang=   0.00 deg.
 Guess basis will be translated and rotated to current coordinates.
 Initial guess orbital symmetries:
 Alpha Orbitals:
       Occupied  (A) (A) (A) (A) (A) (A) (A) (A) (A) (A) (A) (A)
                 (A)
       Virtual   (A) (A) (A) (A) (A) (A) (A) (A) (A) (A) (A) (A)
                 (A) (A) (A) (A) (A) (A) (A) (A) (A) (A) (A) (A)
                 (A) (A) (A) (A) (A) (A) (A) (A) (A) (A) (A) (A)
                 (A) (A) (A) (A) (A) (A) (A) (A) (A) (A)
 Beta  Orbitals:
       Occupied  (A) (A) (A) (A) (A) (A) (A) (A) (A) (A) (A) (A)
       Virtual   (A) (A) (A) (A) (A) (A) (A) (A) (A) (A) (A) (A)
                 (A) (A) (A) (A) (A) (A) (A) (A) (A) (A) (A) (A)
                 (A) (A) (A) (A) (A) (A) (A) (A) (A) (A) (A) (A)
                 (A) (A) (A) (A) (A) (A) (A) (A) (A) (A) (A)
 The electronic state of the initial guess is 2-A.
 Initial guess <Sx>= 0.0000 <Sy>= 0.0000 <Sz>= 0.5000 <S**2>= 0.7539 S= 0.5019
 Generating alternative initial guess.
 Harris functional with IExCor=  402 diagonalized for initial guess.
 ExpMin= 1.61D-01 ExpMax= 3.05D+03 ExpMxC= 4.57D+02 IAcc=1 IRadAn=         1 AccDes= 0.00D+00
 HarFok:  IExCor=  402 AccDes= 0.00D+00 IRadAn=         1 IDoV= 1
 ScaDFX=  1.000000  1.000000  1.000000  1.000000
 FoFCou: FMM=F IPFlag=           0 FMFlag=      100000 FMFlg1=           0
         NFxFlg=           0 DoJE=T BraDBF=F KetDBF=T FulRan=T
         Omega=  0.000000  0.000000  1.000000  0.000000  0.000000 ICntrl=     500 IOpCl=  0
         NMat0=    1 NMatS0=    1 NMatT0=    0 NMatD0=    1 NMtDS0=    0 NMtDT0=    0
         I1Cent=           4 NGrid=           0.
 Petite list used in FoFCou.
 Harris En= -118.498856220980    
 Leave Link  401 at Wed Apr  1 22:08:43 2015, MaxMem= 3758096384 cpu:       8.9
 (Enter /share/apps/g09/l502.exe)
 UHF open shell SCF:
 Requested convergence on RMS density matrix=1.00D-08 within 128 cycles.
 Requested convergence on MAX density matrix=1.00D-06.
 Requested convergence on             energy=1.00D-06.
 No special actions if energy rises.
 Using DIIS extrapolation, IDIIS=  1040.
 Integral symmetry usage will be decided dynamically.
        82600 words used for storage of precomputed grid.
 Keep R1 and R2 ints in memory in canonical form, NReq=4123375.
 IEnd=      112356 IEndB=      112356 NGot=  3758096384 MDV=  3754869511
 LenX=  3754869511 LenY=  3754865589
 Symmetry not used in FoFDir.
 MinBra= 0 MaxBra= 2 Meth= 1.
 IRaf=       0 NMat=   1 IRICut=       1 DoRegI=T DoRafI=F ISym2E= 0 JSym2E=0.
 Integral accuracy reduced to 1.0D-05 until final iterations.

 Cycle   1  Pass 0  IDiag  1:
 E= -118.468347467622    
 DIIS: error= 4.48D-03 at cycle   1 NSaved=   1.
 NSaved= 1 IEnMin= 1 EnMin= -118.468347467622     IErMin= 1 ErrMin= 4.48D-03
 ErrMax= 4.48D-03 EMaxC= 1.00D-01 BMatC= 3.71D-03 BMatP= 3.71D-03
 IDIUse=3 WtCom= 9.55D-01 WtEn= 4.48D-02
 Coeff-Com:  0.100D+01
 Coeff-En:   0.100D+01
 Coeff:      0.100D+01
 Gap=     0.303 Goal=   None    Shift=    0.000
 Gap=     0.306 Goal=   None    Shift=    0.000
 GapD=    0.303 DampG=1.000 DampE=1.000 DampFc=1.0000 IDamp=-1.
 RMSDP=8.95D-04 MaxDP=1.77D-02              OVMax= 2.74D-02

 Cycle   2  Pass 0  IDiag  1:
 E= -118.470511456623     Delta-E=       -0.002163989001 Rises=F Damp=F
 DIIS: error= 1.09D-03 at cycle   2 NSaved=   2.
 NSaved= 2 IEnMin= 2 EnMin= -118.470511456623     IErMin= 2 ErrMin= 1.09D-03
 ErrMax= 1.09D-03 EMaxC= 1.00D-01 BMatC= 1.10D-04 BMatP= 3.71D-03
 IDIUse=3 WtCom= 9.89D-01 WtEn= 1.09D-02
 Coeff-Com: -0.866D-01 0.109D+01
 Coeff-En:   0.000D+00 0.100D+01
 Coeff:     -0.857D-01 0.109D+01
 Gap=     0.303 Goal=   None    Shift=    0.000
 Gap=     0.294 Goal=   None    Shift=    0.000
 RMSDP=3.04D-04 MaxDP=6.08D-03 DE=-2.16D-03 OVMax= 7.93D-03

 Cycle   3  Pass 0  IDiag  1:
 E= -118.470614343697     Delta-E=       -0.000102887074 Rises=F Damp=F
 DIIS: error= 2.84D-04 at cycle   3 NSaved=   3.
 NSaved= 3 IEnMin= 3 EnMin= -118.470614343697     IErMin= 3 ErrMin= 2.84D-04
 ErrMax= 2.84D-04 EMaxC= 1.00D-01 BMatC= 1.49D-05 BMatP= 1.10D-04
 IDIUse=3 WtCom= 9.97D-01 WtEn= 2.84D-03
 Coeff-Com: -0.287D-01 0.105D+00 0.924D+00
 Coeff-En:   0.000D+00 0.000D+00 0.100D+01
 Coeff:     -0.286D-01 0.104D+00 0.924D+00
 Gap=     0.302 Goal=   None    Shift=    0.000
 Gap=     0.295 Goal=   None    Shift=    0.000
 RMSDP=7.04D-05 MaxDP=1.27D-03 DE=-1.03D-04 OVMax= 1.98D-03

 Cycle   4  Pass 0  IDiag  1:
 E= -118.470621561654     Delta-E=       -0.000007217957 Rises=F Damp=F
 DIIS: error= 1.30D-04 at cycle   4 NSaved=   4.
 NSaved= 4 IEnMin= 4 EnMin= -118.470621561654     IErMin= 4 ErrMin= 1.30D-04
 ErrMax= 1.30D-04 EMaxC= 1.00D-01 BMatC= 6.15D-06 BMatP= 1.49D-05
 IDIUse=3 WtCom= 9.99D-01 WtEn= 1.30D-03
 Coeff-Com:  0.288D-02-0.131D+00 0.390D+00 0.738D+00
 Coeff-En:   0.000D+00 0.000D+00 0.000D+00 0.100D+01
 Coeff:      0.288D-02-0.130D+00 0.390D+00 0.738D+00
 Gap=     0.303 Goal=   None    Shift=    0.000
 Gap=     0.294 Goal=   None    Shift=    0.000
 RMSDP=3.46D-05 MaxDP=5.82D-04 DE=-7.22D-06 OVMax= 7.62D-04

 Cycle   5  Pass 0  IDiag  1:
 E= -118.470623629421     Delta-E=       -0.000002067767 Rises=F Damp=F
 DIIS: error= 3.62D-05 at cycle   5 NSaved=   5.
 NSaved= 5 IEnMin= 5 EnMin= -118.470623629421     IErMin= 5 ErrMin= 3.62D-05
 ErrMax= 3.62D-05 EMaxC= 1.00D-01 BMatC= 3.83D-07 BMatP= 6.15D-06
 IDIUse=1 WtCom= 1.00D+00 WtEn= 0.00D+00
 Coeff-Com:  0.477D-02-0.571D-01 0.418D-01 0.258D+00 0.752D+00
 Coeff:      0.477D-02-0.571D-01 0.418D-01 0.258D+00 0.752D+00
 Gap=     0.303 Goal=   None    Shift=    0.000
 Gap=     0.294 Goal=   None    Shift=    0.000
 RMSDP=8.72D-06 MaxDP=1.60D-04 DE=-2.07D-06 OVMax= 1.93D-04

 Initial convergence to 1.0D-05 achieved.  Increase integral accuracy.
 Cycle   6  Pass 1  IDiag  1:
 E= -118.470638522621     Delta-E=       -0.000014893201 Rises=F Damp=F
 DIIS: error= 8.08D-06 at cycle   1 NSaved=   1.
 NSaved= 1 IEnMin= 1 EnMin= -118.470638522621     IErMin= 1 ErrMin= 8.08D-06
 ErrMax= 8.08D-06 EMaxC= 1.00D-01 BMatC= 3.77D-08 BMatP= 3.77D-08
 IDIUse=1 WtCom= 1.00D+00 WtEn= 0.00D+00
 Coeff-Com:  0.100D+01
 Coeff:      0.100D+01
 Gap=     0.303 Goal=   None    Shift=    0.000
 Gap=     0.295 Goal=   None    Shift=    0.000
 RMSDP=8.72D-06 MaxDP=1.60D-04 DE=-1.49D-05 OVMax= 4.32D-05

 Cycle   7  Pass 1  IDiag  1:
 E= -118.470638532054     Delta-E=       -0.000000009432 Rises=F Damp=F
 DIIS: error= 6.34D-06 at cycle   2 NSaved=   2.
 NSaved= 2 IEnMin= 2 EnMin= -118.470638532054     IErMin= 2 ErrMin= 6.34D-06
 ErrMax= 6.34D-06 EMaxC= 1.00D-01 BMatC= 1.11D-08 BMatP= 3.77D-08
 IDIUse=1 WtCom= 1.00D+00 WtEn= 0.00D+00
 Coeff-Com:  0.300D+00 0.700D+00
 Coeff:      0.300D+00 0.700D+00
 Gap=     0.303 Goal=   None    Shift=    0.000
 Gap=     0.294 Goal=   None    Shift=    0.000
 RMSDP=1.31D-06 MaxDP=1.60D-05 DE=-9.43D-09 OVMax= 2.06D-05

 Cycle   8  Pass 1  IDiag  1:
 E= -118.470638534147     Delta-E=       -0.000000002093 Rises=F Damp=F
 DIIS: error= 3.43D-06 at cycle   3 NSaved=   3.
 NSaved= 3 IEnMin= 3 EnMin= -118.470638534147     IErMin= 3 ErrMin= 3.43D-06
 ErrMax= 3.43D-06 EMaxC= 1.00D-01 BMatC= 3.35D-09 BMatP= 1.11D-08
 IDIUse=1 WtCom= 1.00D+00 WtEn= 0.00D+00
 Coeff-Com: -0.165D-01 0.347D+00 0.670D+00
 Coeff:     -0.165D-01 0.347D+00 0.670D+00
 Gap=     0.303 Goal=   None    Shift=    0.000
 Gap=     0.294 Goal=   None    Shift=    0.000
 RMSDP=4.58D-07 MaxDP=7.06D-06 DE=-2.09D-09 OVMax= 6.77D-06

 Cycle   9  Pass 1  IDiag  1:
 E= -118.470638534993     Delta-E=       -0.000000000845 Rises=F Damp=F
 DIIS: error= 2.88D-07 at cycle   4 NSaved=   4.
 NSaved= 4 IEnMin= 4 EnMin= -118.470638534993     IErMin= 4 ErrMin= 2.88D-07
 ErrMax= 2.88D-07 EMaxC= 1.00D-01 BMatC= 3.28D-11 BMatP= 3.35D-09
 IDIUse=1 WtCom= 1.00D+00 WtEn= 0.00D+00
 Coeff-Com: -0.126D-01 0.734D-01 0.174D+00 0.765D+00
 Coeff:     -0.126D-01 0.734D-01 0.174D+00 0.765D+00
 Gap=     0.303 Goal=   None    Shift=    0.000
 Gap=     0.294 Goal=   None    Shift=    0.000
 RMSDP=7.61D-08 MaxDP=9.22D-07 DE=-8.45D-10 OVMax= 1.78D-06

 Cycle  10  Pass 1  IDiag  1:
 E= -118.470638535004     Delta-E=       -0.000000000011 Rises=F Damp=F
 DIIS: error= 8.19D-08 at cycle   5 NSaved=   5.
 NSaved= 5 IEnMin= 5 EnMin= -118.470638535004     IErMin= 5 ErrMin= 8.19D-08
 ErrMax= 8.19D-08 EMaxC= 1.00D-01 BMatC= 2.54D-12 BMatP= 3.28D-11
 IDIUse=1 WtCom= 1.00D+00 WtEn= 0.00D+00
 Coeff-Com:  0.243D-02-0.368D-01-0.713D-01-0.251D-01 0.113D+01
 Coeff:      0.243D-02-0.368D-01-0.713D-01-0.251D-01 0.113D+01
 Gap=     0.303 Goal=   None    Shift=    0.000
 Gap=     0.294 Goal=   None    Shift=    0.000
 RMSDP=3.45D-08 MaxDP=4.46D-07 DE=-1.15D-11 OVMax= 6.08D-07

 Cycle  11  Pass 1  IDiag  1:
 E= -118.470638535006     Delta-E=       -0.000000000002 Rises=F Damp=F
 DIIS: error= 3.72D-08 at cycle   6 NSaved=   6.
 NSaved= 6 IEnMin= 6 EnMin= -118.470638535006     IErMin= 6 ErrMin= 3.72D-08
 ErrMax= 3.72D-08 EMaxC= 1.00D-01 BMatC= 4.73D-13 BMatP= 2.54D-12
 IDIUse=1 WtCom= 1.00D+00 WtEn= 0.00D+00
 Coeff-Com:  0.179D-02-0.187D-01-0.386D-01-0.748D-01 0.386D+00 0.745D+00
 Coeff:      0.179D-02-0.187D-01-0.386D-01-0.748D-01 0.386D+00 0.745D+00
 Gap=     0.303 Goal=   None    Shift=    0.000
 Gap=     0.294 Goal=   None    Shift=    0.000
 RMSDP=9.21D-09 MaxDP=1.69D-07 DE=-1.53D-12 OVMax= 1.74D-07

 SCF Done:  E(UB3LYP) =  -118.470638535     A.U. after   11 cycles
             Convg  =    0.9207D-08             -V/T =  2.0103
 <Sx>= 0.0000 <Sy>= 0.0000 <Sz>= 0.5000 <S**2>= 0.7537 S= 0.5019
 <L.S>= 0.000000000000E+00
 KE= 1.172586463564D+02 PE=-4.245671985485D+02 EE= 1.132044043131D+02
 Annihilation of the first spin contaminant:
 S**2 before annihilation     0.7537,   after     0.7500
 Leave Link  502 at Wed Apr  1 22:08:46 2015, MaxMem= 3758096384 cpu:      26.3
 (Enter /share/apps/g09/l701.exe)
 Compute integral first derivatives.
 ... and contract with generalized density number  0.
 Leave Link  701 at Wed Apr  1 22:08:46 2015, MaxMem= 3758096384 cpu:       4.9
 (Enter /share/apps/g09/l702.exe)
 L702 exits ... SP integral derivatives will be done elsewhere.
 Leave Link  702 at Wed Apr  1 22:08:46 2015, MaxMem= 3758096384 cpu:       0.1
 (Enter /share/apps/g09/l703.exe)
 Compute integral first derivatives, UseDBF=F ICtDFT=           0.
 Integral derivatives from FoFDir, PRISM(SPDF).
 Calling FoFJK, ICntrl=      2127 FMM=F ISym2X=0 I1Cent= 0 IOpClX= 1 NMat=1 NMatS=1 NMatT=0.
 FoFCou: FMM=F IPFlag=           0 FMFlag=      100000 FMFlg1=         800
         NFxFlg=           0 DoJE=F BraDBF=F KetDBF=F FulRan=T
         Omega=  0.000000  0.000000  1.000000  0.000000  0.000000 ICntrl=    2127 IOpCl=  1
         NMat0=    1 NMatS0=    1 NMatT0=    0 NMatD0=    1 NMtDS0=    0 NMtDT0=    0
         I1Cent=           0 NGrid=           0.
 Symmetry not used in FoFCou.
 Leave Link  703 at Wed Apr  1 22:08:47 2015, MaxMem= 3758096384 cpu:       8.6
 (Enter /share/apps/g09/l716.exe)
 Dipole        = 3.93773632D-02 8.61740887D-02 6.31356578D-02
 ***** Axes restored to original set *****
 -------------------------------------------------------------------
 Center     Atomic                   Forces (Hartrees/Bohr)
 Number     Number              X              Y              Z
 -------------------------------------------------------------------
      1        6           0.000301424   -0.001328734    0.007071986
      2        1          -0.000965802    0.000583363    0.000200759
      3        1           0.000988690   -0.000640322   -0.000097567
      4        1           0.000055677    0.000044614    0.000136139
      5        6           0.000660013    0.001976432   -0.009774322
      6        1           0.003969682   -0.002495169    0.000493402
      7        1          -0.004250361    0.001967132    0.001011196
      8        6          -0.000809066    0.000637011    0.002243591
      9        1           0.000332303   -0.000580939   -0.000678300
     10        1          -0.000282559   -0.000163387   -0.000606885
 -------------------------------------------------------------------
 Cartesian Forces:  Max     0.009774322 RMS     0.002627705
 Leave Link  716 at Wed Apr  1 22:08:47 2015, MaxMem= 3758096384 cpu:       0.1
 (Enter /share/apps/g09/l103.exe)

 GradGradGradGradGradGradGradGradGradGradGradGradGradGradGradGradGradGrad
 Berny optimization.
 Internal  Forces:  Max     0.005458263 RMS     0.001765932
 Search for a local minimum.
 Step number   1 out of a maximum of   49 on scan point     2 out of    37
 All quantities printed in internal units (Hartrees-Bohrs-Radians)
 RMS Force = .15190D-02 SwitMx=.10000D-02 MixMth= 1
 Mixed Optimization -- RFO/linear search
 Second derivative matrix not updated -- first step.
     Eigenvalues ---    0.00293   0.00980   0.03240   0.05421   0.05435
     Eigenvalues ---    0.05491   0.09598   0.12050   0.16000   0.16000
     Eigenvalues ---    0.16000   0.16000   0.16000   0.21887   0.28901
     Eigenvalues ---    0.32919   0.33227   0.33713   0.34039   0.34153
     Eigenvalues ---    0.34158   0.35200   0.353121000.000001000.00000
     Eigenvalues --- 1000.000001000.000001000.000001000.000001000.00000
     Eigenvalues --- 1000.000001000.000001000.000001000.000001000.00000
     Eigenvalues --- 1000.000001000.000001000.000001000.00000
 RFO step:  Lambda=-1.12702733D-03 EMin= 2.93372919D-03
 Linear search not attempted -- first point.
 Iteration  1 RMS(Cart)=  0.02170266 RMS(Int)=  0.00052786
 Iteration  2 RMS(Cart)=  0.00045249 RMS(Int)=  0.00029841
 Iteration  3 RMS(Cart)=  0.00000022 RMS(Int)=  0.00029841
 Iteration  1 RMS(Cart)=  0.00000001 RMS(Int)=  0.00000001
 Variable       Old X    -DE/DX   Delta X   Delta X   Delta X     New X
                                 (Linear)    (Quad)   (Total)
    R1        2.07071  -0.00050   0.00000  -0.00146  -0.00146   2.06925
    R2        2.07271   0.00045   0.00000   0.00131   0.00131   2.07402
    R3        2.07074   0.00008   0.00000   0.00025   0.00025   2.07098
    R4        2.90213   0.00039   0.00000   0.00133   0.00133   2.90346
    R5        2.09211  -0.00104   0.00000  -0.00315  -0.00315   2.08896
    R6        2.07829   0.00057   0.00000   0.00169   0.00169   2.07998
    R7        2.81968   0.00060   0.00000   0.00179   0.00179   2.82147
    R8        2.05445   0.00021   0.00000   0.00059   0.00059   2.05505
    R9        2.05178   0.00036   0.00000   0.00102   0.00102   2.05280
    A1        1.87891  -0.00005   0.00000  -0.00042  -0.00037   1.87854
    A2        1.88638   0.00065   0.00000   0.00096   0.00093   1.88731
    A3        1.93748  -0.00182   0.00000  -0.01297  -0.01297   1.92451
    A4        1.88082  -0.00064   0.00000  -0.00081  -0.00085   1.87997
    A5        1.93571   0.00190   0.00000   0.01344   0.01345   1.94916
    A6        1.94207  -0.00003   0.00000  -0.00016  -0.00020   1.94187
    A7        1.95442  -0.00545   0.00000  -0.05124  -0.05116   1.90326
    A8        1.85524   0.00546   0.00000   0.05397   0.05414   1.90938
    A9        1.98131   0.00016   0.00000  -0.00031  -0.00098   1.98033
   A10        1.83003  -0.00007   0.00000   0.00209   0.00292   1.83295
   A11        1.91782   0.00255   0.00000   0.00126   0.00046   1.91828
   A12        1.91766  -0.00262   0.00000  -0.00321  -0.00385   1.91381
   A13        2.09630  -0.00005   0.00000  -0.00159  -0.00160   2.09470
   A14        2.10587   0.00038   0.00000   0.00106   0.00105   2.10692
   A15        2.04264  -0.00009   0.00000  -0.00189  -0.00190   2.04074
    D1       -3.05706  -0.00023   0.00000  -0.00673  -0.00628  -3.06334
    D2       -1.06817   0.00008   0.00000   0.00103   0.00057  -1.06760
    D3        1.04192   0.00064   0.00000   0.03365   0.03359   1.07551
    D4        1.13811  -0.00022   0.00000  -0.00653  -0.00604   1.13207
    D5        3.12700   0.00009   0.00000   0.00122   0.00082   3.12781
    D6       -1.04610   0.00066   0.00000   0.03385   0.03383  -1.01227
    D7       -0.95536  -0.00065   0.00000  -0.01440  -0.01393  -0.96929
    D8        1.03353  -0.00034   0.00000  -0.00664  -0.00707   1.02645
    D9       -3.13957   0.00022   0.00000   0.02598   0.02594  -3.11363
   D10        0.73095  -0.00400   0.00000   0.00000   0.00000   0.73096
   D11       -2.71336  -0.00311   0.00000  -0.00964  -0.00963  -2.72299
   D12       -1.47274   0.00110   0.00000   0.06757   0.06765  -1.40509
   D13        1.36613   0.00198   0.00000   0.05793   0.05802   1.42415
   D14        2.80556   0.00122   0.00000   0.06615   0.06606   2.87162
   D15       -0.63876   0.00211   0.00000   0.05652   0.05643  -0.58233
         Item               Value     Threshold  Converged?
 Maximum Force            0.004058     0.000450     NO 
 RMS     Force            0.001519     0.000300     NO 
 Maximum Displacement     0.063616     0.001800     NO 
 RMS     Displacement     0.021700     0.001200     NO 
 Predicted change in Energy=-5.753939D-04
 GradGradGradGradGradGradGradGradGradGradGradGradGradGradGradGradGradGrad

 Leave Link  103 at Wed Apr  1 22:08:48 2015, MaxMem= 3758096384 cpu:       2.5
 (Enter /share/apps/g09/l202.exe)
                          Input orientation:                          
 ---------------------------------------------------------------------
 Center     Atomic      Atomic             Coordinates (Angstroms)
 Number     Number       Type             X           Y           Z
 ---------------------------------------------------------------------
      1          6           0        1.233403   -0.243612   -0.046374
      2          1           0        1.304263   -0.732998   -1.023363
      3          1           0        1.299218   -1.024409    0.722119
      4          1           0        2.103046    0.413040    0.070085
      5          6           0       -0.079794    0.547027    0.058830
      6          1           0       -0.093947    1.097054    1.017602
      7          1           0       -0.100263    1.326810   -0.717706
      8          6           0       -1.298913   -0.307352   -0.055227
      9          1           0       -1.338473   -1.269152    0.450735
     10          1           0       -2.244527    0.115880   -0.381908
 ---------------------------------------------------------------------
                    Distance matrix (angstroms):
                    1          2          3          4          5
     1  C    0.000000
     2  H    1.095001   0.000000
     3  H    1.097523   1.769648   0.000000
     4  H    1.095917   1.774003   1.771313   0.000000
     5  C    1.536445   2.173757   2.193408   2.186978   0.000000
     6  H    2.165938   3.077275   2.555156   2.488461   1.105430
     7  H    2.166928   2.511758   3.091904   2.512003   1.100676
     8  C    2.533133   2.809802   2.805124   3.479654   1.493058
     9  H    2.813076   3.073188   2.662886   3.849509   2.244185
    10  H    3.512522   3.704857   3.882945   4.381095   2.250823
                    6          7          8          9         10
     6  H    0.000000
     7  H    1.750463   0.000000
     8  C    2.138987   2.132164   0.000000
     9  H    2.732968   3.104422   1.087484   0.000000
    10  H    2.747057   2.485352   1.086293   1.852712   0.000000
 Stoichiometry    C3H7(2)
 Framework group  C1[X(C3H7)]
 Deg. of freedom    24
 Full point group                 C1      NOp   1
 Largest Abelian subgroup         C1      NOp   1
 Largest concise Abelian subgroup C1      NOp   1
                         Standard orientation:                         
 ---------------------------------------------------------------------
 Center     Atomic      Atomic             Coordinates (Angstroms)
 Number     Number       Type             X           Y           Z
 ---------------------------------------------------------------------
      1          6           0        1.229926   -0.244995   -0.045486
      2          1           0        1.297233   -0.725720   -1.027017
      3          1           0        1.293148   -1.033104    0.715727
      4          1           0        2.102747    0.406547    0.075801
      5          6           0       -0.079463    0.550689    0.068752
      6          1           0       -0.089807    1.091957    1.032544
      7          1           0       -0.097355    1.337648   -0.700574
      8          6           0       -1.302666   -0.296981   -0.051469
      9          1           0       -1.346002   -1.263189    0.445709
     10          1           0       -2.246745    0.133584   -0.372967
 ---------------------------------------------------------------------
 Rotational constants (GHZ):     32.7581192      8.8768885      7.7535156
 Leave Link  202 at Wed Apr  1 22:08:48 2015, MaxMem= 3758096384 cpu:       0.3
 (Enter /share/apps/g09/l301.exe)
 Standard basis: 6-31G(d) (6D, 7F)
 Ernie: Thresh=  0.10000D-02 Tol=  0.10000D-05 Strict=F.
 There are    59 symmetry adapted basis functions of A   symmetry.
[...]
 ---------------------------------------------------------------------
      1          6           0        1.144687    0.024957   -0.482678
      2          1           0        0.909400    0.394119   -1.487175
      3          1           0        1.332952   -1.052783   -0.560049
      4          1           0        2.073657    0.503791   -0.153310
      5          6           0       -0.006183    0.311624    0.492845
      6          1           0        0.303099   -0.011356    1.505517
      7          1           0       -0.160154    1.397119    0.578695
      8          6           0       -1.288085   -0.351704    0.114763
      9          1           0       -1.284913   -1.309953   -0.397673
     10          1           0       -2.240449    0.016473    0.483857
 ---------------------------------------------------------------------
                    Distance matrix (angstroms):
                    1          2          3          4          5
     1  C    0.000000
     2  H    1.095744   0.000000
     3  H    1.096792   1.769883   0.000000
     4  H    1.095787   1.773899   1.771159   0.000000
     5  C    1.535684   2.183021   2.182539   2.186362   0.000000
     6  H    2.159284   3.080295   2.532139   2.480314   1.107012
     7  H    2.170703   2.533333   3.086766   2.514712   1.099716
     8  C    2.533217   2.819823   2.795840   3.479230   1.492053
     9  H    2.773476   2.984273   2.635473   3.824836   2.248930
    10  H    3.520427   3.734854   3.873273   4.388048   2.253695
                    6          7          8          9         10
     6  H    0.000000
     7  H    1.748544   0.000000
     8  C    2.140537   2.132098   0.000000
     9  H    2.798262   3.089760   1.086666   0.000000
    10  H    2.741204   2.498561   1.085717   1.857296   0.000000
 Stoichiometry    C3H7(2)
 Framework group  C1[X(C3H7)]
 Deg. of freedom    24
 Full point group                 C1      NOp   1
 Largest Abelian subgroup         C1      NOp   1
 Largest concise Abelian subgroup C1      NOp   1
                         Standard orientation:                         
 ---------------------------------------------------------------------
 Center     Atomic      Atomic             Coordinates (Angstroms)
 Number     Number       Type             X           Y           Z
 ---------------------------------------------------------------------
      1          6           0        1.228049   -0.244575   -0.040467
      2          1           0        1.301410   -0.764823   -1.002037
      3          1           0        1.283749   -1.000832    0.751951
      4          1           0        2.101402    0.409608    0.059774
      5          6           0       -0.080181    0.554008    0.055069
      6          1           0       -0.078412    1.118362    1.007423
      7          1           0       -0.104053    1.325086   -0.728669
      8          6           0       -1.304679   -0.293914   -0.033560
      9          1           0       -1.302410   -1.310619    0.350041
     10          1           0       -2.260822    0.130103   -0.324731
 ---------------------------------------------------------------------
 Rotational constants (GHZ):     32.7641058      8.9116708      7.7427782
 Leave Link  202 at Wed Apr  1 22:32:30 2015, MaxMem= 3758096384 cpu:       0.4
 (Enter /share/apps/g09/l601.exe)
 Copying SCF densities to generalized density rwf, IOpCl= 1 IROHF=0.

 **********************************************************************

            Population analysis using the SCF density.

 **********************************************************************

 Orbital symmetries:
 Alpha Orbitals:
       Occupied  (A) (A) (A) (A) (A) (A) (A) (A) (A) (A) (A) (A)
                 (A)
       Virtual   (A) (A) (A) (A) (A) (A) (A) (A) (A) (A) (A) (A)
                 (A) (A) (A) (A) (A) (A) (A) (A) (A) (A) (A) (A)
                 (A) (A) (A) (A) (A) (A) (A) (A) (A) (A) (A) (A)
                 (A) (A) (A) (A) (A) (A) (A) (A) (A) (A)
 Beta  Orbitals:
       Occupied  (A) (A) (A) (A) (A) (A) (A) (A) (A) (A) (A) (A)
       Virtual   (A) (A) (A) (A) (A) (A) (A) (A) (A) (A) (A) (A)
                 (A) (A) (A) (A) (A) (A) (A) (A) (A) (A) (A) (A)
                 (A) (A) (A) (A) (A) (A) (A) (A) (A) (A) (A) (A)
                 (A) (A) (A) (A) (A) (A) (A) (A) (A) (A) (A)
 The electronic state is 2-A.
 Alpha  occ. eigenvalues --  -10.18535 -10.18367 -10.17350  -0.77841  -0.67109
 Alpha  occ. eigenvalues --   -0.57922  -0.45137  -0.43684  -0.40350  -0.35648
 Alpha  occ. eigenvalues --   -0.34926  -0.33954  -0.19553
 Alpha virt. eigenvalues --    0.10503   0.13971   0.14697   0.15593   0.17474
 Alpha virt. eigenvalues --    0.18734   0.20248   0.24450   0.28043   0.51331
 Alpha virt. eigenvalues --    0.52170   0.54190   0.57689   0.59545   0.61951
 Alpha virt. eigenvalues --    0.67098   0.72447   0.80667   0.84746   0.86767
 Alpha virt. eigenvalues --    0.89487   0.91281   0.93878   0.96075   0.96665
 Alpha virt. eigenvalues --    1.00329   1.18899   1.42904   1.49073   1.59882
 Alpha virt. eigenvalues --    1.68177   1.83733   1.91596   1.94719   1.98743
 Alpha virt. eigenvalues --    2.06623   2.14139   2.23877   2.33620   2.35883
 Alpha virt. eigenvalues --    2.42968   2.61156   2.68363   4.09489   4.20696
 Alpha virt. eigenvalues --    4.44457
  Beta  occ. eigenvalues --  -10.18623 -10.17318 -10.16987  -0.76932  -0.65372
  Beta  occ. eigenvalues --   -0.56437  -0.44569  -0.43004  -0.39804  -0.34981
  Beta  occ. eigenvalues --   -0.34345  -0.33635
  Beta virt. eigenvalues --   -0.03466   0.10719   0.14879   0.15270   0.15908
  Beta virt. eigenvalues --    0.17595   0.18967   0.20734   0.24943   0.28683
  Beta virt. eigenvalues --    0.51670   0.52469   0.55893   0.59097   0.63289
  Beta virt. eigenvalues --    0.64029   0.67301   0.73171   0.81943   0.85461
  Beta virt. eigenvalues --    0.87146   0.89759   0.91593   0.94511   0.96427
  Beta virt. eigenvalues --    0.98445   1.00617   1.19782   1.44540   1.49953
  Beta virt. eigenvalues --    1.60043   1.73576   1.85262   1.93223   1.95631
  Beta virt. eigenvalues --    2.01393   2.09058   2.16996   2.24247   2.34276
  Beta virt. eigenvalues --    2.37143   2.43727   2.61971   2.68930   4.11798
  Beta virt. eigenvalues --    4.21670   4.44814
          Condensed to atoms (all electrons):
              1          2          3          4          5          6
     1  C    5.063957   0.377843   0.378859   0.370202   0.378253  -0.042058
     2  H    0.377843   0.570256  -0.032496  -0.030116  -0.035316   0.005497
     3  H    0.378859  -0.032496   0.576218  -0.031397  -0.035641  -0.004557
     4  H    0.370202  -0.030116  -0.031397   0.578888  -0.028442  -0.002260
     5  C    0.378253  -0.035316  -0.035641  -0.028442   4.905599   0.371781
     6  H   -0.042058   0.005497  -0.004557  -0.002260   0.371781   0.618051
     7  H   -0.036415  -0.004991   0.005129  -0.002788   0.377548  -0.042852
     8  C   -0.048245  -0.000034  -0.004208   0.004486   0.394357  -0.050286
     9  H   -0.005526   0.000163   0.004271   0.000054  -0.040096   0.000619
    10  H    0.003879   0.000029  -0.000013  -0.000155  -0.031631   0.001020
              7          8          9         10
     1  C   -0.036415  -0.048245  -0.005526   0.003879
     2  H   -0.004991  -0.000034   0.000163   0.000029
     3  H    0.005129  -0.004208   0.004271  -0.000013
     4  H   -0.002788   0.004486   0.000054  -0.000155
     5  C    0.377548   0.394357  -0.040096  -0.031631
     6  H   -0.042852  -0.050286   0.000619   0.001020
     7  H    0.602131  -0.040444   0.004489  -0.004356
     8  C   -0.040444   5.304684   0.374373   0.368846
     9  H    0.004489   0.374373   0.560540  -0.038194
    10  H   -0.004356   0.368846  -0.038194   0.561308
 Mulliken atomic charges:
              1
     1  C   -0.440750
     2  H    0.149163
     3  H    0.143833
     4  H    0.141528
     5  C   -0.256413
     6  H    0.145045
     7  H    0.142549
     8  C   -0.303528
     9  H    0.139306
    10  H    0.139267
 Sum of Mulliken atomic charges =   0.00000
 Mulliken charges with hydrogens summed into heavy atoms:
              1
     1  C   -0.006226
     5  C    0.031181
     8  C   -0.024955
 Sum of Mulliken charges with hydrogens summed into heavy atoms =   0.00000
          Atomic-Atomic Spin Densities.
              1          2          3          4          5          6
     1  C    0.027750  -0.006824   0.001249  -0.004532   0.008137  -0.009753
     2  H   -0.006824   0.003948  -0.000963   0.002090  -0.001075   0.001001
     3  H    0.001249  -0.000963   0.000127  -0.000657   0.000703  -0.001337
     4  H   -0.004532   0.002090  -0.000657   0.002508   0.000214   0.002303
     5  C    0.008137  -0.001075   0.000703   0.000214  -0.065220   0.012368
     6  H   -0.009753   0.001001  -0.001337   0.002303   0.012368   0.101133
     7  H    0.006762  -0.001370   0.000252  -0.001049   0.006221  -0.013618
     8  C   -0.012641   0.005463  -0.000375   0.000490  -0.038193  -0.030987
     9  H    0.000840  -0.000114   0.000090  -0.000047   0.000115  -0.000477
    10  H    0.000058  -0.000039   0.000020  -0.000001  -0.000407  -0.000560
              7          8          9         10
     1  C    0.006762  -0.012641   0.000840   0.000058
     2  H   -0.001370   0.005463  -0.000114  -0.000039
     3  H    0.000252  -0.000375   0.000090   0.000020
     4  H   -0.001049   0.000490  -0.000047  -0.000001
     5  C    0.006221  -0.038193   0.000115  -0.000407
     6  H   -0.013618  -0.030987  -0.000477  -0.000560
     7  H    0.030647  -0.011484   0.000095   0.000877
     8  C   -0.011484   1.189684  -0.007303  -0.006390
     9  H    0.000095  -0.007303  -0.046470   0.002327
    10  H    0.000877  -0.006390   0.002327  -0.047071
 Mulliken atomic spin densities:
              1
     1  C    0.011047
     2  H    0.002117
     3  H   -0.000891
     4  H    0.001319
     5  C   -0.077136
     6  H    0.060074
     7  H    0.017333
     8  C    1.088266
     9  H   -0.050944
    10  H   -0.051185
 Sum of Mulliken atomic spin densities =   1.00000
 Electronic spatial extent (au):  <R**2>=            212.3371
 Charge=              0.0000 electrons
 Dipole moment (field-independent basis, Debye):
    X=              0.1243    Y=              0.1820    Z=              0.1210  Tot=              0.2514
 Quadrupole moment (field-independent basis, Debye-Ang):
   XX=            -20.8075   YY=            -20.3794   ZZ=            -21.1678
   XY=             -0.0523   XZ=              0.1072   YZ=             -0.4545
 Traceless Quadrupole moment (field-independent basis, Debye-Ang):
   XX=             -0.0226   YY=              0.4055   ZZ=             -0.3829
   XY=             -0.0523   XZ=              0.1072   YZ=             -0.4545
 Octapole moment (field-independent basis, Debye-Ang**2):
  XXX=             -0.9559  YYY=             -0.2621  ZZZ=              0.1382  XYY=             -0.0598
  XXY=              1.0940  XXZ=             -0.5809  XZZ=              1.1563  YZZ=              0.3379
  YYZ=              0.5069  XYZ=              0.6278
 Hexadecapole moment (field-independent basis, Debye-Ang**3):
 XXXX=           -185.3699 YYYY=            -64.3754 ZZZZ=            -36.8280 XXXY=              0.1515
 XXXZ=              2.3954 YYYX=              0.7854 YYYZ=             -1.5694 ZZZX=             -0.4644
 ZZZY=              0.0263 XXYY=            -42.1401 XXZZ=            -39.4579 YYZZ=            -15.9822
 XXYZ=             -0.8633 YYXZ=             -0.4042 ZZXY=             -1.1284
 N-N= 7.564243316835D+01 E-N=-6.320772513966D+02  KE= 1.752503697934D+02
                          Isotropic Fermi Contact Couplings
        Atom                 a.u.       MegaHertz       Gauss      10(-4) cm-1
     1  C(13)              0.01532      17.21910       6.14420       5.74367
     2  H(1)              -0.00042      -1.87036      -0.66739      -0.62389
     3  H(1)              -0.00032      -1.43480      -0.51197      -0.47860
     4  H(1)              -0.00002      -0.10011      -0.03572      -0.03339
     5  C(13)             -0.02584     -29.04415     -10.36368      -9.68809
     6  H(1)               0.03125     139.66653      49.83649      46.58774
     7  H(1)               0.00952      42.55094      15.18323      14.19347
     8  C(13)              0.11974     134.60742      48.03127      44.90020
     9  H(1)              -0.01499     -67.01606     -23.91300     -22.35415
    10  H(1)              -0.01505     -67.28203     -24.00790     -22.44287
 --------------------------------------------------------
       Center         ----  Spin Dipole Couplings  ----
                      3XX-RR        3YY-RR        3ZZ-RR
 --------------------------------------------------------
     1   Atom        0.021946     -0.009709     -0.012237
     2   Atom        0.010304     -0.005549     -0.004755
     3   Atom        0.007604     -0.003971     -0.003633
     4   Atom        0.006653     -0.003121     -0.003532
     5   Atom        0.005427     -0.006376      0.000949
     6   Atom        0.001584      0.001569     -0.003153
     7   Atom       -0.000948      0.008404     -0.007456
     8   Atom       -0.466621     -0.393088      0.859709
     9   Atom       -0.067618      0.064129      0.003489
    10   Atom        0.044578     -0.041571     -0.003007
 --------------------------------------------------------
                        XY            XZ            YZ
 --------------------------------------------------------
     1   Atom       -0.007377      0.005522     -0.001535
     2   Atom       -0.002995     -0.004859      0.002107
     3   Atom       -0.004413      0.004590     -0.001579
     4   Atom        0.001780      0.000310      0.000400
     5   Atom        0.012695      0.000416      0.006906
     6   Atom        0.011174      0.005025      0.008826
     7   Atom        0.012255     -0.004340     -0.005367
     8   Atom       -0.101765     -0.311953      0.442885
     9   Atom       -0.005707     -0.012013     -0.029222
    10   Atom       -0.054852      0.022631      0.002137
 --------------------------------------------------------


 ---------------------------------------------------------------------------------
              Anisotropic Spin Dipole Couplings in Principal Axis System
 ---------------------------------------------------------------------------------

       Atom             a.u.   MegaHertz   Gauss  10(-4) cm-1        Axes

              Baa    -0.0132    -1.768    -0.631    -0.590 -0.1133  0.1905  0.9751
     1 C(13)  Bbb    -0.0113    -1.516    -0.541    -0.506  0.2390  0.9578 -0.1594
              Bcc     0.0245     3.284     1.172     1.095  0.9644 -0.2150  0.1541
 
              Baa    -0.0074    -3.926    -1.401    -1.309  0.0765 -0.7003  0.7098
     2 H(1)   Bbb    -0.0051    -2.695    -0.962    -0.899  0.3375  0.6880  0.6424
              Bcc     0.0124     6.621     2.362     2.208  0.9382 -0.1904 -0.2890
 
              Baa    -0.0055    -2.916    -1.040    -0.973  0.2766  0.9524  0.1282
     3 H(1)   Bbb    -0.0053    -2.811    -1.003    -0.938 -0.3438 -0.0265  0.9387
              Bcc     0.0107     5.727     2.044     1.910  0.8974 -0.3037  0.3201
 
              Baa    -0.0038    -2.046    -0.730    -0.682  0.0866 -0.6430  0.7609
     4 H(1)   Bbb    -0.0031    -1.679    -0.599    -0.560 -0.1559  0.7456  0.6479
              Bcc     0.0070     3.724     1.329     1.242  0.9840  0.1748  0.0357
 
              Baa    -0.0163    -2.194    -0.783    -0.732 -0.4732  0.8220 -0.3169
     5 C(13)  Bbb     0.0015     0.205     0.073     0.068 -0.4260  0.1013  0.8990
              Bcc     0.0148     1.988     0.709     0.663  0.7711  0.5604  0.3022
 
              Baa    -0.0113    -6.043    -2.156    -2.016 -0.4290  0.7330 -0.5278
     6 H(1)   Bbb    -0.0061    -3.275    -1.169    -1.092 -0.6695  0.1341  0.7306
              Bcc     0.0175     9.318     3.325     3.108  0.6063  0.6668  0.4332
 
              Baa    -0.0098    -5.253    -1.874    -1.752  0.7093 -0.2870  0.6438
     7 H(1)   Bbb    -0.0088    -4.703    -1.678    -1.569 -0.4378  0.5365  0.7215
              Bcc     0.0187     9.956     3.552     3.321  0.5525  0.7936 -0.2549
 
              Baa    -0.5381   -72.205   -25.764   -24.085  0.8470  0.5312  0.0207
     8 C(13)  Bbb    -0.5324   -71.447   -25.494   -23.832 -0.4889  0.7936 -0.3620
              Bcc     1.0705   143.651    51.258    47.917 -0.2088  0.2965  0.9319
 
              Baa    -0.0705   -37.593   -13.414   -12.540  0.9779  0.0831  0.1917
     9 H(1)   Bbb    -0.0055    -2.916    -1.041    -0.973 -0.2089  0.3640  0.9077
              Bcc     0.0759    40.509    14.455    13.512 -0.0056  0.9277 -0.3733
 
              Baa    -0.0704   -37.560   -13.402   -12.529  0.4522  0.8737 -0.1795
    10 H(1)   Bbb    -0.0057    -3.029    -1.081    -1.010 -0.1378  0.2673  0.9537
              Bcc     0.0761    40.589    14.483    13.539  0.8812 -0.4065  0.2412
 

 ---------------------------------------------------------------------------------

 No NMR shielding tensors so no spin-rotation constants.
 Leave Link  601 at Wed Apr  1 22:32:31 2015, MaxMem= 3758096384 cpu:       7.8
 (Enter /share/apps/g09/l9999.exe)
 1\1\GINC-COMPUTE-0-4\Scan\UB3LYP\6-31G(d)\C3H7(2)\HETANJIN\01-Apr-2015
 \0\\#p ub3lyp/6-31g(d) opt=modredundant\\C3H7O2_62_b3631gd using cbs-q
 b3 to calculate energy\\0,2\C,1.1446874699,0.0249568371,-0.4826775005\
 H,0.9094004471,0.3941187297,-1.4871750292\H,1.3329521218,-1.0527832564
 ,-0.5600486924\H,2.0736569927,0.5037913424,-0.1533098968\C,-0.00618282
 64,0.3116244992,0.4928454253\H,0.3030992646,-0.0113564161,1.5055170876
 \H,-0.1601539212,1.3971190344,0.5786947869\C,-1.2880850138,-0.35170360
 49,0.1147632086\H,-1.284912736,-1.3099531459,-0.3976729115\H,-2.240448
 7986,0.0164729805,0.483856522\\Version=EM64L-G09RevA.01\State=2-A\HF=-
 118.4713715,-118.4713199,-118.4711749,-118.4710554,-118.4710833,-118.4
 711184,-118.4711057,-118.4710692,-118.4710537,-118.4710822,-118.471160
 9,-118.4712657,-118.4713514,-118.4713661,-118.4712963,-118.4712466,-11
 8.4713296,-118.4713714,-118.4713248,-118.4712255,-118.4711267,-118.471
 0648,-118.4710555,-118.4710825,-118.4711153,-118.4711106,-118.471065,-
 118.4710816,-118.4712371,-118.4713517,-118.4713659,-118.4713148,-118.4
 712597,-118.4712431,-118.4712778,-118.4713375,-118.4713715\S2=0.753881
 ,0.753866,0.753896,0.753938,0.753873,0.753854,0.753869,0.7539,0.75393,
 0.753945,0.75394,0.75392,0.753893,0.753879,0.753908,0.753955,0.75389,0
 .753883,0.753903,0.753929,0.753944,0.753941,0.753921,0.753888,0.75386,
 0.753855,0.753894,0.753938,0.753878,0.753868,0.753893,0.753927,0.75395
 4,0.753961,0.753946,0.753915,0.753881\S2-1=0.,0.,0.,0.,0.,0.,0.,0.,0.,
 0.,0.,0.,0.,0.,0.,0.,0.,0.,0.,0.,0.,0.,0.,0.,0.,0.,0.,0.,0.,0.,0.,0.,0
 .,0.,0.,0.,0.\S2A=0.75001,0.75001,0.75001,0.75001,0.750009,0.750009,0.
 750009,0.75001,0.75001,0.75001,0.75001,0.75001,0.75001,0.75001,0.75001
 ,0.75001,0.75001,0.75001,0.75001,0.75001,0.75001,0.75001,0.75001,0.750
 009,0.750009,0.750009,0.75001,0.75001,0.75001,0.75001,0.75001,0.75001,
 0.75001,0.75001,0.75001,0.75001,0.75001\RMSD=3.753e-09,5.348e-09,7.682
 e-09,4.509e-09,9.845e-09,8.323e-09,6.685e-09,6.433e-09,3.118e-09,3.323
 e-09,7.739e-09,6.772e-09,9.771e-09,9.120e-09,7.079e-09,3.070e-09,3.210
 e-09,8.615e-09,4.840e-09,3.321e-09,2.965e-09,2.428e-09,2.909e-09,8.235
 e-09,8.122e-09,6.300e-09,8.499e-09,9.845e-09,9.033e-09,5.025e-09,7.516
 e-09,2.125e-09,2.248e-09,4.389e-09,4.656e-09,9.442e-09,5.679e-09\PG=C0
 1 [X(C3H7)]\\@


 NOT WHAT WE DID SHALL BE THE TEST
 WHEN ACT AND WILL ARE DONE,
 BUT WHAT OUR LORD INFERS WE WOULD-
 HAD WE DIVINER BEEN.
           EMILY DICKINSON  POEMS NO. CLXXV
 Job cpu time:  0 days  3 hours 37 minutes 15.2 seconds.
 File lengths (MBytes):  RWF=      9 Int=      0 D2E=      0 Chk=      4 Scr=      1
 Normal termination of Gaussian 09 at Wed Apr  1 22:32:31 2015.
