 Entering Gaussian System, Link 0=g09
 Initial command:
 /usr/caen/gaussian-09revc/g09/l1.exe /scratch/avioli_flux/hetanjin/scratch/Gau-90920.inp -scrdir=/scratch/avioli_flux/hetanjin/scratch/
 Entering Link 1 = /usr/caen/gaussian-09revc/g09/l1.exe PID=     90921.
  
 Copyright (c) 1988,1990,1992,1993,1995,1998,2003,2009,2011,
            Gaussian, Inc.  All Rights Reserved.
  
 This is part of the Gaussian(R) 09 program.  It is based on
 the Gaussian(R) 03 system (copyright 2003, Gaussian, Inc.),
 the Gaussian(R) 98 system (copyright 1998, Gaussian, Inc.),
 the Gaussian(R) 94 system (copyright 1995, Gaussian, Inc.),
 the Gaussian 92(TM) system (copyright 1992, Gaussian, Inc.),
 the Gaussian 90(TM) system (copyright 1990, Gaussian, Inc.),
 the Gaussian 88(TM) system (copyright 1988, Gaussian, Inc.),
 the Gaussian 86(TM) system (copyright 1986, Carnegie Mellon
 University), and the Gaussian 82(TM) system (copyright 1983,
 Carnegie Mellon University). Gaussian is a federally registered
 trademark of Gaussian, Inc.
  
 This software contains proprietary and confidential information,
 including trade secrets, belonging to Gaussian, Inc.
  
 This software is provided under written license and may be
 used, copied, transmitted, or stored only in accord with that
 written license.
  
 The following legend is applicable only to US Government
 contracts under FAR:
  
                    RESTRICTED RIGHTS LEGEND
  
 Use, reproduction and disclosure by the US Government is
 subject to restrictions as set forth in subparagraphs (a)
 and (c) of the Commercial Computer Software - Restricted
 Rights clause in FAR 52.227-19.
  
 Gaussian, Inc.
 340 Quinnipiac St., Bldg. 40, Wallingford CT 06492
  
  
 ---------------------------------------------------------------
 Warning -- This program may not be used in any manner that
 competes with the business of Gaussian, Inc. or will provide
 assistance to any competitor of Gaussian, Inc.  The licensee
 of this program is prohibited from giving any competitor of
 Gaussian, Inc. access to this program.  By using this program,
 the user acknowledges that Gaussian, Inc. is engaged in the
 business of creating and licensing software in the field of
 computational chemistry and represents and warrants to the
 licensee that it is not a competitor of Gaussian, Inc. and that
 it will not use this program in any manner prohibited above.
 ---------------------------------------------------------------
  

 Cite this work as:
 Gaussian 09, Revision C.01,
 M. J. Frisch, G. W. Trucks, H. B. Schlegel, G. E. Scuseria, 
 M. A. Robb, J. R. Cheeseman, G. Scalmani, V. Barone, B. Mennucci, 
 G. A. Petersson, H. Nakatsuji, M. Caricato, X. Li, H. P. Hratchian, 
 A. F. Izmaylov, J. Bloino, G. Zheng, J. L. Sonnenberg, M. Hada, 
 M. Ehara, K. Toyota, R. Fukuda, J. Hasegawa, M. Ishida, T. Nakajima, 
 Y. Honda, O. Kitao, H. Nakai, T. Vreven, J. A. Montgomery, Jr., 
 J. E. Peralta, F. Ogliaro, M. Bearpark, J. J. Heyd, E. Brothers, 
 K. N. Kudin, V. N. Staroverov, T. Keith, R. Kobayashi, J. Normand, 
 K. Raghavachari, A. Rendell, J. C. Burant, S. S. Iyengar, J. Tomasi, 
 M. Cossi, N. Rega, J. M. Millam, M. Klene, J. E. Knox, J. B. Cross, 
 V. Bakken, C. Adamo, J. Jaramillo, R. Gomperts, R. E. Stratmann, 
 O. Yazyev, A. J. Austin, R. Cammi, C. Pomelli, J. W. Ochterski, 
 R. L. Martin, K. Morokuma, V. G. Zakrzewski, G. A. Voth, 
 P. Salvador, J. J. Dannenberg, S. Dapprich, A. D. Daniels, 
 O. Farkas, J. B. Foresman, J. V. Ortiz, J. Cioslowski, 
 and D. J. Fox, Gaussian, Inc., Wallingford CT, 2010.
 
 ******************************************
 Gaussian 09:  EM64L-G09RevC.01 23-Sep-2011
                17-Feb-2014 
 ******************************************
 %mem=30GB
 %nprocshared=8
 Will use up to    8 processors via shared memory.
 %chk=TS_1_1b.chk
 -------------------------------
 #p cbs-qb3 opt=(TS,calcfc) freq
 -------------------------------
 1/5=1,10=4,14=-1,18=20,26=3,38=1/1,3;
 2/9=110,12=2,17=6,18=5,40=1/2;
 3/5=4,6=6,7=700,11=2,16=1,25=1,30=1,71=2,74=-5/1,2,3;
 4//1;
 5/5=2,38=5/2;
 8/6=4,10=90,11=11/1;
 11/6=1,8=1,9=11,15=111,16=1/1,2,10;
 10/6=1,7=6,13=1/2;
 6/7=2,8=2,9=2,10=2,28=1/1;
 7/10=1,18=20,25=1/1,2,3,16;
 1/5=1,10=4,14=-1,18=20/3(2);
 2/9=110/2;
 99//99;
 2/9=110/2;
 3/5=4,6=6,7=700,11=2,16=1,25=1,30=1,71=1,74=-5/1,2,3;
 4/5=5,16=3/1;
 5/5=2,38=5/2;
 7//1,2,3,16;
 1/5=1,14=-1,18=20/3(-5);
 2/9=110/2;
 6/7=2,8=2,9=2,10=2,19=2,28=1/1;
 99/9=1/99;
 Leave Link    1 at Mon Feb 17 01:41:49 2014, MaxMem= 4026531840 cpu:       0.5
 (Enter /usr/caen/gaussian-09revc/g09/l101.exe)
 ------------------------------------
 TS_1_1b using cbs-qb3 to cal. energy
 ------------------------------------
 Charge =  0 Multiplicity = 2
 Symbolic Z-Matrix:
 C                    -2.98285  -1.45493   0.20907 
 H                    -2.7427   -2.27204  -0.46779 
 H                    -3.65113  -0.51155  -0.57127 
 H                    -3.7619   -1.69242   0.93192 
 C                    -1.83467  -0.60017   0.69743 
 H                    -1.636    -0.84035   1.75372 
 C                    -0.55024  -0.83564  -0.12108 
 H                    -0.3941   -1.91769  -0.19972 
 H                    -0.71148  -0.4732   -1.14246 
 C                     0.71873  -0.20128   0.46212 
 H                     0.85392  -0.54658   1.49613 
 H                     0.60359   0.8858    0.51216 
 C                     1.97356  -0.54533  -0.35127 
 H                     1.85963  -0.1599   -1.3736 
 H                     2.03964  -1.63663  -0.44495 
 C                     3.30199  -0.0264    0.23113 
 H                     3.37777  -0.39378   1.26419 
 C                     4.49024  -0.59781  -0.55547 
 H                     4.4634   -0.26565  -1.59924 
 H                     5.44295  -0.27099  -0.12855 
 H                     4.48073  -1.69189  -0.55472 
 C                    -2.27969   0.89084   0.69268 
 H                    -3.0933    1.05817   1.40574 
 H                    -1.45101   1.56417   0.91742 
 C                     3.36992   1.50732   0.2699 
 H                     4.33131   1.84511   0.66789 
 H                     3.26215   1.92649  -0.73684 
 H                     2.58663   1.94023   0.89698 
 O                    -2.70853   1.25013  -0.614 
 O                    -3.92922   0.579    -0.86525 
 
 NAtoms=     30 NQM=        0 NQMF=       0 NMMI=     30 NMMIF=      0
                NMic=       0 NMicF=      0.
                    Isotopes and Nuclear Properties:
 (Nuclear quadrupole moments (NQMom) in fm**2, nuclear magnetic moments (NMagM)
  in nuclear magnetons)

  Atom         1           2           3           4           5           6           7           8           9          10
 IAtWgt=          12           1           1           1          12           1          12           1           1          12
 AtmWgt=  12.0000000   1.0078250   1.0078250   1.0078250  12.0000000   1.0078250  12.0000000   1.0078250   1.0078250  12.0000000
 NucSpn=           0           1           1           1           0           1           0           1           1           0
 AtZEff=   0.0000000   0.0000000   0.0000000   0.0000000   0.0000000   0.0000000   0.0000000   0.0000000   0.0000000   0.0000000
 NQMom=    0.0000000   0.0000000   0.0000000   0.0000000   0.0000000   0.0000000   0.0000000   0.0000000   0.0000000   0.0000000
 NMagM=    0.0000000   2.7928460   2.7928460   2.7928460   0.0000000   2.7928460   0.0000000   2.7928460   2.7928460   0.0000000

  Atom        11          12          13          14          15          16          17          18          19          20
 IAtWgt=           1           1          12           1           1          12           1          12           1           1
 AtmWgt=   1.0078250   1.0078250  12.0000000   1.0078250   1.0078250  12.0000000   1.0078250  12.0000000   1.0078250   1.0078250
 NucSpn=           1           1           0           1           1           0           1           0           1           1
 AtZEff=   0.0000000   0.0000000   0.0000000   0.0000000   0.0000000   0.0000000   0.0000000   0.0000000   0.0000000   0.0000000
 NQMom=    0.0000000   0.0000000   0.0000000   0.0000000   0.0000000   0.0000000   0.0000000   0.0000000   0.0000000   0.0000000
 NMagM=    2.7928460   2.7928460   0.0000000   2.7928460   2.7928460   0.0000000   2.7928460   0.0000000   2.7928460   2.7928460

  Atom        21          22          23          24          25          26          27          28          29          30
 IAtWgt=           1          12           1           1          12           1           1           1          16          16
 AtmWgt=   1.0078250  12.0000000   1.0078250   1.0078250  12.0000000   1.0078250   1.0078250   1.0078250  15.9949146  15.9949146
 NucSpn=           1           0           1           1           0           1           1           1           0           0
 AtZEff=   0.0000000   0.0000000   0.0000000   0.0000000   0.0000000   0.0000000   0.0000000   0.0000000   0.0000000   0.0000000
 NQMom=    0.0000000   0.0000000   0.0000000   0.0000000   0.0000000   0.0000000   0.0000000   0.0000000   0.0000000   0.0000000
 NMagM=    2.7928460   0.0000000   2.7928460   2.7928460   0.0000000   2.7928460   2.7928460   2.7928460   0.0000000   0.0000000
 Leave Link  101 at Mon Feb 17 01:41:50 2014, MaxMem= 4026531840 cpu:       2.0
 (Enter /usr/caen/gaussian-09revc/g09/l103.exe)

 GradGradGradGradGradGradGradGradGradGradGradGradGradGradGradGradGradGrad
 Berny optimization.
 Initialization pass.
                           ----------------------------
                           !    Initial Parameters    !
                           ! (Angstroms and Degrees)  !
 --------------------------                            --------------------------
 ! Name  Definition              Value          Derivative Info.                !
 --------------------------------------------------------------------------------
 ! R1    R(1,2)                  1.0879         calculate D2E/DX2 analytically  !
 ! R2    R(1,3)                  1.3948         calculate D2E/DX2 analytically  !
 ! R3    R(1,4)                  1.089          calculate D2E/DX2 analytically  !
 ! R4    R(1,5)                  1.5124         calculate D2E/DX2 analytically  !
 ! R5    R(3,30)                 1.1632         calculate D2E/DX2 analytically  !
 ! R6    R(5,6)                  1.1013         calculate D2E/DX2 analytically  !
 ! R7    R(5,7)                  1.5412         calculate D2E/DX2 analytically  !
 ! R8    R(5,22)                 1.556          calculate D2E/DX2 analytically  !
 ! R9    R(7,8)                  1.0961         calculate D2E/DX2 analytically  !
 ! R10   R(7,9)                  1.0957         calculate D2E/DX2 analytically  !
 ! R11   R(7,10)                 1.5339         calculate D2E/DX2 analytically  !
 ! R12   R(10,11)                1.0985         calculate D2E/DX2 analytically  !
 ! R13   R(10,12)                1.0943         calculate D2E/DX2 analytically  !
 ! R14   R(10,13)                1.5345         calculate D2E/DX2 analytically  !
 ! R15   R(13,14)                1.0985         calculate D2E/DX2 analytically  !
 ! R16   R(13,15)                1.0973         calculate D2E/DX2 analytically  !
 ! R17   R(13,16)                1.5405         calculate D2E/DX2 analytically  !
 ! R18   R(16,17)                1.0991         calculate D2E/DX2 analytically  !
 ! R19   R(16,18)                1.5353         calculate D2E/DX2 analytically  !
 ! R20   R(16,25)                1.5357         calculate D2E/DX2 analytically  !
 ! R21   R(18,19)                1.0957         calculate D2E/DX2 analytically  !
 ! R22   R(18,20)                1.0939         calculate D2E/DX2 analytically  !
 ! R23   R(18,21)                1.0941         calculate D2E/DX2 analytically  !
 ! R24   R(22,23)                1.0947         calculate D2E/DX2 analytically  !
 ! R25   R(22,24)                1.0911         calculate D2E/DX2 analytically  !
 ! R26   R(22,29)                1.4214         calculate D2E/DX2 analytically  !
 ! R27   R(25,26)                1.094          calculate D2E/DX2 analytically  !
 ! R28   R(25,27)                1.0958         calculate D2E/DX2 analytically  !
 ! R29   R(25,28)                1.0928         calculate D2E/DX2 analytically  !
 ! R30   R(29,30)                1.4155         calculate D2E/DX2 analytically  !
 ! A1    A(2,1,3)              105.4079         calculate D2E/DX2 analytically  !
 ! A2    A(2,1,4)              114.0243         calculate D2E/DX2 analytically  !
 ! A3    A(2,1,5)              117.2461         calculate D2E/DX2 analytically  !
 ! A4    A(3,1,4)              100.1428         calculate D2E/DX2 analytically  !
 ! A5    A(3,1,5)               99.331          calculate D2E/DX2 analytically  !
 ! A6    A(4,1,5)              116.8737         calculate D2E/DX2 analytically  !
 ! A7    A(1,3,30)             152.8781         calculate D2E/DX2 analytically  !
 ! A8    A(1,5,6)              108.8684         calculate D2E/DX2 analytically  !
 ! A9    A(1,5,7)              112.0156         calculate D2E/DX2 analytically  !
 ! A10   A(1,5,22)             108.8711         calculate D2E/DX2 analytically  !
 ! A11   A(6,5,7)              109.0094         calculate D2E/DX2 analytically  !
 ! A12   A(6,5,22)             105.2773         calculate D2E/DX2 analytically  !
 ! A13   A(7,5,22)             112.5287         calculate D2E/DX2 analytically  !
 ! A14   A(5,7,8)              107.9181         calculate D2E/DX2 analytically  !
 ! A15   A(5,7,9)              108.7769         calculate D2E/DX2 analytically  !
 ! A16   A(5,7,10)             115.1099         calculate D2E/DX2 analytically  !
 ! A17   A(8,7,9)              106.2986         calculate D2E/DX2 analytically  !
 ! A18   A(8,7,10)             108.5238         calculate D2E/DX2 analytically  !
 ! A19   A(9,7,10)             109.838          calculate D2E/DX2 analytically  !
 ! A20   A(7,10,11)            109.2509         calculate D2E/DX2 analytically  !
 ! A21   A(7,10,12)            109.9484         calculate D2E/DX2 analytically  !
 ! A22   A(7,10,13)            112.4733         calculate D2E/DX2 analytically  !
 ! A23   A(11,10,12)           106.3899         calculate D2E/DX2 analytically  !
 ! A24   A(11,10,13)           109.1378         calculate D2E/DX2 analytically  !
 ! A25   A(12,10,13)           109.4526         calculate D2E/DX2 analytically  !
 ! A26   A(10,13,14)           109.2595         calculate D2E/DX2 analytically  !
 ! A27   A(10,13,15)           108.5113         calculate D2E/DX2 analytically  !
 ! A28   A(10,13,16)           115.42           calculate D2E/DX2 analytically  !
 ! A29   A(14,13,15)           106.0063         calculate D2E/DX2 analytically  !
 ! A30   A(14,13,16)           108.849          calculate D2E/DX2 analytically  !
 ! A31   A(15,13,16)           108.3825         calculate D2E/DX2 analytically  !
 ! A32   A(13,16,17)           107.5901         calculate D2E/DX2 analytically  !
 ! A33   A(13,16,18)           110.3856         calculate D2E/DX2 analytically  !
 ! A34   A(13,16,25)           112.5888         calculate D2E/DX2 analytically  !
 ! A35   A(17,16,18)           107.6859         calculate D2E/DX2 analytically  !
 ! A36   A(17,16,25)           107.8818         calculate D2E/DX2 analytically  !
 ! A37   A(18,16,25)           110.5112         calculate D2E/DX2 analytically  !
 ! A38   A(16,18,19)           110.872          calculate D2E/DX2 analytically  !
 ! A39   A(16,18,20)           111.2781         calculate D2E/DX2 analytically  !
 ! A40   A(16,18,21)           111.4125         calculate D2E/DX2 analytically  !
 ! A41   A(19,18,20)           107.6096         calculate D2E/DX2 analytically  !
 ! A42   A(19,18,21)           107.673          calculate D2E/DX2 analytically  !
 ! A43   A(20,18,21)           107.821          calculate D2E/DX2 analytically  !
 ! A44   A(5,22,23)            110.9185         calculate D2E/DX2 analytically  !
 ! A45   A(5,22,24)            111.93           calculate D2E/DX2 analytically  !
 ! A46   A(5,22,29)            109.3481         calculate D2E/DX2 analytically  !
 ! A47   A(23,22,24)           109.6307         calculate D2E/DX2 analytically  !
 ! A48   A(23,22,29)           109.6287         calculate D2E/DX2 analytically  !
 ! A49   A(24,22,29)           105.2177         calculate D2E/DX2 analytically  !
 ! A50   A(16,25,26)           110.8817         calculate D2E/DX2 analytically  !
 ! A51   A(16,25,27)           110.7607         calculate D2E/DX2 analytically  !
 ! A52   A(16,25,28)           112.2356         calculate D2E/DX2 analytically  !
 ! A53   A(26,25,27)           107.6104         calculate D2E/DX2 analytically  !
 ! A54   A(26,25,28)           107.3873         calculate D2E/DX2 analytically  !
 ! A55   A(27,25,28)           107.7678         calculate D2E/DX2 analytically  !
 ! A56   A(22,29,30)           107.6682         calculate D2E/DX2 analytically  !
 ! A57   A(3,30,29)            101.1561         calculate D2E/DX2 analytically  !
 ! D1    D(2,1,3,30)          -145.7399         calculate D2E/DX2 analytically  !
 ! D2    D(4,1,3,30)            95.6851         calculate D2E/DX2 analytically  !
 ! D3    D(5,1,3,30)           -23.9684         calculate D2E/DX2 analytically  !
 ! D4    D(2,1,5,6)           -106.9359         calculate D2E/DX2 analytically  !
 ! D5    D(2,1,5,7)             13.6934         calculate D2E/DX2 analytically  !
 ! D6    D(2,1,5,22)           138.7908         calculate D2E/DX2 analytically  !
 ! D7    D(3,1,5,6)            140.2671         calculate D2E/DX2 analytically  !
 ! D8    D(3,1,5,7)            -99.1036         calculate D2E/DX2 analytically  !
 ! D9    D(3,1,5,22)            25.9938         calculate D2E/DX2 analytically  !
 ! D10   D(4,1,5,6)             33.8078         calculate D2E/DX2 analytically  !
 ! D11   D(4,1,5,7)            154.4371         calculate D2E/DX2 analytically  !
 ! D12   D(4,1,5,22)           -80.4655         calculate D2E/DX2 analytically  !
 ! D13   D(1,3,30,29)           35.5247         calculate D2E/DX2 analytically  !
 ! D14   D(1,5,7,8)            -48.1728         calculate D2E/DX2 analytically  !
 ! D15   D(1,5,7,9)             66.7538         calculate D2E/DX2 analytically  !
 ! D16   D(1,5,7,10)          -169.5233         calculate D2E/DX2 analytically  !
 ! D17   D(6,5,7,8)             72.3747         calculate D2E/DX2 analytically  !
 ! D18   D(6,5,7,9)           -172.6987         calculate D2E/DX2 analytically  !
 ! D19   D(6,5,7,10)           -48.9758         calculate D2E/DX2 analytically  !
 ! D20   D(22,5,7,8)          -171.2265         calculate D2E/DX2 analytically  !
 ! D21   D(22,5,7,9)           -56.2999         calculate D2E/DX2 analytically  !
 ! D22   D(22,5,7,10)           67.423          calculate D2E/DX2 analytically  !
 ! D23   D(1,5,22,23)           64.3225         calculate D2E/DX2 analytically  !
 ! D24   D(1,5,22,24)         -172.8844         calculate D2E/DX2 analytically  !
 ! D25   D(1,5,22,29)          -56.6996         calculate D2E/DX2 analytically  !
 ! D26   D(6,5,22,23)          -52.2704         calculate D2E/DX2 analytically  !
 ! D27   D(6,5,22,24)           70.5226         calculate D2E/DX2 analytically  !
 ! D28   D(6,5,22,29)         -173.2925         calculate D2E/DX2 analytically  !
 ! D29   D(7,5,22,23)         -170.8808         calculate D2E/DX2 analytically  !
 ! D30   D(7,5,22,24)          -48.0878         calculate D2E/DX2 analytically  !
 ! D31   D(7,5,22,29)           68.0971         calculate D2E/DX2 analytically  !
 ! D32   D(5,7,10,11)           55.0892         calculate D2E/DX2 analytically  !
 ! D33   D(5,7,10,12)          -61.316          calculate D2E/DX2 analytically  !
 ! D34   D(5,7,10,13)          176.4391         calculate D2E/DX2 analytically  !
 ! D35   D(8,7,10,11)          -65.9319         calculate D2E/DX2 analytically  !
 ! D36   D(8,7,10,12)          177.6629         calculate D2E/DX2 analytically  !
 ! D37   D(8,7,10,13)           55.418          calculate D2E/DX2 analytically  !
 ! D38   D(9,7,10,11)          178.2492         calculate D2E/DX2 analytically  !
 ! D39   D(9,7,10,12)           61.844          calculate D2E/DX2 analytically  !
 ! D40   D(9,7,10,13)          -60.4009         calculate D2E/DX2 analytically  !
 ! D41   D(7,10,13,14)          61.1722         calculate D2E/DX2 analytically  !
 ! D42   D(7,10,13,15)         -53.9791         calculate D2E/DX2 analytically  !
 ! D43   D(7,10,13,16)        -175.805          calculate D2E/DX2 analytically  !
 ! D44   D(11,10,13,14)       -177.4133         calculate D2E/DX2 analytically  !
 ! D45   D(11,10,13,15)         67.4353         calculate D2E/DX2 analytically  !
 ! D46   D(11,10,13,16)        -54.3906         calculate D2E/DX2 analytically  !
 ! D47   D(12,10,13,14)        -61.3526         calculate D2E/DX2 analytically  !
 ! D48   D(12,10,13,15)       -176.504          calculate D2E/DX2 analytically  !
 ! D49   D(12,10,13,16)         61.6701         calculate D2E/DX2 analytically  !
 ! D50   D(10,13,16,17)         54.771          calculate D2E/DX2 analytically  !
 ! D51   D(10,13,16,18)        172.0166         calculate D2E/DX2 analytically  !
 ! D52   D(10,13,16,25)        -63.9648         calculate D2E/DX2 analytically  !
 ! D53   D(14,13,16,17)        178.011          calculate D2E/DX2 analytically  !
 ! D54   D(14,13,16,18)        -64.7435         calculate D2E/DX2 analytically  !
 ! D55   D(14,13,16,25)         59.2751         calculate D2E/DX2 analytically  !
 ! D56   D(15,13,16,17)        -67.124          calculate D2E/DX2 analytically  !
 ! D57   D(15,13,16,18)         50.1216         calculate D2E/DX2 analytically  !
 ! D58   D(15,13,16,25)        174.1402         calculate D2E/DX2 analytically  !
 ! D59   D(13,16,18,19)         62.5867         calculate D2E/DX2 analytically  !
 ! D60   D(13,16,18,20)       -177.6803         calculate D2E/DX2 analytically  !
 ! D61   D(13,16,18,21)        -57.3155         calculate D2E/DX2 analytically  !
 ! D62   D(17,16,18,19)        179.773          calculate D2E/DX2 analytically  !
 ! D63   D(17,16,18,20)        -60.494          calculate D2E/DX2 analytically  !
 ! D64   D(17,16,18,21)         59.8708         calculate D2E/DX2 analytically  !
 ! D65   D(25,16,18,19)        -62.6208         calculate D2E/DX2 analytically  !
 ! D66   D(25,16,18,20)         57.1123         calculate D2E/DX2 analytically  !
 ! D67   D(25,16,18,21)        177.4771         calculate D2E/DX2 analytically  !
 ! D68   D(13,16,25,26)       -178.8045         calculate D2E/DX2 analytically  !
 ! D69   D(13,16,25,27)        -59.4038         calculate D2E/DX2 analytically  !
 ! D70   D(13,16,25,28)         61.0966         calculate D2E/DX2 analytically  !
 ! D71   D(17,16,25,26)         62.6304         calculate D2E/DX2 analytically  !
 ! D72   D(17,16,25,27)       -177.9688         calculate D2E/DX2 analytically  !
 ! D73   D(17,16,25,28)        -57.4685         calculate D2E/DX2 analytically  !
 ! D74   D(18,16,25,26)        -54.8554         calculate D2E/DX2 analytically  !
 ! D75   D(18,16,25,27)         64.5454         calculate D2E/DX2 analytically  !
 ! D76   D(18,16,25,28)       -174.9543         calculate D2E/DX2 analytically  !
 ! D77   D(5,22,29,30)          69.9857         calculate D2E/DX2 analytically  !
 ! D78   D(23,22,29,30)        -51.8166         calculate D2E/DX2 analytically  !
 ! D79   D(24,22,29,30)       -169.6345         calculate D2E/DX2 analytically  !
 ! D80   D(22,29,30,3)         -50.058          calculate D2E/DX2 analytically  !
 --------------------------------------------------------------------------------
 Trust Radius=3.00D-01 FncErr=1.00D-07 GrdErr=1.00D-06
 Number of steps in this run=    177 maximum allowed number of steps=    180.
 Search for a saddle point of order  1.
 GradGradGradGradGradGradGradGradGradGradGradGradGradGradGradGradGradGrad

 Leave Link  103 at Mon Feb 17 01:41:50 2014, MaxMem= 4026531840 cpu:       0.6
 (Enter /usr/caen/gaussian-09revc/g09/l202.exe)
                          Input orientation:                          
 ---------------------------------------------------------------------
 Center     Atomic      Atomic             Coordinates (Angstroms)
 Number     Number       Type             X           Y           Z
 ---------------------------------------------------------------------
      1          6           0       -2.982846   -1.454928    0.209067
      2          1           0       -2.742700   -2.272041   -0.467794
      3          1           0       -3.651132   -0.511547   -0.571272
      4          1           0       -3.761902   -1.692416    0.931922
      5          6           0       -1.834669   -0.600170    0.697429
      6          1           0       -1.635998   -0.840349    1.753722
      7          6           0       -0.550236   -0.835644   -0.121084
      8          1           0       -0.394098   -1.917686   -0.199715
      9          1           0       -0.711482   -0.473198   -1.142464
     10          6           0        0.718730   -0.201280    0.462120
     11          1           0        0.853921   -0.546584    1.496125
     12          1           0        0.603585    0.885797    0.512164
     13          6           0        1.973556   -0.545334   -0.351269
     14          1           0        1.859632   -0.159904   -1.373604
     15          1           0        2.039636   -1.636632   -0.444947
     16          6           0        3.301985   -0.026398    0.231126
     17          1           0        3.377765   -0.393783    1.264189
     18          6           0        4.490241   -0.597805   -0.555470
     19          1           0        4.463403   -0.265648   -1.599241
     20          1           0        5.442950   -0.270985   -0.128553
     21          1           0        4.480728   -1.691894   -0.554716
     22          6           0       -2.279692    0.890837    0.692682
     23          1           0       -3.093301    1.058167    1.405743
     24          1           0       -1.451010    1.564171    0.917422
     25          6           0        3.369923    1.507321    0.269903
     26          1           0        4.331305    1.845112    0.667891
     27          1           0        3.262154    1.926489   -0.736843
     28          1           0        2.586633    1.940228    0.896981
     29          8           0       -2.708533    1.250134   -0.614001
     30          8           0       -3.929224    0.579004   -0.865253
 ---------------------------------------------------------------------
                    Distance matrix (angstroms):
                    1          2          3          4          5
     1  C    0.000000
     2  H    1.087881   0.000000
     3  H    1.394813   1.983758   0.000000
     4  H    1.088967   1.825909   1.914762   0.000000
     5  C    1.512422   2.231013   2.217430   2.227603   0.000000
     6  H    2.139548   2.865251   3.094265   2.433278   1.101322
     7  C    2.531818   2.643926   3.150121   3.486786   1.541162
     8  H    2.661365   2.390265   3.567009   3.559979   2.148479
     9  H    2.819490   2.795865   2.994874   3.885181   2.159370
    10  C    3.916291   4.139359   4.501095   4.745552   2.595059
    11  H    4.147576   4.446331   4.956900   4.789267   2.805228
    12  H    4.293408   4.704241   4.607496   5.087323   2.861381
    13  C    5.070233   5.023760   5.629090   5.988143   3.950361
    14  H    5.256570   5.144227   5.579956   6.266234   4.258036
    15  H    5.068143   4.824417   5.802294   5.962946   4.170074
    16  C    6.445175   6.486110   7.016056   7.291449   5.189592
    17  H    6.534270   6.632323   7.265547   7.264413   5.247216
    18  C    7.560834   7.424701   8.141845   8.456262   6.447810
    19  H    7.754417   7.565296   8.183084   8.723422   6.712102
    20  H    8.515265   8.433515   9.108029   9.374133   7.331736
    21  H    7.506294   7.247209   8.217094   8.375622   6.530235
    22  C    2.496182   3.400717   2.333476   2.987872   1.556011
    23  H    2.785656   3.837101   2.585298   2.870059   2.199078
    24  H    3.458793   4.278295   3.371254   3.993218   2.209064
    25  C    7.009729   7.224399   7.353816   7.844712   5.631348
    26  H    8.037262   8.263309   8.414789   8.836505   6.633213
    27  H    7.164409   7.332006   7.332459   8.075804   5.866749
    28  H    6.558918   6.928752   6.861245   7.314453   5.103073
    29  O    2.840783   3.525374   1.998459   3.486842   2.430455
    30  O    2.487303   3.113562   1.163212   2.901238   2.866982
                    6          7          8          9         10
     6  H    0.000000
     7  C    2.166518   0.000000
     8  H    2.553211   1.096073   0.000000
     9  H    3.062258   1.095712   1.753868   0.000000
    10  C    2.760686   1.533890   2.149991   2.166595   0.000000
    11  H    2.520387   2.161152   2.512637   3.068880   1.098489
    12  H    3.088167   2.166948   3.059683   2.512780   1.094303
    13  C    4.188902   2.550841   2.740822   2.800111   1.534459
    14  H    4.739473   2.798731   3.089840   2.600424   2.161771
    15  H    4.356432   2.730184   2.462152   3.067370   2.151232
    16  C    5.231108   3.952030   4.174161   4.265477   2.599452
    17  H    5.057359   4.188486   4.323453   4.745548   2.784033
    18  C    6.551488   5.064747   5.072023   5.236221   3.926451
    19  H    6.983934   5.257986   5.318197   5.199150   4.275035
    20  H    7.347016   6.019732   6.065296   6.240668   4.761513
    21  H    6.593053   5.121699   4.892948   5.365605   4.172351
    22  C    2.130059   2.575649   3.498519   2.772658   3.199439
    23  H    2.418509   3.519219   4.326534   3.809396   4.124101
    24  H    2.552515   2.765683   3.806361   2.990135   2.834059
    25  C    5.724729   4.583667   5.110682   4.751326   3.159919
    26  H    6.633207   5.624800   6.102526   5.837949   4.157013
    27  H    6.152252   4.747932   5.332388   4.659701   3.526176
    28  H    5.127985   4.310669   4.997099   4.567442   2.874756
    29  O    3.335650   3.041658   3.945038   2.690234   3.874374
    30  O    3.759319   3.737991   4.378758   3.396739   4.896350
                   11         12         13         14         15
    11  H    0.000000
    12  H    1.755723   0.000000
    13  C    2.160196   2.161128   0.000000
    14  H    3.065342   2.495449   1.098501   0.000000
    15  H    2.522278   3.056297   1.097303   1.753719   0.000000
    16  C    2.804253   2.862245   1.540520   2.161797   2.154867
    17  H    2.539081   3.146258   2.145804   3.052438   2.501281
    18  C    4.175463   4.294998   2.525501   2.789481   2.663990
    19  H    4.763253   4.547752   2.799106   2.615668   3.014405
    20  H    4.875933   5.016783   3.487343   3.795084   3.680712
    21  H    4.321043   4.776501   2.764399   3.144474   2.444184
    22  C    3.539948   2.888927   4.608963   4.744217   5.132143
    23  H    4.261919   3.807251   5.597441   5.808615   6.085560
    24  H    3.178504   2.201315   4.217492   4.379679   4.928062
    25  C    3.471658   2.845630   2.559119   2.785989   3.487852
    26  H    4.300974   3.852328   3.508832   3.781132   4.314243
    27  H    4.111183   3.116255   2.814083   2.593370   3.778304
    28  H    3.089579   2.278681   2.848159   3.177206   3.859262
    29  O    4.513525   3.517260   5.021423   4.840799   5.559416
    30  O    5.451746   4.747395   6.030848   5.857923   6.380673
                   16         17         18         19         20
    16  C    0.000000
    17  H    1.099060   0.000000
    18  C    1.535315   2.142519   0.000000
    19  H    2.180912   3.065006   1.095676   0.000000
    20  H    2.184702   2.493952   1.093949   1.767050   0.000000
    21  H    2.186518   2.491994   1.094131   1.767911   1.768182
    22  C    5.675339   5.829553   7.043148   7.215241   7.852608
    23  H    6.592093   6.633468   8.006167   8.239308   8.774297
    24  H    5.058841   5.222155   6.491688   6.682972   7.210308
    25  C    1.535713   2.145428   2.523472   2.798717   2.760178
    26  H    2.180095   2.505486   2.736735   3.100427   2.519513
    27  H    2.179981   3.066131   2.813033   2.644276   3.155120
    28  H    2.196067   2.491654   3.489262   3.823517   3.754961
    29  O    6.202427   6.578228   7.432406   7.396280   8.306391
    30  O    7.338865   7.672869   8.506952   8.466898   9.439431
                   21         22         23         24         25
    21  H    0.000000
    22  C    7.343690   0.000000
    23  H    8.292898   1.094721   0.000000
    24  H    6.924931   1.091146   1.786510   0.000000
    25  C    3.485522   5.698855   6.577624   4.864556   0.000000
    26  H    3.745331   6.679561   7.502565   5.794511   1.093962
    27  H    3.822406   5.816199   6.762874   5.008172   1.095835
    28  H    4.345956   4.982377   5.770487   4.055169   1.092785
    29  O    7.768173   1.421415   2.065009   2.006300   6.147769
    30  O    8.716691   2.290274   2.466939   3.207807   7.444992
                   26         27         28         29         30
    26  H    0.000000
    27  H    1.767197   0.000000
    28  H    1.762217   1.768021   0.000000
    29  O    7.180290   6.010129   5.549602   0.000000
    30  O    8.496464   7.317658   6.885840   1.415496   0.000000
 Stoichiometry    C9H19O2(2)
 Framework group  C1[X(C9H19O2)]
 Deg. of freedom    84
 Full point group                 C1      NOp   1
 Largest Abelian subgroup         C1      NOp   1
 Largest concise Abelian subgroup C1      NOp   1
                         Standard orientation:                         
 ---------------------------------------------------------------------
 Center     Atomic      Atomic             Coordinates (Angstroms)
 Number     Number       Type             X           Y           Z
 ---------------------------------------------------------------------
      1          6           0       -2.982846   -1.454928    0.209067
      2          1           0       -2.742700   -2.272041   -0.467794
      3          1           0       -3.651132   -0.511547   -0.571272
      4          1           0       -3.761902   -1.692416    0.931922
      5          6           0       -1.834669   -0.600170    0.697429
      6          1           0       -1.635998   -0.840349    1.753722
      7          6           0       -0.550236   -0.835644   -0.121084
      8          1           0       -0.394098   -1.917686   -0.199715
      9          1           0       -0.711482   -0.473198   -1.142464
     10          6           0        0.718730   -0.201280    0.462120
     11          1           0        0.853921   -0.546584    1.496125
     12          1           0        0.603585    0.885797    0.512164
     13          6           0        1.973556   -0.545334   -0.351269
     14          1           0        1.859632   -0.159904   -1.373604
     15          1           0        2.039636   -1.636632   -0.444947
     16          6           0        3.301985   -0.026398    0.231126
     17          1           0        3.377765   -0.393783    1.264189
     18          6           0        4.490241   -0.597805   -0.555470
     19          1           0        4.463403   -0.265648   -1.599241
     20          1           0        5.442950   -0.270985   -0.128553
     21          1           0        4.480728   -1.691894   -0.554716
     22          6           0       -2.279692    0.890837    0.692682
     23          1           0       -3.093301    1.058167    1.405743
     24          1           0       -1.451010    1.564171    0.917422
     25          6           0        3.369923    1.507321    0.269903
     26          1           0        4.331305    1.845112    0.667891
     27          1           0        3.262154    1.926489   -0.736843
     28          1           0        2.586633    1.940228    0.896981
     29          8           0       -2.708533    1.250134   -0.614001
     30          8           0       -3.929224    0.579004   -0.865253
 ---------------------------------------------------------------------
 Rotational constants (GHZ):      2.4420264      0.3677552      0.3452964
 Leave Link  202 at Mon Feb 17 01:41:51 2014, MaxMem= 4026531840 cpu:       0.3
 (Enter /usr/caen/gaussian-09revc/g09/l301.exe)
 Standard basis: 6-311G(2d,d,p) (5D, 7F)
 Ernie: Thresh=  0.10000D-02 Tol=  0.10000D-05 Strict=F.
 There are   312 symmetry adapted basis functions of A   symmetry.
 Integral buffers will be    131072 words long.
 Raffenetti 2 integral format.
 Two-electron integral symmetry is turned on.
   312 basis functions,   504 primitive gaussians,   323 cartesian basis functions
    45 alpha electrons       44 beta electrons
       nuclear repulsion energy       646.4705612354 Hartrees.
 IExCor=  402 DFT=T Ex+Corr=B3LYP ExCW=0 ScaHFX=  0.200000
 ScaDFX=  0.800000  0.720000  1.000000  0.810000 ScalE2=  1.000000  1.000000
 IRadAn=      0 IRanWt=     -1 IRanGd=            0 ICorTp=0
 NAtoms=   30 NActive=   30 NUniq=   30 SFac= 1.00D+00 NAtFMM=   60 NAOKFM=F Big=F
 Leave Link  301 at Mon Feb 17 01:41:51 2014, MaxMem= 4026531840 cpu:       0.5
 (Enter /usr/caen/gaussian-09revc/g09/l302.exe)
 NPDir=0 NMtPBC=     1 NCelOv=     1 NCel=       1 NClECP=     1 NCelD=      1
         NCelK=      1 NCelE2=     1 NClLst=     1 CellRange=     0.0.
 One-electron integrals computed using PRISM.
 NBasis=   312 RedAO= T  NBF=   312
 NBsUse=   312 1.00D-06 NBFU=   312
 Precomputing XC quadrature grid using
 IXCGrd= 2 IRadAn=           0 IRanWt=          -1 IRanGd=           0 AccXCQ= 0.00D+00.
 NRdTot=    1914 NPtTot=      243844 NUsed=      257645 NTot=      257677
 NSgBfM=   322   322   322   322   322 NAtAll=    30    30.
 Leave Link  302 at Mon Feb 17 01:41:52 2014, MaxMem= 4026531840 cpu:       3.1
 (Enter /usr/caen/gaussian-09revc/g09/l303.exe)
 DipDrv:  MaxL=1.
 Leave Link  303 at Mon Feb 17 01:41:52 2014, MaxMem= 4026531840 cpu:       0.5
 (Enter /usr/caen/gaussian-09revc/g09/l401.exe)
 Harris functional with IExCor=  402 diagonalized for initial guess.
 ExpMin= 1.03D-01 ExpMax= 8.59D+03 ExpMxC= 1.30D+03 IAcc=1 IRadAn=         1 AccDes= 0.00D+00
 HarFok:  IExCor=  402 AccDes= 0.00D+00 IRadAn=         1 IDoV= 1
 ScaDFX=  1.000000  1.000000  1.000000  1.000000
 FoFCou: FMM=F IPFlag=           0 FMFlag=      100000 FMFlg1=           0
         NFxFlg=           0 DoJE=T BraDBF=F KetDBF=T FulRan=T
         Omega=  0.000000  0.000000  1.000000  0.000000  0.000000 ICntrl=     500 IOpCl=  0
         NMat0=    1 NMatS0=    1 NMatT0=    0 NMatD0=    1 NMtDS0=    0 NMtDT0=    0
         I1Cent=           4 NGrid=           0.
 Petite list used in FoFCou.
 Harris En= -504.884391501131    
 Initial guess orbital symmetries:
 Alpha Orbitals:
       Occupied  (A) (A) (A) (A) (A) (A) (A) (A) (A) (A) (A) (A)
                 (A) (A) (A) (A) (A) (A) (A) (A) (A) (A) (A) (A)
                 (A) (A) (A) (A) (A) (A) (A) (A) (A) (A) (A) (A)
                 (A) (A) (A) (A) (A) (A) (A) (A) (A)
       Virtual   (A) (A) (A) (A) (A) (A) (A) (A) (A) (A) (A) (A)
                 (A) (A) (A) (A) (A) (A) (A) (A) (A) (A) (A) (A)
                 (A) (A) (A) (A) (A) (A) (A) (A) (A) (A) (A) (A)
                 (A) (A) (A) (A) (A) (A) (A) (A) (A) (A) (A) (A)
                 (A) (A) (A) (A) (A) (A) (A) (A) (A) (A) (A) (A)
                 (A) (A) (A) (A) (A) (A) (A) (A) (A) (A) (A) (A)
                 (A) (A) (A) (A) (A) (A) (A) (A) (A) (A) (A) (A)
                 (A) (A) (A) (A) (A) (A) (A) (A) (A) (A) (A) (A)
                 (A) (A) (A) (A) (A) (A) (A) (A) (A) (A) (A) (A)
                 (A) (A) (A) (A) (A) (A) (A) (A) (A) (A) (A) (A)
                 (A) (A) (A) (A) (A) (A) (A) (A) (A) (A) (A) (A)
                 (A) (A) (A) (A) (A) (A) (A) (A) (A) (A) (A) (A)
                 (A) (A) (A) (A) (A) (A) (A) (A) (A) (A) (A) (A)
                 (A) (A) (A) (A) (A) (A) (A) (A) (A) (A) (A) (A)
                 (A) (A) (A) (A) (A) (A) (A) (A) (A) (A) (A) (A)
                 (A) (A) (A) (A) (A) (A) (A) (A) (A) (A) (A) (A)
                 (A) (A) (A) (A) (A) (A) (A) (A) (A) (A) (A) (A)
                 (A) (A) (A) (A) (A) (A) (A) (A) (A) (A) (A) (A)
                 (A) (A) (A) (A) (A) (A) (A) (A) (A) (A) (A) (A)
                 (A) (A) (A) (A) (A) (A) (A) (A) (A) (A) (A) (A)
                 (A) (A) (A) (A) (A) (A) (A) (A) (A) (A) (A) (A)
                 (A) (A) (A) (A) (A) (A) (A) (A) (A) (A) (A) (A)
                 (A) (A) (A)
 Beta  Orbitals:
       Occupied  (A) (A) (A) (A) (A) (A) (A) (A) (A) (A) (A) (A)
                 (A) (A) (A) (A) (A) (A) (A) (A) (A) (A) (A) (A)
                 (A) (A) (A) (A) (A) (A) (A) (A) (A) (A) (A) (A)
                 (A) (A) (A) (A) (A) (A) (A) (A)
       Virtual   (A) (A) (A) (A) (A) (A) (A) (A) (A) (A) (A) (A)
                 (A) (A) (A) (A) (A) (A) (A) (A) (A) (A) (A) (A)
                 (A) (A) (A) (A) (A) (A) (A) (A) (A) (A) (A) (A)
                 (A) (A) (A) (A) (A) (A) (A) (A) (A) (A) (A) (A)
                 (A) (A) (A) (A) (A) (A) (A) (A) (A) (A) (A) (A)
                 (A) (A) (A) (A) (A) (A) (A) (A) (A) (A) (A) (A)
                 (A) (A) (A) (A) (A) (A) (A) (A) (A) (A) (A) (A)
                 (A) (A) (A) (A) (A) (A) (A) (A) (A) (A) (A) (A)
                 (A) (A) (A) (A) (A) (A) (A) (A) (A) (A) (A) (A)
                 (A) (A) (A) (A) (A) (A) (A) (A) (A) (A) (A) (A)
                 (A) (A) (A) (A) (A) (A) (A) (A) (A) (A) (A) (A)
                 (A) (A) (A) (A) (A) (A) (A) (A) (A) (A) (A) (A)
                 (A) (A) (A) (A) (A) (A) (A) (A) (A) (A) (A) (A)
                 (A) (A) (A) (A) (A) (A) (A) (A) (A) (A) (A) (A)
                 (A) (A) (A) (A) (A) (A) (A) (A) (A) (A) (A) (A)
                 (A) (A) (A) (A) (A) (A) (A) (A) (A) (A) (A) (A)
                 (A) (A) (A) (A) (A) (A) (A) (A) (A) (A) (A) (A)
                 (A) (A) (A) (A) (A) (A) (A) (A) (A) (A) (A) (A)
                 (A) (A) (A) (A) (A) (A) (A) (A) (A) (A) (A) (A)
                 (A) (A) (A) (A) (A) (A) (A) (A) (A) (A) (A) (A)
                 (A) (A) (A) (A) (A) (A) (A) (A) (A) (A) (A) (A)
                 (A) (A) (A) (A) (A) (A) (A) (A) (A) (A) (A) (A)
                 (A) (A) (A) (A)
 The electronic state of the initial guess is 2-A.
 Initial guess <Sx>= 0.0000 <Sy>= 0.0000 <Sz>= 0.5000 <S**2>= 0.7500 S= 0.5000
 Leave Link  401 at Mon Feb 17 01:41:53 2014, MaxMem= 4026531840 cpu:       5.4
 (Enter /usr/caen/gaussian-09revc/g09/l502.exe)
 UHF open shell SCF:
 Requested convergence on RMS density matrix=1.00D-08 within 128 cycles.
 Requested convergence on MAX density matrix=1.00D-06.
 Requested convergence on             energy=1.00D-06.
 No special actions if energy rises.
 Using DIIS extrapolation, IDIIS=  1040.
 Integral symmetry usage will be decided dynamically.
       257362 words used for storage of precomputed grid.
 Keep R1 and R2 ints in memory in canonical form, NReq=2755662093.
 IEnd=      593520 IEndB=      593520 NGot=  4026531840 MDV=  1287996983
 LenX=  1287996983 LenY=  1287892213
 Symmetry not used in FoFDir.
 MinBra= 0 MaxBra= 2 Meth= 1.
 IRaf=       0 NMat=   1 IRICut=       1 DoRegI=T DoRafI=F ISym2E= 0 JSym2E=0.
 Integral accuracy reduced to 1.0D-05 until final iterations.

 Cycle   1  Pass 0  IDiag  1:
 E= -504.454887687328    
 DIIS: error= 4.01D-02 at cycle   1 NSaved=   1.
 NSaved= 1 IEnMin= 1 EnMin= -504.454887687328     IErMin= 1 ErrMin= 4.01D-02
 ErrMax= 4.01D-02 EMaxC= 1.00D-01 BMatC= 1.47D+00 BMatP= 1.47D+00
 IDIUse=3 WtCom= 5.99D-01 WtEn= 4.01D-01
 Coeff-Com:  0.100D+01
 Coeff-En:   0.100D+01
 Coeff:      0.100D+01
 Gap=     0.191 Goal=   None    Shift=    0.000
 Gap=     0.163 Goal=   None    Shift=    0.000
 GapD=    0.163 DampG=1.000 DampE=0.500 DampFc=0.5000 IDamp=-1.
 Damping current iteration by 5.00D-01
 RMSDP=3.37D-03 MaxDP=1.20D-01              OVMax= 2.50D-01

 Cycle   2  Pass 0  IDiag  1:
 E= -504.604605059425     Delta-E=       -0.149717372096 Rises=F Damp=T
 DIIS: error= 6.53D-03 at cycle   2 NSaved=   2.
 NSaved= 2 IEnMin= 2 EnMin= -504.604605059425     IErMin= 2 ErrMin= 6.53D-03
 ErrMax= 6.53D-03 EMaxC= 1.00D-01 BMatC= 1.19D-01 BMatP= 1.47D+00
 IDIUse=3 WtCom= 9.35D-01 WtEn= 6.53D-02
 Coeff-Com:  0.961D-01 0.904D+00
 Coeff-En:   0.189D+00 0.811D+00
 Coeff:      0.102D+00 0.898D+00
 Gap=     0.294 Goal=   None    Shift=    0.000
 Gap=     0.206 Goal=   None    Shift=    0.000
 RMSDP=9.12D-04 MaxDP=3.30D-02 DE=-1.50D-01 OVMax= 2.20D-01

 Cycle   3  Pass 0  IDiag  1:
 E= -504.806105103198     Delta-E=       -0.201500043773 Rises=F Damp=F
 DIIS: error= 1.25D-02 at cycle   3 NSaved=   3.
 NSaved= 3 IEnMin= 3 EnMin= -504.806105103198     IErMin= 2 ErrMin= 6.53D-03
 ErrMax= 1.25D-02 EMaxC= 1.00D-01 BMatC= 9.19D-02 BMatP= 1.19D-01
 IDIUse=3 WtCom= 8.75D-01 WtEn= 1.25D-01
 Coeff-Com: -0.111D-02 0.462D+00 0.539D+00
 Coeff-En:   0.000D+00 0.000D+00 0.100D+01
 Coeff:     -0.975D-03 0.404D+00 0.597D+00
 Gap=     0.269 Goal=   None    Shift=    0.000
 Gap=     0.141 Goal=   None    Shift=    0.000
 RMSDP=5.97D-04 MaxDP=3.00D-02 DE=-2.02D-01 OVMax= 1.33D-01

 Cycle   4  Pass 0  IDiag  1:
 E= -504.815247168260     Delta-E=       -0.009142065062 Rises=F Damp=F
 DIIS: error= 7.08D-03 at cycle   4 NSaved=   4.
 NSaved= 4 IEnMin= 4 EnMin= -504.815247168260     IErMin= 2 ErrMin= 6.53D-03
 ErrMax= 7.08D-03 EMaxC= 1.00D-01 BMatC= 5.39D-02 BMatP= 9.19D-02
 IDIUse=3 WtCom= 9.29D-01 WtEn= 7.08D-02
 Coeff-Com: -0.124D-01 0.122D+00 0.437D+00 0.454D+00
 Coeff-En:   0.000D+00 0.000D+00 0.372D+00 0.628D+00
 Coeff:     -0.115D-01 0.113D+00 0.432D+00 0.466D+00
 Gap=     0.263 Goal=   None    Shift=    0.000
 Gap=     0.136 Goal=   None    Shift=    0.000
 RMSDP=2.53D-04 MaxDP=1.26D-02 DE=-9.14D-03 OVMax= 2.81D-02

 Cycle   5  Pass 0  IDiag  1:
 E= -504.825132321713     Delta-E=       -0.009885153453 Rises=F Damp=F
 DIIS: error= 1.14D-03 at cycle   5 NSaved=   5.
 NSaved= 5 IEnMin= 5 EnMin= -504.825132321713     IErMin= 5 ErrMin= 1.14D-03
 ErrMax= 1.14D-03 EMaxC= 1.00D-01 BMatC= 1.78D-03 BMatP= 5.39D-02
 IDIUse=3 WtCom= 9.89D-01 WtEn= 1.14D-02
 Coeff-Com: -0.493D-02 0.212D-01 0.193D+00 0.229D+00 0.561D+00
 Coeff-En:   0.000D+00 0.000D+00 0.000D+00 0.000D+00 0.100D+01
 Coeff:     -0.487D-02 0.209D-01 0.191D+00 0.226D+00 0.566D+00
 Gap=     0.259 Goal=   None    Shift=    0.000
 Gap=     0.135 Goal=   None    Shift=    0.000
 RMSDP=7.97D-05 MaxDP=3.74D-03 DE=-9.89D-03 OVMax= 1.10D-02

 Cycle   6  Pass 0  IDiag  1:
 E= -504.825466407107     Delta-E=       -0.000334085394 Rises=F Damp=F
 DIIS: error= 1.05D-03 at cycle   6 NSaved=   6.
 NSaved= 6 IEnMin= 6 EnMin= -504.825466407107     IErMin= 6 ErrMin= 1.05D-03
 ErrMax= 1.05D-03 EMaxC= 1.00D-01 BMatC= 7.00D-04 BMatP= 1.78D-03
 IDIUse=3 WtCom= 9.89D-01 WtEn= 1.05D-02
 Coeff-Com:  0.556D-03-0.121D-01 0.382D-01 0.355D-01 0.375D+00 0.563D+00
 Coeff-En:   0.000D+00 0.000D+00 0.000D+00 0.000D+00 0.135D+00 0.865D+00
 Coeff:      0.550D-03-0.120D-01 0.378D-01 0.351D-01 0.372D+00 0.567D+00
 Gap=     0.259 Goal=   None    Shift=    0.000
 Gap=     0.138 Goal=   None    Shift=    0.000
 RMSDP=4.17D-05 MaxDP=1.83D-03 DE=-3.34D-04 OVMax= 1.27D-02

 Cycle   7  Pass 0  IDiag  1:
 E= -504.825627467915     Delta-E=       -0.000161060808 Rises=F Damp=F
 DIIS: error= 2.63D-04 at cycle   7 NSaved=   7.
 NSaved= 7 IEnMin= 7 EnMin= -504.825627467915     IErMin= 7 ErrMin= 2.63D-04
 ErrMax= 2.63D-04 EMaxC= 1.00D-01 BMatC= 9.33D-05 BMatP= 7.00D-04
 IDIUse=3 WtCom= 9.97D-01 WtEn= 2.63D-03
 Coeff-Com:  0.193D-02-0.985D-02-0.222D-01-0.461D-01 0.293D-01 0.260D+00
 Coeff-Com:  0.787D+00
 Coeff-En:   0.000D+00 0.000D+00 0.000D+00 0.000D+00 0.000D+00 0.000D+00
 Coeff-En:   0.100D+01
 Coeff:      0.192D-02-0.982D-02-0.221D-01-0.460D-01 0.292D-01 0.260D+00
 Coeff:      0.787D+00
 Gap=     0.259 Goal=   None    Shift=    0.000
 Gap=     0.138 Goal=   None    Shift=    0.000
 RMSDP=2.80D-05 MaxDP=1.31D-03 DE=-1.61D-04 OVMax= 8.48D-03

 Cycle   8  Pass 0  IDiag  1:
 E= -504.825671785641     Delta-E=       -0.000044317726 Rises=F Damp=F
 DIIS: error= 1.34D-04 at cycle   8 NSaved=   8.
 NSaved= 8 IEnMin= 8 EnMin= -504.825671785641     IErMin= 8 ErrMin= 1.34D-04
 ErrMax= 1.34D-04 EMaxC= 1.00D-01 BMatC= 1.93D-05 BMatP= 9.33D-05
 IDIUse=3 WtCom= 9.99D-01 WtEn= 1.34D-03
 Coeff-Com:  0.928D-03-0.492D-03-0.194D-01-0.358D-01-0.975D-01-0.404D-01
 Coeff-Com:  0.385D+00 0.808D+00
 Coeff-En:   0.000D+00 0.000D+00 0.000D+00 0.000D+00 0.000D+00 0.000D+00
 Coeff-En:   0.000D+00 0.100D+01
 Coeff:      0.927D-03-0.492D-03-0.194D-01-0.358D-01-0.974D-01-0.403D-01
 Coeff:      0.384D+00 0.808D+00
 Gap=     0.259 Goal=   None    Shift=    0.000
 Gap=     0.138 Goal=   None    Shift=    0.000
 RMSDP=1.81D-05 MaxDP=7.51D-04 DE=-4.43D-05 OVMax= 7.04D-03

 Cycle   9  Pass 0  IDiag  1:
 E= -504.825684983494     Delta-E=       -0.000013197852 Rises=F Damp=F
 DIIS: error= 4.57D-05 at cycle   9 NSaved=   9.
 NSaved= 9 IEnMin= 9 EnMin= -504.825684983494     IErMin= 9 ErrMin= 4.57D-05
 ErrMax= 4.57D-05 EMaxC= 1.00D-01 BMatC= 2.03D-06 BMatP= 1.93D-05
 IDIUse=1 WtCom= 1.00D+00 WtEn= 0.00D+00
 Coeff-Com: -0.594D-04 0.113D-02-0.131D-02-0.350D-02-0.277D-01-0.431D-01
 Coeff-Com: -0.221D-01 0.213D+00 0.884D+00
 Coeff:     -0.594D-04 0.113D-02-0.131D-02-0.350D-02-0.277D-01-0.431D-01
 Coeff:     -0.221D-01 0.213D+00 0.884D+00
 Gap=     0.259 Goal=   None    Shift=    0.000
 Gap=     0.138 Goal=   None    Shift=    0.000
 RMSDP=7.10D-06 MaxDP=3.35D-04 DE=-1.32D-05 OVMax= 2.65D-03

 Initial convergence to 1.0D-05 achieved.  Increase integral accuracy.
 Cycle  10  Pass 1  IDiag  1:
 E= -504.825742606623     Delta-E=       -0.000057623130 Rises=F Damp=F
 DIIS: error= 2.18D-05 at cycle   1 NSaved=   1.
 NSaved= 1 IEnMin= 1 EnMin= -504.825742606623     IErMin= 1 ErrMin= 2.18D-05
 ErrMax= 2.18D-05 EMaxC= 1.00D-01 BMatC= 7.68D-07 BMatP= 7.68D-07
 IDIUse=1 WtCom= 1.00D+00 WtEn= 0.00D+00
 Coeff-Com:  0.100D+01
 Coeff:      0.100D+01
 Gap=     0.259 Goal=   None    Shift=    0.000
 Gap=     0.138 Goal=   None    Shift=    0.000
 RMSDP=7.10D-06 MaxDP=3.35D-04 DE=-5.76D-05 OVMax= 7.75D-04

 Cycle  11  Pass 1  IDiag  1:
 E= -504.825742944400     Delta-E=       -0.000000337777 Rises=F Damp=F
 DIIS: error= 1.94D-05 at cycle   2 NSaved=   2.
 NSaved= 2 IEnMin= 2 EnMin= -504.825742944400     IErMin= 2 ErrMin= 1.94D-05
 ErrMax= 1.94D-05 EMaxC= 1.00D-01 BMatC= 5.28D-07 BMatP= 7.68D-07
 IDIUse=1 WtCom= 1.00D+00 WtEn= 0.00D+00
 Coeff-Com:  0.436D+00 0.564D+00
 Coeff:      0.436D+00 0.564D+00
 Gap=     0.259 Goal=   None    Shift=    0.000
 Gap=     0.138 Goal=   None    Shift=    0.000
 RMSDP=1.46D-06 MaxDP=4.48D-05 DE=-3.38D-07 OVMax= 3.64D-04

 Cycle  12  Pass 1  IDiag  1:
 E= -504.825743102969     Delta-E=       -0.000000158569 Rises=F Damp=F
 DIIS: error= 1.09D-05 at cycle   3 NSaved=   3.
 NSaved= 3 IEnMin= 3 EnMin= -504.825743102969     IErMin= 3 ErrMin= 1.09D-05
 ErrMax= 1.09D-05 EMaxC= 1.00D-01 BMatC= 1.17D-07 BMatP= 5.28D-07
 IDIUse=1 WtCom= 1.00D+00 WtEn= 0.00D+00
 Coeff-Com: -0.417D-01 0.268D+00 0.773D+00
 Coeff:     -0.417D-01 0.268D+00 0.773D+00
 Gap=     0.259 Goal=   None    Shift=    0.000
 Gap=     0.138 Goal=   None    Shift=    0.000
 RMSDP=1.04D-06 MaxDP=4.82D-05 DE=-1.59D-07 OVMax= 3.01D-04

 Cycle  13  Pass 1  IDiag  1:
 E= -504.825743165129     Delta-E=       -0.000000062160 Rises=F Damp=F
 DIIS: error= 8.94D-06 at cycle   4 NSaved=   4.
 NSaved= 4 IEnMin= 4 EnMin= -504.825743165129     IErMin= 4 ErrMin= 8.94D-06
 ErrMax= 8.94D-06 EMaxC= 1.00D-01 BMatC= 2.80D-08 BMatP= 1.17D-07
 IDIUse=1 WtCom= 1.00D+00 WtEn= 0.00D+00
 Coeff-Com: -0.111D+00 0.397D-01 0.375D+00 0.696D+00
 Coeff:     -0.111D+00 0.397D-01 0.375D+00 0.696D+00
 Gap=     0.259 Goal=   None    Shift=    0.000
 Gap=     0.138 Goal=   None    Shift=    0.000
 RMSDP=6.50D-07 MaxDP=2.95D-05 DE=-6.22D-08 OVMax= 2.68D-04

 Cycle  14  Pass 1  IDiag  1:
 E= -504.825743185639     Delta-E=       -0.000000020509 Rises=F Damp=F
 DIIS: error= 3.78D-06 at cycle   5 NSaved=   5.
 NSaved= 5 IEnMin= 5 EnMin= -504.825743185639     IErMin= 5 ErrMin= 3.78D-06
 ErrMax= 3.78D-06 EMaxC= 1.00D-01 BMatC= 1.19D-08 BMatP= 2.80D-08
 IDIUse=1 WtCom= 1.00D+00 WtEn= 0.00D+00
 Coeff-Com: -0.358D-01-0.756D-01-0.147D+00 0.403D+00 0.855D+00
 Coeff:     -0.358D-01-0.756D-01-0.147D+00 0.403D+00 0.855D+00
 Gap=     0.259 Goal=   None    Shift=    0.000
 Gap=     0.138 Goal=   None    Shift=    0.000
 RMSDP=5.16D-07 MaxDP=2.56D-05 DE=-2.05D-08 OVMax= 1.80D-04

 Cycle  15  Pass 1  IDiag  1:
 E= -504.825743194042     Delta-E=       -0.000000008403 Rises=F Damp=F
 DIIS: error= 1.53D-06 at cycle   6 NSaved=   6.
 NSaved= 6 IEnMin= 6 EnMin= -504.825743194042     IErMin= 6 ErrMin= 1.53D-06
 ErrMax= 1.53D-06 EMaxC= 1.00D-01 BMatC= 1.89D-09 BMatP= 1.19D-08
 IDIUse=1 WtCom= 1.00D+00 WtEn= 0.00D+00
 Coeff-Com:  0.103D-01-0.514D-01-0.189D+00 0.572D-01 0.461D+00 0.712D+00
 Coeff:      0.103D-01-0.514D-01-0.189D+00 0.572D-01 0.461D+00 0.712D+00
 Gap=     0.259 Goal=   None    Shift=    0.000
 Gap=     0.138 Goal=   None    Shift=    0.000
 RMSDP=2.14D-07 MaxDP=1.04D-05 DE=-8.40D-09 OVMax= 8.58D-05

 Cycle  16  Pass 1  IDiag  1:
 E= -504.825743195283     Delta-E=       -0.000000001241 Rises=F Damp=F
 DIIS: error= 2.36D-07 at cycle   7 NSaved=   7.
 NSaved= 7 IEnMin= 7 EnMin= -504.825743195283     IErMin= 7 ErrMin= 2.36D-07
 ErrMax= 2.36D-07 EMaxC= 1.00D-01 BMatC= 8.44D-11 BMatP= 1.89D-09
 IDIUse=1 WtCom= 1.00D+00 WtEn= 0.00D+00
 Coeff-Com:  0.470D-02-0.140D-01-0.587D-01 0.716D-02 0.106D+00 0.247D+00
 Coeff-Com:  0.708D+00
 Coeff:      0.470D-02-0.140D-01-0.587D-01 0.716D-02 0.106D+00 0.247D+00
 Coeff:      0.708D+00
 Gap=     0.259 Goal=   None    Shift=    0.000
 Gap=     0.138 Goal=   None    Shift=    0.000
 RMSDP=2.85D-08 MaxDP=1.10D-06 DE=-1.24D-09 OVMax= 9.99D-06

 Cycle  17  Pass 1  IDiag  1:
 E= -504.825743195312     Delta-E=       -0.000000000030 Rises=F Damp=F
 DIIS: error= 2.20D-07 at cycle   8 NSaved=   8.
 NSaved= 8 IEnMin= 8 EnMin= -504.825743195312     IErMin= 8 ErrMin= 2.20D-07
 ErrMax= 2.20D-07 EMaxC= 1.00D-01 BMatC= 3.20D-11 BMatP= 8.44D-11
 IDIUse=1 WtCom= 1.00D+00 WtEn= 0.00D+00
 Coeff-Com:  0.834D-03 0.256D-02 0.323D-02-0.655D-02-0.362D-01 0.151D-02
 Coeff-Com:  0.389D+00 0.645D+00
 Coeff:      0.834D-03 0.256D-02 0.323D-02-0.655D-02-0.362D-01 0.151D-02
 Coeff:      0.389D+00 0.645D+00
 Gap=     0.259 Goal=   None    Shift=    0.000
 Gap=     0.138 Goal=   None    Shift=    0.000
 RMSDP=1.34D-08 MaxDP=4.70D-07 DE=-2.96D-11 OVMax= 3.72D-06

 Cycle  18  Pass 1  IDiag  1:
 E= -504.825743195326     Delta-E=       -0.000000000014 Rises=F Damp=F
 DIIS: error= 1.47D-07 at cycle   9 NSaved=   9.
 NSaved= 9 IEnMin= 9 EnMin= -504.825743195326     IErMin= 9 ErrMin= 1.47D-07
 ErrMax= 1.47D-07 EMaxC= 1.00D-01 BMatC= 1.05D-11 BMatP= 3.20D-11
 IDIUse=1 WtCom= 1.00D+00 WtEn= 0.00D+00
 Coeff-Com: -0.622D-03 0.495D-02 0.157D-01-0.422D-02-0.483D-01-0.574D-01
 Coeff-Com:  0.804D-01 0.432D+00 0.577D+00
 Coeff:     -0.622D-03 0.495D-02 0.157D-01-0.422D-02-0.483D-01-0.574D-01
 Coeff:      0.804D-01 0.432D+00 0.577D+00
 Gap=     0.259 Goal=   None    Shift=    0.000
 Gap=     0.138 Goal=   None    Shift=    0.000
 RMSDP=5.87D-09 MaxDP=2.36D-07 DE=-1.41D-11 OVMax= 1.58D-06

 SCF Done:  E(UB3LYP) =  -504.825743195     A.U. after   18 cycles
             Convg  =    0.5873D-08             -V/T =  2.0042
 <Sx>= 0.0000 <Sy>= 0.0000 <Sz>= 0.5000 <S**2>= 0.7566 S= 0.5033
 <L.S>= 0.000000000000E+00
 KE= 5.026907181233D+02 PE=-2.468832820356D+03 EE= 8.148457978018D+02
 Annihilation of the first spin contaminant:
 S**2 before annihilation     0.7566,   after     0.7500
 Leave Link  502 at Mon Feb 17 01:43:38 2014, MaxMem= 4026531840 cpu:     836.7
 (Enter /usr/caen/gaussian-09revc/g09/l801.exe)
 Range of M.O.s used for correlation:     1   312
 NBasis=   312 NAE=    45 NBE=    44 NFC=     0 NFV=     0
 NROrb=    312 NOA=    45 NOB=    44 NVA=   267 NVB=   268
 Leave Link  801 at Mon Feb 17 01:43:38 2014, MaxMem= 4026531840 cpu:       0.3
 (Enter /usr/caen/gaussian-09revc/g09/l1101.exe)
 Using compressed storage, NAtomX=    30.
 Will process  31 centers per pass.
 Leave Link 1101 at Mon Feb 17 01:43:40 2014, MaxMem= 4026531840 cpu:       5.5
 (Enter /usr/caen/gaussian-09revc/g09/l1102.exe)
 Symmetrizing basis deriv contribution to polar:
 IMax=3 JMax=2 DiffMx= 0.00D+00
 Leave Link 1102 at Mon Feb 17 01:43:40 2014, MaxMem= 4026531840 cpu:       1.3
 (Enter /usr/caen/gaussian-09revc/g09/l1110.exe)
 Forming Gx(P) for the SCF density, NAtomX=    30.
 Integral derivatives from FoFDir/FoFCou, PRISM(SPDF).
 Do as many integral derivatives as possible in FoFDir.
 G2DrvN: MDV=    4026531496.
 G2DrvN: will do    31 centers at a time, making    1 passes doing MaxLOS=2.
 Calling FoFCou, ICntrl=  3107 FMM=F I1Cent=   0 AccDes= 0.00D+00.
 FoFCou: FMM=F IPFlag=           0 FMFlag=      100000 FMFlg1=           0
         NFxFlg=           0 DoJE=F BraDBF=F KetDBF=F FulRan=T
         Omega=  0.000000  0.000000  1.000000  0.000000  0.000000 ICntrl=    3107 IOpCl=  1
         NMat0=    1 NMatS0=    1 NMatT0=    0 NMatD0=    1 NMtDS0=    0 NMtDT0=    0
         I1Cent=           0 NGrid=           0.
 Symmetry not used in FoFCou.
 FoFDir/FoFCou used for L=0 through L=2.
 End of G2Drv Frequency-dependent properties file   721 does not exist.
 End of G2Drv Frequency-dependent properties file   722 does not exist.
 Leave Link 1110 at Mon Feb 17 01:45:55 2014, MaxMem= 4026531840 cpu:    1077.9
 (Enter /usr/caen/gaussian-09revc/g09/l1002.exe)
 Minotr:  UHF open shell wavefunction.
          IDoAtm=111111111111111111111111111111
          Direct CPHF calculation.
          Differentiating once with respect to nuclear coordinates.
          Requested convergence is 1.0D-06 RMS, and 1.0D-05 maximum.
          Secondary convergence is 1.0D-12 RMS, and 1.0D-12 maximum.
          NewPWx=T KeepS1=F KeepF1=F KeepIn=T MapXYZ=F SortEE=F KeepMc=T.
          MDV=    4026531536 using IRadAn=       2.
 Generate precomputed XC quadrature information.
          Keep R1 and R2 ints in memory in canonical form, NReq=2738891885.
 Symmetry not used in FoFDir.
 MinBra= 0 MaxBra= 2 Meth= 1.
 IRaf=       0 NMat=   1 IRICut=       1 DoRegI=T DoRafI=F ISym2E= 0 JSym2E=0.
          Solving linear equations simultaneously, MaxMat=       0.
          There are    93 degrees of freedom in the 1st order CPHF.  IDoFFX=5.
     87 vectors produced by pass  0 Test12= 2.56D-10 1.08D-07 XBig12= 2.93D-01 2.35D-01.
 AX will form    87 AO Fock derivatives at one time.
     87 vectors produced by pass  1 Test12= 2.56D-10 1.08D-07 XBig12= 3.07D-02 3.41D-02.
     87 vectors produced by pass  2 Test12= 2.56D-10 1.08D-07 XBig12= 3.72D-04 3.76D-03.
     87 vectors produced by pass  3 Test12= 2.56D-10 1.08D-07 XBig12= 2.96D-06 2.42D-04.
     60 vectors produced by pass  4 Test12= 2.56D-10 1.08D-07 XBig12= 1.42D-08 1.31D-05.
     12 vectors produced by pass  5 Test12= 2.56D-10 1.08D-07 XBig12= 9.46D-11 8.83D-07.
 Inverted reduced A of dimension   420 with in-core refinement.
 End of Minotr Frequency-dependent properties file   721 does not exist.
 End of Minotr Frequency-dependent properties file   722 does not exist.
 Leave Link 1002 at Mon Feb 17 01:49:25 2014, MaxMem= 4026531840 cpu:    1670.3
 (Enter /usr/caen/gaussian-09revc/g09/l601.exe)
 Copying SCF densities to generalized density rwf, IOpCl= 1 IROHF=0.

 **********************************************************************

            Population analysis using the SCF density.

 **********************************************************************

 Orbital symmetries:
 Alpha Orbitals:
       Occupied  (A) (A) (A) (A) (A) (A) (A) (A) (A) (A) (A) (A)
                 (A) (A) (A) (A) (A) (A) (A) (A) (A) (A) (A) (A)
                 (A) (A) (A) (A) (A) (A) (A) (A) (A) (A) (A) (A)
                 (A) (A) (A) (A) (A) (A) (A) (A) (A)
       Virtual   (A) (A) (A) (A) (A) (A) (A) (A) (A) (A) (A) (A)
                 (A) (A) (A) (A) (A) (A) (A) (A) (A) (A) (A) (A)
                 (A) (A) (A) (A) (A) (A) (A) (A) (A) (A) (A) (A)
                 (A) (A) (A) (A) (A) (A) (A) (A) (A) (A) (A) (A)
                 (A) (A) (A) (A) (A) (A) (A) (A) (A) (A) (A) (A)
                 (A) (A) (A) (A) (A) (A) (A) (A) (A) (A) (A) (A)
                 (A) (A) (A) (A) (A) (A) (A) (A) (A) (A) (A) (A)
                 (A) (A) (A) (A) (A) (A) (A) (A) (A) (A) (A) (A)
                 (A) (A) (A) (A) (A) (A) (A) (A) (A) (A) (A) (A)
                 (A) (A) (A) (A) (A) (A) (A) (A) (A) (A) (A) (A)
                 (A) (A) (A) (A) (A) (A) (A) (A) (A) (A) (A) (A)
                 (A) (A) (A) (A) (A) (A) (A) (A) (A) (A) (A) (A)
                 (A) (A) (A) (A) (A) (A) (A) (A) (A) (A) (A) (A)
                 (A) (A) (A) (A) (A) (A) (A) (A) (A) (A) (A) (A)
                 (A) (A) (A) (A) (A) (A) (A) (A) (A) (A) (A) (A)
                 (A) (A) (A) (A) (A) (A) (A) (A) (A) (A) (A) (A)
                 (A) (A) (A) (A) (A) (A) (A) (A) (A) (A) (A) (A)
                 (A) (A) (A) (A) (A) (A) (A) (A) (A) (A) (A) (A)
                 (A) (A) (A) (A) (A) (A) (A) (A) (A) (A) (A) (A)
                 (A) (A) (A) (A) (A) (A) (A) (A) (A) (A) (A) (A)
                 (A) (A) (A) (A) (A) (A) (A) (A) (A) (A) (A) (A)
                 (A) (A) (A) (A) (A) (A) (A) (A) (A) (A) (A) (A)
                 (A) (A) (A)
 Beta  Orbitals:
       Occupied  (A) (A) (A) (A) (A) (A) (A) (A) (A) (A) (A) (A)
                 (A) (A) (A) (A) (A) (A) (A) (A) (A) (A) (A) (A)
                 (A) (A) (A) (A) (A) (A) (A) (A) (A) (A) (A) (A)
                 (A) (A) (A) (A) (A) (A) (A) (A)
       Virtual   (A) (A) (A) (A) (A) (A) (A) (A) (A) (A) (A) (A)
                 (A) (A) (A) (A) (A) (A) (A) (A) (A) (A) (A) (A)
                 (A) (A) (A) (A) (A) (A) (A) (A) (A) (A) (A) (A)
                 (A) (A) (A) (A) (A) (A) (A) (A) (A) (A) (A) (A)
                 (A) (A) (A) (A) (A) (A) (A) (A) (A) (A) (A) (A)
                 (A) (A) (A) (A) (A) (A) (A) (A) (A) (A) (A) (A)
                 (A) (A) (A) (A) (A) (A) (A) (A) (A) (A) (A) (A)
                 (A) (A) (A) (A) (A) (A) (A) (A) (A) (A) (A) (A)
                 (A) (A) (A) (A) (A) (A) (A) (A) (A) (A) (A) (A)
                 (A) (A) (A) (A) (A) (A) (A) (A) (A) (A) (A) (A)
                 (A) (A) (A) (A) (A) (A) (A) (A) (A) (A) (A) (A)
                 (A) (A) (A) (A) (A) (A) (A) (A) (A) (A) (A) (A)
                 (A) (A) (A) (A) (A) (A) (A) (A) (A) (A) (A) (A)
                 (A) (A) (A) (A) (A) (A) (A) (A) (A) (A) (A) (A)
                 (A) (A) (A) (A) (A) (A) (A) (A) (A) (A) (A) (A)
                 (A) (A) (A) (A) (A) (A) (A) (A) (A) (A) (A) (A)
                 (A) (A) (A) (A) (A) (A) (A) (A) (A) (A) (A) (A)
                 (A) (A) (A) (A) (A) (A) (A) (A) (A) (A) (A) (A)
                 (A) (A) (A) (A) (A) (A) (A) (A) (A) (A) (A) (A)
                 (A) (A) (A) (A) (A) (A) (A) (A) (A) (A) (A) (A)
                 (A) (A) (A) (A) (A) (A) (A) (A) (A) (A) (A) (A)
                 (A) (A) (A) (A) (A) (A) (A) (A) (A) (A) (A) (A)
                 (A) (A) (A) (A)
 The electronic state is 2-A.
 Alpha  occ. eigenvalues --  -19.18588 -19.16936 -10.23110 -10.19707 -10.18988
 Alpha  occ. eigenvalues --  -10.17650 -10.17354 -10.17159 -10.16710 -10.15884
 Alpha  occ. eigenvalues --  -10.15850  -1.13218  -0.89395  -0.83106  -0.81111
 Alpha  occ. eigenvalues --   -0.75941  -0.68690  -0.68460  -0.67596  -0.61625
 Alpha  occ. eigenvalues --   -0.58549  -0.56294  -0.52984  -0.49865  -0.48691
 Alpha  occ. eigenvalues --   -0.46556  -0.45977  -0.44672  -0.43696  -0.42674
 Alpha  occ. eigenvalues --   -0.41558  -0.40490  -0.38830  -0.38169  -0.37639
 Alpha  occ. eigenvalues --   -0.37164  -0.36236  -0.35729  -0.33772  -0.33443
 Alpha  occ. eigenvalues --   -0.32606  -0.32424  -0.31568  -0.26633  -0.22696
 Alpha virt. eigenvalues --    0.03236   0.04016   0.04199   0.05420   0.05863
 Alpha virt. eigenvalues --    0.06514   0.07862   0.09014   0.09910   0.10001
 Alpha virt. eigenvalues --    0.10295   0.11030   0.12763   0.13294   0.13974
 Alpha virt. eigenvalues --    0.14738   0.14914   0.15129   0.16325   0.17415
 Alpha virt. eigenvalues --    0.18683   0.19314   0.20353   0.21382   0.22290
 Alpha virt. eigenvalues --    0.22873   0.23697   0.24039   0.25644   0.28344
 Alpha virt. eigenvalues --    0.29151   0.30558   0.31632   0.33057   0.34053
 Alpha virt. eigenvalues --    0.35273   0.37222   0.39095   0.40771   0.42457
 Alpha virt. eigenvalues --    0.43909   0.44392   0.45276   0.46001   0.47348
 Alpha virt. eigenvalues --    0.47808   0.49373   0.50832   0.52118   0.54335
 Alpha virt. eigenvalues --    0.55535   0.56543   0.56759   0.57373   0.57605
 Alpha virt. eigenvalues --    0.57725   0.58371   0.58611   0.58982   0.59288
 Alpha virt. eigenvalues --    0.59572   0.60143   0.60750   0.61354   0.62362
 Alpha virt. eigenvalues --    0.62563   0.63547   0.63893   0.65153   0.65639
 Alpha virt. eigenvalues --    0.66937   0.67746   0.69278   0.71063   0.74584
 Alpha virt. eigenvalues --    0.77034   0.78428   0.80809   0.84500   0.88641
 Alpha virt. eigenvalues --    0.91406   0.91975   0.94108   0.95751   0.98128
 Alpha virt. eigenvalues --    0.99170   1.00816   1.01625   1.03462   1.05642
 Alpha virt. eigenvalues --    1.06914   1.12002   1.12625   1.14351   1.16759
 Alpha virt. eigenvalues --    1.19309   1.20929   1.22537   1.23919   1.26699
 Alpha virt. eigenvalues --    1.30656   1.32894   1.36105   1.37405   1.37968
 Alpha virt. eigenvalues --    1.40097   1.41033   1.41590   1.42311   1.45354
 Alpha virt. eigenvalues --    1.45408   1.46718   1.47297   1.48663   1.49211
 Alpha virt. eigenvalues --    1.50533   1.51278   1.52675   1.53309   1.54211
 Alpha virt. eigenvalues --    1.55798   1.56573   1.57428   1.58431   1.59874
 Alpha virt. eigenvalues --    1.60254   1.61283   1.62111   1.63487   1.64952
 Alpha virt. eigenvalues --    1.66042   1.67042   1.68577   1.68974   1.70185
 Alpha virt. eigenvalues --    1.71050   1.72004   1.73049   1.74409   1.75288
 Alpha virt. eigenvalues --    1.76650   1.78015   1.78926   1.80122   1.80904
 Alpha virt. eigenvalues --    1.83132   1.87500   1.89424   1.92258   1.93752
 Alpha virt. eigenvalues --    1.94039   1.96678   1.99580   2.00039   2.01175
 Alpha virt. eigenvalues --    2.02296   2.06474   2.07031   2.08164   2.09614
 Alpha virt. eigenvalues --    2.11383   2.13175   2.14949   2.17883   2.18104
 Alpha virt. eigenvalues --    2.19608   2.22872   2.25066   2.26768   2.28690
 Alpha virt. eigenvalues --    2.30969   2.31397   2.32515   2.35340   2.37157
 Alpha virt. eigenvalues --    2.39622   2.41134   2.43366   2.43878   2.45357
 Alpha virt. eigenvalues --    2.46168   2.46961   2.47399   2.48538   2.50497
 Alpha virt. eigenvalues --    2.51463   2.51940   2.52555   2.54028   2.55291
 Alpha virt. eigenvalues --    2.55855   2.56671   2.58149   2.58719   2.59699
 Alpha virt. eigenvalues --    2.61220   2.62651   2.62944   2.65204   2.66407
 Alpha virt. eigenvalues --    2.67588   2.69026   2.71746   2.73674   2.75694
 Alpha virt. eigenvalues --    2.76666   2.77947   2.78867   2.80721   2.82044
 Alpha virt. eigenvalues --    2.84395   2.85933   2.87652   2.89128   2.90088
 Alpha virt. eigenvalues --    2.92840   2.95878   2.99162   3.00938   3.04509
 Alpha virt. eigenvalues --    3.06682   3.11096   3.15035   3.18738   3.22008
 Alpha virt. eigenvalues --    3.30483   3.31788   3.39670   3.43577   3.47457
 Alpha virt. eigenvalues --    3.63101   3.72997   3.76984   3.77510   3.78452
 Alpha virt. eigenvalues --    3.79901   3.80563   3.81811   3.82824   3.84448
 Alpha virt. eigenvalues --    3.84964   3.92312   3.96523   3.97312   4.09852
 Alpha virt. eigenvalues --    4.19784   4.20177   4.29218   4.32585   4.40623
 Alpha virt. eigenvalues --    4.71178   4.81082   4.90703   5.17202   5.28954
 Alpha virt. eigenvalues --    5.75518  23.75798  23.81365  23.82915  23.83929
 Alpha virt. eigenvalues --   23.86981  23.88359  23.90116  23.93246  23.94192
 Alpha virt. eigenvalues --   49.77199  49.83192
  Beta  occ. eigenvalues --  -19.18340 -19.15801 -10.23051 -10.19715 -10.18081
  Beta  occ. eigenvalues --  -10.17650 -10.17351 -10.17159 -10.16709 -10.15884
  Beta  occ. eigenvalues --  -10.15850  -1.12008  -0.87677  -0.82759  -0.80765
  Beta  occ. eigenvalues --   -0.75575  -0.68683  -0.68094  -0.66441  -0.61154
  Beta  occ. eigenvalues --   -0.57990  -0.56250  -0.51770  -0.49433  -0.48404
  Beta  occ. eigenvalues --   -0.46343  -0.45567  -0.44128  -0.43525  -0.42291
  Beta  occ. eigenvalues --   -0.40615  -0.39575  -0.38771  -0.37730  -0.37110
  Beta  occ. eigenvalues --   -0.36590  -0.35940  -0.35198  -0.33616  -0.32594
  Beta  occ. eigenvalues --   -0.32513  -0.31668  -0.31494  -0.25160
  Beta virt. eigenvalues --   -0.11356   0.03333   0.04287   0.04744   0.05521
  Beta virt. eigenvalues --    0.05983   0.06614   0.08068   0.09042   0.10031
  Beta virt. eigenvalues --    0.10099   0.10339   0.11084   0.12877   0.13358
  Beta virt. eigenvalues --    0.14174   0.14817   0.14968   0.15226   0.16462
  Beta virt. eigenvalues --    0.17491   0.18862   0.19770   0.20570   0.21503
  Beta virt. eigenvalues --    0.22617   0.23094   0.23880   0.24181   0.25929
  Beta virt. eigenvalues --    0.28650   0.29252   0.30774   0.31749   0.33110
  Beta virt. eigenvalues --    0.34191   0.35502   0.37313   0.39151   0.41006
  Beta virt. eigenvalues --    0.42608   0.44115   0.44671   0.45482   0.46109
  Beta virt. eigenvalues --    0.47907   0.48417   0.50408   0.51335   0.52561
  Beta virt. eigenvalues --    0.54590   0.55945   0.56685   0.56811   0.57465
  Beta virt. eigenvalues --    0.57710   0.57831   0.58590   0.58743   0.59182
  Beta virt. eigenvalues --    0.59394   0.59788   0.60233   0.60818   0.61457
  Beta virt. eigenvalues --    0.62438   0.62701   0.63650   0.64091   0.65187
  Beta virt. eigenvalues --    0.65727   0.67046   0.67929   0.69447   0.71205
  Beta virt. eigenvalues --    0.75298   0.77980   0.78631   0.81367   0.84720
  Beta virt. eigenvalues --    0.88889   0.91547   0.92226   0.94425   0.95978
  Beta virt. eigenvalues --    0.98208   0.99888   1.01212   1.01750   1.04018
  Beta virt. eigenvalues --    1.05974   1.07072   1.12243   1.12708   1.14527
  Beta virt. eigenvalues --    1.16907   1.19361   1.21044   1.22704   1.24238
  Beta virt. eigenvalues --    1.26859   1.30862   1.33511   1.36353   1.37527
  Beta virt. eigenvalues --    1.38091   1.40210   1.41243   1.42170   1.42555
  Beta virt. eigenvalues --    1.45372   1.45985   1.46809   1.47406   1.48751
  Beta virt. eigenvalues --    1.49575   1.50552   1.51294   1.52869   1.53791
  Beta virt. eigenvalues --    1.54357   1.56310   1.56688   1.57643   1.58744
  Beta virt. eigenvalues --    1.60099   1.60383   1.61374   1.62235   1.63670
  Beta virt. eigenvalues --    1.65020   1.66086   1.67116   1.68778   1.69236
  Beta virt. eigenvalues --    1.70228   1.71219   1.72035   1.73155   1.74552
  Beta virt. eigenvalues --    1.75418   1.76940   1.78076   1.78977   1.80396
  Beta virt. eigenvalues --    1.81044   1.83308   1.87638   1.89790   1.92290
  Beta virt. eigenvalues --    1.93865   1.94416   1.97089   1.99625   2.00498
  Beta virt. eigenvalues --    2.01401   2.02374   2.06829   2.08008   2.08901
  Beta virt. eigenvalues --    2.09701   2.11528   2.13417   2.15056   2.17992
  Beta virt. eigenvalues --    2.18591   2.19900   2.23115   2.25509   2.26898
  Beta virt. eigenvalues --    2.28751   2.31172   2.31740   2.32580   2.35367
  Beta virt. eigenvalues --    2.37183   2.40068   2.41303   2.43431   2.43955
  Beta virt. eigenvalues --    2.45721   2.46421   2.47251   2.47500   2.48682
  Beta virt. eigenvalues --    2.50524   2.51502   2.52185   2.52659   2.54275
  Beta virt. eigenvalues --    2.55389   2.56119   2.56898   2.58284   2.58843
  Beta virt. eigenvalues --    2.59775   2.61272   2.62741   2.63115   2.65270
  Beta virt. eigenvalues --    2.66476   2.67816   2.69512   2.71772   2.73711
  Beta virt. eigenvalues --    2.75764   2.76955   2.78407   2.78931   2.80950
  Beta virt. eigenvalues --    2.82212   2.84695   2.86048   2.87749   2.89179
  Beta virt. eigenvalues --    2.90385   2.92891   2.96379   2.99525   3.02755
  Beta virt. eigenvalues --    3.04842   3.06861   3.11154   3.15479   3.19198
  Beta virt. eigenvalues --    3.23495   3.31077   3.31938   3.41896   3.43905
  Beta virt. eigenvalues --    3.47563   3.63931   3.74002   3.77022   3.77522
  Beta virt. eigenvalues --    3.78675   3.80068   3.81337   3.81838   3.82968
  Beta virt. eigenvalues --    3.84934   3.86161   3.92657   3.96695   3.97564
  Beta virt. eigenvalues --    4.09938   4.20195   4.20484   4.29218   4.32681
  Beta virt. eigenvalues --    4.40697   4.71752   4.81909   4.91753   5.20825
  Beta virt. eigenvalues --    5.29369   5.76282  23.75968  23.81385  23.82973
  Beta virt. eigenvalues --   23.84657  23.87025  23.88409  23.90133  23.93246
  Beta virt. eigenvalues --   23.94192  49.78090  49.83674
          Condensed to atoms (all electrons):
              1          2          3          4          5          6
     1  C    5.208476   0.400870   0.206596   0.389805   0.320229  -0.035735
     2  H    0.400870   0.534442  -0.008445  -0.027271  -0.039618   0.001873
     3  H    0.206596  -0.008445   0.459505  -0.009807   0.002888   0.003230
     4  H    0.389805  -0.027271  -0.009807   0.543094  -0.031939  -0.008465
     5  C    0.320229  -0.039618   0.002888  -0.031939   5.262889   0.392899
     6  H   -0.035735   0.001873   0.003230  -0.008465   0.392899   0.588955
     7  C   -0.070882  -0.006969   0.000741   0.006376   0.327185  -0.036169
     8  H   -0.007837   0.004155  -0.000430   0.000469  -0.039491  -0.005804
     9  H   -0.001034   0.000161   0.001353  -0.000159  -0.042455   0.009075
    10  C    0.007183   0.000328  -0.000170  -0.000363  -0.049009  -0.006355
    11  H    0.000068   0.000038  -0.000003  -0.000023  -0.003185   0.005920
    12  H   -0.000153   0.000005  -0.000003   0.000019  -0.007567  -0.000240
    13  C   -0.000229  -0.000055   0.000005   0.000011   0.006048   0.000083
    14  H    0.000008   0.000010  -0.000007   0.000000   0.000266  -0.000011
    15  H   -0.000043  -0.000017   0.000004   0.000001  -0.000017   0.000058
    16  C    0.000003   0.000001   0.000000   0.000000  -0.000237  -0.000008
    17  H    0.000000   0.000000   0.000000   0.000000   0.000004  -0.000026
    18  C    0.000000   0.000000   0.000000   0.000000   0.000004   0.000000
    19  H    0.000000   0.000000   0.000000   0.000000   0.000000   0.000000
    20  H    0.000000   0.000000   0.000000   0.000000   0.000000   0.000000
    21  H    0.000000   0.000000   0.000000   0.000000   0.000000   0.000000
    22  C   -0.060758   0.006319  -0.014783   0.002303   0.316515  -0.042375
    23  H   -0.005358  -0.000239  -0.000444   0.002389  -0.062802  -0.002385
    24  H    0.009608  -0.000214  -0.001639  -0.000320  -0.039961  -0.000440
    25  C    0.000000   0.000000   0.000000   0.000000   0.000010   0.000002
    26  H    0.000000   0.000000   0.000000   0.000000  -0.000001   0.000000
    27  H    0.000000   0.000000   0.000000   0.000000   0.000000  -0.000001
    28  H    0.000000   0.000000   0.000000   0.000000   0.000040   0.000009
    29  O    0.001600   0.000409  -0.039307   0.000628  -0.057205   0.004719
    30  O   -0.064194   0.001588   0.159430   0.002092  -0.025499  -0.000661
              7          8          9         10         11         12
     1  C   -0.070882  -0.007837  -0.001034   0.007183   0.000068  -0.000153
     2  H   -0.006969   0.004155   0.000161   0.000328   0.000038   0.000005
     3  H    0.000741  -0.000430   0.001353  -0.000170  -0.000003  -0.000003
     4  H    0.006376   0.000469  -0.000159  -0.000363  -0.000023   0.000019
     5  C    0.327185  -0.039491  -0.042455  -0.049009  -0.003185  -0.007567
     6  H   -0.036169  -0.005804   0.009075  -0.006355   0.005920  -0.000240
     7  C    5.001662   0.408419   0.408333   0.356863  -0.043102  -0.036377
     8  H    0.408419   0.591547  -0.034210  -0.037091  -0.006982   0.008555
     9  H    0.408333  -0.034210   0.564839  -0.038321   0.008356  -0.007013
    10  C    0.356863  -0.037091  -0.038321   4.934838   0.404262   0.403038
    11  H   -0.043102  -0.006982   0.008356   0.404262   0.612251  -0.038719
    12  H   -0.036377   0.008555  -0.007013   0.403038  -0.038719   0.597868
    13  C   -0.049860  -0.005674  -0.003051   0.364275  -0.041059  -0.033439
    14  H   -0.003752  -0.000537   0.003536  -0.040366   0.009535  -0.008618
    15  H   -0.006214   0.005509  -0.000586  -0.042308  -0.006985   0.009001
    16  C    0.006111  -0.000028   0.000074  -0.051404  -0.003833  -0.005534
    17  H   -0.000145   0.000055  -0.000001  -0.007071   0.005883  -0.000576
    18  C   -0.000241  -0.000032   0.000001   0.007644   0.000035  -0.000062
    19  H   -0.000012   0.000009  -0.000010  -0.000038   0.000020   0.000011
    20  H    0.000013   0.000001   0.000000  -0.000416  -0.000009   0.000020
    21  H   -0.000030  -0.000013   0.000004   0.000061   0.000014  -0.000004
    22  C   -0.070974   0.008566  -0.013567  -0.003489  -0.000921   0.001834
    23  H    0.008688  -0.000302   0.001076  -0.000457  -0.000185   0.000308
    24  H   -0.010411   0.000186  -0.000243   0.002094   0.000373   0.004087
    25  C    0.000009  -0.000010  -0.000018  -0.006666  -0.001064   0.002528
    26  H    0.000012   0.000002  -0.000003   0.000042  -0.000109  -0.000108
    27  H   -0.000082   0.000005  -0.000008  -0.000742   0.000090   0.000505
    28  H   -0.000031  -0.000016   0.000033   0.001529   0.000604   0.000554
    29  O   -0.000888  -0.000192   0.014893  -0.000563   0.000001   0.000523
    30  O    0.000014   0.000021  -0.000153  -0.000030   0.000000  -0.000024
             13         14         15         16         17         18
     1  C   -0.000229   0.000008  -0.000043   0.000003   0.000000   0.000000
     2  H   -0.000055   0.000010  -0.000017   0.000001   0.000000   0.000000
     3  H    0.000005  -0.000007   0.000004   0.000000   0.000000   0.000000
     4  H    0.000011   0.000000   0.000001   0.000000   0.000000   0.000000
     5  C    0.006048   0.000266  -0.000017  -0.000237   0.000004   0.000004
     6  H    0.000083  -0.000011   0.000058  -0.000008  -0.000026   0.000000
     7  C   -0.049860  -0.003752  -0.006214   0.006111  -0.000145  -0.000241
     8  H   -0.005674  -0.000537   0.005509  -0.000028   0.000055  -0.000032
     9  H   -0.003051   0.003536  -0.000586   0.000074  -0.000001   0.000001
    10  C    0.364275  -0.040366  -0.042308  -0.051404  -0.007071   0.007644
    11  H   -0.041059   0.009535  -0.006985  -0.003833   0.005883   0.000035
    12  H   -0.033439  -0.008618   0.009001  -0.005534  -0.000576  -0.000062
    13  C    4.960928   0.401127   0.410296   0.368152  -0.048019  -0.066504
    14  H    0.401127   0.603273  -0.036143  -0.038558   0.009927  -0.004707
    15  H    0.410296  -0.036143   0.605150  -0.040043  -0.006073  -0.006479
    16  C    0.368152  -0.038558  -0.040043   5.031428   0.409519   0.377512
    17  H   -0.048019   0.009927  -0.006073   0.409519   0.623869  -0.041599
    18  C   -0.066504  -0.004707  -0.006479   0.377512  -0.041599   4.863859
    19  H   -0.006903   0.004840  -0.000673  -0.038397   0.009613   0.402542
    20  H    0.008569  -0.000290   0.000161  -0.032241  -0.006841   0.401960
    21  H   -0.006035  -0.000543   0.004789  -0.032896  -0.006303   0.402112
    22  C   -0.000198   0.000000  -0.000024   0.000014   0.000001   0.000000
    23  H    0.000006  -0.000011   0.000002  -0.000001   0.000000   0.000000
    24  H   -0.000232   0.000066  -0.000005   0.000027   0.000009   0.000000
    25  C   -0.066615  -0.009038   0.008819   0.360569  -0.047185  -0.065816
    26  H    0.008205  -0.000176  -0.000440  -0.032125  -0.006178  -0.006406
    27  H   -0.006541   0.005415  -0.000072  -0.039723   0.009610  -0.004890
    28  H   -0.005579  -0.000142  -0.000177  -0.031982  -0.005973   0.007949
    29  O   -0.000007  -0.000055   0.000000   0.000000   0.000000   0.000000
[...]
 616,-0.00018158,-0.00009283,-0.00079616,0.00014738,0.00001270,0.000067
 81,-0.00003567,0.00094600,0.00096722,-0.00018298,0.00030290,0.00056478
 ,-0.00010384,-0.00002989,-0.00003487,0.00005716,-0.00025307,0.00008687
 ,0.00013649,0.00010465,0.00003160,0.00005892,0.00000418,-0.00001010,-0
 .00000436,-0.00002673,-0.00003074,-0.00003178,0.00000412,-0.00000060,0
 .00001066,-0.00003886,-0.00000538,0.00000093,0.00000998,0.00000315,0.0
 0000079,-0.12999906,-0.15198109,-0.02975436,0.00433325,0.00410275,0.00
 138910,0.13604744,0.16115577,-0.00150259,0.00098461,-0.00004317,0.0003
 1389,0.00013879,0.00043609,0.00031108,0.00001137,-0.00001810,-0.000061
 37,-0.00035614,-0.00004730,0.00215674,-0.00050432,0.00170696,0.0002773
 8,-0.00032068,0.00004159,-0.00048445,-0.00039482,0.00006599,0.00001426
 ,0.00013419,-0.00001880,-0.00009026,0.00000453,-0.00005545,0.00006187,
 -0.00044364,0.00012269,-0.00010426,0.00022599,-0.00009696,0.00033372,0
 .00006327,0.00034379,0.00000392,0.00011819,-0.00006378,0.00003130,-0.0
 0001830,-0.00003886,-0.00005467,0.00003155,0.00002365,0.00002732,0.000
 00515,0.00002828,-0.00001005,0.00001114,-0.00001254,-0.00001022,-0.000
 01005,-0.00001206,0.00000420,-0.00000054,-0.00000123,-0.00001501,-0.00
 000177,0.00000102,0.00000326,0.00000273,0.00000096,-0.02489462,-0.0229
 6693,-0.05853056,0.01413455,0.01284021,0.00627844,0.04338862,0.0304614
 2,0.06506751,0.00000388,0.00000695,0.00005826,0.00001860,0.00001701,-0
 .00000142,-0.00000111,0.00003257,-0.00001976,-0.00002641,-0.00000626,0
 .00000169,0.00001827,0.00012801,-0.00007908,-0.00002122,-0.00002091,0.
 00003389,-0.00000922,-0.00024263,0.00015555,-0.00001924,0.00027388,0.0
 0001848,0.00007722,0.00000960,0.00001297,0.00045140,-0.00079251,-0.000
 47436,-0.00005711,-0.00019136,0.00028279,-0.00084583,-0.00043785,-0.00
 014862,-0.00181466,-0.03178759,-0.00188474,0.00111438,0.00027844,0.000
 84733,-0.00534855,-0.00256939,-0.00211275,-0.07814220,-0.00454026,-0.0
 0050376,-0.00005961,0.00249601,0.00010320,-0.00053219,0.02838424,0.001
 82850,0.00083789,-0.00048630,-0.00066245,0.00058879,0.00097453,-0.0000
 2917,-0.00415856,0.00288286,0.00304366,-0.00011605,-0.00013169,0.00000
 378,-0.00003093,0.00004061,0.00000861,0.00001513,-0.00000407,-0.000030
 49,0.56845849,0.00003749,-0.00000451,-0.00005659,-0.00000166,-0.000004
 48,0.00000276,0.00000548,-0.00001783,0.00001008,0.00001799,0.00000882,
 0.00000571,0.00009234,0.00010503,0.00010452,0.00000299,0.00001110,-0.0
 0000856,0.00054813,-0.00045715,-0.00035600,-0.00016157,-0.00006181,-0.
 00005579,-0.00001453,0.00001446,-0.00001412,-0.00033025,0.00108326,0.0
 0028047,-0.00005028,-0.00003998,0.00008305,-0.00005584,-0.00062427,0.0
 0009887,-0.00696776,-0.01522159,-0.00281458,0.00141937,0.00116948,0.00
 082613,-0.00069635,0.00106139,0.00024841,-0.00232267,-0.17626565,-0.00
 190484,-0.00033369,-0.01600869,-0.00027493,0.00501712,-0.01977211,-0.0
 0428999,-0.00125721,0.00118082,0.00092303,-0.00132986,0.00087313,0.000
 69861,0.00080625,0.00045030,-0.00072506,0.00004443,0.00008235,0.000013
 21,-0.00000616,-0.00001625,-0.00000381,0.00001412,-0.00003017,-0.00000
 140,-0.00930480,0.45591091,0.00000897,-0.00000453,0.00002532,0.0000073
 5,-0.00000364,-0.00000135,0.00000356,0.00002335,0.00000699,-0.00001995
 ,-0.00000510,0.00000415,0.00002916,0.00006905,-0.00008450,0.00000094,0
 .00001599,-0.00000200,0.00030558,-0.00048855,0.00014466,-0.00014030,-0
 .00004344,-0.00011121,-0.00003244,0.00001152,-0.00005386,-0.00056233,0
 .00078297,-0.00011051,-0.00011145,-0.00006576,0.00012247,0.00041438,-0
 .00064056,0.00041984,-0.00185981,-0.01396699,-0.00129000,0.00013111,-0
 .00142938,0.00041201,-0.00241686,-0.00154445,-0.00061625,0.00070459,0.
 00076337,-0.07879627,0.00120140,0.03190349,0.00146525,0.00113483,-0.02
 093795,-0.00144420,-0.00032329,-0.00103109,0.00064481,-0.00093926,0.00
 064385,0.00041032,0.00274043,-0.00243897,-0.00177516,0.00009872,0.0000
 4953,0.00010818,-0.00002708,0.00000677,-0.00001605,0.00003320,-0.00004
 995,0.00000325,-0.00228635,0.00271389,0.56052563,-0.00001226,0.0000118
 8,0.00003444,0.00001110,0.00000158,-0.00000118,0.00001269,0.00001091,0
 .00000342,-0.00002684,-0.00001252,0.00000686,0.00002750,-0.00001385,-0
 .00009636,-0.00000155,0.00000716,0.00001191,0.00013183,-0.00018097,0.0
 0006126,-0.00011554,-0.00004472,-0.00003656,-0.00000558,0.00000935,-0.
 00000704,-0.00003758,0.00032628,-0.00024148,-0.00000416,-0.00008937,0.
 00006277,0.00032617,-0.00031919,-0.00003570,0.00100763,-0.00009686,0.0
 0086267,0.00007793,0.00016000,0.00006162,-0.00007709,-0.00011366,-0.00
 008742,-0.00156114,0.00023754,0.00005193,0.00010917,-0.00052597,0.0003
 7366,0.00069344,0.00094881,0.00035446,-0.00003886,-0.00003205,0.000019
 08,0.00060003,-0.00005275,-0.00016875,0.00026211,-0.00006322,0.0001387
 8,0.00006790,0.00001084,0.00003229,-0.00003837,0.00000473,-0.00000163,
 0.00002798,-0.00004678,-0.00002457,-0.24924638,-0.06592508,-0.08480064
 ,0.27050145,-0.00000568,0.00000471,0.00004175,0.00000804,0.00000463,-0
 .00000346,0.00000020,0.00002164,-0.00000875,-0.00001860,-0.00000750,0.
 00000027,-0.00002367,0.00001546,-0.00007059,-0.00000529,-0.00000358,0.
 00001011,-0.00018390,0.00013379,0.00013487,0.00007313,0.00011048,0.000
 02578,0.00001758,-0.00001315,-0.00000494,0.00070161,-0.00032868,-0.000
 30575,-0.00005389,0.00001866,0.00005550,-0.00017813,0.00033771,0.00007
 595,0.00177870,-0.00676427,0.00057534,0.00019745,0.00011275,-0.0001065
 4,-0.00189192,-0.00086289,-0.00077908,-0.02998412,-0.00977124,-0.01364
 277,0.00006712,0.00109960,0.00058413,-0.00157910,0.00150648,0.00004219
 ,0.00016627,-0.00004328,-0.00001852,0.00105414,-0.00007428,-0.00003676
 ,0.00008692,0.00034895,0.00041288,-0.00003149,-0.00006146,0.00001870,-
 0.00001112,0.00002119,0.00000128,0.00000382,-0.00000721,0.00000234,-0.
 06452169,-0.06690005,-0.02682014,0.07208734,0.07482874,-0.00000313,0.0
 0000458,0.00000315,0.00000145,-0.00000016,-0.00000048,0.00000368,-0.00
 000232,0.00000065,-0.00000211,-0.00000280,0.00000155,-0.00001292,-0.00
 001123,-0.00001002,-0.00000263,-0.00000159,0.00000337,-0.00011828,0.00
 015994,0.00001123,0.00007710,0.00002942,0.00003167,0.00002328,0.000007
 96,0.00001851,0.00028737,-0.00014740,0.00010699,-0.00004684,-0.0000221
 6,0.00000805,-0.00016285,0.00023104,-0.00010639,0.00033259,-0.00065775
 ,0.00041208,0.00034227,0.00017305,0.00045494,-0.00027934,-0.00024161,0
 .00032402,-0.00013147,0.00024379,-0.00144631,0.00045419,-0.00022597,0.
 00033289,-0.00061659,0.00002294,-0.00010394,-0.00012596,-0.00003867,-0
 .00007405,0.00038320,-0.00033112,0.00015343,0.00024819,0.00017140,-0.0
 0001077,-0.00001057,-0.00001102,-0.00001122,-0.00000211,0.00000234,0.0
 0000310,-0.00000421,0.00000267,-0.00000635,-0.08427979,-0.02730683,-0.
 08214291,0.09301021,0.03056103,0.08496761,0.00000535,-0.00000847,0.000
 00225,-0.00000333,0.00000124,-0.00000083,-0.00000858,0.00001181,-0.000
 00715,0.00000390,0.00000440,-0.00000311,-0.00000323,0.00001090,0.00001
 522,0.00000556,0.00000097,-0.00001038,0.00000569,0.00000775,-0.0000201
 0,0.00001300,-0.00000005,-0.00000115,-0.00003257,-0.00001914,-0.000030
 02,-0.00015007,-0.00001285,-0.00003482,0.00006860,0.00014882,-0.000093
 75,-0.00002040,0.00007306,0.00014661,0.00049418,-0.00039968,0.00131270
 ,0.00015384,0.00004183,-0.00021970,-0.00000951,0.00013040,-0.00009378,
 -0.00084839,-0.00109655,0.00179799,0.00065305,-0.00049929,0.00010584,0
 .00001711,0.00027935,-0.00090143,0.00018710,0.00016851,0.00022482,-0.0
 0000361,0.00004356,-0.00014690,-0.00007770,-0.00013304,0.00019053,-0.0
 0001579,-0.00001845,0.00000874,0.00001349,0.00000319,-0.00000165,-0.00
 000274,0.00000485,0.00002461,-0.04992497,0.01057253,-0.02339818,-0.002
 24080,0.01179377,-0.02686789,0.04878651,-0.00000366,0.00000078,0.00000
 735,0.00000015,-0.00000104,0.00000133,-0.00000257,0.00000382,-0.000000
 10,-0.00000064,-0.00000111,-0.00000169,-0.00001308,-0.00000889,-0.0000
 1218,0.00000670,-0.00000304,-0.00000553,-0.00005042,0.00004185,0.00002
 246,0.00000758,0.00000394,0.00000723,-0.00003590,-0.00000971,-0.000017
 61,-0.00016327,-0.00002811,-0.00009020,0.00018412,0.00001581,-0.000151
 58,-0.00003676,0.00002212,0.00003511,0.00112964,0.00152810,0.00150657,
 -0.00068467,0.00017018,-0.00116850,0.00023555,0.00042905,-0.00037033,0
 .00335995,-0.01502649,0.03212114,-0.00028203,-0.00673827,-0.00072378,-
 0.00071594,0.00140969,0.00133797,0.00039200,0.00016082,-0.00110021,0.0
 0004169,-0.00004329,-0.00010604,-0.00021631,0.00034937,-0.00036367,-0.
 00000282,-0.00001160,0.00000421,0.00000239,0.00000195,-0.00000118,-0.0
 0000295,0.00000599,-0.00000073,0.01041190,-0.08325322,0.08885461,-0.00
 006022,0.00319547,-0.00898653,-0.01106526,0.09331874,-0.00000216,0.000
 00589,-0.00003292,-0.00000229,-0.00000217,0.00000199,0.00000762,-0.000
 03323,0.00001097,0.00001041,0.00000137,0.00000156,-0.00000636,0.000003
 20,0.00001810,-0.00000283,-0.00000472,0.00001233,-0.00002577,-0.000005
 28,-0.00003468,0.00000573,0.00000019,0.00000812,0.00003582,0.00002301,
 0.00003753,0.00016439,0.00016699,0.00007779,-0.00006322,-0.00013942,0.
 00007456,0.00005441,0.00005555,-0.00022199,-0.00012838,-0.00042469,0.0
 0072987,0.00064822,0.00041692,0.00039818,0.00014209,0.00001431,0.00025
 418,0.00042309,0.00028834,0.00012480,0.00002633,-0.00041437,0.00159740
 ,0.00002014,-0.00039204,0.00088275,-0.00041038,0.00027253,0.00030284,0
 .00004790,0.00002501,-0.00007520,-0.00006553,0.00008244,0.00025580,-0.
 00000250,0.00004910,-0.00003487,-0.00000309,-0.00001203,0.00000246,-0.
 00000744,0.00001476,-0.00002665,-0.02357198,0.08906023,-0.26069257,-0.
 00068984,0.00372748,-0.01051840,0.02609059,-0.09943769,0.28362974,0.00
 000941,0.00000019,-0.00002358,-0.00000305,-0.00000428,0.00000177,-0.00
 000087,-0.00000921,0.00000724,0.00001137,0.00000509,0.00000027,0.00002
 791,0.00001691,0.00004908,0.00000289,0.00000594,-0.00001030,0.00011931
 ,-0.00016696,-0.00010216,-0.00005560,-0.00004740,-0.00002410,-0.000009
 00,-0.00000224,-0.00000948,-0.00092790,-0.00040543,-0.00011511,0.00003
 874,0.00011399,0.00001703,-0.00107357,-0.00133145,-0.00027678,-0.00001
 281,0.00038123,-0.00026807,-0.00002747,-0.00003858,-0.00003578,0.00012
 105,0.00009791,0.00011839,0.00157615,-0.00090822,-0.00236820,0.0001920
 8,0.00053155,-0.00023005,0.00050102,0.00040417,-0.00049781,-0.00004356
 ,-0.00011650,0.00002666,0.00050134,-0.00021909,0.00001175,0.00019551,-
 0.00001843,0.00029122,-0.00001108,0.00000510,0.00000382,0.00001976,-0.
 00000108,-0.00000060,-0.00001788,0.00001515,0.00001382,-0.18122371,0.0
 7020082,0.11017829,-0.02037429,0.01046874,0.01751025,0.00291417,-0.002
 44122,-0.00271019,0.19752669,0.00000827,-0.00000796,-0.00002659,-0.000
 00826,-0.00000186,0.00000001,-0.00000656,-0.00001638,-0.00000139,0.000
 02051,0.00000671,-0.00000578,-0.00007452,0.00000572,0.00005509,-0.0000
 0550,-0.00001535,0.00000338,-0.00033875,0.00031124,0.00009146,0.000190
 65,0.00010748,0.00005439,0.00007339,0.00000789,0.00005411,-0.00007806,
 -0.00045095,-0.00006680,-0.00009940,-0.00012316,0.00012267,-0.00103634
 ,0.00024893,-0.00024106,0.00074711,0.00115828,-0.00007943,-0.00011637,
 -0.00005415,0.00001860,0.00008089,0.00007906,0.00018927,0.02489950,-0.
 01011794,-0.01996314,0.00007834,0.00128922,0.00061936,-0.00194081,-0.0
 0684515,0.00077454,-0.00021161,0.00010007,-0.00014370,-0.00005910,0.00
 014494,0.00029179,0.00165056,-0.00095450,-0.00125031,-0.00006462,-0.00
 000959,-0.00004145,0.00002418,-0.00000293,0.00000409,-0.00002324,0.000
 05742,0.00000205,0.06904983,-0.08325503,-0.05636010,-0.00625653,0.0030
 5434,0.00636955,-0.01004103,0.00446694,0.00667473,-0.07652941,0.090832
 50,0.00001040,-0.00001069,0.00000505,-0.00000493,0.00000512,-0.0000029
 9,-0.00001544,0.00001858,-0.00001971,0.00001030,0.00000691,-0.00000624
 ,-0.00002950,0.00000520,0.00006113,-0.00000059,-0.00000835,-0.00000959
 ,-0.00027679,0.00040334,-0.00004107,0.00016319,0.00012280,0.00006963,0
 .00000308,-0.00003546,-0.00000444,0.00057170,-0.00078645,0.00029098,-0
 .00001674,0.00016557,-0.00012972,-0.00055701,0.00052619,0.00014929,0.0
 0065108,-0.00023376,-0.00021279,0.00005058,-0.00003981,-0.00000305,-0.
 00015090,0.00002760,0.00002529,-0.00094877,0.00067594,-0.00113814,-0.0
 0040658,-0.00036457,0.00062447,-0.00049496,-0.00049565,0.00080326,-0.0
 0024612,0.00024574,0.00047008,0.00024251,0.00008092,-0.00003090,0.0003
 1068,-0.00002167,0.00034282,-0.00009704,-0.00008873,-0.00003587,0.0000
 3045,0.00001187,0.00000792,-0.00002068,0.00002874,0.00004034,0.1096566
 4,-0.05725756,-0.13707155,-0.00887872,0.00553997,0.00758719,0.02192840
 ,-0.01135153,-0.01683355,-0.12154346,0.06281568,0.14505320,-0.01256819
 ,0.00955315,-0.01936516,0.00238100,-0.00193972,0.00410148,0.00701890,-
 0.04297684,0.01473652,0.00162091,-0.00167832,0.00119075,-0.00611526,0.
 00472228,-0.01976887,0.00058939,0.00607530,-0.00030308,0.00083434,0.00
 016344,0.00037192,-0.00034221,0.00049069,-0.00018433,0.00025151,0.0002
 1654,-0.00119028,0.00004241,0.00008544,-0.00044377,-0.00010542,-0.0001
 6145,-0.00010988,0.00025549,0.00032407,0.00006599,0.00018179,0.0001626
 8,0.00006379,0.00002722,-0.00000352,-0.00003076,-0.00009829,0.00007948
 ,0.00003742,0.00006002,0.00000572,0.00001160,-0.00001035,-0.00000062,-
 0.00001793,-0.00000577,-0.00001926,-0.00001030,0.00000654,-0.00000085,
 0.00000120,-0.00002700,-0.00000657,-0.00000206,0.00000160,0.00002161,0
 .00000447,-0.07757237,0.01019480,-0.02044688,0.00860040,-0.00874372,0.
 01684611,-0.01275947,0.00626258,-0.03007120,0.00001320,-0.00002363,-0.
 00002206,-0.00004100,0.00000240,-0.00000771,0.00002134,0.00000809,-0.0
 0001470,0.00000971,0.00003095,0.00004583,0.27735823,-0.00516822,0.0102
 0350,-0.00359977,0.00056704,-0.00010605,0.00114346,-0.02283868,-0.0407
 6954,0.00667109,0.00222439,-0.00237724,0.00162204,0.00723692,-0.023160
 81,0.03318720,0.00182170,-0.00591221,0.00116512,0.00042275,0.00234985,
 0.00018802,-0.00058760,0.00045562,0.00040851,0.00047064,-0.00061093,0.
 00039777,-0.00015826,-0.00095544,0.00004558,0.00004487,0.00007564,-0.0
 0002874,0.00023535,0.00054917,0.00004232,0.00014109,0.00036664,0.00020
 941,0.00002859,-0.00002481,-0.00005521,-0.00009873,0.00007514,0.000049
 21,-0.00001255,-0.00012572,-0.00012025,-0.00000781,0.00001908,-0.00001
 441,0.00005398,0.00006018,0.00005250,-0.00000493,-0.00000461,-0.000021
 05,0.00005656,-0.00000478,-0.00000485,-0.00002286,0.00002080,0.0000054
 6,-0.01245354,-0.07034963,0.03443619,-0.00288874,0.00316886,0.00057124
 ,-0.00576068,0.00481830,-0.01947736,0.00007230,-0.00003124,0.00001309,
 0.00002406,0.00003744,0.00000394,0.00000660,0.00000472,-0.00004151,-0.
 00001595,-0.00002729,0.00002571,0.09422620,0.18654140,-0.00974297,0.00
 145631,-0.00776820,0.00060099,-0.00078860,0.00167008,0.00541776,-0.009
 42140,0.00357698,0.00050479,-0.00102818,0.00049533,-0.01042730,0.02466
 030,-0.01933512,-0.00017160,0.00279579,0.00094823,0.00207322,-0.000117
 03,0.00021108,-0.00031181,-0.00035745,0.00082115,-0.00070388,-0.000409
 71,0.00136838,0.00016260,-0.00001583,0.00006878,0.00021399,-0.00003828
 ,0.00015564,-0.00004155,-0.00014008,-0.00007032,-0.00003256,-0.0000767
 6,-0.00004675,-0.00003894,-0.00000452,0.00005783,0.00002910,-0.0000068
 8,-0.00001735,-0.00000871,0.00001816,0.00001237,0.00001437,-0.00001108
 ,0.00001902,-0.00000531,-0.00000542,-0.00001472,-0.00000418,-0.0000047
 0,0.00001297,-0.00000573,0.00000228,0.00000319,0.00000068,0.00000114,-
 0.00000302,0.00915465,0.05167860,-0.18584187,-0.01115914,0.01098281,-0
 .04427397,-0.00507758,0.00030518,-0.00874125,0.00000959,0.00000558,-0.
 00002406,0.00000261,-0.00000616,0.00000306,-0.00000936,-0.00000495,0.0
 0002350,-0.00001253,0.00001172,-0.00000778,0.06095879,-0.07589825,0.30
 369510,-0.00120856,0.01507232,0.00050869,-0.00221693,0.00171211,-0.003
 22336,-0.04676007,0.02254704,-0.01278698,-0.00007987,0.00037703,-0.001
 11247,0.00284362,0.00246295,0.00228288,-0.00072678,-0.00311879,0.00057
 324,-0.00067457,-0.00058513,-0.00082304,0.00056606,-0.00028442,-0.0001
 6786,-0.00068499,0.00028873,0.00039947,-0.00035396,-0.00028661,0.00062
 417,0.00014185,0.00008057,0.00009464,-0.00004414,0.00006840,-0.0000346
 6,0.00000172,-0.00005709,-0.00023752,-0.00005910,-0.00002092,0.0000663
 1,-0.00000579,0.00000391,0.00001654,0.00001706,0.00006177,0.00012119,0
 .00000966,-0.00000933,0.00000846,-0.00004113,-0.00003101,-0.00005235,0
 .00000379,-0.00000193,0.00001866,-0.00004544,0.00000034,0.00000394,0.0
 0001393,-0.00000696,-0.00000108,-0.03489857,-0.02079071,-0.02382180,0.
 00420515,0.00144571,0.00311678,0.00117396,0.00284256,-0.00374678,-0.00
 001928,0.00000229,-0.00005250,-0.00003550,-0.00001862,0.00000062,-0.00
 000121,-0.00000204,0.00002991,0.00001368,0.00003591,0.00001336,-0.1896
 2866,-0.05761450,-0.04138998,0.26849409,0.06469486,-0.08907483,0.07784
 992,-0.00258141,0.00261496,-0.00576243,-0.01087061,0.03950417,-0.03773
 899,-0.00546313,0.00540389,-0.00456163,0.00177805,0.01363768,0.0000817
 8,-0.00138234,-0.00452885,0.00036623,-0.00088368,-0.00108893,-0.000755
 02,0.00051619,-0.00049890,-0.00010745,-0.00040477,0.00061561,0.0004311
 2,-0.00032836,-0.00004874,0.00049591,0.00010871,0.00004962,0.00008986,
 -0.00018958,-0.00015591,-0.00011302,-0.00008655,-0.00014325,-0.0001654
 8,-0.00004762,-0.00000655,0.00005432,0.00003876,-0.00002597,-0.0000006
 7,-0.00001639,0.00004613,0.00007597,0.00000908,-0.00000699,0.00001069,
 -0.00002734,-0.00001685,-0.00002890,0.00000016,0.00000076,0.00001056,-
 0.00002114,0.00000324,0.00000380,0.00000892,-0.00001387,-0.00000198,-0
 .00481511,-0.01271648,-0.01289472,0.00084584,0.00077339,0.00343453,0.0
 0039131,0.00211769,-0.00054087,-0.00002146,0.00001300,-0.00002088,-0.0
 0000676,-0.00001442,0.00000353,-0.00000976,-0.00000458,0.00002509,0.00
 000865,0.00001152,-0.00001167,-0.07707094,-0.06428605,-0.00358261,0.03
 582642,0.10783951,-0.01517746,0.02586854,-0.01362377,-0.00046676,0.000
 95250,0.00068888,-0.00666515,-0.00440202,-0.00848695,0.00034247,-0.001
 26630,0.00133938,0.00149293,-0.00325849,0.00000451,-0.00003969,-0.0000
 2376,0.00052335,-0.00004131,0.00015781,-0.00098246,-0.00008804,0.00006
 378,0.00023012,-0.00020983,-0.00004590,0.00037793,-0.00033738,-0.00017
 381,0.00030737,0.00009661,-0.00000641,0.00007227,0.00009588,0.00028931
 ,-0.00011389,0.00005838,0.00012323,-0.00016882,-0.00004981,-0.00002590
 ,0.00007404,-0.00005697,0.00003104,0.00004252,0.00000768,0.00001438,0.
 00007362,0.00001562,-0.00000834,0.00001437,-0.00001912,-0.00001049,-0.
 00003445,-0.00000177,-0.00000598,0.00001596,-0.00001984,0.00000043,0.0
 0000553,0.00000251,0.00000375,-0.00000066,-0.04714491,-0.02159006,-0.0
 1022249,-0.00065501,-0.00162490,0.00623163,-0.00425589,0.00254837,-0.0
 0644749,0.00001977,-0.00000449,-0.00006043,-0.00001810,-0.00000611,0.0
 0000735,-0.00000809,-0.00000394,0.00002636,-0.00000139,0.00002723,0.00
 001674,-0.00644687,0.01902353,-0.04699827,0.07957151,-0.01664700,0.077
 08774\\-0.00000055,0.00000182,0.00000321,-0.00000077,-0.00000018,0.000
 00367,-0.00000057,0.00000389,0.00000009,-0.00000084,0.00000288,0.00000
 236,-0.00000048,0.00000304,-0.00000004,-0.00000130,0.00000322,0.000001
 48,0.00000005,-0.00000042,0.00000018,-0.00000038,-0.00000052,0.0000029
 4,-0.00000005,-0.00000222,0.00000086,0.00000012,0.00000083,0.00000085,
 -0.00000035,0.00000264,0.00000071,-0.00000045,0.00000145,-0.00000194,-
 0.00000028,-0.00000115,0.00000082,-0.00000002,-0.00000384,0.00000013,0
 .,-0.00000142,0.00000291,0.00000033,-0.00000091,0.00000134,-0.00000042
 ,0.00000176,0.00000099,0.00000026,-0.00000164,0.00000035,-0.00000031,-
 0.00000486,0.00000126,-0.00000004,-0.00000133,0.00000078,-0.00000050,-
 0.00000249,0.00000352,-0.00000018,0.00000195,-0.00000239,0.00000022,0.
 00000315,-0.00000232,0.00000120,0.00000153,-0.00000313,-0.00000032,0.0
 0000146,-0.00000347,0.00000044,0.00000045,-0.00000346,0.00000152,-0.00
 000390,-0.00000486,0.00000029,0.00000145,-0.00000409,0.00000238,-0.000
 00130,-0.00000164,0.00000101,-0.00000534,-0.00000109\\\@
 Job cpu time:  0 days 13 hours 45 minutes 53.2 seconds.
 File lengths (MBytes):  RWF=  70888 Int=      0 D2E=      0 Chk=     26 Scr=      1
 Normal termination of Gaussian 09 at Mon Feb 17 23:08:07 2014.
