 Entering Gaussian System, Link 0=/share/apps/g09/g09
 Input=TS_2d_1_11_28_29_4_scan_b3631gd.gjf
 Output=TS_2d_1_11_28_29_4_scan_b3631gd.log
 Initial command:
 /share/apps/g09/l1.exe /state/partition1/Gau-15743.inp -scrdir=/state/partition1/
 Entering Link 1 = /share/apps/g09/l1.exe PID=     15744.
  
 Copyright (c) 1988,1990,1992,1993,1995,1998,2003,2009, Gaussian, Inc.
                  All Rights Reserved.
  
 This is part of the Gaussian(R) 09 program.  It is based on
 the Gaussian(R) 03 system (copyright 2003, Gaussian, Inc.),
 the Gaussian(R) 98 system (copyright 1998, Gaussian, Inc.),
 the Gaussian(R) 94 system (copyright 1995, Gaussian, Inc.),
 the Gaussian 92(TM) system (copyright 1992, Gaussian, Inc.),
 the Gaussian 90(TM) system (copyright 1990, Gaussian, Inc.),
 the Gaussian 88(TM) system (copyright 1988, Gaussian, Inc.),
 the Gaussian 86(TM) system (copyright 1986, Carnegie Mellon
 University), and the Gaussian 82(TM) system (copyright 1983,
 Carnegie Mellon University). Gaussian is a federally registered
 trademark of Gaussian, Inc.
  
 This software contains proprietary and confidential information,
 including trade secrets, belonging to Gaussian, Inc.
  
 This software is provided under written license and may be
 used, copied, transmitted, or stored only in accord with that
 written license.
  
 The following legend is applicable only to US Government
 contracts under FAR:
  
                    RESTRICTED RIGHTS LEGEND
  
 Use, reproduction and disclosure by the US Government is
 subject to restrictions as set forth in subparagraphs (a)
 and (c) of the Commercial Computer Software - Restricted
 Rights clause in FAR 52.227-19.
  
 Gaussian, Inc.
 340 Quinnipiac St., Bldg. 40, Wallingford CT 06492
  
  
 ---------------------------------------------------------------
 Warning -- This program may not be used in any manner that
 competes with the business of Gaussian, Inc. or will provide
 assistance to any competitor of Gaussian, Inc.  The licensee
 of this program is prohibited from giving any competitor of
 Gaussian, Inc. access to this program.  By using this program,
 the user acknowledges that Gaussian, Inc. is engaged in the
 business of creating and licensing software in the field of
 computational chemistry and represents and warrants to the
 licensee that it is not a competitor of Gaussian, Inc. and that
 it will not use this program in any manner prohibited above.
 ---------------------------------------------------------------
  

 Cite this work as:
 Gaussian 09, Revision A.01,
 M. J. Frisch, G. W. Trucks, H. B. Schlegel, G. E. Scuseria, 
 M. A. Robb, J. R. Cheeseman, G. Scalmani, V. Barone, B. Mennucci, 
 G. A. Petersson, H. Nakatsuji, M. Caricato, X. Li, H. P. Hratchian, 
 A. F. Izmaylov, J. Bloino, G. Zheng, J. L. Sonnenberg, M. Hada, 
 M. Ehara, K. Toyota, R. Fukuda, J. Hasegawa, M. Ishida, T. Nakajima, 
 Y. Honda, O. Kitao, H. Nakai, T. Vreven, J. A. Montgomery, Jr., 
 J. E. Peralta, F. Ogliaro, M. Bearpark, J. J. Heyd, E. Brothers, 
 K. N. Kudin, V. N. Staroverov, R. Kobayashi, J. Normand, 
 K. Raghavachari, A. Rendell, J. C. Burant, S. S. Iyengar, J. Tomasi, 
 M. Cossi, N. Rega, J. M. Millam, M. Klene, J. E. Knox, J. B. Cross, 
 V. Bakken, C. Adamo, J. Jaramillo, R. Gomperts, R. E. Stratmann, 
 O. Yazyev, A. J. Austin, R. Cammi, C. Pomelli, J. W. Ochterski, 
 R. L. Martin, K. Morokuma, V. G. Zakrzewski, G. A. Voth, 
 P. Salvador, J. J. Dannenberg, S. Dapprich, A. D. Daniels, 
 O. Farkas, J. B. Foresman, J. V. Ortiz, J. Cioslowski, 
 and D. J. Fox, Gaussian, Inc., Wallingford CT, 2009.
 
 ******************************************
 Gaussian 09:  EM64L-G09RevA.01  8-May-2009
                 5-Jun-2015 
 ******************************************
 %mem=28GB
 %nprocshared=12
 Will use up to   12 processors via shared memory.
 %chk=TS_2d_1_11_28_29_4_scan_b3631gd.chk
 -----------------------------
 #p SCAN ub3lyp/6-31g(d) nosym
 -----------------------------
 1/38=1,60=1/1,8;
 2/12=2,15=1,17=6,18=5,29=3,40=1/2;
 3/5=1,6=6,7=1,11=2,16=1,25=1,30=1,74=-5,116=2/1,2,3;
 4//1;
 5/5=2,38=5/2;
 6/7=2,8=2,9=2,10=2,18=1,28=1/1;
 1/60=1/8(1);
 99/9=1/99;
 2/15=1,29=3/2;
 3/5=1,6=6,7=1,11=2,16=1,25=1,30=1,74=-5,116=2/1,2,3;
 4/5=5,16=3/1;
 5/5=2,38=5/2;
 1/60=1/8(-4);
 99/9=1/99;
 Leave Link    1 at Fri Jun  5 23:50:43 2015, MaxMem= 3758096384 cpu:       0.4
 (Enter /share/apps/g09/l101.exe)
 -----------------------------
 using ub3lyp/6-31G(d) to scan
 -----------------------------
 Symbolic Z-matrix:
 Charge =  0 Multiplicity = 2
 C
 H                    1     1.09326 
 H                    1     1.09071  2     108.42173 
 H                    1     1.09428  3     109.44338  2    -118.6147  0
 C                    1     2.62982  3     87.78433  2     155.33467  0
 H                    5     1.0873   1     131.73545  3    -114.24813  0
 H                    5     1.08851  1     80.26928  3    -3.78761  0
 C                    5     1.41547  1     97.70743  3     110.28534  0
 H                    8     1.08909  5     118.66425  1    -57.61309  0
 C                    8     1.49146  5     125.32343  1     119.80771  0
 H                    10    1.0954   8     110.30575  5     1.24685  0
 H                    10    1.10056  8     109.46865  5    -115.97036  0
 C                    10    1.55369  8     113.598  5     124.29689  0
 H                    13    1.09803  10    107.32887  8     54.57938  0
 C                    13    1.53358  10    111.64233  8    -63.78703  0
 H                    15    1.09292  13    111.64862  10    58.14989  0
 H                    15    1.09364  13    110.92311  10    178.59999  0
 H                    15    1.09535  13    110.78525  10   -61.82797  0
 C                    1     2.57043  5     62.62638  8    -91.83926  0
 H                    19    1.09433  1     92.32082  5    -162.27904  0
 H                    19    1.08991  1     142.37354  5    -38.29365  0
 H                    19    1.09176  1     92.24702  5     89.05628  0
 C                    13    1.53368  10    110.3309  8     172.02738  0
 H                    23    1.09362  13    110.97436  10   -178.34153  0
 H                    23    1.0939   13    111.53255  10   -58.05505  0
 H                    23    1.09517  13    110.88654  10    62.10674  0
 C                    19    1.52745  1     32.94932  5    -40.56775  0
 O                    27    1.32581  19    114.02451  1    -125.65716  0
 O                    28    1.81536  27    108.33149  19   -66.10037  0
 H                    29    0.96622  28    88.77639  27   D1       0
       Variables:
  D1                  166.18073Scan 40   10.     
 
 NAtoms=     30 NQM=     30 NQMF=      0 NMic=      0 NMicF=      0 NTot=     30.
                    Isotopes and Nuclear Properties:
 (Nuclear quadrupole moments (NQMom) in fm**2, nuclear magnetic moments (NMagM)
  in nuclear magnetons)

  Atom         1           2           3           4           5           6           7           8           9          10
 IAtWgt=          12           1           1           1          12           1           1          12           1          12
 AtmWgt=  12.0000000   1.0078250   1.0078250   1.0078250  12.0000000   1.0078250   1.0078250  12.0000000   1.0078250  12.0000000
 NucSpn=           0           1           1           1           0           1           1           0           1           0
 AtZEff=   0.0000000   0.0000000   0.0000000   0.0000000   0.0000000   0.0000000   0.0000000   0.0000000   0.0000000   0.0000000
 NQMom=    0.0000000   0.0000000   0.0000000   0.0000000   0.0000000   0.0000000   0.0000000   0.0000000   0.0000000   0.0000000
 NMagM=    0.0000000   2.7928460   2.7928460   2.7928460   0.0000000   2.7928460   2.7928460   0.0000000   2.7928460   0.0000000

  Atom        11          12          13          14          15          16          17          18          19          20
 IAtWgt=           1           1          12           1          12           1           1           1          12           1
 AtmWgt=   1.0078250   1.0078250  12.0000000   1.0078250  12.0000000   1.0078250   1.0078250   1.0078250  12.0000000   1.0078250
 NucSpn=           1           1           0           1           0           1           1           1           0           1
 AtZEff=   0.0000000   0.0000000   0.0000000   0.0000000   0.0000000   0.0000000   0.0000000   0.0000000   0.0000000   0.0000000
 NQMom=    0.0000000   0.0000000   0.0000000   0.0000000   0.0000000   0.0000000   0.0000000   0.0000000   0.0000000   0.0000000
 NMagM=    2.7928460   2.7928460   0.0000000   2.7928460   0.0000000   2.7928460   2.7928460   2.7928460   0.0000000   2.7928460

  Atom        21          22          23          24          25          26          27          28          29          30
 IAtWgt=           1           1          12           1           1           1          12          16          16           1
 AtmWgt=   1.0078250   1.0078250  12.0000000   1.0078250   1.0078250   1.0078250  12.0000000  15.9949146  15.9949146   1.0078250
 NucSpn=           1           1           0           1           1           1           0           0           0           1
 AtZEff=   0.0000000   0.0000000   0.0000000   0.0000000   0.0000000   0.0000000   0.0000000   0.0000000   0.0000000   0.0000000
 NQMom=    0.0000000   0.0000000   0.0000000   0.0000000   0.0000000   0.0000000   0.0000000   0.0000000   0.0000000   0.0000000
 NMagM=    2.7928460   2.7928460   0.0000000   2.7928460   2.7928460   2.7928460   0.0000000   0.0000000   0.0000000   2.7928460
 Leave Link  101 at Fri Jun  5 23:50:43 2015, MaxMem= 3758096384 cpu:       0.6
 (Enter /share/apps/g09/l108.exe)
 Scan the potential surface.
 Variable   Value     No. Steps Step-Size
 -------- ----------- --------- ---------
     1     166.180734      40     10.0000
 A total of     41 points will be computed.
 Leave Link  108 at Fri Jun  5 23:50:43 2015, MaxMem= 3758096384 cpu:       0.1
 (Enter /share/apps/g09/l202.exe)
 ---------------------------------------------------------------------------------------------------
                            Z-MATRIX (ANGSTROMS AND DEGREES)
   CD    Cent   Atom    N1       Length/X        N2       Alpha/Y        N3        Beta/Z          J
 ---------------------------------------------------------------------------------------------------
      1      1  C 
      2      2  H        1   1.093261(     1)
      3      3  H        1   1.090711(     2)      2  108.422(    30)
      4      4  H        1   1.094280(     3)      3  109.443(    31)      2 -118.615(    58)      0
      5      5  C        1   2.629823(     4)      3   87.784(    32)      2  155.335(    59)      0
      6      6  H        5   1.087303(     5)      1  131.735(    33)      3 -114.248(    60)      0
      7      7  H        5   1.088514(     6)      1   80.269(    34)      3   -3.788(    61)      0
      8      8  C        5   1.415468(     7)      1   97.707(    35)      3  110.285(    62)      0
      9      9  H        8   1.089095(     8)      5  118.664(    36)      1  -57.613(    63)      0
     10     10  C        8   1.491460(     9)      5  125.323(    37)      1  119.808(    64)      0
     11     11  H       10   1.095404(    10)      8  110.306(    38)      5    1.247(    65)      0
     12     12  H       10   1.100557(    11)      8  109.469(    39)      5 -115.970(    66)      0
     13     13  C       10   1.553691(    12)      8  113.598(    40)      5  124.297(    67)      0
     14     14  H       13   1.098035(    13)     10  107.329(    41)      8   54.579(    68)      0
     15     15  C       13   1.533578(    14)     10  111.642(    42)      8  -63.787(    69)      0
     16     16  H       15   1.092921(    15)     13  111.649(    43)     10   58.150(    70)      0
     17     17  H       15   1.093643(    16)     13  110.923(    44)     10  178.600(    71)      0
     18     18  H       15   1.095349(    17)     13  110.785(    45)     10  -61.828(    72)      0
     19     19  C        1   2.570427(    18)      5   62.626(    46)      8  -91.839(    73)      0
     20     20  H       19   1.094328(    19)      1   92.321(    47)      5 -162.279(    74)      0
     21     21  H       19   1.089912(    20)      1  142.374(    48)      5  -38.294(    75)      0
     22     22  H       19   1.091758(    21)      1   92.247(    49)      5   89.056(    76)      0
     23     23  C       13   1.533676(    22)     10  110.331(    50)      8  172.027(    77)      0
     24     24  H       23   1.093619(    23)     13  110.974(    51)     10 -178.342(    78)      0
     25     25  H       23   1.093902(    24)     13  111.533(    52)     10  -58.055(    79)      0
     26     26  H       23   1.095165(    25)     13  110.887(    53)     10   62.107(    80)      0
     27     27  C       19   1.527452(    26)      1   32.949(    54)      5  -40.568(    81)      0
     28     28  O       27   1.325815(    27)     19  114.025(    55)      1 -125.657(    82)      0
     29     29  O       28   1.815357(    28)     27  108.331(    56)     19  -66.100(    83)      0
     30     30  H       29   0.966216(    29)     28   88.776(    57)     27  166.181(    84)      0
 ---------------------------------------------------------------------------------------------------
                         Z-Matrix orientation:                         
 ---------------------------------------------------------------------
 Center     Atomic      Atomic             Coordinates (Angstroms)
 Number     Number       Type             X           Y           Z
 ---------------------------------------------------------------------
      1          6           0        0.000000    0.000000    0.000000
      2          1           0        0.000000    0.000000    1.093261
      3          1           0        1.034819    0.000000   -0.344674
      4          1           0       -0.501759   -0.905841   -0.353749
      5          6           0       -0.658197    1.096650   -2.297848
      6          1           0       -1.061403    2.076152   -2.543265
      7          1           0        0.423976    1.067063   -2.411388
      8          6           0       -1.345654   -0.011983   -2.847290
      9          1           0       -0.814635   -0.957264   -2.950196
     10          6           0       -2.779156   -0.020081   -3.258942
     11          1           0       -3.226836    0.966408   -3.096665
     12          1           0       -3.337450   -0.729812   -2.629804
     13          6           0       -2.999474   -0.445910   -4.736807
     14          1           0       -2.512001   -1.420400   -4.872528
     15          6           0       -2.359920    0.548674   -5.713350
     16          1           0       -1.286610    0.654092   -5.536236
     17          1           0       -2.500573    0.224977   -6.748479
     18          1           0       -2.812684    1.540693   -5.609951
     19          6           0       -2.210580    1.308202   -0.095065
     20          1           0       -2.258038    1.394282    0.994839
     21          1           0       -2.668269    2.199776   -0.523464
     22          1           0       -2.771738    0.422057   -0.398026
     23          6           0       -4.495954   -0.620354   -5.023653
     24          1           0       -4.661453   -0.948622   -6.053631
     25          1           0       -4.948521   -1.361563   -4.358511
     26          1           0       -5.032508    0.324487   -4.886639
     27          6           0       -0.743931    1.237466   -0.515833
     28          8           0       -0.039337    2.315393   -0.200545
     29          8           0       -0.671783    3.714387   -1.169230
     30          1           0       -0.181157    4.311186   -0.588979
 ---------------------------------------------------------------------
                    Distance matrix (angstroms):
                    1          2          3          4          5
     1  C    0.000000
     2  H    1.093261   0.000000
     3  H    1.090711   1.771583   0.000000
     4  H    1.094280   1.779367   1.783732   0.000000
     5  C    2.629823   3.624291   2.807816   2.795347   0.000000
     6  H    3.450388   4.319873   3.679450   3.741586   1.087303
     7  H    2.670800   3.687946   2.404799   2.997201   1.088514
     8  C    3.149283   4.163996   3.453965   2.780087   1.415468
     9  H    3.206811   4.234327   3.335502   2.615735   2.160693
    10  C    4.283085   5.163893   4.799976   3.796216   2.582491
    11  H    4.575560   5.376049   5.164213   4.295923   2.693136
    12  H    4.311272   5.052961   4.987101   3.640406   3.259533
    13  C    5.624324   6.571558   5.980400   5.065700   3.716127
    14  H    5.662968   6.627090   5.924434   4.972444   4.049828
    15  C    6.205855   7.224972   6.375576   5.856082   3.855100
    16  H    5.721286   6.784794   5.724437   5.468780   3.328351
    17  H    7.200379   8.233855   7.318356   6.794599   4.895129
    18  H    6.461925   7.430879   6.700757   6.241278   3.976055
    19  C    2.570427   2.830225   3.508035   2.808732   2.703128
    20  H    2.834160   2.655644   3.818537   3.192769   3.672855
    21  H    3.497526   3.817391   4.310897   3.790439   2.899261
    22  H    2.831799   3.175626   3.830254   2.630224   2.920865
    23  C    6.770194   7.616763   7.270978   6.151675   5.010638
    24  H    7.699056   8.585283   8.120319   7.056453   5.857909
    25  H    6.733374   7.487558   7.332468   6.001624   5.356867
    26  H    7.022155   7.822444   7.585986   6.525985   5.141271
    27  C    1.533245   2.161930   2.173607   2.163027   1.789624
    28  O    2.324395   2.652645   2.556488   3.257861   2.503398
    29  O    3.951590   4.400776   4.170018   4.694723   2.850704
    30  H    4.355001   4.631314   4.486046   5.232159   3.671653
                    6          7          8          9         10
     6  H    0.000000
     7  H    1.800556   0.000000
     8  C    2.129211   2.118003   0.000000
     9  H    3.070521   2.433592   1.089095   0.000000
    10  C    2.803045   3.487160   1.491460   2.198404   0.000000
    11  H    2.495373   3.715934   2.135014   3.088799   1.095404
    12  H    3.614044   4.174301   2.128340   2.553230   1.100557
    13  C    3.863748   4.406435   2.548273   2.868272   1.553691
    14  H    4.444725   4.567783   2.728662   2.605937   2.153120
    15  C    3.750837   4.349914   3.091500   3.505820   2.554086
    16  H    3.321273   3.586269   2.770844   3.083315   2.805044
    17  H    4.814758   5.298345   4.075447   4.320537   3.509206
    18  H    3.571871   4.575051   3.492173   4.160082   2.822123
    19  C    2.811413   3.516303   3.172653   3.902919   3.478180
    20  H    3.796717   4.347718   4.191895   4.814196   4.512942
    21  H    2.583969   3.795955   3.470066   4.392253   3.524614
    22  H    3.203643   3.831742   2.867229   3.499479   2.894889
    23  C    5.021913   5.820396   3.876992   4.238495   2.534152
    24  H    5.867903   6.571948   4.706638   4.942610   3.495070
    25  H    5.497517   6.209125   4.133498   4.385866   2.777547
    26  H    4.932485   6.037507   4.226707   4.814888   2.801020
    27  C    2.216903   2.232974   2.712726   3.278408   3.639810
    28  O    2.567136   2.580855   3.758776   4.344186   4.723859
    29  O    2.173382   3.122814   4.141959   5.001657   4.770134
    30  H    3.096682   3.769840   5.014559   5.808029   5.712983
                   11         12         13         14         15
    11  H    0.000000
    12  H    1.762769   0.000000
    13  C    2.176328   2.152741   0.000000
    14  H    3.059661   2.487587   1.098035   0.000000
    15  C    2.788025   3.478268   1.533578   2.146476   0.000000
    16  H    3.132655   3.816869   2.187006   2.499121   1.092921
    17  H    3.796436   4.309927   2.178489   2.495313   1.093643
    18  H    2.611117   3.783100   2.178041   3.066312   1.095349
    19  C    3.187351   3.442127   5.024444   5.510016   5.671359
    20  H    4.226353   4.337620   6.065296   6.512521   6.762044
    21  H    2.907673   3.669735   4.986143   5.660782   5.454919
    22  H    2.790356   2.574425   4.430605   4.845955   5.332757
    23  C    2.800313   2.661696   1.533676   2.144524   2.530800
    24  H    3.803828   3.677424   2.179201   2.497543   2.766720
    25  H    3.158465   2.446035   2.186392   2.490844   3.490766
    26  H    2.622311   3.012984   2.179263   3.065580   2.806499
    27  C    3.591516   3.881417   5.073249   5.401029   5.486350
    28  O    4.513028   5.104128   6.079875   6.472838   6.236779
    29  O    4.218377   5.384233   5.954312   6.592940   5.789696
    30  H    5.172252   6.287990   6.912117   7.525470   6.720319
                   16         17         18         19         20
    16  H    0.000000
    17  H    1.768440   0.000000
    18  H    1.766464   1.767701   0.000000
    19  C    5.557691   6.747251   5.552526   0.000000
    20  H    6.644284   7.834863   6.629655   1.094328   0.000000
    21  H    5.424575   6.532899   5.131042   1.089912   1.767018
    22  H    5.353564   6.359295   5.330777   1.091758   1.774594
    23  C    3.490966   2.769684   2.801297   5.764828   6.729731
    24  H    3.771731   2.555298   3.132329   6.826752   7.806826
    25  H    4.342752   3.771141   3.814576   5.727211   6.594827
    26  H    3.816067   3.144367   2.632481   5.647137   6.590443
    27  C    5.083234   6.554144   5.506516   1.527452   2.144585
    28  O    5.725837   7.300888   6.128073   2.395800   2.683286
    29  O    5.367883   6.829970   5.387802   3.051468   3.547152
    30  H    6.250737   7.747015   6.309574   3.657926   3.915385
                   21         22         23         24         25
    21  H    0.000000
    22  H    1.785140   0.000000
    23  C    5.616518   5.045391   0.000000
    24  H    6.668428   6.118468   1.093619   0.000000
    25  H    5.708789   4.858511   1.093902   1.768151   0.000000
    26  H    5.305057   5.026753   1.095165   1.766453   1.768824
    27  C    2.151552   2.188783   6.152204   7.126932   6.260967
    28  O    2.651212   3.330125   7.193220   8.141029   7.410045
    29  O    2.587860   3.980453   6.947722   7.843373   7.363917
    30  H    3.263138   4.676847   7.912262   8.809145   8.313676
                   26         27         28         29         30
    26  H    0.000000
    27  C    6.191071   0.000000
    28  O    7.131265   1.325815   0.000000
    29  O    6.657814   2.562668   1.815357   0.000000
    30  H    7.609156   3.125670   2.038181   0.966216   0.000000
 Symmetry turned off by external request.
 Stoichiometry    C9H19O2(2)
 Framework group  C1[X(C9H19O2)]
 Deg. of freedom    84
 Full point group                 C1      NOp   1
 Rotational constants (GHZ):      1.7900457      0.4567737      0.4290097
 Leave Link  202 at Fri Jun  5 23:50:44 2015, MaxMem= 3758096384 cpu:       0.3
 (Enter /share/apps/g09/l301.exe)
 Standard basis: 6-31G(d) (6D, 7F)
 Ernie: Thresh=  0.10000D-02 Tol=  0.10000D-05 Strict=F.
 Integral buffers will be    131072 words long.
 Raffenetti 2 integral format.
 Two-electron integral symmetry is turned off.
   203 basis functions,   384 primitive gaussians,   203 cartesian basis functions
    45 alpha electrons       44 beta electrons
       nuclear repulsion energy       655.1035238340 Hartrees.
 IExCor=  402 DFT=T Ex+Corr=B3LYP ExCW=0 ScaHFX=  0.200000
 ScaDFX=  0.800000  0.720000  1.000000  0.810000 ScalE2=  1.000000  1.000000
 IRadAn=      0 IRanWt=     -1 IRanGd=            0 ICorTp=0
 NAtoms=   30 NActive=   30 NUniq=   30 SFac= 7.50D-01 NAtFMM=   80 NAOKFM=F Big=F
 Leave Link  301 at Fri Jun  5 23:50:44 2015, MaxMem= 3758096384 cpu:       0.4
 (Enter /share/apps/g09/l302.exe)
 NPDir=0 NMtPBC=     1 NCelOv=     1 NCel=       1 NClECP=     1 NCelD=      1
         NCelK=      1 NCelE2=     1 NClLst=     1 CellRange=     0.0.
 One-electron integrals computed using PRISM.
 NBasis=   203 RedAO= T  NBF=   203
 NBsUse=   203 1.00D-06 NBFU=   203
 Precomputing XC quadrature grid using
 IXCGrd= 2 IRadAn=           0 IRanWt=          -1 IRanGd=           0 AccXCQ= 1.00D-10.
 NRdTot=    1895 NPtTot=      241070 NUsed=      254738 NTot=      254770
 NSgBfM=   202   202   202   202   202 NAtAll=    30    30.
 Leave Link  302 at Fri Jun  5 23:50:45 2015, MaxMem= 3758096384 cpu:       6.2
 (Enter /share/apps/g09/l303.exe)
 DipDrv:  MaxL=1.
 Leave Link  303 at Fri Jun  5 23:50:45 2015, MaxMem= 3758096384 cpu:       1.0
 (Enter /share/apps/g09/l401.exe)
 Harris functional with IExCor=  402 diagonalized for initial guess.
 ExpMin= 1.61D-01 ExpMax= 5.48D+03 ExpMxC= 8.25D+02 IAcc=1 IRadAn=         1 AccDes= 0.00D+00
 HarFok:  IExCor=  402 AccDes= 0.00D+00 IRadAn=         1 IDoV= 1
 ScaDFX=  1.000000  1.000000  1.000000  1.000000
 FoFCou: FMM=F IPFlag=           0 FMFlag=      100000 FMFlg1=           0
         NFxFlg=           0 DoJE=T BraDBF=F KetDBF=T FulRan=T
         Omega=  0.000000  0.000000  1.000000  0.000000  0.000000 ICntrl=     500 IOpCl=  0
         NMat0=    1 NMatS0=    1 NMatT0=    0 NMatD0=    1 NMtDS0=    0 NMtDT0=    0
         I1Cent=           4 NGrid=           0.
 Symmetry not used in FoFCou.
 Harris En= -504.795773665374    
 Initial guess <Sx>= 0.0000 <Sy>= 0.0000 <Sz>= 0.5000 <S**2>= 0.7500 S= 0.5000
 Leave Link  401 at Fri Jun  5 23:50:46 2015, MaxMem= 3758096384 cpu:      11.3
 (Enter /share/apps/g09/l502.exe)
 UHF open shell SCF:
 Requested convergence on RMS density matrix=1.00D-08 within 128 cycles.
 Requested convergence on MAX density matrix=1.00D-06.
 Requested convergence on             energy=1.00D-06.
 No special actions if energy rises.
 Using DIIS extrapolation, IDIIS=  1040.
 Two-electron integral symmetry not used.
       254455 words used for storage of precomputed grid.
 Keep R1 and R2 ints in memory in canonical form, NReq=433403835.
 IEnd=      399942 IEndB=      399942 NGot=  3758096384 MDV=  3328995325
 LenX=  3328995325 LenY=  3328953675
 Symmetry not used in FoFDir.
 MinBra= 0 MaxBra= 2 Meth= 1.
 IRaf=       0 NMat=   1 IRICut=       1 DoRegI=T DoRafI=F ISym2E= 0 JSym2E=0.
 Integral accuracy reduced to 1.0D-05 until final iterations.

 Cycle   1  Pass 0  IDiag  1:
 E= -504.244812451421    
 DIIS: error= 3.21D-02 at cycle   1 NSaved=   1.
 NSaved= 1 IEnMin= 1 EnMin= -504.244812451421     IErMin= 1 ErrMin= 3.21D-02
 ErrMax= 3.21D-02 EMaxC= 1.00D-01 BMatC= 1.60D+00 BMatP= 1.60D+00
 IDIUse=3 WtCom= 6.79D-01 WtEn= 3.21D-01
 Coeff-Com:  0.100D+01
 Coeff-En:   0.100D+01
 Coeff:      0.100D+01
 Gap=     0.007 Goal=   None    Shift=    0.000
 Gap=     0.151 Goal=   None    Shift=    0.000
 GapD=    0.007 DampG=0.250 DampE=0.500 DampFc=0.2500 IDamp=-1.
 Damping current iteration by 2.50D-01
 RMSDP=8.51D-03 MaxDP=2.95D-01              OVMax= 8.26D-01

 Cycle   2  Pass 0  IDiag  1:
 E= -504.364875890883     Delta-E=       -0.120063439462 Rises=F Damp=T
 DIIS: error= 1.62D-02 at cycle   2 NSaved=   2.
 NSaved= 2 IEnMin= 2 EnMin= -504.364875890883     IErMin= 2 ErrMin= 1.62D-02
 ErrMax= 1.62D-02 EMaxC= 1.00D-01 BMatC= 3.85D-01 BMatP= 1.60D+00
 IDIUse=3 WtCom= 8.38D-01 WtEn= 1.62D-01
 Coeff-Com: -0.397D+00 0.140D+01
 Coeff-En:   0.000D+00 0.100D+01
 Coeff:     -0.333D+00 0.133D+01
 Gap=     0.161 Goal=   None    Shift=    0.000
 Gap=    -0.128 Goal=   None    Shift=    0.000
 RMSDP=4.12D-03 MaxDP=1.36D-01 DE=-1.20D-01 OVMax= 7.02D-01

 Cycle   3  Pass 0  IDiag  1:
 E= -504.262415685112     Delta-E=        0.102460205771 Rises=F Damp=F
 DIIS: error= 3.70D-02 at cycle   3 NSaved=   3.
 NSaved= 3 IEnMin= 2 EnMin= -504.364875890883     IErMin= 2 ErrMin= 1.62D-02
 ErrMax= 3.70D-02 EMaxC= 1.00D-01 BMatC= 1.42D+00 BMatP= 3.85D-01
 IDIUse=2 WtCom= 0.00D+00 WtEn= 1.00D+00
 Coeff-En:   0.000D+00 0.599D+00 0.401D+00
 Coeff:      0.000D+00 0.599D+00 0.401D+00
 Gap=     0.008 Goal=   None    Shift=    0.000
 Gap=     0.225 Goal=   None    Shift=    0.000
 RMSDP=6.97D-03 MaxDP=3.08D-01 DE= 1.02D-01 OVMax= 8.46D-01

 Cycle   4  Pass 0  IDiag  1:
 E= -503.634738349860     Delta-E=        0.627677335252 Rises=F Damp=F
 DIIS: error= 7.29D-02 at cycle   4 NSaved=   4.
 NSaved= 4 IEnMin= 2 EnMin= -504.364875890883     IErMin= 2 ErrMin= 1.62D-02
 ErrMax= 7.29D-02 EMaxC= 1.00D-01 BMatC= 3.08D+00 BMatP= 3.85D-01
 IDIUse=2 WtCom= 0.00D+00 WtEn= 1.00D+00
 EnCoef did     2 forward-backward iterations
 Coeff-En:   0.405D-01 0.000D+00 0.618D+00 0.342D+00
 Coeff:      0.405D-01 0.000D+00 0.618D+00 0.342D+00
 Gap=     0.111 Goal=   None    Shift=    0.000
 Gap=    -0.024 Goal=   None    Shift=    0.000
 RMSDP=5.22D-03 MaxDP=2.39D-01 DE= 6.28D-01 OVMax= 8.39D-01

 Problem detected with inexpensive integrals.
 Switching to full accuracy and repeating last cycle.
 Cycle   5  Pass 1  IDiag  1:
 E= -503.634798577201     Delta-E=       -0.000060227341 Rises=F Damp=F
 DIIS: error= 7.29D-02 at cycle   1 NSaved=   1.
 NSaved= 1 IEnMin= 1 EnMin= -503.634798577201     IErMin= 1 ErrMin= 7.29D-02
 ErrMax= 7.29D-02 EMaxC= 1.00D-01 BMatC= 3.08D+00 BMatP= 3.08D+00
 IDIUse=3 WtCom= 2.71D-01 WtEn= 7.29D-01
 Coeff-Com:  0.100D+01
 Coeff-En:   0.100D+01
 Coeff:      0.100D+01
 Gap=     0.264 Goal=   None    Shift=    0.000
 Gap=    -0.651 Goal=   None    Shift=    0.000
 GapD=   -0.651 DampG=0.250 DampE=0.500 DampFc=0.2500 IDamp=-1.
 Damping current iteration by 2.50D-01
 RMSDP=1.48D-02 MaxDP=1.15D+00 DE=-6.02D-05 OVMax= 8.93D-01

 Cycle   6  Pass 1  IDiag  1:
 E= -503.927769521123     Delta-E=       -0.292970943922 Rises=F Damp=T
 DIIS: error= 1.68D-02 at cycle   2 NSaved=   2.
 NSaved= 2 IEnMin= 2 EnMin= -503.927769521123     IErMin= 2 ErrMin= 1.68D-02
 ErrMax= 1.68D-02 EMaxC= 1.00D-01 BMatC= 2.44D-01 BMatP= 3.08D+00
 IDIUse=3 WtCom= 8.32D-01 WtEn= 1.68D-01
 Coeff-Com: -0.564D-01 0.106D+01
 Coeff-En:   0.313D+00 0.687D+00
 Coeff:      0.566D-02 0.994D+00
 Gap=     0.010 Goal=   None    Shift=    0.000
 Gap=    -0.174 Goal=   None    Shift=    0.000
 RMSDP=5.81D-03 MaxDP=3.50D-01 DE=-2.93D-01 OVMax= 7.27D-01

 Cycle   7  Pass 1  IDiag  1:
 E= -503.687624099468     Delta-E=        0.240145421655 Rises=F Damp=F
 DIIS: error= 7.19D-02 at cycle   3 NSaved=   3.
 NSaved= 3 IEnMin= 2 EnMin= -503.927769521123     IErMin= 2 ErrMin= 1.68D-02
 ErrMax= 7.19D-02 EMaxC= 1.00D-01 BMatC= 3.75D+00 BMatP= 2.44D-01
 IDIUse=2 WtCom= 0.00D+00 WtEn= 1.00D+00
 EnCoef did     2 forward-backward iterations
 Coeff-En:   0.255D+00 0.371D+00 0.374D+00
 Coeff:      0.255D+00 0.371D+00 0.374D+00
 Gap=     0.007 Goal=   None    Shift=    0.000
 Gap=    -0.057 Goal=   None    Shift=    0.000
 RMSDP=7.96D-03 MaxDP=3.66D-01 DE= 2.40D-01 OVMax= 7.83D-01

 Cycle   8  Pass 1  IDiag  1:
 E= -502.458171698502     Delta-E=        1.229452400966 Rises=F Damp=F
 DIIS: error= 6.51D-02 at cycle   4 NSaved=   4.
 NSaved= 4 IEnMin= 2 EnMin= -503.927769521123     IErMin= 2 ErrMin= 1.68D-02
 ErrMax= 6.51D-02 EMaxC= 1.00D-01 BMatC= 6.07D+00 BMatP= 2.44D-01
 IDIUse=2 WtCom= 0.00D+00 WtEn= 1.00D+00
 EnCoef did   100 forward-backward iterations
 Coeff-En:   0.400D+00 0.800D-02 0.315D+00 0.278D+00
 Coeff:      0.400D+00 0.800D-02 0.315D+00 0.278D+00
 Gap=     0.251 Goal=   None    Shift=    0.000
 Gap=     0.017 Goal=   None    Shift=    0.000
 RMSDP=5.19D-03 MaxDP=2.14D-01 DE= 1.23D+00 OVMax= 8.78D-01

 Cycle   9  Pass 1  IDiag  1:
 E= -504.494195446110     Delta-E=       -2.036023747608 Rises=F Damp=F
 DIIS: error= 2.62D-02 at cycle   5 NSaved=   5.
 NSaved= 5 IEnMin= 5 EnMin= -504.494195446110     IErMin= 2 ErrMin= 1.68D-02
 ErrMax= 2.62D-02 EMaxC= 1.00D-01 BMatC= 4.87D-01 BMatP= 2.44D-01
 IDIUse=2 WtCom= 0.00D+00 WtEn= 1.00D+00
 EnCoef did     1 forward-backward iterations
 Coeff-En:   0.209D+00 0.000D+00 0.590D-01 0.000D+00 0.732D+00
 Coeff:      0.209D+00 0.000D+00 0.590D-01 0.000D+00 0.732D+00
 Gap=    -0.003 Goal=   None    Shift=    0.000
 Gap=     0.165 Goal=   None    Shift=    0.000
 RMSDP=4.57D-03 MaxDP=2.21D-01 DE=-2.04D+00 OVMax= 5.95D-01

 Cycle  10  Pass 1  IDiag  1:
 E= -504.426497129070     Delta-E=        0.067698317040 Rises=F Damp=F
 DIIS: error= 4.51D-02 at cycle   6 NSaved=   6.
 NSaved= 6 IEnMin= 5 EnMin= -504.494195446110     IErMin= 2 ErrMin= 1.68D-02
 ErrMax= 4.51D-02 EMaxC= 1.00D-01 BMatC= 9.03D-01 BMatP= 2.44D-01
 IDIUse=2 WtCom= 0.00D+00 WtEn= 1.00D+00
 EnCoef did     9 forward-backward iterations
 Coeff-En:   0.439D-01 0.000D+00 0.000D+00 0.000D+00 0.571D+00 0.385D+00
 Coeff:      0.439D-01 0.000D+00 0.000D+00 0.000D+00 0.571D+00 0.385D+00
 Gap=     0.057 Goal=   None    Shift=    0.000
 Gap=     0.059 Goal=   None    Shift=    0.000
 RMSDP=2.37D-03 MaxDP=1.23D-01 DE= 6.77D-02 OVMax= 3.04D-01

 Cycle  11  Pass 1  IDiag  1:
 E= -504.553190022283     Delta-E=       -0.126692893213 Rises=F Damp=F
 DIIS: error= 2.63D-02 at cycle   7 NSaved=   7.
 NSaved= 7 IEnMin= 7 EnMin= -504.553190022283     IErMin= 2 ErrMin= 1.68D-02
 ErrMax= 2.63D-02 EMaxC= 1.00D-01 BMatC= 4.46D-01 BMatP= 2.44D-01
 IDIUse=2 WtCom= 0.00D+00 WtEn= 1.00D+00
 EnCoef did     1 forward-backward iterations
 Coeff-En:   0.000D+00 0.000D+00 0.000D+00 0.000D+00 0.410D+00 0.248D+00
 Coeff-En:   0.342D+00
 Coeff:      0.000D+00 0.000D+00 0.000D+00 0.000D+00 0.410D+00 0.248D+00
 Coeff:      0.342D+00
 Gap=     0.048 Goal=   None    Shift=    0.000
 Gap=     0.137 Goal=   None    Shift=    0.000
 RMSDP=2.04D-03 MaxDP=1.13D-01 DE=-1.27D-01 OVMax= 2.67D-01

 Cycle  12  Pass 1  IDiag  1:
 E= -504.652949320382     Delta-E=       -0.099759298099 Rises=F Damp=F
 DIIS: error= 7.93D-03 at cycle   8 NSaved=   8.
 NSaved= 8 IEnMin= 8 EnMin= -504.652949320382     IErMin= 8 ErrMin= 7.93D-03
 ErrMax= 7.93D-03 EMaxC= 1.00D-01 BMatC= 4.48D-02 BMatP= 2.44D-01
 IDIUse=3 WtCom= 9.21D-01 WtEn= 7.93D-02
 Coeff-Com: -0.142D-01 0.149D-01-0.195D-01-0.110D-01 0.717D-01 0.365D-02
 Coeff-Com:  0.220D+00 0.734D+00
 Coeff-En:   0.000D+00 0.000D+00 0.000D+00 0.000D+00 0.000D+00 0.000D+00
 Coeff-En:   0.133D+00 0.867D+00
 Coeff:     -0.131D-01 0.137D-01-0.180D-01-0.101D-01 0.660D-01 0.336D-02
 Coeff:      0.213D+00 0.745D+00
 Gap=     0.068 Goal=   None    Shift=    0.000
 Gap=     0.132 Goal=   None    Shift=    0.000
 RMSDP=6.41D-04 MaxDP=2.86D-02 DE=-9.98D-02 OVMax= 8.22D-02

 Cycle  13  Pass 1  IDiag  1:
 E= -504.664254504775     Delta-E=       -0.011305184392 Rises=F Damp=F
 DIIS: error= 1.82D-03 at cycle   9 NSaved=   9.
 NSaved= 9 IEnMin= 9 EnMin= -504.664254504775     IErMin= 9 ErrMin= 1.82D-03
 ErrMax= 1.82D-03 EMaxC= 1.00D-01 BMatC= 2.22D-03 BMatP= 4.48D-02
 IDIUse=3 WtCom= 9.82D-01 WtEn= 1.82D-02
 Coeff-Com:  0.168D-02 0.107D-01 0.144D-02 0.458D-02-0.151D-01-0.269D-01
 Coeff-Com:  0.170D-02 0.196D+00 0.825D+00
 Coeff-En:   0.000D+00 0.000D+00 0.000D+00 0.000D+00 0.000D+00 0.000D+00
 Coeff-En:   0.000D+00 0.000D+00 0.100D+01
 Coeff:      0.164D-02 0.105D-01 0.141D-02 0.450D-02-0.148D-01-0.264D-01
 Coeff:      0.167D-02 0.193D+00 0.829D+00
 Gap=     0.074 Goal=   None    Shift=    0.000
 Gap=     0.137 Goal=   None    Shift=    0.000
 RMSDP=2.86D-04 MaxDP=1.49D-02 DE=-1.13D-02 OVMax= 3.18D-02

 Cycle  14  Pass 1  IDiag  1:
 E= -504.665566918415     Delta-E=       -0.001312413640 Rises=F Damp=F
 DIIS: error= 1.86D-03 at cycle  10 NSaved=  10.
 NSaved=10 IEnMin=10 EnMin= -504.665566918415     IErMin= 9 ErrMin= 1.82D-03
 ErrMax= 1.86D-03 EMaxC= 1.00D-01 BMatC= 1.29D-03 BMatP= 2.22D-03
 IDIUse=3 WtCom= 9.82D-01 WtEn= 1.82D-02
 Coeff-Com:  0.417D-02 0.634D-02 0.358D-02 0.364D-02 0.541D-02-0.169D-01
 Coeff-Com: -0.513D-01-0.722D-01 0.273D+00 0.845D+00
 Coeff-En:   0.000D+00 0.000D+00 0.000D+00 0.000D+00 0.000D+00 0.000D+00
 Coeff-En:   0.000D+00 0.000D+00 0.000D+00 0.100D+01
 Coeff:      0.410D-02 0.622D-02 0.351D-02 0.357D-02 0.531D-02-0.166D-01
 Coeff:     -0.503D-01-0.709D-01 0.268D+00 0.847D+00
 Gap=     0.077 Goal=   None    Shift=    0.000
 Gap=     0.145 Goal=   None    Shift=    0.000
 RMSDP=2.20D-04 MaxDP=1.03D-02 DE=-1.31D-03 OVMax= 2.86D-02

 Cycle  15  Pass 1  IDiag  1:
 E= -504.666426464744     Delta-E=       -0.000859546330 Rises=F Damp=F
 DIIS: error= 1.13D-03 at cycle  11 NSaved=  11.
 NSaved=11 IEnMin=11 EnMin= -504.666426464744     IErMin=11 ErrMin= 1.13D-03
 ErrMax= 1.13D-03 EMaxC= 1.00D-01 BMatC= 7.60D-04 BMatP= 1.29D-03
 IDIUse=3 WtCom= 9.89D-01 WtEn= 1.13D-02
 Coeff-Com:  0.816D-03 0.389D-02 0.576D-02-0.107D-02 0.285D-01-0.120D-01
 Coeff-Com: -0.239D-01-0.129D+00-0.436D+00 0.428D+00 0.113D+01
 Coeff-En:   0.000D+00 0.000D+00 0.000D+00 0.000D+00 0.000D+00 0.000D+00
 Coeff-En:   0.000D+00 0.000D+00 0.000D+00 0.000D+00 0.100D+01
 Coeff:      0.806D-03 0.384D-02 0.569D-02-0.106D-02 0.282D-01-0.119D-01
 Coeff:     -0.236D-01-0.127D+00-0.431D+00 0.424D+00 0.113D+01
 Gap=     0.081 Goal=   None    Shift=    0.000
 Gap=     0.156 Goal=   None    Shift=    0.000
 RMSDP=2.74D-04 MaxDP=1.25D-02 DE=-8.60D-04 OVMax= 3.19D-02

 Cycle  16  Pass 1  IDiag  1:
 E= -504.667059028822     Delta-E=       -0.000632564078 Rises=F Damp=F
 DIIS: error= 5.53D-04 at cycle  12 NSaved=  12.
 NSaved=12 IEnMin=12 EnMin= -504.667059028822     IErMin=12 ErrMin= 5.53D-04
 ErrMax= 5.53D-04 EMaxC= 1.00D-01 BMatC= 1.36D-04 BMatP= 7.60D-04
 IDIUse=3 WtCom= 9.94D-01 WtEn= 5.53D-03
 Coeff-Com: -0.215D-03 0.113D-03 0.874D-03-0.569D-03 0.148D-01-0.310D-02
 Coeff-Com:  0.864D-03-0.418D-01-0.331D+00-0.465D-01 0.582D+00 0.825D+00
 Coeff-En:   0.000D+00 0.000D+00 0.000D+00 0.000D+00 0.000D+00 0.000D+00
 Coeff-En:   0.000D+00 0.000D+00 0.000D+00 0.000D+00 0.000D+00 0.100D+01
 Coeff:     -0.214D-03 0.113D-03 0.869D-03-0.566D-03 0.147D-01-0.308D-02
 Coeff:      0.859D-03-0.416D-01-0.329D+00-0.462D-01 0.579D+00 0.826D+00
 Gap=     0.084 Goal=   None    Shift=    0.000
 Gap=     0.160 Goal=   None    Shift=    0.000
 RMSDP=1.30D-04 MaxDP=6.29D-03 DE=-6.33D-04 OVMax= 1.37D-02

 Cycle  17  Pass 1  IDiag  1:
 E= -504.667158556761     Delta-E=       -0.000099527938 Rises=F Damp=F
 DIIS: error= 1.55D-04 at cycle  13 NSaved=  13.
 NSaved=13 IEnMin=13 EnMin= -504.667158556761     IErMin=13 ErrMin= 1.55D-04
 ErrMax= 1.55D-04 EMaxC= 1.00D-01 BMatC= 2.05D-05 BMatP= 1.36D-04
 IDIUse=3 WtCom= 9.98D-01 WtEn= 1.55D-03
 Coeff-Com: -0.882D-03 0.421D-03-0.335D-03 0.135D-03 0.183D-02 0.242D-03
 Coeff-Com:  0.511D-02 0.690D-03-0.409D-01-0.797D-01 0.323D-01 0.357D+00
 Coeff-Com:  0.724D+00
 Coeff-En:   0.000D+00 0.000D+00 0.000D+00 0.000D+00 0.000D+00 0.000D+00
 Coeff-En:   0.000D+00 0.000D+00 0.000D+00 0.000D+00 0.000D+00 0.000D+00
 Coeff-En:   0.100D+01
 Coeff:     -0.881D-03 0.420D-03-0.334D-03 0.135D-03 0.183D-02 0.242D-03
 Coeff:      0.510D-02 0.689D-03-0.408D-01-0.795D-01 0.322D-01 0.357D+00
 Coeff:      0.724D+00
 Gap=     0.084 Goal=   None    Shift=    0.000
 Gap=     0.160 Goal=   None    Shift=    0.000
 RMSDP=2.29D-05 MaxDP=1.02D-03 DE=-9.95D-05 OVMax= 2.47D-03

 Cycle  18  Pass 1  IDiag  1:
 E= -504.667170131095     Delta-E=       -0.000011574335 Rises=F Damp=F
 DIIS: error= 8.70D-05 at cycle  14 NSaved=  14.
 NSaved=14 IEnMin=14 EnMin= -504.667170131095     IErMin=14 ErrMin= 8.70D-05
 ErrMax= 8.70D-05 EMaxC= 1.00D-01 BMatC= 4.53D-06 BMatP= 2.05D-05
 IDIUse=1 WtCom= 1.00D+00 WtEn= 0.00D+00
 Coeff-Com: -0.801D-04 0.747D-03 0.108D-03-0.115D-03-0.221D-02 0.352D-03
 Coeff-Com: -0.202D-02 0.808D-03 0.672D-01 0.130D-01-0.787D-01-0.124D+00
 Coeff-Com:  0.151D+00 0.974D+00
 Coeff:     -0.801D-04 0.747D-03 0.108D-03-0.115D-03-0.221D-02 0.352D-03
 Coeff:     -0.202D-02 0.808D-03 0.672D-01 0.130D-01-0.787D-01-0.124D+00
 Coeff:      0.151D+00 0.974D+00
 Gap=     0.084 Goal=   None    Shift=    0.000
 Gap=     0.159 Goal=   None    Shift=    0.000
 RMSDP=3.04D-05 MaxDP=1.62D-03 DE=-1.16D-05 OVMax= 4.84D-03

 Cycle  19  Pass 1  IDiag  1:
 E= -504.667174488837     Delta-E=       -0.000004357742 Rises=F Damp=F
 DIIS: error= 1.09D-04 at cycle  15 NSaved=  15.
 NSaved=15 IEnMin=15 EnMin= -504.667174488837     IErMin=14 ErrMin= 8.70D-05
 ErrMax= 1.09D-04 EMaxC= 1.00D-01 BMatC= 7.70D-06 BMatP= 4.53D-06
 IDIUse=1 WtCom= 1.00D+00 WtEn= 0.00D+00
 Coeff-Com:  0.748D-04 0.715D-03 0.191D-03-0.239D-03-0.169D-02 0.101D-02
 Coeff-Com: -0.194D-02-0.511D-02 0.108D-01 0.139D-02 0.457D-02-0.422D-01
 Coeff-Com: -0.440D-02 0.214D+00 0.823D+00
 Coeff:      0.748D-04 0.715D-03 0.191D-03-0.239D-03-0.169D-02 0.101D-02
 Coeff:     -0.194D-02-0.511D-02 0.108D-01 0.139D-02 0.457D-02-0.422D-01
 Coeff:     -0.440D-02 0.214D+00 0.823D+00
 Gap=     0.084 Goal=   None    Shift=    0.000
 Gap=     0.159 Goal=   None    Shift=    0.000
 RMSDP=1.01D-05 MaxDP=5.39D-04 DE=-4.36D-06 OVMax= 1.10D-03

 Cycle  20  Pass 1  IDiag  1:
 E= -504.667176845844     Delta-E=       -0.000002357007 Rises=F Damp=F
 DIIS: error= 8.34D-05 at cycle  16 NSaved=  16.
 NSaved=16 IEnMin=16 EnMin= -504.667176845844     IErMin=16 ErrMin= 8.34D-05
 ErrMax= 8.34D-05 EMaxC= 1.00D-01 BMatC= 5.64D-06 BMatP= 4.53D-06
 IDIUse=1 WtCom= 1.00D+00 WtEn= 0.00D+00
 Coeff-Com: -0.103D-03 0.261D-03-0.161D-03-0.198D-03-0.143D-03 0.188D-02
 Coeff-Com:  0.809D-03-0.920D-02-0.555D-01-0.235D-01 0.839D-01 0.124D+00
 Coeff-Com: -0.103D-01-0.683D+00 0.245D+00 0.133D+01
 Coeff:     -0.103D-03 0.261D-03-0.161D-03-0.198D-03-0.143D-03 0.188D-02
 Coeff:      0.809D-03-0.920D-02-0.555D-01-0.235D-01 0.839D-01 0.124D+00
 Coeff:     -0.103D-01-0.683D+00 0.245D+00 0.133D+01
 Gap=     0.084 Goal=   None    Shift=    0.000
 Gap=     0.159 Goal=   None    Shift=    0.000
 RMSDP=1.55D-05 MaxDP=7.83D-04 DE=-2.36D-06 OVMax= 1.98D-03

 Cycle  21  Pass 1  IDiag  1:
 E= -504.667179770719     Delta-E=       -0.000002924876 Rises=F Damp=F
 DIIS: error= 3.91D-05 at cycle  17 NSaved=  17.
 NSaved=17 IEnMin=17 EnMin= -504.667179770719     IErMin=17 ErrMin= 3.91D-05
 ErrMax= 3.91D-05 EMaxC= 1.00D-01 BMatC= 8.54D-07 BMatP= 4.53D-06
 IDIUse=1 WtCom= 1.00D+00 WtEn= 0.00D+00
 Coeff-Com: -0.571D-04 0.735D-04-0.278D-05-0.610D-04 0.318D-03 0.309D-03
 Coeff-Com:  0.819D-03-0.435D-02-0.191D-01 0.242D-03 0.315D-01 0.387D-01
 Coeff-Com: -0.272D-01-0.332D+00-0.154D+00 0.433D+00 0.103D+01
 Coeff:     -0.571D-04 0.735D-04-0.278D-05-0.610D-04 0.318D-03 0.309D-03
 Coeff:      0.819D-03-0.435D-02-0.191D-01 0.242D-03 0.315D-01 0.387D-01
 Coeff:     -0.272D-01-0.332D+00-0.154D+00 0.433D+00 0.103D+01
 Gap=     0.084 Goal=   None    Shift=    0.000
 Gap=     0.159 Goal=   None    Shift=    0.000
 RMSDP=1.02D-05 MaxDP=4.32D-04 DE=-2.92D-06 OVMax= 1.17D-03

 Cycle  22  Pass 1  IDiag  1:
 E= -504.667180529837     Delta-E=       -0.000000759117 Rises=F Damp=F
 DIIS: error= 9.23D-06 at cycle  18 NSaved=  18.
 NSaved=18 IEnMin=18 EnMin= -504.667180529837     IErMin=18 ErrMin= 9.23D-06
 ErrMax= 9.23D-06 EMaxC= 1.00D-01 BMatC= 4.79D-08 BMatP= 8.54D-07
 IDIUse=1 WtCom= 1.00D+00 WtEn= 0.00D+00
 Coeff-Com:  0.132D-05 0.307D-05 0.453D-04 0.300D-05 0.151D-03-0.172D-03
 Coeff-Com: -0.158D-04-0.101D-04 0.303D-02 0.488D-02-0.293D-02-0.133D-01
 Coeff-Com: -0.232D-01 0.108D-01-0.619D-02-0.670D-01 0.101D+00 0.992D+00
 Coeff:      0.132D-05 0.307D-05 0.453D-04 0.300D-05 0.151D-03-0.172D-03
 Coeff:     -0.158D-04-0.101D-04 0.303D-02 0.488D-02-0.293D-02-0.133D-01
 Coeff:     -0.232D-01 0.108D-01-0.619D-02-0.670D-01 0.101D+00 0.992D+00
 Gap=     0.084 Goal=   None    Shift=    0.000
 Gap=     0.159 Goal=   None    Shift=    0.000
 RMSDP=3.51D-06 MaxDP=1.34D-04 DE=-7.59D-07 OVMax= 4.65D-04

 Cycle  23  Pass 1  IDiag  1:
 E= -504.667180597116     Delta-E=       -0.000000067279 Rises=F Damp=F
 DIIS: error= 7.12D-06 at cycle  19 NSaved=  19.
 NSaved=19 IEnMin=19 EnMin= -504.667180597116     IErMin=19 ErrMin= 7.12D-06
 ErrMax= 7.12D-06 EMaxC= 1.00D-01 BMatC= 3.45D-08 BMatP= 4.79D-08
 IDIUse=1 WtCom= 1.00D+00 WtEn= 0.00D+00
 Coeff-Com:  0.252D-05 0.571D-05 0.449D-05 0.100D-04 0.523D-04-0.563D-04
 Coeff-Com: -0.858D-04 0.650D-03 0.601D-03-0.242D-03-0.217D-02-0.260D-02
 Coeff-Com: -0.461D-02 0.222D-01 0.178D-01-0.245D-01-0.111D+00 0.232D+00
 Coeff-Com:  0.872D+00
 Coeff:      0.252D-05 0.571D-05 0.449D-05 0.100D-04 0.523D-04-0.563D-04
 Coeff:     -0.858D-04 0.650D-03 0.601D-03-0.242D-03-0.217D-02-0.260D-02
 Coeff:     -0.461D-02 0.222D-01 0.178D-01-0.245D-01-0.111D+00 0.232D+00
 Coeff:      0.872D+00
 Gap=     0.084 Goal=   None    Shift=    0.000
 Gap=     0.159 Goal=   None    Shift=    0.000
 RMSDP=1.12D-06 MaxDP=4.52D-05 DE=-6.73D-08 OVMax= 1.62D-04

 Cycle  24  Pass 1  IDiag  1:
 E= -504.667180616103     Delta-E=       -0.000000018987 Rises=F Damp=F
 DIIS: error= 3.94D-06 at cycle  20 NSaved=  20.
 NSaved=20 IEnMin=20 EnMin= -504.667180616103     IErMin=20 ErrMin= 3.94D-06
 ErrMax= 3.94D-06 EMaxC= 1.00D-01 BMatC= 1.26D-08 BMatP= 3.45D-08
 IDIUse=1 WtCom= 1.00D+00 WtEn= 0.00D+00
 Coeff-Com: -0.875D-06-0.837D-06-0.138D-04 0.299D-05-0.951D-05 0.229D-04
 Coeff-Com:  0.202D-05 0.312D-03-0.165D-02-0.223D-02 0.916D-03 0.454D-02
 Coeff-Com:  0.470D-02-0.411D-02 0.837D-02 0.383D-01-0.658D-01-0.311D+00
 Coeff-Com:  0.348D+00 0.979D+00
 Coeff:     -0.875D-06-0.837D-06-0.138D-04 0.299D-05-0.951D-05 0.229D-04
 Coeff:      0.202D-05 0.312D-03-0.165D-02-0.223D-02 0.916D-03 0.454D-02
 Coeff:      0.470D-02-0.411D-02 0.837D-02 0.383D-01-0.658D-01-0.311D+00
 Coeff:      0.348D+00 0.979D+00
 Gap=     0.084 Goal=   None    Shift=    0.000
 Gap=     0.159 Goal=   None    Shift=    0.000
 RMSDP=1.05D-06 MaxDP=4.29D-05 DE=-1.90D-08 OVMax= 1.54D-04

 Cycle  25  Pass 1  IDiag  1:
 E= -504.667180626646     Delta-E=       -0.000000010543 Rises=F Damp=F
 DIIS: error= 1.91D-06 at cycle  21 NSaved=  20.
 NSaved=20 IEnMin=20 EnMin= -504.667180626646     IErMin=20 ErrMin= 1.91D-06
 ErrMax= 1.91D-06 EMaxC= 1.00D-01 BMatC= 2.17D-09 BMatP= 1.26D-08
 IDIUse=1 WtCom= 1.00D+00 WtEn= 0.00D+00
 Coeff-Com:  0.327D-05-0.889D-05 0.493D-05-0.188D-04-0.187D-04 0.960D-05
 Coeff-Com: -0.128D-03 0.417D-03 0.431D-03 0.427D-04-0.145D-02 0.203D-03
 Coeff-Com: -0.298D-03 0.150D-02 0.237D-02 0.113D-01-0.120D+00-0.225D+00
 Coeff-Com:  0.160D+00 0.117D+01
 Coeff:      0.327D-05-0.889D-05 0.493D-05-0.188D-04-0.187D-04 0.960D-05
 Coeff:     -0.128D-03 0.417D-03 0.431D-03 0.427D-04-0.145D-02 0.203D-03
 Coeff:     -0.298D-03 0.150D-02 0.237D-02 0.113D-01-0.120D+00-0.225D+00
 Coeff:      0.160D+00 0.117D+01
 Gap=     0.084 Goal=   None    Shift=    0.000
 Gap=     0.159 Goal=   None    Shift=    0.000
 RMSDP=8.57D-07 MaxDP=3.75D-05 DE=-1.05D-08 OVMax= 1.33D-04

 Cycle  26  Pass 1  IDiag  1:
 E= -504.667180630817     Delta-E=       -0.000000004171 Rises=F Damp=F
 DIIS: error= 1.11D-06 at cycle  22 NSaved=  20.
 NSaved=20 IEnMin=20 EnMin= -504.667180630817     IErMin=20 ErrMin= 1.11D-06
 ErrMax= 1.11D-06 EMaxC= 1.00D-01 BMatC= 7.89D-10 BMatP= 2.17D-09
 IDIUse=1 WtCom= 1.00D+00 WtEn= 0.00D+00
 Coeff-Com: -0.198D-05 0.239D-05 0.227D-05-0.114D-04-0.273D-05 0.524D-04
 Coeff-Com:  0.935D-03 0.619D-03-0.109D-02-0.150D-02-0.273D-03 0.755D-02
 Coeff-Com: -0.557D-02-0.240D-01 0.863D-02 0.108D+00-0.718D-01-0.272D+00
 Coeff-Com:  0.353D-01 0.122D+01
 Coeff:     -0.198D-05 0.239D-05 0.227D-05-0.114D-04-0.273D-05 0.524D-04
 Coeff:      0.935D-03 0.619D-03-0.109D-02-0.150D-02-0.273D-03 0.755D-02
 Coeff:     -0.557D-02-0.240D-01 0.863D-02 0.108D+00-0.718D-01-0.272D+00
 Coeff:      0.353D-01 0.122D+01
 Gap=     0.084 Goal=   None    Shift=    0.000
 Gap=     0.159 Goal=   None    Shift=    0.000
 RMSDP=4.39D-07 MaxDP=1.94D-05 DE=-4.17D-09 OVMax= 6.66D-05

 Cycle  27  Pass 1  IDiag  1:
 E= -504.667180631581     Delta-E=       -0.000000000764 Rises=F Damp=F
 DIIS: error= 5.48D-07 at cycle  23 NSaved=  20.
 NSaved=20 IEnMin=20 EnMin= -504.667180631581     IErMin=20 ErrMin= 5.48D-07
 ErrMax= 5.48D-07 EMaxC= 1.00D-01 BMatC= 2.23D-10 BMatP= 7.89D-10
 IDIUse=1 WtCom= 1.00D+00 WtEn= 0.00D+00
 Coeff-Com: -0.272D-05 0.350D-05 0.304D-06 0.376D-05 0.530D-04 0.261D-03
 Coeff-Com:  0.109D-03-0.457D-03-0.236D-03-0.411D-04 0.335D-02-0.360D-02
 Coeff-Com: -0.986D-02 0.667D-02 0.673D-01-0.161D-01-0.154D+00-0.144D+00
 Coeff-Com:  0.512D+00 0.739D+00
 Coeff:     -0.272D-05 0.350D-05 0.304D-06 0.376D-05 0.530D-04 0.261D-03
 Coeff:      0.109D-03-0.457D-03-0.236D-03-0.411D-04 0.335D-02-0.360D-02
 Coeff:     -0.986D-02 0.667D-02 0.673D-01-0.161D-01-0.154D+00-0.144D+00
 Coeff:      0.512D+00 0.739D+00
 Gap=     0.084 Goal=   None    Shift=    0.000
 Gap=     0.159 Goal=   None    Shift=    0.000
 RMSDP=1.58D-07 MaxDP=6.81D-06 DE=-7.64D-10 OVMax= 2.11D-05

 Cycle  28  Pass 1  IDiag  1:
 E= -504.667180631756     Delta-E=       -0.000000000175 Rises=F Damp=F
 DIIS: error= 2.66D-07 at cycle  24 NSaved=  20.
 NSaved=20 IEnMin=20 EnMin= -504.667180631756     IErMin=20 ErrMin= 2.66D-07
 ErrMax= 2.66D-07 EMaxC= 1.00D-01 BMatC= 4.81D-11 BMatP= 2.23D-10
 IDIUse=1 WtCom= 1.00D+00 WtEn= 0.00D+00
 Coeff-Com:  0.723D-07 0.134D-05 0.213D-05 0.233D-04-0.269D-04-0.572D-04
 Coeff-Com: -0.792D-04 0.287D-04-0.949D-04 0.628D-03-0.281D-03 0.332D-03
 Coeff-Com:  0.198D-02 0.912D-02 0.589D-03-0.151D-01-0.564D-01-0.316D-01
 Coeff-Com:  0.253D+00 0.838D+00
 Coeff:      0.723D-07 0.134D-05 0.213D-05 0.233D-04-0.269D-04-0.572D-04
 Coeff:     -0.792D-04 0.287D-04-0.949D-04 0.628D-03-0.281D-03 0.332D-03
 Coeff:      0.198D-02 0.912D-02 0.589D-03-0.151D-01-0.564D-01-0.316D-01
 Coeff:      0.253D+00 0.838D+00
 Gap=     0.084 Goal=   None    Shift=    0.000
 Gap=     0.159 Goal=   None    Shift=    0.000
 RMSDP=7.59D-08 MaxDP=3.38D-06 DE=-1.75D-10 OVMax= 1.07D-05

 Cycle  29  Pass 1  IDiag  1:
 E= -504.667180631784     Delta-E=       -0.000000000028 Rises=F Damp=F
 DIIS: error= 8.81D-08 at cycle  25 NSaved=  20.
 NSaved=20 IEnMin=20 EnMin= -504.667180631784     IErMin=20 ErrMin= 8.81D-08
 ErrMax= 8.81D-08 EMaxC= 1.00D-01 BMatC= 5.32D-12 BMatP= 4.81D-11
 IDIUse=1 WtCom= 1.00D+00 WtEn= 0.00D+00
 Coeff-Com:  0.602D-06-0.439D-06 0.276D-06 0.100D-05 0.926D-05-0.223D-04
 Coeff-Com: -0.105D-03-0.133D-03 0.254D-03 0.387D-03 0.368D-03 0.588D-04
 Coeff-Com: -0.954D-03-0.232D-02 0.438D-02 0.269D-02-0.465D-01-0.484D-02
 Coeff-Com:  0.291D+00 0.755D+00
 Coeff:      0.602D-06-0.439D-06 0.276D-06 0.100D-05 0.926D-05-0.223D-04
 Coeff:     -0.105D-03-0.133D-03 0.254D-03 0.387D-03 0.368D-03 0.588D-04
 Coeff:     -0.954D-03-0.232D-02 0.438D-02 0.269D-02-0.465D-01-0.484D-02
 Coeff:      0.291D+00 0.755D+00
 Gap=     0.084 Goal=   None    Shift=    0.000
 Gap=     0.159 Goal=   None    Shift=    0.000
 RMSDP=1.11D-08 MaxDP=2.71D-07 DE=-2.82D-11 OVMax= 9.87D-07

 Cycle  30  Pass 1  IDiag  1:
 E= -504.667180631787     Delta-E=       -0.000000000003 Rises=F Damp=F
 DIIS: error= 2.35D-08 at cycle  26 NSaved=  20.
 NSaved=20 IEnMin=20 EnMin= -504.667180631787     IErMin=20 ErrMin= 2.35D-08
 ErrMax= 2.35D-08 EMaxC= 1.00D-01 BMatC= 6.91D-13 BMatP= 5.32D-12
 IDIUse=1 WtCom= 1.00D+00 WtEn= 0.00D+00
 Coeff-Com: -0.207D-06-0.292D-05-0.391D-05 0.275D-05 0.103D-04-0.204D-04
 Coeff-Com: -0.285D-04-0.901D-04 0.243D-03 0.357D-03-0.338D-03-0.218D-02
 Coeff-Com: -0.304D-03 0.411D-02 0.594D-02-0.906D-02-0.366D-01-0.220D-01
 Coeff-Com:  0.222D+00 0.838D+00
 Coeff:     -0.207D-06-0.292D-05-0.391D-05 0.275D-05 0.103D-04-0.204D-04
 Coeff:     -0.285D-04-0.901D-04 0.243D-03 0.357D-03-0.338D-03-0.218D-02
 Coeff:     -0.304D-03 0.411D-02 0.594D-02-0.906D-02-0.366D-01-0.220D-01
 Coeff:      0.222D+00 0.838D+00
 Gap=     0.084 Goal=   None    Shift=    0.000
 Gap=     0.159 Goal=   None    Shift=    0.000
 RMSDP=5.81D-09 MaxDP=1.72D-07 DE=-2.50D-12 OVMax= 5.71D-07

 SCF Done:  E(UB3LYP) =  -504.667180632     A.U. after   30 cycles
             Convg  =    0.5809D-08             -V/T =  2.0094
 <Sx>= 0.0000 <Sy>= 0.0000 <Sz>= 0.5000 <S**2>= 0.8799 S= 0.5630
 <L.S>= 0.000000000000E+00
 KE= 4.999622006658D+02 PE=-2.484104325591D+03 EE= 8.243714204592D+02
 Annihilation of the first spin contaminant:
 S**2 before annihilation     0.8799,   after     0.7516
 Leave Link  502 at Fri Jun  5 23:52:12 2015, MaxMem= 3758096384 cpu:     963.4
 (Enter /share/apps/g09/l601.exe)
 Copying SCF densities to generalized density rwf, IOpCl= 1 IROHF=0.

 **********************************************************************

            Population analysis using the SCF density.

 **********************************************************************

 Alpha  occ. eigenvalues --  -19.16356 -19.14505 -10.25431 -10.21072 -10.19793
 Alpha  occ. eigenvalues --  -10.19172 -10.18366 -10.18307 -10.17714 -10.17400
 Alpha  occ. eigenvalues --  -10.16651  -1.02175  -0.92815  -0.82512  -0.78034
 Alpha  occ. eigenvalues --   -0.74252  -0.69279  -0.68718  -0.68458  -0.58998
 Alpha  occ. eigenvalues --   -0.56514  -0.53064  -0.47569  -0.47030  -0.45951
 Alpha  occ. eigenvalues --   -0.45363  -0.44279  -0.43541  -0.41751  -0.40701
 Alpha  occ. eigenvalues --   -0.39958  -0.38798  -0.38325  -0.38200  -0.37018
 Alpha  occ. eigenvalues --   -0.36050  -0.35237  -0.34918  -0.33757  -0.33070
 Alpha  occ. eigenvalues --   -0.32763  -0.30710  -0.27876  -0.24050  -0.17656
 Alpha virt. eigenvalues --   -0.09257   0.07840   0.09831   0.10499   0.12016
 Alpha virt. eigenvalues --    0.12574   0.12928   0.14492   0.14857   0.14934
 Alpha virt. eigenvalues --    0.15442   0.16074   0.16586   0.17775   0.17921
 Alpha virt. eigenvalues --    0.18851   0.19144   0.19726   0.21003   0.22359
 Alpha virt. eigenvalues --    0.22502   0.23728   0.24155   0.24824   0.25314
 Alpha virt. eigenvalues --    0.27846   0.30851   0.31129   0.36930   0.48085
 Alpha virt. eigenvalues --    0.48497   0.49125   0.50368   0.51592   0.52735
 Alpha virt. eigenvalues --    0.54766   0.57554   0.58094   0.60014   0.60195
 Alpha virt. eigenvalues --    0.61991   0.64760   0.66895   0.68023   0.69744
 Alpha virt. eigenvalues --    0.71174   0.71903   0.73227   0.73588   0.75076
 Alpha virt. eigenvalues --    0.79094   0.80793   0.81578   0.82778   0.83440
 Alpha virt. eigenvalues --    0.83977   0.86555   0.87761   0.88301   0.88660
 Alpha virt. eigenvalues --    0.89245   0.89676   0.90128   0.91888   0.92241
 Alpha virt. eigenvalues --    0.92898   0.93899   0.94380   0.95383   0.96850
 Alpha virt. eigenvalues --    0.97248   0.98531   0.99132   0.99235   1.00603
 Alpha virt. eigenvalues --    1.04442   1.05926   1.06484   1.10462   1.15535
 Alpha virt. eigenvalues --    1.17768   1.19542   1.22468   1.28302   1.33243
 Alpha virt. eigenvalues --    1.37564   1.38785   1.44044   1.44860   1.45101
 Alpha virt. eigenvalues --    1.47912   1.49374   1.51320   1.53175   1.57570
 Alpha virt. eigenvalues --    1.64979   1.66758   1.70866   1.72003   1.74133
 Alpha virt. eigenvalues --    1.75214   1.78369   1.79200   1.80041   1.81788
 Alpha virt. eigenvalues --    1.85815   1.86289   1.89340   1.91578   1.92962
 Alpha virt. eigenvalues --    1.98169   1.99424   2.00808   2.01511   2.03165
 Alpha virt. eigenvalues --    2.06937   2.09035   2.10130   2.11185   2.13446
 Alpha virt. eigenvalues --    2.14876   2.16017   2.21949   2.22471   2.24611
 Alpha virt. eigenvalues --    2.25135   2.25662   2.26555   2.29842   2.30787
 Alpha virt. eigenvalues --    2.36740   2.38913   2.45844   2.48346   2.49776
 Alpha virt. eigenvalues --    2.51897   2.55302   2.57080   2.61505   2.67925
 Alpha virt. eigenvalues --    2.69858   2.72407   2.77320   2.78744   2.81618
 Alpha virt. eigenvalues --    2.85722   2.99715   3.62546   3.93510   4.12467
 Alpha virt. eigenvalues --    4.15672   4.26562   4.28590   4.31757   4.38290
 Alpha virt. eigenvalues --    4.45552   4.56614   4.63093
  Beta  occ. eigenvalues --  -19.16398 -19.13279 -10.25159 -10.20202 -10.19724
  Beta  occ. eigenvalues --  -10.19228 -10.18593 -10.18354 -10.17712 -10.17395
  Beta  occ. eigenvalues --  -10.16637  -1.01859  -0.90125  -0.81981  -0.77574
  Beta  occ. eigenvalues --   -0.73904  -0.69227  -0.68707  -0.68463  -0.58234
  Beta  occ. eigenvalues --   -0.56197  -0.52598  -0.47265  -0.46760  -0.45324
  Beta  occ. eigenvalues --   -0.45099  -0.43913  -0.43271  -0.41585  -0.40325
  Beta  occ. eigenvalues --   -0.39431  -0.38759  -0.38268  -0.37557  -0.36774
  Beta  occ. eigenvalues --   -0.35993  -0.35194  -0.34815  -0.33545  -0.32963
  Beta  occ. eigenvalues --   -0.32587  -0.27938  -0.27212  -0.23102
  Beta virt. eigenvalues --   -0.07241  -0.04910   0.07928   0.10027   0.10671
  Beta virt. eigenvalues --    0.12162   0.12812   0.13143   0.14704   0.14894
  Beta virt. eigenvalues --    0.15003   0.15576   0.16110   0.16694   0.17992
  Beta virt. eigenvalues --    0.18160   0.18936   0.19225   0.19837   0.21092
  Beta virt. eigenvalues --    0.22560   0.22728   0.23849   0.24286   0.24986
  Beta virt. eigenvalues --    0.25530   0.28035   0.31418   0.31756   0.37303
  Beta virt. eigenvalues --    0.48050   0.48721   0.49269   0.50652   0.51758
  Beta virt. eigenvalues --    0.52817   0.55256   0.57837   0.58146   0.60106
  Beta virt. eigenvalues --    0.60335   0.63703   0.64935   0.67061   0.68233
  Beta virt. eigenvalues --    0.69912   0.71449   0.72015   0.73450   0.73813
  Beta virt. eigenvalues --    0.75586   0.79261   0.81223   0.81767   0.83300
  Beta virt. eigenvalues --    0.83842   0.84337   0.86920   0.88253   0.88517
  Beta virt. eigenvalues --    0.88861   0.89377   0.89771   0.90268   0.92062
  Beta virt. eigenvalues --    0.92332   0.92976   0.94031   0.94546   0.95489
  Beta virt. eigenvalues --    0.97064   0.97318   0.98612   0.99190   0.99438
  Beta virt. eigenvalues --    1.00989   1.04991   1.06381   1.07389   1.10724
  Beta virt. eigenvalues --    1.15933   1.18249   1.20025   1.22978   1.29362
  Beta virt. eigenvalues --    1.33831   1.38264   1.39122   1.44294   1.44968
  Beta virt. eigenvalues --    1.45299   1.48600   1.49789   1.51607   1.53963
  Beta virt. eigenvalues --    1.58491   1.65437   1.67104   1.71302   1.72427
  Beta virt. eigenvalues --    1.74304   1.75983   1.78689   1.79452   1.80400
  Beta virt. eigenvalues --    1.82130   1.86190   1.86915   1.90162   1.92046
  Beta virt. eigenvalues --    1.93135   1.98821   1.99838   2.01706   2.02021
  Beta virt. eigenvalues --    2.03617   2.07871   2.09208   2.10603   2.11471
  Beta virt. eigenvalues --    2.14064   2.15107   2.16337   2.22261   2.22851
  Beta virt. eigenvalues --    2.24728   2.25146   2.25680   2.26799   2.29944
  Beta virt. eigenvalues --    2.31200   2.36984   2.39591   2.46063   2.48669
  Beta virt. eigenvalues --    2.49929   2.52202   2.56080   2.57636   2.61884
  Beta virt. eigenvalues --    2.68244   2.70094   2.72688   2.78315   2.79262
  Beta virt. eigenvalues --    2.82009   2.86339   3.00010   3.64266   3.93592
  Beta virt. eigenvalues --    4.12883   4.15697   4.27155   4.28635   4.31779
  Beta virt. eigenvalues --    4.38289   4.46178   4.56757   4.63529
          Condensed to atoms (all electrons):
              1          2          3          4          5          6
     1  C    5.188063   0.364889   0.359398   0.339685  -0.037048   0.003032
     2  H    0.364889   0.561099  -0.028418  -0.030326   0.005158  -0.000123
     3  H    0.359398  -0.028418   0.549167  -0.024536  -0.007577   0.000016
     4  H    0.339685  -0.030326  -0.024536   0.588951  -0.006505   0.000277
     5  C   -0.037048   0.005158  -0.007577  -0.006505   5.220312   0.371950
     6  H    0.003032  -0.000123   0.000016   0.000277   0.371950   0.497940
     7  H   -0.010603  -0.000074   0.005493   0.001066   0.353699  -0.028351
     8  C   -0.013966   0.000230   0.000330   0.013647   0.426916  -0.039142
     9  H    0.000858  -0.000015   0.000082   0.001183  -0.041214   0.004570
    10  C   -0.000384   0.000001   0.000022   0.000117  -0.032230  -0.007445
    11  H    0.000024   0.000001  -0.000001   0.000009  -0.004504   0.005086
    12  H    0.000200  -0.000009  -0.000001  -0.000217   0.001298   0.000167
    13  C   -0.000010   0.000000   0.000000   0.000016   0.000415  -0.000060
    14  H    0.000000   0.000000   0.000000  -0.000001   0.000074   0.000019
    15  C    0.000000   0.000000   0.000000   0.000000   0.000012   0.000220
    16  H    0.000001   0.000000   0.000000  -0.000001   0.000439   0.000125
    17  H    0.000000   0.000000   0.000000   0.000000   0.000008  -0.000003
    18  H    0.000000   0.000000   0.000000   0.000000   0.000105   0.000136
    19  C   -0.076461  -0.005515   0.005956   0.002186  -0.060311  -0.004877
    20  H   -0.003429   0.004148  -0.000100  -0.000331   0.004254   0.000011
    21  H    0.004445  -0.000057  -0.000168   0.000032  -0.003387   0.002033
    22  H   -0.000423   0.000106  -0.000091   0.001150  -0.000331   0.000229
    23  C    0.000000   0.000000   0.000000   0.000000  -0.000075  -0.000009
    24  H    0.000000   0.000000   0.000000   0.000000   0.000002   0.000000
    25  H    0.000000   0.000000   0.000000   0.000000  -0.000001   0.000000
    26  H    0.000000   0.000000   0.000000   0.000000   0.000001  -0.000001
    27  C    0.384369  -0.027791  -0.022871  -0.032540   0.214913  -0.021995
    28  O   -0.053610  -0.001611   0.002570   0.004273  -0.038383  -0.009571
    29  O    0.002067  -0.000075   0.000006  -0.000008  -0.011457   0.018993
    30  H   -0.000169   0.000011  -0.000004  -0.000001   0.001140  -0.000951
              7          8          9         10         11         12
     1  C   -0.010603  -0.013966   0.000858  -0.000384   0.000024   0.000200
     2  H   -0.000074   0.000230  -0.000015   0.000001   0.000001  -0.000009
     3  H    0.005493   0.000330   0.000082   0.000022  -0.000001  -0.000001
     4  H    0.001066   0.013647   0.001183   0.000117   0.000009  -0.000217
     5  C    0.353699   0.426916  -0.041214  -0.032230  -0.004504   0.001298
     6  H   -0.028351  -0.039142   0.004570  -0.007445   0.005086   0.000167
     7  H    0.571332  -0.030675  -0.006535   0.004640   0.000067  -0.000157
     8  C   -0.030675   5.085285   0.360961   0.388345  -0.041121  -0.037553
     9  H   -0.006535   0.360961   0.591696  -0.052529   0.005343  -0.001981
    10  C    0.004640   0.388345  -0.052529   5.058469   0.367411   0.358183
    11  H    0.000067  -0.041121   0.005343   0.367411   0.582885  -0.035563
    12  H   -0.000157  -0.037553  -0.001981   0.358183  -0.035563   0.605484
    13  C   -0.000103  -0.037320  -0.002861   0.367193  -0.033705  -0.040076
    14  H    0.000008  -0.004199   0.004709  -0.050410   0.006009  -0.003490
    15  C   -0.000033  -0.005012  -0.000430  -0.051154  -0.007122   0.005801
    16  H    0.000098   0.009038   0.000203  -0.006076  -0.000110   0.000082
    17  H   -0.000001   0.000168  -0.000004   0.005061  -0.000024  -0.000164
    18  H    0.000001  -0.000242   0.000061  -0.005664   0.005095  -0.000009
    19  C    0.005154  -0.000358  -0.000141   0.000473   0.000643  -0.000585
    20  H   -0.000140   0.000253   0.000007  -0.000019   0.000018  -0.000034
    21  H    0.000003  -0.000786   0.000008  -0.000036   0.000918   0.000053
    22  H   -0.000059   0.001783  -0.000018   0.000743  -0.000212   0.001691
    23  C    0.000002   0.004219  -0.000022  -0.045529  -0.003640  -0.004456
    24  H    0.000000  -0.000135   0.000003   0.004701  -0.000083   0.000012
    25  H    0.000000   0.000028  -0.000003  -0.004238  -0.000266   0.005544
    26  H    0.000000   0.000103   0.000006  -0.006103   0.004486  -0.000342
    27  C   -0.024799  -0.033643  -0.000828  -0.002144  -0.000530   0.000566
    28  O    0.001445   0.001620  -0.000034   0.000006  -0.000018   0.000004
    29  O    0.001196   0.000948  -0.000004  -0.000004  -0.000026  -0.000001
    30  H   -0.000137  -0.000049   0.000000   0.000000   0.000001   0.000000
             13         14         15         16         17         18
     1  C   -0.000010   0.000000   0.000000   0.000001   0.000000   0.000000
     2  H    0.000000   0.000000   0.000000   0.000000   0.000000   0.000000
     3  H    0.000000   0.000000   0.000000   0.000000   0.000000   0.000000
     4  H    0.000016  -0.000001   0.000000  -0.000001   0.000000   0.000000
     5  C    0.000415   0.000074   0.000012   0.000439   0.000008   0.000105
     6  H   -0.000060   0.000019   0.000220   0.000125  -0.000003   0.000136
     7  H   -0.000103   0.000008  -0.000033   0.000098  -0.000001   0.000001
     8  C   -0.037320  -0.004199  -0.005012   0.009038   0.000168  -0.000242
     9  H   -0.002861   0.004709  -0.000430   0.000203  -0.000004   0.000061
    10  C    0.367193  -0.050410  -0.051154  -0.006076   0.005061  -0.005664
    11  H   -0.033705   0.006009  -0.007122  -0.000110  -0.000024   0.005095
    12  H   -0.040076  -0.003490   0.005801   0.000082  -0.000164  -0.000009
    13  C    4.875599   0.379674   0.383187  -0.029602  -0.030626  -0.035431
    14  H    0.379674   0.637043  -0.047019  -0.003056  -0.003646   0.005854
    15  C    0.383187  -0.047019   5.106034   0.369258   0.372093   0.373739
    16  H   -0.029602  -0.003056   0.369258   0.563924  -0.029456  -0.030214
    17  H   -0.030626  -0.003646   0.372093  -0.029456   0.574507  -0.031164
    18  H   -0.035431   0.005854   0.373739  -0.030214  -0.031164   0.574390
    19  C    0.000079   0.000000  -0.000004   0.000000   0.000000   0.000000
    20  H   -0.000001   0.000000   0.000000   0.000000   0.000000   0.000000
    21  H   -0.000005   0.000000   0.000000   0.000000   0.000000   0.000000
    22  H    0.000100  -0.000002   0.000002   0.000000   0.000000   0.000000
    23  C    0.373419  -0.045587  -0.054665   0.005276  -0.003512  -0.005323
    24  H   -0.028690  -0.003471  -0.003273  -0.000053   0.003996  -0.000242
    25  H   -0.030342  -0.003365   0.005217  -0.000180  -0.000022  -0.000031
    26  H   -0.033751   0.005798  -0.005222  -0.000033  -0.000269   0.004837
    27  C   -0.000020  -0.000002   0.000005   0.000022   0.000000   0.000001
    28  O    0.000000   0.000000   0.000000   0.000000   0.000000   0.000000
    29  O    0.000000   0.000000   0.000000  -0.000001   0.000000   0.000000
    30  H    0.000000   0.000000   0.000000   0.000000   0.000000   0.000000
             19         20         21         22         23         24
     1  C   -0.076461  -0.003429   0.004445  -0.000423   0.000000   0.000000
     2  H   -0.005515   0.004148  -0.000057   0.000106   0.000000   0.000000
     3  H    0.005956  -0.000100  -0.000168  -0.000091   0.000000   0.000000
     4  H    0.002186  -0.000331   0.000032   0.001150   0.000000   0.000000
     5  C   -0.060311   0.004254  -0.003387  -0.000331  -0.000075   0.000002
     6  H   -0.004877   0.000011   0.002033   0.000229  -0.000009   0.000000
     7  H    0.005154  -0.000140   0.000003  -0.000059   0.000002   0.000000
     8  C   -0.000358   0.000253  -0.000786   0.001783   0.004219  -0.000135
     9  H   -0.000141   0.000007   0.000008  -0.000018  -0.000022   0.000003
    10  C    0.000473  -0.000019  -0.000036   0.000743  -0.045529   0.004701
    11  H    0.000643   0.000018   0.000918  -0.000212  -0.003640  -0.000083
    12  H   -0.000585  -0.000034   0.000053   0.001691  -0.004456   0.000012
    13  C    0.000079  -0.000001  -0.000005   0.000100   0.373419  -0.028690
    14  H    0.000000   0.000000   0.000000  -0.000002  -0.045587  -0.003471
    15  C   -0.000004   0.000000   0.000000   0.000002  -0.054665  -0.003273
    16  H    0.000000   0.000000   0.000000   0.000000   0.005276  -0.000053
    17  H    0.000000   0.000000   0.000000   0.000000  -0.003512   0.003996
    18  H    0.000000   0.000000   0.000000   0.000000  -0.005323  -0.000242
    19  C    5.243114   0.358055   0.367855   0.341515   0.000000   0.000000
    20  H    0.358055   0.569347  -0.025070  -0.029025   0.000000   0.000000
    21  H    0.367855  -0.025070   0.521119  -0.027273   0.000000   0.000000
    22  H    0.341515  -0.029025  -0.027273   0.593503  -0.000005   0.000000
    23  C    0.000000   0.000000   0.000000  -0.000005   5.109506   0.370736
    24  H    0.000000   0.000000   0.000000   0.000000   0.370736   0.572259
    25  H    0.000000   0.000000   0.000000  -0.000002   0.369950  -0.029838
    26  H   -0.000001   0.000000   0.000000   0.000000   0.373423  -0.031284
    27  C    0.351075  -0.026839  -0.023716  -0.022213   0.000001   0.000000
    28  O   -0.062819   0.000949  -0.004010   0.003566   0.000000   0.000000
    29  O   -0.002850  -0.000409   0.011642   0.000205   0.000000   0.000000
    30  H    0.000422   0.000045  -0.000451  -0.000014   0.000000   0.000000
             25         26         27         28         29         30
     1  C    0.000000   0.000000   0.384369  -0.053610   0.002067  -0.000169
     2  H    0.000000   0.000000  -0.027791  -0.001611  -0.000075   0.000011
     3  H    0.000000   0.000000  -0.022871   0.002570   0.000006  -0.000004
     4  H    0.000000   0.000000  -0.032540   0.004273  -0.000008  -0.000001
     5  C   -0.000001   0.000001   0.214913  -0.038383  -0.011457   0.001140
     6  H    0.000000  -0.000001  -0.021995  -0.009571   0.018993  -0.000951
     7  H    0.000000   0.000000  -0.024799   0.001445   0.001196  -0.000137
     8  C    0.000028   0.000103  -0.033643   0.001620   0.000948  -0.000049
     9  H   -0.000003   0.000006  -0.000828  -0.000034  -0.000004   0.000000
    10  C   -0.004238  -0.006103  -0.002144   0.000006  -0.000004   0.000000
    11  H   -0.000266   0.004486  -0.000530  -0.000018  -0.000026   0.000001
    12  H    0.005544  -0.000342   0.000566   0.000004  -0.000001   0.000000
    13  C   -0.030342  -0.033751  -0.000020   0.000000   0.000000   0.000000
    14  H   -0.003365   0.005798  -0.000002   0.000000   0.000000   0.000000
    15  C    0.005217  -0.005222   0.000005   0.000000   0.000000   0.000000
    16  H   -0.000180  -0.000033   0.000022   0.000000  -0.000001   0.000000
    17  H   -0.000022  -0.000269   0.000000   0.000000   0.000000   0.000000
    18  H   -0.000031   0.004837   0.000001   0.000000   0.000000   0.000000
    19  C    0.000000  -0.000001   0.351075  -0.062819  -0.002850   0.000422
    20  H    0.000000   0.000000  -0.026839   0.000949  -0.000409   0.000045
    21  H    0.000000   0.000000  -0.023716  -0.004010   0.011642  -0.000451
    22  H   -0.000002   0.000000  -0.022213   0.003566   0.000205  -0.000014
    23  C    0.369950   0.373423   0.000001   0.000000   0.000000   0.000000
    24  H   -0.029838  -0.031284   0.000000   0.000000   0.000000   0.000000
    25  H    0.577791  -0.031263   0.000000   0.000000   0.000000   0.000000
    26  H   -0.031263   0.575476   0.000000   0.000000   0.000000   0.000000
    27  C    0.000000   0.000000   4.691176   0.272287  -0.022042   0.000533
    28  O    0.000000   0.000000   0.272287   8.213527   0.028662   0.003259
    29  O    0.000000   0.000000  -0.022042   0.028662   8.287761   0.196098
    30  H    0.000000   0.000000   0.000533   0.003259   0.196098   0.410635
 Mulliken atomic charges:
              1
     1  C   -0.450926
     2  H    0.158373
     3  H    0.160728
     4  H    0.141874
     5  C   -0.357669
     6  H    0.207726
     7  H    0.157461
     8  C   -0.049674
     9  H    0.136926
    10  C   -0.291404
    11  H    0.148929
    12  H    0.145556
    13  C   -0.077077
    14  H    0.125061
    15  C   -0.441635
    16  H    0.150315
    17  H    0.143058
    18  H    0.144101
    19  C   -0.462606
    20  H    0.148309
    21  H    0.176848
    22  H    0.135076
    23  C   -0.443711
    24  H    0.145360
    25  H    0.141020
    26  H    0.144139
    27  C    0.347026
    28  O   -0.362111
    29  O   -0.510701
    30  H    0.389632
 Sum of Mulliken atomic charges =   0.00000
 Mulliken charges with hydrogens summed into heavy atoms:
              1
     1  C    0.010048
     5  C    0.007518
     8  C    0.087252
    10  C    0.003081
    13  C    0.047984
    15  C   -0.004162
    19  C   -0.002374
    23  C   -0.013192
    27  C    0.347026
    28  O   -0.362111
    29  O   -0.121069
 Sum of Mulliken charges with hydrogens summed into heavy atoms =   0.00000
          Atomic-Atomic Spin Densities.
              1          2          3          4          5          6
     1  C   -0.024202   0.009008  -0.003867  -0.015144   0.011946  -0.000162
     2  H    0.009008   0.000238  -0.000404  -0.004185  -0.000664   0.000002
     3  H   -0.003867  -0.000404   0.002818   0.002894   0.000630   0.000013
     4  H   -0.015144  -0.004185   0.002894   0.023816  -0.003018   0.000100
     5  C    0.011946  -0.000664   0.000630  -0.003018  -0.181166   0.009985
     6  H   -0.000162   0.000002   0.000013   0.000100   0.009985   0.011397
     7  H   -0.002050  -0.000028   0.000728   0.001228   0.007033   0.001331
     8  C   -0.008723  -0.000088   0.000588   0.011215   0.001335  -0.004411
     9  H   -0.000065  -0.000001   0.000008   0.000119   0.000444  -0.000040
    10  C   -0.000051  -0.000002   0.000007   0.000115  -0.002984   0.000791
    11  H   -0.000006   0.000000   0.000000   0.000009   0.000589   0.000124
    12  H    0.000122   0.000002  -0.000003  -0.000347   0.000244  -0.000135
    13  C   -0.000005   0.000000   0.000000   0.000018  -0.000036   0.000152
    14  H    0.000000   0.000000   0.000000  -0.000001   0.000022  -0.000001
    15  C    0.000000   0.000000   0.000000   0.000000  -0.000017   0.000032
    16  H    0.000000   0.000000   0.000000  -0.000001  -0.000186  -0.000094
    17  H    0.000000   0.000000   0.000000   0.000000  -0.000003  -0.000001
    18  H    0.000000   0.000000   0.000000   0.000000   0.000005  -0.000014
    19  C   -0.007266   0.000004   0.000230   0.003184   0.006057   0.000516
    20  H    0.001713  -0.000143  -0.000015  -0.000485  -0.000627   0.000002
    21  H   -0.000328   0.000024  -0.000001   0.000040   0.001039  -0.000045
    22  H    0.000001  -0.000055   0.000008   0.000023  -0.000549   0.000078
    23  C    0.000000   0.000000   0.000000   0.000000   0.000001  -0.000005
    24  H    0.000000   0.000000   0.000000   0.000000   0.000000   0.000000
    25  H    0.000000   0.000000   0.000000   0.000000   0.000000   0.000000
    26  H    0.000000   0.000000   0.000000   0.000000   0.000000   0.000000
    27  C    0.006798  -0.001134  -0.002335  -0.007937  -0.017156  -0.008176
    28  O    0.004575  -0.002189   0.001388   0.000598   0.008566  -0.001389
    29  O   -0.000214  -0.000043   0.000075   0.000040  -0.000132   0.000015
    30  H    0.000008   0.000005  -0.000006  -0.000002  -0.000066   0.000045
              7          8          9         10         11         12
     1  C   -0.002050  -0.008723  -0.000065  -0.000051  -0.000006   0.000122
     2  H   -0.000028  -0.000088  -0.000001  -0.000002   0.000000   0.000002
     3  H    0.000728   0.000588   0.000008   0.000007   0.000000  -0.000003
     4  H    0.001228   0.011215   0.000119   0.000115   0.000009  -0.000347
     5  C    0.007033   0.001335   0.000444  -0.002984   0.000589   0.000244
     6  H    0.001331  -0.004411  -0.000040   0.000791   0.000124  -0.000135
     7  H    0.025430  -0.004869   0.000397   0.000385   0.000031  -0.000078
     8  C   -0.004869   0.729104  -0.002087  -0.023015  -0.001567  -0.012440
     9  H    0.000397  -0.002087  -0.031368   0.001140  -0.000106  -0.000060
    10  C    0.000385  -0.023015   0.001140  -0.043654   0.002184   0.006182
    11  H    0.000031  -0.001567  -0.000106   0.002184   0.000901  -0.001662
    12  H   -0.000078  -0.012440  -0.000060   0.006182  -0.001662   0.044147
    13  C    0.000067  -0.016037   0.000467   0.008597   0.001106  -0.011789
    14  H   -0.000001   0.000131  -0.000083   0.000590  -0.000018   0.000032
    15  C    0.000033  -0.001426   0.000020   0.000283  -0.000095   0.000380
    16  H   -0.000118   0.004459  -0.000034  -0.000846  -0.000030   0.000086
    17  H    0.000000   0.000014   0.000000  -0.000088   0.000000   0.000000
    18  H   -0.000003   0.000282   0.000000   0.000018  -0.000034   0.000022
    19  C    0.000677   0.005233   0.000011   0.000224   0.000087  -0.000198
    20  H   -0.000010  -0.000144   0.000000  -0.000008  -0.000004   0.000017
    21  H   -0.000005   0.000020   0.000000   0.000021   0.000017  -0.000020
    22  H    0.000017   0.000631   0.000009  -0.000246   0.000013  -0.000200
    23  C   -0.000001   0.000965  -0.000017   0.000107  -0.000133   0.001927
    24  H    0.000000  -0.000025   0.000000  -0.000082   0.000005  -0.000065
    25  H    0.000000   0.000020  -0.000001   0.000120  -0.000020   0.000584
    26  H    0.000000   0.000009   0.000000   0.000051  -0.000020   0.000043
    27  C   -0.014240  -0.029183  -0.000096  -0.000754  -0.000222   0.000681
    28  O   -0.000351   0.000007   0.000000  -0.000003  -0.000001   0.000000
    29  O    0.001419   0.000223   0.000000   0.000005   0.000003  -0.000001
    30  H   -0.000078  -0.000005   0.000000   0.000000   0.000000   0.000000
             13         14         15         16         17         18
     1  C   -0.000005   0.000000   0.000000   0.000000   0.000000   0.000000
     2  H    0.000000   0.000000   0.000000   0.000000   0.000000   0.000000
     3  H    0.000000   0.000000   0.000000   0.000000   0.000000   0.000000
     4  H    0.000018  -0.000001   0.000000  -0.000001   0.000000   0.000000
     5  C   -0.000036   0.000022  -0.000017  -0.000186  -0.000003   0.000005
     6  H    0.000152  -0.000001   0.000032  -0.000094  -0.000001  -0.000014
     7  H    0.000067  -0.000001   0.000033  -0.000118   0.000000  -0.000003
     8  C   -0.016037   0.000131  -0.001426   0.004459   0.000014   0.000282
     9  H    0.000467  -0.000083   0.000020  -0.000034   0.000000   0.000000
    10  C    0.008597   0.000590   0.000283  -0.000846  -0.000088   0.000018
    11  H    0.001106  -0.000018  -0.000095  -0.000030   0.000000  -0.000034
    12  H   -0.011789   0.000032   0.000380   0.000086   0.000000   0.000022
    13  C    0.060718  -0.000674  -0.004822  -0.001028   0.000196  -0.000742
    14  H   -0.000674  -0.001641   0.000201   0.000080   0.000010  -0.000010
    15  C   -0.004822   0.000201   0.008614  -0.001684   0.000393  -0.000106
    16  H   -0.001028   0.000080  -0.001684  -0.000378  -0.000192   0.000363
    17  H    0.000196   0.000010   0.000393  -0.000192  -0.000830   0.000000
    18  H   -0.000742  -0.000010  -0.000106   0.000363   0.000000   0.000270
    19  C    0.000027   0.000000  -0.000001  -0.000001   0.000000   0.000000
    20  H    0.000000   0.000000   0.000000   0.000000   0.000000   0.000000
    21  H    0.000002   0.000000   0.000000   0.000000   0.000000   0.000000
    22  H    0.000009   0.000000   0.000000   0.000000   0.000000   0.000000
    23  C   -0.009770   0.000291   0.002212   0.000192  -0.000027   0.000227
    24  H    0.000848  -0.000019  -0.000280  -0.000021  -0.000032  -0.000018
    25  H   -0.000984   0.000027   0.000082   0.000005   0.000000   0.000004
    26  H   -0.000358  -0.000011   0.000087   0.000005   0.000001   0.000003
    27  C   -0.000102   0.000001   0.000000   0.000018   0.000000   0.000001
    28  O    0.000000   0.000000   0.000000   0.000000   0.000000   0.000000
    29  O    0.000000   0.000000   0.000000   0.000000   0.000000   0.000000
    30  H    0.000000   0.000000   0.000000   0.000000   0.000000   0.000000
             19         20         21         22         23         24
     1  C   -0.007266   0.001713  -0.000328   0.000001   0.000000   0.000000
     2  H    0.000004  -0.000143   0.000024  -0.000055   0.000000   0.000000
     3  H    0.000230  -0.000015  -0.000001   0.000008   0.000000   0.000000
     4  H    0.003184  -0.000485   0.000040   0.000023   0.000000   0.000000
     5  C    0.006057  -0.000627   0.001039  -0.000549   0.000001   0.000000
     6  H    0.000516   0.000002  -0.000045   0.000078  -0.000005   0.000000
     7  H    0.000677  -0.000010  -0.000005   0.000017  -0.000001   0.000000
     8  C    0.005233  -0.000144   0.000020   0.000631   0.000965  -0.000025
     9  H    0.000011   0.000000   0.000000   0.000009  -0.000017   0.000000
    10  C    0.000224  -0.000008   0.000021  -0.000246   0.000107  -0.000082
    11  H    0.000087  -0.000004   0.000017   0.000013  -0.000133   0.000005
    12  H   -0.000198   0.000017  -0.000020  -0.000200   0.001927  -0.000065
    13  C    0.000027   0.000000   0.000002   0.000009  -0.009770   0.000848
    14  H    0.000000   0.000000   0.000000   0.000000   0.000291  -0.000019
    15  C   -0.000001   0.000000   0.000000   0.000000   0.002212  -0.000280
    16  H   -0.000001   0.000000   0.000000   0.000000   0.000192  -0.000021
    17  H    0.000000   0.000000   0.000000   0.000000  -0.000027  -0.000032
[...]
 Generating alternative initial guess.
 Harris functional with IExCor=  402 diagonalized for initial guess.
 ExpMin= 1.61D-01 ExpMax= 5.48D+03 ExpMxC= 8.25D+02 IAcc=1 IRadAn=         1 AccDes= 0.00D+00
 HarFok:  IExCor=  402 AccDes= 0.00D+00 IRadAn=         1 IDoV= 1
 ScaDFX=  1.000000  1.000000  1.000000  1.000000
 FoFCou: FMM=F IPFlag=           0 FMFlag=      100000 FMFlg1=           0
         NFxFlg=           0 DoJE=T BraDBF=F KetDBF=T FulRan=T
         Omega=  0.000000  0.000000  1.000000  0.000000  0.000000 ICntrl=     500 IOpCl=  0
         NMat0=    1 NMatS0=    1 NMatT0=    0 NMatD0=    1 NMtDS0=    0 NMtDT0=    0
         I1Cent=           4 NGrid=           0.
 Symmetry not used in FoFCou.
 Harris En= -504.796043758838    
 Leave Link  401 at Sat Jun  6 00:29:42 2015, MaxMem= 3758096384 cpu:      18.2
 (Enter /share/apps/g09/l502.exe)
 UHF open shell SCF:
 Requested convergence on RMS density matrix=1.00D-08 within 128 cycles.
 Requested convergence on MAX density matrix=1.00D-06.
 Requested convergence on             energy=1.00D-06.
 No special actions if energy rises.
 Using DIIS extrapolation, IDIIS=  1040.
 Two-electron integral symmetry not used.
       254302 words used for storage of precomputed grid.
 Keep R1 and R2 ints in memory in canonical form, NReq=433403682.
 IEnd=      399789 IEndB=      399789 NGot=  3758096384 MDV=  3328995478
 LenX=  3328995478 LenY=  3328953828
 Symmetry not used in FoFDir.
 MinBra= 0 MaxBra= 2 Meth= 1.
 IRaf=       0 NMat=   1 IRICut=       1 DoRegI=T DoRafI=F ISym2E= 0 JSym2E=0.
 Integral accuracy reduced to 1.0D-05 until final iterations.

 Cycle   1  Pass 0  IDiag  1:
 E= -504.662859419093    
 DIIS: error= 3.83D-03 at cycle   1 NSaved=   1.
 NSaved= 1 IEnMin= 1 EnMin= -504.662859419093     IErMin= 1 ErrMin= 3.83D-03
 ErrMax= 3.83D-03 EMaxC= 1.00D-01 BMatC= 8.81D-03 BMatP= 8.81D-03
 IDIUse=3 WtCom= 9.62D-01 WtEn= 3.83D-02
 Coeff-Com:  0.100D+01
 Coeff-En:   0.100D+01
 Coeff:      0.100D+01
 Gap=     0.083 Goal=   None    Shift=    0.000
 Gap=     0.161 Goal=   None    Shift=    0.000
 GapD=    0.083 DampG=0.500 DampE=1.000 DampFc=0.5000 IDamp=-1.
 Damping current iteration by 5.00D-01
 RMSDP=4.49D-04 MaxDP=2.79D-02              OVMax= 3.01D-02

 Cycle   2  Pass 0  IDiag  1:
 E= -504.664644677771     Delta-E=       -0.001785258678 Rises=F Damp=T
 DIIS: error= 2.03D-03 at cycle   2 NSaved=   2.
 NSaved= 2 IEnMin= 2 EnMin= -504.664644677771     IErMin= 2 ErrMin= 2.03D-03
 ErrMax= 2.03D-03 EMaxC= 1.00D-01 BMatC= 2.55D-03 BMatP= 8.81D-03
 IDIUse=3 WtCom= 9.80D-01 WtEn= 2.03D-02
 Coeff-Com: -0.106D+01 0.206D+01
 Coeff-En:   0.000D+00 0.100D+01
 Coeff:     -0.104D+01 0.204D+01
 Gap=     0.083 Goal=   None    Shift=    0.000
 Gap=     0.163 Goal=   None    Shift=    0.000
 RMSDP=3.02D-04 MaxDP=1.64D-02 DE=-1.79D-03 OVMax= 2.23D-02

 Cycle   3  Pass 0  IDiag  1:
 E= -504.666309226099     Delta-E=       -0.001664548329 Rises=F Damp=F
 DIIS: error= 1.28D-03 at cycle   3 NSaved=   3.
 NSaved= 3 IEnMin= 3 EnMin= -504.666309226099     IErMin= 3 ErrMin= 1.28D-03
 ErrMax= 1.28D-03 EMaxC= 1.00D-01 BMatC= 1.53D-03 BMatP= 2.55D-03
 IDIUse=3 WtCom= 9.87D-01 WtEn= 1.28D-02
 Coeff-Com: -0.814D+00 0.152D+01 0.297D+00
 Coeff-En:   0.000D+00 0.000D+00 0.100D+01
 Coeff:     -0.803D+00 0.150D+01 0.306D+00
 Gap=     0.083 Goal=   None    Shift=    0.000
 Gap=     0.161 Goal=   None    Shift=    0.000
 RMSDP=1.27D-04 MaxDP=6.97D-03 DE=-1.66D-03 OVMax= 1.99D-02

 Cycle   4  Pass 0  IDiag  1:
 E= -504.666656318522     Delta-E=       -0.000347092423 Rises=F Damp=F
 DIIS: error= 1.99D-04 at cycle   4 NSaved=   4.
 NSaved= 4 IEnMin= 4 EnMin= -504.666656318522     IErMin= 4 ErrMin= 1.99D-04
 ErrMax= 1.99D-04 EMaxC= 1.00D-01 BMatC= 3.63D-05 BMatP= 1.53D-03
 IDIUse=3 WtCom= 9.98D-01 WtEn= 1.99D-03
 Coeff-Com: -0.293D+00 0.536D+00 0.172D+00 0.585D+00
 Coeff-En:   0.000D+00 0.000D+00 0.000D+00 0.100D+01
 Coeff:     -0.292D+00 0.535D+00 0.172D+00 0.586D+00
 Gap=     0.083 Goal=   None    Shift=    0.000
 Gap=     0.161 Goal=   None    Shift=    0.000
 RMSDP=2.64D-05 MaxDP=1.41D-03 DE=-3.47D-04 OVMax= 4.06D-03

 Cycle   5  Pass 0  IDiag  1:
 E= -504.666664756874     Delta-E=       -0.000008438353 Rises=F Damp=F
 DIIS: error= 1.05D-04 at cycle   5 NSaved=   5.
 NSaved= 5 IEnMin= 5 EnMin= -504.666664756874     IErMin= 5 ErrMin= 1.05D-04
 ErrMax= 1.05D-04 EMaxC= 1.00D-01 BMatC= 7.83D-06 BMatP= 3.63D-05
 IDIUse=3 WtCom= 9.99D-01 WtEn= 1.05D-03
 Coeff-Com: -0.841D-01 0.150D+00 0.723D-01 0.397D+00 0.465D+00
 Coeff-En:   0.000D+00 0.000D+00 0.000D+00 0.152D+00 0.848D+00
 Coeff:     -0.840D-01 0.150D+00 0.722D-01 0.396D+00 0.465D+00
 Gap=     0.083 Goal=   None    Shift=    0.000
 Gap=     0.161 Goal=   None    Shift=    0.000
 RMSDP=1.16D-05 MaxDP=5.80D-04 DE=-8.44D-06 OVMax= 1.68D-03

 Cycle   6  Pass 0  IDiag  1:
 E= -504.666666182519     Delta-E=       -0.000001425644 Rises=F Damp=F
 DIIS: error= 7.85D-05 at cycle   6 NSaved=   6.
 NSaved= 6 IEnMin= 6 EnMin= -504.666666182519     IErMin= 6 ErrMin= 7.85D-05
 ErrMax= 7.85D-05 EMaxC= 1.00D-01 BMatC= 3.36D-06 BMatP= 7.83D-06
 IDIUse=1 WtCom= 1.00D+00 WtEn= 0.00D+00
 Coeff-Com:  0.142D-01-0.289D-01 0.101D-01 0.169D+00 0.396D+00 0.440D+00
 Coeff:      0.142D-01-0.289D-01 0.101D-01 0.169D+00 0.396D+00 0.440D+00
 Gap=     0.083 Goal=   None    Shift=    0.000
 Gap=     0.161 Goal=   None    Shift=    0.000
 RMSDP=5.13D-06 MaxDP=2.93D-04 DE=-1.43D-06 OVMax= 5.00D-04

 Initial convergence to 1.0D-05 achieved.  Increase integral accuracy.
 Cycle   7  Pass 1  IDiag  1:
 E= -504.666723844288     Delta-E=       -0.000057661770 Rises=F Damp=F
 DIIS: error= 1.39D-05 at cycle   1 NSaved=   1.
 NSaved= 1 IEnMin= 1 EnMin= -504.666723844288     IErMin= 1 ErrMin= 1.39D-05
 ErrMax= 1.39D-05 EMaxC= 1.00D-01 BMatC= 5.34D-07 BMatP= 5.34D-07
 IDIUse=1 WtCom= 1.00D+00 WtEn= 0.00D+00
 Coeff-Com:  0.100D+01
 Coeff:      0.100D+01
 Gap=     0.083 Goal=   None    Shift=    0.000
 Gap=     0.161 Goal=   None    Shift=    0.000
 RMSDP=5.13D-06 MaxDP=2.93D-04 DE=-5.77D-05 OVMax= 3.69D-04

 Cycle   8  Pass 1  IDiag  1:
 E= -504.666723773739     Delta-E=        0.000000070549 Rises=F Damp=F
 DIIS: error= 4.01D-05 at cycle   2 NSaved=   2.
 NSaved= 2 IEnMin= 1 EnMin= -504.666723844288     IErMin= 1 ErrMin= 1.39D-05
 ErrMax= 4.01D-05 EMaxC= 1.00D-01 BMatC= 1.26D-06 BMatP= 5.34D-07
 IDIUse=1 WtCom= 1.00D+00 WtEn= 0.00D+00
 Coeff-Com:  0.628D+00 0.372D+00
 Coeff:      0.628D+00 0.372D+00
 Gap=     0.083 Goal=   None    Shift=    0.000
 Gap=     0.161 Goal=   None    Shift=    0.000
 RMSDP=3.24D-06 MaxDP=1.81D-04 DE= 7.05D-08 OVMax= 3.49D-04

 Cycle   9  Pass 1  IDiag  1:
 E= -504.666723982016     Delta-E=       -0.000000208277 Rises=F Damp=F
 DIIS: error= 2.00D-05 at cycle   3 NSaved=   3.
 NSaved= 3 IEnMin= 3 EnMin= -504.666723982016     IErMin= 1 ErrMin= 1.39D-05
 ErrMax= 2.00D-05 EMaxC= 1.00D-01 BMatC= 2.61D-07 BMatP= 5.34D-07
 IDIUse=1 WtCom= 1.00D+00 WtEn= 0.00D+00
 Coeff-Com:  0.170D+00 0.294D+00 0.536D+00
 Coeff:      0.170D+00 0.294D+00 0.536D+00
 Gap=     0.083 Goal=   None    Shift=    0.000
 Gap=     0.161 Goal=   None    Shift=    0.000
 RMSDP=1.74D-06 MaxDP=7.85D-05 DE=-2.08D-07 OVMax= 2.32D-04

 Cycle  10  Pass 1  IDiag  1:
 E= -504.666724030805     Delta-E=       -0.000000048789 Rises=F Damp=F
 DIIS: error= 8.48D-06 at cycle   4 NSaved=   4.
 NSaved= 4 IEnMin= 4 EnMin= -504.666724030805     IErMin= 4 ErrMin= 8.48D-06
 ErrMax= 8.48D-06 EMaxC= 1.00D-01 BMatC= 5.19D-08 BMatP= 2.61D-07
 IDIUse=1 WtCom= 1.00D+00 WtEn= 0.00D+00
 Coeff-Com: -0.330D-01 0.122D+00 0.388D+00 0.523D+00
 Coeff:     -0.330D-01 0.122D+00 0.388D+00 0.523D+00
 Gap=     0.083 Goal=   None    Shift=    0.000
 Gap=     0.161 Goal=   None    Shift=    0.000
 RMSDP=8.75D-07 MaxDP=5.01D-05 DE=-4.88D-08 OVMax= 9.35D-05

 Cycle  11  Pass 1  IDiag  1:
 E= -504.666724046688     Delta-E=       -0.000000015883 Rises=F Damp=F
 DIIS: error= 2.48D-06 at cycle   5 NSaved=   5.
 NSaved= 5 IEnMin= 5 EnMin= -504.666724046688     IErMin= 5 ErrMin= 2.48D-06
 ErrMax= 2.48D-06 EMaxC= 1.00D-01 BMatC= 5.38D-09 BMatP= 5.19D-08
 IDIUse=1 WtCom= 1.00D+00 WtEn= 0.00D+00
 Coeff-Com: -0.316D-01 0.434D-01 0.160D+00 0.299D+00 0.529D+00
 Coeff:     -0.316D-01 0.434D-01 0.160D+00 0.299D+00 0.529D+00
 Gap=     0.083 Goal=   None    Shift=    0.000
 Gap=     0.161 Goal=   None    Shift=    0.000
 RMSDP=4.60D-07 MaxDP=2.31D-05 DE=-1.59D-08 OVMax= 7.17D-05

 Cycle  12  Pass 1  IDiag  1:
 E= -504.666724048717     Delta-E=       -0.000000002029 Rises=F Damp=F
 DIIS: error= 2.04D-06 at cycle   6 NSaved=   6.
 NSaved= 6 IEnMin= 6 EnMin= -504.666724048717     IErMin= 6 ErrMin= 2.04D-06
 ErrMax= 2.04D-06 EMaxC= 1.00D-01 BMatC= 3.95D-09 BMatP= 5.38D-09
 IDIUse=1 WtCom= 1.00D+00 WtEn= 0.00D+00
 Coeff-Com: -0.139D-01-0.278D-01-0.665D-01 0.208D-02 0.514D+00 0.592D+00
 Coeff:     -0.139D-01-0.278D-01-0.665D-01 0.208D-02 0.514D+00 0.592D+00
 Gap=     0.083 Goal=   None    Shift=    0.000
 Gap=     0.161 Goal=   None    Shift=    0.000
 RMSDP=3.13D-07 MaxDP=2.16D-05 DE=-2.03D-09 OVMax= 2.90D-05

 Cycle  13  Pass 1  IDiag  1:
 E= -504.666724050542     Delta-E=       -0.000000001825 Rises=F Damp=F
 DIIS: error= 8.30D-07 at cycle   7 NSaved=   7.
 NSaved= 7 IEnMin= 7 EnMin= -504.666724050542     IErMin= 7 ErrMin= 8.30D-07
 ErrMax= 8.30D-07 EMaxC= 1.00D-01 BMatC= 5.89D-10 BMatP= 3.95D-09
 IDIUse=1 WtCom= 1.00D+00 WtEn= 0.00D+00
 Coeff-Com:  0.396D-02-0.408D-01-0.124D+00-0.139D+00 0.180D+00 0.361D+00
 Coeff-Com:  0.759D+00
 Coeff:      0.396D-02-0.408D-01-0.124D+00-0.139D+00 0.180D+00 0.361D+00
 Coeff:      0.759D+00
 Gap=     0.083 Goal=   None    Shift=    0.000
 Gap=     0.161 Goal=   None    Shift=    0.000
 RMSDP=2.58D-07 MaxDP=1.39D-05 DE=-1.82D-09 OVMax= 2.95D-05

 Cycle  14  Pass 1  IDiag  1:
 E= -504.666724051106     Delta-E=       -0.000000000563 Rises=F Damp=F
 DIIS: error= 4.71D-07 at cycle   8 NSaved=   8.
 NSaved= 8 IEnMin= 8 EnMin= -504.666724051106     IErMin= 8 ErrMin= 4.71D-07
 ErrMax= 4.71D-07 EMaxC= 1.00D-01 BMatC= 1.82D-10 BMatP= 5.89D-10
 IDIUse=1 WtCom= 1.00D+00 WtEn= 0.00D+00
 Coeff-Com:  0.453D-02-0.144D-01-0.482D-01-0.693D-01 0.928D-02 0.104D-01
 Coeff-Com:  0.424D+00 0.684D+00
 Coeff:      0.453D-02-0.144D-01-0.482D-01-0.693D-01 0.928D-02 0.104D-01
 Coeff:      0.424D+00 0.684D+00
 Gap=     0.083 Goal=   None    Shift=    0.000
 Gap=     0.161 Goal=   None    Shift=    0.000
 RMSDP=8.71D-08 MaxDP=5.60D-06 DE=-5.63D-10 OVMax= 8.52D-06

 Cycle  15  Pass 1  IDiag  1:
 E= -504.666724051207     Delta-E=       -0.000000000102 Rises=F Damp=F
 DIIS: error= 1.95D-07 at cycle   9 NSaved=   9.
 NSaved= 9 IEnMin= 9 EnMin= -504.666724051207     IErMin= 9 ErrMin= 1.95D-07
 ErrMax= 1.95D-07 EMaxC= 1.00D-01 BMatC= 1.82D-11 BMatP= 1.82D-10
 IDIUse=1 WtCom= 1.00D+00 WtEn= 0.00D+00
 Coeff-Com: -0.112D-03 0.379D-02 0.146D-01 0.105D-01-0.165D-01-0.828D-01
 Coeff-Com: -0.360D-01 0.920D-01 0.101D+01
 Coeff:     -0.112D-03 0.379D-02 0.146D-01 0.105D-01-0.165D-01-0.828D-01
 Coeff:     -0.360D-01 0.920D-01 0.101D+01
 Gap=     0.083 Goal=   None    Shift=    0.000
 Gap=     0.161 Goal=   None    Shift=    0.000
 RMSDP=3.97D-08 MaxDP=2.35D-06 DE=-1.02D-10 OVMax= 4.68D-06

 Cycle  16  Pass 1  IDiag  1:
 E= -504.666724051223     Delta-E=       -0.000000000015 Rises=F Damp=F
 DIIS: error= 7.05D-08 at cycle  10 NSaved=  10.
 NSaved=10 IEnMin=10 EnMin= -504.666724051223     IErMin=10 ErrMin= 7.05D-08
 ErrMax= 7.05D-08 EMaxC= 1.00D-01 BMatC= 5.22D-12 BMatP= 1.82D-11
 IDIUse=1 WtCom= 1.00D+00 WtEn= 0.00D+00
 Coeff-Com: -0.123D-02 0.531D-02 0.202D-01 0.228D-01-0.991D-02-0.465D-01
 Coeff-Com: -0.120D+00-0.126D+00 0.465D+00 0.791D+00
 Coeff:     -0.123D-02 0.531D-02 0.202D-01 0.228D-01-0.991D-02-0.465D-01
 Coeff:     -0.120D+00-0.126D+00 0.465D+00 0.791D+00
 Gap=     0.083 Goal=   None    Shift=    0.000
 Gap=     0.161 Goal=   None    Shift=    0.000
 RMSDP=2.18D-08 MaxDP=1.29D-06 DE=-1.52D-11 OVMax= 2.80D-06

 Cycle  17  Pass 1  IDiag  1:
 E= -504.666724051232     Delta-E=       -0.000000000010 Rises=F Damp=F
 DIIS: error= 4.42D-08 at cycle  11 NSaved=  11.
 NSaved=11 IEnMin=11 EnMin= -504.666724051232     IErMin=11 ErrMin= 4.42D-08
 ErrMax= 4.42D-08 EMaxC= 1.00D-01 BMatC= 1.42D-12 BMatP= 5.22D-12
 IDIUse=1 WtCom= 1.00D+00 WtEn= 0.00D+00
 Coeff-Com: -0.219D-03-0.130D-03 0.111D-02 0.158D-02 0.217D-02 0.777D-02
 Coeff-Com: -0.101D-01-0.484D-01-0.169D+00 0.143D+00 0.107D+01
 Coeff:     -0.219D-03-0.130D-03 0.111D-02 0.158D-02 0.217D-02 0.777D-02
 Coeff:     -0.101D-01-0.484D-01-0.169D+00 0.143D+00 0.107D+01
 Gap=     0.083 Goal=   None    Shift=    0.000
 Gap=     0.161 Goal=   None    Shift=    0.000
 RMSDP=1.55D-08 MaxDP=9.54D-07 DE=-9.55D-12 OVMax= 2.09D-06

 Cycle  18  Pass 1  IDiag  1:
 E= -504.666724051233     Delta-E=       -0.000000000001 Rises=F Damp=F
 DIIS: error= 1.97D-08 at cycle  12 NSaved=  12.
 NSaved=12 IEnMin=12 EnMin= -504.666724051233     IErMin=12 ErrMin= 1.97D-08
 ErrMax= 1.97D-08 EMaxC= 1.00D-01 BMatC= 4.37D-13 BMatP= 1.42D-12
 IDIUse=1 WtCom= 1.00D+00 WtEn= 0.00D+00
 Coeff-Com:  0.406D-03-0.198D-02-0.654D-02-0.804D-02 0.316D-02 0.168D-01
 Coeff-Com:  0.418D-01 0.400D-01-0.176D+00-0.266D+00 0.149D+00 0.121D+01
 Coeff:      0.406D-03-0.198D-02-0.654D-02-0.804D-02 0.316D-02 0.168D-01
 Coeff:      0.418D-01 0.400D-01-0.176D+00-0.266D+00 0.149D+00 0.121D+01
 Gap=     0.083 Goal=   None    Shift=    0.000
 Gap=     0.161 Goal=   None    Shift=    0.000
 RMSDP=1.19D-08 MaxDP=7.26D-07 DE=-9.09D-13 OVMax= 1.50D-06

 Cycle  19  Pass 1  IDiag  1:
 E= -504.666724051236     Delta-E=       -0.000000000003 Rises=F Damp=F
 DIIS: error= 1.12D-08 at cycle  13 NSaved=  13.
 NSaved=13 IEnMin=13 EnMin= -504.666724051236     IErMin=13 ErrMin= 1.12D-08
 ErrMax= 1.12D-08 EMaxC= 1.00D-01 BMatC= 1.56D-13 BMatP= 4.37D-13
 IDIUse=1 WtCom= 1.00D+00 WtEn= 0.00D+00
 Coeff-Com:  0.262D-03-0.886D-03-0.341D-02-0.435D-02 0.471D-05 0.608D-02
 Coeff-Com:  0.217D-01 0.379D-01-0.127D-01-0.182D+00-0.358D+00 0.545D+00
 Coeff-Com:  0.951D+00
 Coeff:      0.262D-03-0.886D-03-0.341D-02-0.435D-02 0.471D-05 0.608D-02
 Coeff:      0.217D-01 0.379D-01-0.127D-01-0.182D+00-0.358D+00 0.545D+00
 Coeff:      0.951D+00
 Gap=     0.083 Goal=   None    Shift=    0.000
 Gap=     0.161 Goal=   None    Shift=    0.000
 RMSDP=7.44D-09 MaxDP=4.40D-07 DE=-3.18D-12 OVMax= 8.65D-07

 SCF Done:  E(UB3LYP) =  -504.666724051     A.U. after   19 cycles
             Convg  =    0.7440D-08             -V/T =  2.0094
 <Sx>= 0.0000 <Sy>= 0.0000 <Sz>= 0.5000 <S**2>= 0.8783 S= 0.5622
 <L.S>= 0.000000000000E+00
 KE= 4.999691027890D+02 PE=-2.484483376605D+03 EE= 8.245373703005D+02
 Annihilation of the first spin contaminant:
 S**2 before annihilation     0.8783,   after     0.7515
 Leave Link  502 at Sat Jun  6 00:30:35 2015, MaxMem= 3758096384 cpu:     593.6
 (Enter /share/apps/g09/l108.exe)
 Scan completed.

 Summary of the potential surface scan:
   N      D1          SCF    
 ----  ---------  -----------
    1   166.1807   -504.66718
    2   176.1807   -504.66715
    3   186.1807   -504.66707
    4   196.1807   -504.66693
    5   206.1807   -504.66672
    6   216.1807   -504.66642
    7   226.1807   -504.66596
    8   236.1807   -504.66532
    9   246.1807   -504.66441
   10   256.1807   -504.66315
   11   266.1807   -504.66139
   12   276.1807   -504.65900
   13   286.1807   -504.65589
   14   296.1807   -504.65212
   15   306.1807   -504.64793
   16   316.1807   -504.64393
   17   326.1807   -504.64126
   18   336.1807   -504.64089
   19   346.1807   -504.64251
   20   356.1807   -504.64502
   21   366.1807   -504.64765
   22   376.1807   -504.65010
   23   386.1807   -504.65234
   24   396.1807   -504.65444
   25   406.1807   -504.65653
   26   416.1807   -504.65863
   27   426.1807   -504.66064
   28   436.1807   -504.66241
   29   446.1807   -504.66386
   30   456.1807   -504.66497
   31   466.1807   -504.66579
   32   476.1807   -504.66637
   33   486.1807   -504.66675
   34   496.1807   -504.66698
   35   506.1807   -504.66711
   36   516.1807   -504.66717
   37   526.1807   -504.66718
   38   536.1807   -504.66715
   39   546.1807   -504.66707
   40   556.1807   -504.66693
   41   566.1807   -504.66672
 ----  ---------  -----------
  
 Leave Link  108 at Sat Jun  6 00:30:35 2015, MaxMem= 3758096384 cpu:       0.1
 (Enter /share/apps/g09/l9999.exe)
 1\1\GINC-COMPUTE-0-8\Scan\UB3LYP\6-31G(d)\C9H19O2(2)\HETANJIN\06-Jun-2
 015\1\\#p SCAN ub3lyp/6-31g(d) nosym\\using ub3lyp/6-31G(d) to scan\\0
 ,2\C\H,1,1.0932609\H,1,1.09071062,2,108.42172701\H,1,1.09427984,3,109.
 44338038,2,-118.6146951,0\C,1,2.62982311,3,87.78432906,2,155.33466505,
 0\H,5,1.08730334,1,131.73544809,3,-114.24812904,0\H,5,1.08851449,1,80.
 26928132,3,-3.78760891,0\C,5,1.41546819,1,97.7074301,3,110.28534064,0\
 H,8,1.08909469,5,118.66424701,1,-57.6130889,0\C,8,1.49146017,5,125.323
 4258,1,119.80770735,0\H,10,1.09540414,8,110.305747,5,1.24685165,0\H,10
 ,1.10055728,8,109.46864957,5,-115.97036239,0\C,10,1.55369095,8,113.598
 00077,5,124.29688851,0\H,13,1.09803456,10,107.32887079,8,54.579383,0\C
 ,13,1.53357832,10,111.64232618,8,-63.78702629,0\H,15,1.09292101,13,111
 .64861925,10,58.1498912,0\H,15,1.09364339,13,110.923115,10,178.5999924
 3,0\H,15,1.09534867,13,110.78525238,10,-61.82797307,0\C,1,2.57042697,5
 ,62.62637763,8,-91.83926402,0\H,19,1.09432755,1,92.32082207,5,-162.279
 03692,0\H,19,1.08991243,1,142.37354451,5,-38.29364511,0\H,19,1.0917579
 5,1,92.24702006,5,89.05627813,0\C,13,1.5336762,10,110.33090405,8,172.0
 2738452,0\H,23,1.09361934,13,110.9743603,10,-178.34152646,0\H,23,1.093
 90223,13,111.53254767,10,-58.05505196,0\H,23,1.09516504,13,110.8865441
 9,10,62.10673939,0\C,19,1.52745236,1,32.94931729,5,-40.56774709,0\O,27
 ,1.32581484,19,114.02450645,1,-125.65715543,0\O,28,1.81535727,27,108.3
 3148561,19,-66.1003676,0\H,29,0.96621564,28,88.77638845,27,D1,0\\D1=16
 6.18073417,s,40,10.\\Version=EM64L-G09RevA.01\HF=-504.6671806,-504.667
 1499,-504.6670707,-504.6669322,-504.6667241,-504.6664166,-504.6659637,
 -504.6653193,-504.6644137,-504.6631481,-504.661388,-504.6589953,-504.6
 558879,-504.6521214,-504.6479276,-504.6439314,-504.6412577,-504.640891
 ,-504.6425148,-504.6450178,-504.6476542,-504.6500997,-504.6523398,-504
 .6544369,-504.6565323,-504.6586347,-504.6606427,-504.6624102,-504.6638
 588,-504.664974,-504.665793,-504.6663659,-504.6667466,-504.6669831,-50
 4.6671113,-504.6671684,-504.6671806,-504.6671499,-504.6670707,-504.666
 9322,-504.6667241\S2=0.879895,0.881146,0.881303,0.880301,0.878269,0.87
 545,0.872135,0.868612,0.865141,0.861948,0.859234,0.857167,0.855883,0.8
 55522,0.856339,0.859021,0.864669,0.873061,0.881498,0.887697,0.891161,0
 .892301,0.891679,0.889738,0.886844,0.88339,0.879831,0.876564,0.873869,
 0.871914,0.870812,0.870646,0.871448,0.873121,0.875395,0.877828,0.87989
 6,0.881146,0.881303,0.880301,0.878269\S2-1=0.,0.,0.,0.,0.,0.,0.,0.,0.,
 0.,0.,0.,0.,0.,0.,0.,0.,0.,0.,0.,0.,0.,0.,0.,0.,0.,0.,0.,0.,0.,0.,0.,0
 .,0.,0.,0.,0.,0.,0.,0.,0.\S2A=0.751578,0.751589,0.751584,0.751563,0.75
 153,0.751488,0.751444,0.751402,0.751363,0.751332,0.751311,0.7513,0.751
 302,0.751319,0.751352,0.751411,0.751507,0.751637,0.751756,0.751831,0.7
 51861,0.751856,0.751828,0.751782,0.751724,0.751661,0.7516,0.751547,0.7
 51506,0.751479,0.751464,0.751463,0.751474,0.751496,0.751526,0.751555,0
 .751578,0.751589,0.751584,0.751563,0.75153\RMSD=5.809e-09,5.148e-09,9.
 188e-09,5.194e-09,7.440e-09,6.215e-09,7.786e-09,8.896e-09,6.116e-09,5.
 781e-09,7.439e-09,9.663e-09,6.972e-09,8.734e-09,8.422e-09,9.873e-09,8.
 581e-09,9.559e-09,6.825e-09,7.252e-09,9.829e-09,7.984e-09,7.753e-09,7.
 664e-09,7.909e-09,8.074e-09,7.731e-09,8.675e-09,7.486e-09,5.750e-09,7.
 303e-09,3.548e-09,4.479e-09,5.234e-09,5.110e-09,5.328e-09,5.771e-09,5.
 148e-09,9.188e-09,5.194e-09,7.440e-09\PG=C01 [X(C9H19O2)]\\@


 SUCCESS IS NEVER CERTAIN,
 FAILURE IS NEVER FINAL.
 Job cpu time:  0 days  7 hours 18 minutes 25.7 seconds.
 File lengths (MBytes):  RWF=     37 Int=      0 D2E=      0 Chk=      5 Scr=      1
 Normal termination of Gaussian 09 at Sat Jun  6 00:30:37 2015.
