using ub3lyp/6-31G(d) to scan                                           
SP        RM062X                                                      def2TZVP            
Number of atoms                            I               15
Info1-9                                    I   N=           9
          28          24           0           0           0         110
           1          18        -502
Charge                                     I                0
Multiplicity                               I                1
Number of electrons                        I               42
Number of alpha electrons                  I               21
Number of beta electrons                   I               21
Number of basis functions                  I              215
Number of independent functions            I              215
Number of point charges in /Mol/           I                0
Number of translation vectors              I                0
Atomic numbers                             I   N=          15
           6           1           1           1           6           1
           1           6           1           1           6           1
           1           8           1
Nuclear charges                            R   N=          15
  6.00000000E+00  1.00000000E+00  1.00000000E+00  1.00000000E+00  6.00000000E+00
  1.00000000E+00  1.00000000E+00  6.00000000E+00  1.00000000E+00  1.00000000E+00
  6.00000000E+00  1.00000000E+00  1.00000000E+00  8.00000000E+00  1.00000000E+00
Current cartesian coordinates              R   N=          45
  4.76256339E+00 -5.60145061E-01 -7.55890453E-06  4.86831246E+00 -1.78104987E+00
 -1.67179914E+00  4.86839939E+00 -1.78090814E+00  1.67188039E+00  6.43871834E+00
  6.56715736E-01 -1.05824663E-04  2.32375654E+00  1.00045503E+00 -1.15995112E-18
  2.30516164E+00  2.24972463E+00  1.66014142E+00  2.30513707E+00  2.24967361E+00
 -1.66017354E+00 -6.55791660E-02 -6.39997329E-01  1.88972613E-05 -7.70857084E-02
 -1.88164566E+00  1.66299490E+00 -7.71027159E-02 -1.88167401E+00 -1.66293632E+00
 -2.49510368E+00  9.01694163E-01  1.88972613E-06 -2.54328981E+00  2.13919644E+00
 -1.67767996E+00 -2.54331059E+00  2.13919266E+00  1.67768563E+00 -4.57290481E+00
 -8.12041775E-01 -7.55890453E-06 -6.11552604E+00  1.75083126E-01 -2.64561659E-05
Force Field                                I                0
Int Atom Types                             I   N=          15
           0           0           0           0           0           0
           0           0           0           0           0           0
           0           0           0
MM charges                                 R   N=          15
  0.00000000E+00  0.00000000E+00  0.00000000E+00  0.00000000E+00  0.00000000E+00
  0.00000000E+00  0.00000000E+00  0.00000000E+00  0.00000000E+00  0.00000000E+00
  0.00000000E+00  0.00000000E+00  0.00000000E+00  0.00000000E+00  0.00000000E+00
Integer atomic weights                     I   N=          15
          12           1           1           1          12           1
           1          12           1           1          12           1
           1          16           1
Real atomic weights                        R   N=          15
  1.20000000E+01  1.00782504E+00  1.00782504E+00  1.00782504E+00  1.20000000E+01
  1.00782504E+00  1.00782504E+00  1.20000000E+01  1.00782504E+00  1.00782504E+00
  1.20000000E+01  1.00782504E+00  1.00782504E+00  1.59949146E+01  1.00782504E+00
Atom fragment info                         I   N=          15
           0           0           0           0           0           0
           0           0           0           0           0           0
           0           0           0
Atom residue num                           I   N=          15
           0           0           0           0           0           0
           0           0           0           0           0           0
           0           0           0
Nuclear spins                              I   N=          15
           0           1           1           1           0           1
           1           0           1           1           0           1
           1           0           1
Nuclear ZEff                               R   N=          15
 -3.60000000E+00 -1.00000000E+00 -1.00000000E+00 -1.00000000E+00 -3.60000000E+00
 -1.00000000E+00 -1.00000000E+00 -3.60000000E+00 -1.00000000E+00 -1.00000000E+00
 -3.60000000E+00 -1.00000000E+00 -1.00000000E+00 -5.60000000E+00 -1.00000000E+00
Nuclear ZNuc                               R   N=          15
  6.00000000E+00  1.00000000E+00  1.00000000E+00  1.00000000E+00  6.00000000E+00
  1.00000000E+00  1.00000000E+00  6.00000000E+00  1.00000000E+00  1.00000000E+00
  6.00000000E+00  1.00000000E+00  1.00000000E+00  8.00000000E+00  1.00000000E+00
Nuclear QMom                               R   N=          15
  0.00000000E+00  0.00000000E+00  0.00000000E+00  0.00000000E+00  0.00000000E+00
  0.00000000E+00  0.00000000E+00  0.00000000E+00  0.00000000E+00  0.00000000E+00
  0.00000000E+00  0.00000000E+00  0.00000000E+00  0.00000000E+00  0.00000000E+00
Nuclear GFac                               R   N=          15
  0.00000000E+00  2.79284600E+00  2.79284600E+00  2.79284600E+00  0.00000000E+00
  2.79284600E+00  2.79284600E+00  0.00000000E+00  2.79284600E+00  2.79284600E+00
  0.00000000E+00  2.79284600E+00  2.79284600E+00  0.00000000E+00  2.79284600E+00
MicOpt                                     I   N=          15
          -1          -1          -1          -1          -1          -1
          -1          -1          -1          -1          -1          -1
          -1          -1          -1
Number of contracted shells                I               95
Number of primitive shells                 I              160
Pure/Cartesian d shells                    I                0
Pure/Cartesian f shells                    I                0
Highest angular momentum                   I                3
Largest degree of contraction              I                6
Shell types                                I   N=          95
           0           0           0           0           0           1
           1           1          -2          -2          -3           0
           0           0           1           0           0           0
           1           0           0           0           1           0
           0           0           0           0           1           1
           1          -2          -2          -3           0           0
           0           1           0           0           0           1
           0           0           0           0           0           1
           1           1          -2          -2          -3           0
           0           0           1           0           0           0
           1           0           0           0           0           0
           1           1           1          -2          -2          -3
           0           0           0           1           0           0
           0           1           0           0           0           0
           0           1           1           1          -2          -2
          -3           0           0           0           1
Number of primitives per shell             I   N=          95
           6           2           1           1           1           4
           1           1           1           1           1           3
           1           1           1           3           1           1
           1           3           1           1           1           6
           2           1           1           1           4           1
           1           1           1           1           3           1
           1           1           3           1           1           1
           6           2           1           1           1           4
           1           1           1           1           1           3
           1           1           1           3           1           1
           1           6           2           1           1           1
           4           1           1           1           1           1
           3           1           1           1           3           1
           1           1           6           2           1           1
           1           4           1           1           1           1
           1           3           1           1           1
Shell to atom map                          I   N=          95
           1           1           1           1           1           1
           1           1           1           1           1           2
           2           2           2           3           3           3
           3           4           4           4           4           5
           5           5           5           5           5           5
           5           5           5           5           6           6
           6           6           7           7           7           7
           8           8           8           8           8           8
           8           8           8           8           8           9
           9           9           9          10          10          10
          10          11          11          11          11          11
          11          11          11          11          11          11
          12          12          12          12          13          13
          13          13          14          14          14          14
          14          14          14          14          14          14
          14          15          15          15          15
Primitive exponents                        R   N=         160
  1.35753497E+04  2.03523337E+03  4.63225624E+02  1.31200196E+02  4.28530159E+01
  1.55841858E+01  6.20671385E+00  2.57648965E+00  5.76963394E-01  2.29728314E-01
  9.51644400E-02  3.46972322E+01  7.95826228E+00  2.37808269E+00  8.14332082E-01
  2.88875473E-01  1.00568237E-01  1.09700000E+00  3.18000000E-01  7.61000000E-01
  3.40613410E+01  5.12357460E+00  1.16466260E+00  3.27230410E-01  1.03072410E-01
  8.00000000E-01  3.40613410E+01  5.12357460E+00  1.16466260E+00  3.27230410E-01
  1.03072410E-01  8.00000000E-01  3.40613410E+01  5.12357460E+00  1.16466260E+00
  3.27230410E-01  1.03072410E-01  8.00000000E-01  1.35753497E+04  2.03523337E+03
  4.63225624E+02  1.31200196E+02  4.28530159E+01  1.55841858E+01  6.20671385E+00
  2.57648965E+00  5.76963394E-01  2.29728314E-01  9.51644400E-02  3.46972322E+01
  7.95826228E+00  2.37808269E+00  8.14332082E-01  2.88875473E-01  1.00568237E-01
  1.09700000E+00  3.18000000E-01  7.61000000E-01  3.40613410E+01  5.12357460E+00
  1.16466260E+00  3.27230410E-01  1.03072410E-01  8.00000000E-01  3.40613410E+01
  5.12357460E+00  1.16466260E+00  3.27230410E-01  1.03072410E-01  8.00000000E-01
  1.35753497E+04  2.03523337E+03  4.63225624E+02  1.31200196E+02  4.28530159E+01
  1.55841858E+01  6.20671385E+00  2.57648965E+00  5.76963394E-01  2.29728314E-01
  9.51644400E-02  3.46972322E+01  7.95826228E+00  2.37808269E+00  8.14332082E-01
  2.88875473E-01  1.00568237E-01  1.09700000E+00  3.18000000E-01  7.61000000E-01
  3.40613410E+01  5.12357460E+00  1.16466260E+00  3.27230410E-01  1.03072410E-01
  8.00000000E-01  3.40613410E+01  5.12357460E+00  1.16466260E+00  3.27230410E-01
  1.03072410E-01  8.00000000E-01  1.35753497E+04  2.03523337E+03  4.63225624E+02
  1.31200196E+02  4.28530159E+01  1.55841858E+01  6.20671385E+00  2.57648965E+00
  5.76963394E-01  2.29728314E-01  9.51644400E-02  3.46972322E+01  7.95826228E+00
  2.37808269E+00  8.14332082E-01  2.88875473E-01  1.00568237E-01  1.09700000E+00
  3.18000000E-01  7.61000000E-01  3.40613410E+01  5.12357460E+00  1.16466260E+00
  3.27230410E-01  1.03072410E-01  8.00000000E-01  3.40613410E+01  5.12357460E+00
  1.16466260E+00  3.27230410E-01  1.03072410E-01  8.00000000E-01  2.70323826E+04
  4.05238714E+03  9.22327227E+02  2.61240710E+02  8.53546414E+01  3.10350352E+01
  1.22608607E+01  4.99870760E+00  1.17031082E+00  4.64747410E-01  1.85045364E-01
  6.32749548E+01  1.46270494E+01  4.45012235E+00  1.52757996E+00  5.29351179E-01
  1.74784213E-01  2.31400000E+00  6.45000000E-01  1.42800000E+00  3.40613410E+01
  5.12357460E+00  1.16466260E+00  3.27230410E-01  1.03072410E-01  8.00000000E-01
Contraction coefficients                   R   N=         160
  6.06455036E-04  4.69790889E-03  2.43324776E-02  9.73999683E-02  3.01955843E-01
  6.62336091E-01  6.55953085E-01  3.75856333E-01  1.00000000E+00  1.00000000E+00
  1.00000000E+00  1.13272200E-02  7.61696592E-02  3.01922522E-01  7.27850273E-01
  1.00000000E+00  1.00000000E+00  1.00000000E+00  1.00000000E+00  1.00000000E+00
  2.54393072E-02  1.90085949E-01  8.52441130E-01  1.00000000E+00  1.00000000E+00
  1.00000000E+00  2.54393072E-02  1.90085949E-01  8.52441130E-01  1.00000000E+00
  1.00000000E+00  1.00000000E+00  2.54393072E-02  1.90085949E-01  8.52441130E-01
  1.00000000E+00  1.00000000E+00  1.00000000E+00  6.06455036E-04  4.69790889E-03
  2.43324776E-02  9.73999683E-02  3.01955843E-01  6.62336091E-01  6.55953085E-01
  3.75856333E-01  1.00000000E+00  1.00000000E+00  1.00000000E+00  1.13272200E-02
  7.61696592E-02  3.01922522E-01  7.27850273E-01  1.00000000E+00  1.00000000E+00
  1.00000000E+00  1.00000000E+00  1.00000000E+00  2.54393072E-02  1.90085949E-01
  8.52441130E-01  1.00000000E+00  1.00000000E+00  1.00000000E+00  2.54393072E-02
  1.90085949E-01  8.52441130E-01  1.00000000E+00  1.00000000E+00  1.00000000E+00
  6.06455036E-04  4.69790889E-03  2.43324776E-02  9.73999683E-02  3.01955843E-01
  6.62336091E-01  6.55953085E-01  3.75856333E-01  1.00000000E+00  1.00000000E+00
  1.00000000E+00  1.13272200E-02  7.61696592E-02  3.01922522E-01  7.27850273E-01
  1.00000000E+00  1.00000000E+00  1.00000000E+00  1.00000000E+00  1.00000000E+00
  2.54393072E-02  1.90085949E-01  8.52441130E-01  1.00000000E+00  1.00000000E+00
  1.00000000E+00  2.54393072E-02  1.90085949E-01  8.52441130E-01  1.00000000E+00
  1.00000000E+00  1.00000000E+00  6.06455036E-04  4.69790889E-03  2.43324776E-02
  9.73999683E-02  3.01955843E-01  6.62336091E-01  6.55953085E-01  3.75856333E-01
  1.00000000E+00  1.00000000E+00  1.00000000E+00  1.13272200E-02  7.61696592E-02
  3.01922522E-01  7.27850273E-01  1.00000000E+00  1.00000000E+00  1.00000000E+00
  1.00000000E+00  1.00000000E+00  2.54393072E-02  1.90085949E-01  8.52441130E-01
  1.00000000E+00  1.00000000E+00  1.00000000E+00  2.54393072E-02  1.90085949E-01
  8.52441130E-01  1.00000000E+00  1.00000000E+00  1.00000000E+00  5.72273352E-04
  4.43532335E-03  2.30201077E-02  9.28224907E-02  2.93785000E-01  6.74016045E-01
  6.38399370E-01  3.95345871E-01  1.00000000E+00  1.00000000E+00  1.00000000E+00
  1.20183322E-02  8.30054218E-02  3.19917439E-01  7.07155429E-01  1.00000000E+00
  1.00000000E+00  1.00000000E+00  1.00000000E+00  1.00000000E+00  2.54393072E-02
  1.90085949E-01  8.52441130E-01  1.00000000E+00  1.00000000E+00  1.00000000E+00
Coordinates of each shell                  R   N=         285
  4.76256339E+00 -5.60145764E-01 -7.55890453E-06  4.76256339E+00 -5.60145764E-01
 -7.55890453E-06  4.76256339E+00 -5.60145764E-01 -7.55890453E-06  4.76256339E+00
 -5.60145764E-01 -7.55890453E-06  4.76256339E+00 -5.60145764E-01 -7.55890453E-06
  4.76256339E+00 -5.60145764E-01 -7.55890453E-06  4.76256339E+00 -5.60145764E-01
 -7.55890453E-06  4.76256339E+00 -5.60145764E-01 -7.55890453E-06  4.76256339E+00
 -5.60145764E-01 -7.55890453E-06  4.76256339E+00 -5.60145764E-01 -7.55890453E-06
  4.76256339E+00 -5.60145764E-01 -7.55890453E-06  4.86831238E+00 -1.78105058E+00
 -1.67179914E+00  4.86831238E+00 -1.78105058E+00 -1.67179914E+00  4.86831238E+00
 -1.78105058E+00 -1.67179914E+00  4.86831238E+00 -1.78105058E+00 -1.67179914E+00
  4.86839931E+00 -1.78090885E+00  1.67188039E+00  4.86839931E+00 -1.78090885E+00
  1.67188039E+00  4.86839931E+00 -1.78090885E+00  1.67188039E+00  4.86839931E+00
 -1.78090885E+00  1.67188039E+00  6.43871844E+00  6.56714913E-01 -1.05824663E-04
  6.43871844E+00  6.56714913E-01 -1.05824663E-04  6.43871844E+00  6.56714913E-01
 -1.05824663E-04  6.43871844E+00  6.56714913E-01 -1.05824663E-04  2.32375666E+00
  1.00045450E+00  0.00000000E+00  2.32375666E+00  1.00045450E+00  0.00000000E+00
  2.32375666E+00  1.00045450E+00  0.00000000E+00  2.32375666E+00  1.00045450E+00
  0.00000000E+00  2.32375666E+00  1.00045450E+00  0.00000000E+00  2.32375666E+00
  1.00045450E+00  0.00000000E+00  2.32375666E+00  1.00045450E+00  0.00000000E+00
  2.32375666E+00  1.00045450E+00  0.00000000E+00  2.32375666E+00  1.00045450E+00
  0.00000000E+00  2.32375666E+00  1.00045450E+00  0.00000000E+00  2.32375666E+00
  1.00045450E+00  0.00000000E+00  2.30516184E+00  2.24972410E+00  1.66014142E+00
  2.30516184E+00  2.24972410E+00  1.66014142E+00  2.30516184E+00  2.24972410E+00
  1.66014142E+00  2.30516184E+00  2.24972410E+00  1.66014142E+00  2.30513728E+00
  2.24967308E+00 -1.66017354E+00  2.30513728E+00  2.24967308E+00 -1.66017354E+00
  2.30513728E+00  2.24967308E+00 -1.66017354E+00  2.30513728E+00  2.24967308E+00
 -1.66017354E+00 -6.55791670E-02 -6.39997684E-01  1.88972613E-05 -6.55791670E-02
 -6.39997684E-01  1.88972613E-05 -6.55791670E-02 -6.39997684E-01  1.88972613E-05
 -6.55791670E-02 -6.39997684E-01  1.88972613E-05 -6.55791670E-02 -6.39997684E-01
  1.88972613E-05 -6.55791670E-02 -6.39997684E-01  1.88972613E-05 -6.55791670E-02
 -6.39997684E-01  1.88972613E-05 -6.55791670E-02 -6.39997684E-01  1.88972613E-05
 -6.55791670E-02 -6.39997684E-01  1.88972613E-05 -6.55791670E-02 -6.39997684E-01
  1.88972613E-05 -6.55791670E-02 -6.39997684E-01  1.88972613E-05 -7.70857987E-02
 -1.88164602E+00  1.66299490E+00 -7.70857987E-02 -1.88164602E+00  1.66299490E+00
 -7.70857987E-02 -1.88164602E+00  1.66299490E+00 -7.70857987E-02 -1.88164602E+00
  1.66299490E+00 -7.71028062E-02 -1.88167436E+00 -1.66293632E+00 -7.71028062E-02
 -1.88167436E+00 -1.66293632E+00 -7.71028062E-02 -1.88167436E+00 -1.66293632E+00
 -7.71028062E-02 -1.88167436E+00 -1.66293632E+00 -2.49510357E+00  9.01693982E-01
  1.88972613E-06 -2.49510357E+00  9.01693982E-01  1.88972613E-06 -2.49510357E+00
  9.01693982E-01  1.88972613E-06 -2.49510357E+00  9.01693982E-01  1.88972613E-06
 -2.49510357E+00  9.01693982E-01  1.88972613E-06 -2.49510357E+00  9.01693982E-01
  1.88972613E-06 -2.49510357E+00  9.01693982E-01  1.88972613E-06 -2.49510357E+00
  9.01693982E-01  1.88972613E-06 -2.49510357E+00  9.01693982E-01  1.88972613E-06
 -2.49510357E+00  9.01693982E-01  1.88972613E-06 -2.49510357E+00  9.01693982E-01
  1.88972613E-06 -2.54328961E+00  2.13919626E+00 -1.67767996E+00 -2.54328961E+00
  2.13919626E+00 -1.67767996E+00 -2.54328961E+00  2.13919626E+00 -1.67767996E+00
 -2.54328961E+00  2.13919626E+00 -1.67767996E+00 -2.54331039E+00  2.13919248E+00
  1.67768563E+00 -2.54331039E+00  2.13919248E+00  1.67768563E+00 -2.54331039E+00
  2.13919248E+00  1.67768563E+00 -2.54331039E+00  2.13919248E+00  1.67768563E+00
 -4.57290482E+00 -8.12041807E-01 -7.55890453E-06 -4.57290482E+00 -8.12041807E-01
 -7.55890453E-06 -4.57290482E+00 -8.12041807E-01 -7.55890453E-06 -4.57290482E+00
 -8.12041807E-01 -7.55890453E-06 -4.57290482E+00 -8.12041807E-01 -7.55890453E-06
 -4.57290482E+00 -8.12041807E-01 -7.55890453E-06 -4.57290482E+00 -8.12041807E-01
 -7.55890453E-06 -4.57290482E+00 -8.12041807E-01 -7.55890453E-06 -4.57290482E+00
 -8.12041807E-01 -7.55890453E-06 -4.57290482E+00 -8.12041807E-01 -7.55890453E-06
 -4.57290482E+00 -8.12041807E-01 -7.55890453E-06 -6.11552598E+00  1.75083206E-01
 -2.64561659E-05 -6.11552598E+00  1.75083206E-01 -2.64561659E-05 -6.11552598E+00
  1.75083206E-01 -2.64561659E-05 -6.11552598E+00  1.75083206E-01 -2.64561659E-05
Constraint Structure                       R   N=          45
  4.76256339E+00 -5.60145764E-01 -7.55890453E-06  4.86831238E+00 -1.78105058E+00
 -1.67179914E+00  4.86839931E+00 -1.78090885E+00  1.67188039E+00  6.43871844E+00
  6.56714913E-01 -1.05824663E-04  2.32375666E+00  1.00045450E+00  0.00000000E+00
  2.30516184E+00  2.24972410E+00  1.66014142E+00  2.30513728E+00  2.24967308E+00
 -1.66017354E+00 -6.55791670E-02 -6.39997684E-01  1.88972613E-05 -7.70857987E-02
 -1.88164602E+00  1.66299490E+00 -7.71028062E-02 -1.88167436E+00 -1.66293632E+00
 -2.49510357E+00  9.01693982E-01  1.88972613E-06 -2.54328961E+00  2.13919626E+00
 -1.67767996E+00 -2.54331039E+00  2.13919248E+00  1.67768563E+00 -4.57290482E+00
 -8.12041807E-01 -7.55890453E-06 -6.11552598E+00  1.75083206E-01 -2.64561659E-05
Num ILSW                                   I              100
ILSW                                       I   N=         100
           0           0           0           0           2           0
           0           0           0           0        4336          -1
           0           0           0           0           0           0
           0           0           0           0           0           0
           1           0           0           0           0           0
           0           0      100000           0          -1           0
           0           0           0           0           0           0
           0           0           0           1           0           0
           0           0           1           0           0           0
           0           0           4          41           0           0
           0           0          55           0           0           0
           0           0           0          15           0           0
           0           0           0           0           0           0
           0           0           0           0           0           0
           0           0           0           0           0           0
           0           0           0           0           0           0
           0           0           0           0
Num RLSW                                   I               41
RLSW                                       R   N=          41
  1.00000000E+00  1.00000000E+00  1.00000000E+00  1.00000000E+00  5.40000000E-01
  0.00000000E+00  0.00000000E+00  1.00000000E+00  0.00000000E+00  0.00000000E+00
  0.00000000E+00  0.00000000E+00  1.00000000E+00  0.00000000E+00  0.00000000E+00
  0.00000000E+00  0.00000000E+00  1.00000000E+00  0.00000000E+00  0.00000000E+00
  0.00000000E+00  0.00000000E+00  1.00000000E+00  0.00000000E+00  0.00000000E+00
  0.00000000E+00  0.00000000E+00  1.00000000E+00  0.00000000E+00  0.00000000E+00
  0.00000000E+00  0.00000000E+00  1.00000000E+00  0.00000000E+00  0.00000000E+00
  0.00000000E+00  0.00000000E+00  0.00000000E+00  1.00000000E+00  1.00000000E+00
  0.00000000E+00
ECP-MxAtEC                                 I           250000
ECP-MaxLECP                                I               10
ECP-MaxAtL                                 I          2250000
ECP-MxTECP                                 I         11250000
ECP-LenNCZ                                 I                0
ECP-KFirst                                 I   N=         150
           0           0           0           0           0           0
           0           0           0           0           0           0
           0           0           0           0           0           0
           0           0           0           0           0           0
           0           0           0           0           0           0
           0           0           0           0           0           0
           0           0           0           0           0           0
           0           0           0           0           0           0
           0           0           0           0           0           0
           0           0           0           0           0           0
           0           0           0           0           0           0
           0           0           0           0           0           0
           0           0           0           0           0           0
           0           0           0           0           0           0
           0           0           0           0           0           0
           0           0           0           0           0           0
           0           0           0           0           0           0
           0           0           0           0           0           0
           0           0           0           0           0           0
           0           0           0           0           0           0
           0           0           0           0           0           0
           0           0           0           0           0           0
           0           0           0           0           0           0
           0           0           0           0           0           0
           0           0           0           0           0           0
ECP-KLast                                  I   N=         150
           0           0           0           0           0           0
           0           0           0           0           0           0
           0           0           0           0           0           0
           0           0           0           0           0           0
           0           0           0           0           0           0
           0           0           0           0           0           0
           0           0           0           0           0           0
           0           0           0           0           0           0
           0           0           0           0           0           0
           0           0           0           0           0           0
           0           0           0           0           0           0
           0           0           0           0           0           0
           0           0           0           0           0           0
           0           0           0           0           0           0
           0           0           0           0           0           0
           0           0           0           0           0           0
           0           0           0           0           0           0
           0           0           0           0           0           0
           0           0           0           0           0           0
           0           0           0           0           0           0
           0           0           0           0           0           0
           0           0           0           0           0           0
           0           0           0           0           0           0
           0           0           0           0           0           0
           0           0           0           0           0           0
ECP-LMax                                   I   N=          15
           0           0           0           0           0           0
           0           0           0           0           0           0
           0           0           0
ECP-LPSkip                                 I   N=          15
           1           1           1           1           1           1
           1           1           1           1           1           1
           1           1           1
ECP-RNFroz                                 R   N=          15
  0.00000000E+00  0.00000000E+00  0.00000000E+00  0.00000000E+00  0.00000000E+00
  0.00000000E+00  0.00000000E+00  0.00000000E+00  0.00000000E+00  0.00000000E+00
  0.00000000E+00  0.00000000E+00  0.00000000E+00  0.00000000E+00  0.00000000E+00
ECP-NLP                                    I                0
ECP-CLP1                                   R      0.000000000000000E+00
ECP-CLP2                                   R      0.000000000000000E+00
ECP-ZLP                                    R      0.000000000000000E+00
MxBond                                     I                4
NBond                                      I   N=          15
           4           1           1           1           4           1
           1           4           1           1           4           1
           1           2           1
IBond                                      I   N=          60
           2           3           4           5           1           0
           0           0           1           0           0           0
           1           0           0           0           1           6
           7           8           5           0           0           0
           5           0           0           0           5           9
          10          11           8           0           0           0
           8           0           0           0           8          12
          13          14          11           0           0           0
          11           0           0           0          11          15
           0           0          14           0           0           0
RBond                                      R   N=          60
  1.00000000E+00  1.00000000E+00  1.00000000E+00  1.00000000E+00  1.00000000E+00
  0.00000000E+00  0.00000000E+00  0.00000000E+00  1.00000000E+00  0.00000000E+00
  0.00000000E+00  0.00000000E+00  1.00000000E+00  0.00000000E+00  0.00000000E+00
  0.00000000E+00  1.00000000E+00  1.00000000E+00  1.00000000E+00  1.00000000E+00
  1.00000000E+00  0.00000000E+00  0.00000000E+00  0.00000000E+00  1.00000000E+00
  0.00000000E+00  0.00000000E+00  0.00000000E+00  1.00000000E+00  1.00000000E+00
  1.00000000E+00  1.00000000E+00  1.00000000E+00  0.00000000E+00  0.00000000E+00
  0.00000000E+00  1.00000000E+00  0.00000000E+00  0.00000000E+00  0.00000000E+00
  1.00000000E+00  1.00000000E+00  1.00000000E+00  1.00000000E+00  1.00000000E+00
  0.00000000E+00  0.00000000E+00  0.00000000E+00  1.00000000E+00  0.00000000E+00
  0.00000000E+00  0.00000000E+00  1.00000000E+00  1.00000000E+00  0.00000000E+00
  0.00000000E+00  1.00000000E+00  0.00000000E+00  0.00000000E+00  0.00000000E+00
Virial Ratio                               R      2.005587442889989E+00