 Entering Gaussian System, Link 0=/share/apps/g09/g09
 Input=C3H7O2_61_b3631gd.gjf
 Output=C3H7O2_61_b3631gd.log
 Initial command:
 /share/apps/g09/l1.exe /state/partition1/Gau-23675.inp -scrdir=/state/partition1/
 Entering Link 1 = /share/apps/g09/l1.exe PID=     23676.
  
 Copyright (c) 1988,1990,1992,1993,1995,1998,2003,2009, Gaussian, Inc.
                  All Rights Reserved.
  
 This is part of the Gaussian(R) 09 program.  It is based on
 the Gaussian(R) 03 system (copyright 2003, Gaussian, Inc.),
 the Gaussian(R) 98 system (copyright 1998, Gaussian, Inc.),
 the Gaussian(R) 94 system (copyright 1995, Gaussian, Inc.),
 the Gaussian 92(TM) system (copyright 1992, Gaussian, Inc.),
 the Gaussian 90(TM) system (copyright 1990, Gaussian, Inc.),
 the Gaussian 88(TM) system (copyright 1988, Gaussian, Inc.),
 the Gaussian 86(TM) system (copyright 1986, Carnegie Mellon
 University), and the Gaussian 82(TM) system (copyright 1983,
 Carnegie Mellon University). Gaussian is a federally registered
 trademark of Gaussian, Inc.
  
 This software contains proprietary and confidential information,
 including trade secrets, belonging to Gaussian, Inc.
  
 This software is provided under written license and may be
 used, copied, transmitted, or stored only in accord with that
 written license.
  
 The following legend is applicable only to US Government
 contracts under FAR:
  
                    RESTRICTED RIGHTS LEGEND
  
 Use, reproduction and disclosure by the US Government is
 subject to restrictions as set forth in subparagraphs (a)
 and (c) of the Commercial Computer Software - Restricted
 Rights clause in FAR 52.227-19.
  
 Gaussian, Inc.
 340 Quinnipiac St., Bldg. 40, Wallingford CT 06492
  
  
 ---------------------------------------------------------------
 Warning -- This program may not be used in any manner that
 competes with the business of Gaussian, Inc. or will provide
 assistance to any competitor of Gaussian, Inc.  The licensee
 of this program is prohibited from giving any competitor of
 Gaussian, Inc. access to this program.  By using this program,
 the user acknowledges that Gaussian, Inc. is engaged in the
 business of creating and licensing software in the field of
 computational chemistry and represents and warrants to the
 licensee that it is not a competitor of Gaussian, Inc. and that
 it will not use this program in any manner prohibited above.
 ---------------------------------------------------------------
  

 Cite this work as:
 Gaussian 09, Revision A.01,
 M. J. Frisch, G. W. Trucks, H. B. Schlegel, G. E. Scuseria, 
 M. A. Robb, J. R. Cheeseman, G. Scalmani, V. Barone, B. Mennucci, 
 G. A. Petersson, H. Nakatsuji, M. Caricato, X. Li, H. P. Hratchian, 
 A. F. Izmaylov, J. Bloino, G. Zheng, J. L. Sonnenberg, M. Hada, 
 M. Ehara, K. Toyota, R. Fukuda, J. Hasegawa, M. Ishida, T. Nakajima, 
 Y. Honda, O. Kitao, H. Nakai, T. Vreven, J. A. Montgomery, Jr., 
 J. E. Peralta, F. Ogliaro, M. Bearpark, J. J. Heyd, E. Brothers, 
 K. N. Kudin, V. N. Staroverov, R. Kobayashi, J. Normand, 
 K. Raghavachari, A. Rendell, J. C. Burant, S. S. Iyengar, J. Tomasi, 
 M. Cossi, N. Rega, J. M. Millam, M. Klene, J. E. Knox, J. B. Cross, 
 V. Bakken, C. Adamo, J. Jaramillo, R. Gomperts, R. E. Stratmann, 
 O. Yazyev, A. J. Austin, R. Cammi, C. Pomelli, J. W. Ochterski, 
 R. L. Martin, K. Morokuma, V. G. Zakrzewski, G. A. Voth, 
 P. Salvador, J. J. Dannenberg, S. Dapprich, A. D. Daniels, 
 O. Farkas, J. B. Foresman, J. V. Ortiz, J. Cioslowski, 
 and D. J. Fox, Gaussian, Inc., Wallingford CT, 2009.
 
 ******************************************
 Gaussian 09:  EM64L-G09RevA.01  8-May-2009
                 1-Apr-2015 
 ******************************************
 %mem=28GB
 %nprocshared=12
 Will use up to   12 processors via shared memory.
 %chk=C3H7O2_61_b3631gd.chk
 ---------------------------
 #p opt freq ub3lyp/6-31g(d)
 ---------------------------
 1/14=-1,18=20,19=15,26=3,38=1/1,3;
 2/9=110,12=2,17=6,18=5,40=1/2;
 3/5=1,6=6,7=1,11=2,16=1,25=1,30=1,71=1,74=-5,116=2/1,2,3;
 4//1;
 5/5=2,38=5/2;
 6/7=2,8=2,9=2,10=2,28=1/1;
 7//1,2,3,16;
 1/14=-1,18=20,19=15/3(2);
 2/9=110/2;
 99//99;
 2/9=110/2;
 3/5=1,6=6,7=1,11=2,16=1,25=1,30=1,71=1,74=-5,116=2/1,2,3;
 4/5=5,16=3/1;
 5/5=2,38=5/2;
 7//1,2,3,16;
 1/14=-1,18=20,19=15/3(-5);
 2/9=110/2;
 6/7=2,8=2,9=2,10=2,19=2,28=1/1;
 99/9=1/99;
 Leave Link    1 at Wed Apr  1 00:03:05 2015, MaxMem= 3758096384 cpu:       0.3
 (Enter /share/apps/g09/l101.exe)
 ------------------------------------------------------
 RO2_3_2_opt_ub3631gd using cbs-qb3 to calculate energy
 ------------------------------------------------------
 Symbolic Z-matrix:
 Charge =  0 Multiplicity = 2
 C                     0.0347    0.09742   0.18264 
 H                     0.0526    0.40243   1.24048 
 H                     1.07614   0.01601  -0.16565 
 H                    -0.41751  -0.90751   0.13051 
 C                    -0.75158   1.10209  -0.66364 
 H                    -0.25577   2.08835  -0.64759 
 H                    -0.7722    0.78264  -1.72028 
 C                    -2.19249   1.27736  -0.21616 
 H                    -2.75836   1.95771  -0.8721 
 H                    -2.73354   0.32085  -0.13502 
 O                    -2.17861   1.87812   1.11631 
 O                    -3.39082   1.95258   1.62423 
 
 NAtoms=     12 NQM=     12 NQMF=      0 NMic=      0 NMicF=      0 NTot=     12.
                    Isotopes and Nuclear Properties:
 (Nuclear quadrupole moments (NQMom) in fm**2, nuclear magnetic moments (NMagM)
  in nuclear magnetons)

  Atom         1           2           3           4           5           6           7           8           9          10
 IAtWgt=          12           1           1           1          12           1           1          12           1           1
 AtmWgt=  12.0000000   1.0078250   1.0078250   1.0078250  12.0000000   1.0078250   1.0078250  12.0000000   1.0078250   1.0078250
 NucSpn=           0           1           1           1           0           1           1           0           1           1
 AtZEff=   0.0000000   0.0000000   0.0000000   0.0000000   0.0000000   0.0000000   0.0000000   0.0000000   0.0000000   0.0000000
 NQMom=    0.0000000   0.0000000   0.0000000   0.0000000   0.0000000   0.0000000   0.0000000   0.0000000   0.0000000   0.0000000
 NMagM=    0.0000000   2.7928460   2.7928460   2.7928460   0.0000000   2.7928460   2.7928460   0.0000000   2.7928460   2.7928460

  Atom        11          12
 IAtWgt=          16          16
 AtmWgt=  15.9949146  15.9949146
 NucSpn=           0           0
 AtZEff=   0.0000000   0.0000000
 NQMom=    0.0000000   0.0000000
 NMagM=    0.0000000   0.0000000
 Leave Link  101 at Wed Apr  1 00:03:05 2015, MaxMem= 3758096384 cpu:       0.7
 (Enter /share/apps/g09/l103.exe)

 GradGradGradGradGradGradGradGradGradGradGradGradGradGradGradGradGradGrad
 Berny optimization.
 Initialization pass.
                           ----------------------------
                           !    Initial Parameters    !
                           ! (Angstroms and Degrees)  !
 --------------------------                            --------------------------
 ! Name  Definition              Value          Derivative Info.                !
 --------------------------------------------------------------------------------
 ! R1    R(1,2)                  1.1011         estimate D2E/DX2                !
 ! R2    R(1,3)                  1.1012         estimate D2E/DX2                !
 ! R3    R(1,4)                  1.1032         estimate D2E/DX2                !
 ! R4    R(1,5)                  1.5309         estimate D2E/DX2                !
 ! R5    R(5,6)                  1.104          estimate D2E/DX2                !
 ! R6    R(5,7)                  1.1041         estimate D2E/DX2                !
 ! R7    R(5,8)                  1.5189         estimate D2E/DX2                !
 ! R8    R(8,9)                  1.1015         estimate D2E/DX2                !
 ! R9    R(8,10)                 1.1019         estimate D2E/DX2                !
 ! R10   R(8,11)                 1.4617         estimate D2E/DX2                !
 ! R11   R(11,12)                1.3164         estimate D2E/DX2                !
 ! A1    A(2,1,3)              107.9981         estimate D2E/DX2                !
 ! A2    A(2,1,4)              107.7211         estimate D2E/DX2                !
 ! A3    A(2,1,5)              110.9552         estimate D2E/DX2                !
 ! A4    A(3,1,4)              107.7813         estimate D2E/DX2                !
 ! A5    A(3,1,5)              111.0644         estimate D2E/DX2                !
 ! A6    A(4,1,5)              111.1698         estimate D2E/DX2                !
 ! A7    A(1,5,6)              110.3384         estimate D2E/DX2                !
 ! A8    A(1,5,7)              110.4112         estimate D2E/DX2                !
 ! A9    A(1,5,8)              113.5835         estimate D2E/DX2                !
 ! A10   A(6,5,7)              106.3076         estimate D2E/DX2                !
 ! A11   A(6,5,8)              108.5822         estimate D2E/DX2                !
 ! A12   A(7,5,8)              107.3139         estimate D2E/DX2                !
 ! A13   A(5,8,9)              112.5305         estimate D2E/DX2                !
 ! A14   A(5,8,10)             112.7872         estimate D2E/DX2                !
 ! A15   A(5,8,11)             107.8766         estimate D2E/DX2                !
 ! A16   A(9,8,10)             109.1324         estimate D2E/DX2                !
 ! A17   A(9,8,11)             107.0894         estimate D2E/DX2                !
 ! A18   A(10,8,11)            107.1155         estimate D2E/DX2                !
 ! A19   A(8,11,12)            111.4829         estimate D2E/DX2                !
 ! D1    D(2,1,5,6)             63.3294         estimate D2E/DX2                !
 ! D2    D(2,1,5,7)           -179.4473         estimate D2E/DX2                !
 ! D3    D(2,1,5,8)            -58.8547         estimate D2E/DX2                !
 ! D4    D(3,1,5,6)            -56.8072         estimate D2E/DX2                !
 ! D5    D(3,1,5,7)             60.4161         estimate D2E/DX2                !
 ! D6    D(3,1,5,8)           -178.9913         estimate D2E/DX2                !
 ! D7    D(4,1,5,6)           -176.8133         estimate D2E/DX2                !
 ! D8    D(4,1,5,7)            -59.59           estimate D2E/DX2                !
 ! D9    D(4,1,5,8)             61.0026         estimate D2E/DX2                !
 ! D10   D(1,5,8,9)           -176.6027         estimate D2E/DX2                !
 ! D11   D(1,5,8,10)           -52.6059         estimate D2E/DX2                !
 ! D12   D(1,5,8,11)            65.4872         estimate D2E/DX2                !
 ! D13   D(6,5,8,9)             60.2454         estimate D2E/DX2                !
 ! D14   D(6,5,8,10)          -175.7578         estimate D2E/DX2                !
 ! D15   D(6,5,8,11)           -57.6647         estimate D2E/DX2                !
 ! D16   D(7,5,8,9)            -54.2801         estimate D2E/DX2                !
 ! D17   D(7,5,8,10)            69.7166         estimate D2E/DX2                !
 ! D18   D(7,5,8,11)          -172.1903         estimate D2E/DX2                !
 ! D19   D(5,8,11,12)         -174.3521         estimate D2E/DX2                !
 ! D20   D(9,8,11,12)           64.2908         estimate D2E/DX2                !
 ! D21   D(10,8,11,12)         -52.6746         estimate D2E/DX2                !
 --------------------------------------------------------------------------------
 Trust Radius=3.00D-01 FncErr=1.00D-07 GrdErr=1.00D-06
 Number of steps in this run=  61 maximum allowed number of steps= 100.
 GradGradGradGradGradGradGradGradGradGradGradGradGradGradGradGradGradGrad

 Leave Link  103 at Wed Apr  1 00:03:05 2015, MaxMem= 3758096384 cpu:       0.1
 (Enter /share/apps/g09/l202.exe)
                          Input orientation:                          
 ---------------------------------------------------------------------
 Center     Atomic      Atomic             Coordinates (Angstroms)
 Number     Number       Type             X           Y           Z
 ---------------------------------------------------------------------
      1          6           0        0.034704    0.097420    0.182639
      2          1           0        0.052601    0.402429    1.240479
      3          1           0        1.076144    0.016008   -0.165653
      4          1           0       -0.417508   -0.907508    0.130514
      5          6           0       -0.751576    1.102088   -0.663640
      6          1           0       -0.255765    2.088351   -0.647587
      7          1           0       -0.772204    0.782636   -1.720278
      8          6           0       -2.192487    1.277362   -0.216164
      9          1           0       -2.758357    1.957705   -0.872097
     10          1           0       -2.733538    0.320845   -0.135020
     11          8           0       -2.178605    1.878122    1.116307
     12          8           0       -3.390816    1.952576    1.624234
 ---------------------------------------------------------------------
                    Distance matrix (angstroms):
                    1          2          3          4          5
     1  C    0.000000
     2  H    1.101080   0.000000
     3  H    1.101151   1.781620   0.000000
     4  H    1.103219   1.780157   1.780897   0.000000
     5  C    1.530942   2.182176   2.183603   2.186494   0.000000
     6  H    2.176569   2.549944   2.510149   3.099479   1.103993
     7  H    2.177548   3.096925   2.533963   2.531369   1.104065
     8  C    2.551801   2.815624   3.503928   2.836264   1.518941
     9  H    3.517715   3.844912   4.355760   3.833308   2.191507
    10  H    2.795351   3.108251   3.821981   2.635025   2.194984
    11  O    2.990213   2.677941   3.962863   3.439911   2.409741
    12  O    4.153792   3.795701   5.187265   4.387692   3.594897
                    6          7          8          9         10
     6  H    0.000000
     7  H    1.766994   0.000000
     8  C    2.143530   2.127044   0.000000
     9  H    2.516037   2.458659   1.101510   0.000000
    10  H    3.086448   2.563811   1.101928   1.795330   0.000000
    11  O    2.617791   3.350264   1.461706   2.072727   2.073374
    12  O    3.874035   4.405865   2.297601   2.575209   2.487878
                   11         12
    11  O    0.000000
    12  O    1.316430   0.000000
 Stoichiometry    C3H7O2(2)
 Framework group  C1[X(C3H7O2)]
 Deg. of freedom    30
 Full point group                 C1      NOp   1
 Largest Abelian subgroup         C1      NOp   1
 Largest concise Abelian subgroup C1      NOp   1
                         Standard orientation:                         
 ---------------------------------------------------------------------
 Center     Atomic      Atomic             Coordinates (Angstroms)
 Number     Number       Type             X           Y           Z
 ---------------------------------------------------------------------
      1          6           0       -1.906373   -0.710889    0.140502
      2          1           0       -1.338404   -1.574800   -0.238240
      3          1           0       -2.924172   -0.763597   -0.276440
      4          1           0       -1.985240   -0.815004    1.235962
      5          6           0       -1.222460    0.604290   -0.242053
      6          1           0       -1.201806    0.720936   -1.339672
      7          1           0       -1.793740    1.463721    0.150344
      8          6           0        0.197020    0.726708    0.284512
      9          1           0        0.651258    1.702566    0.050650
     10          1           0        0.266814    0.546541    1.369369
     11          8           0        1.009582   -0.294243   -0.374266
     12          8           0        2.229939   -0.330884    0.118049
 ---------------------------------------------------------------------
 Rotational constants (GHZ):     12.8809314      2.7115818      2.4520815
 Leave Link  202 at Wed Apr  1 00:03:05 2015, MaxMem= 3758096384 cpu:       0.1
 (Enter /share/apps/g09/l301.exe)
 Standard basis: 6-31G(d) (6D, 7F)
 Ernie: Thresh=  0.10000D-02 Tol=  0.10000D-05 Strict=F.
 There are    89 symmetry adapted basis functions of A   symmetry.
 Integral buffers will be    131072 words long.
 Raffenetti 2 integral format.
 Two-electron integral symmetry is turned on.
    89 basis functions,   168 primitive gaussians,    89 cartesian basis functions
    21 alpha electrons       20 beta electrons
       nuclear repulsion energy       180.8395281228 Hartrees.
 IExCor=  402 DFT=T Ex+Corr=B3LYP ExCW=0 ScaHFX=  0.200000
 ScaDFX=  0.800000  0.720000  1.000000  0.810000 ScalE2=  1.000000  1.000000
 IRadAn=      0 IRanWt=     -1 IRanGd=            0 ICorTp=0
 NAtoms=   12 NActive=   12 NUniq=   12 SFac= 7.50D-01 NAtFMM=   80 NAOKFM=F Big=F
 Leave Link  301 at Wed Apr  1 00:03:05 2015, MaxMem= 3758096384 cpu:       0.6
 (Enter /share/apps/g09/l302.exe)
 NPDir=0 NMtPBC=     1 NCelOv=     1 NCel=       1 NClECP=     1 NCelD=      1
         NCelK=      1 NCelE2=     1 NClLst=     1 CellRange=     0.0.
 One-electron integrals computed using PRISM.
 NBasis=    89 RedAO= T  NBF=    89
 NBsUse=    89 1.00D-06 NBFU=    89
 Precomputing XC quadrature grid using
 IXCGrd= 2 IRadAn=           0 IRanWt=          -1 IRanGd=           0 AccXCQ= 1.00D-10.
 NRdTot=     742 NPtTot=       94340 NUsed=       99703 NTot=       99735
 NSgBfM=    89    89    89    89    89 NAtAll=    12    12.
 Leave Link  302 at Wed Apr  1 00:03:05 2015, MaxMem= 3758096384 cpu:       1.8
 (Enter /share/apps/g09/l303.exe)
 DipDrv:  MaxL=1.
 Leave Link  303 at Wed Apr  1 00:03:06 2015, MaxMem= 3758096384 cpu:       0.4
 (Enter /share/apps/g09/l401.exe)
 Harris functional with IExCor=  402 diagonalized for initial guess.
 ExpMin= 1.61D-01 ExpMax= 5.48D+03 ExpMxC= 8.25D+02 IAcc=1 IRadAn=         1 AccDes= 0.00D+00
 HarFok:  IExCor=  402 AccDes= 0.00D+00 IRadAn=         1 IDoV= 1
 ScaDFX=  1.000000  1.000000  1.000000  1.000000
 FoFCou: FMM=F IPFlag=           0 FMFlag=      100000 FMFlg1=           0
         NFxFlg=           0 DoJE=T BraDBF=F KetDBF=T FulRan=T
         Omega=  0.000000  0.000000  1.000000  0.000000  0.000000 ICntrl=     500 IOpCl=  0
         NMat0=    1 NMatS0=    1 NMatT0=    0 NMatD0=    1 NMtDS0=    0 NMtDT0=    0
         I1Cent=           4 NGrid=           0.
 Petite list used in FoFCou.
 Harris En= -268.871714530013    
 Initial guess orbital symmetries:
 Alpha Orbitals:
       Occupied  (A) (A) (A) (A) (A) (A) (A) (A) (A) (A) (A) (A)
                 (A) (A) (A) (A) (A) (A) (A) (A) (A)
       Virtual   (A) (A) (A) (A) (A) (A) (A) (A) (A) (A) (A) (A)
                 (A) (A) (A) (A) (A) (A) (A) (A) (A) (A) (A) (A)
                 (A) (A) (A) (A) (A) (A) (A) (A) (A) (A) (A) (A)
                 (A) (A) (A) (A) (A) (A) (A) (A) (A) (A) (A) (A)
                 (A) (A) (A) (A) (A) (A) (A) (A) (A) (A) (A) (A)
                 (A) (A) (A) (A) (A) (A) (A) (A)
 Beta  Orbitals:
       Occupied  (A) (A) (A) (A) (A) (A) (A) (A) (A) (A) (A) (A)
                 (A) (A) (A) (A) (A) (A) (A) (A)
       Virtual   (A) (A) (A) (A) (A) (A) (A) (A) (A) (A) (A) (A)
                 (A) (A) (A) (A) (A) (A) (A) (A) (A) (A) (A) (A)
                 (A) (A) (A) (A) (A) (A) (A) (A) (A) (A) (A) (A)
                 (A) (A) (A) (A) (A) (A) (A) (A) (A) (A) (A) (A)
                 (A) (A) (A) (A) (A) (A) (A) (A) (A) (A) (A) (A)
                 (A) (A) (A) (A) (A) (A) (A) (A) (A)
 The electronic state of the initial guess is 2-A.
 Initial guess <Sx>= 0.0000 <Sy>= 0.0000 <Sz>= 0.5000 <S**2>= 0.7500 S= 0.5000
 Leave Link  401 at Wed Apr  1 00:03:06 2015, MaxMem= 3758096384 cpu:       2.3
 (Enter /share/apps/g09/l502.exe)
 UHF open shell SCF:
 Requested convergence on RMS density matrix=1.00D-08 within 128 cycles.
 Requested convergence on MAX density matrix=1.00D-06.
 Requested convergence on             energy=1.00D-06.
 No special actions if energy rises.
 Using DIIS extrapolation, IDIIS=  1040.
 Integral symmetry usage will be decided dynamically.
        99582 words used for storage of precomputed grid.
 Keep R1 and R2 ints in memory in canonical form, NReq=17096775.
 IEnd=      143240 IEndB=      143240 NGot=  3758096384 MDV=  3741933737
 LenX=  3741933737 LenY=  3741925375
 Symmetry not used in FoFDir.
 MinBra= 0 MaxBra= 2 Meth= 1.
 IRaf=       0 NMat=   1 IRICut=       1 DoRegI=T DoRafI=F ISym2E= 0 JSym2E=0.
 Integral accuracy reduced to 1.0D-05 until final iterations.

 Cycle   1  Pass 0  IDiag  1:
 E= -268.703235582646    
 DIIS: error= 3.22D-02 at cycle   1 NSaved=   1.
 NSaved= 1 IEnMin= 1 EnMin= -268.703235582646     IErMin= 1 ErrMin= 3.22D-02
 ErrMax= 3.22D-02 EMaxC= 1.00D-01 BMatC= 5.62D-01 BMatP= 5.62D-01
 IDIUse=3 WtCom= 6.78D-01 WtEn= 3.22D-01
 Coeff-Com:  0.100D+01
 Coeff-En:   0.100D+01
 Coeff:      0.100D+01
 Gap=     0.370 Goal=   None    Shift=    0.000
 Gap=     0.105 Goal=   None    Shift=    0.000
 GapD=    0.105 DampG=1.000 DampE=0.500 DampFc=0.5000 IDamp=-1.
 Damping current iteration by 5.00D-01
 RMSDP=8.48D-03 MaxDP=1.37D-01              OVMax= 1.96D-01

 Cycle   2  Pass 0  IDiag  1:
 E= -268.757659645344     Delta-E=       -0.054424062698 Rises=F Damp=T
 DIIS: error= 9.17D-03 at cycle   2 NSaved=   2.
 NSaved= 2 IEnMin= 2 EnMin= -268.757659645344     IErMin= 2 ErrMin= 9.17D-03
 ErrMax= 9.17D-03 EMaxC= 1.00D-01 BMatC= 7.68D-02 BMatP= 5.62D-01
 IDIUse=3 WtCom= 9.08D-01 WtEn= 9.17D-02
 Coeff-Com:  0.182D+00 0.818D+00
 Coeff-En:   0.233D+00 0.767D+00
 Coeff:      0.187D+00 0.813D+00
 Gap=     0.357 Goal=   None    Shift=    0.000
 Gap=     0.152 Goal=   None    Shift=    0.000
 RMSDP=1.84D-03 MaxDP=4.92D-02 DE=-5.44D-02 OVMax= 1.49D-01

 Cycle   3  Pass 0  IDiag  1:
 E= -268.834344262764     Delta-E=       -0.076684617419 Rises=F Damp=F
 DIIS: error= 1.78D-02 at cycle   3 NSaved=   3.
 NSaved= 3 IEnMin= 3 EnMin= -268.834344262764     IErMin= 2 ErrMin= 9.17D-03
 ErrMax= 1.78D-02 EMaxC= 1.00D-01 BMatC= 7.31D-02 BMatP= 7.68D-02
 IDIUse=3 WtCom= 8.22D-01 WtEn= 1.78D-01
 Coeff-Com:  0.561D-01 0.482D+00 0.462D+00
 Coeff-En:   0.000D+00 0.000D+00 0.100D+01
 Coeff:      0.461D-01 0.396D+00 0.558D+00
 Gap=     0.346 Goal=   None    Shift=    0.000
 Gap=     0.144 Goal=   None    Shift=    0.000
 RMSDP=1.72D-03 MaxDP=4.43D-02 DE=-7.67D-02 OVMax= 8.49D-02

 Cycle   4  Pass 0  IDiag  1:
 E= -268.840645423412     Delta-E=       -0.006301160648 Rises=F Damp=F
 DIIS: error= 1.16D-02 at cycle   4 NSaved=   4.
 NSaved= 4 IEnMin= 4 EnMin= -268.840645423412     IErMin= 2 ErrMin= 9.17D-03
 ErrMax= 1.16D-02 EMaxC= 1.00D-01 BMatC= 4.26D-02 BMatP= 7.31D-02
 IDIUse=3 WtCom= 8.84D-01 WtEn= 1.16D-01
 Coeff-Com:  0.186D-01 0.497D-01 0.419D+00 0.513D+00
 Coeff-En:   0.000D+00 0.000D+00 0.390D+00 0.610D+00
 Coeff:      0.164D-01 0.439D-01 0.416D+00 0.524D+00
 Gap=     0.347 Goal=   None    Shift=    0.000
 Gap=     0.151 Goal=   None    Shift=    0.000
 RMSDP=8.16D-04 MaxDP=1.65D-02 DE=-6.30D-03 OVMax= 2.67D-02

 Cycle   5  Pass 0  IDiag  1:
 E= -268.848376945846     Delta-E=       -0.007731522434 Rises=F Damp=F
 DIIS: error= 9.46D-04 at cycle   5 NSaved=   5.
 NSaved= 5 IEnMin= 5 EnMin= -268.848376945846     IErMin= 5 ErrMin= 9.46D-04
 ErrMax= 9.46D-04 EMaxC= 1.00D-01 BMatC= 3.07D-04 BMatP= 4.26D-02
 IDIUse=3 WtCom= 9.91D-01 WtEn= 9.46D-03
 Coeff-Com:  0.460D-02-0.178D-01 0.126D+00 0.181D+00 0.707D+00
 Coeff-En:   0.000D+00 0.000D+00 0.000D+00 0.000D+00 0.100D+01
 Coeff:      0.456D-02-0.176D-01 0.125D+00 0.179D+00 0.709D+00
 Gap=     0.344 Goal=   None    Shift=    0.000
 Gap=     0.152 Goal=   None    Shift=    0.000
 RMSDP=1.28D-04 MaxDP=3.28D-03 DE=-7.73D-03 OVMax= 6.74D-03

 Cycle   6  Pass 0  IDiag  1:
 E= -268.848446687928     Delta-E=       -0.000069742082 Rises=F Damp=F
 DIIS: error= 4.58D-04 at cycle   6 NSaved=   6.
 NSaved= 6 IEnMin= 6 EnMin= -268.848446687928     IErMin= 6 ErrMin= 4.58D-04
 ErrMax= 4.58D-04 EMaxC= 1.00D-01 BMatC= 9.38D-05 BMatP= 3.07D-04
 IDIUse=3 WtCom= 9.95D-01 WtEn= 4.58D-03
 Coeff-Com:  0.972D-03-0.151D-01 0.837D-02 0.422D-02 0.302D+00 0.699D+00
 Coeff-En:   0.000D+00 0.000D+00 0.000D+00 0.000D+00 0.000D+00 0.100D+01
 Coeff:      0.968D-03-0.150D-01 0.833D-02 0.420D-02 0.301D+00 0.701D+00
 Gap=     0.345 Goal=   None    Shift=    0.000
 Gap=     0.152 Goal=   None    Shift=    0.000
 RMSDP=5.79D-05 MaxDP=1.34D-03 DE=-6.97D-05 OVMax= 1.46D-03

 Cycle   7  Pass 0  IDiag  1:
 E= -268.848467889694     Delta-E=       -0.000021201765 Rises=F Damp=F
 DIIS: error= 1.88D-04 at cycle   7 NSaved=   7.
 NSaved= 7 IEnMin= 7 EnMin= -268.848467889694     IErMin= 7 ErrMin= 1.88D-04
 ErrMax= 1.88D-04 EMaxC= 1.00D-01 BMatC= 1.48D-05 BMatP= 9.38D-05
 IDIUse=3 WtCom= 9.98D-01 WtEn= 1.88D-03
 Coeff-Com:  0.718D-04-0.146D-02-0.163D-01-0.382D-01-0.542D-01 0.169D+00
 Coeff-Com:  0.941D+00
 Coeff-En:   0.000D+00 0.000D+00 0.000D+00 0.000D+00 0.000D+00 0.000D+00
 Coeff-En:   0.100D+01
 Coeff:      0.716D-04-0.145D-02-0.163D-01-0.381D-01-0.541D-01 0.169D+00
 Coeff:      0.941D+00
 Gap=     0.346 Goal=   None    Shift=    0.000
 Gap=     0.153 Goal=   None    Shift=    0.000
 RMSDP=2.94D-05 MaxDP=6.55D-04 DE=-2.12D-05 OVMax= 1.59D-03

 Cycle   8  Pass 0  IDiag  1:
 E= -268.848472228848     Delta-E=       -0.000004339154 Rises=F Damp=F
 DIIS: error= 7.22D-05 at cycle   8 NSaved=   8.
 NSaved= 8 IEnMin= 8 EnMin= -268.848472228848     IErMin= 8 ErrMin= 7.22D-05
 ErrMax= 7.22D-05 EMaxC= 1.00D-01 BMatC= 2.57D-06 BMatP= 1.48D-05
 IDIUse=1 WtCom= 1.00D+00 WtEn= 0.00D+00
 Coeff-Com:  0.968D-04 0.139D-02-0.704D-02-0.187D-01-0.645D-01-0.359D-01
 Coeff-Com:  0.428D+00 0.696D+00
 Coeff:      0.968D-04 0.139D-02-0.704D-02-0.187D-01-0.645D-01-0.359D-01
 Coeff:      0.428D+00 0.696D+00
 Gap=     0.346 Goal=   None    Shift=    0.000
 Gap=     0.153 Goal=   None    Shift=    0.000
 RMSDP=1.14D-05 MaxDP=2.38D-04 DE=-4.34D-06 OVMax= 4.14D-04

 Cycle   9  Pass 0  IDiag  1:
 E= -268.848472967354     Delta-E=       -0.000000738506 Rises=F Damp=F
 DIIS: error= 2.12D-05 at cycle   9 NSaved=   9.
 NSaved= 9 IEnMin= 9 EnMin= -268.848472967354     IErMin= 9 ErrMin= 2.12D-05
 ErrMax= 2.12D-05 EMaxC= 1.00D-01 BMatC= 1.61D-07 BMatP= 2.57D-06
 IDIUse=1 WtCom= 1.00D+00 WtEn= 0.00D+00
 Coeff-Com:  0.641D-04 0.203D-03 0.140D-02 0.190D-02-0.155D-02-0.363D-01
 Coeff-Com: -0.642D-01 0.121D+00 0.977D+00
 Coeff:      0.641D-04 0.203D-03 0.140D-02 0.190D-02-0.155D-02-0.363D-01
 Coeff:     -0.642D-01 0.121D+00 0.977D+00
 Gap=     0.346 Goal=   None    Shift=    0.000
 Gap=     0.153 Goal=   None    Shift=    0.000
 RMSDP=3.96D-06 MaxDP=1.11D-04 DE=-7.39D-07 OVMax= 1.46D-04

 Initial convergence to 1.0D-05 achieved.  Increase integral accuracy.
 Cycle  10  Pass 1  IDiag  1:
 E= -268.848493166559     Delta-E=       -0.000020199205 Rises=F Damp=F
 DIIS: error= 1.04D-05 at cycle   1 NSaved=   1.
 NSaved= 1 IEnMin= 1 EnMin= -268.848493166559     IErMin= 1 ErrMin= 1.04D-05
 ErrMax= 1.04D-05 EMaxC= 1.00D-01 BMatC= 6.23D-08 BMatP= 6.23D-08
 IDIUse=1 WtCom= 1.00D+00 WtEn= 0.00D+00
 Coeff-Com:  0.100D+01
 Coeff:      0.100D+01
 Gap=     0.346 Goal=   None    Shift=    0.000
 Gap=     0.153 Goal=   None    Shift=    0.000
 RMSDP=3.96D-06 MaxDP=1.11D-04 DE=-2.02D-05 OVMax= 5.48D-05

 Cycle  11  Pass 1  IDiag  1:
 E= -268.848493187816     Delta-E=       -0.000000021257 Rises=F Damp=F
 DIIS: error= 3.06D-06 at cycle   2 NSaved=   2.
 NSaved= 2 IEnMin= 2 EnMin= -268.848493187816     IErMin= 2 ErrMin= 3.06D-06
 ErrMax= 3.06D-06 EMaxC= 1.00D-01 BMatC= 6.40D-09 BMatP= 6.23D-08
 IDIUse=1 WtCom= 1.00D+00 WtEn= 0.00D+00
 Coeff-Com:  0.115D+00 0.885D+00
 Coeff:      0.115D+00 0.885D+00
 Gap=     0.346 Goal=   None    Shift=    0.000
 Gap=     0.153 Goal=   None    Shift=    0.000
 RMSDP=8.38D-07 MaxDP=1.45D-05 DE=-2.13D-08 OVMax= 2.07D-05

 Cycle  12  Pass 1  IDiag  1:
 E= -268.848493188761     Delta-E=       -0.000000000946 Rises=F Damp=F
 DIIS: error= 2.46D-06 at cycle   3 NSaved=   3.
 NSaved= 3 IEnMin= 3 EnMin= -268.848493188761     IErMin= 3 ErrMin= 2.46D-06
 ErrMax= 2.46D-06 EMaxC= 1.00D-01 BMatC= 4.85D-09 BMatP= 6.40D-09
 IDIUse=1 WtCom= 1.00D+00 WtEn= 0.00D+00
 Coeff-Com: -0.285D-01 0.464D+00 0.565D+00
 Coeff:     -0.285D-01 0.464D+00 0.565D+00
 Gap=     0.346 Goal=   None    Shift=    0.000
 Gap=     0.153 Goal=   None    Shift=    0.000
 RMSDP=3.72D-07 MaxDP=7.65D-06 DE=-9.46D-10 OVMax= 1.36D-05

 Cycle  13  Pass 1  IDiag  1:
 E= -268.848493189992     Delta-E=       -0.000000001231 Rises=F Damp=F
 DIIS: error= 1.02D-06 at cycle   4 NSaved=   4.
 NSaved= 4 IEnMin= 4 EnMin= -268.848493189992     IErMin= 4 ErrMin= 1.02D-06
 ErrMax= 1.02D-06 EMaxC= 1.00D-01 BMatC= 2.23D-10 BMatP= 4.85D-09
 IDIUse=1 WtCom= 1.00D+00 WtEn= 0.00D+00
 Coeff-Com: -0.148D-01 0.764D-01 0.164D+00 0.775D+00
 Coeff:     -0.148D-01 0.764D-01 0.164D+00 0.775D+00
 Gap=     0.346 Goal=   None    Shift=    0.000
 Gap=     0.153 Goal=   None    Shift=    0.000
 RMSDP=1.81D-07 MaxDP=7.49D-06 DE=-1.23D-09 OVMax= 1.30D-05

 Cycle  14  Pass 1  IDiag  1:
 E= -268.848493190085     Delta-E=       -0.000000000093 Rises=F Damp=F
 DIIS: error= 9.64D-07 at cycle   5 NSaved=   5.
 NSaved= 5 IEnMin= 5 EnMin= -268.848493190085     IErMin= 5 ErrMin= 9.64D-07
 ErrMax= 9.64D-07 EMaxC= 1.00D-01 BMatC= 3.15D-10 BMatP= 2.23D-10
 IDIUse=1 WtCom= 1.00D+00 WtEn= 0.00D+00
 Coeff-Com: -0.433D-02-0.781D-01-0.375D-01 0.635D+00 0.485D+00
 Coeff:     -0.433D-02-0.781D-01-0.375D-01 0.635D+00 0.485D+00
 Gap=     0.346 Goal=   None    Shift=    0.000
 Gap=     0.153 Goal=   None    Shift=    0.000
 RMSDP=1.27D-07 MaxDP=4.38D-06 DE=-9.31D-11 OVMax= 1.01D-05

 Cycle  15  Pass 1  IDiag  1:
 E= -268.848493190185     Delta-E=       -0.000000000100 Rises=F Damp=F
 DIIS: error= 3.64D-07 at cycle   6 NSaved=   6.
 NSaved= 6 IEnMin= 6 EnMin= -268.848493190185     IErMin= 6 ErrMin= 3.64D-07
 ErrMax= 3.64D-07 EMaxC= 1.00D-01 BMatC= 2.86D-11 BMatP= 2.23D-10
 IDIUse=1 WtCom= 1.00D+00 WtEn= 0.00D+00
 Coeff-Com:  0.491D-02-0.878D-01-0.104D+00 0.532D-01 0.212D+00 0.922D+00
 Coeff:      0.491D-02-0.878D-01-0.104D+00 0.532D-01 0.212D+00 0.922D+00
 Gap=     0.346 Goal=   None    Shift=    0.000
 Gap=     0.153 Goal=   None    Shift=    0.000
 RMSDP=1.44D-07 MaxDP=5.83D-06 DE=-9.99D-11 OVMax= 1.40D-05

 Cycle  16  Pass 1  IDiag  1:
 E= -268.848493190233     Delta-E=       -0.000000000048 Rises=F Damp=F
 DIIS: error= 2.55D-07 at cycle   7 NSaved=   7.
 NSaved= 7 IEnMin= 7 EnMin= -268.848493190233     IErMin= 7 ErrMin= 2.55D-07
 ErrMax= 2.55D-07 EMaxC= 1.00D-01 BMatC= 8.01D-12 BMatP= 2.86D-11
 IDIUse=1 WtCom= 1.00D+00 WtEn= 0.00D+00
 Coeff-Com:  0.223D-02-0.208D-01-0.309D-01-0.502D-01-0.110D-01 0.330D+00
 Coeff-Com:  0.780D+00
 Coeff:      0.223D-02-0.208D-01-0.309D-01-0.502D-01-0.110D-01 0.330D+00
 Coeff:      0.780D+00
 Gap=     0.346 Goal=   None    Shift=    0.000
 Gap=     0.153 Goal=   None    Shift=    0.000
 RMSDP=7.12D-08 MaxDP=3.02D-06 DE=-4.80D-11 OVMax= 7.28D-06

 Cycle  17  Pass 1  IDiag  1:
 E= -268.848493190249     Delta-E=       -0.000000000016 Rises=F Damp=F
 DIIS: error= 1.76D-07 at cycle   8 NSaved=   8.
 NSaved= 8 IEnMin= 8 EnMin= -268.848493190249     IErMin= 8 ErrMin= 1.76D-07
 ErrMax= 1.76D-07 EMaxC= 1.00D-01 BMatC= 3.53D-12 BMatP= 8.01D-12
 IDIUse=1 WtCom= 1.00D+00 WtEn= 0.00D+00
 Coeff-Com: -0.222D-02 0.402D-01 0.473D-01-0.334D-01-0.122D+00-0.415D+00
 Coeff-Com:  0.222D+00 0.126D+01
 Coeff:     -0.222D-02 0.402D-01 0.473D-01-0.334D-01-0.122D+00-0.415D+00
 Coeff:      0.222D+00 0.126D+01
 Gap=     0.346 Goal=   None    Shift=    0.000
 Gap=     0.153 Goal=   None    Shift=    0.000
 RMSDP=1.04D-07 MaxDP=4.22D-06 DE=-1.59D-11 OVMax= 1.08D-05

 Cycle  18  Pass 1  IDiag  1:
 E= -268.848493190265     Delta-E=       -0.000000000016 Rises=F Damp=F
 DIIS: error= 9.75D-08 at cycle   9 NSaved=   9.
 NSaved= 9 IEnMin= 9 EnMin= -268.848493190265     IErMin= 9 ErrMin= 9.75D-08
 ErrMax= 9.75D-08 EMaxC= 1.00D-01 BMatC= 1.34D-12 BMatP= 3.53D-12
 IDIUse=1 WtCom= 1.00D+00 WtEn= 0.00D+00
 Coeff-Com: -0.171D-02 0.236D-01 0.326D-01 0.189D-01-0.128D-01-0.361D+00
 Coeff-Com: -0.357D+00 0.435D+00 0.122D+01
 Coeff:     -0.171D-02 0.236D-01 0.326D-01 0.189D-01-0.128D-01-0.361D+00
 Coeff:     -0.357D+00 0.435D+00 0.122D+01
 Gap=     0.346 Goal=   None    Shift=    0.000
 Gap=     0.153 Goal=   None    Shift=    0.000
 RMSDP=9.31D-08 MaxDP=3.81D-06 DE=-1.63D-11 OVMax= 9.71D-06

 Cycle  19  Pass 1  IDiag  1:
 E= -268.848493190271     Delta-E=       -0.000000000006 Rises=F Damp=F
 DIIS: error= 2.21D-08 at cycle  10 NSaved=  10.
 NSaved=10 IEnMin=10 EnMin= -268.848493190271     IErMin=10 ErrMin= 2.21D-08
 ErrMax= 2.21D-08 EMaxC= 1.00D-01 BMatC= 2.26D-13 BMatP= 1.34D-12
 IDIUse=1 WtCom= 1.00D+00 WtEn= 0.00D+00
 Coeff-Com: -0.315D-03 0.152D-02 0.413D-02 0.140D-01 0.253D-01-0.737D-01
 Coeff-Com: -0.173D+00-0.754D-01 0.454D+00 0.823D+00
 Coeff:     -0.315D-03 0.152D-02 0.413D-02 0.140D-01 0.253D-01-0.737D-01
 Coeff:     -0.173D+00-0.754D-01 0.454D+00 0.823D+00
 Gap=     0.346 Goal=   None    Shift=    0.000
 Gap=     0.153 Goal=   None    Shift=    0.000
 RMSDP=2.46D-08 MaxDP=9.94D-07 DE=-5.85D-12 OVMax= 2.55D-06

 Cycle  20  Pass 1  IDiag  1:
 E= -268.848493190271     Delta-E=        0.000000000001 Rises=F Damp=F
 DIIS: error= 6.88D-09 at cycle  11 NSaved=  11.
 NSaved=11 IEnMin=10 EnMin= -268.848493190271     IErMin=11 ErrMin= 6.88D-09
 ErrMax= 6.88D-09 EMaxC= 1.00D-01 BMatC= 3.33D-14 BMatP= 2.26D-13
 IDIUse=1 WtCom= 1.00D+00 WtEn= 0.00D+00
 Coeff-Com:  0.120D-03-0.273D-02-0.298D-02 0.106D-02 0.139D-01 0.212D-01
 Coeff-Com: -0.749D-02-0.843D-01-0.214D-01 0.276D+00 0.806D+00
 Coeff:      0.120D-03-0.273D-02-0.298D-02 0.106D-02 0.139D-01 0.212D-01
 Coeff:     -0.749D-02-0.843D-01-0.214D-01 0.276D+00 0.806D+00
 Gap=     0.346 Goal=   None    Shift=    0.000
 Gap=     0.153 Goal=   None    Shift=    0.000
 RMSDP=4.80D-09 MaxDP=1.91D-07 DE= 7.39D-13 OVMax= 4.83D-07

 SCF Done:  E(UB3LYP) =  -268.848493190     A.U. after   20 cycles
             Convg  =    0.4800D-08             -V/T =  2.0092
 <Sx>= 0.0000 <Sy>= 0.0000 <Sz>= 0.5000 <S**2>= 0.7528 S= 0.5014
 <L.S>= 0.000000000000E+00
 KE= 2.664076127396D+02 PE=-9.900982105058D+02 EE= 2.740025764531D+02
 Annihilation of the first spin contaminant:
 S**2 before annihilation     0.7528,   after     0.7500
 Leave Link  502 at Wed Apr  1 00:03:10 2015, MaxMem= 3758096384 cpu:      47.8
 (Enter /share/apps/g09/l601.exe)
 Copying SCF densities to generalized density rwf, IOpCl= 1 IROHF=0.

 **********************************************************************

            Population analysis using the SCF density.

 **********************************************************************

 Orbital symmetries:
 Alpha Orbitals:
       Occupied  (A) (A) (A) (A) (A) (A) (A) (A) (A) (A) (A) (A)
                 (A) (A) (A) (A) (A) (A) (A) (A) (A)
       Virtual   (A) (A) (A) (A) (A) (A) (A) (A) (A) (A) (A) (A)
                 (A) (A) (A) (A) (A) (A) (A) (A) (A) (A) (A) (A)
                 (A) (A) (A) (A) (A) (A) (A) (A) (A) (A) (A) (A)
                 (A) (A) (A) (A) (A) (A) (A) (A) (A) (A) (A) (A)
                 (A) (A) (A) (A) (A) (A) (A) (A) (A) (A) (A) (A)
                 (A) (A) (A) (A) (A) (A) (A) (A)
 Beta  Orbitals:
       Occupied  (A) (A) (A) (A) (A) (A) (A) (A) (A) (A) (A) (A)
                 (A) (A) (A) (A) (A) (A) (A) (A)
       Virtual   (A) (A) (A) (A) (A) (A) (A) (A) (A) (A) (A) (A)
                 (A) (A) (A) (A) (A) (A) (A) (A) (A) (A) (A) (A)
                 (A) (A) (A) (A) (A) (A) (A) (A) (A) (A) (A) (A)
                 (A) (A) (A) (A) (A) (A) (A) (A) (A) (A) (A) (A)
                 (A) (A) (A) (A) (A) (A) (A) (A) (A) (A) (A) (A)
                 (A) (A) (A) (A) (A) (A) (A) (A) (A)
 The electronic state is 2-A.
 Alpha  occ. eigenvalues --  -19.25961 -19.21013 -10.25057 -10.20505 -10.18781
 Alpha  occ. eigenvalues --   -1.18314  -0.87890  -0.77674  -0.68392  -0.60406
 Alpha  occ. eigenvalues --   -0.51831  -0.51521  -0.47299  -0.44640  -0.43044
 Alpha  occ. eigenvalues --   -0.40510  -0.36406  -0.36005  -0.35373  -0.27054
 Alpha  occ. eigenvalues --   -0.26921
 Alpha virt. eigenvalues --    0.07662   0.10452   0.12779   0.12999   0.14368
 Alpha virt. eigenvalues --    0.15063   0.17051   0.18066   0.19203   0.21719
 Alpha virt. eigenvalues --    0.25312   0.49633   0.50305   0.51839   0.54103
 Alpha virt. eigenvalues --    0.57738   0.63518   0.66823   0.68858   0.77127
 Alpha virt. eigenvalues --    0.78563   0.81478   0.82028   0.85157   0.86835
 Alpha virt. eigenvalues --    0.88895   0.90240   0.91551   0.92950   0.95465
 Alpha virt. eigenvalues --    0.96674   1.03628   1.05854   1.11882   1.24479
 Alpha virt. eigenvalues --    1.30400   1.38969   1.43137   1.49799   1.51183
 Alpha virt. eigenvalues --    1.60904   1.63997   1.71515   1.78372   1.84179
 Alpha virt. eigenvalues --    1.87393   1.92068   1.94110   1.99908   2.01962
 Alpha virt. eigenvalues --    2.09071   2.20327   2.23944   2.26724   2.30583
 Alpha virt. eigenvalues --    2.34039   2.36725   2.48279   2.52511   2.63134
 Alpha virt. eigenvalues --    2.67546   2.82376   3.00958   3.41061   3.77695
 Alpha virt. eigenvalues --    4.13367   4.30512   4.46214
  Beta  occ. eigenvalues --  -19.25019 -19.19146 -10.25100 -10.20506 -10.18780
  Beta  occ. eigenvalues --   -1.15639  -0.85348  -0.76645  -0.67743  -0.60140
  Beta  occ. eigenvalues --   -0.50484  -0.49066  -0.46504  -0.43776  -0.41235
  Beta  occ. eigenvalues --   -0.38354  -0.36041  -0.35476  -0.34266  -0.25173
  Beta virt. eigenvalues --   -0.09889   0.08034   0.10948   0.12913   0.13055
  Beta virt. eigenvalues --    0.14683   0.15417   0.17376   0.18847   0.19309
  Beta virt. eigenvalues --    0.21820   0.25391   0.49729   0.50386   0.51975
  Beta virt. eigenvalues --    0.54193   0.57904   0.63643   0.66935   0.68996
  Beta virt. eigenvalues --    0.77755   0.79541   0.82068   0.83285   0.85356
  Beta virt. eigenvalues --    0.87265   0.89043   0.90525   0.92447   0.94368
  Beta virt. eigenvalues --    0.96915   0.97930   1.04653   1.07997   1.12320
  Beta virt. eigenvalues --    1.24875   1.31449   1.39519   1.43418   1.51023
  Beta virt. eigenvalues --    1.53167   1.61312   1.64667   1.71691   1.81593
  Beta virt. eigenvalues --    1.85119   1.89485   1.92213   1.95208   2.00288
  Beta virt. eigenvalues --    2.02293   2.09329   2.20723   2.24749   2.28281
  Beta virt. eigenvalues --    2.30921   2.34487   2.37079   2.49507   2.54500
  Beta virt. eigenvalues --    2.63303   2.68172   2.82872   3.02151   3.43824
  Beta virt. eigenvalues --    3.79100   4.13368   4.30535   4.46220
          Condensed to atoms (all electrons):
              1          2          3          4          5          6
     1  C    5.066602   0.382215   0.374918   0.376018   0.366226  -0.039119
     2  H    0.382215   0.540811  -0.028274  -0.029967  -0.034213  -0.003179
     3  H    0.374918  -0.028274   0.561916  -0.029679  -0.028454  -0.002962
     4  H    0.376018  -0.029967  -0.029679   0.571981  -0.035974   0.004844
     5  C    0.366226  -0.034213  -0.028454  -0.035974   5.023119   0.374656
     6  H   -0.039119  -0.003179  -0.002962   0.004844   0.374656   0.574865
     7  H   -0.034570   0.004577  -0.002960  -0.004166   0.369995  -0.032141
     8  C   -0.042305  -0.008153   0.004053  -0.003705   0.341364  -0.037205
     9  H    0.004897   0.000155  -0.000125  -0.000040  -0.031220  -0.004107
    10  H   -0.007294   0.000068  -0.000018   0.004918  -0.031450   0.005513
    11  O   -0.001111   0.006624   0.000070  -0.000256  -0.031971   0.000075
    12  O   -0.000017  -0.000146   0.000001  -0.000010   0.004640  -0.000023
              7          8          9         10         11         12
     1  C   -0.034570  -0.042305   0.004897  -0.007294  -0.001111  -0.000017
     2  H    0.004577  -0.008153   0.000155   0.000068   0.006624  -0.000146
     3  H   -0.002960   0.004053  -0.000125  -0.000018   0.000070   0.000001
     4  H   -0.004166  -0.003705  -0.000040   0.004918  -0.000256  -0.000010
     5  C    0.369995   0.341364  -0.031220  -0.031450  -0.031971   0.004640
     6  H   -0.032141  -0.037205  -0.004107   0.005513   0.000075  -0.000023
     7  H    0.580745  -0.032712  -0.001096  -0.001086   0.002531  -0.000076
     8  C   -0.032712   4.972768   0.362202   0.357484   0.153976  -0.043710
     9  H   -0.001096   0.362202   0.573371  -0.038855  -0.030561   0.002282
    10  H   -0.001086   0.357484  -0.038855   0.575492  -0.031101   0.004201
    11  O    0.002531   0.153976  -0.030561  -0.031101   8.035029   0.071243
    12  O   -0.000076  -0.043710   0.002282   0.004201   0.071243   8.131842
 Mulliken atomic charges:
              1
     1  C   -0.446459
     2  H    0.169482
     3  H    0.151515
     4  H    0.146037
     5  C   -0.286717
     6  H    0.158783
     7  H    0.150960
     8  C   -0.024054
     9  H    0.163098
    10  H    0.162128
    11  O   -0.174548
    12  O   -0.170225
 Sum of Mulliken atomic charges =   0.00000
 Mulliken charges with hydrogens summed into heavy atoms:
              1
     1  C    0.020575
     5  C    0.023026
     8  C    0.301172
    11  O   -0.174548
    12  O   -0.170225
 Sum of Mulliken charges with hydrogens summed into heavy atoms =   0.00000
          Atomic-Atomic Spin Densities.
              1          2          3          4          5          6
     1  C    0.000648   0.000284  -0.000105   0.000106  -0.000291  -0.000018
     2  H    0.000284  -0.000397   0.000021   0.000034  -0.000030  -0.000024
     3  H   -0.000105   0.000021   0.000495  -0.000013  -0.000165  -0.000100
     4  H    0.000106   0.000034  -0.000013  -0.000096  -0.000063  -0.000008
     5  C   -0.000291  -0.000030  -0.000165  -0.000063  -0.002179  -0.000623
     6  H   -0.000018  -0.000024  -0.000100  -0.000008  -0.000623  -0.000046
     7  H    0.000068  -0.000022   0.000001   0.000005   0.000303   0.000102
     8  C    0.000078   0.000120   0.000024   0.000013   0.003959   0.000619
     9  H    0.000267   0.000013   0.000008  -0.000002  -0.000104  -0.000590
    10  H   -0.000909  -0.000081  -0.000033   0.000004   0.001349   0.000217
    11  O    0.000738   0.000001   0.000021  -0.000005  -0.002324   0.000273
    12  O   -0.000063  -0.000037   0.000000   0.000002   0.000034  -0.000035
              7          8          9         10         11         12
     1  C    0.000068   0.000078   0.000267  -0.000909   0.000738  -0.000063
     2  H   -0.000022   0.000120   0.000013  -0.000081   0.000001  -0.000037
     3  H    0.000001   0.000024   0.000008  -0.000033   0.000021   0.000000
     4  H    0.000005   0.000013  -0.000002   0.000004  -0.000005   0.000002
     5  C    0.000303   0.003959  -0.000104   0.001349  -0.002324   0.000034
     6  H    0.000102   0.000619  -0.000590   0.000217   0.000273  -0.000035
     7  H   -0.001594   0.000187   0.000008  -0.000007  -0.000040   0.000001
     8  C    0.000187  -0.031495  -0.000505  -0.002344   0.007490  -0.002223
     9  H    0.000008  -0.000505   0.029036  -0.007856  -0.006752   0.003706
    10  H   -0.000007  -0.002344  -0.007856   0.027435  -0.006198   0.003412
    11  O   -0.000040   0.007490  -0.006752  -0.006198   0.419523  -0.117585
    12  O    0.000001  -0.002223   0.003706   0.003412  -0.117585   0.810047
 Mulliken atomic spin densities:
              1
     1  C    0.000802
     2  H   -0.000119
     3  H    0.000155
     4  H   -0.000023
     5  C   -0.000133
     6  H   -0.000232
     7  H   -0.000987
     8  C   -0.024079
     9  H    0.017229
    10  H    0.014989
    11  O    0.295140
    12  O    0.697258
 Sum of Mulliken atomic spin densities =   1.00000
 Electronic spatial extent (au):  <R**2>=            518.5195
 Charge=              0.0000 electrons
 Dipole moment (field-independent basis, Debye):
    X=             -2.4826    Y=              1.4116    Z=              0.4419  Tot=              2.8898
 Quadrupole moment (field-independent basis, Debye-Ang):
   XX=            -34.8165   YY=            -29.7754   ZZ=            -30.1704
   XY=              1.1951   XZ=              0.1739   YZ=             -0.2486
 Traceless Quadrupole moment (field-independent basis, Debye-Ang):
   XX=             -3.2291   YY=              1.8120   ZZ=              1.4170
   XY=              1.1951   XZ=              0.1739   YZ=             -0.2486
 Octapole moment (field-independent basis, Debye-Ang**2):
  XXX=              0.4470  YYY=             -0.2750  ZZZ=             -0.1684  XYY=              4.2865
  XXY=              2.0812  XXZ=             -1.4050  XZZ=              3.7184  YZZ=             -0.3947
  YYZ=             -0.2853  XYZ=             -0.9289
 Hexadecapole moment (field-independent basis, Debye-Ang**3):
 XXXX=           -478.6131 YYYY=           -115.8392 ZZZZ=            -57.9397 XXXY=              0.3793
 XXXZ=              0.8902 YYYX=             -4.3938 YYYZ=              1.2624 ZZZX=             -0.5188
 ZZZY=             -0.5088 XXYY=            -97.8291 XXZZ=            -87.2302 YYZZ=            -30.4223
 XXYZ=             -0.5877 YYXZ=             -0.2788 ZZXY=             -1.5820
 N-N= 1.808395281228D+02 E-N=-1.476477936401D+03  KE= 3.980278297934D+02
                          Isotropic Fermi Contact Couplings
        Atom                 a.u.       MegaHertz       Gauss      10(-4) cm-1
     1  C(13)             -0.00015      -0.16961      -0.06052      -0.05658
     2  H(1)               0.00023       1.04057       0.37130       0.34710
     3  H(1)               0.00004       0.18245       0.06510       0.06086
     4  H(1)               0.00004       0.16988       0.06062       0.05667
     5  C(13)             -0.00081      -0.91028      -0.32481      -0.30364
     6  H(1)              -0.00011      -0.50231      -0.17924      -0.16755
     7  H(1)              -0.00042      -1.87393      -0.66866      -0.62508
     8  C(13)             -0.01079     -12.12833      -4.32769      -4.04558
     9  H(1)               0.00585      26.13470       9.32551       8.71760
    10  H(1)               0.00469      20.96602       7.48120       6.99351
    11  O(17)              0.06099     -36.97434     -13.19336     -12.33331
    12  O(17)              0.08162     -49.48036     -17.65582     -16.50487
 --------------------------------------------------------
       Center         ----  Spin Dipole Couplings  ----
                      3XX-RR        3YY-RR        3ZZ-RR
 --------------------------------------------------------
     1   Atom        0.006240     -0.003208     -0.003032
     2   Atom        0.006507     -0.002103     -0.004404
     3   Atom        0.002908     -0.001477     -0.001431
     4   Atom        0.003658     -0.002317     -0.001341
     5   Atom        0.006472     -0.002727     -0.003745
     6   Atom        0.005439     -0.002703     -0.002735
     7   Atom        0.003071     -0.000856     -0.002215
     8   Atom        0.006997      0.001151     -0.008148
     9   Atom       -0.002410      0.010810     -0.008399
    10   Atom        0.002892     -0.004510      0.001619
    11   Atom       -0.555287      0.297614      0.257673
    12   Atom       -1.053926      0.564777      0.489149
 --------------------------------------------------------
                        XY            XZ            YZ
 --------------------------------------------------------
     1   Atom        0.000038     -0.001320      0.000525
     2   Atom        0.004554      0.000425      0.000179
     3   Atom        0.000390      0.000207      0.000026
     4   Atom        0.000767     -0.002191     -0.000282
     5   Atom       -0.004589     -0.000176     -0.000280
     6   Atom       -0.003525      0.003782     -0.001558
     7   Atom       -0.002768     -0.000476      0.000115
     8   Atom       -0.013735     -0.005347      0.008009
     9   Atom       -0.010622     -0.000778      0.003056
    10   Atom       -0.007374     -0.010409      0.007869
    11   Atom        0.420876     -0.461824     -1.009654
    12   Atom        0.845032     -0.829917     -1.928351
 --------------------------------------------------------


 ---------------------------------------------------------------------------------
              Anisotropic Spin Dipole Couplings in Principal Axis System
 ---------------------------------------------------------------------------------

       Atom             a.u.   MegaHertz   Gauss  10(-4) cm-1        Axes

              Baa    -0.0037    -0.501    -0.179    -0.167 -0.0957  0.7044 -0.7033
     1 C(13)  Bbb    -0.0027    -0.361    -0.129    -0.120  0.1001  0.7098  0.6973
              Bcc     0.0064     0.862     0.308     0.288  0.9904 -0.0036 -0.1384
 
              Baa    -0.0044    -2.359    -0.842    -0.787 -0.0364 -0.0059  0.9993
     2 H(1)   Bbb    -0.0041    -2.169    -0.774    -0.723 -0.3953  0.9185 -0.0089
              Bcc     0.0085     4.527     1.615     1.510  0.9178  0.3953  0.0357
 
              Baa    -0.0015    -0.807    -0.288    -0.269 -0.0821  0.9904 -0.1116
     3 H(1)   Bbb    -0.0014    -0.768    -0.274    -0.256 -0.0569  0.1071  0.9926
              Bcc     0.0030     1.575     0.562     0.525  0.9950  0.0879  0.0475
 
              Baa    -0.0024    -1.288    -0.460    -0.430 -0.1193  0.9927  0.0170
     4 H(1)   Bbb    -0.0022    -1.155    -0.412    -0.385  0.3490  0.0259  0.9368
              Bcc     0.0046     2.443     0.872     0.815  0.9295  0.1177 -0.3496
 
              Baa    -0.0047    -0.635    -0.227    -0.212  0.3641  0.8770  0.3135
     5 C(13)  Bbb    -0.0036    -0.488    -0.174    -0.163 -0.1157 -0.2914  0.9496
              Bcc     0.0084     1.123     0.401     0.375  0.9241 -0.3820 -0.0046
 
              Baa    -0.0043    -2.300    -0.821    -0.767 -0.1556  0.4900  0.8577
     6 H(1)   Bbb    -0.0040    -2.113    -0.754    -0.705  0.4546  0.8064 -0.3782
              Bcc     0.0083     4.413     1.575     1.472  0.8770 -0.3311  0.3482
 
              Baa    -0.0024    -1.273    -0.454    -0.424  0.3892  0.6562  0.6465
     7 H(1)   Bbb    -0.0021    -1.147    -0.409    -0.383 -0.2492 -0.6006  0.7597
              Bcc     0.0045     2.420     0.863     0.807  0.8868 -0.4568 -0.0702
 
              Baa    -0.0133    -1.784    -0.637    -0.595 -0.2318 -0.6308  0.7405
     8 C(13)  Bbb    -0.0077    -1.039    -0.371    -0.347  0.6510  0.4650  0.6000
              Bcc     0.0210     2.823     1.007     0.942  0.7228 -0.6211 -0.3028
 
              Baa    -0.0094    -4.998    -1.783    -1.667 -0.4820 -0.3738  0.7925
     9 H(1)   Bbb    -0.0077    -4.113    -1.467    -1.372  0.7337  0.3221  0.5982
              Bcc     0.0171     9.111     3.251     3.039 -0.4789  0.8698  0.1190
 
              Baa    -0.0099    -5.285    -1.886    -1.763  0.0667  0.8510 -0.5209
    10 H(1)   Bbb    -0.0080    -4.247    -1.516    -1.417  0.7583  0.2961  0.5808
              Bcc     0.0179     9.532     3.401     3.180  0.6485 -0.4337 -0.6256
 
              Baa    -0.7738    55.990    19.979    18.676  0.7442  0.2794  0.6067
    11 O(17)  Bbb    -0.7051    51.020    18.205    17.019 -0.6001  0.6785  0.4237
              Bcc     1.4789  -107.010   -38.184   -35.695  0.2933  0.6794 -0.6726
 
              Baa    -1.4163   102.482    36.568    34.184  0.9545 -0.1660  0.2477
    12 O(17)  Bbb    -1.4017   101.426    36.191    33.832 -0.0580  0.7116  0.7002
              Bcc     2.8180  -203.908   -72.760   -68.016  0.2925  0.6827 -0.6696
 

 ---------------------------------------------------------------------------------

 No NMR shielding tensors so no spin-rotation constants.
 Leave Link  601 at Wed Apr  1 00:03:10 2015, MaxMem= 3758096384 cpu:       2.8
 (Enter /share/apps/g09/l701.exe)
 Compute integral first derivatives.
 ... and contract with generalized density number  0.
 Leave Link  701 at Wed Apr  1 00:03:11 2015, MaxMem= 3758096384 cpu:       1.7
 (Enter /share/apps/g09/l702.exe)
 L702 exits ... SP integral derivatives will be done elsewhere.
 Leave Link  702 at Wed Apr  1 00:03:11 2015, MaxMem= 3758096384 cpu:       0.2
 (Enter /share/apps/g09/l703.exe)
 Compute integral first derivatives, UseDBF=F ICtDFT=           0.
 Integral derivatives from FoFDir, PRISM(SPDF).
 Calling FoFJK, ICntrl=      2127 FMM=F ISym2X=0 I1Cent= 0 IOpClX= 1 NMat=1 NMatS=1 NMatT=0.
 FoFCou: FMM=F IPFlag=           0 FMFlag=      100000 FMFlg1=         800
         NFxFlg=           0 DoJE=F BraDBF=F KetDBF=F FulRan=T
         Omega=  0.000000  0.000000  1.000000  0.000000  0.000000 ICntrl=    2127 IOpCl=  1
         NMat0=    1 NMatS0=    1 NMatT0=    0 NMatD0=    1 NMtDS0=    0 NMtDT0=    0
         I1Cent=           0 NGrid=           0.
 Symmetry not used in FoFCou.
 Leave Link  703 at Wed Apr  1 00:03:12 2015, MaxMem= 3758096384 cpu:       7.6
 (Enter /share/apps/g09/l716.exe)
 Dipole        =-9.76714043D-01 5.55379048D-01 1.73872273D-01
 ***** Axes restored to original set *****
 -------------------------------------------------------------------
 Center     Atomic                   Forces (Hartrees/Bohr)
 Number     Number              X              Y              Z
 -------------------------------------------------------------------
      1        6           0.002162179   -0.003073723    0.002892401
      2        1           0.000219925   -0.001249512   -0.003991396
      3        1          -0.003808001    0.000343015    0.001177418
      4        1           0.001673114    0.003747494    0.000142043
      5        6           0.002036695    0.002926803   -0.003899904
      6        1          -0.001678078   -0.003687106   -0.000113278
      7        1           0.000180381    0.001008920    0.003728334
      8        6          -0.005147828   -0.001324860   -0.002219779
      9        1           0.002106150   -0.002722293    0.002590406
     10        1           0.002177369    0.003959178   -0.000439754
     11        8           0.004237249   -0.000200182   -0.001539165
     12        8          -0.004159156    0.000272265    0.001672675
 -------------------------------------------------------------------
 Cartesian Forces:  Max     0.005147828 RMS     0.002609166
 Leave Link  716 at Wed Apr  1 00:03:12 2015, MaxMem= 3758096384 cpu:       0.3
 (Enter /share/apps/g09/l103.exe)

 GradGradGradGradGradGradGradGradGradGradGradGradGradGradGradGradGradGrad
 Berny optimization.
 Internal  Forces:  Max     0.004539195 RMS     0.001670071
 Search for a local minimum.
 Step number   1 out of a maximum of   61
 All quantities printed in internal units (Hartrees-Bohrs-Radians)
 RMS Force = .16701D-02 SwitMx=.10000D-02 MixMth= 1
 Mixed Optimization -- RFO/linear search
 Second derivative matrix not updated -- first step.
     Eigenvalues ---    0.00357   0.00515   0.00876   0.03496   0.04838
     Eigenvalues ---    0.05321   0.05448   0.05498   0.05513   0.08545
     Eigenvalues ---    0.11372   0.12336   0.13573   0.16000   0.16000
     Eigenvalues ---    0.16000   0.21917   0.21974   0.25000   0.29337
     Eigenvalues ---    0.30469   0.33237   0.33244   0.33329   0.33470
     Eigenvalues ---    0.33516   0.33555   0.33563   0.36752   0.62829
     Eigenvalues --- 1000.000001000.000001000.000001000.000001000.00000
     Eigenvalues --- 1000.000001000.000001000.000001000.000001000.00000
     Eigenvalues --- 1000.000001000.000001000.000001000.000001000.00000
     Eigenvalues --- 1000.000001000.000001000.000001000.000001000.00000
     Eigenvalues --- 1000.00000
 RFO step:  Lambda=-4.04725025D-04 EMin= 3.56649423D-03
 Linear search not attempted -- first point.
 Iteration  1 RMS(Cart)=  0.00722455 RMS(Int)=  0.00003379
 Iteration  2 RMS(Cart)=  0.00003515 RMS(Int)=  0.00000110
 Iteration  3 RMS(Cart)=  0.00000000 RMS(Int)=  0.00000110
 Variable       Old X    -DE/DX   Delta X   Delta X   Delta X     New X
                                 (Linear)    (Quad)   (Total)
    R1        2.08074  -0.00417   0.00000  -0.01242  -0.01242   2.06832
    R2        2.08087  -0.00400   0.00000  -0.01191  -0.01191   2.06896
    R3        2.08478  -0.00411   0.00000  -0.01230  -0.01230   2.07248
    R4        2.89306   0.00041   0.00000   0.00140   0.00140   2.89446
    R5        2.08624  -0.00405   0.00000  -0.01216  -0.01216   2.07408
    R6        2.08638  -0.00386   0.00000  -0.01161  -0.01161   2.07477
    R7        2.87038   0.00076   0.00000   0.00249   0.00249   2.87287
    R8        2.08155  -0.00430   0.00000  -0.01283  -0.01283   2.06873
    R9        2.08234  -0.00454   0.00000  -0.01355  -0.01355   2.06880
   R10        2.76222   0.00014   0.00000   0.00039   0.00039   2.76261
   R11        2.48769   0.00449   0.00000   0.00715   0.00715   2.49484
    A1        1.88492  -0.00012   0.00000  -0.00103  -0.00103   1.88389
    A2        1.88009  -0.00005   0.00000   0.00079   0.00079   1.88088
    A3        1.93653   0.00040   0.00000   0.00292   0.00292   1.93945
    A4        1.88114   0.00007   0.00000  -0.00042  -0.00042   1.88071
    A5        1.93844  -0.00022   0.00000  -0.00197  -0.00197   1.93647
    A6        1.94028  -0.00007   0.00000  -0.00032  -0.00033   1.93995
    A7        1.92577  -0.00015   0.00000  -0.00032  -0.00033   1.92544
    A8        1.92704  -0.00019   0.00000  -0.00244  -0.00244   1.92460
    A9        1.98241   0.00028   0.00000   0.00147   0.00147   1.98388
   A10        1.85542   0.00004   0.00000  -0.00042  -0.00042   1.85500
   A11        1.89512   0.00008   0.00000   0.00232   0.00232   1.89743
   A12        1.87298  -0.00006   0.00000  -0.00068  -0.00068   1.87230
   A13        1.96403   0.00008   0.00000   0.00041   0.00041   1.96444
   A14        1.96851   0.00002   0.00000   0.00012   0.00012   1.96863
   A15        1.88280  -0.00004   0.00000   0.00002   0.00002   1.88283
   A16        1.90472  -0.00009   0.00000  -0.00109  -0.00109   1.90362
   A17        1.86906  -0.00001   0.00000  -0.00008  -0.00008   1.86898
   A18        1.86952   0.00005   0.00000   0.00065   0.00065   1.87017
   A19        1.94574  -0.00015   0.00000  -0.00058  -0.00058   1.94516
    D1        1.10531   0.00001   0.00000  -0.00880  -0.00880   1.09650
    D2       -3.13195  -0.00015   0.00000  -0.01099  -0.01099   3.14025
    D3       -1.02721  -0.00017   0.00000  -0.01263  -0.01263  -1.03984
    D4       -0.99147   0.00005   0.00000  -0.00814  -0.00814  -0.99961
    D5        1.05446  -0.00011   0.00000  -0.01033  -0.01033   1.04413
    D6       -3.12399  -0.00013   0.00000  -0.01196  -0.01196  -3.13595
    D7       -3.08597   0.00016   0.00000  -0.00607  -0.00607  -3.09205
    D8       -1.04004   0.00001   0.00000  -0.00826  -0.00826  -1.04830
    D9        1.06470  -0.00002   0.00000  -0.00990  -0.00990   1.05480
   D10       -3.08230   0.00006   0.00000   0.00069   0.00069  -3.08161
   D11       -0.91815   0.00001   0.00000  -0.00036  -0.00036  -0.91851
   D12        1.14297   0.00006   0.00000   0.00053   0.00053   1.14350
   D13        1.05148   0.00001   0.00000  -0.00163  -0.00163   1.04985
   D14       -3.06755  -0.00004   0.00000  -0.00267  -0.00267  -3.07023
   D15       -1.00644   0.00001   0.00000  -0.00178  -0.00179  -1.00823
   D16       -0.94737  -0.00004   0.00000  -0.00194  -0.00194  -0.94931
   D17        1.21678  -0.00009   0.00000  -0.00299  -0.00299   1.21380
   D18       -3.00529  -0.00004   0.00000  -0.00210  -0.00210  -3.00739
   D19       -3.04302  -0.00003   0.00000  -0.00421  -0.00421  -3.04722
   D20        1.12209  -0.00009   0.00000  -0.00466  -0.00466   1.11742
   D21       -0.91935   0.00000   0.00000  -0.00368  -0.00368  -0.92302
         Item               Value     Threshold  Converged?
 Maximum Force            0.004539     0.000450     NO 
 RMS     Force            0.001670     0.000300     NO 
 Maximum Displacement     0.024931     0.001800     NO 
 RMS     Displacement     0.007220     0.001200     NO 
 Predicted change in Energy=-2.027955D-04
 GradGradGradGradGradGradGradGradGradGradGradGradGradGradGradGradGradGrad

 Leave Link  103 at Wed Apr  1 00:03:12 2015, MaxMem= 3758096384 cpu:       0.1
 (Enter /share/apps/g09/l202.exe)
                          Input orientation:                          
 ---------------------------------------------------------------------
 Center     Atomic      Atomic             Coordinates (Angstroms)
 Number     Number       Type             X           Y           Z
 ---------------------------------------------------------------------
      1          6           0        0.036588    0.097007    0.182840
      2          1           0        0.065794    0.401911    1.233615
      3          1           0        1.068717    0.010623   -0.172037
      4          1           0       -0.417693   -0.900101    0.136222
      5          6           0       -0.750719    1.103091   -0.662142
      6          1           0       -0.256675    2.083044   -0.646552
      7          1           0       -0.770032    0.784748   -1.712718
      8          6           0       -2.193751    1.277178   -0.216569
      9          1           0       -2.755746    1.953742   -0.868365
     10          1           0       -2.731302    0.326640   -0.139001
     11          8           0       -2.182543    1.876220    1.116925
     12          8           0       -3.400044    1.953931    1.621515
 ---------------------------------------------------------------------
                    Distance matrix (angstroms):
                    1          2          3          4          5
     1  C    0.000000
     2  H    1.094508   0.000000
     3  H    1.094847   1.770542   0.000000
     4  H    1.096709   1.770104   1.770271   0.000000
     5  C    1.531682   2.179963   2.178080   2.181988   0.000000
     6  H    2.172150   2.542680   2.505345   3.088336   1.097556
     7  H    2.171811   3.086430   2.520708   2.526152   1.097919
     8  C    2.554749   2.823945   3.499977   2.831852   1.520258
     9  H    3.514203   3.845464   4.345929   3.823625   2.187755
    10  H    2.795984   3.116647   3.813280   2.633141   2.190722
    11  O    2.993769   2.691138   3.963908   3.432846   2.411001
    12  O    4.162738   3.817232   5.192600   4.387027   3.599714
                    6          7          8          9         10
     6  H    0.000000
     7  H    1.756650   0.000000
     8  C    2.141628   2.123188   0.000000
     9  H    2.512225   2.454086   1.094722   0.000000
    10  H    3.076742   2.555980   1.094760   1.783264   0.000000
    11  O    2.619464   3.345651   1.461911   2.067837   2.068739
    12  O    3.878346   4.404664   2.300367   2.571891   2.488917
                   11         12
    11  O    0.000000
    12  O    1.320211   0.000000
 Stoichiometry    C3H7O2(2)
 Framework group  C1[X(C3H7O2)]
 Deg. of freedom    30
 Full point group                 C1      NOp   1
 Largest Abelian subgroup         C1      NOp   1
 Largest concise Abelian subgroup C1      NOp   1
                         Standard orientation:                         
 ---------------------------------------------------------------------
 Center     Atomic      Atomic             Coordinates (Angstroms)
 Number     Number       Type             X           Y           Z
 ---------------------------------------------------------------------
      1          6           0       -1.910472   -0.709635    0.141112
      2          1           0       -1.356511   -1.571752   -0.243375
      3          1           0       -2.926313   -0.753169   -0.264921
      4          1           0       -1.980824   -0.815786    1.230402
      5          6           0       -1.222987    0.604118   -0.242902
      6          1           0       -1.204963    0.720064   -1.334168
      7          1           0       -1.790385    1.458843    0.148163
      8          6           0        0.197754    0.726216    0.284139
      9          1           0        0.650341    1.695298    0.050767
     10          1           0        0.266802    0.549570    1.362345
     11          8           0        1.009708   -0.296455   -0.373171
     12          8           0        2.234803   -0.329453    0.117758
 ---------------------------------------------------------------------
 Rotational constants (GHZ):     12.9303378      2.7038860      2.4460920
 Leave Link  202 at Wed Apr  1 00:03:12 2015, MaxMem= 3758096384 cpu:       0.1
 (Enter /share/apps/g09/l301.exe)
 Standard basis: 6-31G(d) (6D, 7F)
 Ernie: Thresh=  0.10000D-02 Tol=  0.10000D-05 Strict=F.
 There are    89 symmetry adapted basis functions of A   symmetry.
 Integral buffers will be    131072 words long.
 Raffenetti 2 integral format.
 Two-electron integral symmetry is turned on.
    89 basis functions,   168 primitive gaussians,    89 cartesian basis functions
    21 alpha electrons       20 beta electrons
       nuclear repulsion energy       180.8449214494 Hartrees.
 IExCor=  402 DFT=T Ex+Corr=B3LYP ExCW=0 ScaHFX=  0.200000
 ScaDFX=  0.800000  0.720000  1.000000  0.810000 ScalE2=  1.000000  1.000000
 IRadAn=      0 IRanWt=     -1 IRanGd=            0 ICorTp=0
 NAtoms=   12 NActive=   12 NUniq=   12 SFac= 7.50D-01 NAtFMM=   80 NAOKFM=F Big=F
 Leave Link  301 at Wed Apr  1 00:03:12 2015, MaxMem= 3758096384 cpu:       0.6
 (Enter /share/apps/g09/l302.exe)
 NPDir=0 NMtPBC=     1 NCelOv=     1 NCel=       1 NClECP=     1 NCelD=      1
         NCelK=      1 NCelE2=     1 NClLst=     1 CellRange=     0.0.
 One-electron integrals computed using PRISM.
 NBasis=    89 RedAO= T  NBF=    89
 NBsUse=    89 1.00D-06 NBFU=    89
 Precomputing XC quadrature grid using
 IXCGrd= 2 IRadAn=           0 IRanWt=          -1 IRanGd=           0 AccXCQ= 1.00D-10.
 NRdTot=     742 NPtTot=       94340 NUsed=       99703 NTot=       99735
 NSgBfM=    89    89    89    89    89 NAtAll=    12    12.
 Leave Link  302 at Wed Apr  1 00:03:12 2015, MaxMem= 3758096384 cpu:       1.8
 (Enter /share/apps/g09/l303.exe)
 DipDrv:  MaxL=1.
 Leave Link  303 at Wed Apr  1 00:03:12 2015, MaxMem= 3758096384 cpu:       0.3
 (Enter /share/apps/g09/l401.exe)
 Initial guess read from the read-write file.
 B after Tr=     0.000000    0.000000    0.000000
         Rot=    1.000000    0.000000    0.000000    0.000000 Ang=   0.00 deg.
 Guess basis will be translated and rotated to current coordinates.
 Initial guess orbital symmetries:
 Alpha Orbitals:
       Occupied  (A) (A) (A) (A) (A) (A) (A) (A) (A) (A) (A) (A)
                 (A) (A) (A) (A) (A) (A) (A) (A) (A)
       Virtual   (A) (A) (A) (A) (A) (A) (A) (A) (A) (A) (A) (A)
                 (A) (A) (A) (A) (A) (A) (A) (A) (A) (A) (A) (A)
                 (A) (A) (A) (A) (A) (A) (A) (A) (A) (A) (A) (A)
                 (A) (A) (A) (A) (A) (A) (A) (A) (A) (A) (A) (A)
                 (A) (A) (A) (A) (A) (A) (A) (A) (A) (A) (A) (A)
                 (A) (A) (A) (A) (A) (A) (A) (A)
 Beta  Orbitals:
       Occupied  (A) (A) (A) (A) (A) (A) (A) (A) (A) (A) (A) (A)
                 (A) (A) (A) (A) (A) (A) (A) (A)
       Virtual   (A) (A) (A) (A) (A) (A) (A) (A) (A) (A) (A) (A)
                 (A) (A) (A) (A) (A) (A) (A) (A) (A) (A) (A) (A)
                 (A) (A) (A) (A) (A) (A) (A) (A) (A) (A) (A) (A)
                 (A) (A) (A) (A) (A) (A) (A) (A) (A) (A) (A) (A)
                 (A) (A) (A) (A) (A) (A) (A) (A) (A) (A) (A) (A)
                 (A) (A) (A) (A) (A) (A) (A) (A) (A)
 The electronic state of the initial guess is 2-A.
 Initial guess <Sx>= 0.0000 <Sy>= 0.0000 <Sz>= 0.5000 <S**2>= 0.7528 S= 0.5014
 Generating alternative initial guess.
 Harris functional with IExCor=  402 diagonalized for initial guess.
 ExpMin= 1.61D-01 ExpMax= 5.48D+03 ExpMxC= 8.25D+02 IAcc=1 IRadAn=         1 AccDes= 0.00D+00
 HarFok:  IExCor=  402 AccDes= 0.00D+00 IRadAn=         1 IDoV= 1
 ScaDFX=  1.000000  1.000000  1.000000  1.000000
 FoFCou: FMM=F IPFlag=           0 FMFlag=      100000 FMFlg1=           0
         NFxFlg=           0 DoJE=T BraDBF=F KetDBF=T FulRan=T
         Omega=  0.000000  0.000000  1.000000  0.000000  0.000000 ICntrl=     500 IOpCl=  0
         NMat0=    1 NMatS0=    1 NMatT0=    0 NMatD0=    1 NMtDS0=    0 NMtDT0=    0
         I1Cent=           4 NGrid=           0.
 Petite list used in FoFCou.
 Harris En= -268.874758178404    
 Leave Link  401 at Wed Apr  1 00:03:12 2015, MaxMem= 3758096384 cpu:       3.0
 (Enter /share/apps/g09/l502.exe)
 UHF open shell SCF:
 Requested convergence on RMS density matrix=1.00D-08 within 128 cycles.
 Requested convergence on MAX density matrix=1.00D-06.
 Requested convergence on             energy=1.00D-06.
 No special actions if energy rises.
 Using DIIS extrapolation, IDIIS=  1040.
 Integral symmetry usage will be decided dynamically.
        99582 words used for storage of precomputed grid.
 Keep R1 and R2 ints in memory in canonical form, NReq=17096775.
 IEnd=      143240 IEndB=      143240 NGot=  3758096384 MDV=  3741933737
 LenX=  3741933737 LenY=  3741925375
 Symmetry not used in FoFDir.
 MinBra= 0 MaxBra= 2 Meth= 1.
 IRaf=       0 NMat=   1 IRICut=       1 DoRegI=T DoRafI=F ISym2E= 0 JSym2E=0.
 Integral accuracy reduced to 1.0D-05 until final iterations.

 Cycle   1  Pass 0  IDiag  1:
 E= -268.848583155252    
 DIIS: error= 5.58D-04 at cycle   1 NSaved=   1.
 NSaved= 1 IEnMin= 1 EnMin= -268.848583155252     IErMin= 1 ErrMin= 5.58D-04
 ErrMax= 5.58D-04 EMaxC= 1.00D-01 BMatC= 2.31D-04 BMatP= 2.31D-04
 IDIUse=3 WtCom= 9.94D-01 WtEn= 5.58D-03
 Coeff-Com:  0.100D+01
 Coeff-En:   0.100D+01
 Coeff:      0.100D+01
 Gap=     0.346 Goal=   None    Shift=    0.000
 Gap=     0.153 Goal=   None    Shift=    0.000
 RMSDP=1.36D-04 MaxDP=1.83D-03              OVMax= 3.26D-03

 Cycle   2  Pass 0  IDiag  1:
 E= -268.848657861993     Delta-E=       -0.000074706741 Rises=F Damp=F
 DIIS: error= 3.96D-04 at cycle   2 NSaved=   2.
 NSaved= 2 IEnMin= 2 EnMin= -268.848657861993     IErMin= 2 ErrMin= 3.96D-04
 ErrMax= 3.96D-04 EMaxC= 1.00D-01 BMatC= 7.41D-05 BMatP= 2.31D-04
 IDIUse=3 WtCom= 9.96D-01 WtEn= 3.96D-03
 Coeff-Com:  0.308D+00 0.692D+00
 Coeff-En:   0.000D+00 0.100D+01
 Coeff:      0.307D+00 0.693D+00
 Gap=     0.347 Goal=   None    Shift=    0.000
 Gap=     0.153 Goal=   None    Shift=    0.000
 RMSDP=7.09D-05 MaxDP=1.18D-03 DE=-7.47D-05 OVMax= 1.30D-03

 Cycle   3  Pass 0  IDiag  1:
 E= -268.848671494508     Delta-E=       -0.000013632515 Rises=F Damp=F
 DIIS: error= 1.82D-04 at cycle   3 NSaved=   3.
 NSaved= 3 IEnMin= 3 EnMin= -268.848671494508     IErMin= 3 ErrMin= 1.82D-04
 ErrMax= 1.82D-04 EMaxC= 1.00D-01 BMatC= 2.38D-05 BMatP= 7.41D-05
 IDIUse=3 WtCom= 9.98D-01 WtEn= 1.82D-03
 Coeff-Com:  0.149D-02 0.356D+00 0.642D+00
 Coeff-En:   0.000D+00 0.216D+00 0.784D+00
 Coeff:      0.149D-02 0.356D+00 0.643D+00
 Gap=     0.347 Goal=   None    Shift=    0.000
 Gap=     0.153 Goal=   None    Shift=    0.000
 RMSDP=2.63D-05 MaxDP=3.89D-04 DE=-1.36D-05 OVMax= 5.70D-04

 Cycle   4  Pass 0  IDiag  1:
 E= -268.848677225834     Delta-E=       -0.000005731326 Rises=F Damp=F
 DIIS: error= 4.20D-05 at cycle   4 NSaved=   4.
 NSaved= 4 IEnMin= 4 EnMin= -268.848677225834     IErMin= 4 ErrMin= 4.20D-05
 ErrMax= 4.20D-05 EMaxC= 1.00D-01 BMatC= 7.61D-07 BMatP= 2.38D-05
 IDIUse=1 WtCom= 1.00D+00 WtEn= 0.00D+00
 Coeff-Com: -0.111D-01 0.116D+00 0.250D+00 0.646D+00
 Coeff:     -0.111D-01 0.116D+00 0.250D+00 0.646D+00
 Gap=     0.347 Goal=   None    Shift=    0.000
 Gap=     0.153 Goal=   None    Shift=    0.000
 RMSDP=6.72D-06 MaxDP=2.07D-04 DE=-5.73D-06 OVMax= 3.01D-04

 Initial convergence to 1.0D-05 achieved.  Increase integral accuracy.
 Cycle   5  Pass 1  IDiag  1:
 E= -268.848701634586     Delta-E=       -0.000024408752 Rises=F Damp=F
 DIIS: error= 4.34D-05 at cycle   1 NSaved=   1.
 NSaved= 1 IEnMin= 1 EnMin= -268.848701634586     IErMin= 1 ErrMin= 4.34D-05
 ErrMax= 4.34D-05 EMaxC= 1.00D-01 BMatC= 3.97D-07 BMatP= 3.97D-07
 IDIUse=1 WtCom= 1.00D+00 WtEn= 0.00D+00
 Coeff-Com:  0.100D+01
 Coeff:      0.100D+01
 Gap=     0.347 Goal=   None    Shift=    0.000
 Gap=     0.153 Goal=   None    Shift=    0.000
 RMSDP=6.72D-06 MaxDP=2.07D-04 DE=-2.44D-05 OVMax= 3.75D-04

 Cycle   6  Pass 1  IDiag  1:
 E= -268.848701403869     Delta-E=        0.000000230717 Rises=F Damp=F
 DIIS: error= 9.29D-05 at cycle   2 NSaved=   2.
 NSaved= 2 IEnMin= 1 EnMin= -268.848701634586     IErMin= 1 ErrMin= 4.34D-05
 ErrMax= 9.29D-05 EMaxC= 1.00D-01 BMatC= 1.97D-06 BMatP= 3.97D-07
 IDIUse=1 WtCom= 1.00D+00 WtEn= 0.00D+00
 Coeff-Com:  0.700D+00 0.300D+00
 Coeff:      0.700D+00 0.300D+00
 Gap=     0.347 Goal=   None    Shift=    0.000
 Gap=     0.153 Goal=   None    Shift=    0.000
 RMSDP=5.15D-06 MaxDP=1.34D-04 DE= 2.31D-07 OVMax= 2.44D-04

 Cycle   7  Pass 1  IDiag  1:
 E= -268.848701764259     Delta-E=       -0.000000360390 Rises=F Damp=F
 DIIS: error= 1.04D-05 at cycle   3 NSaved=   3.
 NSaved= 3 IEnMin= 3 EnMin= -268.848701764259     IErMin= 3 ErrMin= 1.04D-05
 ErrMax= 1.04D-05 EMaxC= 1.00D-01 BMatC= 1.64D-08 BMatP= 3.97D-07
 IDIUse=1 WtCom= 1.00D+00 WtEn= 0.00D+00
 Coeff-Com:  0.152D+00 0.842D-01 0.764D+00
 Coeff:      0.152D+00 0.842D-01 0.764D+00
 Gap=     0.347 Goal=   None    Shift=    0.000
 Gap=     0.153 Goal=   None    Shift=    0.000
 RMSDP=2.01D-06 MaxDP=7.38D-05 DE=-3.60D-07 OVMax= 1.94D-04

 Cycle   8  Pass 1  IDiag  1:
 E= -268.848701780455     Delta-E=       -0.000000016196 Rises=F Damp=F
 DIIS: error= 7.11D-06 at cycle   4 NSaved=   4.
 NSaved= 4 IEnMin= 4 EnMin= -268.848701780455     IErMin= 4 ErrMin= 7.11D-06
 ErrMax= 7.11D-06 EMaxC= 1.00D-01 BMatC= 9.59D-09 BMatP= 1.64D-08
 IDIUse=1 WtCom= 1.00D+00 WtEn= 0.00D+00
 Coeff-Com: -0.847D-01-0.320D-01 0.407D+00 0.709D+00
 Coeff:     -0.847D-01-0.320D-01 0.407D+00 0.709D+00
 Gap=     0.347 Goal=   None    Shift=    0.000
 Gap=     0.153 Goal=   None    Shift=    0.000
 RMSDP=1.87D-06 MaxDP=7.14D-05 DE=-1.62D-08 OVMax= 1.91D-04

 Cycle   9  Pass 1  IDiag  1:
 E= -268.848701793492     Delta-E=       -0.000000013037 Rises=F Damp=F
 DIIS: error= 5.78D-06 at cycle   5 NSaved=   5.
 NSaved= 5 IEnMin= 5 EnMin= -268.848701793492     IErMin= 5 ErrMin= 5.78D-06
 ErrMax= 5.78D-06 EMaxC= 1.00D-01 BMatC= 2.53D-09 BMatP= 9.59D-09
 IDIUse=1 WtCom= 1.00D+00 WtEn= 0.00D+00
 Coeff-Com: -0.127D-01-0.194D-01-0.509D+00-0.397D+00 0.194D+01
 Coeff:     -0.127D-01-0.194D-01-0.509D+00-0.397D+00 0.194D+01
 Gap=     0.347 Goal=   None    Shift=    0.000
 Gap=     0.153 Goal=   None    Shift=    0.000
 RMSDP=3.69D-06 MaxDP=1.48D-04 DE=-1.30D-08 OVMax= 3.85D-04

 Cycle  10  Pass 1  IDiag  1:
 E= -268.848701808486     Delta-E=       -0.000000014994 Rises=F Damp=F
 DIIS: error= 2.17D-06 at cycle   6 NSaved=   6.
 NSaved= 6 IEnMin= 6 EnMin= -268.848701808486     IErMin= 6 ErrMin= 2.17D-06
 ErrMax= 2.17D-06 EMaxC= 1.00D-01 BMatC= 1.13D-09 BMatP= 2.53D-09
 IDIUse=1 WtCom= 1.00D+00 WtEn= 0.00D+00
 Coeff-Com:  0.277D-01 0.401D-02-0.450D+00-0.516D+00 0.112D+01 0.819D+00
 Coeff:      0.277D-01 0.401D-02-0.450D+00-0.516D+00 0.112D+01 0.819D+00
 Gap=     0.347 Goal=   None    Shift=    0.000
 Gap=     0.153 Goal=   None    Shift=    0.000
 RMSDP=2.01D-06 MaxDP=8.14D-05 DE=-1.50D-08 OVMax= 2.09D-04

 Cycle  11  Pass 1  IDiag  1:
 E= -268.848701812044     Delta-E=       -0.000000003558 Rises=F Damp=F
 DIIS: error= 9.92D-07 at cycle   7 NSaved=   7.
 NSaved= 7 IEnMin= 7 EnMin= -268.848701812044     IErMin= 7 ErrMin= 9.92D-07
 ErrMax= 9.92D-07 EMaxC= 1.00D-01 BMatC= 1.56D-10 BMatP= 1.13D-09
 IDIUse=1 WtCom= 1.00D+00 WtEn= 0.00D+00
 Coeff-Com:  0.726D-02 0.691D-02 0.338D-01-0.304D-02-0.257D+00 0.167D+00
 Coeff-Com:  0.105D+01
 Coeff:      0.726D-02 0.691D-02 0.338D-01-0.304D-02-0.257D+00 0.167D+00
 Coeff:      0.105D+01
 Gap=     0.347 Goal=   None    Shift=    0.000
 Gap=     0.153 Goal=   None    Shift=    0.000
 RMSDP=7.57D-07 MaxDP=3.21D-05 DE=-3.56D-09 OVMax= 7.87D-05

 Cycle  12  Pass 1  IDiag  1:
 E= -268.848701812512     Delta-E=       -0.000000000467 Rises=F Damp=F
 DIIS: error= 4.34D-07 at cycle   8 NSaved=   8.
 NSaved= 8 IEnMin= 8 EnMin= -268.848701812512     IErMin= 8 ErrMin= 4.34D-07
 ErrMax= 4.34D-07 EMaxC= 1.00D-01 BMatC= 3.93D-11 BMatP= 1.56D-10
 IDIUse=1 WtCom= 1.00D+00 WtEn= 0.00D+00
 Coeff-Com: -0.434D-02 0.286D-02 0.115D+00 0.126D+00-0.350D+00-0.145D+00
 Coeff-Com:  0.341D+00 0.914D+00
 Coeff:     -0.434D-02 0.286D-02 0.115D+00 0.126D+00-0.350D+00-0.145D+00
 Coeff:      0.341D+00 0.914D+00
 Gap=     0.347 Goal=   None    Shift=    0.000
 Gap=     0.153 Goal=   None    Shift=    0.000
 RMSDP=2.44D-07 MaxDP=1.00D-05 DE=-4.67D-10 OVMax= 2.49D-05

 Cycle  13  Pass 1  IDiag  1:
 E= -268.848701812562     Delta-E=       -0.000000000050 Rises=F Damp=F
 DIIS: error= 8.80D-08 at cycle   9 NSaved=   9.
 NSaved= 9 IEnMin= 9 EnMin= -268.848701812562     IErMin= 9 ErrMin= 8.80D-08
 ErrMax= 8.80D-08 EMaxC= 1.00D-01 BMatC= 6.24D-12 BMatP= 3.93D-11
 IDIUse=1 WtCom= 1.00D+00 WtEn= 0.00D+00
 Coeff-Com: -0.275D-02 0.850D-03 0.440D-01 0.556D-01-0.114D+00-0.894D-01
 Coeff-Com: -0.761D-03 0.371D+00 0.735D+00
 Coeff:     -0.275D-02 0.850D-03 0.440D-01 0.556D-01-0.114D+00-0.894D-01
 Coeff:     -0.761D-03 0.371D+00 0.735D+00
 Gap=     0.347 Goal=   None    Shift=    0.000
 Gap=     0.153 Goal=   None    Shift=    0.000
 RMSDP=5.19D-08 MaxDP=2.28D-06 DE=-5.00D-11 OVMax= 5.05D-06

 Cycle  14  Pass 1  IDiag  1:
 E= -268.848701812564     Delta-E=       -0.000000000002 Rises=F Damp=F
 DIIS: error= 2.30D-08 at cycle  10 NSaved=  10.
 NSaved=10 IEnMin=10 EnMin= -268.848701812564     IErMin=10 ErrMin= 2.30D-08
 ErrMax= 2.30D-08 EMaxC= 1.00D-01 BMatC= 2.29D-13 BMatP= 6.24D-12
 IDIUse=1 WtCom= 1.00D+00 WtEn= 0.00D+00
 Coeff-Com: -0.428D-03 0.116D-03 0.293D-02 0.531D-02-0.473D-02-0.123D-01
 Coeff-Com: -0.227D-01 0.213D-01 0.171D+00 0.839D+00
 Coeff:     -0.428D-03 0.116D-03 0.293D-02 0.531D-02-0.473D-02-0.123D-01
 Coeff:     -0.227D-01 0.213D-01 0.171D+00 0.839D+00
 Gap=     0.347 Goal=   None    Shift=    0.000
 Gap=     0.153 Goal=   None    Shift=    0.000
 RMSDP=8.46D-09 MaxDP=3.15D-07 DE=-2.05D-12 OVMax= 7.93D-07

 SCF Done:  E(UB3LYP) =  -268.848701813     A.U. after   14 cycles
             Convg  =    0.8456D-08             -V/T =  2.0090
 <Sx>= 0.0000 <Sy>= 0.0000 <Sz>= 0.5000 <S**2>= 0.7528 S= 0.5014
 <L.S>= 0.000000000000E+00
 KE= 2.664533786523D+02 PE=-9.901488956828D+02 EE= 2.740018937686D+02
 Annihilation of the first spin contaminant:
 S**2 before annihilation     0.7528,   after     0.7500
 Leave Link  502 at Wed Apr  1 00:03:16 2015, MaxMem= 3758096384 cpu:      37.8
 (Enter /share/apps/g09/l701.exe)
 Compute integral first derivatives.
 ... and contract with generalized density number  0.
 Leave Link  701 at Wed Apr  1 00:03:16 2015, MaxMem= 3758096384 cpu:       1.7
 (Enter /share/apps/g09/l702.exe)
 L702 exits ... SP integral derivatives will be done elsewhere.
 Leave Link  702 at Wed Apr  1 00:03:16 2015, MaxMem= 3758096384 cpu:       0.2
 (Enter /share/apps/g09/l703.exe)
 Compute integral first derivatives, UseDBF=F ICtDFT=           0.
 Integral derivatives from FoFDir, PRISM(SPDF).
 Calling FoFJK, ICntrl=      2127 FMM=F ISym2X=0 I1Cent= 0 IOpClX= 1 NMat=1 NMatS=1 NMatT=0.
 FoFCou: FMM=F IPFlag=           0 FMFlag=      100000 FMFlg1=         800
         NFxFlg=           0 DoJE=F BraDBF=F KetDBF=F FulRan=T
         Omega=  0.000000  0.000000  1.000000  0.000000  0.000000 ICntrl=    2127 IOpCl=  1
         NMat0=    1 NMatS0=    1 NMatT0=    0 NMatD0=    1 NMtDS0=    0 NMtDT0=    0
         I1Cent=           0 NGrid=           0.
 Symmetry not used in FoFCou.
 Leave Link  703 at Wed Apr  1 00:03:16 2015, MaxMem= 3758096384 cpu:       7.4
 (Enter /share/apps/g09/l716.exe)
 Dipole        =-9.80043579D-01 5.57475687D-01 1.75814468D-01
 ***** Axes restored to original set *****
 -------------------------------------------------------------------
 Center     Atomic                   Forces (Hartrees/Bohr)
 Number     Number              X              Y              Z
 -------------------------------------------------------------------
      1        6           0.000113146   -0.000437752    0.000448895
      2        1          -0.000006208    0.000101916    0.000018808
      3        1           0.000074246    0.000095979   -0.000187917
[...]
 Iteration  2 RMS(Cart)=  0.00000007 RMS(Int)=  0.00000000
 Variable       Old X    -DE/DX   Delta X   Delta X   Delta X     New X
                                 (Linear)    (Quad)   (Total)
    R1        2.06828   0.00000   0.00000   0.00001   0.00001   2.06829
    R2        2.06930   0.00000   0.00000   0.00000   0.00000   2.06929
    R3        2.07248   0.00000   0.00000  -0.00001  -0.00001   2.07247
    R4        2.89622   0.00000   0.00000  -0.00001  -0.00001   2.89621
    R5        2.07369   0.00000   0.00000  -0.00001  -0.00001   2.07369
    R6        2.07474   0.00000   0.00000  -0.00001  -0.00001   2.07474
    R7        2.87378   0.00000   0.00000   0.00000   0.00000   2.87378
    R8        2.06850   0.00000   0.00000  -0.00002  -0.00002   2.06848
    R9        2.06890   0.00000   0.00000  -0.00001  -0.00001   2.06889
   R10        2.76217   0.00002   0.00000   0.00011   0.00011   2.76228
   R11        2.49790   0.00000   0.00000  -0.00001  -0.00001   2.49789
    A1        1.88498   0.00000   0.00000  -0.00002  -0.00002   1.88497
    A2        1.88205   0.00000   0.00000   0.00002   0.00002   1.88207
    A3        1.93928   0.00000   0.00000  -0.00001  -0.00001   1.93927
    A4        1.88161   0.00000   0.00000   0.00001   0.00001   1.88162
    A5        1.93442   0.00000   0.00000   0.00000   0.00000   1.93442
    A6        1.93918   0.00000   0.00000   0.00000   0.00000   1.93918
    A7        1.92521   0.00000   0.00000   0.00000   0.00000   1.92522
    A8        1.92334   0.00000   0.00000   0.00002   0.00002   1.92336
    A9        1.98335   0.00000   0.00000  -0.00003  -0.00003   1.98332
   A10        1.85721   0.00000   0.00000   0.00001   0.00001   1.85722
   A11        1.89776   0.00000   0.00000  -0.00008  -0.00008   1.89769
   A12        1.87197   0.00000   0.00000   0.00008   0.00008   1.87205
   A13        1.96425   0.00000   0.00000   0.00006   0.00006   1.96431
   A14        1.96686   0.00000   0.00000   0.00003   0.00003   1.96688
   A15        1.88186   0.00000   0.00000  -0.00006  -0.00006   1.88180
   A16        1.90563   0.00000   0.00000   0.00003   0.00003   1.90566
   A17        1.86938   0.00000   0.00000  -0.00002  -0.00002   1.86936
   A18        1.87080   0.00000   0.00000  -0.00005  -0.00005   1.87074
   A19        1.94250   0.00000   0.00000   0.00000   0.00000   1.94250
    D1        1.08822   0.00000   0.00000   0.00017   0.00017   1.08840
    D2        3.13378   0.00000   0.00000   0.00020   0.00020   3.13398
    D3       -1.04800   0.00000   0.00000   0.00029   0.00029  -1.04771
    D4       -1.00778   0.00000   0.00000   0.00021   0.00021  -1.00758
    D5        1.03777   0.00000   0.00000   0.00023   0.00023   1.03800
    D6        3.13918   0.00000   0.00000   0.00032   0.00032   3.13950
    D7       -3.09948   0.00000   0.00000   0.00019   0.00019  -3.09928
    D8       -1.05392   0.00000   0.00000   0.00022   0.00022  -1.05370
    D9        1.04749   0.00000   0.00000   0.00031   0.00031   1.04780
   D10       -3.08932   0.00000   0.00000   0.00035   0.00035  -3.08897
   D11       -0.92507   0.00000   0.00000   0.00046   0.00046  -0.92461
   D12        1.13603   0.00000   0.00000   0.00037   0.00037   1.13640
   D13        1.04256   0.00000   0.00000   0.00042   0.00042   1.04298
   D14       -3.07638   0.00000   0.00000   0.00053   0.00053  -3.07585
   D15       -1.01527   0.00000   0.00000   0.00044   0.00044  -1.01483
   D16       -0.95918   0.00000   0.00000   0.00041   0.00041  -0.95877
   D17        1.20506   0.00000   0.00000   0.00053   0.00053   1.20559
   D18       -3.01702   0.00000   0.00000   0.00044   0.00044  -3.01658
   D19       -3.06885   0.00000   0.00000  -0.00063  -0.00063  -3.06947
   D20        1.09634   0.00000   0.00000  -0.00066  -0.00066   1.09568
   D21       -0.94695   0.00000   0.00000  -0.00066  -0.00066  -0.94760
         Item               Value     Threshold  Converged?
 Maximum Force            0.000022     0.000450     YES
 RMS     Force            0.000004     0.000300     YES
 Maximum Displacement     0.001452     0.001800     YES
 RMS     Displacement     0.000364     0.001200     YES
 Predicted change in Energy=-6.601683D-09
 Optimization completed.
    -- Stationary point found.
                           ----------------------------
                           !   Optimized Parameters   !
                           ! (Angstroms and Degrees)  !
 --------------------------                            --------------------------
 ! Name  Definition              Value          Derivative Info.                !
 --------------------------------------------------------------------------------
 ! R1    R(1,2)                  1.0945         -DE/DX =    0.0                 !
 ! R2    R(1,3)                  1.095          -DE/DX =    0.0                 !
 ! R3    R(1,4)                  1.0967         -DE/DX =    0.0                 !
 ! R4    R(1,5)                  1.5326         -DE/DX =    0.0                 !
 ! R5    R(5,6)                  1.0974         -DE/DX =    0.0                 !
 ! R6    R(5,7)                  1.0979         -DE/DX =    0.0                 !
 ! R7    R(5,8)                  1.5207         -DE/DX =    0.0                 !
 ! R8    R(8,9)                  1.0946         -DE/DX =    0.0                 !
 ! R9    R(8,10)                 1.0948         -DE/DX =    0.0                 !
 ! R10   R(8,11)                 1.4617         -DE/DX =    0.0                 !
 ! R11   R(11,12)                1.3218         -DE/DX =    0.0                 !
 ! A1    A(2,1,3)              108.0016         -DE/DX =    0.0                 !
 ! A2    A(2,1,4)              107.8336         -DE/DX =    0.0                 !
 ! A3    A(2,1,5)              111.1125         -DE/DX =    0.0                 !
 ! A4    A(3,1,4)              107.8082         -DE/DX =    0.0                 !
 ! A5    A(3,1,5)              110.8343         -DE/DX =    0.0                 !
 ! A6    A(4,1,5)              111.1071         -DE/DX =    0.0                 !
 ! A7    A(1,5,6)              110.3065         -DE/DX =    0.0                 !
 ! A8    A(1,5,7)              110.1993         -DE/DX =    0.0                 !
 ! A9    A(1,5,8)              113.6378         -DE/DX =    0.0                 !
 ! A10   A(6,5,7)              106.4106         -DE/DX =    0.0                 !
 ! A11   A(6,5,8)              108.7338         -DE/DX =    0.0                 !
 ! A12   A(7,5,8)              107.2561         -DE/DX =    0.0                 !
 ! A13   A(5,8,9)              112.5431         -DE/DX =    0.0                 !
 ! A14   A(5,8,10)             112.6925         -DE/DX =    0.0                 !
 ! A15   A(5,8,11)             107.8225         -DE/DX =    0.0                 !
 ! A16   A(9,8,10)             109.1843         -DE/DX =    0.0                 !
 ! A17   A(9,8,11)             107.1076         -DE/DX =    0.0                 !
 ! A18   A(10,8,11)            107.1887         -DE/DX =    0.0                 !
 ! A19   A(8,11,12)            111.2968         -DE/DX =    0.0                 !
 ! D1    D(2,1,5,6)             62.3506         -DE/DX =    0.0                 !
 ! D2    D(2,1,5,7)            179.5523         -DE/DX =    0.0                 !
 ! D3    D(2,1,5,8)            -60.046          -DE/DX =    0.0                 !
 ! D4    D(3,1,5,6)            -57.7418         -DE/DX =    0.0                 !
 ! D5    D(3,1,5,7)             59.4599         -DE/DX =    0.0                 !
 ! D6    D(3,1,5,8)            179.8616         -DE/DX =    0.0                 !
 ! D7    D(4,1,5,6)           -177.5869         -DE/DX =    0.0                 !
 ! D8    D(4,1,5,7)            -60.3852         -DE/DX =    0.0                 !
 ! D9    D(4,1,5,8)             60.0165         -DE/DX =    0.0                 !
 ! D10   D(1,5,8,9)           -177.0048         -DE/DX =    0.0                 !
 ! D11   D(1,5,8,10)           -53.0028         -DE/DX =    0.0                 !
 ! D12   D(1,5,8,11)            65.0899         -DE/DX =    0.0                 !
 ! D13   D(6,5,8,9)             59.7343         -DE/DX =    0.0                 !
 ! D14   D(6,5,8,10)          -176.2637         -DE/DX =    0.0                 !
 ! D15   D(6,5,8,11)           -58.171          -DE/DX =    0.0                 !
 ! D16   D(7,5,8,9)            -54.957          -DE/DX =    0.0                 !
 ! D17   D(7,5,8,10)            69.045          -DE/DX =    0.0                 !
 ! D18   D(7,5,8,11)          -172.8623         -DE/DX =    0.0                 !
 ! D19   D(5,8,11,12)         -175.8319         -DE/DX =    0.0                 !
 ! D20   D(9,8,11,12)           62.8156         -DE/DX =    0.0                 !
 ! D21   D(10,8,11,12)         -54.256          -DE/DX =    0.0                 !
 --------------------------------------------------------------------------------
 GradGradGradGradGradGradGradGradGradGradGradGradGradGradGradGradGradGrad

 Leave Link  103 at Wed Apr  1 00:03:59 2015, MaxMem= 3758096384 cpu:       0.1
 (Enter /share/apps/g09/l9999.exe)
 1\1\GINC-COMPUTE-0-2\Freq\UB3LYP\6-31G(d)\C3H7O2(2)\HETANJIN\01-Apr-20
 15\0\\#P Geom=AllCheck Guess=TCheck SCRF=Check GenChk UB3LYP/6-31G(d) 
 Freq\\RO2_3_2_opt_ub3631gd using cbs-qb3 to calculate energy\\0,2\C,0.
 0379188898,0.0974036418,0.183431174\H,0.0734751649,0.4062684722,1.2328
 309536\H,1.0676725085,0.0077089436,-0.1780100129\H,-0.4201241374,-0.89
 81999014,0.1416804633\C,-0.7507498963,1.1036471926,-0.6617769961\H,-0.
 2577299367,2.0838719449,-0.6453832711\H,-0.7702080178,0.7837548041,-1.
 7118665362\C,-2.1944079165,1.2755196395,-0.2157238322\H,-2.7551138571,
 1.957670818,-0.8625874221\H,-2.7309437991,0.3237744641,-0.1455335742\O
 ,-2.1822284875,1.8642052445,1.1221115901\O,-3.4049675149,1.962408736,1
 .6145614639\\Version=EM64L-G09RevA.01\State=2-A\HF=-268.8487085\S2=0.7
 52845\S2-1=0.\S2A=0.750006\RMSD=2.001e-09\RMSF=6.923e-06\ZeroPoint=0.1
 007709\Thermal=0.1069934\Dipole=0.5164503,-0.3929964,-0.9367374\Dipole
 Deriv=0.0462706,0.0393168,-0.0159678,0.0045566,0.0994177,0.0285602,-0.
 0009924,0.0105975,0.0651899,0.0807641,0.0054977,-0.005753,0.0013756,0.
 0332746,-0.045355,-0.0217791,-0.0238176,-0.1126187,-0.1517476,0.048998
 4,0.049844,0.0398814,0.0428849,0.0138257,0.0638223,0.009142,0.035839,0
 .0076267,-0.0980665,-0.0162642,-0.0506596,-0.1265877,0.0156689,-0.0247
 345,-0.0011093,0.0457527,0.0920979,-0.0065247,0.030872,-0.0002271,0.12
 63861,-0.0174436,0.0438949,-0.0122466,0.078008,-0.0272619,-0.0417875,-
 0.0010684,-0.0528767,-0.1265166,0.027901,-0.0314222,0.013836,0.0636738
 ,0.0041666,0.0287381,-0.0109964,0.0298131,0.0317036,-0.0530312,-0.0156
 117,-0.0287012,-0.1442171,0.3774725,-0.0506217,-0.1030366,-0.0536465,0
 .3856469,0.0928563,-0.1588845,0.0856934,0.5228521,-0.0407215,0.074968,
 -0.0459751,0.1025726,-0.0397673,0.0503771,0.024501,0.0045449,-0.061116
 4,-0.0055194,-0.0579647,0.0157759,-0.0466977,-0.0836066,-0.0331627,0.0
 803371,0.0159079,-0.0204967,-0.4532219,0.0323393,0.1210726,0.0394825,-
 0.1702122,-0.0542395,0.1262521,-0.0322861,-0.2613396,0.0700739,0.02510
 7,-0.0185031,-0.0135743,-0.1726234,-0.0259573,-0.0853829,-0.0415608,-0
 .2115268\Polar=45.7405858,-4.2381989,36.022401,-6.322216,1.9196843,40.
 4682989\PG=C01 [X(C3H7O2)]\NImag=0\\0.55824320,0.03361679,0.53232830,-
 0.03129802,0.03780870,0.55173072,-0.05063624,-0.00287654,-0.00552298,0
 .05053621,-0.00324024,-0.07327876,-0.07623723,0.00046057,0.07681382,-0
 .00681389,-0.07480327,-0.29406298,0.00873915,0.08051000,0.31934012,-0.
 28346131,0.01823877,0.08473116,0.00265988,-0.00023722,-0.00025128,0.30
 709864,0.01726050,-0.05063166,-0.00713857,0.00984217,-0.00145541,-0.00
 301073,-0.02176008,0.05163818,0.08584839,-0.00736161,-0.07999465,0.030
 84270,-0.00102575,-0.00924553,-0.09194598,0.00533364,0.08336903,-0.097
 76357,-0.10107573,-0.00492327,-0.00088823,0.00054510,0.00002559,-0.012
 15789,-0.02879305,-0.00288021,0.10250839,-0.10038957,-0.26213855,-0.01
 192755,-0.00386080,-0.00798563,-0.00035446,0.00105815,0.00386573,0.000
 36650,0.10947450,0.28626364,-0.00531838,-0.01245226,-0.05079540,-0.014
 86843,-0.02925331,0.00057365,0.00453131,0.01117271,-0.00009651,0.00765
 964,0.01021221,0.05059090,-0.10922233,0.03625481,-0.03137791,-0.001253
 57,0.00041740,-0.00138457,-0.01474308,0.02197127,-0.02020353,0.0074002
 7,-0.00909637,0.00902892,0.49191014,0.03472802,-0.13217029,0.04188651,
 -0.00565628,0.00732219,-0.00462344,0.00014667,-0.00202781,0.00088899,0
 .01745092,-0.02064385,0.01895079,0.04254932,0.55978743,-0.03123711,0.0
 4249724,-0.11888197,-0.01778371,0.02397933,-0.01689498,0.00567549,-0.0
 0855835,0.00680589,0.00148802,-0.00084672,0.00019980,0.00322570,0.0307
 7829,0.56220498,0.00849630,0.01746736,0.00065280,0.00044333,-0.0007812
 6,0.00035863,0.00072820,-0.00038601,0.00065807,-0.00144727,0.00298437,
 -0.00262961,-0.10213966,-0.10233490,-0.00247131,0.11458923,-0.00867402
 ,-0.01984389,-0.00035354,-0.00016726,0.00099845,0.00014322,0.00027278,
 0.00050293,-0.00050953,0.00302599,-0.00149649,0.00285876,-0.10418905,-
 0.25527767,-0.00559424,0.11183760,0.27748803,0.00865027,0.01814040,0.0
 0042391,0.00082623,-0.00034155,0.00046020,0.00014014,-0.00079526,0.000
 62989,-0.00218304,0.00300172,-0.00159451,-0.00380006,-0.00619587,-0.05
 088442,0.00407898,0.00445333,0.05087767,-0.00061469,-0.00541708,-0.017
 91882,-0.00139635,0.00317669,-0.00193971,0.00030720,-0.00075550,0.0001
 7983,0.00056590,-0.00005578,0.00082825,-0.04982086,-0.00250700,-0.0027
 4862,-0.00015185,-0.00433820,-0.01551390,0.05430028,0.00069953,0.00676
 036,0.02406251,0.00289525,-0.00281202,0.00290834,-0.00057224,0.0008514
 2,-0.00086380,-0.00074791,0.00099866,-0.00032301,-0.00157298,-0.072212
 86,-0.07481863,0.00081781,-0.00880745,-0.02840803,-0.00169818,0.076912
 13,-0.00111769,-0.00444491,-0.01749379,-0.00211523,0.00310150,-0.00044
 483,-0.00021040,-0.00019001,0.00085194,0.00056454,0.00018411,0.0005891
 2,-0.00205788,-0.07503656,-0.28220835,-0.00041992,-0.00074833,0.000050
 36,0.00387195,0.08043270,0.30790357,-0.02306919,0.00703859,0.00224472,
 0.00090566,-0.00081303,0.00091692,-0.00013913,0.00112557,-0.00182253,0
 .00195232,-0.00182045,0.00073795,-0.19499717,0.00508012,0.01979100,-0.
 01862234,0.00181872,0.00682432,0.00312134,-0.00154363,-0.00144231,0.56
 485812,0.02409153,-0.00335585,-0.00756781,-0.00091643,0.00105860,-0.00
 027086,0.00270487,-0.00307196,0.00326036,0.00116628,0.00028609,-0.0006
 6596,0.00779794,-0.08720803,-0.00050731,-0.03241978,0.00434109,0.01011
 705,0.01135800,-0.00248269,-0.00395554,0.01731534,0.58144157,-0.019099
 76,-0.00033817,0.00962322,-0.00105102,-0.00041281,-0.00098287,-0.00311
 980,0.00350439,-0.00300837,0.00024284,-0.00027416,0.00045913,0.0281965
 8,0.00087006,-0.08566913,-0.00123219,0.00045049,-0.00110681,0.03139802
 ,-0.00245929,-0.01157171,0.03482771,-0.08493883,0.42676258,-0.00505689
 ,-0.00123624,0.00371012,0.00019193,-0.00024406,-0.00001930,-0.00088191
 ,0.00132716,-0.00112871,0.00016965,0.00014960,0.00017769,-0.01385442,0
 .02063072,-0.01852497,0.00111070,-0.00066817,-0.00049917,0.00111609,0.
 00001654,0.00032343,-0.11956730,0.08581231,-0.07856534,0.12595465,0.00
 109834,0.00093699,-0.00078317,-0.00000475,-0.00003553,0.00006532,0.000
 29826,0.00002395,0.00031168,-0.00027587,0.00049708,-0.00016049,-0.0003
 5251,-0.00143033,0.00126790,0.00021554,0.00075766,-0.00048640,0.000370
 52,-0.00002129,-0.00019124,0.08687098,-0.16516443,0.10317865,-0.093623
 97,0.16981922,0.00257645,0.00043002,-0.00053647,0.00023019,-0.00006951
 ,0.00011838,0.00060626,-0.00052797,0.00041272,-0.00008315,0.00005562,-
 0.00013143,0.00569504,-0.00820818,0.00908151,-0.00052741,0.00026194,0.
 00009773,-0.00070972,0.00001947,0.00069068,-0.07376303,0.09921298,-0.1
 3163064,0.08447676,-0.10317521,0.15511654,0.00201602,-0.00173782,-0.00
 006031,-0.00012366,0.00009160,-0.00013508,0.00048808,0.00023376,0.0001
 4780,-0.00024278,0.00120815,-0.00022500,-0.01462380,-0.02721769,0.0016
 8475,-0.00540585,0.00116300,0.00214051,0.00083715,0.00036783,0.0001211
 0,-0.11314545,-0.11217329,0.00966396,0.00943241,0.01506608,-0.00131772
 ,0.12025778,0.00042451,0.00127560,-0.00014673,-0.00000600,-0.00004930,
 0.00003950,-0.00000928,0.00018568,-0.00004787,-0.00057471,0.00027447,-
 0.00025799,0.00273485,0.00601148,0.00075673,0.00194721,0.00092007,-0.0
 0013921,-0.00084217,0.00010859,0.00040531,-0.10879070,-0.25282219,0.02
 324448,-0.01039972,-0.01616717,0.00280094,0.12183293,0.27057634,-0.000
 95105,-0.00048223,-0.00005613,0.00006148,-0.00012232,0.00007772,-0.000
 08146,0.00006239,-0.00013629,0.00006216,-0.00031800,0.00027449,0.00486
 909,0.01069633,0.00089380,0.00251391,-0.00110921,0.00004298,-0.0006450
 0,-0.00004077,0.00021369,0.01450014,0.02931893,-0.04977375,0.00968763,
 0.01642066,0.00131126,-0.01158042,-0.01769690,0.06041672,0.00049227,-0
 .00011952,-0.00036479,-0.00040931,0.00073449,0.00061934,0.00012061,-0.
 00008455,0.00041527,-0.00002042,0.00020575,0.00004844,-0.00233380,0.01
 573380,0.03619799,0.00221660,0.00005259,-0.00027809,-0.00638061,0.0013
 4194,0.00252258,-0.08145483,-0.01750211,-0.03094723,-0.00128364,-0.007
 17827,-0.01370361,-0.00227389,-0.00543180,-0.01368247,0.45826865,0.000
 79031,-0.00007419,0.00066580,0.00021970,-0.00046350,-0.00080473,-0.000
 14747,0.00010290,-0.00042508,-0.00020109,0.00007147,-0.00015205,0.0040
 2201,-0.00177612,-0.00459792,0.00018294,0.00035050,0.00092510,-0.00044
 657,0.00053641,0.00077875,-0.02976275,-0.06863784,-0.03633601,-0.00205
 773,0.00985329,0.00854636,0.00028010,-0.01259984,-0.03871659,0.0046905
 3,0.08517474,-0.00096843,0.00069455,0.00072933,0.00026661,0.00013491,0
 .00048682,-0.00023266,0.00027509,0.00007237,-0.00000018,-0.00005948,-0
 .00020572,0.01022684,-0.00618635,-0.01535112,-0.00103920,-0.00008229,0
 .00111116,0.00028240,-0.00018261,0.00195346,-0.05882391,-0.03923463,-0
 .12912416,-0.00019239,-0.01741817,-0.03917483,-0.00123313,-0.01126903,
 -0.01748604,-0.08005356,0.10033830,0.28746343,0.00057644,-0.00015340,0
 .00012731,-0.00002966,-0.00011003,-0.00011580,-0.00001931,0.00001876,-
 0.00011109,-0.00007636,0.00014245,0.00002924,0.00367828,0.00139631,0.0
 0470276,0.00018261,-0.00013400,-0.00038620,-0.00188359,-0.00000394,-0.
 00004015,-0.01984203,0.01276535,0.02968621,0.00266872,-0.00248434,-0.0
 0348006,0.00278399,-0.00088512,-0.00475401,-0.36694164,0.02243002,0.13
 176762,0.37890254,-0.00040570,0.00019193,-0.00026893,0.00007038,-0.000
 11292,0.00020112,0.00000680,0.00001605,0.00007250,0.00000557,0.0000073
 8,0.00007060,-0.00053669,-0.00037416,-0.00435631,0.00046911,0.00006677
 ,-0.00027129,0.00115529,0.00016873,-0.00033579,0.02348123,-0.00438437,
 -0.00648881,0.00029356,0.00093055,0.00065352,0.00088535,0.00228627,0.0
 0198771,0.00755714,-0.01253782,-0.02701030,-0.03298206,0.01374161,-0.0
 0027077,0.00031153,-0.00068580,0.00037500,-0.00026326,0.00057429,0.000
 15722,-0.00012732,0.00033951,0.00002708,-0.00003979,0.00013648,-0.0024
 1823,-0.00382057,-0.00929602,0.00005725,0.00022938,-0.00010817,0.00291
 532,-0.00032687,-0.00053413,0.05600903,-0.00476839,-0.02397749,0.00055
 426,0.00097046,0.00464453,0.00079355,0.00231076,0.00422155,0.09922612,
 -0.03022193,-0.09047469,-0.15742584,0.03574599,0.11515996\\0.00000334,
 0.00000394,0.00000499,-0.00000466,-0.00000126,0.00000375,0.00000047,-0
 .00000362,0.00000651,-0.00000253,-0.00000233,0.00000501,-0.00000149,0.
 00000216,0.00000589,0.00000637,0.00000028,-0.00000059,0.00000271,-0.00
 000349,0.00000135,0.00000263,0.00000656,0.00002302,0.00000235,0.000003
 61,-0.00000806,-0.00000281,-0.00000201,-0.00001000,-0.00000129,-0.0000
 0417,-0.00002341,-0.00000509,0.00000035,-0.00000846\\\@


 TOM, TOM, THE BURGLAR'S SON
 STOLE A MACHINE AND AWAY HE RUN
 THE JOB WAS NEAT, BUT TOM GOT BEAT
 BY THE TIME HE GOT HOME IT WAS OBSOLETE.
 Job cpu time:  0 days  0 hours  3 minutes 38.3 seconds.
 File lengths (MBytes):  RWF=     29 Int=      0 D2E=      0 Chk=      3 Scr=      1
 Normal termination of Gaussian 09 at Wed Apr  1 00:03:59 2015.
