 Entering Gaussian System, Link 0=/share/apps/g09/g09
 Input=C4H10_2_2_opt_B3L.gjf
 Output=C4H10_2_2_opt_B3L.log
 Initial command:
 /share/apps/g09/l1.exe /state/partition1/Gau-3832.inp -scrdir=/state/partition1/
 Entering Link 1 = /share/apps/g09/l1.exe PID=      3836.
  
 Copyright (c) 1988,1990,1992,1993,1995,1998,2003,2009, Gaussian, Inc.
                  All Rights Reserved.
  
 This is part of the Gaussian(R) 09 program.  It is based on
 the Gaussian(R) 03 system (copyright 2003, Gaussian, Inc.),
 the Gaussian(R) 98 system (copyright 1998, Gaussian, Inc.),
 the Gaussian(R) 94 system (copyright 1995, Gaussian, Inc.),
 the Gaussian 92(TM) system (copyright 1992, Gaussian, Inc.),
 the Gaussian 90(TM) system (copyright 1990, Gaussian, Inc.),
 the Gaussian 88(TM) system (copyright 1988, Gaussian, Inc.),
 the Gaussian 86(TM) system (copyright 1986, Carnegie Mellon
 University), and the Gaussian 82(TM) system (copyright 1983,
 Carnegie Mellon University). Gaussian is a federally registered
 trademark of Gaussian, Inc.
  
 This software contains proprietary and confidential information,
 including trade secrets, belonging to Gaussian, Inc.
  
 This software is provided under written license and may be
 used, copied, transmitted, or stored only in accord with that
 written license.
  
 The following legend is applicable only to US Government
 contracts under FAR:
  
                    RESTRICTED RIGHTS LEGEND
  
 Use, reproduction and disclosure by the US Government is
 subject to restrictions as set forth in subparagraphs (a)
 and (c) of the Commercial Computer Software - Restricted
 Rights clause in FAR 52.227-19.
  
 Gaussian, Inc.
 340 Quinnipiac St., Bldg. 40, Wallingford CT 06492
  
  
 ---------------------------------------------------------------
 Warning -- This program may not be used in any manner that
 competes with the business of Gaussian, Inc. or will provide
 assistance to any competitor of Gaussian, Inc.  The licensee
 of this program is prohibited from giving any competitor of
 Gaussian, Inc. access to this program.  By using this program,
 the user acknowledges that Gaussian, Inc. is engaged in the
 business of creating and licensing software in the field of
 computational chemistry and represents and warrants to the
 licensee that it is not a competitor of Gaussian, Inc. and that
 it will not use this program in any manner prohibited above.
 ---------------------------------------------------------------
  

 Cite this work as:
 Gaussian 09, Revision A.01,
 M. J. Frisch, G. W. Trucks, H. B. Schlegel, G. E. Scuseria, 
 M. A. Robb, J. R. Cheeseman, G. Scalmani, V. Barone, B. Mennucci, 
 G. A. Petersson, H. Nakatsuji, M. Caricato, X. Li, H. P. Hratchian, 
 A. F. Izmaylov, J. Bloino, G. Zheng, J. L. Sonnenberg, M. Hada, 
 M. Ehara, K. Toyota, R. Fukuda, J. Hasegawa, M. Ishida, T. Nakajima, 
 Y. Honda, O. Kitao, H. Nakai, T. Vreven, J. A. Montgomery, Jr., 
 J. E. Peralta, F. Ogliaro, M. Bearpark, J. J. Heyd, E. Brothers, 
 K. N. Kudin, V. N. Staroverov, R. Kobayashi, J. Normand, 
 K. Raghavachari, A. Rendell, J. C. Burant, S. S. Iyengar, J. Tomasi, 
 M. Cossi, N. Rega, J. M. Millam, M. Klene, J. E. Knox, J. B. Cross, 
 V. Bakken, C. Adamo, J. Jaramillo, R. Gomperts, R. E. Stratmann, 
 O. Yazyev, A. J. Austin, R. Cammi, C. Pomelli, J. W. Ochterski, 
 R. L. Martin, K. Morokuma, V. G. Zakrzewski, G. A. Voth, 
 P. Salvador, J. J. Dannenberg, S. Dapprich, A. D. Daniels, 
 O. Farkas, J. B. Foresman, J. V. Ortiz, J. Cioslowski, 
 and D. J. Fox, Gaussian, Inc., Wallingford CT, 2009.
 
 ******************************************
 Gaussian 09:  EM64L-G09RevA.01  8-May-2009
                 4-Oct-2015 
 ******************************************
 %mem=6GB
 %nprocshared=4
 Will use up to    4 processors via shared memory.
 ----------------------------------------------
 #p B3LYP/6-31G(d) opt=tight int=ultrafine freq
 ----------------------------------------------
 1/7=10,14=-1,18=20,19=15,26=3,38=1/1,3;
 2/9=110,12=2,17=6,18=5,40=1/2;
 3/5=1,6=6,7=1,11=2,16=1,25=1,30=1,71=1,74=-5,75=-5/1,2,3;
 4//1;
 5/5=2,38=5/2;
 6/7=2,8=2,9=2,10=2,28=1/1;
 7//1,2,3,16;
 1/7=10,14=-1,18=20,19=15/3(2);
 2/9=110/2;
 99//99;
 2/9=110/2;
 3/5=1,6=6,7=1,11=2,16=1,25=1,30=1,71=1,74=-5,75=-5/1,2,3;
 4/5=5,16=3/1;
 5/5=2,38=5/2;
 7//1,2,3,16;
 1/7=10,14=-1,18=20,19=15/3(-5);
 2/9=110/2;
 6/7=2,8=2,9=2,10=2,19=2,28=1/1;
 99/9=1/99;
 Leave Link    1 at Sun Oct  4 11:28:17 2015, MaxMem=  805306368 cpu:       0.1
 (Enter /share/apps/g09/l101.exe)
 ---------------------------------------------
 using B3LYP/6-31G(d) to do opt and freq calc.
 ---------------------------------------------
 Symbolic Z-matrix:
 Charge =  0 Multiplicity = 1
 C                     0.60339   1.33161   0.09581 
 H                     0.63021   1.38399   1.19234 
 H                     0.01567   2.1851   -0.26313 
 H                     1.63074   1.45489  -0.26755 
 C                    -0.00017  -0.00006  -0.37282 
 H                    -0.0003   -0.00011  -1.47338 
 C                    -1.45507  -0.14336   0.09593 
 H                    -2.07505   0.68564  -0.2661 
 H                    -1.90066  -1.07824  -0.2648 
 H                    -1.51405  -0.14837   1.19245 
 C                     0.85177  -1.18823   0.09584 
 H                     0.44225  -2.14007  -0.26325 
 H                     1.88341  -1.10814  -0.2675 
 H                     0.8883   -1.23445   1.19236 
 
 NAtoms=     14 NQM=     14 NQMF=      0 NMic=      0 NMicF=      0 NTot=     14.
                    Isotopes and Nuclear Properties:
 (Nuclear quadrupole moments (NQMom) in fm**2, nuclear magnetic moments (NMagM)
  in nuclear magnetons)

  Atom         1           2           3           4           5           6           7           8           9          10
 IAtWgt=          12           1           1           1          12           1          12           1           1           1
 AtmWgt=  12.0000000   1.0078250   1.0078250   1.0078250  12.0000000   1.0078250  12.0000000   1.0078250   1.0078250   1.0078250
 NucSpn=           0           1           1           1           0           1           0           1           1           1
 AtZEff=   0.0000000   0.0000000   0.0000000   0.0000000   0.0000000   0.0000000   0.0000000   0.0000000   0.0000000   0.0000000
 NQMom=    0.0000000   0.0000000   0.0000000   0.0000000   0.0000000   0.0000000   0.0000000   0.0000000   0.0000000   0.0000000
 NMagM=    0.0000000   2.7928460   2.7928460   2.7928460   0.0000000   2.7928460   0.0000000   2.7928460   2.7928460   2.7928460

  Atom        11          12          13          14
 IAtWgt=          12           1           1           1
 AtmWgt=  12.0000000   1.0078250   1.0078250   1.0078250
 NucSpn=           0           1           1           1
 AtZEff=   0.0000000   0.0000000   0.0000000   0.0000000
 NQMom=    0.0000000   0.0000000   0.0000000   0.0000000
 NMagM=    0.0000000   2.7928460   2.7928460   2.7928460
 Leave Link  101 at Sun Oct  4 11:28:17 2015, MaxMem=  805306368 cpu:       0.2
 (Enter /share/apps/g09/l103.exe)

 GradGradGradGradGradGradGradGradGradGradGradGradGradGradGradGradGradGrad
 Berny optimization.
 Initialization pass.
                           ----------------------------
                           !    Initial Parameters    !
                           ! (Angstroms and Degrees)  !
 --------------------------                            --------------------------
 ! Name  Definition              Value          Derivative Info.                !
 --------------------------------------------------------------------------------
 ! R1    R(1,2)                  1.0981         estimate D2E/DX2                !
 ! R2    R(1,3)                  1.0967         estimate D2E/DX2                !
 ! R3    R(1,4)                  1.0967         estimate D2E/DX2                !
 ! R4    R(1,5)                  1.5353         estimate D2E/DX2                !
 ! R5    R(5,6)                  1.1006         estimate D2E/DX2                !
 ! R6    R(5,7)                  1.5352         estimate D2E/DX2                !
 ! R7    R(5,11)                 1.5353         estimate D2E/DX2                !
 ! R8    R(7,8)                  1.0967         estimate D2E/DX2                !
 ! R9    R(7,9)                  1.0967         estimate D2E/DX2                !
 ! R10   R(7,10)                 1.0981         estimate D2E/DX2                !
 ! R11   R(11,12)                1.0967         estimate D2E/DX2                !
 ! R12   R(11,13)                1.0967         estimate D2E/DX2                !
 ! R13   R(11,14)                1.0981         estimate D2E/DX2                !
 ! A1    A(2,1,3)              107.6251         estimate D2E/DX2                !
 ! A2    A(2,1,4)              107.6145         estimate D2E/DX2                !
 ! A3    A(2,1,5)              110.8406         estimate D2E/DX2                !
 ! A4    A(3,1,4)              107.8248         estimate D2E/DX2                !
 ! A5    A(3,1,5)              111.3734         estimate D2E/DX2                !
 ! A6    A(4,1,5)              111.3852         estimate D2E/DX2                !
 ! A7    A(1,5,6)              107.7772         estimate D2E/DX2                !
 ! A8    A(1,5,7)              111.1188         estimate D2E/DX2                !
 ! A9    A(1,5,11)             111.0958         estimate D2E/DX2                !
 ! A10   A(6,5,7)              107.7705         estimate D2E/DX2                !
 ! A11   A(6,5,11)             107.775          estimate D2E/DX2                !
 ! A12   A(7,5,11)             111.1261         estimate D2E/DX2                !
 ! A13   A(5,7,8)              111.3705         estimate D2E/DX2                !
 ! A14   A(5,7,9)              111.3576         estimate D2E/DX2                !
 ! A15   A(5,7,10)             110.8671         estimate D2E/DX2                !
 ! A16   A(8,7,9)              107.8259         estimate D2E/DX2                !
 ! A17   A(8,7,10)             107.621          estimate D2E/DX2                !
 ! A18   A(9,7,10)             107.6221         estimate D2E/DX2                !
 ! A19   A(5,11,12)            111.3793         estimate D2E/DX2                !
 ! A20   A(5,11,13)            111.3669         estimate D2E/DX2                !
 ! A21   A(5,11,14)            110.8456         estimate D2E/DX2                !
 ! A22   A(12,11,13)           107.829          estimate D2E/DX2                !
 ! A23   A(12,11,14)           107.6293         estimate D2E/DX2                !
 ! A24   A(13,11,14)           107.6141         estimate D2E/DX2                !
 ! D1    D(2,1,5,6)           -179.8488         estimate D2E/DX2                !
 ! D2    D(2,1,5,7)             62.2838         estimate D2E/DX2                !
 ! D3    D(2,1,5,11)           -61.989          estimate D2E/DX2                !
 ! D4    D(3,1,5,6)             60.3565         estimate D2E/DX2                !
 ! D5    D(3,1,5,7)            -57.5109         estimate D2E/DX2                !
 ! D6    D(3,1,5,11)           178.2163         estimate D2E/DX2                !
 ! D7    D(4,1,5,6)            -60.0596         estimate D2E/DX2                !
 ! D8    D(4,1,5,7)           -177.927          estimate D2E/DX2                !
 ! D9    D(4,1,5,11)            57.8002         estimate D2E/DX2                !
 ! D10   D(1,5,7,8)             57.7189         estimate D2E/DX2                !
 ! D11   D(1,5,7,9)            178.1155         estimate D2E/DX2                !
 ! D12   D(1,5,7,10)           -62.0863         estimate D2E/DX2                !
 ! D13   D(6,5,7,8)            -60.1525         estimate D2E/DX2                !
 ! D14   D(6,5,7,9)             60.2441         estimate D2E/DX2                !
 ! D15   D(6,5,7,10)          -179.9578         estimate D2E/DX2                !
 ! D16   D(11,5,7,8)          -178.0254         estimate D2E/DX2                !
 ! D17   D(11,5,7,9)           -57.6289         estimate D2E/DX2                !
 ! D18   D(11,5,7,10)           62.1693         estimate D2E/DX2                !
 ! D19   D(1,5,11,12)         -178.2005         estimate D2E/DX2                !
 ! D20   D(1,5,11,13)          -57.7875         estimate D2E/DX2                !
 ! D21   D(1,5,11,14)           61.9923         estimate D2E/DX2                !
 ! D22   D(6,5,11,12)          -60.3393         estimate D2E/DX2                !
 ! D23   D(6,5,11,13)           60.0736         estimate D2E/DX2                !
 ! D24   D(6,5,11,14)          179.8534         estimate D2E/DX2                !
 ! D25   D(7,5,11,12)           57.5308         estimate D2E/DX2                !
 ! D26   D(7,5,11,13)          177.9438         estimate D2E/DX2                !
 ! D27   D(7,5,11,14)          -62.2764         estimate D2E/DX2                !
 --------------------------------------------------------------------------------
 Trust Radius=3.00D-01 FncErr=1.00D-07 GrdErr=1.00D-06
 Number of steps in this run=  74 maximum allowed number of steps= 100.
 GradGradGradGradGradGradGradGradGradGradGradGradGradGradGradGradGradGrad

 Leave Link  103 at Sun Oct  4 11:28:19 2015, MaxMem=  805306368 cpu:       0.0
 (Enter /share/apps/g09/l202.exe)
                          Input orientation:                          
 ---------------------------------------------------------------------
 Center     Atomic      Atomic             Coordinates (Angstroms)
 Number     Number       Type             X           Y           Z
 ---------------------------------------------------------------------
      1          6           0        0.603386    1.331608    0.095810
      2          1           0        0.630206    1.383994    1.192335
      3          1           0        0.015670    2.185096   -0.263127
      4          1           0        1.630740    1.454889   -0.267550
      5          6           0       -0.000172   -0.000061   -0.372817
      6          1           0       -0.000301   -0.000114   -1.473379
      7          6           0       -1.455068   -0.143358    0.095925
      8          1           0       -2.075049    0.685642   -0.266100
      9          1           0       -1.900655   -1.078237   -0.264798
     10          1           0       -1.514048   -0.148368    1.192451
     11          6           0        0.851767   -1.188228    0.095841
     12          1           0        0.442251   -2.140075   -0.263248
     13          1           0        1.883406   -1.108140   -0.267496
     14          1           0        0.888303   -1.234450    1.192359
 ---------------------------------------------------------------------
                    Distance matrix (angstroms):
                    1          2          3          4          5
     1  C    0.000000
     2  H    1.098103   0.000000
     3  H    1.096671   1.771380   0.000000
     4  H    1.096670   1.771259   1.772476   0.000000
     5  C    1.535329   2.182358   2.187966   2.188112   0.000000
     6  H    2.144825   3.069092   2.498021   2.496268   1.100562
     7  C    2.532342   2.807719   2.777352   3.494098   1.535244
     8  H    2.778896   3.151687   2.572834   3.784787   2.187851
     9  H    3.493939   3.819827   3.784395   4.345973   2.187685
    10  H    2.806506   2.635519   3.147030   3.819912   2.182631
    11  C    2.532048   2.804945   3.493885   2.779374   1.535311
    12  H    3.493919   3.817474   4.346156   3.786329   2.188014
    13  H    2.778995   3.148388   3.786008   2.575453   2.187875
    14  H    2.805040   2.631133   3.817489   3.148824   2.182402
                    6          7          8          9         10
     6  H    0.000000
     7  C    2.144663   0.000000
     8  H    2.496470   1.096667   0.000000
     9  H    2.496871   1.096662   1.772480   0.000000
    10  H    3.069211   1.098122   1.771346   1.771354   0.000000
    11  C    2.144781   2.532438   3.494087   2.778126   2.807302
    12  H    2.497940   2.777716   3.784374   2.572297   3.148502
    13  H    2.496042   3.494036   4.345920   3.784180   3.820380
    14  H    3.069098   2.807853   3.820381   3.150555   2.636449
                   11         12         13         14
    11  C    0.000000
    12  H    1.096659   0.000000
    13  H    1.096680   1.772522   0.000000
    14  H    1.098100   1.771415   1.771260   0.000000
 Stoichiometry    C4H10
 Framework group  C1[X(C4H10)]
 Deg. of freedom    36
 Full point group                 C1      NOp   1
 Largest Abelian subgroup         C1      NOp   1
 Largest concise Abelian subgroup C1      NOp   1
                         Standard orientation:                         
 ---------------------------------------------------------------------
 Center     Atomic      Atomic             Coordinates (Angstroms)
 Number     Number       Type             X           Y           Z
 ---------------------------------------------------------------------
      1          6           0        0.603523    1.331546    0.095810
      2          1           0        0.630348    1.383929    1.192335
      3          1           0        0.015894    2.185094   -0.263127
      4          1           0        1.630889    1.454722   -0.267550
      5          6           0       -0.000172   -0.000061   -0.372817
      6          1           0       -0.000301   -0.000114   -1.473379
      7          6           0       -1.455083   -0.143209    0.095925
      8          1           0       -2.074979    0.685855   -0.266100
      9          1           0       -1.900766   -1.078042   -0.264798
     10          1           0       -1.514063   -0.148213    1.192451
     11          6           0        0.851645   -1.188316    0.095841
     12          1           0        0.442031   -2.140120   -0.263248
     13          1           0        1.883292   -1.108333   -0.267496
     14          1           0        0.888176   -1.234541    1.192359
 ---------------------------------------------------------------------
 Rotational constants (GHZ):      7.7385579      7.7361531      4.4795122
 Leave Link  202 at Sun Oct  4 11:28:20 2015, MaxMem=  805306368 cpu:       0.0
 (Enter /share/apps/g09/l301.exe)
 Standard basis: 6-31G(d) (6D, 7F)
 Ernie: Thresh=  0.10000D-02 Tol=  0.10000D-05 Strict=F.
 There are    80 symmetry adapted basis functions of A   symmetry.
 Integral buffers will be    131072 words long.
 Raffenetti 2 integral format.
 Two-electron integral symmetry is turned on.
    80 basis functions,   152 primitive gaussians,    80 cartesian basis functions
    17 alpha electrons       17 beta electrons
       nuclear repulsion energy       134.0737101144 Hartrees.
 IExCor=  402 DFT=T Ex+Corr=B3LYP ExCW=0 ScaHFX=  0.200000
 ScaDFX=  0.800000  0.720000  1.000000  0.810000 ScalE2=  1.000000  1.000000
 IRadAn=      5 IRanWt=     -1 IRanGd=            0 ICorTp=0
 NAtoms=   14 NActive=   14 NUniq=   14 SFac= 7.50D-01 NAtFMM=   80 NAOKFM=F Big=F
 Leave Link  301 at Sun Oct  4 11:28:21 2015, MaxMem=  805306368 cpu:       0.2
 (Enter /share/apps/g09/l302.exe)
 NPDir=0 NMtPBC=     1 NCelOv=     1 NCel=       1 NClECP=     1 NCelD=      1
         NCelK=      1 NCelE2=     1 NClLst=     1 CellRange=     0.0.
 One-electron integrals computed using PRISM.
 NBasis=    80 RedAO= T  NBF=    80
 NBsUse=    80 1.00D-06 NBFU=    80
 Precomputing XC quadrature grid using
 IXCGrd= 2 IRadAn=           5 IRanWt=          -1 IRanGd=           0 AccXCQ= 1.00D-10.
 NRdTot=    1139 NPtTot=      305372 NUsed=      313540 NTot=      313572
 NSgBfM=    80    80    80    80    80 NAtAll=    14    14.
 Leave Link  302 at Sun Oct  4 11:28:22 2015, MaxMem=  805306368 cpu:       1.2
 (Enter /share/apps/g09/l303.exe)
 DipDrv:  MaxL=1.
 Leave Link  303 at Sun Oct  4 11:28:24 2015, MaxMem=  805306368 cpu:       0.1
 (Enter /share/apps/g09/l401.exe)
 Harris functional with IExCor=  402 diagonalized for initial guess.
 ExpMin= 1.61D-01 ExpMax= 3.05D+03 ExpMxC= 4.57D+02 IAcc=3 IRadAn=         5 AccDes= 0.00D+00
 HarFok:  IExCor=  402 AccDes= 0.00D+00 IRadAn=         5 IDoV= 1
 ScaDFX=  1.000000  1.000000  1.000000  1.000000
 FoFCou: FMM=F IPFlag=           0 FMFlag=      100000 FMFlg1=           0
         NFxFlg=           0 DoJE=T BraDBF=F KetDBF=T FulRan=T
         Omega=  0.000000  0.000000  1.000000  0.000000  0.000000 ICntrl=     500 IOpCl=  0
         NMat0=    1 NMatS0=    1 NMatT0=    0 NMatD0=    1 NMtDS0=    0 NMtDT0=    0
         I1Cent=           4 NGrid=           0.
 Petite list used in FoFCou.
 Harris En= -158.535621131054    
 Initial guess orbital symmetries:
       Occupied  (A) (A) (A) (A) (A) (A) (A) (A) (A) (A) (A) (A)
                 (A) (A) (A) (A) (A)
       Virtual   (A) (A) (A) (A) (A) (A) (A) (A) (A) (A) (A) (A)
                 (A) (A) (A) (A) (A) (A) (A) (A) (A) (A) (A) (A)
                 (A) (A) (A) (A) (A) (A) (A) (A) (A) (A) (A) (A)
                 (A) (A) (A) (A) (A) (A) (A) (A) (A) (A) (A) (A)
                 (A) (A) (A) (A) (A) (A) (A) (A) (A) (A) (A) (A)
                 (A) (A) (A)
 The electronic state of the initial guess is 1-A.
 Leave Link  401 at Sun Oct  4 11:28:26 2015, MaxMem=  805306368 cpu:       4.7
 (Enter /share/apps/g09/l502.exe)
 Closed shell SCF:
 Requested convergence on RMS density matrix=1.00D-08 within 128 cycles.
 Requested convergence on MAX density matrix=1.00D-06.
 Requested convergence on             energy=1.00D-06.
 No special actions if energy rises.
 Using DIIS extrapolation, IDIIS=  1040.
 Integral symmetry usage will be decided dynamically.
       313401 words used for storage of precomputed grid.
 Keep R1 ints in memory in canonical form, NReq=6506067.
 IEnd=      351851 IEndB=      351851 NGot=   805306368 MDV=   799727190
 LenX=   799727190 LenY=   799720349
 Symmetry not used in FoFDir.
 MinBra= 0 MaxBra= 2 Meth= 1.
 IRaf=       0 NMat=   1 IRICut=       1 DoRegI=T DoRafI=F ISym2E= 0 JSym2E=0.
 Integral accuracy reduced to 1.0D-05 until final iterations.

 Cycle   1  Pass 0  IDiag  1:
 E= -158.246388777701    
 DIIS: error= 5.87D-02 at cycle   1 NSaved=   1.
 NSaved= 1 IEnMin= 1 EnMin= -158.246388777701     IErMin= 1 ErrMin= 5.87D-02
 ErrMax= 5.87D-02 EMaxC= 1.00D-01 BMatC= 1.89D-01 BMatP= 1.89D-01
 IDIUse=3 WtCom= 4.13D-01 WtEn= 5.87D-01
 Coeff-Com:  0.100D+01
 Coeff-En:   0.100D+01
 Coeff:      0.100D+01
 Gap=     0.346 Goal=   None    Shift=    0.000
 GapD=    0.346 DampG=1.000 DampE=0.500 DampFc=0.5000 IDamp=-1.
 Damping current iteration by 5.00D-01
 RMSDP=1.25D-02 MaxDP=1.41D-01              OVMax= 1.87D-01

 Cycle   2  Pass 0  IDiag  1:
 E= -158.339652185950     Delta-E=       -0.093263408249 Rises=F Damp=T
 DIIS: error= 1.01D-02 at cycle   2 NSaved=   2.
 NSaved= 2 IEnMin= 2 EnMin= -158.339652185950     IErMin= 2 ErrMin= 1.01D-02
 ErrMax= 1.01D-02 EMaxC= 1.00D-01 BMatC= 6.97D-03 BMatP= 1.89D-01
 IDIUse=3 WtCom= 8.99D-01 WtEn= 1.01D-01
 Coeff-Com:  0.891D-01 0.911D+00
 Coeff-En:   0.145D+00 0.855D+00
 Coeff:      0.948D-01 0.905D+00
 Gap=     0.415 Goal=   None    Shift=    0.000
 RMSDP=1.83D-03 MaxDP=2.03D-02 DE=-9.33D-02 OVMax= 1.05D-01

 Cycle   3  Pass 0  IDiag  1:
 E= -158.458090658226     Delta-E=       -0.118438472275 Rises=F Damp=F
 DIIS: error= 3.17D-03 at cycle   3 NSaved=   3.
 NSaved= 3 IEnMin= 3 EnMin= -158.458090658226     IErMin= 3 ErrMin= 3.17D-03
 ErrMax= 3.17D-03 EMaxC= 1.00D-01 BMatC= 7.49D-04 BMatP= 6.97D-03
 IDIUse=3 WtCom= 9.68D-01 WtEn= 3.17D-02
 Coeff-Com:  0.136D-01 0.189D+00 0.797D+00
 Coeff-En:   0.000D+00 0.000D+00 0.100D+01
 Coeff:      0.132D-01 0.183D+00 0.804D+00
 Gap=     0.401 Goal=   None    Shift=    0.000
 RMSDP=5.40D-04 MaxDP=9.28D-03 DE=-1.18D-01 OVMax= 9.64D-03

 Cycle   4  Pass 0  IDiag  1:
 E= -158.458492578937     Delta-E=       -0.000401920711 Rises=F Damp=F
 DIIS: error= 2.39D-03 at cycle   4 NSaved=   4.
 NSaved= 4 IEnMin= 4 EnMin= -158.458492578937     IErMin= 4 ErrMin= 2.39D-03
 ErrMax= 2.39D-03 EMaxC= 1.00D-01 BMatC= 3.38D-04 BMatP= 7.49D-04
 IDIUse=3 WtCom= 9.76D-01 WtEn= 2.39D-02
 Coeff-Com:  0.165D-02 0.232D-01 0.402D+00 0.574D+00
 Coeff-En:   0.000D+00 0.000D+00 0.295D+00 0.705D+00
 Coeff:      0.161D-02 0.226D-01 0.399D+00 0.577D+00
 Gap=     0.404 Goal=   None    Shift=    0.000
 RMSDP=2.16D-04 MaxDP=4.46D-03 DE=-4.02D-04 OVMax= 4.30D-03

 Cycle   5  Pass 0  IDiag  1:
 E= -158.458802551570     Delta-E=       -0.000309972633 Rises=F Damp=F
 DIIS: error= 3.04D-04 at cycle   5 NSaved=   5.
 NSaved= 5 IEnMin= 5 EnMin= -158.458802551570     IErMin= 5 ErrMin= 3.04D-04
 ErrMax= 3.04D-04 EMaxC= 1.00D-01 BMatC= 8.28D-06 BMatP= 3.38D-04
 IDIUse=3 WtCom= 9.97D-01 WtEn= 3.04D-03
 Coeff-Com:  0.474D-03-0.207D-02 0.104D+00 0.215D+00 0.682D+00
 Coeff-En:   0.000D+00 0.000D+00 0.000D+00 0.000D+00 0.100D+01
 Coeff:      0.473D-03-0.206D-02 0.104D+00 0.215D+00 0.683D+00
 Gap=     0.404 Goal=   None    Shift=    0.000
 RMSDP=3.74D-05 MaxDP=6.42D-04 DE=-3.10D-04 OVMax= 7.30D-04

 Cycle   6  Pass 0  IDiag  1:
 E= -158.458810136095     Delta-E=       -0.000007584524 Rises=F Damp=F
 DIIS: error= 4.13D-05 at cycle   6 NSaved=   6.
 NSaved= 6 IEnMin= 6 EnMin= -158.458810136095     IErMin= 6 ErrMin= 4.13D-05
 ErrMax= 4.13D-05 EMaxC= 1.00D-01 BMatC= 1.18D-07 BMatP= 8.28D-06
 IDIUse=1 WtCom= 1.00D+00 WtEn= 0.00D+00
 Coeff-Com:  0.225D-03-0.119D-02 0.251D-01 0.563D-01 0.220D+00 0.699D+00
 Coeff:      0.225D-03-0.119D-02 0.251D-01 0.563D-01 0.220D+00 0.699D+00
 Gap=     0.404 Goal=   None    Shift=    0.000
 RMSDP=7.05D-06 MaxDP=5.99D-05 DE=-7.58D-06 OVMax= 1.35D-04

 Initial convergence to 1.0D-05 achieved.  Increase integral accuracy.
 Cycle   7  Pass 1  IDiag  1:
 E= -158.458810400835     Delta-E=       -0.000000264740 Rises=F Damp=F
 DIIS: error= 3.91D-06 at cycle   1 NSaved=   1.
 NSaved= 1 IEnMin= 1 EnMin= -158.458810400835     IErMin= 1 ErrMin= 3.91D-06
 ErrMax= 3.91D-06 EMaxC= 1.00D-01 BMatC= 2.37D-09 BMatP= 2.37D-09
 IDIUse=1 WtCom= 1.00D+00 WtEn= 0.00D+00
 Coeff-Com:  0.100D+01
 Coeff:      0.100D+01
 Gap=     0.404 Goal=   None    Shift=    0.000
 RMSDP=7.05D-06 MaxDP=5.99D-05 DE=-2.65D-07 OVMax= 2.25D-05

 Cycle   8  Pass 1  IDiag  1:
 E= -158.458810403219     Delta-E=       -0.000000002384 Rises=F Damp=F
 DIIS: error= 3.11D-06 at cycle   2 NSaved=   2.
 NSaved= 2 IEnMin= 2 EnMin= -158.458810403219     IErMin= 2 ErrMin= 3.11D-06
 ErrMax= 3.11D-06 EMaxC= 1.00D-01 BMatC= 7.98D-10 BMatP= 2.37D-09
 IDIUse=1 WtCom= 1.00D+00 WtEn= 0.00D+00
 Coeff-Com:  0.338D+00 0.662D+00
 Coeff:      0.338D+00 0.662D+00
 Gap=     0.404 Goal=   None    Shift=    0.000
 RMSDP=5.47D-07 MaxDP=6.47D-06 DE=-2.38D-09 OVMax= 9.94D-06

 Cycle   9  Pass 1  IDiag  1:
 E= -158.458810404018     Delta-E=       -0.000000000799 Rises=F Damp=F
 DIIS: error= 1.21D-06 at cycle   3 NSaved=   3.
 NSaved= 3 IEnMin= 3 EnMin= -158.458810404018     IErMin= 3 ErrMin= 1.21D-06
 ErrMax= 1.21D-06 EMaxC= 1.00D-01 BMatC= 9.98D-11 BMatP= 7.98D-10
 IDIUse=1 WtCom= 1.00D+00 WtEn= 0.00D+00
 Coeff-Com:  0.362D-01 0.263D+00 0.701D+00
 Coeff:      0.362D-01 0.263D+00 0.701D+00
 Gap=     0.404 Goal=   None    Shift=    0.000
 RMSDP=1.51D-07 MaxDP=1.80D-06 DE=-7.99D-10 OVMax= 2.51D-06

 Cycle  10  Pass 1  IDiag  1:
 E= -158.458810404112     Delta-E=       -0.000000000094 Rises=F Damp=F
 DIIS: error= 3.02D-07 at cycle   4 NSaved=   4.
 NSaved= 4 IEnMin= 4 EnMin= -158.458810404112     IErMin= 4 ErrMin= 3.02D-07
 ErrMax= 3.02D-07 EMaxC= 1.00D-01 BMatC= 8.71D-12 BMatP= 9.98D-11
 IDIUse=1 WtCom= 1.00D+00 WtEn= 0.00D+00
 Coeff-Com: -0.765D-02 0.680D-01 0.304D+00 0.635D+00
 Coeff:     -0.765D-02 0.680D-01 0.304D+00 0.635D+00
 Gap=     0.404 Goal=   None    Shift=    0.000
 RMSDP=4.92D-08 MaxDP=5.51D-07 DE=-9.37D-11 OVMax= 8.78D-07

 Cycle  11  Pass 1  IDiag  1:
 E= -158.458810404122     Delta-E=       -0.000000000010 Rises=F Damp=F
 DIIS: error= 4.92D-08 at cycle   5 NSaved=   5.
 NSaved= 5 IEnMin= 5 EnMin= -158.458810404122     IErMin= 5 ErrMin= 4.92D-08
 ErrMax= 4.92D-08 EMaxC= 1.00D-01 BMatC= 1.65D-13 BMatP= 8.71D-12
 IDIUse=1 WtCom= 1.00D+00 WtEn= 0.00D+00
 Coeff-Com: -0.387D-02 0.160D-01 0.820D-01 0.216D+00 0.690D+00
 Coeff:     -0.387D-02 0.160D-01 0.820D-01 0.216D+00 0.690D+00
 Gap=     0.404 Goal=   None    Shift=    0.000
 RMSDP=6.06D-09 MaxDP=1.20D-07 DE=-1.01D-11 OVMax= 1.17D-07

 SCF Done:  E(RB3LYP) =  -158.458810404     A.U. after   11 cycles
             Convg  =    0.6063D-08             -V/T =  2.0105
 KE= 1.568057413243D+02 PE=-6.335089548164D+02 EE= 1.841706929736D+02
 Leave Link  502 at Sun Oct  4 11:28:36 2015, MaxMem=  805306368 cpu:      38.4
 (Enter /share/apps/g09/l601.exe)
 Copying SCF densities to generalized density rwf, IOpCl= 0 IROHF=0.

 **********************************************************************

            Population analysis using the SCF density.

 **********************************************************************

 Orbital symmetries:
       Occupied  (A) (A) (A) (A) (A) (A) (A) (A) (A) (A) (A) (A)
                 (A) (A) (A) (A) (A)
       Virtual   (A) (A) (A) (A) (A) (A) (A) (A) (A) (A) (A) (A)
                 (A) (A) (A) (A) (A) (A) (A) (A) (A) (A) (A) (A)
                 (A) (A) (A) (A) (A) (A) (A) (A) (A) (A) (A) (A)
                 (A) (A) (A) (A) (A) (A) (A) (A) (A) (A) (A) (A)
                 (A) (A) (A) (A) (A) (A) (A) (A) (A) (A) (A) (A)
                 (A) (A) (A)
 The electronic state is 1-A.
 Alpha  occ. eigenvalues --  -10.18495 -10.16854 -10.16854 -10.16852  -0.79481
 Alpha  occ. eigenvalues --   -0.67635  -0.67632  -0.55477  -0.45676  -0.42489
 Alpha  occ. eigenvalues --   -0.42486  -0.37868  -0.37859  -0.35892  -0.32241
 Alpha  occ. eigenvalues --   -0.32238  -0.31765
 Alpha virt. eigenvalues --    0.08601   0.13721   0.15435   0.15437   0.15854
 Alpha virt. eigenvalues --    0.15856   0.17606   0.19675   0.19676   0.22652
 Alpha virt. eigenvalues --    0.22759   0.25996   0.26005   0.51326   0.51334
 Alpha virt. eigenvalues --    0.52237   0.53922   0.53932   0.64103   0.71809
 Alpha virt. eigenvalues --    0.72224   0.72224   0.73926   0.73950   0.86933
 Alpha virt. eigenvalues --    0.87756   0.89678   0.89691   0.89916   0.91752
 Alpha virt. eigenvalues --    0.94038   0.94047   0.96706   0.98778   0.98779
 Alpha virt. eigenvalues --    1.01573   1.42731   1.42779   1.44694   1.44769
 Alpha virt. eigenvalues --    1.64952   1.73170   1.79338   1.79344   1.95101
 Alpha virt. eigenvalues --    1.95143   2.00957   2.08374   2.08412   2.13586
 Alpha virt. eigenvalues --    2.24082   2.24656   2.24663   2.27064   2.48396
 Alpha virt. eigenvalues --    2.50881   2.50896   2.70222   2.70230   4.14853
 Alpha virt. eigenvalues --    4.29040   4.29042   4.55718
          Condensed to atoms (all electrons):
              1          2          3          4          5          6
     1  C    5.098610   0.371972   0.370455   0.370457   0.388120  -0.047541
     2  H    0.371972   0.584885  -0.031821  -0.031843  -0.034593   0.005917
     3  H    0.370455  -0.031821   0.581458  -0.030531  -0.029807  -0.003402
     4  H    0.370457  -0.031843  -0.030531   0.581434  -0.029750  -0.003455
     5  C    0.388120  -0.034593  -0.029807  -0.029750   4.795414   0.383659
     6  H   -0.047541   0.005917  -0.003402  -0.003455   0.383659   0.638915
     7  C   -0.054211  -0.005639  -0.003719   0.005217   0.388167  -0.047546
     8  H   -0.003705  -0.000241   0.004020  -0.000045  -0.029761  -0.003440
     9  H    0.005220  -0.000044  -0.000044  -0.000187  -0.029791  -0.003425
    10  H   -0.005651   0.005012  -0.000240  -0.000043  -0.034612   0.005918
    11  C   -0.054231  -0.005699   0.005220  -0.003671   0.388132  -0.047544
    12  H    0.005219  -0.000042  -0.000187  -0.000046  -0.029794  -0.003403
    13  H   -0.003674  -0.000241  -0.000046   0.003995  -0.029769  -0.003456
    14  H   -0.005698   0.005057  -0.000042  -0.000241  -0.034595   0.005918
              7          8          9         10         11         12
     1  C   -0.054211  -0.003705   0.005220  -0.005651  -0.054231   0.005219
     2  H   -0.005639  -0.000241  -0.000044   0.005012  -0.005699  -0.000042
     3  H   -0.003719   0.004020  -0.000044  -0.000240   0.005220  -0.000187
     4  H    0.005217  -0.000045  -0.000187  -0.000043  -0.003671  -0.000046
     5  C    0.388167  -0.029761  -0.029791  -0.034612   0.388132  -0.029794
     6  H   -0.047546  -0.003440  -0.003425   0.005918  -0.047544  -0.003403
     7  C    5.098525   0.370448   0.370448   0.371990  -0.054206  -0.003722
     8  H    0.370448   0.581434  -0.030520  -0.031837   0.005218  -0.000044
     9  H    0.370448  -0.030520   0.581458  -0.031832  -0.003718   0.004026
    10  H    0.371990  -0.031837  -0.031832   0.584887  -0.005636  -0.000240
    11  C   -0.054206   0.005218  -0.003718  -0.005636   5.098580   0.370452
    12  H   -0.003722  -0.000044   0.004026  -0.000240   0.370452   0.581435
    13  H    0.005218  -0.000187  -0.000045  -0.000043   0.370459  -0.030523
    14  H   -0.005631  -0.000044  -0.000240   0.005003   0.371976  -0.031820
             13         14
     1  C   -0.003674  -0.005698
     2  H   -0.000241   0.005057
     3  H   -0.000046  -0.000042
     4  H    0.003995  -0.000241
     5  C   -0.029769  -0.034595
     6  H   -0.003456   0.005918
     7  C    0.005218  -0.005631
     8  H   -0.000187  -0.000044
     9  H   -0.000045  -0.000240
    10  H   -0.000043   0.005003
    11  C    0.370459   0.371976
    12  H   -0.030523  -0.031820
    13  H    0.581448  -0.031842
    14  H   -0.031842   0.584879
 Mulliken atomic charges:
              1
     1  C   -0.435344
     2  H    0.137319
     3  H    0.138685
     4  H    0.138708
     5  C   -0.061020
     6  H    0.122885
     7  C   -0.435339
     8  H    0.138704
     9  H    0.138694
    10  H    0.137323
    11  C   -0.435333
    12  H    0.138689
    13  H    0.138707
    14  H    0.137321
 Sum of Mulliken atomic charges =   0.00000
 Mulliken charges with hydrogens summed into heavy atoms:
              1
     1  C   -0.020631
     5  C    0.061865
     7  C   -0.020617
    11  C   -0.020616
 Sum of Mulliken charges with hydrogens summed into heavy atoms =   0.00000
 Electronic spatial extent (au):  <R**2>=            355.6744
 Charge=              0.0000 electrons
 Dipole moment (field-independent basis, Debye):
    X=              0.0001    Y=              0.0000    Z=             -0.0853  Tot=              0.0853
 Quadrupole moment (field-independent basis, Debye-Ang):
   XX=            -28.4615   YY=            -28.4625   ZZ=            -27.9669
   XY=              0.0001   XZ=              0.0001   YZ=              0.0001
 Traceless Quadrupole moment (field-independent basis, Debye-Ang):
   XX=             -0.1646   YY=             -0.1655   ZZ=              0.3301
   XY=              0.0001   XZ=              0.0001   YZ=              0.0001
 Octapole moment (field-independent basis, Debye-Ang**2):
  XXX=              1.5792  YYY=             -0.4816  ZZZ=              0.8531  XYY=             -1.5828
  XXY=              0.4813  XXZ=             -1.0938  XZZ=              0.0043  YZZ=              0.0010
  YYZ=             -1.0913  XYZ=             -0.0001
 Hexadecapole moment (field-independent basis, Debye-Ang**3):
 XXXX=           -212.7681 YYYY=           -212.6844 ZZZZ=            -63.2402 XXXY=             -0.0034
 XXXZ=             -0.7177 YYYX=              0.0042 YYYZ=              0.2152 ZZZX=              0.0038
 ZZZY=              0.0010 XXYY=            -70.9016 XXZZ=            -46.8778 YYZZ=            -46.8894
 XXYZ=             -0.2176 YYXZ=              0.7091 ZZXY=              0.0004
 N-N= 1.340737101144D+02 E-N=-6.335089583521D+02  KE= 1.568057413243D+02
 No NMR shielding tensors so no spin-rotation constants.
 Leave Link  601 at Sun Oct  4 11:28:36 2015, MaxMem=  805306368 cpu:       0.7
 (Enter /share/apps/g09/l701.exe)
 Compute integral first derivatives.
 ... and contract with generalized density number  0.
 Leave Link  701 at Sun Oct  4 11:28:36 2015, MaxMem=  805306368 cpu:       0.5
 (Enter /share/apps/g09/l702.exe)
 L702 exits ... SP integral derivatives will be done elsewhere.
 Leave Link  702 at Sun Oct  4 11:28:36 2015, MaxMem=  805306368 cpu:       0.1
 (Enter /share/apps/g09/l703.exe)
 Compute integral first derivatives, UseDBF=F ICtDFT=           0.
 Integral derivatives from FoFDir, PRISM(SPDF).
 Calling FoFJK, ICntrl=      2127 FMM=F ISym2X=0 I1Cent= 0 IOpClX= 0 NMat=1 NMatS=1 NMatT=0.
 FoFCou: FMM=F IPFlag=           0 FMFlag=      100000 FMFlg1=         800
         NFxFlg=           0 DoJE=F BraDBF=F KetDBF=F FulRan=T
         Omega=  0.000000  0.000000  1.000000  0.000000  0.000000 ICntrl=    2127 IOpCl=  0
         NMat0=    1 NMatS0=    1 NMatT0=    0 NMatD0=    1 NMtDS0=    0 NMtDT0=    0
         I1Cent=           0 NGrid=           0.
 Symmetry not used in FoFCou.
 Leave Link  703 at Sun Oct  4 11:28:39 2015, MaxMem=  805306368 cpu:      11.4
 (Enter /share/apps/g09/l716.exe)
 Dipole        = 2.28588929D-05 9.11346360D-07-3.35715127D-02
 ***** Axes restored to original set *****
 -------------------------------------------------------------------
 Center     Atomic                   Forces (Hartrees/Bohr)
 Number     Number              X              Y              Z
 -------------------------------------------------------------------
      1        6          -0.000007954    0.000020796   -0.000001673
      2        1          -0.000021897    0.000006044    0.000007454
      3        1           0.000006323    0.000002123   -0.000003835
      4        1           0.000001522   -0.000021140   -0.000004865
      5        6           0.000055735    0.000022366   -0.000018634
      6        1          -0.000008748   -0.000001160    0.000000990
      7        6          -0.000024034   -0.000017938    0.000017927
      8        1          -0.000004014    0.000003986    0.000004986
      9        1          -0.000016800   -0.000002741    0.000005641
     10        1           0.000029714   -0.000000051   -0.000007716
     11        6           0.000016140    0.000006661   -0.000002992
     12        1           0.000002422   -0.000006628   -0.000005663
     13        1          -0.000004025   -0.000002845    0.000003799
     14        1          -0.000024384   -0.000009474    0.000004581
 -------------------------------------------------------------------
 Cartesian Forces:  Max     0.000055735 RMS     0.000014893
 Leave Link  716 at Sun Oct  4 11:28:39 2015, MaxMem=  805306368 cpu:       0.0
 (Enter /share/apps/g09/l103.exe)

 GradGradGradGradGradGradGradGradGradGradGradGradGradGradGradGradGradGrad
 Berny optimization.
 Internal  Forces:  Max     0.000049024 RMS     0.000013046
 Search for a local minimum.
 Step number   1 out of a maximum of   74
 All quantities printed in internal units (Hartrees-Bohrs-Radians)
 RMS Force = .13046D-04 SwitMx=.10000D-02 MixMth= 2
 Mixed Optimization -- En-DIIS/RFO-DIIS
 Second derivative matrix not updated -- first step.
     Eigenvalues ---    0.00299   0.00299   0.00300   0.03448   0.04778
     Eigenvalues ---    0.04780   0.05405   0.05406   0.05408   0.05476
     Eigenvalues ---    0.05477   0.05478   0.16000   0.16000   0.16000
     Eigenvalues ---    0.16000   0.16000   0.16000   0.16000   0.16000
     Eigenvalues ---    0.16000   0.16843   0.16849   0.28937   0.28938
     Eigenvalues ---    0.28944   0.33620   0.33891   0.33893   0.33893
     Eigenvalues ---    0.34052   0.34053   0.34053   0.34053   0.34054
     Eigenvalues ---    0.340541000.000001000.000001000.000001000.00000
     Eigenvalues --- 1000.000001000.000001000.000001000.000001000.00000
     Eigenvalues --- 1000.000001000.000001000.000001000.000001000.00000
     Eigenvalues --- 1000.000001000.000001000.000001000.000001000.00000
     Eigenvalues --- 1000.000001000.000001000.000001000.000001000.00000
     Eigenvalues --- 1000.000001000.000001000.000001000.00000
 RFO step:  Lambda=-4.12159470D-07 EMin= 2.98609430D-03
 Linear search not attempted -- first point.
 Iteration  1 RMS(Cart)=  0.00141969 RMS(Int)=  0.00000136
 Iteration  2 RMS(Cart)=  0.00000141 RMS(Int)=  0.00000001
 Iteration  3 RMS(Cart)=  0.00000000 RMS(Int)=  0.00000001
 Variable       Old X    -DE/DX   Delta X   Delta X   Delta X     New X
                                 (Linear)    (Quad)   (Total)
    R1        2.07511   0.00001   0.00000   0.00002   0.00002   2.07514
    R2        2.07241   0.00000   0.00000   0.00000   0.00000   2.07241
    R3        2.07241   0.00000   0.00000   0.00000   0.00000   2.07241
    R4        2.90135   0.00000   0.00000  -0.00001  -0.00001   2.90134
    R5        2.07976   0.00000   0.00000   0.00000   0.00000   2.07976
    R6        2.90119   0.00002   0.00000   0.00008   0.00008   2.90127
    R7        2.90132   0.00000   0.00000   0.00001   0.00001   2.90133
    R8        2.07240   0.00000   0.00000   0.00001   0.00001   2.07241
    R9        2.07239   0.00001   0.00000   0.00002   0.00002   2.07241
   R10        2.07515  -0.00001   0.00000  -0.00003  -0.00003   2.07512
   R11        2.07239   0.00001   0.00000   0.00002   0.00002   2.07240
   R12        2.07242  -0.00001   0.00000  -0.00002  -0.00002   2.07241
   R13        2.07511   0.00000   0.00000   0.00001   0.00001   2.07512
    A1        1.87841   0.00000   0.00000  -0.00004  -0.00004   1.87837
    A2        1.87823   0.00002   0.00000   0.00013   0.00013   1.87836
    A3        1.93453   0.00000   0.00000  -0.00001  -0.00001   1.93453
    A4        1.88190   0.00001   0.00000   0.00005   0.00005   1.88194
    A5        1.94383   0.00001   0.00000   0.00005   0.00005   1.94388
    A6        1.94404  -0.00003   0.00000  -0.00017  -0.00017   1.94387
    A7        1.88107  -0.00001   0.00000   0.00004   0.00004   1.88111
    A8        1.93939  -0.00001   0.00000  -0.00013  -0.00013   1.93926
    A9        1.93899   0.00003   0.00000   0.00009   0.00009   1.93908
   A10        1.88095   0.00002   0.00000   0.00020   0.00020   1.88115
   A11        1.88103   0.00000   0.00000   0.00007   0.00007   1.88110
   A12        1.93952  -0.00003   0.00000  -0.00024  -0.00024   1.93927
   A13        1.94378   0.00001   0.00000   0.00008   0.00008   1.94386
   A14        1.94356   0.00003   0.00000   0.00023   0.00023   1.94378
   A15        1.93500  -0.00005   0.00000  -0.00036  -0.00036   1.93463
   A16        1.88192  -0.00001   0.00000   0.00004   0.00004   1.88196
   A17        1.87834   0.00001   0.00000   0.00002   0.00002   1.87836
   A18        1.87836   0.00001   0.00000   0.00000   0.00000   1.87836
   A19        1.94393   0.00000   0.00000  -0.00003  -0.00003   1.94391
   A20        1.94372   0.00001   0.00000   0.00009   0.00009   1.94381
   A21        1.93462  -0.00001   0.00000  -0.00007  -0.00007   1.93455
   A22        1.88197   0.00000   0.00000  -0.00002  -0.00002   1.88195
   A23        1.87849   0.00000   0.00000  -0.00009  -0.00009   1.87839
   A24        1.87822   0.00001   0.00000   0.00012   0.00012   1.87834
    D1       -3.13895  -0.00001   0.00000  -0.00259  -0.00259  -3.14154
    D2        1.08706  -0.00002   0.00000  -0.00277  -0.00277   1.08429
    D3       -1.08191   0.00000   0.00000  -0.00243  -0.00243  -1.08434
    D4        1.05342  -0.00001   0.00000  -0.00257  -0.00257   1.05085
    D5       -1.00375  -0.00002   0.00000  -0.00275  -0.00275  -1.00651
    D6        3.11046   0.00000   0.00000  -0.00241  -0.00241   3.10805
    D7       -1.04824  -0.00001   0.00000  -0.00254  -0.00254  -1.05078
    D8       -3.10541  -0.00002   0.00000  -0.00273  -0.00273  -3.10814
    D9        1.00880   0.00000   0.00000  -0.00238  -0.00238   1.00642
   D10        1.00739  -0.00001   0.00000  -0.00061  -0.00061   1.00677
   D11        3.10870   0.00000   0.00000  -0.00035  -0.00035   3.10835
   D12       -1.08361   0.00000   0.00000  -0.00044  -0.00044  -1.08405
   D13       -1.04986  -0.00001   0.00000  -0.00071  -0.00071  -1.05056
   D14        1.05146   0.00000   0.00000  -0.00045  -0.00045   1.05101
   D15       -3.14086   0.00000   0.00000  -0.00053  -0.00053  -3.14139
   D16       -3.10713   0.00000   0.00000  -0.00077  -0.00077  -3.10790
   D17       -1.00581   0.00001   0.00000  -0.00051  -0.00051  -1.00632
   D18        1.08506   0.00000   0.00000  -0.00060  -0.00060   1.08446
   D19       -3.11019   0.00000   0.00000   0.00214   0.00214  -3.10804
   D20       -1.00858   0.00000   0.00000   0.00216   0.00216  -1.00642
   D21        1.08197   0.00001   0.00000   0.00233   0.00233   1.08430
   D22       -1.05312   0.00000   0.00000   0.00228   0.00228  -1.05084
   D23        1.04848   0.00000   0.00000   0.00230   0.00230   1.05078
   D24        3.13903   0.00001   0.00000   0.00247   0.00247   3.14150
   D25        1.00410   0.00001   0.00000   0.00242   0.00242   1.00652
   D26        3.10570   0.00001   0.00000   0.00244   0.00244   3.10814
   D27       -1.08693   0.00002   0.00000   0.00261   0.00261  -1.08432
         Item               Value     Threshold  Converged?
 Maximum Force            0.000049     0.000015     NO 
 RMS     Force            0.000013     0.000010     NO 
 Maximum Displacement     0.004495     0.000060     NO 
 RMS     Displacement     0.001420     0.000040     NO 
 Predicted change in Energy=-2.060808D-07
 GradGradGradGradGradGradGradGradGradGradGradGradGradGradGradGradGradGrad

 Leave Link  103 at Sun Oct  4 11:28:39 2015, MaxMem=  805306368 cpu:       0.1
 (Enter /share/apps/g09/l202.exe)
                          Input orientation:                          
 ---------------------------------------------------------------------
 Center     Atomic      Atomic             Coordinates (Angstroms)
 Number     Number       Type             X           Y           Z
 ---------------------------------------------------------------------
      1          6           0        0.603318    1.331700    0.095406
      2          1           0        0.628062    1.385202    1.191938
      3          1           0        0.016901    2.185248   -0.265506
      4          1           0        1.631428    1.453756   -0.266228
      5          6           0       -0.000245   -0.000040   -0.372997
      6          1           0       -0.000743   -0.000158   -1.473558
      7          6           0       -1.454918   -0.143426    0.096538
      8          1           0       -2.075076    0.685840   -0.264590
      9          1           0       -1.900980   -1.078108   -0.264143
     10          1           0       -1.512867   -0.148863    1.193102
     11          6           0        0.851767   -1.188210    0.095546
     12          1           0        0.443360   -2.139898   -0.265257
     13          1           0        1.883908   -1.107128   -0.266117
     14          1           0        0.886520   -1.235718    1.192073
 ---------------------------------------------------------------------
                    Distance matrix (angstroms):
                    1          2          3          4          5
     1  C    0.000000
     2  H    1.098115   0.000000
     3  H    1.096671   1.771364   0.000000
     4  H    1.096671   1.771352   1.772506   0.000000
     5  C    1.535325   2.182358   2.187998   2.187985   0.000000
     6  H    2.144850   3.069117   2.497138   2.497096   1.100560
     7  C    2.532259   2.806316   2.778498   3.494012   1.535284
     8  H    2.778584   3.149212   2.573829   3.785217   2.187946
     9  H    3.493989   3.818917   3.785203   4.346061   2.187892
    10  H    2.806286   2.633806   3.148936   3.818982   2.182393
    11  C    2.532128   2.806166   3.493935   2.778262   1.535319
    12  H    3.493945   3.818882   4.346119   3.784951   2.188009
    13  H    2.778217   3.148774   3.784898   2.573300   2.187943
    14  H    2.806157   2.633633   3.818872   3.148778   2.182361
                    6          7          8          9         10
     6  H    0.000000
     7  C    2.144843   0.000000
     8  H    2.497009   1.096673   0.000000
     9  H    2.497111   1.096674   1.772519   0.000000
    10  H    3.069154   1.098107   1.771348   1.771354   0.000000
    11  C    2.144837   2.532266   3.494020   2.778329   2.806487
    12  H    2.497139   2.778535   3.785144   2.573583   3.149263
    13  H    2.497039   3.493995   4.346066   3.784999   3.819119
    14  H    3.069110   2.806356   3.819072   3.148899   2.634068
                   11         12         13         14
    11  C    0.000000
    12  H    1.096669   0.000000
    13  H    1.096672   1.772510   0.000000
    14  H    1.098106   1.771368   1.771338   0.000000
 Stoichiometry    C4H10
 Framework group  C1[X(C4H10)]
 Deg. of freedom    36
 Full point group                 C1      NOp   1
 Largest Abelian subgroup         C1      NOp   1
 Largest concise Abelian subgroup C1      NOp   1
                         Standard orientation:                         
 ---------------------------------------------------------------------
 Center     Atomic      Atomic             Coordinates (Angstroms)
 Number     Number       Type             X           Y           Z
 ---------------------------------------------------------------------
      1          6           0        0.703189    1.281732    0.095858
      2          1           0        0.731428    1.333120    1.192407
      3          1           0        0.183826    2.177586   -0.265243
      4          1           0        1.737788    1.324955   -0.265284
      5          6           0       -0.000073   -0.000007   -0.372958
      6          1           0       -0.000058   -0.000017   -1.473519
      7          6           0       -1.461670   -0.031935    0.095884
      8          1           0       -2.016529    0.842284   -0.265452
      9          1           0       -1.977625   -0.929808   -0.265098
     10          1           0       -1.520383   -0.033000    1.192420
     11          6           0        0.758509   -1.249792    0.095865
     12          1           0        0.278801   -2.167495   -0.265222
     13          1           0        1.793999   -1.247731   -0.265308
     14          1           0        0.789015   -1.299884    1.192404
 ---------------------------------------------------------------------
 Rotational constants (GHZ):      7.7379461      7.7370494      4.4797304
 Leave Link  202 at Sun Oct  4 11:28:39 2015, MaxMem=  805306368 cpu:       0.0
 (Enter /share/apps/g09/l301.exe)
 Standard basis: 6-31G(d) (6D, 7F)
 Ernie: Thresh=  0.10000D-02 Tol=  0.10000D-05 Strict=F.
 There are    80 symmetry adapted basis functions of A   symmetry.
 Integral buffers will be    131072 words long.
 Raffenetti 2 integral format.
 Two-electron integral symmetry is turned on.
    80 basis functions,   152 primitive gaussians,    80 cartesian basis functions
    17 alpha electrons       17 beta electrons
       nuclear repulsion energy       134.0744320021 Hartrees.
 IExCor=  402 DFT=T Ex+Corr=B3LYP ExCW=0 ScaHFX=  0.200000
 ScaDFX=  0.800000  0.720000  1.000000  0.810000 ScalE2=  1.000000  1.000000
 IRadAn=      5 IRanWt=     -1 IRanGd=            0 ICorTp=0
 NAtoms=   14 NActive=   14 NUniq=   14 SFac= 7.50D-01 NAtFMM=   80 NAOKFM=F Big=F
 Leave Link  301 at Sun Oct  4 11:28:39 2015, MaxMem=  805306368 cpu:       0.2
 (Enter /share/apps/g09/l302.exe)
 NPDir=0 NMtPBC=     1 NCelOv=     1 NCel=       1 NClECP=     1 NCelD=      1
         NCelK=      1 NCelE2=     1 NClLst=     1 CellRange=     0.0.
 One-electron integrals computed using PRISM.
 NBasis=    80 RedAO= T  NBF=    80
 NBsUse=    80 1.00D-06 NBFU=    80
 Precomputing XC quadrature grid using
 IXCGrd= 2 IRadAn=           5 IRanWt=          -1 IRanGd=           0 AccXCQ= 1.00D-10.
 NRdTot=    1139 NPtTot=      305372 NUsed=      313540 NTot=      313572
 NSgBfM=    80    80    80    80    80 NAtAll=    14    14.
 Leave Link  302 at Sun Oct  4 11:28:40 2015, MaxMem=  805306368 cpu:       1.2
 (Enter /share/apps/g09/l303.exe)
 DipDrv:  MaxL=1.
 Leave Link  303 at Sun Oct  4 11:28:40 2015, MaxMem=  805306368 cpu:       0.1
 (Enter /share/apps/g09/l401.exe)
 Initial guess read from the read-write file.
 B after Tr=     0.000000    0.000000    0.000000
         Rot=    1.000000    0.000000    0.000000    0.000000 Ang=   0.00 deg.
 Guess basis will be translated and rotated to current coordinates.
 Initial guess orbital symmetries:
       Occupied  (A) (A) (A) (A) (A) (A) (A) (A) (A) (A) (A) (A)
                 (A) (A) (A) (A) (A)
       Virtual   (A) (A) (A) (A) (A) (A) (A) (A) (A) (A) (A) (A)
                 (A) (A) (A) (A) (A) (A) (A) (A) (A) (A) (A) (A)
                 (A) (A) (A) (A) (A) (A) (A) (A) (A) (A) (A) (A)
                 (A) (A) (A) (A) (A) (A) (A) (A) (A) (A) (A) (A)
                 (A) (A) (A) (A) (A) (A) (A) (A) (A) (A) (A) (A)
                 (A) (A) (A)
 The electronic state of the initial guess is 1-A.
 Leave Link  401 at Sun Oct  4 11:28:40 2015, MaxMem=  805306368 cpu:       0.5
 (Enter /share/apps/g09/l502.exe)
 Closed shell SCF:
 Requested convergence on RMS density matrix=1.00D-08 within 128 cycles.
 Requested convergence on MAX density matrix=1.00D-06.
 Requested convergence on             energy=1.00D-06.
 No special actions if energy rises.
 Using DIIS extrapolation, IDIIS=  1040.
 Integral symmetry usage will be decided dynamically.
       313401 words used for storage of precomputed grid.
 Keep R1 ints in memory in canonical form, NReq=6506067.
 IEnd=      351851 IEndB=      351851 NGot=   805306368 MDV=   799727190
 LenX=   799727190 LenY=   799720349
 Symmetry not used in FoFDir.
 MinBra= 0 MaxBra= 2 Meth= 1.
 IRaf=       0 NMat=   1 IRICut=       1 DoRegI=T DoRafI=F ISym2E= 0 JSym2E=0.

 Cycle   1  Pass 1  IDiag  1:
 E= -158.453108682310    
 DIIS: error= 6.23D-03 at cycle   1 NSaved=   1.
 NSaved= 1 IEnMin= 1 EnMin= -158.453108682310     IErMin= 1 ErrMin= 6.23D-03
 ErrMax= 6.23D-03 EMaxC= 1.00D-01 BMatC= 2.84D-03 BMatP= 2.84D-03
 IDIUse=3 WtCom= 9.38D-01 WtEn= 6.23D-02
 Coeff-Com:  0.100D+01
 Coeff-En:   0.100D+01
 Coeff:      0.100D+01
 Gap=     0.404 Goal=   None    Shift=    0.000
 GapD=    0.404 DampG=2.000 DampE=1.000 DampFc=2.0000 IDamp=-1.
 RMSDP=8.96D-04 MaxDP=1.02D-02              OVMax= 2.43D-02

 Cycle   2  Pass 1  IDiag  1:
 E= -158.458756524182     Delta-E=       -0.005647841872 Rises=F Damp=F
 DIIS: error= 6.51D-04 at cycle   2 NSaved=   2.
 NSaved= 2 IEnMin= 2 EnMin= -158.458756524182     IErMin= 2 ErrMin= 6.51D-04
 ErrMax= 6.51D-04 EMaxC= 1.00D-01 BMatC= 2.44D-05 BMatP= 2.84D-03
 IDIUse=3 WtCom= 9.93D-01 WtEn= 6.51D-03
 Coeff-Com: -0.826D-01 0.108D+01
 Coeff-En:   0.000D+00 0.100D+01
 Coeff:     -0.820D-01 0.108D+01
 Gap=     0.404 Goal=   None    Shift=    0.000
 RMSDP=1.27D-04 MaxDP=1.32D-03 DE=-5.65D-03 OVMax= 2.77D-03

 Cycle   3  Pass 1  IDiag  1:
 E= -158.458808684033     Delta-E=       -0.000052159850 Rises=F Damp=F
 DIIS: error= 8.63D-05 at cycle   3 NSaved=   3.
 NSaved= 3 IEnMin= 3 EnMin= -158.458808684033     IErMin= 3 ErrMin= 8.63D-05
 ErrMax= 8.63D-05 EMaxC= 1.00D-01 BMatC= 7.30D-07 BMatP= 2.44D-05
 IDIUse=1 WtCom= 1.00D+00 WtEn= 0.00D+00
 Coeff-Com: -0.179D-01 0.208D+00 0.810D+00
 Coeff:     -0.179D-01 0.208D+00 0.810D+00
 Gap=     0.404 Goal=   None    Shift=    0.000
 RMSDP=1.56D-05 MaxDP=1.40D-04 DE=-5.22D-05 OVMax= 2.66D-04

 Cycle   4  Pass 1  IDiag  1:
 E= -158.458809290780     Delta-E=       -0.000000606748 Rises=F Damp=F
 DIIS: error= 4.67D-05 at cycle   4 NSaved=   4.
 NSaved= 4 IEnMin= 4 EnMin= -158.458809290780     IErMin= 4 ErrMin= 4.67D-05
 ErrMax= 4.67D-05 EMaxC= 1.00D-01 BMatC= 1.38D-07 BMatP= 7.30D-07
 IDIUse=1 WtCom= 1.00D+00 WtEn= 0.00D+00
 Coeff-Com: -0.456D-02 0.484D-01 0.319D+00 0.638D+00
 Coeff:     -0.456D-02 0.484D-01 0.319D+00 0.638D+00
 Gap=     0.404 Goal=   None    Shift=    0.000
 RMSDP=5.79D-06 MaxDP=7.54D-05 DE=-6.07D-07 OVMax= 9.82D-05

 Cycle   5  Pass 1  IDiag  1:
 E= -158.458809419079     Delta-E=       -0.000000128298 Rises=F Damp=F
 DIIS: error= 1.53D-05 at cycle   5 NSaved=   5.
 NSaved= 5 IEnMin= 5 EnMin= -158.458809419079     IErMin= 5 ErrMin= 1.53D-05
 ErrMax= 1.53D-05 EMaxC= 1.00D-01 BMatC= 1.56D-08 BMatP= 1.38D-07
 IDIUse=1 WtCom= 1.00D+00 WtEn= 0.00D+00
 Coeff-Com:  0.443D-03-0.734D-02 0.183D-01 0.267D+00 0.722D+00
 Coeff:      0.443D-03-0.734D-02 0.183D-01 0.267D+00 0.722D+00
 Gap=     0.404 Goal=   None    Shift=    0.000
 RMSDP=1.65D-06 MaxDP=1.95D-05 DE=-1.28D-07 OVMax= 2.83D-05

 Cycle   6  Pass 1  IDiag  1:
 E= -158.458809435401     Delta-E=       -0.000000016322 Rises=F Damp=F
 DIIS: error= 1.39D-06 at cycle   6 NSaved=   6.
 NSaved= 6 IEnMin= 6 EnMin= -158.458809435401     IErMin= 6 ErrMin= 1.39D-06
 ErrMax= 1.39D-06 EMaxC= 1.00D-01 BMatC= 1.33D-10 BMatP= 1.56D-08
 IDIUse=1 WtCom= 1.00D+00 WtEn= 0.00D+00
 Coeff-Com:  0.180D-03-0.271D-02 0.967D-03 0.751D-01 0.225D+00 0.702D+00
 Coeff:      0.180D-03-0.271D-02 0.967D-03 0.751D-01 0.225D+00 0.702D+00
 Gap=     0.404 Goal=   None    Shift=    0.000
 RMSDP=2.05D-07 MaxDP=3.70D-06 DE=-1.63D-08 OVMax= 3.70D-06

 Cycle   7  Pass 1  IDiag  1:
 E= -158.458809435502     Delta-E=       -0.000000000101 Rises=F Damp=F
 DIIS: error= 7.86D-07 at cycle   7 NSaved=   7.
 NSaved= 7 IEnMin= 7 EnMin= -158.458809435502     IErMin= 7 ErrMin= 7.86D-07
 ErrMax= 7.86D-07 EMaxC= 1.00D-01 BMatC= 3.82D-11 BMatP= 1.33D-10
 IDIUse=1 WtCom= 1.00D+00 WtEn= 0.00D+00
 Coeff-Com:  0.460D-04-0.616D-03-0.177D-02 0.102D-01 0.395D-01 0.369D+00
 Coeff-Com:  0.583D+00
 Coeff:      0.460D-04-0.616D-03-0.177D-02 0.102D-01 0.395D-01 0.369D+00
 Coeff:      0.583D+00
 Gap=     0.404 Goal=   None    Shift=    0.000
 RMSDP=7.27D-08 MaxDP=1.40D-06 DE=-1.01D-10 OVMax= 1.36D-06

 Cycle   8  Pass 1  IDiag  1:
 E= -158.458809435538     Delta-E=       -0.000000000036 Rises=F Damp=F
 DIIS: error= 2.05D-08 at cycle   8 NSaved=   8.
 NSaved= 8 IEnMin= 8 EnMin= -158.458809435538     IErMin= 8 ErrMin= 2.05D-08
 ErrMax= 2.05D-08 EMaxC= 1.00D-01 BMatC= 4.32D-14 BMatP= 3.82D-11
 IDIUse=1 WtCom= 1.00D+00 WtEn= 0.00D+00
 Coeff-Com: -0.405D-05 0.629D-04-0.108D-03-0.197D-02-0.553D-02-0.104D-01
 Coeff-Com:  0.171D-01 0.100D+01
 Coeff:     -0.405D-05 0.629D-04-0.108D-03-0.197D-02-0.553D-02-0.104D-01
 Coeff:      0.171D-01 0.100D+01
 Gap=     0.404 Goal=   None    Shift=    0.000
 RMSDP=5.28D-09 MaxDP=4.15D-08 DE=-3.56D-11 OVMax= 1.11D-07

 SCF Done:  E(RB3LYP) =  -158.458809436     A.U. after    8 cycles
             Convg  =    0.5275D-08             -V/T =  2.0105
 KE= 1.568056749790D+02 PE=-6.335103546372D+02 EE= 1.841714382205D+02
 Leave Link  502 at Sun Oct  4 11:28:51 2015, MaxMem=  805306368 cpu:      42.4
 (Enter /share/apps/g09/l701.exe)
 Compute integral first derivatives.
 ... and contract with generalized density number  0.
 Leave Link  701 at Sun Oct  4 11:28:51 2015, MaxMem=  805306368 cpu:       0.6
 (Enter /share/apps/g09/l702.exe)
 L702 exits ... SP integral derivatives will be done elsewhere.
 Leave Link  702 at Sun Oct  4 11:28:51 2015, MaxMem=  805306368 cpu:       0.1
 (Enter /share/apps/g09/l703.exe)
 Compute integral first derivatives, UseDBF=F ICtDFT=           0.
 Integral derivatives from FoFDir, PRISM(SPDF).
 Calling FoFJK, ICntrl=      2127 FMM=F ISym2X=0 I1Cent= 0 IOpClX= 0 NMat=1 NMatS=1 NMatT=0.
 FoFCou: FMM=F IPFlag=           0 FMFlag=      100000 FMFlg1=         800
         NFxFlg=           0 DoJE=F BraDBF=F KetDBF=F FulRan=T
         Omega=  0.000000  0.000000  1.000000  0.000000  0.000000 ICntrl=    2127 IOpCl=  0
         NMat0=    1 NMatS0=    1 NMatT0=    0 NMatD0=    1 NMtDS0=    0 NMtDT0=    0
         I1Cent=           0 NGrid=           0.
 Symmetry not used in FoFCou.
 Leave Link  703 at Sun Oct  4 11:28:54 2015, MaxMem=  805306368 cpu:      11.5
 (Enter /share/apps/g09/l716.exe)
 Dipole        =-8.45468748D-06 1.65495057D-07-3.35454631D-02
 ***** Axes restored to original set *****
 -------------------------------------------------------------------
 Center     Atomic                   Forces (Hartrees/Bohr)
 Number     Number              X              Y              Z
 -------------------------------------------------------------------
      1        6          -0.000011872    0.000001534    0.000007205
      2        1          -0.000000790   -0.000000202   -0.000001091
      3        1           0.000000063    0.000002378   -0.000000446
      4        1          -0.000001897   -0.000000254   -0.000002460
      5        6           0.000033486    0.000009596   -0.000010319
      6        1          -0.000005109   -0.000000703    0.000002622
      7        6          -0.000014545   -0.000010928   -0.000002626
      8        1           0.000003366   -0.000001362    0.000001106
      9        1          -0.000006707    0.000003965    0.000002064
     10        1           0.000007866   -0.000000060    0.000001282
     11        6           0.000000236   -0.000001469    0.000002450
     12        1          -0.000000195    0.000000243   -0.000000769
     13        1           0.000000326   -0.000002673   -0.000001268
     14        1          -0.000004228   -0.000000064    0.000002250
 -------------------------------------------------------------------
 Cartesian Forces:  Max     0.000033486 RMS     0.000007050
 Leave Link  716 at Sun Oct  4 11:28:54 2015, MaxMem=  805306368 cpu:       0.1
 (Enter /share/apps/g09/l103.exe)

 GradGradGradGradGradGradGradGradGradGradGradGradGradGradGradGradGradGrad
 Berny optimization.
 Using GEDIIS/GDIIS optimizer.
 Internal  Forces:  Max     0.000014680 RMS     0.000004340
 Search for a local minimum.
 Step number   2 out of a maximum of   74
 All quantities printed in internal units (Hartrees-Bohrs-Radians)
 RMS Force = .43399D-05 SwitMx=.10000D-02 MixMth= 2
 Mixed Optimization -- En-DIIS/RFO-DIIS
 Swaping is turned off.
 Update second derivatives using D2CorX and points    1    2
 DE=  9.69D-07 DEPred=-2.06D-07 R=-4.70D+00
 Trust test=-4.70D+00 RLast= 1.06D-02 DXMaxT set to 1.50D-01
     Eigenvalues ---    0.00280   0.00299   0.00323   0.03391   0.04778
     Eigenvalues ---    0.04800   0.05349   0.05406   0.05408   0.05456
     Eigenvalues ---    0.05478   0.05487   0.15264   0.16000   0.16000
     Eigenvalues ---    0.16000   0.16000   0.16000   0.16000   0.16000
     Eigenvalues ---    0.16071   0.16650   0.16863   0.28863   0.28937
     Eigenvalues ---    0.28939   0.33620   0.33888   0.33892   0.33905
     Eigenvalues ---    0.34049   0.34053   0.34053   0.34053   0.34054
     Eigenvalues ---    0.340791000.000001000.000001000.000001000.00000
     Eigenvalues --- 1000.000001000.000001000.000001000.000001000.00000
     Eigenvalues --- 1000.000001000.000001000.000001000.000001000.00000
     Eigenvalues --- 1000.000001000.000001000.000001000.000001000.00000
     Eigenvalues --- 1000.000001000.000001000.000001000.000001000.00000
     Eigenvalues --- 1000.000001000.000001000.000001000.00000
 En-DIIS/RFO-DIIS IScMMF=        0 using points:     2    1
 RFO step:  Lambda= 0.00000000D+00.
 DIIS coeffs:      1.07038     -0.07038
 Iteration  1 RMS(Cart)=  0.00016508 RMS(Int)=  0.00000002
 Iteration  2 RMS(Cart)=  0.00000002 RMS(Int)=  0.00000000
 Variable       Old X    -DE/DX   Delta X   Delta X   Delta X     New X
                                  (DIIS)     (GDIIS)  (Total)
    R1        2.07514   0.00000   0.00000  -0.00001   0.00000   2.07513
    R2        2.07241   0.00000   0.00000   0.00001   0.00001   2.07241
    R3        2.07241   0.00000   0.00000   0.00000   0.00000   2.07240
    R4        2.90134   0.00000   0.00000  -0.00001  -0.00001   2.90134
    R5        2.07976   0.00000   0.00000  -0.00001  -0.00001   2.07975
    R6        2.90127   0.00001   0.00001   0.00004   0.00004   2.90131
    R7        2.90133   0.00000   0.00000   0.00001   0.00001   2.90134
    R8        2.07241   0.00000   0.00000  -0.00001  -0.00001   2.07240
    R9        2.07241   0.00000   0.00000  -0.00001   0.00000   2.07241
   R10        2.07512   0.00000   0.00000   0.00000   0.00000   2.07512
   R11        2.07240   0.00000   0.00000   0.00000   0.00000   2.07241
   R12        2.07241   0.00000   0.00000   0.00000   0.00000   2.07241
   R13        2.07512   0.00000   0.00000   0.00001   0.00001   2.07513
    A1        1.87837   0.00000   0.00000   0.00001   0.00000   1.87838
    A2        1.87836   0.00000   0.00001   0.00001   0.00002   1.87838
    A3        1.93453   0.00000   0.00000   0.00001   0.00001   1.93453
    A4        1.88194   0.00000   0.00000  -0.00002  -0.00002   1.88193
    A5        1.94388   0.00000   0.00000   0.00001   0.00002   1.94390
    A6        1.94387   0.00000  -0.00001  -0.00002  -0.00003   1.94384
    A7        1.88111   0.00000   0.00000   0.00004   0.00005   1.88115
    A8        1.93926  -0.00001  -0.00001  -0.00008  -0.00009   1.93917
    A9        1.93908   0.00001   0.00001   0.00006   0.00007   1.93915
   A10        1.88115   0.00000   0.00001  -0.00002   0.00000   1.88114
   A11        1.88110   0.00000   0.00000   0.00006   0.00007   1.88116
   A12        1.93927  -0.00001  -0.00002  -0.00007  -0.00008   1.93919
   A13        1.94386   0.00000   0.00001  -0.00003  -0.00003   1.94383
   A14        1.94378   0.00001   0.00002   0.00011   0.00012   1.94391
   A15        1.93463  -0.00001  -0.00003  -0.00009  -0.00011   1.93452
   A16        1.88196   0.00000   0.00000  -0.00001   0.00000   1.88195
   A17        1.87836   0.00001   0.00000   0.00000   0.00000   1.87836
   A18        1.87836   0.00000   0.00000   0.00001   0.00002   1.87838
   A19        1.94391   0.00000   0.00000  -0.00002  -0.00003   1.94388
   A20        1.94381   0.00000   0.00001   0.00004   0.00005   1.94386
   A21        1.93455   0.00000  -0.00001  -0.00002  -0.00003   1.93452
   A22        1.88195   0.00000   0.00000  -0.00001  -0.00001   1.88194
   A23        1.87839   0.00000  -0.00001  -0.00001  -0.00002   1.87837
   A24        1.87834   0.00000   0.00001   0.00003   0.00004   1.87838
    D1       -3.14154   0.00000  -0.00018   0.00013  -0.00005  -3.14159
    D2        1.08429   0.00000  -0.00020   0.00017  -0.00003   1.08426
    D3       -1.08434   0.00000  -0.00017   0.00027   0.00010  -1.08424
    D4        1.05085   0.00000  -0.00018   0.00011  -0.00007   1.05078
    D5       -1.00651   0.00000  -0.00019   0.00015  -0.00005  -1.00655
    D6        3.10805   0.00000  -0.00017   0.00025   0.00008   3.10813
    D7       -1.05078   0.00000  -0.00018   0.00014  -0.00004  -1.05082
    D8       -3.10814   0.00000  -0.00019   0.00018  -0.00002  -3.10816
    D9        1.00642   0.00001  -0.00017   0.00027   0.00011   1.00652
   D10        1.00677  -0.00001  -0.00004  -0.00030  -0.00034   1.00643
   D11        3.10835   0.00000  -0.00002  -0.00026  -0.00028   3.10807
   D12       -1.08405   0.00000  -0.00003  -0.00022  -0.00025  -1.08431
   D13       -1.05056   0.00000  -0.00005  -0.00030  -0.00035  -1.05091
   D14        1.05101   0.00000  -0.00003  -0.00025  -0.00029   1.05073
   D15       -3.14139   0.00000  -0.00004  -0.00022  -0.00026   3.14154
   D16       -3.10790   0.00000  -0.00005  -0.00032  -0.00038  -3.10828
   D17       -1.00632   0.00000  -0.00004  -0.00028  -0.00032  -1.00664
   D18        1.08446   0.00000  -0.00004  -0.00025  -0.00029   1.08417
   D19       -3.10804  -0.00001   0.00015  -0.00009   0.00006  -3.10798
   D20       -1.00642  -0.00001   0.00015  -0.00009   0.00006  -1.00636
   D21        1.08430   0.00000   0.00016  -0.00004   0.00012   1.08442
   D22       -1.05084   0.00000   0.00016   0.00004   0.00020  -1.05064
   D23        1.05078   0.00000   0.00016   0.00004   0.00020   1.05098
   D24        3.14150   0.00000   0.00017   0.00008   0.00026  -3.14143
   D25        1.00652   0.00000   0.00017   0.00001   0.00019   1.00671
   D26        3.10814   0.00000   0.00017   0.00001   0.00019   3.10833
   D27       -1.08432   0.00000   0.00018   0.00006   0.00025  -1.08408
         Item               Value     Threshold  Converged?
 Maximum Force            0.000015     0.000015     YES
 RMS     Force            0.000004     0.000010     YES
 Maximum Displacement     0.000537     0.000060     NO 
 RMS     Displacement     0.000165     0.000040     NO 
 Predicted change in Energy=-6.892776D-09
 GradGradGradGradGradGradGradGradGradGradGradGradGradGradGradGradGradGrad

 Leave Link  103 at Sun Oct  4 11:28:54 2015, MaxMem=  805306368 cpu:       0.1
 (Enter /share/apps/g09/l202.exe)
                          Input orientation:                          
 ---------------------------------------------------------------------
 Center     Atomic      Atomic             Coordinates (Angstroms)
 Number     Number       Type             X           Y           Z
 ---------------------------------------------------------------------
      1          6           0        0.603266    1.331733    0.095346
      2          1           0        0.627984    1.385253    1.191875
      3          1           0        0.016812    2.185247   -0.265596
      4          1           0        1.631368    1.453841   -0.266290
      5          6           0       -0.000182   -0.000054   -0.373061
      6          1           0       -0.000726   -0.000204   -1.473616
      7          6           0       -1.454856   -0.143446    0.096542
      8          1           0       -2.074936    0.685994   -0.264306
      9          1           0       -1.901126   -1.077975   -0.264274
     10          1           0       -1.512616   -0.149104    1.193115
     11          6           0        0.851772   -1.188232    0.095580
     12          1           0        0.443406   -2.139901   -0.265322
     13          1           0        1.883978   -1.107176   -0.265904
     14          1           0        0.886293   -1.235779    1.192117
 ---------------------------------------------------------------------
                    Distance matrix (angstroms):
                    1          2          3          4          5
     1  C    0.000000
     2  H    1.098113   0.000000
     3  H    1.096673   1.771368   0.000000
     4  H    1.096669   1.771363   1.772497   0.000000
     5  C    1.535321   2.182359   2.188007   2.187959   0.000000
     6  H    2.144879   3.069138   2.497161   2.497121   1.100556
     7  C    2.532197   2.806225   2.778446   3.493959   1.535307
     8  H    2.778326   3.148842   2.573552   3.785008   2.187943
     9  H    3.493995   3.818934   3.785116   4.346103   2.187998
    10  H    2.806232   2.633708   3.148997   3.818892   2.182334
    11  C    2.532189   2.806202   3.493990   2.778358   1.535323
    12  H    3.493977   3.818926   4.346134   3.785001   2.187995
    13  H    2.778309   3.148784   3.785018   2.573445   2.187981
    14  H    2.806266   2.633729   3.818945   3.148990   2.182346
                    6          7          8          9         10
     6  H    0.000000
     7  C    2.144857   0.000000
     8  H    2.497127   1.096668   0.000000
     9  H    2.497122   1.096672   1.772511   0.000000
    10  H    3.069111   1.098108   1.771347   1.771362   0.000000
    11  C    2.144887   2.532215   3.493975   2.778506   2.806190
    12  H    2.497105   2.778520   3.785198   2.573813   3.149021
    13  H    2.497212   3.493989   4.346086   3.785217   3.818834
    14  H    3.069134   2.806146   3.818803   3.148917   2.633558
                   11         12         13         14
    11  C    0.000000
    12  H    1.096670   0.000000
    13  H    1.096672   1.772504   0.000000
    14  H    1.098111   1.771359   1.771366   0.000000
 Stoichiometry    C4H10
 Framework group  C1[X(C4H10)]
 Deg. of freedom    36
 Full point group                 C1      NOp   1
 Largest Abelian subgroup         C1      NOp   1
 Largest concise Abelian subgroup C1      NOp   1
                         Standard orientation:                         
 ---------------------------------------------------------------------
 Center     Atomic      Atomic             Coordinates (Angstroms)
 Number     Number       Type             X           Y           Z
 ---------------------------------------------------------------------
      1          6           0        0.209833    1.446821    0.095874
      2          1           0        0.218261    1.504805    1.192422
      3          1           0       -0.590347    2.104095   -0.265229
      4          1           0        1.163788    1.849616   -0.265251
      5          6           0       -0.000013   -0.000011   -0.373009
      6          1           0       -0.000030   -0.000012   -1.473565
      7          6           0       -1.357913   -0.541695    0.095876
      8          1           0       -2.183714    0.083118   -0.265154
      9          1           0       -1.527078   -1.563279   -0.265285
     10          1           0       -1.412295   -0.563458    1.192420
     11          6           0        1.148086   -0.905128    0.095873
     12          1           0        1.020093   -1.932657   -0.265357
     13          1           0        2.117378   -0.540632   -0.265103
     14          1           0        1.193986   -0.941517    1.192421
 ---------------------------------------------------------------------
 Rotational constants (GHZ):      7.7375969      7.7374496      4.4797933
 Leave Link  202 at Sun Oct  4 11:28:54 2015, MaxMem=  805306368 cpu:       0.0
 (Enter /share/apps/g09/l301.exe)
 Standard basis: 6-31G(d) (6D, 7F)
 Ernie: Thresh=  0.10000D-02 Tol=  0.10000D-05 Strict=F.
 There are    80 symmetry adapted basis functions of A   symmetry.
 Integral buffers will be    131072 words long.
 Raffenetti 2 integral format.
 Two-electron integral symmetry is turned on.
    80 basis functions,   152 primitive gaussians,    80 cartesian basis functions
    17 alpha electrons       17 beta electrons
       nuclear repulsion energy       134.0745509359 Hartrees.
 IExCor=  402 DFT=T Ex+Corr=B3LYP ExCW=0 ScaHFX=  0.200000
 ScaDFX=  0.800000  0.720000  1.000000  0.810000 ScalE2=  1.000000  1.000000
 IRadAn=      5 IRanWt=     -1 IRanGd=            0 ICorTp=0
 NAtoms=   14 NActive=   14 NUniq=   14 SFac= 7.50D-01 NAtFMM=   80 NAOKFM=F Big=F
 Leave Link  301 at Sun Oct  4 11:28:54 2015, MaxMem=  805306368 cpu:       0.2
 (Enter /share/apps/g09/l302.exe)
 NPDir=0 NMtPBC=     1 NCelOv=     1 NCel=       1 NClECP=     1 NCelD=      1
         NCelK=      1 NCelE2=     1 NClLst=     1 CellRange=     0.0.
 One-electron integrals computed using PRISM.
 NBasis=    80 RedAO= T  NBF=    80
 NBsUse=    80 1.00D-06 NBFU=    80
 Precomputing XC quadrature grid using
 IXCGrd= 2 IRadAn=           5 IRanWt=          -1 IRanGd=           0 AccXCQ= 1.00D-10.
 NRdTot=    1139 NPtTot=      305372 NUsed=      313540 NTot=      313572
 NSgBfM=    80    80    80    80    80 NAtAll=    14    14.
 Leave Link  302 at Sun Oct  4 11:28:54 2015, MaxMem=  805306368 cpu:       1.0
 (Enter /share/apps/g09/l303.exe)
 DipDrv:  MaxL=1.
 Leave Link  303 at Sun Oct  4 11:28:54 2015, MaxMem=  805306368 cpu:       0.1
 (Enter /share/apps/g09/l401.exe)
 Initial guess read from the read-write file.
 B after Tr=     0.000000    0.000000    0.000000
         Rot=    1.000000    0.000000    0.000000    0.000000 Ang=   0.00 deg.
 Guess basis will be translated and rotated to current coordinates.
 Initial guess orbital symmetries:
       Occupied  (A) (A) (A) (A) (A) (A) (A) (A) (A) (A) (A) (A)
                 (A) (A) (A) (A) (A)
       Virtual   (A) (A) (A) (A) (A) (A) (A) (A) (A) (A) (A) (A)
                 (A) (A) (A) (A) (A) (A) (A) (A) (A) (A) (A) (A)
                 (A) (A) (A) (A) (A) (A) (A) (A) (A) (A) (A) (A)
                 (A) (A) (A) (A) (A) (A) (A) (A) (A) (A) (A) (A)
                 (A) (A) (A) (A) (A) (A) (A) (A) (A) (A) (A) (A)
                 (A) (A) (A)
 The electronic state of the initial guess is 1-A.
 Leave Link  401 at Sun Oct  4 11:28:54 2015, MaxMem=  805306368 cpu:       0.4
 (Enter /share/apps/g09/l502.exe)
 Closed shell SCF:
 Requested convergence on RMS density matrix=1.00D-08 within 128 cycles.
 Requested convergence on MAX density matrix=1.00D-06.
 Requested convergence on             energy=1.00D-06.
 No special actions if energy rises.
 Using DIIS extrapolation, IDIIS=  1040.
 Integral symmetry usage will be decided dynamically.
       313401 words used for storage of precomputed grid.
 Keep R1 ints in memory in canonical form, NReq=6506067.
 IEnd=      351851 IEndB=      351851 NGot=   805306368 MDV=   799727190
 LenX=   799727190 LenY=   799720349
 Symmetry not used in FoFDir.
 MinBra= 0 MaxBra= 2 Meth= 1.
 IRaf=       0 NMat=   1 IRICut=       1 DoRegI=T DoRafI=F ISym2E= 0 JSym2E=0.

 Cycle   1  Pass 1  IDiag  1:
 E= -158.332320367667    
 DIIS: error= 2.51D-02 at cycle   1 NSaved=   1.
 NSaved= 1 IEnMin= 1 EnMin= -158.332320367667     IErMin= 1 ErrMin= 2.51D-02
 ErrMax= 2.51D-02 EMaxC= 1.00D-01 BMatC= 6.23D-02 BMatP= 6.23D-02
 IDIUse=3 WtCom= 7.49D-01 WtEn= 2.51D-01
 Coeff-Com:  0.100D+01
 Coeff-En:   0.100D+01
 Coeff:      0.100D+01
 Gap=     0.413 Goal=   None    Shift=    0.000
 GapD=    0.413 DampG=2.000 DampE=0.500 DampFc=1.0000 IDamp=-1.
 RMSDP=4.30D-03 MaxDP=5.00D-02              OVMax= 1.13D-01

 Cycle   2  Pass 1  IDiag  1:
 E= -158.457591777061     Delta-E=       -0.125271409395 Rises=F Damp=F
 DIIS: error= 2.56D-03 at cycle   2 NSaved=   2.
 NSaved= 2 IEnMin= 2 EnMin= -158.457591777061     IErMin= 2 ErrMin= 2.56D-03
 ErrMax= 2.56D-03 EMaxC= 1.00D-01 BMatC= 6.08D-04 BMatP= 6.23D-02
 IDIUse=3 WtCom= 9.74D-01 WtEn= 2.56D-02
 Coeff-Com: -0.796D-01 0.108D+01
 Coeff-En:   0.000D+00 0.100D+01
 Coeff:     -0.775D-01 0.108D+01
 Gap=     0.405 Goal=   None    Shift=    0.000
 RMSDP=6.26D-04 MaxDP=6.15D-03 DE=-1.25D-01 OVMax= 1.32D-02

 Cycle   3  Pass 1  IDiag  1:
 E= -158.458679205507     Delta-E=       -0.001087428446 Rises=F Damp=F
 DIIS: error= 1.40D-03 at cycle   3 NSaved=   3.
 NSaved= 3 IEnMin= 3 EnMin= -158.458679205507     IErMin= 3 ErrMin= 1.40D-03
 ErrMax= 1.40D-03 EMaxC= 1.00D-01 BMatC= 1.27D-04 BMatP= 6.08D-04
 IDIUse=3 WtCom= 9.86D-01 WtEn= 1.40D-02
 Coeff-Com: -0.341D-01 0.424D+00 0.610D+00
 Coeff-En:   0.000D+00 0.000D+00 0.100D+01
 Coeff:     -0.336D-01 0.418D+00 0.616D+00
 Gap=     0.403 Goal=   None    Shift=    0.000
 RMSDP=1.72D-04 MaxDP=2.22D-03 DE=-1.09D-03 OVMax= 2.99D-03

 Cycle   4  Pass 1  IDiag  1:
 E= -158.458794681653     Delta-E=       -0.000115476146 Rises=F Damp=F
 DIIS: error= 4.58D-04 at cycle   4 NSaved=   4.
 NSaved= 4 IEnMin= 4 EnMin= -158.458794681653     IErMin= 4 ErrMin= 4.58D-04
 ErrMax= 4.58D-04 EMaxC= 1.00D-01 BMatC= 1.44D-05 BMatP= 1.27D-04
 IDIUse=3 WtCom= 9.95D-01 WtEn= 4.58D-03
 Coeff-Com: -0.679D-02 0.746D-01 0.274D+00 0.658D+00
 Coeff-En:   0.000D+00 0.000D+00 0.113D-01 0.989D+00
 Coeff:     -0.676D-02 0.743D-01 0.273D+00 0.660D+00
 Gap=     0.404 Goal=   None    Shift=    0.000
 RMSDP=5.04D-05 MaxDP=5.83D-04 DE=-1.15D-04 OVMax= 8.22D-04

 Cycle   5  Pass 1  IDiag  1:
 E= -158.458809478062     Delta-E=       -0.000014796409 Rises=F Damp=F
 DIIS: error= 3.33D-05 at cycle   5 NSaved=   5.
 NSaved= 5 IEnMin= 5 EnMin= -158.458809478062     IErMin= 5 ErrMin= 3.33D-05
 ErrMax= 3.33D-05 EMaxC= 1.00D-01 BMatC= 1.42D-07 BMatP= 1.44D-05
 IDIUse=1 WtCom= 1.00D+00 WtEn= 0.00D+00
 Coeff-Com:  0.107D-03-0.360D-02 0.211D-01 0.118D+00 0.864D+00
 Coeff:      0.107D-03-0.360D-02 0.211D-01 0.118D+00 0.864D+00
 Gap=     0.404 Goal=   None    Shift=    0.000
 RMSDP=7.92D-06 MaxDP=1.03D-04 DE=-1.48D-05 OVMax= 1.40D-04

 Cycle   6  Pass 1  IDiag  1:
 E= -158.458809590750     Delta-E=       -0.000000112689 Rises=F Damp=F
 DIIS: error= 2.70D-05 at cycle   6 NSaved=   6.
 NSaved= 6 IEnMin= 6 EnMin= -158.458809590750     IErMin= 6 ErrMin= 2.70D-05
 ErrMax= 2.70D-05 EMaxC= 1.00D-01 BMatC= 5.26D-08 BMatP= 1.42D-07
 IDIUse=1 WtCom= 1.00D+00 WtEn= 0.00D+00
 Coeff-Com:  0.272D-03-0.433D-02 0.114D-02 0.392D-01 0.461D+00 0.503D+00
 Coeff:      0.272D-03-0.433D-02 0.114D-02 0.392D-01 0.461D+00 0.503D+00
 Gap=     0.404 Goal=   None    Shift=    0.000
 RMSDP=2.71D-06 MaxDP=5.46D-05 DE=-1.13D-07 OVMax= 5.29D-05

 Cycle   7  Pass 1  IDiag  1:
 E= -158.458809640370     Delta-E=       -0.000000049620 Rises=F Damp=F
 DIIS: error= 2.29D-06 at cycle   7 NSaved=   7.
 NSaved= 7 IEnMin= 7 EnMin= -158.458809640370     IErMin= 7 ErrMin= 2.29D-06
[...]
     Eigenvalues ---    0.33497   0.33662   0.33663   0.34365   0.34365
     Eigenvalues ---    0.345831000.000001000.000001000.000001000.00000
     Eigenvalues --- 1000.000001000.000001000.000001000.000001000.00000
     Eigenvalues --- 1000.000001000.000001000.000001000.000001000.00000
     Eigenvalues --- 1000.000001000.000001000.000001000.000001000.00000
     Eigenvalues --- 1000.000001000.000001000.000001000.000001000.00000
     Eigenvalues --- 1000.000001000.000001000.000001000.00000
 Angle between quadratic step and forces=  73.87 degrees.
 Linear search not attempted -- first point.
 Iteration  1 RMS(Cart)=  0.00014206 RMS(Int)=  0.00000002
 Iteration  2 RMS(Cart)=  0.00000002 RMS(Int)=  0.00000000
 Variable       Old X    -DE/DX   Delta X   Delta X   Delta X     New X
                                 (Linear)    (Quad)   (Total)
    R1        2.07512   0.00000   0.00000  -0.00001  -0.00001   2.07511
    R2        2.07241   0.00000   0.00000   0.00000   0.00000   2.07241
    R3        2.07241   0.00000   0.00000  -0.00001  -0.00001   2.07240
    R4        2.90132  -0.00001   0.00000  -0.00004  -0.00004   2.90128
    R5        2.07975   0.00000   0.00000   0.00000   0.00000   2.07974
    R6        2.90133   0.00000   0.00000   0.00000   0.00000   2.90133
    R7        2.90134   0.00001   0.00000   0.00004   0.00004   2.90138
    R8        2.07241   0.00000   0.00000   0.00000   0.00000   2.07240
    R9        2.07241   0.00000   0.00000   0.00000   0.00000   2.07241
   R10        2.07513   0.00000   0.00000   0.00000   0.00000   2.07513
   R11        2.07241   0.00000   0.00000   0.00000   0.00000   2.07241
   R12        2.07241   0.00000   0.00000   0.00001   0.00001   2.07241
   R13        2.07513   0.00000   0.00000   0.00001   0.00001   2.07514
    A1        1.87837   0.00000   0.00000   0.00003   0.00003   1.87840
    A2        1.87837   0.00000   0.00000   0.00002   0.00002   1.87839
    A3        1.93453   0.00000   0.00000  -0.00002  -0.00002   1.93451
    A4        1.88195   0.00000   0.00000   0.00000   0.00000   1.88195
    A5        1.94387   0.00000   0.00000  -0.00001  -0.00001   1.94386
    A6        1.94387   0.00000   0.00000  -0.00002  -0.00002   1.94385
    A7        1.88113   0.00000   0.00000   0.00004   0.00004   1.88117
    A8        1.93918   0.00001   0.00000   0.00004   0.00004   1.93923
    A9        1.93919   0.00000   0.00000  -0.00002  -0.00002   1.93917
   A10        1.88114   0.00000   0.00000   0.00002   0.00002   1.88116
   A11        1.88113   0.00000   0.00000   0.00000   0.00000   1.88113
   A12        1.93919  -0.00001   0.00000  -0.00008  -0.00008   1.93911
   A13        1.94385   0.00000   0.00000   0.00005   0.00005   1.94390
   A14        1.94388   0.00000   0.00000  -0.00003  -0.00003   1.94385
   A15        1.93453   0.00000   0.00000  -0.00002  -0.00002   1.93451
   A16        1.88194   0.00000   0.00000  -0.00001  -0.00001   1.88194
   A17        1.87838   0.00000   0.00000   0.00002   0.00002   1.87839
   A18        1.87838   0.00000   0.00000  -0.00001  -0.00001   1.87837
   A19        1.94386   0.00000   0.00000   0.00003   0.00003   1.94388
   A20        1.94388   0.00000   0.00000   0.00001   0.00001   1.94388
   A21        1.93453   0.00000   0.00000   0.00000   0.00000   1.93453
   A22        1.88195   0.00000   0.00000  -0.00002  -0.00002   1.88193
   A23        1.87836   0.00000   0.00000  -0.00001  -0.00001   1.87835
   A24        1.87837   0.00000   0.00000   0.00000   0.00000   1.87837
    D1        3.14153   0.00000   0.00000   0.00012   0.00012  -3.14154
    D2        1.08420   0.00000   0.00000   0.00005   0.00005   1.08425
    D3       -1.08434   0.00000   0.00000   0.00014   0.00014  -1.08420
    D4        1.05075   0.00000   0.00000   0.00011   0.00011   1.05086
    D5       -1.00658   0.00000   0.00000   0.00004   0.00004  -1.00654
    D6        3.10806   0.00000   0.00000   0.00013   0.00013   3.10819
    D7       -1.05088   0.00000   0.00000   0.00012   0.00012  -1.05076
    D8       -3.10821   0.00000   0.00000   0.00005   0.00005  -3.10816
    D9        1.00644   0.00000   0.00000   0.00014   0.00014   1.00657
   D10        1.00646   0.00000   0.00000   0.00034   0.00034   1.00680
   D11        3.10808   0.00000   0.00000   0.00034   0.00034   3.10842
   D12       -1.08431   0.00000   0.00000   0.00030   0.00030  -1.08401
   D13       -1.05086   0.00000   0.00000   0.00025   0.00025  -1.05061
   D14        1.05076   0.00000   0.00000   0.00026   0.00026   1.05102
   D15        3.14155   0.00000   0.00000   0.00021   0.00021  -3.14142
   D16       -3.10818   0.00000   0.00000   0.00028   0.00028  -3.10790
   D17       -1.00657   0.00000   0.00000   0.00029   0.00029  -1.00628
   D18        1.08423   0.00000   0.00000   0.00025   0.00025   1.08448
   D19       -3.10808   0.00000   0.00000   0.00012   0.00012  -3.10796
   D20       -1.00645   0.00000   0.00000   0.00012   0.00012  -1.00633
   D21        1.08434   0.00000   0.00000   0.00012   0.00012   1.08446
   D22       -1.05076   0.00000   0.00000   0.00016   0.00016  -1.05060
   D23        1.05087   0.00000   0.00000   0.00016   0.00016   1.05103
   D24       -3.14153   0.00000   0.00000   0.00016   0.00016  -3.14137
   D25        1.00657   0.00000   0.00000   0.00014   0.00014   1.00671
   D26        3.10820   0.00000   0.00000   0.00014   0.00014   3.10834
   D27       -1.08420   0.00000   0.00000   0.00013   0.00013  -1.08406
         Item               Value     Threshold  Converged?
 Maximum Force            0.000010     0.000015     YES
 RMS     Force            0.000003     0.000010     YES
 Maximum Displacement     0.000446     0.000060     NO 
 RMS     Displacement     0.000142     0.000040     NO 
 Predicted change in Energy=-3.120257D-09
 GradGradGradGradGradGradGradGradGradGradGradGradGradGradGradGradGradGrad

 Leave Link  103 at Sun Oct  4 11:32:08 2015, MaxMem=  805306368 cpu:       0.0
 (Enter /share/apps/g09/l9999.exe)
 1\1\GINC-COMPUTE-0-2\Freq\RB3LYP\6-31G(d)\C4H10\HETANJIN\04-Oct-2015\0
 \\#P Geom=AllCheck Guess=TCheck SCRF=Check GenChk RB3LYP/6-31G(d) Freq
 \\using B3LYP/6-31G(d) to do opt and freq calc.\\0,1\C,0.6032706203,1.
 3317507631,0.0953566802\H,0.6279171665,1.3853056643,1.1918810604\H,0.0
 16811407,2.1852321389,-0.2656412046\H,1.6313980381,1.453862258,-0.2662
 085708\C,-0.0001646153,-0.0000391564,-0.3730341053\H,-0.0006915072,-0.
 0001826211,-1.473588775\C,-1.4548553745,-0.1434441485,0.0965494489\H,-
 2.0749590994,0.685963406,-0.2643414405\H,-1.9010792914,-1.0779944009,-
 0.2642652335\H,-1.5126410588,-0.1490921679,1.1931240624\C,0.8517756166
 ,-1.1882422959,0.0955618546\H,0.4433067751,-2.139889017,-0.2652801744\
 H,1.8839559318,-1.1072559335,-0.2660037511\H,0.8863913913,-1.235776489
 1,1.1920961486\\Version=EM64L-G09RevA.01\State=1-A\HF=-158.4588106\RMS
 D=6.287e-10\RMSF=4.543e-06\ZeroPoint=0.1323855\Thermal=0.13807\Dipole=
 -0.000019,-0.0000157,-0.0335472\DipoleDeriv=0.0636112,-0.0200309,-0.01
 27989,-0.0200439,0.028472,-0.0282982,0.0036333,0.0079912,0.1312878,0.0
 50631,-0.0114485,0.0083796,-0.0114233,0.0305418,0.0186858,-0.0165759,-
 0.0364371,-0.1675669,-0.0104092,0.1058225,-0.0469549,0.0722868,-0.1262
 718,0.0372891,-0.0443547,0.0501432,0.0299434,-0.1640911,-0.0626326,0.0
 591036,-0.0290929,0.0275143,-0.0106813,0.0670527,-0.0002335,0.0298686,
 0.1733067,0.0000185,-0.0000132,-0.0000568,0.1733228,-0.0000556,-0.0000
 134,0.0000071,0.1380919,-0.023298,-0.0000008,-0.00009,0.,-0.0232957,-0
 .0000208,-0.0000864,-0.000028,-0.2087324,0.0199117,-0.0052034,0.031000
 8,-0.0052107,0.0721882,0.0030643,-0.0086269,-0.0008405,0.131263,-0.060
 1569,0.0891912,-0.0202023,0.1227242,-0.0764974,0.0563985,-0.0332279,0.
 058095,0.0299396,-0.020193,-0.0779906,-0.0087928,-0.1115111,-0.116472,
 -0.059247,-0.021228,-0.0634528,0.0299503,0.025679,-0.0029756,-0.020528
 2,-0.0029686,0.0555211,-0.002034,0.0396699,0.0039009,-0.1675847,0.0545
 869,0.025235,-0.0180858,0.0252831,0.0374688,0.0252986,0.0051161,-0.007
 1074,0.1312873,0.0193079,-0.0768412,-0.0387528,-0.0433149,-0.1559823,-
 0.0457164,-0.0336977,-0.0578156,0.0299682,-0.1743634,0.0224286,0.05586
 85,-0.0110806,0.0377826,0.022015,0.0657153,0.0133291,0.0298651,0.04547
 72,0.0144278,0.0118664,0.0144086,0.0357077,-0.0166978,-0.0233765,0.032
 4483,-0.1675811\Polar=45.4125938,0.0000158,45.4128368,-0.002181,-0.000
 5706,40.7660169\PG=C01 [X(C4H10)]\NImag=0\\0.56586028,-0.03740194,0.50
 029829,-0.01368024,-0.03017573,0.56015000,-0.05008150,0.00029327,-0.00
 392658,0.04903605,0.00029657,-0.04952637,-0.00848147,0.00194095,0.0524
 2581,-0.00397624,-0.00858316,-0.30572538,0.00540497,0.01173884,0.33378
 517,-0.12677271,0.10943760,-0.04760615,-0.00041758,-0.00103845,0.00025
 552,0.13450933,0.10864286,-0.20311188,0.06773030,-0.00158346,0.0016436
 6,-0.00020657,-0.11900780,0.22232772,-0.04739480,0.06807995,-0.0793951
 9,-0.01892371,0.02615377,-0.01004097,0.05333772,-0.07341993,0.08124466
 ,-0.27791156,-0.02404903,0.08241772,0.00206628,0.00057939,-0.00033115,
 -0.01585756,-0.00190147,0.00612846,0.30203061,-0.02324007,-0.05184423,
 0.00891577,0.00111693,-0.00082001,0.00005345,0.02390315,0.00345010,-0.
 01017821,0.02803927,0.05468342,0.08254514,0.00930258,-0.07949177,0.032
 12997,0.00302641,-0.01005439,-0.01167531,-0.00210446,0.00382517,-0.090
 48510,-0.00835854,0.08134508,-0.09508327,-0.03567697,-0.01385253,-0.00
 118214,-0.00030661,-0.00039295,0.00686075,0.01669891,0.00688214,-0.012
 24610,-0.02746539,-0.01139082,0.47690550,-0.03569119,-0.15770339,-0.03
 057678,-0.00030024,-0.00175345,-0.00086664,-0.01070957,-0.02165865,-0.
 00911849,-0.00004341,-0.00256859,-0.00084787,0.00001522,0.47703034,-0.
 01333392,-0.02944057,-0.09298755,-0.01406093,-0.03104721,-0.01194611,0
 .00587867,0.01105791,0.00311942,0.00444603,0.01172567,0.00312765,0.000
 05457,0.00003571,0.59168029,-0.00058303,-0.00114256,-0.01424463,-0.000
 51904,-0.00266262,-0.00105317,0.00035508,0.00024486,0.00064954,0.00028
 848,0.00069729,-0.00013560,-0.04904246,-0.00000598,-0.00011963,0.05793
 474,-0.00115806,-0.00258438,-0.03143701,-0.00266330,-0.00518962,-0.002
 32600,0.00074971,0.00111516,0.00039260,0.00018995,0.00117915,0.0007476
 2,0.00000335,-0.04904061,-0.00003197,0.00000052,0.05793234,-0.00048354
 ,-0.00105361,-0.01097500,-0.00093917,-0.00207333,0.00099230,0.00033866
 ,-0.00042650,0.00053459,-0.00054481,-0.00002602,0.00053412,-0.00011895
 ,-0.00003817,-0.29553699,0.00012888,0.00003368,0.32231588,-0.01880972,
 -0.00800070,0.00345619,0.00085820,0.00134151,0.00066078,0.00115641,0.0
 0170354,0.00014283,0.00032093,-0.00101664,-0.00058942,-0.17286222,-0.0
 0926728,0.03221710,-0.00305082,-0.00029611,0.00114789,0.48428706,-0.03
 139164,-0.00544385,0.00924634,0.00061198,0.00113845,0.00059611,-0.0006
 5231,0.00084135,0.00041091,-0.00323540,-0.00555462,-0.00181002,-0.0092
 6509,-0.07983649,0.00317515,-0.00029326,-0.00008694,0.00011260,-0.0096
 9895,0.58185562,-0.00983775,-0.00029116,0.00397707,-0.00141605,-0.0004
 1864,0.00055414,0.00036445,0.00047284,-0.00000808,-0.00206921,-0.00257
 272,-0.00030765,0.03347680,0.00329673,-0.09304210,0.03434018,0.0033847
 4,-0.01100318,0.03305461,0.00325909,0.56009753,0.00119117,0.00169179,-
 0.00056356,-0.00006401,-0.00012073,-0.00000294,-0.00002662,-0.00125077
 ,0.00012370,0.00046456,-0.00011053,0.00031097,-0.01691671,0.02476184,-
 0.01235668,0.00133783,-0.00008828,0.00029590,-0.12892383,0.10936951,-0
 .04886983,0.14090257,-0.00066402,0.00080596,-0.00019053,-0.00001727,-0
 .00003005,-0.00003188,0.00008637,0.00035313,0.00013229,0.00009823,0.00
 021189,-0.00010241,-0.00264591,0.00208347,-0.00201006,0.00041721,0.000
 12751,-0.00045927,0.11017441,-0.20094756,0.06679789,-0.12118496,0.2159
 5040,-0.00043239,-0.00000564,-0.00000401,-0.00006722,0.00014463,-0.000
 03680,-0.00016794,-0.00007456,0.00023241,-0.00000560,-0.00024131,-0.00
 011785,0.00644195,-0.00946504,0.00313027,-0.00057982,-0.00049069,0.000
 53435,-0.04926594,0.06671985,-0.07938709,0.05241058,-0.07405191,0.0812
 3160,-0.00623829,0.00121123,0.00310457,0.00011164,0.00033182,-0.000061
 12,0.00023443,-0.00003260,0.00023009,-0.00087399,-0.00204227,-0.000560
 34,-0.01195136,-0.02756252,-0.01250889,0.00135662,0.00033482,0.0001993
 7,-0.08961969,-0.08721569,-0.03487017,0.00816212,0.01576897,0.00765930
 ,0.09734208,-0.00100774,0.00100822,0.00113303,0.00015218,0.00004349,-0
 .00006786,0.00017652,0.00044215,-0.00007272,-0.00031689,-0.00007375,-0
 .00029657,-0.00014623,-0.00286610,-0.00043998,-0.00017263,0.00011130,0
 .00050826,-0.08802204,-0.24025407,-0.07504902,-0.01005061,-0.02055818,
 -0.00905496,0.09758471,0.25949973,0.00190881,-0.00002492,-0.00031209,0
 .00032302,0.00024250,0.00042109,-0.00000335,-0.00032767,-0.00011777,0.
 00046221,0.00043741,0.00064573,0.00446703,0.01054157,0.00312895,-0.000
 66604,0.00036624,0.00053521,-0.03527917,-0.07504684,-0.07936882,0.0057
 4468,0.01037810,0.00381445,0.03693158,0.08285264,0.08121682,0.00170384
 ,0.00105482,0.00084798,-0.00005653,-0.00034489,-0.00084729,-0.00007596
 ,-0.00011657,-0.00011642,0.00019769,0.00030221,-0.00033343,-0.00180606
 ,-0.00007342,0.03390425,-0.00632410,-0.00069128,0.00227125,-0.04938413
 ,0.00007948,0.00908834,0.00061961,-0.00140290,-0.01869547,-0.00001728,
 0.00127893,-0.01319637,0.05321735,0.00032288,0.00029323,0.00120350,-0.
 00022580,0.00014711,-0.00026312,-0.00001252,-0.00001747,0.00010787,0.0
 0012277,-0.00004270,-0.00022796,-0.00007452,-0.00104478,0.00335417,-0.
 00069108,0.00061929,0.00022428,0.00008625,-0.05019966,0.00088986,-0.00
 192331,0.00060190,0.02631508,0.00179974,0.00123677,-0.02945929,0.00049
 256,0.04819207,-0.00077934,-0.00043576,0.00055574,0.00054105,0.0007361
 9,0.00055762,0.00002978,-0.00000902,-0.00003534,0.00008425,0.00003623,
 0.00042140,0.00092660,0.00009119,-0.01196037,0.00254708,0.00025136,0.0
 0098809,0.00920554,0.00089899,-0.30573222,0.00011028,-0.00030953,-0.01
 003433,0.00004569,0.00032381,-0.01003230,-0.01264105,-0.00125000,0.333
 78217,0.00828295,-0.00763613,0.00466705,0.00004964,-0.00010084,0.00001
 169,-0.00089247,-0.00430094,-0.00097276,0.00045583,-0.00126680,0.00021
 446,-0.11115197,0.04492135,-0.01884280,-0.00109924,0.00145325,-0.00067
 860,-0.02584591,0.02733073,-0.00971079,-0.00592265,-0.00037259,0.00186
 681,0.00137341,0.00078146,-0.00042439,0.00191551,-0.00000211,-0.000849
 40,0.54903202,0.01576882,-0.03251975,0.00867962,0.00063220,0.00195352,
 0.00088817,-0.00208047,-0.00434200,-0.00163653,0.00108635,0.00153644,0
 .00037979,0.04493148,-0.14159912,0.02625437,0.00144004,-0.00206156,0.0
 0093943,0.00393875,0.00159547,-0.00163016,-0.00259121,0.00069356,0.000
 39704,-0.00157370,0.00062163,-0.00007943,-0.00073383,0.00008483,0.0002
 7584,0.04714082,0.51703104,0.00627002,-0.00758981,0.00397310,0.0006188
 7,-0.00133738,0.00055240,-0.00056969,-0.00325054,-0.00030834,0.0001161
 9,0.00058544,-0.00000632,-0.01957792,0.02727513,-0.09302036,-0.0201093
 4,0.02804858,-0.01097900,0.00519813,-0.00839890,0.00398100,0.00326663,
 -0.00050507,-0.00031241,-0.00059507,0.00007784,-0.00000730,0.00107023,
 -0.00101595,0.00055231,-0.01931307,0.02694796,0.56016403,-0.00224632,0
 .00249797,-0.00119368,-0.00016665,-0.00009148,-0.00001032,0.00074796,0
 .00110638,0.00014688,0.00028045,0.00021694,-0.00020662,0.00692865,0.01
 642401,0.00792107,0.00057252,-0.00086223,0.00025024,0.00134517,0.00075
 084,0.00044887,0.00026963,-0.00021055,-0.00006728,-0.00024445,-0.00021
 202,-0.00018010,-0.00009794,-0.00000301,0.00002844,-0.08790764,-0.0865
 3992,-0.03343358,0.09226478,0.00471775,-0.00298529,0.00307695,0.000087
 40,0.00032243,-0.00009075,-0.00061984,-0.00169567,-0.00061725,0.000008
 03,0.00039629,0.00012520,-0.01101707,-0.02175691,-0.00969525,-0.000354
 07,0.00089355,0.00048711,-0.00160069,0.00065168,-0.00039287,-0.0000015
 2,0.00040674,0.00032081,0.00112825,0.00056960,0.00004032,0.00010156,0.
 00000354,0.00001301,-0.08572135,-0.24191161,-0.07570459,0.09314685,0.2
 6453917,-0.00127457,0.00141571,-0.00030898,-0.00003037,0.00040312,0.00
 042144,0.00002361,0.00063434,0.00064561,-0.00024443,-0.00021871,-0.000
 11749,0.00497018,0.01029417,0.00312131,0.00071567,-0.00025622,0.000533
 45,0.00021961,-0.00037111,-0.00000564,0.00021142,0.00011616,-0.0001177
 5,0.00014871,-0.00010579,0.00023078,-0.00009156,-0.00013091,-0.0000366
 6,-0.03316370,-0.07601646,-0.07936594,0.03794638,0.08240172,0.08120987
 ,0.00046573,-0.00130667,0.00023052,0.00002452,0.00005786,-0.00002320,0
 .00032776,-0.00002169,-0.00028253,0.00076300,0.00079578,0.00001577,-0.
 01713787,-0.00284631,0.00665089,0.00049101,-0.00032675,-0.00054051,-0.
 00071768,0.00419857,-0.00253276,-0.00129552,0.00007369,0.00053871,0.00
 045251,-0.00005045,-0.00005249,0.00026983,-0.00006072,0.00008965,-0.27
 834890,-0.02104021,0.08257089,-0.01090613,-0.00095882,0.00402330,0.303
 33173,0.00105133,0.00153266,-0.00055568,-0.00004224,-0.00012147,-0.000
 02184,-0.00023021,0.00034840,0.00016646,-0.00054637,-0.00043728,0.0001
 8080,0.02455833,0.00232358,-0.01063270,-0.00083253,0.00097543,-0.00007
 998,0.00197974,-0.00451563,0.00211976,0.00179901,0.00034768,-0.0003385
 9,0.00015881,0.00022404,0.00023555,-0.00024008,-0.00011476,-0.00001907
 ,-0.02184609,-0.05140400,0.00735655,-0.02676394,-0.00149812,0.01117937
 ,0.02145089,0.05337602,0.00028160,-0.00032527,-0.00000902,0.00015126,0
 .00004711,-0.00003393,-0.00017818,-0.00016316,-0.00011744,0.00005161,-
 0.00017787,0.00023450,-0.01134037,-0.00140452,0.00312947,0.00001532,-0
 .00075946,0.00053505,-0.00093169,0.00166073,-0.00030863,-0.00060780,0.
 00018148,0.00064586,0.00028508,0.00016104,-0.00011781,-0.00037150,0.00
 015854,0.00042150,0.08277483,0.00699997,-0.07949292,-0.01185627,-0.000
 21602,0.00382348,-0.09037640,-0.00947162,0.08134658,0.00022243,-0.0009
 7268,0.00034334,0.00034113,0.00011751,0.00036540,-0.00014883,-0.000181
 27,0.00004887,0.00002138,0.00007013,0.00016033,-0.00131475,0.00037751,
 -0.01984973,-0.00171761,0.00335440,-0.00132658,0.00124622,-0.00058878,
 -0.00146668,0.00020184,-0.00012070,0.00036431,-0.00008775,0.00000482,-
 0.00003542,-0.00016183,0.00016886,0.00066144,-0.04994060,-0.00037912,-
 0.00551228,-0.00084001,0.00108352,-0.01345426,0.00228003,-0.00049663,0
 .03210249,0.04989835,-0.00024555,0.00178078,0.00143168,-0.00000261,-0.
 00023349,-0.00081874,-0.00000219,0.00030399,-0.00040074,-0.00003143,-0
 .00011613,-0.00001458,0.00039050,-0.00160930,0.02769477,0.00335481,-0.
 00399063,0.00185152,-0.00132176,0.00075626,0.00013366,-0.00030024,-0.0
 0004644,-0.00017470,0.00010841,-0.00000484,-0.00015619,0.00029341,0.00
 024061,-0.00060323,-0.00038076,-0.04967844,0.00751073,0.00054018,0.002
 06461,-0.02934537,0.00003484,-0.00103656,0.00330906,-0.00243758,0.0515
 6957,0.00018722,-0.00087260,0.00055310,0.00019488,0.00086546,0.0005534
 3,-0.00002780,0.00008702,0.00042128,-0.00002617,0.00001942,-0.00003816
 ,-0.00054574,0.00078301,-0.01194387,-0.00148842,0.00207653,0.00099113,
 0.00076354,-0.00045290,0.00055366,-0.00007335,0.00005474,0.00042130,-0
 .00000879,0.00003027,-0.00003695,-0.00088895,0.00009394,0.00055239,-0.
 00557933,0.00760038,-0.30573024,0.00020598,0.00025160,-0.01003349,-0.0
 0031183,-0.00011902,-0.01005670,0.00759878,-0.01041786,0.33379311\\-0.
 00000503,0.00000458,-0.00000510,-0.00000003,0.00000441,0.00000136,0.00
 000014,0.00000104,0.00000034,0.00000245,0.00000216,-0.00000002,0.00000
 031,-0.00002495,0.00000584,0.00000072,-0.00000024,0.00000003,-0.000000
 56,-0.00000226,-0.00000027,0.00000147,0.00000220,-0.00000031,-0.000000
 48,0.00000117,-0.00000005,-0.00000127,0.00000084,-0.00000109,0.0000054
 9,0.00000494,-0.00000158,-0.00000202,0.00000157,0.00000100,-0.00000144
 ,0.00000152,0.00000194,0.00000024,0.00000303,-0.00000208\\\@


 SLITHERY-DITHERY
 FRIEDRICH A. KEKULE
 DREAMT ON A BUS OF THINGS
 FREUD WOULD THINK KEEN.
 MOST OF THE TIME THEY WERE
 HERPETOLOGICAL
 BITING THEIR TAILS IN THE
 SHAPE OF BENZENE.
 Job cpu time:  0 days  0 hours  6 minutes 31.3 seconds.
 File lengths (MBytes):  RWF=     17 Int=      0 D2E=      0 Chk=      2 Scr=      1
 Normal termination of Gaussian 09 at Sun Oct  4 11:32:08 2015.
