 Entering Gaussian System, Link 0=/share/apps/g09/g09
 Input=C5H12_1_2_opt_B3L.gjf
 Output=C5H12_1_2_opt_B3L.log
 Initial command:
 /share/apps/g09/l1.exe /state/partition1/Gau-3811.inp -scrdir=/state/partition1/
 Entering Link 1 = /share/apps/g09/l1.exe PID=      3830.
  
 Copyright (c) 1988,1990,1992,1993,1995,1998,2003,2009, Gaussian, Inc.
                  All Rights Reserved.
  
 This is part of the Gaussian(R) 09 program.  It is based on
 the Gaussian(R) 03 system (copyright 2003, Gaussian, Inc.),
 the Gaussian(R) 98 system (copyright 1998, Gaussian, Inc.),
 the Gaussian(R) 94 system (copyright 1995, Gaussian, Inc.),
 the Gaussian 92(TM) system (copyright 1992, Gaussian, Inc.),
 the Gaussian 90(TM) system (copyright 1990, Gaussian, Inc.),
 the Gaussian 88(TM) system (copyright 1988, Gaussian, Inc.),
 the Gaussian 86(TM) system (copyright 1986, Carnegie Mellon
 University), and the Gaussian 82(TM) system (copyright 1983,
 Carnegie Mellon University). Gaussian is a federally registered
 trademark of Gaussian, Inc.
  
 This software contains proprietary and confidential information,
 including trade secrets, belonging to Gaussian, Inc.
  
 This software is provided under written license and may be
 used, copied, transmitted, or stored only in accord with that
 written license.
  
 The following legend is applicable only to US Government
 contracts under FAR:
  
                    RESTRICTED RIGHTS LEGEND
  
 Use, reproduction and disclosure by the US Government is
 subject to restrictions as set forth in subparagraphs (a)
 and (c) of the Commercial Computer Software - Restricted
 Rights clause in FAR 52.227-19.
  
 Gaussian, Inc.
 340 Quinnipiac St., Bldg. 40, Wallingford CT 06492
  
  
 ---------------------------------------------------------------
 Warning -- This program may not be used in any manner that
 competes with the business of Gaussian, Inc. or will provide
 assistance to any competitor of Gaussian, Inc.  The licensee
 of this program is prohibited from giving any competitor of
 Gaussian, Inc. access to this program.  By using this program,
 the user acknowledges that Gaussian, Inc. is engaged in the
 business of creating and licensing software in the field of
 computational chemistry and represents and warrants to the
 licensee that it is not a competitor of Gaussian, Inc. and that
 it will not use this program in any manner prohibited above.
 ---------------------------------------------------------------
  

 Cite this work as:
 Gaussian 09, Revision A.01,
 M. J. Frisch, G. W. Trucks, H. B. Schlegel, G. E. Scuseria, 
 M. A. Robb, J. R. Cheeseman, G. Scalmani, V. Barone, B. Mennucci, 
 G. A. Petersson, H. Nakatsuji, M. Caricato, X. Li, H. P. Hratchian, 
 A. F. Izmaylov, J. Bloino, G. Zheng, J. L. Sonnenberg, M. Hada, 
 M. Ehara, K. Toyota, R. Fukuda, J. Hasegawa, M. Ishida, T. Nakajima, 
 Y. Honda, O. Kitao, H. Nakai, T. Vreven, J. A. Montgomery, Jr., 
 J. E. Peralta, F. Ogliaro, M. Bearpark, J. J. Heyd, E. Brothers, 
 K. N. Kudin, V. N. Staroverov, R. Kobayashi, J. Normand, 
 K. Raghavachari, A. Rendell, J. C. Burant, S. S. Iyengar, J. Tomasi, 
 M. Cossi, N. Rega, J. M. Millam, M. Klene, J. E. Knox, J. B. Cross, 
 V. Bakken, C. Adamo, J. Jaramillo, R. Gomperts, R. E. Stratmann, 
 O. Yazyev, A. J. Austin, R. Cammi, C. Pomelli, J. W. Ochterski, 
 R. L. Martin, K. Morokuma, V. G. Zakrzewski, G. A. Voth, 
 P. Salvador, J. J. Dannenberg, S. Dapprich, A. D. Daniels, 
 O. Farkas, J. B. Foresman, J. V. Ortiz, J. Cioslowski, 
 and D. J. Fox, Gaussian, Inc., Wallingford CT, 2009.
 
 ******************************************
 Gaussian 09:  EM64L-G09RevA.01  8-May-2009
                 4-Oct-2015 
 ******************************************
 %mem=6GB
 %nprocshared=4
 Will use up to    4 processors via shared memory.
 ----------------------------------------------
 #p B3LYP/6-31G(d) opt=tight int=ultrafine freq
 ----------------------------------------------
 1/7=10,14=-1,18=20,19=15,26=3,38=1/1,3;
 2/9=110,12=2,17=6,18=5,40=1/2;
 3/5=1,6=6,7=1,11=2,16=1,25=1,30=1,71=1,74=-5,75=-5/1,2,3;
 4//1;
 5/5=2,38=5/2;
 6/7=2,8=2,9=2,10=2,28=1/1;
 7//1,2,3,16;
 1/7=10,14=-1,18=20,19=15/3(2);
 2/9=110/2;
 99//99;
 2/9=110/2;
 3/5=1,6=6,7=1,11=2,16=1,25=1,30=1,71=1,74=-5,75=-5/1,2,3;
 4/5=5,16=3/1;
 5/5=2,38=5/2;
 7//1,2,3,16;
 1/7=10,14=-1,18=20,19=15/3(-5);
 2/9=110/2;
 6/7=2,8=2,9=2,10=2,19=2,28=1/1;
 99/9=1/99;
 Leave Link    1 at Sun Oct  4 11:28:17 2015, MaxMem=  805306368 cpu:       0.1
 (Enter /share/apps/g09/l101.exe)
 ---------------------------------------------
 using B3LYP/6-31G(d) to do opt and freq calc.
 ---------------------------------------------
 Symbolic Z-matrix:
 Charge =  0 Multiplicity = 1
 C                    -2.56079   0.32417   0. 
 H                    -2.60628   0.97153  -0.88468 
 H                    -2.60629   0.97152   0.88469 
 H                    -3.45981  -0.30317  -0.00001 
 C                    -1.28434  -0.52333  0. 
 H                    -1.28412  -1.18514   0.87801 
 H                    -1.28412  -1.18513  -0.87802 
 C                     0.        0.31558   0. 
 H                    0.         0.97863   0.87846 
 H                     0.        0.97863  -0.87846 
 C                     1.28434  -0.52333   0. 
 H                     1.28412  -1.18513  -0.87801 
 H                     1.28412  -1.18513   0.87802 
 C                     2.56079   0.32417   0. 
 H                     2.60629   0.97152   0.88469 
 H                     3.45981  -0.30317   0. 
 H                     2.60629   0.97152  -0.88469 
 
 NAtoms=     17 NQM=     17 NQMF=      0 NMic=      0 NMicF=      0 NTot=     17.
                    Isotopes and Nuclear Properties:
 (Nuclear quadrupole moments (NQMom) in fm**2, nuclear magnetic moments (NMagM)
  in nuclear magnetons)

  Atom         1           2           3           4           5           6           7           8           9          10
 IAtWgt=          12           1           1           1          12           1           1          12           1           1
 AtmWgt=  12.0000000   1.0078250   1.0078250   1.0078250  12.0000000   1.0078250   1.0078250  12.0000000   1.0078250   1.0078250
 NucSpn=           0           1           1           1           0           1           1           0           1           1
 AtZEff=   0.0000000   0.0000000   0.0000000   0.0000000   0.0000000   0.0000000   0.0000000   0.0000000   0.0000000   0.0000000
 NQMom=    0.0000000   0.0000000   0.0000000   0.0000000   0.0000000   0.0000000   0.0000000   0.0000000   0.0000000   0.0000000
 NMagM=    0.0000000   2.7928460   2.7928460   2.7928460   0.0000000   2.7928460   2.7928460   0.0000000   2.7928460   2.7928460

  Atom        11          12          13          14          15          16          17
 IAtWgt=          12           1           1          12           1           1           1
 AtmWgt=  12.0000000   1.0078250   1.0078250  12.0000000   1.0078250   1.0078250   1.0078250
 NucSpn=           0           1           1           0           1           1           1
 AtZEff=   0.0000000   0.0000000   0.0000000   0.0000000   0.0000000   0.0000000   0.0000000
 NQMom=    0.0000000   0.0000000   0.0000000   0.0000000   0.0000000   0.0000000   0.0000000
 NMagM=    0.0000000   2.7928460   2.7928460   0.0000000   2.7928460   2.7928460   2.7928460
 Leave Link  101 at Sun Oct  4 11:28:17 2015, MaxMem=  805306368 cpu:       0.4
 (Enter /share/apps/g09/l103.exe)

 GradGradGradGradGradGradGradGradGradGradGradGradGradGradGradGradGradGrad
 Berny optimization.
 Initialization pass.
                           ----------------------------
                           !    Initial Parameters    !
                           ! (Angstroms and Degrees)  !
 --------------------------                            --------------------------
 ! Name  Definition              Value          Derivative Info.                !
 --------------------------------------------------------------------------------
 ! R1    R(1,2)                  1.0972         estimate D2E/DX2                !
 ! R2    R(1,3)                  1.0972         estimate D2E/DX2                !
 ! R3    R(1,4)                  1.0963         estimate D2E/DX2                !
 ! R4    R(1,5)                  1.5322         estimate D2E/DX2                !
 ! R5    R(5,6)                  1.0995         estimate D2E/DX2                !
 ! R6    R(5,7)                  1.0995         estimate D2E/DX2                !
 ! R7    R(5,8)                  1.534          estimate D2E/DX2                !
 ! R8    R(8,9)                  1.1006         estimate D2E/DX2                !
 ! R9    R(8,10)                 1.1006         estimate D2E/DX2                !
 ! R10   R(8,11)                 1.534          estimate D2E/DX2                !
 ! R11   R(11,12)                1.0995         estimate D2E/DX2                !
 ! R12   R(11,13)                1.0995         estimate D2E/DX2                !
 ! R13   R(11,14)                1.5322         estimate D2E/DX2                !
 ! R14   R(14,15)                1.0972         estimate D2E/DX2                !
 ! R15   R(14,16)                1.0963         estimate D2E/DX2                !
 ! R16   R(14,17)                1.0972         estimate D2E/DX2                !
 ! A1    A(2,1,3)              107.477          estimate D2E/DX2                !
 ! A2    A(2,1,4)              107.6758         estimate D2E/DX2                !
 ! A3    A(2,1,5)              111.1555         estimate D2E/DX2                !
 ! A4    A(3,1,4)              107.6758         estimate D2E/DX2                !
 ! A5    A(3,1,5)              111.1555         estimate D2E/DX2                !
 ! A6    A(4,1,5)              111.5108         estimate D2E/DX2                !
 ! A7    A(1,5,6)              109.4575         estimate D2E/DX2                !
 ! A8    A(1,5,7)              109.4574         estimate D2E/DX2                !
 ! A9    A(1,5,8)              113.2662         estimate D2E/DX2                !
 ! A10   A(6,5,7)              105.9855         estimate D2E/DX2                !
 ! A11   A(6,5,8)              109.2077         estimate D2E/DX2                !
 ! A12   A(7,5,8)              109.2077         estimate D2E/DX2                !
 ! A13   A(5,8,9)              109.2355         estimate D2E/DX2                !
 ! A14   A(5,8,10)             109.2355         estimate D2E/DX2                !
 ! A15   A(5,8,11)             113.6964         estimate D2E/DX2                !
 ! A16   A(9,8,10)             105.9099         estimate D2E/DX2                !
 ! A17   A(9,8,11)             109.2355         estimate D2E/DX2                !
 ! A18   A(10,8,11)            109.2355         estimate D2E/DX2                !
 ! A19   A(8,11,12)            109.2077         estimate D2E/DX2                !
 ! A20   A(8,11,13)            109.2077         estimate D2E/DX2                !
 ! A21   A(8,11,14)            113.2662         estimate D2E/DX2                !
 ! A22   A(12,11,13)           105.9855         estimate D2E/DX2                !
 ! A23   A(12,11,14)           109.4574         estimate D2E/DX2                !
 ! A24   A(13,11,14)           109.4574         estimate D2E/DX2                !
 ! A25   A(11,14,15)           111.1556         estimate D2E/DX2                !
 ! A26   A(11,14,16)           111.5108         estimate D2E/DX2                !
 ! A27   A(11,14,17)           111.1555         estimate D2E/DX2                !
 ! A28   A(15,14,16)           107.6758         estimate D2E/DX2                !
 ! A29   A(15,14,17)           107.477          estimate D2E/DX2                !
 ! A30   A(16,14,17)           107.6757         estimate D2E/DX2                !
 ! D1    D(2,1,5,6)           -178.0429         estimate D2E/DX2                !
 ! D2    D(2,1,5,7)            -62.2847         estimate D2E/DX2                !
 ! D3    D(2,1,5,8)             59.8362         estimate D2E/DX2                !
 ! D4    D(3,1,5,6)             62.2839         estimate D2E/DX2                !
 ! D5    D(3,1,5,7)            178.0421         estimate D2E/DX2                !
 ! D6    D(3,1,5,8)            -59.837          estimate D2E/DX2                !
 ! D7    D(4,1,5,6)            -57.8795         estimate D2E/DX2                !
 ! D8    D(4,1,5,7)             57.8787         estimate D2E/DX2                !
 ! D9    D(4,1,5,8)            179.9996         estimate D2E/DX2                !
 ! D10   D(1,5,8,9)             57.71           estimate D2E/DX2                !
 ! D11   D(1,5,8,10)           -57.7102         estimate D2E/DX2                !
 ! D12   D(1,5,8,11)           179.9999         estimate D2E/DX2                !
 ! D13   D(6,5,8,9)            -64.5501         estimate D2E/DX2                !
 ! D14   D(6,5,8,10)          -179.9703         estimate D2E/DX2                !
 ! D15   D(6,5,8,11)            57.7398         estimate D2E/DX2                !
 ! D16   D(7,5,8,9)            179.9701         estimate D2E/DX2                !
 ! D17   D(7,5,8,10)            64.5498         estimate D2E/DX2                !
 ! D18   D(7,5,8,11)           -57.74           estimate D2E/DX2                !
 ! D19   D(5,8,11,12)           57.7398         estimate D2E/DX2                !
 ! D20   D(5,8,11,13)          -57.74           estimate D2E/DX2                !
 ! D21   D(5,8,11,14)          179.9999         estimate D2E/DX2                !
 ! D22   D(9,8,11,12)         -179.9703         estimate D2E/DX2                !
 ! D23   D(9,8,11,13)           64.5499         estimate D2E/DX2                !
 ! D24   D(9,8,11,14)          -57.7102         estimate D2E/DX2                !
 ! D25   D(10,8,11,12)         -64.5501         estimate D2E/DX2                !
 ! D26   D(10,8,11,13)         179.9701         estimate D2E/DX2                !
 ! D27   D(10,8,11,14)          57.71           estimate D2E/DX2                !
 ! D28   D(8,11,14,15)          59.8365         estimate D2E/DX2                !
 ! D29   D(8,11,14,16)         180.0            estimate D2E/DX2                !
 ! D30   D(8,11,14,17)         -59.8367         estimate D2E/DX2                !
 ! D31   D(12,11,14,15)       -178.0426         estimate D2E/DX2                !
 ! D32   D(12,11,14,16)        -57.8791         estimate D2E/DX2                !
 ! D33   D(12,11,14,17)         62.2842         estimate D2E/DX2                !
 ! D34   D(13,11,14,15)        -62.2844         estimate D2E/DX2                !
 ! D35   D(13,11,14,16)         57.8791         estimate D2E/DX2                !
 ! D36   D(13,11,14,17)        178.0424         estimate D2E/DX2                !
 --------------------------------------------------------------------------------
 Trust Radius=3.00D-01 FncErr=1.00D-07 GrdErr=1.00D-06
 Number of steps in this run=  92 maximum allowed number of steps= 102.
 GradGradGradGradGradGradGradGradGradGradGradGradGradGradGradGradGradGrad

 Leave Link  103 at Sun Oct  4 11:28:19 2015, MaxMem=  805306368 cpu:       0.0
 (Enter /share/apps/g09/l202.exe)
                          Input orientation:                          
 ---------------------------------------------------------------------
 Center     Atomic      Atomic             Coordinates (Angstroms)
 Number     Number       Type             X           Y           Z
 ---------------------------------------------------------------------
      1          6           0       -2.560789    0.324166    0.000000
      2          1           0       -2.606282    0.971528   -0.884682
      3          1           0       -2.606289    0.971516    0.884692
      4          1           0       -3.459813   -0.303170   -0.000008
      5          6           0       -1.284338   -0.523327   -0.000001
      6          1           0       -1.284115   -1.185135    0.878013
      7          1           0       -1.284115   -1.185131   -0.878017
      8          6           0        0.000000    0.315578    0.000000
      9          1           0       -0.000001    0.978627    0.878458
     10          1           0        0.000001    0.978627   -0.878458
     11          6           0        1.284338   -0.523327    0.000001
     12          1           0        1.284115   -1.185134   -0.878013
     13          1           0        1.284115   -1.185132    0.878017
     14          6           0        2.560789    0.324166    0.000000
     15          1           0        2.606285    0.971524    0.884685
     16          1           0        3.459813   -0.303170    0.000001
     17          1           0        2.606286    0.971520   -0.884689
 ---------------------------------------------------------------------
                    Distance matrix (angstroms):
                    1          2          3          4          5
     1  C    0.000000
     2  H    1.097182   0.000000
     3  H    1.097184   1.769374   0.000000
     4  H    1.096264   1.770881   1.770882   0.000000
     5  C    1.532179   2.182839   2.182840   2.186587   0.000000
     6  H    2.163052   3.083247   2.529690   2.506481   1.099499
     7  H    2.163051   2.529693   3.083247   2.506475   1.099498
     8  C    2.560803   2.829424   2.829430   3.514706   1.534042
     9  H    2.785255   3.146651   2.606305   3.792757   2.162655
    10  H    2.785256   2.606300   3.146664   3.792755   2.162656
    11  C    3.937416   4.260772   4.260776   4.749257   2.568676
    12  H    4.222817   4.448193   4.784716   4.904448   2.793894
    13  H    4.222817   4.784713   4.448193   4.904451   2.793896
    14  C    5.121578   5.282079   5.282086   6.053197   3.937416
    15  H    5.282082   5.504681   5.212574   6.261395   4.260774
    16  H    6.053197   6.261392   6.261397   6.919626   4.749257
    17  H    5.282083   5.212568   5.504693   6.261394   4.260774
                    6          7          8          9         10
     6  H    0.000000
     7  H    1.756030   0.000000
     8  C    2.161480   2.161479   0.000000
     9  H    2.516111   3.068550   1.100601   0.000000
    10  H    3.068552   2.516109   1.100601   1.756916   0.000000
    11  C    2.793894   2.793895   1.534042   2.162656   2.162655
    12  H    3.111179   2.568230   2.161480   3.068551   2.516110
    13  H    2.568230   3.111183   2.161480   2.516110   3.068551
    14  C    4.222817   4.222816   2.560803   2.785256   2.785255
    15  H    4.448195   4.784714   2.829426   2.606303   3.146655
    16  H    4.904449   4.904449   3.514706   3.792757   3.792755
    17  H    4.784715   4.448192   2.829428   3.146660   2.606302
                   11         12         13         14         15
    11  C    0.000000
    12  H    1.099499   0.000000
    13  H    1.099499   1.756030   0.000000
    14  C    1.532179   2.163051   2.163051   0.000000
    15  H    2.182840   3.083247   2.529692   1.097183   0.000000
    16  H    2.186587   2.506478   2.506478   1.096264   1.770881
    17  H    2.182840   2.529691   3.083248   1.097184   1.769374
                   16         17
    16  H    0.000000
    17  H    1.770881   0.000000
 Stoichiometry    C5H12
 Framework group  C1[X(C5H12)]
 Deg. of freedom    45
 Full point group                 C1      NOp   1
 Largest Abelian subgroup         C1      NOp   1
 Largest concise Abelian subgroup C1      NOp   1
                         Standard orientation:                         
 ---------------------------------------------------------------------
 Center     Atomic      Atomic             Coordinates (Angstroms)
 Number     Number       Type             X           Y           Z
 ---------------------------------------------------------------------
      1          6           0       -2.560789    0.324166    0.000000
      2          1           0       -2.606282    0.971528   -0.884682
      3          1           0       -2.606289    0.971516    0.884692
      4          1           0       -3.459813   -0.303170   -0.000008
      5          6           0       -1.284338   -0.523327    0.000000
      6          1           0       -1.284115   -1.185135    0.878013
      7          1           0       -1.284115   -1.185131   -0.878017
      8          6           0        0.000000    0.315578    0.000000
      9          1           0        0.000000    0.978627    0.878458
     10          1           0        0.000001    0.978627   -0.878458
     11          6           0        1.284338   -0.523327    0.000001
     12          1           0        1.284115   -1.185134   -0.878013
     13          1           0        1.284115   -1.185132    0.878017
     14          6           0        2.560789    0.324166    0.000000
     15          1           0        2.606285    0.971524    0.884685
     16          1           0        3.459813   -0.303170    0.000001
     17          1           0        2.606286    0.971520   -0.884689
 ---------------------------------------------------------------------
 Rotational constants (GHZ):     17.0231280      1.9219642      1.8244716
 Leave Link  202 at Sun Oct  4 11:28:20 2015, MaxMem=  805306368 cpu:       0.0
 (Enter /share/apps/g09/l301.exe)
 Standard basis: 6-31G(d) (6D, 7F)
 Ernie: Thresh=  0.10000D-02 Tol=  0.10000D-05 Strict=F.
 There are    99 symmetry adapted basis functions of A   symmetry.
 Integral buffers will be    131072 words long.
 Raffenetti 2 integral format.
 Two-electron integral symmetry is turned on.
    99 basis functions,   188 primitive gaussians,    99 cartesian basis functions
    21 alpha electrons       21 beta electrons
       nuclear repulsion energy       184.1562298472 Hartrees.
 IExCor=  402 DFT=T Ex+Corr=B3LYP ExCW=0 ScaHFX=  0.200000
 ScaDFX=  0.800000  0.720000  1.000000  0.810000 ScalE2=  1.000000  1.000000
 IRadAn=      5 IRanWt=     -1 IRanGd=            0 ICorTp=0
 NAtoms=   17 NActive=   17 NUniq=   17 SFac= 7.50D-01 NAtFMM=   80 NAOKFM=F Big=F
 Leave Link  301 at Sun Oct  4 11:28:21 2015, MaxMem=  805306368 cpu:       0.2
 (Enter /share/apps/g09/l302.exe)
 NPDir=0 NMtPBC=     1 NCelOv=     1 NCel=       1 NClECP=     1 NCelD=      1
         NCelK=      1 NCelE2=     1 NClLst=     1 CellRange=     0.0.
 One-electron integrals computed using PRISM.
 NBasis=    99 RedAO= T  NBF=    99
 NBsUse=    99 1.00D-06 NBFU=    99
 Precomputing XC quadrature grid using
 IXCGrd= 2 IRadAn=           5 IRanWt=          -1 IRanGd=           0 AccXCQ= 1.00D-10.
 NRdTot=    1402 NPtTot=      375116 NUsed=      385164 NTot=      385196
 NSgBfM=    99    99    99    99    99 NAtAll=    17    17.
 Leave Link  302 at Sun Oct  4 11:28:22 2015, MaxMem=  805306368 cpu:       1.3
 (Enter /share/apps/g09/l303.exe)
 DipDrv:  MaxL=1.
 Leave Link  303 at Sun Oct  4 11:28:24 2015, MaxMem=  805306368 cpu:       0.1
 (Enter /share/apps/g09/l401.exe)
 Harris functional with IExCor=  402 diagonalized for initial guess.
 ExpMin= 1.61D-01 ExpMax= 3.05D+03 ExpMxC= 4.57D+02 IAcc=3 IRadAn=         5 AccDes= 0.00D+00
 HarFok:  IExCor=  402 AccDes= 0.00D+00 IRadAn=         5 IDoV= 1
 ScaDFX=  1.000000  1.000000  1.000000  1.000000
 FoFCou: FMM=F IPFlag=           0 FMFlag=      100000 FMFlg1=           0
         NFxFlg=           0 DoJE=T BraDBF=F KetDBF=T FulRan=T
         Omega=  0.000000  0.000000  1.000000  0.000000  0.000000 ICntrl=     500 IOpCl=  0
         NMat0=    1 NMatS0=    1 NMatT0=    0 NMatD0=    1 NMtDS0=    0 NMtDT0=    0
         I1Cent=           4 NGrid=           0.
 Petite list used in FoFCou.
 Harris En= -197.859871042095    
 Initial guess orbital symmetries:
       Occupied  (A) (A) (A) (A) (A) (A) (A) (A) (A) (A) (A) (A)
                 (A) (A) (A) (A) (A) (A) (A) (A) (A)
       Virtual   (A) (A) (A) (A) (A) (A) (A) (A) (A) (A) (A) (A)
                 (A) (A) (A) (A) (A) (A) (A) (A) (A) (A) (A) (A)
                 (A) (A) (A) (A) (A) (A) (A) (A) (A) (A) (A) (A)
                 (A) (A) (A) (A) (A) (A) (A) (A) (A) (A) (A) (A)
                 (A) (A) (A) (A) (A) (A) (A) (A) (A) (A) (A) (A)
                 (A) (A) (A) (A) (A) (A) (A) (A) (A) (A) (A) (A)
                 (A) (A) (A) (A) (A) (A)
 The electronic state of the initial guess is 1-A.
 Leave Link  401 at Sun Oct  4 11:28:27 2015, MaxMem=  805306368 cpu:       7.4
 (Enter /share/apps/g09/l502.exe)
 Closed shell SCF:
 Requested convergence on RMS density matrix=1.00D-08 within 128 cycles.
 Requested convergence on MAX density matrix=1.00D-06.
 Requested convergence on             energy=1.00D-06.
 No special actions if energy rises.
 Using DIIS extrapolation, IDIIS=  1040.
 Integral symmetry usage will be decided dynamically.
       384998 words used for storage of precomputed grid.
 Keep R1 ints in memory in canonical form, NReq=13608457.
 IEnd=      433912 IEndB=      433912 NGot=   805306368 MDV=   792645244
 LenX=   792645244 LenY=   792635002
 Symmetry not used in FoFDir.
 MinBra= 0 MaxBra= 2 Meth= 1.
 IRaf=       0 NMat=   1 IRICut=       1 DoRegI=T DoRafI=F ISym2E= 0 JSym2E=0.
 Integral accuracy reduced to 1.0D-05 until final iterations.

 Cycle   1  Pass 0  IDiag  1:
 E= -197.523164019531    
 DIIS: error= 6.04D-02 at cycle   1 NSaved=   1.
 NSaved= 1 IEnMin= 1 EnMin= -197.523164019531     IErMin= 1 ErrMin= 6.04D-02
 ErrMax= 6.04D-02 EMaxC= 1.00D-01 BMatC= 2.18D-01 BMatP= 2.18D-01
 IDIUse=3 WtCom= 3.96D-01 WtEn= 6.04D-01
 Coeff-Com:  0.100D+01
 Coeff-En:   0.100D+01
 Coeff:      0.100D+01
 Gap=     0.368 Goal=   None    Shift=    0.000
 GapD=    0.368 DampG=1.000 DampE=0.500 DampFc=0.5000 IDamp=-1.
 Damping current iteration by 5.00D-01
 RMSDP=1.09D-02 MaxDP=1.42D-01              OVMax= 1.90D-01

 Cycle   2  Pass 0  IDiag  1:
 E= -197.634362675820     Delta-E=       -0.111198656289 Rises=F Damp=T
 DIIS: error= 1.01D-02 at cycle   2 NSaved=   2.
 NSaved= 2 IEnMin= 2 EnMin= -197.634362675820     IErMin= 2 ErrMin= 1.01D-02
 ErrMax= 1.01D-02 EMaxC= 1.00D-01 BMatC= 7.64D-03 BMatP= 2.18D-01
 IDIUse=3 WtCom= 8.99D-01 WtEn= 1.01D-01
 Coeff-Com:  0.786D-01 0.921D+00
 Coeff-En:   0.125D+00 0.875D+00
 Coeff:      0.833D-01 0.917D+00
 Gap=     0.408 Goal=   None    Shift=    0.000
 RMSDP=1.51D-03 MaxDP=2.09D-02 DE=-1.11D-01 OVMax= 1.00D-01

 Cycle   3  Pass 0  IDiag  1:
 E= -197.771368977368     Delta-E=       -0.137006301549 Rises=F Damp=F
 DIIS: error= 2.36D-03 at cycle   3 NSaved=   3.
 NSaved= 3 IEnMin= 3 EnMin= -197.771368977368     IErMin= 3 ErrMin= 2.36D-03
 ErrMax= 2.36D-03 EMaxC= 1.00D-01 BMatC= 4.08D-04 BMatP= 7.64D-03
 IDIUse=3 WtCom= 9.76D-01 WtEn= 2.36D-02
 Coeff-Com:  0.503D-02 0.125D+00 0.870D+00
 Coeff-En:   0.000D+00 0.000D+00 0.100D+01
 Coeff:      0.491D-02 0.122D+00 0.873D+00
 Gap=     0.404 Goal=   None    Shift=    0.000
 RMSDP=3.67D-04 MaxDP=6.09D-03 DE=-1.37D-01 OVMax= 6.90D-03

 Cycle   4  Pass 0  IDiag  1:
 E= -197.771599516684     Delta-E=       -0.000230539316 Rises=F Damp=F
 DIIS: error= 1.22D-03 at cycle   4 NSaved=   4.
 NSaved= 4 IEnMin= 4 EnMin= -197.771599516684     IErMin= 4 ErrMin= 1.22D-03
 ErrMax= 1.22D-03 EMaxC= 1.00D-01 BMatC= 1.82D-04 BMatP= 4.08D-04
 IDIUse=3 WtCom= 9.88D-01 WtEn= 1.22D-02
 Coeff-Com:  0.712D-03 0.210D-01 0.401D+00 0.577D+00
 Coeff-En:   0.000D+00 0.000D+00 0.269D+00 0.731D+00
 Coeff:      0.703D-03 0.207D-01 0.400D+00 0.579D+00
 Gap=     0.405 Goal=   None    Shift=    0.000
 RMSDP=1.56D-04 MaxDP=2.15D-03 DE=-2.31D-04 OVMax= 3.30D-03

 Cycle   5  Pass 0  IDiag  1:
 E= -197.771770036777     Delta-E=       -0.000170520093 Rises=F Damp=F
 DIIS: error= 3.27D-04 at cycle   5 NSaved=   5.
 NSaved= 5 IEnMin= 5 EnMin= -197.771770036777     IErMin= 5 ErrMin= 3.27D-04
 ErrMax= 3.27D-04 EMaxC= 1.00D-01 BMatC= 1.24D-05 BMatP= 1.82D-04
 IDIUse=3 WtCom= 9.97D-01 WtEn= 3.27D-03
 Coeff-Com:  0.365D-03-0.190D-02 0.105D+00 0.261D+00 0.635D+00
 Coeff-En:   0.000D+00 0.000D+00 0.000D+00 0.000D+00 0.100D+01
 Coeff:      0.364D-03-0.189D-02 0.105D+00 0.260D+00 0.636D+00
 Gap=     0.404 Goal=   None    Shift=    0.000
 RMSDP=3.18D-05 MaxDP=5.95D-04 DE=-1.71D-04 OVMax= 6.62D-04

 Cycle   6  Pass 0  IDiag  1:
 E= -197.771781817737     Delta-E=       -0.000011780960 Rises=F Damp=F
 DIIS: error= 2.84D-05 at cycle   6 NSaved=   6.
 NSaved= 6 IEnMin= 6 EnMin= -197.771781817737     IErMin= 6 ErrMin= 2.84D-05
 ErrMax= 2.84D-05 EMaxC= 1.00D-01 BMatC= 8.39D-08 BMatP= 1.24D-05
 IDIUse=1 WtCom= 1.00D+00 WtEn= 0.00D+00
 Coeff-Com:  0.184D-03-0.100D-02 0.234D-01 0.649D-01 0.185D+00 0.728D+00
 Coeff:      0.184D-03-0.100D-02 0.234D-01 0.649D-01 0.185D+00 0.728D+00
 Gap=     0.404 Goal=   None    Shift=    0.000
 RMSDP=4.58D-06 MaxDP=5.82D-05 DE=-1.18D-05 OVMax= 9.10D-05

 Initial convergence to 1.0D-05 achieved.  Increase integral accuracy.
 Cycle   7  Pass 1  IDiag  1:
 E= -197.771763366527     Delta-E=        0.000018451211 Rises=F Damp=F
 DIIS: error= 4.99D-06 at cycle   1 NSaved=   1.
 NSaved= 1 IEnMin= 1 EnMin= -197.771763366527     IErMin= 1 ErrMin= 4.99D-06
 ErrMax= 4.99D-06 EMaxC= 1.00D-01 BMatC= 3.46D-09 BMatP= 3.46D-09
 IDIUse=1 WtCom= 1.00D+00 WtEn= 0.00D+00
 Coeff-Com:  0.100D+01
 Coeff:      0.100D+01
 Gap=     0.404 Goal=   None    Shift=    0.000
 RMSDP=4.58D-06 MaxDP=5.82D-05 DE= 1.85D-05 OVMax= 2.59D-05

 Cycle   8  Pass 1  IDiag  1:
 E= -197.771763367275     Delta-E=       -0.000000000748 Rises=F Damp=F
 DIIS: error= 4.93D-06 at cycle   2 NSaved=   2.
 NSaved= 2 IEnMin= 2 EnMin= -197.771763367275     IErMin= 2 ErrMin= 4.93D-06
 ErrMax= 4.93D-06 EMaxC= 1.00D-01 BMatC= 3.06D-09 BMatP= 3.46D-09
 IDIUse=1 WtCom= 1.00D+00 WtEn= 0.00D+00
 Coeff-Com:  0.484D+00 0.516D+00
 Coeff:      0.484D+00 0.516D+00
 Gap=     0.404 Goal=   None    Shift=    0.000
 RMSDP=4.89D-07 MaxDP=1.05D-05 DE=-7.48D-10 OVMax= 1.21D-05

 Cycle   9  Pass 1  IDiag  1:
 E= -197.771763370102     Delta-E=       -0.000000002827 Rises=F Damp=F
 DIIS: error= 8.50D-07 at cycle   3 NSaved=   3.
 NSaved= 3 IEnMin= 3 EnMin= -197.771763370102     IErMin= 3 ErrMin= 8.50D-07
 ErrMax= 8.50D-07 EMaxC= 1.00D-01 BMatC= 6.09D-11 BMatP= 3.06D-09
 IDIUse=1 WtCom= 1.00D+00 WtEn= 0.00D+00
 Coeff-Com:  0.106D+00 0.176D+00 0.719D+00
 Coeff:      0.106D+00 0.176D+00 0.719D+00
 Gap=     0.404 Goal=   None    Shift=    0.000
 RMSDP=1.13D-07 MaxDP=1.67D-06 DE=-2.83D-09 OVMax= 2.52D-06

 Cycle  10  Pass 1  IDiag  1:
 E= -197.771763370163     Delta-E=       -0.000000000061 Rises=F Damp=F
 DIIS: error= 1.72D-07 at cycle   4 NSaved=   4.
 NSaved= 4 IEnMin= 4 EnMin= -197.771763370163     IErMin= 4 ErrMin= 1.72D-07
 ErrMax= 1.72D-07 EMaxC= 1.00D-01 BMatC= 2.17D-12 BMatP= 6.09D-11
 IDIUse=1 WtCom= 1.00D+00 WtEn= 0.00D+00
 Coeff-Com: -0.372D-02 0.120D-01 0.187D+00 0.804D+00
 Coeff:     -0.372D-02 0.120D-01 0.187D+00 0.804D+00
 Gap=     0.404 Goal=   None    Shift=    0.000
 RMSDP=2.49D-08 MaxDP=3.21D-07 DE=-6.13D-11 OVMax= 4.75D-07

 Cycle  11  Pass 1  IDiag  1:
 E= -197.771763370166     Delta-E=       -0.000000000003 Rises=F Damp=F
 DIIS: error= 4.06D-08 at cycle   5 NSaved=   5.
 NSaved= 5 IEnMin= 5 EnMin= -197.771763370166     IErMin= 5 ErrMin= 4.06D-08
 ErrMax= 4.06D-08 EMaxC= 1.00D-01 BMatC= 9.61D-14 BMatP= 2.17D-12
 IDIUse=1 WtCom= 1.00D+00 WtEn= 0.00D+00
 Coeff-Com: -0.346D-02 0.341D-03 0.472D-01 0.272D+00 0.684D+00
 Coeff:     -0.346D-02 0.341D-03 0.472D-01 0.272D+00 0.684D+00
 Gap=     0.404 Goal=   None    Shift=    0.000
 RMSDP=4.66D-09 MaxDP=7.00D-08 DE=-2.50D-12 OVMax= 8.59D-08

 SCF Done:  E(RB3LYP) =  -197.771763370     A.U. after   11 cycles
             Convg  =    0.4664D-08             -V/T =  2.0105
 KE= 1.957093923850D+02 PE=-8.244509400948D+02 EE= 2.468135544924D+02
 Leave Link  502 at Sun Oct  4 11:28:43 2015, MaxMem=  805306368 cpu:      61.1
 (Enter /share/apps/g09/l601.exe)
 Copying SCF densities to generalized density rwf, IOpCl= 0 IROHF=0.

 **********************************************************************

            Population analysis using the SCF density.

 **********************************************************************

 Orbital symmetries:
       Occupied  (A) (A) (A) (A) (A) (A) (A) (A) (A) (A) (A) (A)
                 (A) (A) (A) (A) (A) (A) (A) (A) (A)
       Virtual   (A) (A) (A) (A) (A) (A) (A) (A) (A) (A) (A) (A)
                 (A) (A) (A) (A) (A) (A) (A) (A) (A) (A) (A) (A)
                 (A) (A) (A) (A) (A) (A) (A) (A) (A) (A) (A) (A)
                 (A) (A) (A) (A) (A) (A) (A) (A) (A) (A) (A) (A)
                 (A) (A) (A) (A) (A) (A) (A) (A) (A) (A) (A) (A)
                 (A) (A) (A) (A) (A) (A) (A) (A) (A) (A) (A) (A)
                 (A) (A) (A) (A) (A) (A)
 The electronic state is 1-A.
 Alpha  occ. eigenvalues --  -10.17599 -10.17599 -10.17358 -10.17004 -10.17004
 Alpha  occ. eigenvalues --   -0.79440  -0.74435  -0.67041  -0.59445  -0.56991
 Alpha  occ. eigenvalues --   -0.46914  -0.43141  -0.42653  -0.39731  -0.38997
 Alpha  occ. eigenvalues --   -0.37276  -0.34858  -0.33154  -0.32167  -0.31729
 Alpha  occ. eigenvalues --   -0.31086
 Alpha virt. eigenvalues --    0.09363   0.11115   0.12803   0.13570   0.15338
 Alpha virt. eigenvalues --    0.17476   0.17492   0.17880   0.19737   0.19901
 Alpha virt. eigenvalues --    0.19949   0.20546   0.22735   0.25602   0.27588
 Alpha virt. eigenvalues --    0.27616   0.49240   0.51468   0.51713   0.55154
 Alpha virt. eigenvalues --    0.55865   0.59260   0.60122   0.65239   0.65731
 Alpha virt. eigenvalues --    0.68580   0.71993   0.76371   0.78336   0.81323
 Alpha virt. eigenvalues --    0.85375   0.88294   0.89415   0.89921   0.91112
 Alpha virt. eigenvalues --    0.93039   0.93610   0.94605   0.95451   0.96363
 Alpha virt. eigenvalues --    0.97893   0.99160   1.01301   1.09364   1.32579
 Alpha virt. eigenvalues --    1.41751   1.42713   1.46069   1.49378   1.56465
 Alpha virt. eigenvalues --    1.70069   1.79622   1.81218   1.89987   1.91275
 Alpha virt. eigenvalues --    1.94162   1.97302   1.99353   2.00144   2.00962
 Alpha virt. eigenvalues --    2.09078   2.21234   2.22828   2.28217   2.31090
 Alpha virt. eigenvalues --    2.32555   2.39785   2.42634   2.42648   2.57540
 Alpha virt. eigenvalues --    2.58015   2.73667   2.78669   4.12063   4.21060
 Alpha virt. eigenvalues --    4.31737   4.41227   4.53987
          Condensed to atoms (all electrons):
              1          2          3          4          5          6
     1  C    5.065097   0.377476   0.377476   0.371386   0.371614  -0.038618
     2  H    0.377476   0.579995  -0.032924  -0.031413  -0.034774   0.005274
     3  H    0.377476  -0.032924   0.579995  -0.031413  -0.034774  -0.004515
     4  H    0.371386  -0.031413  -0.031413   0.579185  -0.027182  -0.002704
     5  C    0.371614  -0.034774  -0.034774  -0.027182   4.949541   0.376499
     6  H   -0.038618   0.005274  -0.004515  -0.002704   0.376499   0.613490
     7  H   -0.038619  -0.004515   0.005274  -0.002704   0.376499  -0.040292
     8  C   -0.042156  -0.004529  -0.004529   0.004101   0.389308  -0.040321
     9  H   -0.002944  -0.000396   0.004885  -0.000030  -0.040384  -0.005512
    10  H   -0.002944   0.004885  -0.000396  -0.000030  -0.040384   0.006006
    11  C    0.003656   0.000029   0.000029  -0.000132  -0.035857  -0.003601
    12  H    0.000026   0.000002   0.000007   0.000002  -0.003601  -0.000474
    13  H    0.000026   0.000007   0.000002   0.000002  -0.003601   0.005232
    14  C   -0.000135   0.000001   0.000001   0.000001   0.003656   0.000026
    15  H    0.000001   0.000000  -0.000001   0.000000   0.000029   0.000002
    16  H    0.000001   0.000000   0.000000   0.000000  -0.000132   0.000002
    17  H    0.000001  -0.000001   0.000000   0.000000   0.000029   0.000007
              7          8          9         10         11         12
     1  C   -0.038619  -0.042156  -0.002944  -0.002944   0.003656   0.000026
     2  H   -0.004515  -0.004529  -0.000396   0.004885   0.000029   0.000002
     3  H    0.005274  -0.004529   0.004885  -0.000396   0.000029   0.000007
     4  H   -0.002704   0.004101  -0.000030  -0.000030  -0.000132   0.000002
     5  C    0.376499   0.389308  -0.040384  -0.040384  -0.035857  -0.003601
     6  H   -0.040292  -0.040321  -0.005512   0.006006  -0.003601  -0.000474
     7  H    0.613490  -0.040321   0.006006  -0.005512  -0.003601   0.005232
     8  C   -0.040321   4.970358   0.372576   0.372576   0.389308  -0.040321
     9  H    0.006006   0.372576   0.619943  -0.041214  -0.040384   0.006006
    10  H   -0.005512   0.372576  -0.041214   0.619943  -0.040384  -0.005512
    11  C   -0.003601   0.389308  -0.040384  -0.040384   4.949541   0.376499
    12  H    0.005232  -0.040321   0.006006  -0.005512   0.376499   0.613490
    13  H   -0.000474  -0.040321  -0.005512   0.006006   0.376499  -0.040292
    14  C    0.000026  -0.042156  -0.002944  -0.002944   0.371614  -0.038618
    15  H    0.000007  -0.004529   0.004885  -0.000396  -0.034774   0.005274
    16  H    0.000002   0.004101  -0.000030  -0.000030  -0.027182  -0.002704
    17  H    0.000002  -0.004529  -0.000396   0.004885  -0.034774  -0.004515
             13         14         15         16         17
     1  C    0.000026  -0.000135   0.000001   0.000001   0.000001
     2  H    0.000007   0.000001   0.000000   0.000000  -0.000001
     3  H    0.000002   0.000001  -0.000001   0.000000   0.000000
     4  H    0.000002   0.000001   0.000000   0.000000   0.000000
     5  C   -0.003601   0.003656   0.000029  -0.000132   0.000029
     6  H    0.005232   0.000026   0.000002   0.000002   0.000007
     7  H   -0.000474   0.000026   0.000007   0.000002   0.000002
     8  C   -0.040321  -0.042156  -0.004529   0.004101  -0.004529
     9  H   -0.005512  -0.002944   0.004885  -0.000030  -0.000396
    10  H    0.006006  -0.002944  -0.000396  -0.000030   0.004885
    11  C    0.376499   0.371614  -0.034774  -0.027182  -0.034774
    12  H   -0.040292  -0.038618   0.005274  -0.002704  -0.004515
    13  H    0.613490  -0.038619  -0.004515  -0.002704   0.005274
    14  C   -0.038619   5.065097   0.377476   0.371386   0.377476
    15  H   -0.004515   0.377476   0.579995  -0.031413  -0.032924
    16  H   -0.002704   0.371386  -0.031413   0.579185  -0.031413
    17  H    0.005274   0.377476  -0.032924  -0.031413   0.579995
 Mulliken atomic charges:
              1
     1  C   -0.441345
     2  H    0.140883
     3  H    0.140883
     4  H    0.140930
     5  C   -0.246486
     6  H    0.129499
     7  H    0.129499
     8  C   -0.238617
     9  H    0.125446
    10  H    0.125446
    11  C   -0.246486
    12  H    0.129499
    13  H    0.129499
    14  C   -0.441345
    15  H    0.140883
    16  H    0.140930
    17  H    0.140883
 Sum of Mulliken atomic charges =   0.00000
 Mulliken charges with hydrogens summed into heavy atoms:
              1
     1  C   -0.018649
     5  C    0.012512
     8  C    0.012274
    11  C    0.012512
    14  C   -0.018650
 Sum of Mulliken charges with hydrogens summed into heavy atoms =   0.00000
 Electronic spatial extent (au):  <R**2>=            722.8196
 Charge=              0.0000 electrons
 Dipole moment (field-independent basis, Debye):
    X=              0.0000    Y=             -0.0543    Z=              0.0000  Tot=              0.0543
 Quadrupole moment (field-independent basis, Debye-Ang):
   XX=            -35.5152   YY=            -35.0351   ZZ=            -34.2618
   XY=              0.0000   XZ=              0.0000   YZ=              0.0000
 Traceless Quadrupole moment (field-independent basis, Debye-Ang):
   XX=             -0.5779   YY=             -0.0977   ZZ=              0.6756
   XY=              0.0000   XZ=              0.0000   YZ=              0.0000
 Octapole moment (field-independent basis, Debye-Ang**2):
  XXX=              0.0000  YYY=             -0.1314  ZZZ=              0.0000  XYY=              0.0000
  XXY=             -2.0662  XXZ=              0.0000  XZZ=              0.0000  YZZ=              0.4630
  YYZ=              0.0000  XYZ=              0.0000
 Hexadecapole moment (field-independent basis, Debye-Ang**3):
 XXXX=           -820.6360 YYYY=           -118.9825 ZZZZ=            -70.1386 XXXY=              0.0000
 XXXZ=              0.0001 YYYX=              0.0000 YYYZ=              0.0000 ZZZX=              0.0000
 ZZZY=              0.0000 XXYY=           -155.1808 XXZZ=           -147.2981 YYZZ=            -28.6218
 XXYZ=              0.0000 YYXZ=              0.0000 ZZXY=              0.0000
 N-N= 1.841562298472D+02 E-N=-8.244509362808D+02  KE= 1.957093923850D+02
 No NMR shielding tensors so no spin-rotation constants.
 Leave Link  601 at Sun Oct  4 11:28:44 2015, MaxMem=  805306368 cpu:       0.7
 (Enter /share/apps/g09/l701.exe)
 Compute integral first derivatives.
 ... and contract with generalized density number  0.
 Leave Link  701 at Sun Oct  4 11:28:44 2015, MaxMem=  805306368 cpu:       0.6
 (Enter /share/apps/g09/l702.exe)
 L702 exits ... SP integral derivatives will be done elsewhere.
 Leave Link  702 at Sun Oct  4 11:28:44 2015, MaxMem=  805306368 cpu:       0.0
 (Enter /share/apps/g09/l703.exe)
 Compute integral first derivatives, UseDBF=F ICtDFT=           0.
 Integral derivatives from FoFDir, PRISM(SPDF).
 Calling FoFJK, ICntrl=      2127 FMM=F ISym2X=0 I1Cent= 0 IOpClX= 0 NMat=1 NMatS=1 NMatT=0.
 FoFCou: FMM=F IPFlag=           0 FMFlag=      100000 FMFlg1=         800
         NFxFlg=           0 DoJE=F BraDBF=F KetDBF=F FulRan=T
         Omega=  0.000000  0.000000  1.000000  0.000000  0.000000 ICntrl=    2127 IOpCl=  0
         NMat0=    1 NMatS0=    1 NMatT0=    0 NMatD0=    1 NMtDS0=    0 NMtDT0=    0
         I1Cent=           0 NGrid=           0.
 Symmetry not used in FoFCou.
 Leave Link  703 at Sun Oct  4 11:28:48 2015, MaxMem=  805306368 cpu:      15.3
 (Enter /share/apps/g09/l716.exe)
 Dipole        =-1.35888847D-08-2.13639045D-02-2.56709831D-07
 ***** Axes restored to original set *****
 -------------------------------------------------------------------
 Center     Atomic                   Forces (Hartrees/Bohr)
 Number     Number              X              Y              Z
 -------------------------------------------------------------------
      1        6          -0.000005019    0.000040615    0.000000875
      2        1          -0.000032255   -0.000033171    0.000059280
      3        1          -0.000032314   -0.000033559   -0.000059978
      4        1           0.000129564    0.000045758    0.000000039
      5        6           0.000035118   -0.000117018   -0.000000837
      6        1          -0.000004070    0.000038946   -0.000019127
      7        1          -0.000004037    0.000039031    0.000019527
      8        6           0.000000091    0.000105339    0.000000262
      9        1          -0.000000014   -0.000033200   -0.000018801
     10        1          -0.000000092   -0.000033266    0.000018783
     11        6          -0.000035110   -0.000117083    0.000000187
     12        1           0.000004068    0.000038910    0.000019231
     13        1           0.000004054    0.000039056   -0.000019421
     14        6           0.000005012    0.000040612   -0.000000547
     15        1           0.000032327   -0.000033243   -0.000059403
     16        1          -0.000129565    0.000045758    0.000000079
     17        1           0.000032243   -0.000033485    0.000059852
 -------------------------------------------------------------------
 Cartesian Forces:  Max     0.000129565 RMS     0.000047584
 Leave Link  716 at Sun Oct  4 11:28:48 2015, MaxMem=  805306368 cpu:       0.1
 (Enter /share/apps/g09/l103.exe)

 GradGradGradGradGradGradGradGradGradGradGradGradGradGradGradGradGradGrad
 Berny optimization.
 Internal  Forces:  Max     0.000132439 RMS     0.000039204
 Search for a local minimum.
 Step number   1 out of a maximum of   92
 All quantities printed in internal units (Hartrees-Bohrs-Radians)
 RMS Force = .39204D-04 SwitMx=.10000D-02 MixMth= 2
 Mixed Optimization -- En-DIIS/RFO-DIIS
 Second derivative matrix not updated -- first step.
     Eigenvalues ---    0.00316   0.00316   0.00340   0.00340   0.03375
     Eigenvalues ---    0.03425   0.03425   0.04761   0.04780   0.04780
     Eigenvalues ---    0.05430   0.05430   0.05481   0.05481   0.08441
     Eigenvalues ---    0.08441   0.08507   0.12286   0.12286   0.12335
     Eigenvalues ---    0.16000   0.16000   0.16000   0.16000   0.16000
     Eigenvalues ---    0.16000   0.21898   0.21898   0.21906   0.29053
     Eigenvalues ---    0.29053   0.29223   0.29223   0.33616   0.33616
     Eigenvalues ---    0.33738   0.33738   0.33738   0.33738   0.33995
     Eigenvalues ---    0.33996   0.33996   0.33996   0.34099   0.34099
     Eigenvalues --- 1000.000001000.000001000.000001000.000001000.00000
     Eigenvalues --- 1000.000001000.000001000.000001000.000001000.00000
     Eigenvalues --- 1000.000001000.000001000.000001000.000001000.00000
     Eigenvalues --- 1000.000001000.000001000.000001000.000001000.00000
     Eigenvalues --- 1000.000001000.000001000.000001000.000001000.00000
     Eigenvalues --- 1000.000001000.000001000.000001000.000001000.00000
     Eigenvalues --- 1000.000001000.000001000.000001000.000001000.00000
     Eigenvalues --- 1000.000001000.00000
 RFO step:  Lambda=-5.99036771D-07 EMin= 3.15633420D-03
 Linear search not attempted -- first point.
 Iteration  1 RMS(Cart)=  0.00062179 RMS(Int)=  0.00000022
 Iteration  2 RMS(Cart)=  0.00000027 RMS(Int)=  0.00000005
 Variable       Old X    -DE/DX   Delta X   Delta X   Delta X     New X
                                 (Linear)    (Quad)   (Total)
    R1        2.07337  -0.00007   0.00000  -0.00019  -0.00019   2.07318
    R2        2.07338  -0.00007   0.00000  -0.00020  -0.00020   2.07318
    R3        2.07164  -0.00013   0.00000  -0.00039  -0.00039   2.07125
    R4        2.89540  -0.00004   0.00000  -0.00013  -0.00013   2.89526
    R5        2.07775  -0.00004   0.00000  -0.00011  -0.00011   2.07764
    R6        2.07775  -0.00004   0.00000  -0.00012  -0.00012   2.07764
    R7        2.89892  -0.00006   0.00000  -0.00021  -0.00021   2.89871
    R8        2.07983  -0.00004   0.00000  -0.00010  -0.00010   2.07973
    R9        2.07983  -0.00004   0.00000  -0.00010  -0.00010   2.07973
   R10        2.89892  -0.00006   0.00000  -0.00021  -0.00021   2.89871
   R11        2.07775  -0.00004   0.00000  -0.00011  -0.00011   2.07764
   R12        2.07775  -0.00004   0.00000  -0.00012  -0.00012   2.07764
   R13        2.89540  -0.00004   0.00000  -0.00013  -0.00013   2.89526
   R14        2.07337  -0.00007   0.00000  -0.00019  -0.00019   2.07318
   R15        2.07164  -0.00013   0.00000  -0.00039  -0.00039   2.07125
   R16        2.07338  -0.00007   0.00000  -0.00020  -0.00020   2.07318
    A1        1.87583  -0.00003   0.00000   0.00001   0.00001   1.87584
    A2        1.87930   0.00000   0.00000  -0.00011  -0.00011   1.87919
    A3        1.94003   0.00005   0.00000   0.00040   0.00040   1.94043
    A4        1.87930   0.00000   0.00000  -0.00011  -0.00011   1.87919
    A5        1.94003   0.00005   0.00000   0.00040   0.00040   1.94043
    A6        1.94623  -0.00008   0.00000  -0.00059  -0.00059   1.94564
    A7        1.91039  -0.00001   0.00000  -0.00008  -0.00008   1.91031
    A8        1.91039  -0.00001   0.00000  -0.00008  -0.00008   1.91031
    A9        1.97687   0.00001   0.00000   0.00002   0.00002   1.97689
   A10        1.84980   0.00001   0.00000   0.00020   0.00020   1.84999
   A11        1.90604   0.00000   0.00000  -0.00002  -0.00002   1.90601
   A12        1.90603   0.00000   0.00000  -0.00002  -0.00002   1.90601
   A13        1.90652   0.00004   0.00000   0.00012   0.00012   1.90664
   A14        1.90652   0.00004   0.00000   0.00012   0.00012   1.90664
   A15        1.98438  -0.00013   0.00000  -0.00068  -0.00068   1.98369
   A16        1.84848  -0.00001   0.00000   0.00028   0.00028   1.84876
   A17        1.90652   0.00004   0.00000   0.00012   0.00012   1.90664
   A18        1.90652   0.00004   0.00000   0.00012   0.00012   1.90664
   A19        1.90603   0.00000   0.00000  -0.00002  -0.00002   1.90601
   A20        1.90603   0.00000   0.00000  -0.00002  -0.00002   1.90601
   A21        1.97687   0.00001   0.00000   0.00002   0.00002   1.97689
   A22        1.84980   0.00001   0.00000   0.00020   0.00020   1.84999
   A23        1.91039  -0.00001   0.00000  -0.00008  -0.00008   1.91031
   A24        1.91039  -0.00001   0.00000  -0.00008  -0.00008   1.91031
   A25        1.94003   0.00005   0.00000   0.00040   0.00040   1.94043
   A26        1.94623  -0.00008   0.00000  -0.00059  -0.00059   1.94564
   A27        1.94003   0.00005   0.00000   0.00040   0.00040   1.94043
   A28        1.87930   0.00000   0.00000  -0.00011  -0.00011   1.87919
   A29        1.87583  -0.00003   0.00000   0.00001   0.00001   1.87584
   A30        1.87930   0.00000   0.00000  -0.00011  -0.00011   1.87919
    D1       -3.10743   0.00001   0.00000   0.00020   0.00020  -3.10723
    D2       -1.08707   0.00002   0.00000   0.00035   0.00035  -1.08672
    D3        1.04434   0.00002   0.00000   0.00028   0.00028   1.04462
    D4        1.08706  -0.00002   0.00000  -0.00034  -0.00034   1.08672
    D5        3.10742  -0.00001   0.00000  -0.00019  -0.00019   3.10723
    D6       -1.04435  -0.00001   0.00000  -0.00027  -0.00027  -1.04462
    D7       -1.01019   0.00000   0.00000  -0.00007  -0.00007  -1.01026
    D8        1.01018   0.00000   0.00000   0.00008   0.00008   1.01025
    D9        3.14158   0.00000   0.00000   0.00001   0.00001   3.14159
   D10        1.00723   0.00001   0.00000   0.00023   0.00023   1.00746
   D11       -1.00723  -0.00001   0.00000  -0.00023  -0.00023  -1.00747
   D12        3.14159   0.00000   0.00000   0.00000   0.00000   3.14159
   D13       -1.12661   0.00002   0.00000   0.00034   0.00034  -1.12627
   D14       -3.14108  -0.00001   0.00000  -0.00012  -0.00012  -3.14120
   D15        1.00775   0.00001   0.00000   0.00011   0.00011   1.00786
   D16        3.14107   0.00001   0.00000   0.00013   0.00013   3.14120
   D17        1.12661  -0.00002   0.00000  -0.00034  -0.00034   1.12627
   D18       -1.00775  -0.00001   0.00000  -0.00010  -0.00010  -1.00786
   D19        1.00775   0.00001   0.00000   0.00011   0.00011   1.00786
   D20       -1.00775  -0.00001   0.00000  -0.00011  -0.00011  -1.00786
   D21        3.14159   0.00000   0.00000   0.00000   0.00000   3.14159
   D22       -3.14107  -0.00001   0.00000  -0.00013  -0.00013  -3.14120
   D23        1.12661  -0.00002   0.00000  -0.00034  -0.00034   1.12627
   D24       -1.00723  -0.00001   0.00000  -0.00023  -0.00023  -1.00746
   D25       -1.12661   0.00002   0.00000   0.00034   0.00034  -1.12627
   D26        3.14107   0.00001   0.00000   0.00013   0.00013   3.14120
   D27        1.00723   0.00001   0.00000   0.00023   0.00023   1.00746
   D28        1.04434   0.00001   0.00000   0.00027   0.00027   1.04462
   D29        3.14159   0.00000   0.00000   0.00000   0.00000   3.14159
   D30       -1.04435  -0.00001   0.00000  -0.00027  -0.00027  -1.04462
   D31       -3.10743   0.00001   0.00000   0.00020   0.00020  -3.10723
   D32       -1.01018   0.00000   0.00000  -0.00007  -0.00007  -1.01025
   D33        1.08706  -0.00002   0.00000  -0.00034  -0.00034   1.08672
   D34       -1.08707   0.00002   0.00000   0.00035   0.00035  -1.08672
   D35        1.01018   0.00000   0.00000   0.00007   0.00007   1.01025
   D36        3.10743  -0.00001   0.00000  -0.00020  -0.00020   3.10723
         Item               Value     Threshold  Converged?
 Maximum Force            0.000132     0.000015     NO 
 RMS     Force            0.000039     0.000010     NO 
 Maximum Displacement     0.001817     0.000060     NO 
 RMS     Displacement     0.000622     0.000040     NO 
 Predicted change in Energy=-2.995501D-07
 GradGradGradGradGradGradGradGradGradGradGradGradGradGradGradGradGradGrad

 Leave Link  103 at Sun Oct  4 11:28:48 2015, MaxMem=  805306368 cpu:       0.1
 (Enter /share/apps/g09/l202.exe)
                          Input orientation:                          
 ---------------------------------------------------------------------
 Center     Atomic      Atomic             Coordinates (Angstroms)
 Number     Number       Type             X           Y           Z
 ---------------------------------------------------------------------
      1          6           0       -2.560652    0.323941    0.000000
      2          1           0       -2.606890    0.971180   -0.884606
      3          1           0       -2.606892    0.971176    0.884610
      4          1           0       -3.458911   -0.304131   -0.000002
      5          6           0       -1.283957   -0.523056   -0.000001
      6          1           0       -1.283538   -1.184740    0.878029
      7          1           0       -1.283538   -1.184738   -0.878034
      8          6           0        0.000000    0.316226    0.000000
      9          1           0        0.000000    0.979118    0.878507
     10          1           0        0.000000    0.979118   -0.878507
     11          6           0        1.283957   -0.523056    0.000000
     12          1           0        1.283539   -1.184739   -0.878031
     13          1           0        1.283538   -1.184739    0.878032
     14          6           0        2.560652    0.323941    0.000001
     15          1           0        2.606891    0.971178    0.884608
     16          1           0        3.458911   -0.304131    0.000001
     17          1           0        2.606891    0.971177   -0.884607
 ---------------------------------------------------------------------
                    Distance matrix (angstroms):
                    1          2          3          4          5
     1  C    0.000000
     2  H    1.097080   0.000000
     3  H    1.097080   1.769215   0.000000
     4  H    1.096058   1.770560   1.770560   0.000000
     5  C    1.532108   2.182984   2.182984   2.185944   0.000000
     6  H    2.162885   3.083202   2.529680   2.505724   1.099438
     7  H    2.162886   2.529681   3.083202   2.505724   1.099438
     8  C    2.560663   2.829730   2.829731   3.514101   1.533929
     9  H    2.785313   3.147142   2.606911   3.792436   2.162602
    10  H    2.785314   2.606910   3.147146   3.792435   2.162601
    11  C    3.936803   4.260746   4.260747   4.747917   2.567913
    12  H    4.221949   4.447861   4.784383   4.902778   2.792990
    13  H    4.221949   4.784382   4.447860   4.902778   2.792991
    14  C    5.121304   5.282513   5.282514   6.052240   3.936803
    15  H    5.282513   5.505781   5.213783   6.261222   4.260747
    16  H    6.052240   6.261221   6.261222   6.917821   4.747917
    17  H    5.282513   5.213782   5.505785   6.261221   4.260746
                    6          7          8          9         10
     6  H    0.000000
     7  H    1.756062   0.000000
     8  C    2.161320   2.161320   0.000000
     9  H    2.515900   3.068416   1.100546   0.000000
    10  H    3.068415   2.515899   1.100546   1.757014   0.000000
    11  C    2.792990   2.792991   1.533929   2.162602   2.162602
    12  H    3.110246   2.567077   2.161320   3.068416   2.515899
    13  H    2.567077   3.110249   2.161320   2.515899   3.068416
    14  C    4.221949   4.221949   2.560663   2.785313   2.785313
    15  H    4.447861   4.784383   2.829730   2.606910   3.147144
    16  H    4.902778   4.902778   3.514101   3.792436   3.792435
    17  H    4.784382   4.447860   2.829731   3.147145   2.606910
                   11         12         13         14         15
    11  C    0.000000
    12  H    1.099438   0.000000
    13  H    1.099438   1.756062   0.000000
    14  C    1.532108   2.162885   2.162885   0.000000
    15  H    2.182984   3.083202   2.529680   1.097080   0.000000
    16  H    2.185944   2.505724   2.505724   1.096058   1.770560
    17  H    2.182984   2.529680   3.083202   1.097080   1.769215
                   16         17
    16  H    0.000000
    17  H    1.770560   0.000000
 Stoichiometry    C5H12
 Framework group  C1[X(C5H12)]
 Deg. of freedom    45
 Full point group                 C1      NOp   1
 Largest Abelian subgroup         C1      NOp   1
 Largest concise Abelian subgroup C1      NOp   1
                         Standard orientation:                         
 ---------------------------------------------------------------------
 Center     Atomic      Atomic             Coordinates (Angstroms)
 Number     Number       Type             X           Y           Z
 ---------------------------------------------------------------------
      1          6           0       -2.560652    0.323853    0.000000
      2          1           0       -2.606890    0.971092   -0.884606
      3          1           0       -2.606892    0.971087    0.884610
      4          1           0       -3.458911   -0.304220   -0.000002
      5          6           0       -1.283957   -0.523144   -0.000001
      6          1           0       -1.283538   -1.184828    0.878029
      7          1           0       -1.283538   -1.184826   -0.878033
      8          6           0        0.000000    0.316137    0.000000
      9          1           0        0.000000    0.979030    0.878507
     10          1           0        0.000000    0.979030   -0.878507
     11          6           0        1.283957   -0.523144    0.000000
     12          1           0        1.283539   -1.184827   -0.878031
     13          1           0        1.283538   -1.184827    0.878032
     14          6           0        2.560652    0.323853    0.000001
     15          1           0        2.606891    0.971090    0.884608
     16          1           0        3.458911   -0.304220    0.000001
     17          1           0        2.606891    0.971089   -0.884607
 ---------------------------------------------------------------------
 Rotational constants (GHZ):     17.0282377      1.9223039      1.8248327
 Leave Link  202 at Sun Oct  4 11:28:48 2015, MaxMem=  805306368 cpu:       0.0
 (Enter /share/apps/g09/l301.exe)
 Standard basis: 6-31G(d) (6D, 7F)
 Ernie: Thresh=  0.10000D-02 Tol=  0.10000D-05 Strict=F.
 There are    99 symmetry adapted basis functions of A   symmetry.
 Integral buffers will be    131072 words long.
 Raffenetti 2 integral format.
 Two-electron integral symmetry is turned on.
    99 basis functions,   188 primitive gaussians,    99 cartesian basis functions
    21 alpha electrons       21 beta electrons
       nuclear repulsion energy       184.1715428728 Hartrees.
 IExCor=  402 DFT=T Ex+Corr=B3LYP ExCW=0 ScaHFX=  0.200000
 ScaDFX=  0.800000  0.720000  1.000000  0.810000 ScalE2=  1.000000  1.000000
 IRadAn=      5 IRanWt=     -1 IRanGd=            0 ICorTp=0
 NAtoms=   17 NActive=   17 NUniq=   17 SFac= 7.50D-01 NAtFMM=   80 NAOKFM=F Big=F
 Leave Link  301 at Sun Oct  4 11:28:48 2015, MaxMem=  805306368 cpu:       0.2
 (Enter /share/apps/g09/l302.exe)
 NPDir=0 NMtPBC=     1 NCelOv=     1 NCel=       1 NClECP=     1 NCelD=      1
         NCelK=      1 NCelE2=     1 NClLst=     1 CellRange=     0.0.
 One-electron integrals computed using PRISM.
 NBasis=    99 RedAO= T  NBF=    99
 NBsUse=    99 1.00D-06 NBFU=    99
 Precomputing XC quadrature grid using
 IXCGrd= 2 IRadAn=           5 IRanWt=          -1 IRanGd=           0 AccXCQ= 1.00D-10.
 NRdTot=    1402 NPtTot=      375116 NUsed=      385164 NTot=      385196
 NSgBfM=    99    99    99    99    99 NAtAll=    17    17.
 Leave Link  302 at Sun Oct  4 11:28:48 2015, MaxMem=  805306368 cpu:       1.3
 (Enter /share/apps/g09/l303.exe)
 DipDrv:  MaxL=1.
 Leave Link  303 at Sun Oct  4 11:28:49 2015, MaxMem=  805306368 cpu:       0.1
 (Enter /share/apps/g09/l401.exe)
 Initial guess read from the read-write file.
 B after Tr=     0.000000    0.000000    0.000000
         Rot=    1.000000    0.000000    0.000000    0.000000 Ang=   0.00 deg.
 Guess basis will be translated and rotated to current coordinates.
 Initial guess orbital symmetries:
       Occupied  (A) (A) (A) (A) (A) (A) (A) (A) (A) (A) (A) (A)
                 (A) (A) (A) (A) (A) (A) (A) (A) (A)
       Virtual   (A) (A) (A) (A) (A) (A) (A) (A) (A) (A) (A) (A)
                 (A) (A) (A) (A) (A) (A) (A) (A) (A) (A) (A) (A)
                 (A) (A) (A) (A) (A) (A) (A) (A) (A) (A) (A) (A)
                 (A) (A) (A) (A) (A) (A) (A) (A) (A) (A) (A) (A)
                 (A) (A) (A) (A) (A) (A) (A) (A) (A) (A) (A) (A)
                 (A) (A) (A) (A) (A) (A) (A) (A) (A) (A) (A) (A)
                 (A) (A) (A) (A) (A) (A)
 The electronic state of the initial guess is 1-A.
 Leave Link  401 at Sun Oct  4 11:28:49 2015, MaxMem=  805306368 cpu:       0.4
 (Enter /share/apps/g09/l502.exe)
 Closed shell SCF:
 Requested convergence on RMS density matrix=1.00D-08 within 128 cycles.
 Requested convergence on MAX density matrix=1.00D-06.
 Requested convergence on             energy=1.00D-06.
 No special actions if energy rises.
 Using DIIS extrapolation, IDIIS=  1040.
 Integral symmetry usage will be decided dynamically.
       384998 words used for storage of precomputed grid.
 Keep R1 ints in memory in canonical form, NReq=13608457.
 IEnd=      433912 IEndB=      433912 NGot=   805306368 MDV=   792645244
 LenX=   792645244 LenY=   792635002
 Symmetry not used in FoFDir.
 MinBra= 0 MaxBra= 2 Meth= 1.
 IRaf=       0 NMat=   1 IRICut=       1 DoRegI=T DoRafI=F ISym2E= 0 JSym2E=0.

 Cycle   1  Pass 1  IDiag  1:
 E= -197.771763286498    
 DIIS: error= 4.57D-05 at cycle   1 NSaved=   1.
 NSaved= 1 IEnMin= 1 EnMin= -197.771763286498     IErMin= 1 ErrMin= 4.57D-05
 ErrMax= 4.57D-05 EMaxC= 1.00D-01 BMatC= 2.07D-07 BMatP= 2.07D-07
 IDIUse=1 WtCom= 1.00D+00 WtEn= 0.00D+00
 Coeff-Com:  0.100D+01
 Coeff:      0.100D+01
 Gap=     0.404 Goal=   None    Shift=    0.000
 RMSDP=6.38D-06 MaxDP=9.49D-05              OVMax= 2.04D-04

 Cycle   2  Pass 1  IDiag  1:
 E= -197.771763651004     Delta-E=       -0.000000364506 Rises=F Damp=F
 DIIS: error= 1.22D-05 at cycle   2 NSaved=   2.
 NSaved= 2 IEnMin= 2 EnMin= -197.771763651004     IErMin= 2 ErrMin= 1.22D-05
 ErrMax= 1.22D-05 EMaxC= 1.00D-01 BMatC= 1.24D-08 BMatP= 2.07D-07
 IDIUse=1 WtCom= 1.00D+00 WtEn= 0.00D+00
 Coeff-Com:  0.508D-01 0.949D+00
 Coeff:      0.508D-01 0.949D+00
 Gap=     0.404 Goal=   None    Shift=    0.000
 RMSDP=2.11D-06 MaxDP=3.61D-05 DE=-3.65D-07 OVMax= 4.33D-05

 Cycle   3  Pass 1  IDiag  1:
 E= -197.771763654960     Delta-E=       -0.000000003956 Rises=F Damp=F
 DIIS: error= 1.24D-05 at cycle   3 NSaved=   3.
 NSaved= 3 IEnMin= 3 EnMin= -197.771763654960     IErMin= 2 ErrMin= 1.22D-05
 ErrMax= 1.24D-05 EMaxC= 1.00D-01 BMatC= 1.03D-08 BMatP= 1.24D-08
 IDIUse=1 WtCom= 1.00D+00 WtEn= 0.00D+00
 Coeff-Com: -0.309D-01 0.483D+00 0.548D+00
 Coeff:     -0.309D-01 0.483D+00 0.548D+00
 Gap=     0.404 Goal=   None    Shift=    0.000
 RMSDP=1.00D-06 MaxDP=1.87D-05 DE=-3.96D-09 OVMax= 2.07D-05

 Cycle   4  Pass 1  IDiag  1:
 E= -197.771763665528     Delta-E=       -0.000000010568 Rises=F Damp=F
 DIIS: error= 1.14D-06 at cycle   4 NSaved=   4.
 NSaved= 4 IEnMin= 4 EnMin= -197.771763665528     IErMin= 4 ErrMin= 1.14D-06
 ErrMax= 1.14D-06 EMaxC= 1.00D-01 BMatC= 1.31D-10 BMatP= 1.03D-08
 IDIUse=1 WtCom= 1.00D+00 WtEn= 0.00D+00
 Coeff-Com: -0.131D-01 0.131D+00 0.188D+00 0.694D+00
 Coeff:     -0.131D-01 0.131D+00 0.188D+00 0.694D+00
 Gap=     0.404 Goal=   None    Shift=    0.000
 RMSDP=1.51D-07 MaxDP=1.61D-06 DE=-1.06D-08 OVMax= 3.36D-06

 Cycle   5  Pass 1  IDiag  1:
 E= -197.771763665661     Delta-E=       -0.000000000134 Rises=F Damp=F
 DIIS: error= 1.42D-07 at cycle   5 NSaved=   5.
 NSaved= 5 IEnMin= 5 EnMin= -197.771763665661     IErMin= 5 ErrMin= 1.42D-07
 ErrMax= 1.42D-07 EMaxC= 1.00D-01 BMatC= 1.91D-12 BMatP= 1.31D-10
 IDIUse=1 WtCom= 1.00D+00 WtEn= 0.00D+00
 Coeff-Com: -0.164D-02 0.121D-01 0.212D-01 0.149D+00 0.819D+00
 Coeff:     -0.164D-02 0.121D-01 0.212D-01 0.149D+00 0.819D+00
 Gap=     0.404 Goal=   None    Shift=    0.000
 RMSDP=2.67D-08 MaxDP=2.69D-07 DE=-1.34D-10 OVMax= 4.92D-07

 Cycle   6  Pass 1  IDiag  1:
 E= -197.771763665663     Delta-E=       -0.000000000001 Rises=F Damp=F
 DIIS: error= 2.80D-08 at cycle   6 NSaved=   6.
 NSaved= 6 IEnMin= 6 EnMin= -197.771763665663     IErMin= 6 ErrMin= 2.80D-08
 ErrMax= 2.80D-08 EMaxC= 1.00D-01 BMatC= 5.90D-14 BMatP= 1.91D-12
 IDIUse=1 WtCom= 1.00D+00 WtEn= 0.00D+00
 Coeff-Com:  0.689D-04-0.173D-02-0.170D-02 0.632D-02 0.170D+00 0.827D+00
 Coeff:      0.689D-04-0.173D-02-0.170D-02 0.632D-02 0.170D+00 0.827D+00
 Gap=     0.404 Goal=   None    Shift=    0.000
 RMSDP=5.27D-09 MaxDP=5.17D-08 DE=-1.36D-12 OVMax= 9.65D-08

 SCF Done:  E(RB3LYP) =  -197.771763666     A.U. after    6 cycles
             Convg  =    0.5275D-08             -V/T =  2.0105
 KE= 1.957116149832D+02 PE=-8.244835039443D+02 EE= 2.468285824226D+02
 Leave Link  502 at Sun Oct  4 11:29:01 2015, MaxMem=  805306368 cpu:      48.2
 (Enter /share/apps/g09/l701.exe)
 Compute integral first derivatives.
 ... and contract with generalized density number  0.
 Leave Link  701 at Sun Oct  4 11:29:01 2015, MaxMem=  805306368 cpu:       0.5
 (Enter /share/apps/g09/l702.exe)
 L702 exits ... SP integral derivatives will be done elsewhere.
 Leave Link  702 at Sun Oct  4 11:29:01 2015, MaxMem=  805306368 cpu:       0.1
 (Enter /share/apps/g09/l703.exe)
 Compute integral first derivatives, UseDBF=F ICtDFT=           0.
 Integral derivatives from FoFDir, PRISM(SPDF).
 Calling FoFJK, ICntrl=      2127 FMM=F ISym2X=0 I1Cent= 0 IOpClX= 0 NMat=1 NMatS=1 NMatT=0.
 FoFCou: FMM=F IPFlag=           0 FMFlag=      100000 FMFlg1=         800
         NFxFlg=           0 DoJE=F BraDBF=F KetDBF=F FulRan=T
         Omega=  0.000000  0.000000  1.000000  0.000000  0.000000 ICntrl=    2127 IOpCl=  0
         NMat0=    1 NMatS0=    1 NMatT0=    0 NMatD0=    1 NMtDS0=    0 NMtDT0=    0
         I1Cent=           0 NGrid=           0.
 Symmetry not used in FoFCou.
 Leave Link  703 at Sun Oct  4 11:29:05 2015, MaxMem=  805306368 cpu:      14.4
 (Enter /share/apps/g09/l716.exe)
 Dipole        = 1.11507159D-09-2.14723349D-02-3.29705041D-09
 ***** Axes restored to original set *****
 -------------------------------------------------------------------
 Center     Atomic                   Forces (Hartrees/Bohr)
 Number     Number              X              Y              Z
 -------------------------------------------------------------------
      1        6          -0.000007658   -0.000008242    0.000000011
      2        1          -0.000001393   -0.000000151    0.000001890
      3        1          -0.000001340   -0.000000180   -0.000001937
      4        1          -0.000013139   -0.000005625   -0.000000013
      5        6          -0.000001899   -0.000000081    0.000000036
      6        1          -0.000003622    0.000006868    0.000000127
      7        1          -0.000003613    0.000006974   -0.000000056
      8        6           0.000000036    0.000012036   -0.000000036
      9        1          -0.000000017   -0.000005628   -0.000005465
     10        1           0.000000018   -0.000005568    0.000005437
     11        6           0.000001874   -0.000000061    0.000000024
     12        1           0.000003607    0.000006928   -0.000000096
     13        1           0.000003609    0.000006927    0.000000086
     14        6           0.000007663   -0.000008237   -0.000000073
     15        1           0.000001375   -0.000000163   -0.000001894
     16        1           0.000013141   -0.000005626    0.000000023
     17        1           0.000001357   -0.000000170    0.000001937
 -------------------------------------------------------------------
 Cartesian Forces:  Max     0.000013141 RMS     0.000004855
 Leave Link  716 at Sun Oct  4 11:29:05 2015, MaxMem=  805306368 cpu:       0.1
 (Enter /share/apps/g09/l103.exe)

 GradGradGradGradGradGradGradGradGradGradGradGradGradGradGradGradGradGrad
 Berny optimization.
 Using GEDIIS/GDIIS optimizer.
 Internal  Forces:  Max     0.000045583 RMS     0.000010306
 Search for a local minimum.
 Step number   2 out of a maximum of   92
 All quantities printed in internal units (Hartrees-Bohrs-Radians)
 RMS Force = .10306D-04 SwitMx=.10000D-02 MixMth= 2
 Mixed Optimization -- En-DIIS/RFO-DIIS
 Swaping is turned off.
 Update second derivatives using D2CorX and points    1    2
 DE= -2.95D-07 DEPred=-3.00D-07 R= 9.86D-01
 Trust test= 9.86D-01 RLast= 2.12D-03 DXMaxT set to 3.00D-01
     Eigenvalues ---    0.00316   0.00316   0.00340   0.00340   0.03379
     Eigenvalues ---    0.03425   0.03425   0.04694   0.04780   0.04811
     Eigenvalues ---    0.05433   0.05433   0.05444   0.05477   0.08410
     Eigenvalues ---    0.08440   0.08500   0.12286   0.12286   0.12330
     Eigenvalues ---    0.15176   0.16000   0.16000   0.16000   0.16000
     Eigenvalues ---    0.16046   0.20117   0.21899   0.23203   0.29053
     Eigenvalues ---    0.29174   0.29223   0.30219   0.33374   0.33616
     Eigenvalues ---    0.33693   0.33738   0.33738   0.33738   0.33945
     Eigenvalues ---    0.33995   0.33996   0.33996   0.34099   0.36967
     Eigenvalues --- 1000.000001000.000001000.000001000.000001000.00000
     Eigenvalues --- 1000.000001000.000001000.000001000.000001000.00000
     Eigenvalues --- 1000.000001000.000001000.000001000.000001000.00000
     Eigenvalues --- 1000.000001000.000001000.000001000.000001000.00000
     Eigenvalues --- 1000.000001000.000001000.000001000.000001000.00000
     Eigenvalues --- 1000.000001000.000001000.000001000.000001000.00000
     Eigenvalues --- 1000.000001000.000001000.000001000.000001000.00000
     Eigenvalues --- 1000.000001000.00000
 En-DIIS/RFO-DIIS IScMMF=        0 using points:     2    1
 RFO step:  Lambda=-1.76249312D-08.
 DIIS coeffs:      0.98664      0.01336
 Iteration  1 RMS(Cart)=  0.00026917 RMS(Int)=  0.00000002
 Iteration  2 RMS(Cart)=  0.00000004 RMS(Int)=  0.00000000
 Variable       Old X    -DE/DX   Delta X   Delta X   Delta X     New X
                                  (DIIS)     (GDIIS)  (Total)
    R1        2.07318   0.00000   0.00000  -0.00002  -0.00002   2.07316
    R2        2.07318   0.00000   0.00000  -0.00002  -0.00002   2.07316
    R3        2.07125   0.00001   0.00001   0.00001   0.00002   2.07127
    R4        2.89526   0.00001   0.00000   0.00003   0.00003   2.89530
    R5        2.07764   0.00000   0.00000  -0.00002  -0.00002   2.07762
    R6        2.07764   0.00000   0.00000  -0.00002  -0.00002   2.07762
    R7        2.89871   0.00003   0.00000   0.00008   0.00008   2.89879
    R8        2.07973  -0.00001   0.00000  -0.00003  -0.00003   2.07970
    R9        2.07973  -0.00001   0.00000  -0.00003  -0.00003   2.07970
   R10        2.89871   0.00003   0.00000   0.00008   0.00008   2.89879
   R11        2.07764   0.00000   0.00000  -0.00002  -0.00002   2.07762
   R12        2.07764   0.00000   0.00000  -0.00002  -0.00002   2.07762
   R13        2.89526   0.00001   0.00000   0.00003   0.00003   2.89530
   R14        2.07318   0.00000   0.00000  -0.00002  -0.00002   2.07316
   R15        2.07125   0.00001   0.00001   0.00001   0.00002   2.07127
   R16        2.07318   0.00000   0.00000  -0.00002  -0.00002   2.07316
    A1        1.87584   0.00000   0.00000  -0.00001  -0.00001   1.87582
    A2        1.87919   0.00000   0.00000  -0.00002  -0.00002   1.87917
    A3        1.94043   0.00000  -0.00001   0.00004   0.00003   1.94046
    A4        1.87919   0.00000   0.00000  -0.00002  -0.00002   1.87917
    A5        1.94043   0.00000  -0.00001   0.00004   0.00003   1.94046
    A6        1.94564   0.00000   0.00001  -0.00002  -0.00001   1.94563
    A7        1.91031  -0.00002   0.00000  -0.00009  -0.00009   1.91022
    A8        1.91031  -0.00002   0.00000  -0.00009  -0.00009   1.91022
    A9        1.97689   0.00005   0.00000   0.00021   0.00021   1.97710
   A10        1.84999   0.00001   0.00000   0.00003   0.00003   1.85002
   A11        1.90601  -0.00001   0.00000  -0.00004  -0.00004   1.90598
   A12        1.90601  -0.00001   0.00000  -0.00004  -0.00004   1.90598
   A13        1.90664   0.00000   0.00000   0.00001   0.00001   1.90665
   A14        1.90664   0.00000   0.00000   0.00001   0.00001   1.90665
   A15        1.98369  -0.00001   0.00001  -0.00008  -0.00008   1.98362
   A16        1.84876   0.00000   0.00000   0.00004   0.00004   1.84879
   A17        1.90664   0.00000   0.00000   0.00001   0.00001   1.90665
   A18        1.90664   0.00000   0.00000   0.00001   0.00001   1.90665
   A19        1.90601  -0.00001   0.00000  -0.00004  -0.00004   1.90598
   A20        1.90601  -0.00001   0.00000  -0.00004  -0.00004   1.90598
   A21        1.97689   0.00005   0.00000   0.00021   0.00021   1.97710
   A22        1.84999   0.00001   0.00000   0.00003   0.00003   1.85002
   A23        1.91031  -0.00002   0.00000  -0.00009  -0.00009   1.91022
   A24        1.91031  -0.00002   0.00000  -0.00009  -0.00009   1.91022
   A25        1.94043   0.00000  -0.00001   0.00004   0.00003   1.94046
   A26        1.94564   0.00000   0.00001  -0.00002  -0.00001   1.94563
   A27        1.94043   0.00000  -0.00001   0.00004   0.00003   1.94046
   A28        1.87919   0.00000   0.00000  -0.00002  -0.00002   1.87917
   A29        1.87584   0.00000   0.00000  -0.00001  -0.00001   1.87582
   A30        1.87919   0.00000   0.00000  -0.00002  -0.00002   1.87917
    D1       -3.10723   0.00000   0.00000   0.00005   0.00005  -3.10718
    D2       -1.08672   0.00000   0.00000  -0.00002  -0.00002  -1.08674
    D3        1.04462   0.00000   0.00000   0.00002   0.00001   1.04463
    D4        1.08672   0.00000   0.00000   0.00002   0.00002   1.08674
    D5        3.10723   0.00000   0.00000  -0.00005  -0.00004   3.10718
    D6       -1.04462   0.00000   0.00000  -0.00001  -0.00001  -1.04463
    D7       -1.01026   0.00000   0.00000   0.00003   0.00003  -1.01022
    D8        1.01025   0.00000   0.00000  -0.00003  -0.00003   1.01022
    D9        3.14159   0.00000   0.00000   0.00000   0.00000   3.14159
   D10        1.00746   0.00000   0.00000   0.00003   0.00003   1.00749
   D11       -1.00747   0.00000   0.00000  -0.00003  -0.00003  -1.00749
   D12        3.14159   0.00000   0.00000   0.00000   0.00000   3.14159
   D13       -1.12627   0.00000   0.00000   0.00003   0.00003  -1.12625
   D14       -3.14120   0.00000   0.00000  -0.00003  -0.00003  -3.14123
   D15        1.00786   0.00000   0.00000   0.00000   0.00000   1.00785
   D16        3.14120   0.00000   0.00000   0.00003   0.00003   3.14123
   D17        1.12627   0.00000   0.00000  -0.00003  -0.00002   1.12625
   D18       -1.00786   0.00000   0.00000   0.00000   0.00000  -1.00786
   D19        1.00786   0.00000   0.00000   0.00000   0.00000   1.00785
   D20       -1.00786   0.00000   0.00000   0.00000   0.00000  -1.00786
   D21        3.14159   0.00000   0.00000   0.00000   0.00000   3.14159
   D22       -3.14120   0.00000   0.00000  -0.00003  -0.00003  -3.14123
   D23        1.12627   0.00000   0.00000  -0.00003  -0.00003   1.12625
   D24       -1.00746   0.00000   0.00000  -0.00003  -0.00003  -1.00749
   D25       -1.12627   0.00000   0.00000   0.00003   0.00003  -1.12625
   D26        3.14120   0.00000   0.00000   0.00003   0.00003   3.14123
   D27        1.00746   0.00000   0.00000   0.00003   0.00003   1.00749
   D28        1.04462   0.00000   0.00000   0.00002   0.00001   1.04463
   D29        3.14159   0.00000   0.00000   0.00000   0.00000   3.14159
   D30       -1.04462   0.00000   0.00000  -0.00002  -0.00001  -1.04463
   D31       -3.10723   0.00000   0.00000   0.00005   0.00005  -3.10718
   D32       -1.01025   0.00000   0.00000   0.00003   0.00003  -1.01022
   D33        1.08672   0.00000   0.00000   0.00002   0.00002   1.08674
   D34       -1.08672   0.00000   0.00000  -0.00002  -0.00002  -1.08674
   D35        1.01025   0.00000   0.00000  -0.00003  -0.00003   1.01022
   D36        3.10723   0.00000   0.00000  -0.00005  -0.00005   3.10718
         Item               Value     Threshold  Converged?
 Maximum Force            0.000046     0.000015     NO 
 RMS     Force            0.000010     0.000010     NO 
 Maximum Displacement     0.000815     0.000060     NO 
 RMS     Displacement     0.000269     0.000040     NO 
 Predicted change in Energy=-1.848779D-08
 GradGradGradGradGradGradGradGradGradGradGradGradGradGradGradGradGradGrad

 Leave Link  103 at Sun Oct  4 11:29:05 2015, MaxMem=  805306368 cpu:       0.0
 (Enter /share/apps/g09/l202.exe)
                          Input orientation:                          
 ---------------------------------------------------------------------
 Center     Atomic      Atomic             Coordinates (Angstroms)
 Number     Number       Type             X           Y           Z
 ---------------------------------------------------------------------
      1          6           0       -2.560883    0.323793    0.000000
      2          1           0       -2.607322    0.971018   -0.884595
      3          1           0       -2.607322    0.971015    0.884596
      4          1           0       -3.458983   -0.304523   -0.000001
      5          6           0       -1.283960   -0.522891   -0.000001
      6          1           0       -1.283481   -1.184556    0.878031
      7          1           0       -1.283480   -1.184554   -0.878034
      8          6           0        0.000000    0.316462    0.000000
      9          1           0        0.000000    0.979329    0.878507
     10          1           0        0.000000    0.979331   -0.878506
     11          6           0        1.283961   -0.522891    0.000000
     12          1           0        1.283481   -1.184555   -0.878033
     13          1           0        1.283480   -1.184556    0.878032
     14          6           0        2.560883    0.323793    0.000001
     15          1           0        2.607322    0.971016    0.884597
     16          1           0        3.458983   -0.304523    0.000001
     17          1           0        2.607322    0.971017   -0.884595
 ---------------------------------------------------------------------
                    Distance matrix (angstroms):
                    1          2          3          4          5
     1  C    0.000000
     2  H    1.097071   0.000000
     3  H    1.097071   1.769192   0.000000
     4  H    1.096067   1.770547   1.770547   0.000000
     5  C    1.532125   2.183015   2.183015   2.185957   0.000000
     6  H    2.162825   3.083165   2.529642   2.505635   1.099428
     7  H    2.162825   2.529642   3.083165   2.505635   1.099428
     8  C    2.560894   2.830031   2.830032   3.514283   1.533972
     9  H    2.785610   3.147495   2.607342   3.792705   2.162636
    10  H    2.785611   2.607342   3.147496   3.792705   2.162636
    11  C    3.936965   4.261027   4.261027   4.747967   2.567921
    12  H    4.221989   4.448020   4.784526   4.902689   2.792936
    13  H    4.221989   4.784526   4.448019   4.902689   2.792937
    14  C    5.121766   5.283157   5.283157   6.052567   3.936965
    15  H    5.283157   5.506591   5.214644   6.261754   4.261027
    16  H    6.052567   6.261754   6.261754   6.917965   4.747967
    17  H    5.283157   5.214644   5.506592   6.261754   4.261027
                    6          7          8          9         10
     6  H    0.000000
     7  H    1.756066   0.000000
     8  C    2.161323   2.161323   0.000000
     9  H    2.515894   3.068412   1.100530   0.000000
    10  H    3.068412   2.515894   1.100530   1.757013   0.000000
    11  C    2.792936   2.792937   1.533972   2.162636   2.162637
    12  H    3.110153   2.566961   2.161323   3.068412   2.515894
    13  H    2.566961   3.110154   2.161323   2.515894   3.068412
    14  C    4.221989   4.221989   2.560894   2.785610   2.785610
    15  H    4.448019   4.784526   2.830031   2.607342   3.147495
    16  H    4.902689   4.902689   3.514283   3.792705   3.792705
    17  H    4.784526   4.448019   2.830032   3.147495   2.607342
                   11         12         13         14         15
    11  C    0.000000
    12  H    1.099428   0.000000
    13  H    1.099428   1.756066   0.000000
    14  C    1.532125   2.162825   2.162825   0.000000
    15  H    2.183015   3.083165   2.529642   1.097071   0.000000
    16  H    2.185957   2.505635   2.505635   1.096067   1.770547
[...]
 ! D24   D(9,8,11,14)          -57.7257         -DE/DX =    0.0                 !
 ! D25   D(10,8,11,12)         -64.5287         -DE/DX =    0.0                 !
 ! D26   D(10,8,11,13)         179.9801         -DE/DX =    0.0                 !
 ! D27   D(10,8,11,14)          57.7257         -DE/DX =    0.0                 !
 ! D28   D(8,11,14,15)          59.853          -DE/DX =    0.0                 !
 ! D29   D(8,11,14,16)         180.0            -DE/DX =    0.0                 !
 ! D30   D(8,11,14,17)         -59.853          -DE/DX =    0.0                 !
 ! D31   D(12,11,14,15)       -178.0283         -DE/DX =    0.0                 !
 ! D32   D(12,11,14,16)        -57.8813         -DE/DX =    0.0                 !
 ! D33   D(12,11,14,17)         62.2656         -DE/DX =    0.0                 !
 ! D34   D(13,11,14,15)        -62.2656         -DE/DX =    0.0                 !
 ! D35   D(13,11,14,16)         57.8813         -DE/DX =    0.0                 !
 ! D36   D(13,11,14,17)        178.0283         -DE/DX =    0.0                 !
 --------------------------------------------------------------------------------
 GradGradGradGradGradGradGradGradGradGradGradGradGradGradGradGradGradGrad

 Leave Link  103 at Sun Oct  4 11:32:05 2015, MaxMem=  805306368 cpu:       0.0
 (Enter /share/apps/g09/l9999.exe)
 1\1\GINC-COMPUTE-0-2\Freq\RB3LYP\6-31G(d)\C5H12\HETANJIN\04-Oct-2015\0
 \\#P Geom=AllCheck Guess=TCheck SCRF=Check GenChk RB3LYP/6-31G(d) Freq
 \\using B3LYP/6-31G(d) to do opt and freq calc.\\0,1\C,-2.560910698,0.
 3237553866,-0.000000191\H,-2.607393438,0.9709807371,-0.8846010594\H,-2
 .6073937283,0.9709792246,0.884601754\H,-3.4589688119,-0.3046399493,-0.
 0000008915\C,-1.2839378395,-0.5228520745,-0.0000007032\H,-1.2834248317
 ,-1.1845161881,0.878036059\H,-1.2834245307,-1.1845146947,-0.8780385727
 \C,0.0000000626,0.3165373941,0.0000002371\H,-0.0000000995,0.9794013112
 ,0.8785102092\H,0.0000002387,0.9794027454,-0.8785086555\C,1.2839379478
 ,-0.5228521043,-0.0000002015\H,1.2834249166,-1.1845147943,-0.878038029
 9\H,1.2834246231,-1.1845161425,0.8780366037\C,2.560910823,0.3237553286
 ,0.000000658\H,2.6073935616,0.9709792539,0.8846025677\H,3.4589689265,-
 0.3046400228,0.0000003665\H,2.6073938765,0.9709805891,-0.8846002458\\V
 ersion=EM64L-G09RevA.01\State=1-A\HF=-197.7717637\RMSD=5.150e-09\RMSF=
 3.766e-07\ZeroPoint=0.1614694\Thermal=0.1685304\Dipole=0.,-0.0214847,0
 .\DipoleDeriv=0.0299189,0.0324225,0.,-0.0363548,0.1107267,0.,0.,0.,0.1
 31786,0.032928,0.0054242,0.0175494,0.0458191,-0.0374163,0.0989885,-0.0
 194385,0.1107617,-0.0902233,0.032928,0.0054243,-0.0175493,0.0458191,-0
 .0374159,-0.0989884,0.0194386,-0.1107616,-0.0902236,-0.1745527,-0.0732
 155,-0.0000001,-0.0947339,-0.0210307,0.,-0.0000001,0.,0.0638659,0.1060
 578,-0.0130534,0.,0.0522406,0.1343926,0.,0.,0.,0.1769142,-0.0173285,0.
 0199755,-0.0180827,-0.0003613,-0.0671981,0.1037477,-0.0022564,0.122555
 8,-0.093978,-0.0173285,0.0199755,0.0180828,-0.0003612,-0.0671977,-0.10
 37476,0.0022564,-0.1225557,-0.0939784,0.0290105,0.,0.,0.,0.1061696,0.,
 0.,0.,0.1840966,-0.0071282,0.,0.,0.,-0.0679452,-0.1005371,0.,-0.117874
 3,-0.0962112,-0.0071282,0.,0.,0.,-0.0679456,0.1005372,0.,0.1178744,-0.
 0962108,0.1060578,0.0130534,0.,-0.0522406,0.1343926,0.,0.,0.,0.1769142
 ,-0.0173285,-0.0199755,-0.0180828,0.0003613,-0.0671977,-0.1037476,-0.0
 022564,-0.1225557,-0.0939784,-0.0173285,-0.0199755,0.0180828,0.0003612
 ,-0.0671981,0.1037477,0.0022564,0.1225558,-0.093978,0.0299189,-0.03242
 25,0.,0.0363548,0.1107267,0.,0.,0.,0.131786,0.032928,-0.0054242,0.0175
 494,-0.0458191,-0.0374159,-0.0989884,-0.0194385,-0.1107616,-0.0902236,
 -0.1745527,0.0732156,0.,0.0947339,-0.0210307,0.,0.,0.,0.0638659,0.0329
 28,-0.0054243,-0.0175493,-0.0458191,-0.0374163,0.0989885,0.0194385,0.1
 107617,-0.0902233\Polar=63.7722201,-0.0000002,51.0058038,0.0000026,0.0
 000009,49.7199617\PG=C01 [X(C5H12)]\NImag=0\\0.51119194,0.04840836,0.5
 4477438,0.00000003,0.,0.57162745,-0.04959822,0.00355019,-0.00616832,0.
 05215423,0.00378297,-0.13780945,0.12224694,-0.00752603,0.14799977,-0.0
 0650067,0.12236948,-0.22124428,0.00689192,-0.13607907,0.23765761,-0.04
 959822,0.00355022,0.00616838,-0.00094055,-0.00062009,-0.00022114,0.052
 15424,0.00378300,-0.13780905,-0.12224681,-0.00062009,0.01323009,0.0163
 5451,-0.00752607,0.14799932,0.00650074,-0.12236935,-0.22124471,0.00022
 114,-0.01635445,-0.02130042,-0.00689200,0.13607893,0.23765808,-0.22160
 999,-0.12486139,-0.00000014,0.00173127,0.00112401,0.00071145,0.0017312
 8,0.00112402,-0.00071144,0.24197777,-0.12552476,-0.13924788,-0.0000001
 0,-0.01490511,-0.01140915,-0.00126477,-0.01490507,-0.01140913,0.001264
 75,0.13544886,0.14891725,-0.00000014,-0.00000010,-0.04996901,0.0233378
 7,0.01587447,0.00089238,-0.02333789,-0.01587449,0.00089235,0.00000015,
 0.00000011,0.04813866,-0.15687142,0.05398651,0.00000003,-0.00128630,0.
 00080101,-0.00029155,-0.00128631,0.00080101,0.00029155,-0.02159636,0.0
 1770082,0.00000001,0.45859282,0.05299866,-0.11882083,-0.00000002,0.016
 88309,-0.01220008,-0.00067485,0.01688305,-0.01220005,0.00067483,-0.017
 58522,0.01315140,0.,-0.00505330,0.53638955,0.00000003,-0.00000002,-0.0
 8158646,-0.02459442,0.01602604,0.00098719,0.02459445,-0.01602606,0.000
 98717,-0.00000002,0.00000002,-0.00136555,-0.00000003,-0.00000003,0.592
 73352,-0.00143789,0.01797408,-0.02441101,-0.00483469,0.00379208,0.0003
 1985,0.00117696,-0.00067893,0.00051694,0.00099223,-0.00085597,-0.00019
 431,-0.04818773,-0.00028791,0.00015386,0.05689664,0.00098170,-0.011714
 42,0.01544999,0.00344992,-0.00132779,-0.00026386,-0.00077913,0.0001946
 7,-0.00010597,-0.00004659,0.00085398,-0.00034723,-0.00017186,-0.137479
 04,0.11761347,0.00005971,0.14944476,-0.00007953,-0.00093816,0.00090285
 ,0.00011639,-0.00055888,0.00167200,-0.00040325,0.00019065,0.00086623,-
 0.00061358,0.00000113,0.00005108,0.00003247,0.11799353,-0.21475890,-0.
 00003009,-0.13179354,0.23037184,-0.00143790,0.01797404,0.02441104,0.00
 117696,-0.00067893,-0.00051694,-0.00483469,0.00379208,-0.00031985,0.00
 099223,-0.00085597,0.00019430,-0.04818773,-0.00028787,-0.00015380,-0.0
 0039933,-0.00003630,0.00003724,0.05689664,0.00098171,-0.01171440,-0.01
 545001,-0.00077913,0.00019467,0.00010597,0.00344992,-0.00132779,0.0002
 6385,-0.00004659,0.00085398,0.00034723,-0.00017182,-0.13747865,-0.1176
 1336,-0.00003631,0.01278275,0.01589560,0.00005966,0.14944432,0.0000795
 3,0.00093815,0.00090284,0.00040324,-0.00019065,0.00086623,-0.00011639,
 0.00055888,0.00167200,0.00061358,-0.00000113,0.00005109,-0.00003241,-0
 .11799342,-0.21475932,-0.00003723,-0.01589554,-0.02235142,0.00003003,0
 .13179342,0.23037231,-0.03031138,-0.01432789,-0.00000002,0.00197918,-0
 .00118704,0.00030930,0.00197918,-0.00118704,-0.00030930,-0.00339038,0.
 00249206,0.,-0.14823178,-0.05036006,-0.00000005,-0.00186661,-0.0013887
 4,0.00016805,-0.00186660,-0.00138873,-0.00016805,0.46000601,0.01497000
 ,0.01401674,0.00000001,0.00082031,0.00036571,-0.00004909,0.00082030,0.
 00036571,0.00004909,0.00598061,-0.00257191,0.,-0.05137034,-0.11856639,
 -0.00000004,-0.01729207,-0.01265088,-0.00022294,-0.01729203,-0.0126508
 5,0.00022292,0.,0.53512411,0.,0.,-0.00012707,-0.00130976,-0.00030996,0
 .00002784,0.00130976,0.00030996,0.00002784,0.,0.,0.00023280,-0.0000000
 6,-0.00000004,-0.08186016,0.02417998,0.01660490,-0.00002496,-0.0241800
 1,-0.01660492,-0.00002499,-0.00000002,-0.00000004,0.58929222,0.0017637
 9,-0.00067772,-0.00103836,-0.00010297,0.00005508,-0.00000718,-0.000322
 04,0.00057188,0.00063513,0.00032419,0.00011415,0.00033843,-0.00189755,
 -0.01723703,-0.02409459,0.00111086,0.00073378,0.00047947,-0.00484141,-
 0.00347707,0.00009239,-0.04829463,0.00000002,0.00000003,0.05660091,0.0
 0114990,0.00049137,0.00030332,-0.00008129,0.00008804,0.00008251,-0.000
 57778,0.00068928,0.00023848,0.00008846,0.00004010,0.00033910,-0.001181
 18,-0.01259589,-0.01648039,0.00074182,0.00029603,0.00012795,-0.0033679
 2,-0.00164662,0.00019073,0.00000002,-0.13586999,-0.11626628,-0.0000000
 2,0.14856305,0.00024544,0.00008689,0.00007694,0.00002953,-0.00007077,-
 0.00004821,-0.00067302,0.00023690,0.00024337,-0.00015517,0.00027506,0.
 00026300,0.00010209,0.00023774,-0.00005462,-0.00049211,-0.00015485,0.0
 0095814,0.00014091,0.00019494,0.00175076,0.00000003,-0.11644825,-0.212
 89761,-0.00000003,0.13074960,0.22883689,0.00176379,-0.00067773,0.00103
 836,-0.00032204,0.00057189,-0.00063513,-0.00010297,0.00005508,0.000007
 18,0.00032419,0.00011415,-0.00033843,-0.00189756,-0.01723707,0.0240945
 6,-0.00484141,-0.00347707,-0.00009240,0.00111086,0.00073378,-0.0004794
 7,-0.04829463,-0.00000002,0.00000003,-0.00037602,0.,0.,0.05660091,0.00
 114990,0.00049137,-0.00030332,-0.00057778,0.00068928,-0.00023848,-0.00
 008129,0.00008804,-0.00008251,0.00008846,0.00004010,-0.00033910,-0.001
 18119,-0.01259592,0.01648037,-0.00336792,-0.00164662,-0.00019074,0.000
 74182,0.00029603,-0.00012795,-0.00000002,-0.13587037,0.11626640,0.,0.0
 1258233,-0.01591321,0.00000003,0.14856347,-0.00024544,-0.00008689,0.00
 007694,0.00067302,-0.00023690,0.00024337,-0.00002953,0.00007077,-0.000
 04821,0.00015517,-0.00027506,0.00026300,-0.00010209,-0.00023777,-0.000
 05458,-0.00014092,-0.00019495,0.00175076,0.00049211,0.00015485,0.00095
 814,0.00000003,0.11644837,-0.21289723,0.,0.01591326,-0.02231806,-0.000
 00003,-0.13074973,0.22883646,-0.00273873,-0.00324218,0.,-0.00009601,0.
 00000670,-0.00015001,-0.00009601,0.00000670,0.00015001,-0.00078131,0.0
 0095090,0.,-0.02899468,0.01408196,0.,0.00177833,0.00117779,-0.00034424
 ,0.00177833,0.00117779,0.00034424,-0.14823178,0.05137034,0.00000003,-0
 .00189756,0.00118119,-0.00010209,-0.00189755,0.00118118,0.00010209,0.4
 5859282,-0.00380209,-0.00396441,0.,0.00013017,0.00012355,-0.00029662,0
 .00013017,0.00012355,0.00029662,-0.00188663,0.00095840,0.,-0.01408196,
 0.01471512,0.00000001,-0.00088666,0.00021985,0.00007940,-0.00088666,0.
 00021985,-0.00007940,0.05036005,-0.11856640,-0.00000002,0.01723703,-0.
 01259589,0.00023775,0.01723707,-0.01259592,-0.00023777,0.00505330,0.53
 638955,0.,0.,-0.00065577,0.00013622,-0.00021038,0.00029007,-0.00013622
 ,0.00021038,0.00029007,0.,0.,0.00059981,-0.00000002,0.00000001,-0.0006
 9964,0.00116643,-0.00011389,-0.00004641,-0.00116643,0.00011389,-0.0000
 4641,0.00000003,-0.00000002,-0.08186016,0.02409459,-0.01648039,-0.0000
 5461,-0.02409456,0.01648037,-0.00005459,-0.00000002,-0.00000005,0.5927
 3352,-0.00005524,0.00005760,-0.00014828,0.00002415,0.00000853,0.000016
 57,0.00011707,-0.00020589,-0.00017341,-0.00001427,-0.00008104,-0.00007
 551,0.00177833,0.00088666,0.00116643,-0.00008795,-0.00006541,-0.000004
 01,-0.00037111,-0.00055186,-0.00064676,-0.00186661,0.01729203,0.024180
 01,-0.00484141,0.00336792,-0.00014092,0.00111086,-0.00074182,-0.000492
 11,-0.04818773,0.00028791,0.00015386,0.05689664,0.00005497,0.00012965,
 0.00028809,0.00000244,-0.00005224,-0.00001001,-0.00023228,0.00008666,0
 .00007787,0.00006083,0.00003645,0.00004794,-0.00117779,0.00021985,0.00
 011389,0.00006541,0.00008758,0.00008900,0.00055186,0.00073861,0.000305
 65,0.00138874,-0.01265085,-0.01660492,0.00347707,-0.00164662,0.0001949
 4,-0.00073378,0.00029603,0.00015485,0.00017186,-0.13747867,-0.11761335
 ,-0.00005970,0.14944434,0.00019507,0.00032199,0.00033587,-0.00002500,0
 .00000135,-0.00001965,-0.00019317,0.00008362,-0.00001320,0.00010982,-0
 .00003963,-0.00001940,-0.00034424,-0.00007940,-0.00004641,-0.00000401,
 -0.00008899,-0.00002495,0.00064676,0.00030565,0.00035011,0.00016805,0.
 00022292,-0.00002498,-0.00009239,0.00019073,0.00175076,0.00047947,-0.0
 0012795,0.00095814,0.00003246,-0.11799342,-0.21475929,-0.00003008,0.13
 179341,0.23037228,-0.00005524,0.00005760,0.00014828,0.00011707,-0.0002
 0589,0.00017341,0.00002415,0.00000853,-0.00001657,-0.00001427,-0.00008
 104,0.00007551,0.00177833,0.00088666,-0.00116643,-0.00037111,-0.000551
 86,0.00064676,-0.00008795,-0.00006541,0.00000401,-0.00186660,0.0172920
 7,-0.02417998,0.00111086,-0.00074182,0.00049211,-0.00484141,0.00336792
 ,0.00014092,-0.04818773,0.00028787,-0.00015380,-0.00039933,0.00003630,
 0.00003724,0.05689664,0.00005497,0.00012965,-0.00028809,-0.00023228,0.
 00008666,-0.00007787,0.00000244,-0.00005224,0.00001000,0.00006083,0.00
 003645,-0.00004794,-0.00117779,0.00021985,-0.00011389,0.00055186,0.000
 73861,-0.00030565,0.00006541,0.00008758,-0.00008900,0.00138873,-0.0126
 5088,0.01660490,-0.00073378,0.00029603,-0.00015485,0.00347707,-0.00164
 662,-0.00019495,0.00017182,-0.13747903,0.11761348,0.00003631,0.0127827
 5,-0.01589554,-0.00005966,0.14944475,-0.00019507,-0.00032199,0.0003358
 7,0.00019317,-0.00008362,-0.00001320,0.00002500,-0.00000135,-0.0000196
 5,-0.00010982,0.00003963,-0.00001940,0.00034424,0.00007940,-0.00004641
 ,-0.00064676,-0.00030565,0.00035011,0.00000401,0.00008900,-0.00002495,
 -0.00016805,-0.00022294,-0.00002497,-0.00047947,0.00012795,0.00095814,
 0.00009239,-0.00019074,0.00175076,-0.00003241,0.11799354,-0.21475894,-
 0.00003723,0.01589560,-0.02235142,0.00003003,-0.13179354,0.23037188,-0
 .00064920,-0.00130211,0.,0.00003960,0.00001056,-0.00004908,0.00003960,
 0.00001056,0.00004908,-0.00043529,0.00027026,0.,-0.00273873,0.00380209
 ,0.,-0.00005524,-0.00005497,0.00019507,-0.00005524,-0.00005497,-0.0001
 9507,-0.03031138,-0.01497000,-0.00000002,0.00176379,-0.00114990,-0.000
 24544,0.00176379,-0.00114990,0.00024544,-0.15687143,-0.05299866,-0.000
 00005,-0.00143789,-0.00098170,-0.00007953,-0.00143790,-0.00098171,0.00
 007953,0.51119194,0.00130211,0.00137630,0.,-0.00009058,-0.00000900,0.0
 0006487,-0.00009058,-0.00000900,-0.00006487,0.00065073,-0.00031101,0.,
 0.00324218,-0.00396441,0.,-0.00005760,0.00012965,-0.00032199,-0.000057
 60,0.00012965,0.00032199,0.01432789,0.01401674,0.00000001,0.00067772,0
 .00049137,0.00008689,0.00067773,0.00049137,-0.00008689,-0.05398651,-0.
 11882083,-0.00000004,-0.01797404,-0.01171440,0.00093814,-0.01797408,-0
 .01171442,-0.00093817,-0.04840836,0.54477438,0.,0.,0.00063926,0.000073
 30,-0.00005265,-0.00002981,-0.00007330,0.00005265,-0.00002981,0.,0.,-0
 .00001108,0.,0.,-0.00065577,-0.00014828,-0.00028809,0.00033587,0.00014
 828,0.00028809,0.00033587,0.,0.,-0.00012707,0.00103836,0.00030332,0.00
 007694,-0.00103836,-0.00030332,0.00007694,-0.00000005,-0.00000004,-0.0
 8158646,-0.02441104,-0.01545001,0.00090283,0.02441101,0.01544999,0.000
 90286,-0.00000004,-0.00000005,0.57162745,0.00003960,0.00009058,0.00007
 330,-0.00000875,-0.00000011,-0.00000234,-0.00006017,0.00003343,0.00001
 882,0.00002722,-0.00000950,0.00000522,-0.00009601,-0.00013017,0.000136
 22,0.00002415,-0.00000244,-0.00002500,0.00011707,0.00023228,0.00019317
 ,0.00197918,-0.00082030,-0.00130976,-0.00032204,0.00057778,0.00067302,
 -0.00010297,0.00008129,0.00002953,-0.00128630,-0.01688305,-0.02459445,
 -0.00483469,-0.00344992,0.00011638,0.00117696,0.00077913,0.00040325,-0
 .04959822,-0.00355018,-0.00616832,0.05215423,-0.00001056,-0.00000900,0
 .00005265,0.00000011,0.00000709,-0.00000022,-0.00003343,0.00002656,0.0
 0000574,-0.00003182,-0.00000372,-0.00000405,-0.00000670,0.00012355,0.0
 0021038,-0.00000853,-0.00005224,-0.00000135,0.00020589,0.00008666,0.00
 008362,0.00118704,0.00036571,0.00030996,-0.00057189,0.00068928,0.00023
 690,-0.00005508,0.00008804,0.00007077,-0.00080101,-0.01220005,-0.01602
 606,-0.00379209,-0.00132779,0.00055888,0.00067893,0.00019467,0.0001906
 5,-0.00378296,-0.13780906,-0.12224681,0.00752602,0.14799934,-0.0000490
 8,-0.00006487,-0.00002981,-0.00000234,0.00000022,-0.00000786,-0.000018
 82,0.00000574,0.00002328,-0.00002965,0.00001674,0.00000346,-0.00015001
 ,0.00029662,0.00029007,0.00001657,0.00001001,-0.00001965,0.00017341,0.
 00007787,-0.00001320,0.00030930,0.00004909,0.00002784,-0.00063513,0.00
 023848,0.00024337,-0.00000718,-0.00008251,-0.00004821,-0.00029155,0.00
 067483,0.00098716,0.00031985,0.00026385,0.00167200,-0.00051694,-0.0001
 0597,0.00086623,-0.00650068,-0.12236934,-0.22124468,0.00689193,0.13607
 892,0.23765805,-0.00043529,-0.00065073,0.,0.00002722,0.00003182,-0.000
 02965,0.00002722,0.00003182,0.00002965,-0.00028572,0.00013676,0.,-0.00
 078131,0.00188663,0.,-0.00001427,-0.00006083,0.00010982,-0.00001427,-0
 .00006083,-0.00010982,-0.00339038,-0.00598061,0.,0.00032419,-0.0000884
 6,0.00015517,0.00032419,-0.00008846,-0.00015517,-0.02159636,0.01758522
 ,0.,0.00099223,0.00004659,-0.00061358,0.00099223,0.00004659,0.00061358
 ,-0.22160999,0.12486139,0.00000006,0.00173127,-0.00112401,0.00071144,0
 .24197776,-0.00027026,-0.00031101,0.,0.00000950,-0.00000372,-0.0000167
 4,0.00000950,-0.00000372,0.00001674,-0.00013676,0.00006844,0.,-0.00095
 090,0.00095840,0.,0.00008104,0.00003645,0.00003963,0.00008104,0.000036
 45,-0.00003963,-0.00249206,-0.00257191,0.,-0.00011415,0.00004010,0.000
 27506,-0.00011415,0.00004010,-0.00027506,-0.01770082,0.01315140,0.,0.0
 0085597,0.00085398,-0.00000113,0.00085597,0.00085398,0.00000113,0.1255
 2476,-0.13924789,-0.00000004,0.01490507,-0.01140913,0.00126475,-0.1354
 4886,0.14891726,0.,0.,-0.00001108,0.00000522,0.00000405,0.00000346,-0.
 00000522,-0.00000405,0.00000346,0.,0.,-0.00000667,0.,0.,0.00059981,-0.
 00007551,-0.00004794,-0.00001940,0.00007551,0.00004794,-0.00001940,0.,
 0.,0.00023280,-0.00033843,0.00033910,0.00026300,0.00033843,-0.00033910
 ,0.00026300,-0.00000002,0.00000001,-0.00136555,-0.00019430,0.00034723,
 0.00005109,0.00019431,-0.00034723,0.00005109,0.00000006,-0.00000004,-0
 .04996901,0.02333789,-0.01587449,0.00089236,-0.00000006,0.00000005,0.0
 4813866,0.00003960,0.00009058,-0.00007330,-0.00006017,0.00003343,-0.00
 001882,-0.00000875,-0.00000011,0.00000234,0.00002722,-0.00000950,-0.00
 000522,-0.00009601,-0.00013017,-0.00013622,0.00011707,0.00023228,-0.00
 019317,0.00002415,-0.00000244,0.00002500,0.00197918,-0.00082031,0.0013
 0976,-0.00010297,0.00008129,-0.00002953,-0.00032204,0.00057778,-0.0006
 7302,-0.00128631,-0.01688309,0.02459443,0.00117696,0.00077913,-0.00040
 324,-0.00483469,-0.00344992,-0.00011639,-0.04959822,-0.00355023,0.0061
 6838,-0.00094055,0.00062009,-0.00022114,0.00173128,0.01490510,-0.02333
 787,0.05215424,-0.00001056,-0.00000900,-0.00005265,-0.00003343,0.00002
 656,-0.00000574,0.00000011,0.00000709,0.00000022,-0.00003182,-0.000003
 72,0.00000405,-0.00000670,0.00012355,-0.00021038,0.00020589,0.00008666
 ,-0.00008362,-0.00000853,-0.00005224,0.00000135,0.00118704,0.00036571,
 -0.00030996,-0.00005508,0.00008804,-0.00007077,-0.00057189,0.00068928,
 -0.00023690,-0.00080101,-0.01220008,0.01602604,0.00067893,0.00019467,-
 0.00019065,-0.00379208,-0.00132779,-0.00055888,-0.00378301,-0.13780944
 ,0.12224695,0.00062009,0.01323009,-0.01635445,-0.00112402,-0.01140915,
 0.01587447,0.00752608,0.14799975,0.00004908,0.00006487,-0.00002981,0.0
 0001882,-0.00000574,0.00002328,0.00000234,-0.00000022,-0.00000786,0.00
 002965,-0.00001674,0.00000346,0.00015001,-0.00029662,0.00029007,-0.000
 17341,-0.00007787,-0.00001320,-0.00001657,-0.00001001,-0.00001965,-0.0
 0030930,-0.00004909,0.00002784,0.00000718,0.00008251,-0.00004821,0.000
 63513,-0.00023848,0.00024337,0.00029155,-0.00067485,0.00098720,0.00051
 694,0.00010597,0.00086623,-0.00031986,-0.00026386,0.00167200,0.0065007
 4,0.12236948,-0.22124431,0.00022115,0.01635450,-0.02130042,-0.00071145
 ,-0.00126477,0.00089237,-0.00689199,-0.13607907,0.23765765\\0.00000012
 ,0.00000070,0.,-0.00000015,-0.00000013,0.00000018,-0.00000015,-0.00000
 014,-0.00000018,0.00000006,-0.00000010,0.,0.00000086,-0.00000107,0.,-0
 .00000033,0.00000043,-0.00000015,-0.00000033,0.00000043,0.00000016,0.,
 0.00000068,0.,0.,-0.00000045,-0.00000005,0.,-0.00000045,0.00000005,-0.
 00000085,-0.00000108,0.,0.00000033,0.00000043,0.00000016,0.00000033,0.
 00000043,-0.00000016,-0.00000012,0.00000070,0.,0.00000015,-0.00000013,
 -0.00000018,-0.00000006,-0.00000010,0.,0.00000015,-0.00000013,0.000000
 18\\\@


 YOU CAN LEAD A BOY TO COLLEGE....
 BUT YOU CANNOT MAKE HIM THINK....
           ELBERT HUBBARD
 Job cpu time:  0 days  0 hours 10 minutes  9.0 seconds.
 File lengths (MBytes):  RWF=     27 Int=      0 D2E=      0 Chk=      2 Scr=      1
 Normal termination of Gaussian 09 at Sun Oct  4 11:32:05 2015.
