 Entering Gaussian System, Link 0=/share/apps/g09/g09
 Input=C5H10_5_2_opt_631gd.gjf
 Output=C5H10_5_2_opt_631gd.log
 Initial command:
 /share/apps/g09/l1.exe /state/partition1/Gau-23225.inp -scrdir=/state/partition1/
 Entering Link 1 = /share/apps/g09/l1.exe PID=     23226.
  
 Copyright (c) 1988,1990,1992,1993,1995,1998,2003,2009, Gaussian, Inc.
                  All Rights Reserved.
  
 This is part of the Gaussian(R) 09 program.  It is based on
 the Gaussian(R) 03 system (copyright 2003, Gaussian, Inc.),
 the Gaussian(R) 98 system (copyright 1998, Gaussian, Inc.),
 the Gaussian(R) 94 system (copyright 1995, Gaussian, Inc.),
 the Gaussian 92(TM) system (copyright 1992, Gaussian, Inc.),
 the Gaussian 90(TM) system (copyright 1990, Gaussian, Inc.),
 the Gaussian 88(TM) system (copyright 1988, Gaussian, Inc.),
 the Gaussian 86(TM) system (copyright 1986, Carnegie Mellon
 University), and the Gaussian 82(TM) system (copyright 1983,
 Carnegie Mellon University). Gaussian is a federally registered
 trademark of Gaussian, Inc.
  
 This software contains proprietary and confidential information,
 including trade secrets, belonging to Gaussian, Inc.
  
 This software is provided under written license and may be
 used, copied, transmitted, or stored only in accord with that
 written license.
  
 The following legend is applicable only to US Government
 contracts under FAR:
  
                    RESTRICTED RIGHTS LEGEND
  
 Use, reproduction and disclosure by the US Government is
 subject to restrictions as set forth in subparagraphs (a)
 and (c) of the Commercial Computer Software - Restricted
 Rights clause in FAR 52.227-19.
  
 Gaussian, Inc.
 340 Quinnipiac St., Bldg. 40, Wallingford CT 06492
  
  
 ---------------------------------------------------------------
 Warning -- This program may not be used in any manner that
 competes with the business of Gaussian, Inc. or will provide
 assistance to any competitor of Gaussian, Inc.  The licensee
 of this program is prohibited from giving any competitor of
 Gaussian, Inc. access to this program.  By using this program,
 the user acknowledges that Gaussian, Inc. is engaged in the
 business of creating and licensing software in the field of
 computational chemistry and represents and warrants to the
 licensee that it is not a competitor of Gaussian, Inc. and that
 it will not use this program in any manner prohibited above.
 ---------------------------------------------------------------
  

 Cite this work as:
 Gaussian 09, Revision A.01,
 M. J. Frisch, G. W. Trucks, H. B. Schlegel, G. E. Scuseria, 
 M. A. Robb, J. R. Cheeseman, G. Scalmani, V. Barone, B. Mennucci, 
 G. A. Petersson, H. Nakatsuji, M. Caricato, X. Li, H. P. Hratchian, 
 A. F. Izmaylov, J. Bloino, G. Zheng, J. L. Sonnenberg, M. Hada, 
 M. Ehara, K. Toyota, R. Fukuda, J. Hasegawa, M. Ishida, T. Nakajima, 
 Y. Honda, O. Kitao, H. Nakai, T. Vreven, J. A. Montgomery, Jr., 
 J. E. Peralta, F. Ogliaro, M. Bearpark, J. J. Heyd, E. Brothers, 
 K. N. Kudin, V. N. Staroverov, R. Kobayashi, J. Normand, 
 K. Raghavachari, A. Rendell, J. C. Burant, S. S. Iyengar, J. Tomasi, 
 M. Cossi, N. Rega, J. M. Millam, M. Klene, J. E. Knox, J. B. Cross, 
 V. Bakken, C. Adamo, J. Jaramillo, R. Gomperts, R. E. Stratmann, 
 O. Yazyev, A. J. Austin, R. Cammi, C. Pomelli, J. W. Ochterski, 
 R. L. Martin, K. Morokuma, V. G. Zakrzewski, G. A. Voth, 
 P. Salvador, J. J. Dannenberg, S. Dapprich, A. D. Daniels, 
 O. Farkas, J. B. Foresman, J. V. Ortiz, J. Cioslowski, 
 and D. J. Fox, Gaussian, Inc., Wallingford CT, 2009.
 
 ******************************************
 Gaussian 09:  EM64L-G09RevA.01  8-May-2009
                22-Aug-2015 
 ******************************************
 %mem=28GB
 %nprocshared=12
 Will use up to   12 processors via shared memory.
 %chk=C5H10_5_2_opt_631gd.chk
 --------------------------
 #p b3lyp/6-31g(d) opt freq
 --------------------------
 1/14=-1,18=20,19=15,26=3,38=1/1,3;
 2/9=110,12=2,17=6,18=5,40=1/2;
 3/5=1,6=6,7=1,11=2,16=1,25=1,30=1,71=1,74=-5/1,2,3;
 4//1;
 5/5=2,38=5/2;
 6/7=2,8=2,9=2,10=2,28=1/1;
 7//1,2,3,16;
 1/14=-1,18=20,19=15/3(2);
 2/9=110/2;
 99//99;
 2/9=110/2;
 3/5=1,6=6,7=1,11=2,16=1,25=1,30=1,71=1,74=-5/1,2,3;
 4/5=5,16=3/1;
 5/5=2,38=5/2;
 7//1,2,3,16;
 1/14=-1,18=20,19=15/3(-5);
 2/9=110/2;
 6/7=2,8=2,9=2,10=2,19=2,28=1/1;
 99/9=1/99;
 Leave Link    1 at Sat Aug 22 15:16:30 2015, MaxMem= 3758096384 cpu:       0.3
 (Enter /share/apps/g09/l101.exe)
 -----------------------------
 using ub3lyp/6-31G(d) to scan
 -----------------------------
 Symbolic Z-matrix:
 Charge =  0 Multiplicity = 1
 C                    -1.56542  -0.70198   0.5308 
 C                    -0.589    -0.02975  -0.08772 
 C                     0.74563  -0.67748  -0.39746 
 H                     0.9819   -0.53253  -1.4623 
 C                     1.91154  -0.13111   0.4467 
 H                     2.06922   0.94018   0.27906 
 H                     1.71998  -0.27848   1.5154 
 H                     2.84594  -0.64529   0.1946 
 H                    -1.44556  -1.74209   0.82523 
 H                    -2.52157  -0.23971   0.76474 
 H                     0.66722  -1.75983  -0.23953 
 C                    -0.75783   1.41152  -0.50523 
 H                    -0.02173   2.06389  -0.01727 
 H                    -0.60715   1.52657  -1.58769 
 H                    -1.75513   1.78864  -0.2589 
 
 NAtoms=     15 NQM=     15 NQMF=      0 NMic=      0 NMicF=      0 NTot=     15.
                    Isotopes and Nuclear Properties:
 (Nuclear quadrupole moments (NQMom) in fm**2, nuclear magnetic moments (NMagM)
  in nuclear magnetons)

  Atom         1           2           3           4           5           6           7           8           9          10
 IAtWgt=          12          12          12           1          12           1           1           1           1           1
 AtmWgt=  12.0000000  12.0000000  12.0000000   1.0078250  12.0000000   1.0078250   1.0078250   1.0078250   1.0078250   1.0078250
 NucSpn=           0           0           0           1           0           1           1           1           1           1
 AtZEff=   0.0000000   0.0000000   0.0000000   0.0000000   0.0000000   0.0000000   0.0000000   0.0000000   0.0000000   0.0000000
 NQMom=    0.0000000   0.0000000   0.0000000   0.0000000   0.0000000   0.0000000   0.0000000   0.0000000   0.0000000   0.0000000
 NMagM=    0.0000000   0.0000000   0.0000000   2.7928460   0.0000000   2.7928460   2.7928460   2.7928460   2.7928460   2.7928460

  Atom        11          12          13          14          15
 IAtWgt=           1          12           1           1           1
 AtmWgt=   1.0078250  12.0000000   1.0078250   1.0078250   1.0078250
 NucSpn=           1           0           1           1           1
 AtZEff=   0.0000000   0.0000000   0.0000000   0.0000000   0.0000000
 NQMom=    0.0000000   0.0000000   0.0000000   0.0000000   0.0000000
 NMagM=    2.7928460   0.0000000   2.7928460   2.7928460   2.7928460
 Leave Link  101 at Sat Aug 22 15:16:30 2015, MaxMem= 3758096384 cpu:       0.7
 (Enter /share/apps/g09/l103.exe)

 GradGradGradGradGradGradGradGradGradGradGradGradGradGradGradGradGradGrad
 Berny optimization.
 Initialization pass.
                           ----------------------------
                           !    Initial Parameters    !
                           ! (Angstroms and Degrees)  !
 --------------------------                            --------------------------
 ! Name  Definition              Value          Derivative Info.                !
 --------------------------------------------------------------------------------
 ! R1    R(1,2)                  1.3371         estimate D2E/DX2                !
 ! R2    R(1,9)                  1.0876         estimate D2E/DX2                !
 ! R3    R(1,10)                 1.0875         estimate D2E/DX2                !
 ! R4    R(2,3)                  1.5155         estimate D2E/DX2                !
 ! R5    R(2,12)                 1.51           estimate D2E/DX2                !
 ! R6    R(3,4)                  1.1003         estimate D2E/DX2                !
 ! R7    R(3,5)                  1.5396         estimate D2E/DX2                !
 ! R8    R(3,11)                 1.0966         estimate D2E/DX2                !
 ! R9    R(5,6)                  1.0957         estimate D2E/DX2                !
 ! R10   R(5,7)                  1.0957         estimate D2E/DX2                !
 ! R11   R(5,8)                  1.0959         estimate D2E/DX2                !
 ! R12   R(12,13)                1.098          estimate D2E/DX2                !
 ! R13   R(12,14)                1.0989         estimate D2E/DX2                !
 ! R14   R(12,15)                1.0943         estimate D2E/DX2                !
 ! A1    A(2,1,9)              121.7048         estimate D2E/DX2                !
 ! A2    A(2,1,10)             121.8602         estimate D2E/DX2                !
 ! A3    A(9,1,10)             116.4349         estimate D2E/DX2                !
 ! A4    A(1,2,3)              121.5174         estimate D2E/DX2                !
 ! A5    A(1,2,12)             121.7441         estimate D2E/DX2                !
 ! A6    A(3,2,12)             116.7378         estimate D2E/DX2                !
 ! A7    A(2,3,4)              109.3042         estimate D2E/DX2                !
 ! A8    A(2,3,5)              113.7754         estimate D2E/DX2                !
 ! A9    A(2,3,11)             109.2351         estimate D2E/DX2                !
 ! A10   A(4,3,5)              108.7384         estimate D2E/DX2                !
 ! A11   A(4,3,11)             106.5437         estimate D2E/DX2                !
 ! A12   A(5,3,11)             108.9923         estimate D2E/DX2                !
 ! A13   A(3,5,6)              111.8423         estimate D2E/DX2                !
 ! A14   A(3,5,7)              110.7722         estimate D2E/DX2                !
 ! A15   A(3,5,8)              110.6728         estimate D2E/DX2                !
 ! A16   A(6,5,7)              107.8115         estimate D2E/DX2                !
 ! A17   A(6,5,8)              107.5069         estimate D2E/DX2                !
 ! A18   A(7,5,8)              108.079          estimate D2E/DX2                !
 ! A19   A(2,12,13)            111.6709         estimate D2E/DX2                !
 ! A20   A(2,12,14)            110.9131         estimate D2E/DX2                !
 ! A21   A(2,12,15)            111.6288         estimate D2E/DX2                !
 ! A22   A(13,12,14)           106.4769         estimate D2E/DX2                !
 ! A23   A(13,12,15)           107.8302         estimate D2E/DX2                !
 ! A24   A(14,12,15)           108.0957         estimate D2E/DX2                !
 ! D1    D(9,1,2,3)             -0.7415         estimate D2E/DX2                !
 ! D2    D(9,1,2,12)           179.5793         estimate D2E/DX2                !
 ! D3    D(10,1,2,3)           179.3722         estimate D2E/DX2                !
 ! D4    D(10,1,2,12)           -0.307          estimate D2E/DX2                !
 ! D5    D(1,2,3,4)            128.2305         estimate D2E/DX2                !
 ! D6    D(1,2,3,5)           -110.0162         estimate D2E/DX2                !
 ! D7    D(1,2,3,11)            12.0138         estimate D2E/DX2                !
 ! D8    D(12,2,3,4)           -52.075          estimate D2E/DX2                !
 ! D9    D(12,2,3,5)            69.6783         estimate D2E/DX2                !
 ! D10   D(12,2,3,11)         -168.2917         estimate D2E/DX2                !
 ! D11   D(1,2,12,13)          119.4386         estimate D2E/DX2                !
 ! D12   D(1,2,12,14)         -121.9697         estimate D2E/DX2                !
 ! D13   D(1,2,12,15)           -1.3584         estimate D2E/DX2                !
 ! D14   D(3,2,12,13)          -60.2551         estimate D2E/DX2                !
 ! D15   D(3,2,12,14)           58.3366         estimate D2E/DX2                !
 ! D16   D(3,2,12,15)          178.9479         estimate D2E/DX2                !
 ! D17   D(2,3,5,6)            -61.1505         estimate D2E/DX2                !
 ! D18   D(2,3,5,7)             59.1471         estimate D2E/DX2                !
 ! D19   D(2,3,5,8)            179.006          estimate D2E/DX2                !
 ! D20   D(4,3,5,6)             60.916          estimate D2E/DX2                !
 ! D21   D(4,3,5,7)           -178.7864         estimate D2E/DX2                !
 ! D22   D(4,3,5,8)            -58.9275         estimate D2E/DX2                !
 ! D23   D(11,3,5,6)           176.6853         estimate D2E/DX2                !
 ! D24   D(11,3,5,7)           -63.0171         estimate D2E/DX2                !
 ! D25   D(11,3,5,8)            56.8418         estimate D2E/DX2                !
 --------------------------------------------------------------------------------
 Trust Radius=3.00D-01 FncErr=1.00D-07 GrdErr=1.00D-06
 Number of steps in this run=  73 maximum allowed number of steps= 100.
 GradGradGradGradGradGradGradGradGradGradGradGradGradGradGradGradGradGrad

 Leave Link  103 at Sat Aug 22 15:16:30 2015, MaxMem= 3758096384 cpu:       0.1
 (Enter /share/apps/g09/l202.exe)
                          Input orientation:                          
 ---------------------------------------------------------------------
 Center     Atomic      Atomic             Coordinates (Angstroms)
 Number     Number       Type             X           Y           Z
 ---------------------------------------------------------------------
      1          6           0       -1.565421   -0.701984    0.530803
      2          6           0       -0.589000   -0.029747   -0.087716
      3          6           0        0.745629   -0.677481   -0.397456
      4          1           0        0.981898   -0.532526   -1.462302
      5          6           0        1.911536   -0.131105    0.446698
      6          1           0        2.069223    0.940184    0.279058
      7          1           0        1.719975   -0.278476    1.515398
      8          1           0        2.845940   -0.645293    0.194597
      9          1           0       -1.445555   -1.742094    0.825230
     10          1           0       -2.521574   -0.239712    0.764744
     11          1           0        0.667222   -1.759825   -0.239528
     12          6           0       -0.757831    1.411521   -0.505230
     13          1           0       -0.021728    2.063887   -0.017272
     14          1           0       -0.607151    1.526571   -1.587694
     15          1           0       -1.755131    1.788639   -0.258903
 ---------------------------------------------------------------------
                    Distance matrix (angstroms):
                    1          2          3          4          5
     1  C    0.000000
     2  C    1.337111   0.000000
     3  C    2.490626   1.515498   0.000000
     4  H    3.238830   2.147090   1.100333   0.000000
     5  C    3.524515   2.559014   1.539630   2.160937   0.000000
     6  H    3.996339   2.853321   2.196910   2.526556   1.095732
     7  H    3.455809   2.821915   2.183476   3.078311   1.095689
     8  H    4.424517   3.501058   2.182400   2.496534   1.095927
     9  H    1.087605   2.121153   2.725738   3.548011   3.742811
    10  H    1.087498   2.122644   3.495278   4.161705   4.445831
    11  H    2.587882   2.143434   1.096612   1.760812   2.161470
    12  C    2.488467   1.509992   2.576031   2.778842   3.226667
    13  H    3.214563   2.170268   2.872016   3.136357   2.961548
    14  H    3.220678   2.161571   2.846845   2.603974   3.637365
    15  H    2.619700   2.166955   3.514932   3.785143   4.198540
                    6          7          8          9         10
     6  H    0.000000
     7  H    1.770775   0.000000
     8  H    1.767529   1.773941   0.000000
     9  H    4.454950   3.555150   4.474103   0.000000
    10  H    4.764815   4.307635   5.412926   1.848953   0.000000
    11  H    3.086193   2.526351   2.485449   2.365978   3.672564
    12  C    2.971448   3.616428   4.208017   3.491185   2.729504
    13  H    2.392195   3.296858   3.950704   4.150010   3.488173
    14  H    3.315357   4.278188   4.451673   4.148409   3.509806
    15  H    3.954107   4.415594   5.224896   3.706381   2.397811
                   11         12         13         14         15
    11  H    0.000000
    12  C    3.486948   0.000000
    13  H    3.891635   1.097967   0.000000
    14  H    3.773854   1.098940   1.760015   0.000000
    15  H    4.296483   1.094304   1.771675   1.775450   0.000000
 Stoichiometry    C5H10
 Framework group  C1[X(C5H10)]
 Deg. of freedom    39
 Full point group                 C1      NOp   1
 Largest Abelian subgroup         C1      NOp   1
 Largest concise Abelian subgroup C1      NOp   1
                         Standard orientation:                         
 ---------------------------------------------------------------------
 Center     Atomic      Atomic             Coordinates (Angstroms)
 Number     Number       Type             X           Y           Z
 ---------------------------------------------------------------------
      1          6           0        1.384136   -1.141492   -0.227746
      2          6           0        0.584469   -0.122891    0.105200
      3          6           0       -0.831637   -0.354096    0.592972
      4          1           0       -0.983167    0.186343    1.539384
      5          6           0       -1.913384    0.089698   -0.408692
      6          1           0       -1.856931    1.163254   -0.620631
      7          1           0       -1.806346   -0.445563   -1.358730
      8          1           0       -2.914576   -0.116088   -0.013316
      9          1           0        1.055118   -2.175273   -0.150749
     10          1           0        2.397728   -0.981569   -0.587896
     11          1           0       -0.967449   -1.419093    0.816342
     12          6           0        1.043538    1.312305    0.007510
     13          1           0        0.420989    1.890691   -0.687785
     14          1           0        0.971154    1.814521    0.982296
     15          1           0        2.080749    1.381639   -0.334379
 ---------------------------------------------------------------------
 Rotational constants (GHZ):      7.1692260      3.7095972      2.8345680
 Leave Link  202 at Sat Aug 22 15:16:30 2015, MaxMem= 3758096384 cpu:       0.1
 (Enter /share/apps/g09/l301.exe)
 Standard basis: 6-31G(d) (6D, 7F)
 Ernie: Thresh=  0.10000D-02 Tol=  0.10000D-05 Strict=F.
 There are    95 symmetry adapted basis functions of A   symmetry.
 Integral buffers will be    131072 words long.
 Raffenetti 2 integral format.
 Two-electron integral symmetry is turned on.
    95 basis functions,   180 primitive gaussians,    95 cartesian basis functions
    20 alpha electrons       20 beta electrons
       nuclear repulsion energy       175.1882250418 Hartrees.
 IExCor=  402 DFT=T Ex+Corr=B3LYP ExCW=0 ScaHFX=  0.200000
 ScaDFX=  0.800000  0.720000  1.000000  0.810000 ScalE2=  1.000000  1.000000
 IRadAn=      0 IRanWt=     -1 IRanGd=            0 ICorTp=0
 NAtoms=   15 NActive=   15 NUniq=   15 SFac= 7.50D-01 NAtFMM=   80 NAOKFM=F Big=F
 Leave Link  301 at Sat Aug 22 15:16:31 2015, MaxMem= 3758096384 cpu:       0.6
 (Enter /share/apps/g09/l302.exe)
 NPDir=0 NMtPBC=     1 NCelOv=     1 NCel=       1 NClECP=     1 NCelD=      1
         NCelK=      1 NCelE2=     1 NClLst=     1 CellRange=     0.0.
 One-electron integrals computed using PRISM.
 NBasis=    95 RedAO= T  NBF=    95
 NBsUse=    95 1.00D-06 NBFU=    95
 Precomputing XC quadrature grid using
 IXCGrd= 2 IRadAn=           0 IRanWt=          -1 IRanGd=           0 AccXCQ= 1.00D-10.
 NRdTot=     931 NPtTot=      117968 NUsed=      124693 NTot=      124725
 NSgBfM=    95    95    95    95    95 NAtAll=    15    15.
 Leave Link  302 at Sat Aug 22 15:16:31 2015, MaxMem= 3758096384 cpu:       2.0
 (Enter /share/apps/g09/l303.exe)
 DipDrv:  MaxL=1.
 Leave Link  303 at Sat Aug 22 15:16:31 2015, MaxMem= 3758096384 cpu:       0.3
 (Enter /share/apps/g09/l401.exe)
 Harris functional with IExCor=  402 diagonalized for initial guess.
 ExpMin= 1.61D-01 ExpMax= 3.05D+03 ExpMxC= 4.57D+02 IAcc=1 IRadAn=         1 AccDes= 0.00D+00
 HarFok:  IExCor=  402 AccDes= 0.00D+00 IRadAn=         1 IDoV= 1
 ScaDFX=  1.000000  1.000000  1.000000  1.000000
 FoFCou: FMM=F IPFlag=           0 FMFlag=      100000 FMFlg1=           0
         NFxFlg=           0 DoJE=T BraDBF=F KetDBF=T FulRan=T
         Omega=  0.000000  0.000000  1.000000  0.000000  0.000000 ICntrl=     500 IOpCl=  0
         NMat0=    1 NMatS0=    1 NMatT0=    0 NMatD0=    1 NMtDS0=    0 NMtDT0=    0
         I1Cent=           4 NGrid=           0.
 Petite list used in FoFCou.
 Harris En= -196.623421695692    
 Initial guess orbital symmetries:
       Occupied  (A) (A) (A) (A) (A) (A) (A) (A) (A) (A) (A) (A)
                 (A) (A) (A) (A) (A) (A) (A) (A)
       Virtual   (A) (A) (A) (A) (A) (A) (A) (A) (A) (A) (A) (A)
                 (A) (A) (A) (A) (A) (A) (A) (A) (A) (A) (A) (A)
                 (A) (A) (A) (A) (A) (A) (A) (A) (A) (A) (A) (A)
                 (A) (A) (A) (A) (A) (A) (A) (A) (A) (A) (A) (A)
                 (A) (A) (A) (A) (A) (A) (A) (A) (A) (A) (A) (A)
                 (A) (A) (A) (A) (A) (A) (A) (A) (A) (A) (A) (A)
                 (A) (A) (A)
 The electronic state of the initial guess is 1-A.
 Leave Link  401 at Sat Aug 22 15:16:31 2015, MaxMem= 3758096384 cpu:       2.5
 (Enter /share/apps/g09/l502.exe)
 Closed shell SCF:
 Requested convergence on RMS density matrix=1.00D-08 within 128 cycles.
 Requested convergence on MAX density matrix=1.00D-06.
 Requested convergence on             energy=1.00D-06.
 No special actions if energy rises.
 Using DIIS extrapolation, IDIIS=  1040.
 Integral symmetry usage will be decided dynamically.
       124545 words used for storage of precomputed grid.
 Keep R1 ints in memory in canonical form, NReq=11484737.
 IEnd=      171641 IEndB=      171641 NGot=  3758096384 MDV=  3747551396
 LenX=  3747551396 LenY=  3747541930
 Symmetry not used in FoFDir.
 MinBra= 0 MaxBra= 2 Meth= 1.
 IRaf=       0 NMat=   1 IRICut=       1 DoRegI=T DoRafI=F ISym2E= 0 JSym2E=0.
 Integral accuracy reduced to 1.0D-05 until final iterations.

 Cycle   1  Pass 0  IDiag  1:
 E= -196.316991837074    
 DIIS: error= 4.82D-02 at cycle   1 NSaved=   1.
 NSaved= 1 IEnMin= 1 EnMin= -196.316991837074     IErMin= 1 ErrMin= 4.82D-02
 ErrMax= 4.82D-02 EMaxC= 1.00D-01 BMatC= 1.97D-01 BMatP= 1.97D-01
 IDIUse=3 WtCom= 5.18D-01 WtEn= 4.82D-01
 Coeff-Com:  0.100D+01
 Coeff-En:   0.100D+01
 Coeff:      0.100D+01
 Gap=     0.265 Goal=   None    Shift=    0.000
 GapD=    0.265 DampG=1.000 DampE=0.500 DampFc=0.5000 IDamp=-1.
 Damping current iteration by 5.00D-01
 RMSDP=1.08D-02 MaxDP=1.36D-01              OVMax= 1.70D-01

 Cycle   2  Pass 0  IDiag  1:
 E= -196.420530023008     Delta-E=       -0.103538185934 Rises=F Damp=T
 DIIS: error= 7.73D-03 at cycle   2 NSaved=   2.
 NSaved= 2 IEnMin= 2 EnMin= -196.420530023008     IErMin= 2 ErrMin= 7.73D-03
 ErrMax= 7.73D-03 EMaxC= 1.00D-01 BMatC= 6.24D-03 BMatP= 1.97D-01
 IDIUse=3 WtCom= 9.23D-01 WtEn= 7.73D-02
 Coeff-Com:  0.506D-01 0.949D+00
 Coeff-En:   0.781D-01 0.922D+00
 Coeff:      0.528D-01 0.947D+00
 Gap=     0.291 Goal=   None    Shift=    0.000
 RMSDP=1.96D-03 MaxDP=2.13D-02 DE=-1.04D-01 OVMax= 9.51D-02

 Cycle   3  Pass 0  IDiag  1:
 E= -196.538554947914     Delta-E=       -0.118024924906 Rises=F Damp=F
 DIIS: error= 2.37D-03 at cycle   3 NSaved=   3.
 NSaved= 3 IEnMin= 3 EnMin= -196.538554947914     IErMin= 3 ErrMin= 2.37D-03
 ErrMax= 2.37D-03 EMaxC= 1.00D-01 BMatC= 9.42D-04 BMatP= 6.24D-03
 IDIUse=3 WtCom= 9.76D-01 WtEn= 2.37D-02
 Coeff-Com:  0.585D-03 0.209D+00 0.790D+00
 Coeff-En:   0.000D+00 0.000D+00 0.100D+01
 Coeff:      0.571D-03 0.204D+00 0.795D+00
 Gap=     0.269 Goal=   None    Shift=    0.000
 RMSDP=6.33D-04 MaxDP=1.31D-02 DE=-1.18D-01 OVMax= 3.05D-02

 Cycle   4  Pass 0  IDiag  1:
 E= -196.538367094939     Delta-E=        0.000187852975 Rises=F Damp=F
 DIIS: error= 3.35D-03 at cycle   4 NSaved=   4.
 NSaved= 4 IEnMin= 3 EnMin= -196.538554947914     IErMin= 3 ErrMin= 2.37D-03
 ErrMax= 3.35D-03 EMaxC= 1.00D-01 BMatC= 1.11D-03 BMatP= 9.42D-04
 IDIUse=3 WtCom= 1.47D-01 WtEn= 8.53D-01
 Coeff-Com: -0.306D-02 0.520D-01 0.518D+00 0.433D+00
 Coeff-En:   0.000D+00 0.000D+00 0.538D+00 0.462D+00
 Coeff:     -0.450D-03 0.766D-02 0.535D+00 0.458D+00
 Gap=     0.268 Goal=   None    Shift=    0.000
 RMSDP=3.34D-04 MaxDP=9.39D-03 DE= 1.88D-04 OVMax= 2.09D-02

 Cycle   5  Pass 0  IDiag  1:
 E= -196.539479367164     Delta-E=       -0.001112272225 Rises=F Damp=F
 DIIS: error= 4.64D-04 at cycle   5 NSaved=   5.
 NSaved= 5 IEnMin= 5 EnMin= -196.539479367164     IErMin= 5 ErrMin= 4.64D-04
 ErrMax= 4.64D-04 EMaxC= 1.00D-01 BMatC= 4.29D-05 BMatP= 9.42D-04
 IDIUse=3 WtCom= 9.95D-01 WtEn= 4.64D-03
 Coeff-Com:  0.261D-02-0.434D-02 0.184D+00 0.206D+00 0.611D+00
 Coeff-En:   0.000D+00 0.000D+00 0.000D+00 0.000D+00 0.100D+01
 Coeff:      0.259D-02-0.432D-02 0.184D+00 0.205D+00 0.613D+00
 Gap=     0.269 Goal=   None    Shift=    0.000
 RMSDP=7.09D-05 MaxDP=1.33D-03 DE=-1.11D-03 OVMax= 2.79D-03

 Cycle   6  Pass 0  IDiag  1:
 E= -196.539520744289     Delta-E=       -0.000041377125 Rises=F Damp=F
 DIIS: error= 9.93D-05 at cycle   6 NSaved=   6.
 NSaved= 6 IEnMin= 6 EnMin= -196.539520744289     IErMin= 6 ErrMin= 9.93D-05
 ErrMax= 9.93D-05 EMaxC= 1.00D-01 BMatC= 1.40D-06 BMatP= 4.29D-05
 IDIUse=1 WtCom= 1.00D+00 WtEn= 0.00D+00
 Coeff-Com:  0.152D-02-0.382D-02 0.725D-01 0.853D-01 0.302D+00 0.543D+00
 Coeff:      0.152D-02-0.382D-02 0.725D-01 0.853D-01 0.302D+00 0.543D+00
 Gap=     0.269 Goal=   None    Shift=    0.000
 RMSDP=1.46D-05 MaxDP=1.94D-04 DE=-4.14D-05 OVMax= 2.55D-04

 Cycle   7  Pass 0  IDiag  1:
 E= -196.539522143743     Delta-E=       -0.000001399453 Rises=F Damp=F
 DIIS: error= 1.45D-05 at cycle   7 NSaved=   7.
 NSaved= 7 IEnMin= 7 EnMin= -196.539522143743     IErMin= 7 ErrMin= 1.45D-05
 ErrMax= 1.45D-05 EMaxC= 1.00D-01 BMatC= 3.94D-08 BMatP= 1.40D-06
 IDIUse=1 WtCom= 1.00D+00 WtEn= 0.00D+00
 Coeff-Com:  0.433D-03-0.118D-02 0.129D-01 0.156D-01 0.652D-01 0.191D+00
 Coeff-Com:  0.716D+00
 Coeff:      0.433D-03-0.118D-02 0.129D-01 0.156D-01 0.652D-01 0.191D+00
 Coeff:      0.716D+00
 Gap=     0.269 Goal=   None    Shift=    0.000
 RMSDP=2.76D-06 MaxDP=3.66D-05 DE=-1.40D-06 OVMax= 4.52D-05

 Initial convergence to 1.0D-05 achieved.  Increase integral accuracy.
 Cycle   8  Pass 1  IDiag  1:
 E= -196.539564363113     Delta-E=       -0.000042219370 Rises=F Damp=F
 DIIS: error= 1.07D-05 at cycle   1 NSaved=   1.
 NSaved= 1 IEnMin= 1 EnMin= -196.539564363113     IErMin= 1 ErrMin= 1.07D-05
 ErrMax= 1.07D-05 EMaxC= 1.00D-01 BMatC= 1.80D-08 BMatP= 1.80D-08
 IDIUse=1 WtCom= 1.00D+00 WtEn= 0.00D+00
 Coeff-Com:  0.100D+01
 Coeff:      0.100D+01
 Gap=     0.269 Goal=   None    Shift=    0.000
 RMSDP=2.76D-06 MaxDP=3.66D-05 DE=-4.22D-05 OVMax= 4.75D-05

 Cycle   9  Pass 1  IDiag  1:
 E= -196.539564388902     Delta-E=       -0.000000025788 Rises=F Damp=F
 DIIS: error= 2.61D-06 at cycle   2 NSaved=   2.
 NSaved= 2 IEnMin= 2 EnMin= -196.539564388902     IErMin= 2 ErrMin= 2.61D-06
 ErrMax= 2.61D-06 EMaxC= 1.00D-01 BMatC= 1.23D-09 BMatP= 1.80D-08
 IDIUse=1 WtCom= 1.00D+00 WtEn= 0.00D+00
 Coeff-Com:  0.745D-01 0.926D+00
 Coeff:      0.745D-01 0.926D+00
 Gap=     0.269 Goal=   None    Shift=    0.000
 RMSDP=8.58D-07 MaxDP=1.32D-05 DE=-2.58D-08 OVMax= 2.63D-05

 Cycle  10  Pass 1  IDiag  1:
 E= -196.539564388811     Delta-E=        0.000000000090 Rises=F Damp=F
 DIIS: error= 2.88D-06 at cycle   3 NSaved=   3.
 NSaved= 3 IEnMin= 2 EnMin= -196.539564388902     IErMin= 2 ErrMin= 2.61D-06
 ErrMax= 2.88D-06 EMaxC= 1.00D-01 BMatC= 1.41D-09 BMatP= 1.23D-09
 IDIUse=1 WtCom= 1.00D+00 WtEn= 0.00D+00
 Coeff-Com: -0.182D-01 0.522D+00 0.496D+00
 Coeff:     -0.182D-01 0.522D+00 0.496D+00
 Gap=     0.269 Goal=   None    Shift=    0.000
 RMSDP=4.32D-07 MaxDP=1.03D-05 DE= 9.02D-11 OVMax= 2.13D-05

 Cycle  11  Pass 1  IDiag  1:
 E= -196.539564390177     Delta-E=       -0.000000001366 Rises=F Damp=F
 DIIS: error= 9.63D-07 at cycle   4 NSaved=   4.
 NSaved= 4 IEnMin= 4 EnMin= -196.539564390177     IErMin= 4 ErrMin= 9.63D-07
 ErrMax= 9.63D-07 EMaxC= 1.00D-01 BMatC= 1.07D-10 BMatP= 1.23D-09
 IDIUse=1 WtCom= 1.00D+00 WtEn= 0.00D+00
 Coeff-Com: -0.154D-01 0.259D+00 0.298D+00 0.459D+00
 Coeff:     -0.154D-01 0.259D+00 0.298D+00 0.459D+00
 Gap=     0.269 Goal=   None    Shift=    0.000
 RMSDP=1.18D-07 MaxDP=2.66D-06 DE=-1.37D-09 OVMax= 6.01D-06

 Cycle  12  Pass 1  IDiag  1:
 E= -196.539564390285     Delta-E=       -0.000000000107 Rises=F Damp=F
 DIIS: error= 1.76D-07 at cycle   5 NSaved=   5.
 NSaved= 5 IEnMin= 5 EnMin= -196.539564390285     IErMin= 5 ErrMin= 1.76D-07
 ErrMax= 1.76D-07 EMaxC= 1.00D-01 BMatC= 4.44D-12 BMatP= 1.07D-10
 IDIUse=1 WtCom= 1.00D+00 WtEn= 0.00D+00
 Coeff-Com: -0.655D-02 0.934D-01 0.115D+00 0.226D+00 0.572D+00
 Coeff:     -0.655D-02 0.934D-01 0.115D+00 0.226D+00 0.572D+00
 Gap=     0.269 Goal=   None    Shift=    0.000
 RMSDP=2.57D-08 MaxDP=4.90D-07 DE=-1.07D-10 OVMax= 8.97D-07

 Cycle  13  Pass 1  IDiag  1:
 E= -196.539564390290     Delta-E=       -0.000000000006 Rises=F Damp=F
 DIIS: error= 3.02D-08 at cycle   6 NSaved=   6.
 NSaved= 6 IEnMin= 6 EnMin= -196.539564390290     IErMin= 6 ErrMin= 3.02D-08
 ErrMax= 3.02D-08 EMaxC= 1.00D-01 BMatC= 1.94D-13 BMatP= 4.44D-12
 IDIUse=1 WtCom= 1.00D+00 WtEn= 0.00D+00
 Coeff-Com: -0.388D-03 0.166D-02 0.365D-02 0.121D-01 0.184D+00 0.799D+00
 Coeff:     -0.388D-03 0.166D-02 0.365D-02 0.121D-01 0.184D+00 0.799D+00
 Gap=     0.269 Goal=   None    Shift=    0.000
 RMSDP=5.33D-09 MaxDP=1.00D-07 DE=-5.63D-12 OVMax= 1.64D-07

 SCF Done:  E(RB3LYP) =  -196.539564390     A.U. after   13 cycles
             Convg  =    0.5329D-08             -V/T =  2.0104
 KE= 1.945203981758D+02 PE=-8.040588873235D+02 EE= 2.378106997156D+02
 Leave Link  502 at Sat Aug 22 15:16:34 2015, MaxMem= 3758096384 cpu:      25.7
 (Enter /share/apps/g09/l601.exe)
 Copying SCF densities to generalized density rwf, IOpCl= 0 IROHF=0.

 **********************************************************************

            Population analysis using the SCF density.

 **********************************************************************

 Orbital symmetries:
       Occupied  (A) (A) (A) (A) (A) (A) (A) (A) (A) (A) (A) (A)
                 (A) (A) (A) (A) (A) (A) (A) (A)
       Virtual   (A) (A) (A) (A) (A) (A) (A) (A) (A) (A) (A) (A)
                 (A) (A) (A) (A) (A) (A) (A) (A) (A) (A) (A) (A)
                 (A) (A) (A) (A) (A) (A) (A) (A) (A) (A) (A) (A)
                 (A) (A) (A) (A) (A) (A) (A) (A) (A) (A) (A) (A)
                 (A) (A) (A) (A) (A) (A) (A) (A) (A) (A) (A) (A)
                 (A) (A) (A) (A) (A) (A) (A) (A) (A) (A) (A) (A)
                 (A) (A) (A)
 The electronic state is 1-A.
 Alpha  occ. eigenvalues --  -10.18885 -10.18284 -10.17758 -10.17505 -10.16612
 Alpha  occ. eigenvalues --   -0.80673  -0.73124  -0.67930  -0.62104  -0.51781
 Alpha  occ. eigenvalues --   -0.45480  -0.45212  -0.42032  -0.40365  -0.38648
 Alpha  occ. eigenvalues --   -0.36371  -0.36062  -0.33480  -0.32221  -0.23923
 Alpha virt. eigenvalues --    0.02959   0.09194   0.13036   0.13809   0.14781
 Alpha virt. eigenvalues --    0.15745   0.17295   0.17825   0.18448   0.21150
 Alpha virt. eigenvalues --    0.22231   0.23653   0.24947   0.32213   0.38360
 Alpha virt. eigenvalues --    0.50778   0.52009   0.52847   0.53473   0.56381
 Alpha virt. eigenvalues --    0.59855   0.61803   0.64776   0.67453   0.69300
 Alpha virt. eigenvalues --    0.71851   0.75978   0.80412   0.82866   0.85216
 Alpha virt. eigenvalues --    0.86550   0.88044   0.89477   0.90908   0.92181
 Alpha virt. eigenvalues --    0.93375   0.96846   0.97544   1.00442   1.03138
 Alpha virt. eigenvalues --    1.13533   1.21523   1.26231   1.35561   1.41745
 Alpha virt. eigenvalues --    1.43248   1.59854   1.66524   1.74885   1.75690
 Alpha virt. eigenvalues --    1.84951   1.87620   1.92583   1.97386   1.99177
 Alpha virt. eigenvalues --    2.00361   2.08778   2.12700   2.19415   2.28472
 Alpha virt. eigenvalues --    2.29678   2.31198   2.35580   2.38671   2.43926
 Alpha virt. eigenvalues --    2.48338   2.59099   2.64852   2.84924   2.93798
 Alpha virt. eigenvalues --    4.10628   4.17032   4.25036   4.42363   4.51088
          Condensed to atoms (all electrons):
              1          2          3          4          5          6
     1  C    5.102540   0.692729  -0.043153   0.002491  -0.003328  -0.000004
     2  C    0.692729   4.538155   0.400303  -0.035572  -0.045283  -0.005261
     3  C   -0.043153   0.400303   5.056907   0.363897   0.356149  -0.034226
     4  H    0.002491  -0.035572   0.363897   0.615467  -0.044587  -0.004256
     5  C   -0.003328  -0.045283   0.356149  -0.044587   5.094281   0.377949
     6  H   -0.000004  -0.005261  -0.034226  -0.004256   0.377949   0.573175
     7  H    0.002611  -0.001006  -0.035427   0.005582   0.375296  -0.031986
     8  H   -0.000014   0.004155  -0.026696  -0.002413   0.367407  -0.030826
     9  H    0.357576  -0.025810  -0.013975   0.000163   0.000363   0.000009
    10  H    0.355737  -0.022995   0.006383  -0.000237  -0.000160   0.000005
    11  H   -0.008640  -0.031947   0.365527  -0.036231  -0.036260   0.004993
    12  C   -0.053409   0.384246  -0.078430  -0.005202  -0.002060   0.002628
    13  H   -0.000099  -0.032365  -0.001938  -0.000601   0.002695   0.002443
    14  H    0.000458  -0.030387  -0.002725   0.005319  -0.000576   0.000164
    15  H   -0.006194  -0.026099   0.004861  -0.000037   0.000025  -0.000098
              7          8          9         10         11         12
     1  C    0.002611  -0.000014   0.357576   0.355737  -0.008640  -0.053409
     2  C   -0.001006   0.004155  -0.025810  -0.022995  -0.031947   0.384246
     3  C   -0.035427  -0.026696  -0.013975   0.006383   0.365527  -0.078430
     4  H    0.005582  -0.002413   0.000163  -0.000237  -0.036231  -0.005202
     5  C    0.375296   0.367407   0.000363  -0.000160  -0.036260  -0.002060
     6  H   -0.031986  -0.030826   0.000009   0.000005   0.004993   0.002628
     7  H    0.568021  -0.029594   0.000095  -0.000061  -0.004165  -0.000278
     8  H   -0.029594   0.577097  -0.000028   0.000004  -0.003300   0.000007
     9  H    0.000095  -0.000028   0.583796  -0.045539   0.007440   0.006964
    10  H   -0.000061   0.000004  -0.045539   0.583874   0.000021  -0.013242
    11  H   -0.004165  -0.003300   0.007440   0.000021   0.597372   0.005804
    12  C   -0.000278   0.000007   0.006964  -0.013242   0.005804   5.175252
    13  H   -0.000062  -0.000127  -0.000195   0.000168  -0.000025   0.364332
    14  H    0.000069  -0.000001  -0.000197   0.000194  -0.000054   0.360782
    15  H   -0.000016   0.000002  -0.000015   0.006882  -0.000177   0.364761
             13         14         15
     1  C   -0.000099   0.000458  -0.006194
     2  C   -0.032365  -0.030387  -0.026099
     3  C   -0.001938  -0.002725   0.004861
     4  H   -0.000601   0.005319  -0.000037
     5  C    0.002695  -0.000576   0.000025
     6  H    0.002443   0.000164  -0.000098
     7  H   -0.000062   0.000069  -0.000016
     8  H   -0.000127  -0.000001   0.000002
     9  H   -0.000195  -0.000197  -0.000015
    10  H    0.000168   0.000194   0.006882
    11  H   -0.000025  -0.000054  -0.000177
    12  C    0.364332   0.360782   0.364761
    13  H    0.575988  -0.037478  -0.028333
    14  H   -0.037478   0.581572  -0.028141
    15  H   -0.028333  -0.028141   0.560205
 Mulliken atomic charges:
              1
     1  C   -0.399300
     2  C    0.237137
     3  C   -0.317457
     4  H    0.136217
     5  C   -0.441911
     6  H    0.145289
     7  H    0.150921
     8  H    0.144326
     9  H    0.129354
    10  H    0.128966
    11  H    0.139643
    12  C   -0.512155
    13  H    0.155596
    14  H    0.151001
    15  H    0.152375
 Sum of Mulliken atomic charges =   0.00000
 Mulliken charges with hydrogens summed into heavy atoms:
              1
     1  C   -0.140981
     2  C    0.237137
     3  C   -0.041598
     5  C   -0.001374
    12  C   -0.053184
 Sum of Mulliken charges with hydrogens summed into heavy atoms =   0.00000
 Electronic spatial extent (au):  <R**2>=            514.4404
 Charge=              0.0000 electrons
 Dipole moment (field-independent basis, Debye):
    X=             -0.3188    Y=              0.3624    Z=              0.0948  Tot=              0.4919
 Quadrupole moment (field-independent basis, Debye-Ang):
   XX=            -32.7869   YY=            -32.2813   ZZ=            -34.0708
   XY=              0.5278   XZ=             -0.7780   YZ=              0.1386
 Traceless Quadrupole moment (field-independent basis, Debye-Ang):
   XX=              0.2595   YY=              0.7650   ZZ=             -1.0244
   XY=              0.5278   XZ=             -0.7780   YZ=              0.1386
 Octapole moment (field-independent basis, Debye-Ang**2):
  XXX=              1.7836  YYY=             -1.6723  ZZZ=              0.9783  XYY=             -0.4650
  XXY=              0.2500  XXZ=             -1.3654  XZZ=             -1.3700  YZZ=              1.6647
  YYZ=             -0.0363  XYZ=              0.6018
 Hexadecapole moment (field-independent basis, Debye-Ang**3):
 XXXX=           -397.2174 YYYY=           -210.4666 ZZZZ=            -85.6838 XXXY=              2.8665
 XXXZ=             -8.6866 YYYX=             -1.4935 YYYZ=             -0.8285 ZZZX=              0.6280
 ZZZY=              1.4378 XXYY=           -104.9238 XXZZ=            -84.3653 YYZZ=            -50.2494
 XXYZ=              1.1072 YYXZ=             -0.1486 ZZXY=              1.8081
 N-N= 1.751882250418D+02 E-N=-8.040588873827D+02  KE= 1.945203981758D+02
 No NMR shielding tensors so no spin-rotation constants.
 Leave Link  601 at Sat Aug 22 15:16:34 2015, MaxMem= 3758096384 cpu:       1.6
 (Enter /share/apps/g09/l701.exe)
 Compute integral first derivatives.
 ... and contract with generalized density number  0.
 Leave Link  701 at Sat Aug 22 15:16:34 2015, MaxMem= 3758096384 cpu:       1.8
 (Enter /share/apps/g09/l702.exe)
 L702 exits ... SP integral derivatives will be done elsewhere.
 Leave Link  702 at Sat Aug 22 15:16:34 2015, MaxMem= 3758096384 cpu:       0.2
 (Enter /share/apps/g09/l703.exe)
 Compute integral first derivatives, UseDBF=F ICtDFT=           0.
 Integral derivatives from FoFDir, PRISM(SPDF).
 Calling FoFJK, ICntrl=      2127 FMM=F ISym2X=0 I1Cent= 0 IOpClX= 0 NMat=1 NMatS=1 NMatT=0.
 FoFCou: FMM=F IPFlag=           0 FMFlag=      100000 FMFlg1=         800
         NFxFlg=           0 DoJE=F BraDBF=F KetDBF=F FulRan=T
         Omega=  0.000000  0.000000  1.000000  0.000000  0.000000 ICntrl=    2127 IOpCl=  0
         NMat0=    1 NMatS0=    1 NMatT0=    0 NMatD0=    1 NMtDS0=    0 NMtDT0=    0
         I1Cent=           0 NGrid=           0.
 Symmetry not used in FoFCou.
 Leave Link  703 at Sat Aug 22 15:16:35 2015, MaxMem= 3758096384 cpu:       7.7
 (Enter /share/apps/g09/l716.exe)
 Dipole        =-1.25425347D-01 1.42584622D-01 3.72921715D-02
 ***** Axes restored to original set *****
 -------------------------------------------------------------------
 Center     Atomic                   Forces (Hartrees/Bohr)
 Number     Number              X              Y              Z
 -------------------------------------------------------------------
      1        6          -0.000141190   -0.000078759   -0.000277076
      2        6           0.000293275    0.000164071    0.000313106
      3        6          -0.000187172   -0.000283058    0.000150916
      4        1           0.000016273   -0.000005102    0.000006514
      5        6           0.000071492    0.000212562   -0.000208977
      6        1           0.000005654   -0.000012977    0.000024667
      7        1           0.000009336   -0.000008328    0.000007947
      8        1          -0.000001260    0.000000571   -0.000000619
      9        1          -0.000014087   -0.000017846    0.000002548
     10        1           0.000002155    0.000025322   -0.000011209
     11        1          -0.000006576    0.000000317   -0.000000139
     12        6          -0.000062505    0.000015736    0.000043031
     13        1          -0.000016290   -0.000021881   -0.000033741
     14        1           0.000010872   -0.000001473   -0.000046222
     15        1           0.000020023    0.000010844    0.000029254
 -------------------------------------------------------------------
 Cartesian Forces:  Max     0.000313106 RMS     0.000111554
 Leave Link  716 at Sat Aug 22 15:16:35 2015, MaxMem= 3758096384 cpu:       0.3
 (Enter /share/apps/g09/l103.exe)

 GradGradGradGradGradGradGradGradGradGradGradGradGradGradGradGradGradGrad
 Berny optimization.
 Internal  Forces:  Max     0.000253613 RMS     0.000057288
 Search for a local minimum.
 Step number   1 out of a maximum of   73
 All quantities printed in internal units (Hartrees-Bohrs-Radians)
 RMS Force = .57288D-04 SwitMx=.10000D-02 MixMth= 2
 Mixed Optimization -- En-DIIS/RFO-DIIS
 Second derivative matrix not updated -- first step.
     Eigenvalues ---    0.00242   0.00561   0.00634   0.01221   0.02921
     Eigenvalues ---    0.02921   0.03899   0.05343   0.05367   0.05477
     Eigenvalues ---    0.07007   0.07151   0.09497   0.12947   0.16000
     Eigenvalues ---    0.16000   0.16000   0.16000   0.16000   0.16000
     Eigenvalues ---    0.16000   0.16000   0.21964   0.25000   0.25000
     Eigenvalues ---    0.28552   0.30804   0.31351   0.33645   0.33800
     Eigenvalues ---    0.33908   0.34060   0.34137   0.34159   0.34163
     Eigenvalues ---    0.34320   0.35091   0.35103   0.578571000.00000
     Eigenvalues --- 1000.000001000.000001000.000001000.000001000.00000
     Eigenvalues --- 1000.000001000.000001000.000001000.000001000.00000
     Eigenvalues --- 1000.000001000.000001000.000001000.000001000.00000
     Eigenvalues --- 1000.000001000.000001000.000001000.000001000.00000
     Eigenvalues --- 1000.000001000.000001000.00000
 RFO step:  Lambda=-1.73053664D-05 EMin= 2.41712906D-03
 Linear search not attempted -- first point.
 Iteration  1 RMS(Cart)=  0.01268321 RMS(Int)=  0.00004746
 Iteration  2 RMS(Cart)=  0.00007167 RMS(Int)=  0.00000174
 Iteration  3 RMS(Cart)=  0.00000000 RMS(Int)=  0.00000174
 Variable       Old X    -DE/DX   Delta X   Delta X   Delta X     New X
                                 (Linear)    (Quad)   (Total)
    R1        2.52677   0.00002   0.00000   0.00003   0.00003   2.52680
    R2        2.05527   0.00002   0.00000   0.00005   0.00005   2.05533
    R3        2.05507   0.00000   0.00000   0.00001   0.00001   2.05509
    R4        2.86388  -0.00004   0.00000  -0.00012  -0.00012   2.86376
    R5        2.85347   0.00001   0.00000   0.00003   0.00003   2.85350
    R6        2.07933   0.00000   0.00000  -0.00001  -0.00001   2.07932
    R7        2.90948   0.00004   0.00000   0.00013   0.00013   2.90961
    R8        2.07230   0.00000   0.00000   0.00000   0.00000   2.07229
    R9        2.07063  -0.00001   0.00000  -0.00004  -0.00004   2.07059
   R10        2.07055   0.00001   0.00000   0.00002   0.00002   2.07057
   R11        2.07100   0.00000   0.00000   0.00000   0.00000   2.07100
   R12        2.07486  -0.00004   0.00000  -0.00012  -0.00012   2.07474
   R13        2.07670   0.00004   0.00000   0.00013   0.00013   2.07683
   R14        2.06794  -0.00001   0.00000  -0.00002  -0.00002   2.06792
    A1        2.12415   0.00003   0.00000   0.00020   0.00020   2.12435
    A2        2.12686  -0.00004   0.00000  -0.00025  -0.00025   2.12661
    A3        2.03217   0.00001   0.00000   0.00005   0.00005   2.03223
    A4        2.12088   0.00006   0.00000   0.00027   0.00026   2.12114
    A5        2.12484  -0.00010   0.00000  -0.00038  -0.00038   2.12445
    A6        2.03746   0.00003   0.00000   0.00014   0.00014   2.03759
    A7        1.90772   0.00000   0.00000  -0.00096  -0.00096   1.90676
    A8        1.98576   0.00004   0.00000   0.00018   0.00018   1.98594
    A9        1.90651  -0.00001   0.00000   0.00098   0.00098   1.90749
   A10        1.89784  -0.00014   0.00000  -0.00190  -0.00190   1.89594
   A11        1.85954   0.00000   0.00000  -0.00005  -0.00005   1.85949
   A12        1.90227   0.00011   0.00000   0.00173   0.00173   1.90400
   A13        1.95202   0.00003   0.00000   0.00023   0.00023   1.95224
   A14        1.93334   0.00000   0.00000  -0.00001  -0.00001   1.93333
   A15        1.93160  -0.00001   0.00000  -0.00005  -0.00005   1.93156
   A16        1.88166  -0.00002   0.00000  -0.00007  -0.00007   1.88159
   A17        1.87635  -0.00001   0.00000  -0.00001  -0.00001   1.87634
   A18        1.88633  -0.00001   0.00000  -0.00010  -0.00010   1.88623
   A19        1.94902   0.00000   0.00000  -0.00004  -0.00004   1.94898
   A20        1.93580  -0.00001   0.00000  -0.00001  -0.00001   1.93579
   A21        1.94829   0.00000   0.00000   0.00005   0.00005   1.94834
   A22        1.85837  -0.00001   0.00000  -0.00008  -0.00008   1.85829
   A23        1.88199  -0.00001   0.00000  -0.00011  -0.00011   1.88189
   A24        1.88663   0.00002   0.00000   0.00019   0.00019   1.88682
    D1       -0.01294   0.00004   0.00000   0.00342   0.00342  -0.00952
    D2        3.13425  -0.00006   0.00000  -0.00405  -0.00405   3.13020
    D3        3.13063   0.00005   0.00000   0.00384   0.00384   3.13448
    D4       -0.00536  -0.00004   0.00000  -0.00363  -0.00363  -0.00899
    D5        2.23805  -0.00010   0.00000  -0.02202  -0.02202   2.21602
    D6       -1.92015  -0.00025   0.00000  -0.02506  -0.02506  -1.94520
    D7        0.20968  -0.00010   0.00000  -0.02198  -0.02198   0.18770
    D8       -0.90888  -0.00002   0.00000  -0.01491  -0.01491  -0.92379
    D9        1.21612  -0.00017   0.00000  -0.01794  -0.01794   1.19817
   D10       -2.93724  -0.00001   0.00000  -0.01486  -0.01486  -2.95211
   D11        2.08460   0.00006   0.00000   0.00606   0.00606   2.09066
   D12       -2.12877   0.00005   0.00000   0.00592   0.00592  -2.12285
   D13       -0.02371   0.00007   0.00000   0.00619   0.00619  -0.01752
   D14       -1.05165  -0.00003   0.00000  -0.00107  -0.00107  -1.05272
   D15        1.01817  -0.00004   0.00000  -0.00121  -0.00121   1.01695
   D16        3.12323  -0.00002   0.00000  -0.00094  -0.00094   3.12229
   D17       -1.06728   0.00006   0.00000   0.00427   0.00427  -1.06301
   D18        1.03231   0.00006   0.00000   0.00432   0.00432   1.03663
   D19        3.12424   0.00005   0.00000   0.00416   0.00416   3.12840
   D20        1.06318  -0.00001   0.00000   0.00176   0.00176   1.06495
   D21       -3.12041  -0.00001   0.00000   0.00181   0.00182  -3.11860
   D22       -1.02848  -0.00002   0.00000   0.00165   0.00165  -1.02683
   D23        3.08374  -0.00002   0.00000   0.00161   0.00161   3.08535
   D24       -1.09986  -0.00002   0.00000   0.00166   0.00166  -1.09820
   D25        0.99208  -0.00003   0.00000   0.00149   0.00149   0.99357
         Item               Value     Threshold  Converged?
 Maximum Force            0.000254     0.000450     YES
 RMS     Force            0.000057     0.000300     YES
 Maximum Displacement     0.033325     0.001800     NO 
 RMS     Displacement     0.012681     0.001200     NO 
 Predicted change in Energy=-8.675756D-06
 GradGradGradGradGradGradGradGradGradGradGradGradGradGradGradGradGradGrad

 Leave Link  103 at Sat Aug 22 15:16:35 2015, MaxMem= 3758096384 cpu:       0.1
 (Enter /share/apps/g09/l202.exe)
                          Input orientation:                          
 ---------------------------------------------------------------------
 Center     Atomic      Atomic             Coordinates (Angstroms)
 Number     Number       Type             X           Y           Z
 ---------------------------------------------------------------------
      1          6           0       -1.572677   -0.705050    0.523176
      2          6           0       -0.589451   -0.031751   -0.083321
      3          6           0        0.744185   -0.682405   -0.390902
      4          1           0        0.975886   -0.547873   -1.458114
      5          6           0        1.913826   -0.124376    0.440495
      6          1           0        2.067395    0.945673    0.261630
      7          1           0        1.729511   -0.261970    1.511781
      8          1           0        2.848112   -0.638329    0.187489
      9          1           0       -1.458389   -1.747425    0.811857
     10          1           0       -2.529320   -0.241306    0.752177
     11          1           0        0.667538   -1.763199   -0.221893
     12          6           0       -0.753110    1.411177   -0.497199
     13          1           0       -0.017381    2.060207   -0.004391
     14          1           0       -0.597706    1.529098   -1.578758
     15          1           0       -1.750389    1.790089   -0.253600
 ---------------------------------------------------------------------
                    Distance matrix (angstroms):
                    1          2          3          4          5
     1  C    0.000000
     2  C    1.337126   0.000000
     3  C    2.490763   1.515435   0.000000
     4  H    3.231933   2.146326   1.100329   0.000000
     5  C    3.535494   2.559171   1.539701   2.159582   0.000000
     6  H    4.005423   2.851872   2.197116   2.525785   1.095710
     7  H    3.475357   2.823993   2.183538   3.077330   1.095700
     8  H    4.434017   3.501158   2.182427   2.494277   1.095924
     9  H    1.087632   2.121306   2.726212   3.537992   3.760855
    10  H    1.087505   2.122514   3.495288   4.155219   4.455600
    11  H    2.587154   2.144093   1.096610   1.760777   2.162806
    12  C    2.488227   1.510006   2.576097   2.784001   3.217101
    13  H    3.216196   2.170203   2.872507   3.146739   2.949557
    14  H    3.218713   2.161630   2.846474   2.608554   3.622036
    15  H    2.619291   2.166996   3.514965   3.788073   4.192066
                    6          7          8          9         10
     6  H    0.000000
     7  H    1.770718   0.000000
     8  H    1.767506   1.773883   0.000000
     9  H    4.470646   3.585970   4.490644   0.000000
    10  H    4.772771   4.326092   5.421557   1.849013   0.000000
    11  H    3.087293   2.527271   2.487534   2.363991   3.672175
    12  C    2.957662   3.605389   4.199770   3.491105   2.728840
    13  H    2.378916   3.277639   3.940807   4.152208   3.489871
    14  H    3.290923   4.263249   4.437457   4.146253   3.506953
    15  H    3.943853   4.408767   5.219002   3.706005   2.396850
                   11         12         13         14         15
    11  H    0.000000
    12  C    3.488652   0.000000
    13  H    3.890353   1.097906   0.000000
    14  H    3.779039   1.099010   1.759967   0.000000
    15  H    4.298049   1.094295   1.771549   1.775623   0.000000
 Stoichiometry    C5H10
 Framework group  C1[X(C5H10)]
 Deg. of freedom    39
 Full point group                 C1      NOp   1
 Largest Abelian subgroup         C1      NOp   1
 Largest concise Abelian subgroup C1      NOp   1
                         Standard orientation:                         
 ---------------------------------------------------------------------
 Center     Atomic      Atomic             Coordinates (Angstroms)
 Number     Number       Type             X           Y           Z
 ---------------------------------------------------------------------
      1          6           0        1.399969   -1.129223   -0.229563
      2          6           0        0.585124   -0.121975    0.101169
      3          6           0       -0.828872   -0.372706    0.585206
      4          1           0       -0.982200    0.147622    1.542533
      5          6           0       -1.914828    0.087857   -0.404370
      6          1           0       -1.862499    1.165616   -0.594837
      7          1           0       -1.808789   -0.427780   -1.365324
      8          1           0       -2.914245   -0.129179   -0.010530
      9          1           0        1.084477   -2.167517   -0.156398
     10          1           0        2.413324   -0.954893   -0.583666
     11          1           0       -0.958248   -1.442752    0.787235
     12          6           0        1.027872    1.318995    0.013431
     13          1           0        0.400448    1.894366   -0.679884
     14          1           0        0.947126    1.814413    0.991114
     15          1           0        2.065012    1.402417   -0.325482
 ---------------------------------------------------------------------
 Rotational constants (GHZ):      7.1830998      3.7103345      2.8306958
 Leave Link  202 at Sat Aug 22 15:16:35 2015, MaxMem= 3758096384 cpu:       0.1
 (Enter /share/apps/g09/l301.exe)
 Standard basis: 6-31G(d) (6D, 7F)
 Ernie: Thresh=  0.10000D-02 Tol=  0.10000D-05 Strict=F.
 There are    95 symmetry adapted basis functions of A   symmetry.
 Integral buffers will be    131072 words long.
 Raffenetti 2 integral format.
 Two-electron integral symmetry is turned on.
    95 basis functions,   180 primitive gaussians,    95 cartesian basis functions
    20 alpha electrons       20 beta electrons
       nuclear repulsion energy       175.1942540794 Hartrees.
 IExCor=  402 DFT=T Ex+Corr=B3LYP ExCW=0 ScaHFX=  0.200000
 ScaDFX=  0.800000  0.720000  1.000000  0.810000 ScalE2=  1.000000  1.000000
 IRadAn=      0 IRanWt=     -1 IRanGd=            0 ICorTp=0
 NAtoms=   15 NActive=   15 NUniq=   15 SFac= 7.50D-01 NAtFMM=   80 NAOKFM=F Big=F
 Leave Link  301 at Sat Aug 22 15:16:35 2015, MaxMem= 3758096384 cpu:       0.6
 (Enter /share/apps/g09/l302.exe)
 NPDir=0 NMtPBC=     1 NCelOv=     1 NCel=       1 NClECP=     1 NCelD=      1
         NCelK=      1 NCelE2=     1 NClLst=     1 CellRange=     0.0.
 One-electron integrals computed using PRISM.
 NBasis=    95 RedAO= T  NBF=    95
 NBsUse=    95 1.00D-06 NBFU=    95
 Precomputing XC quadrature grid using
 IXCGrd= 2 IRadAn=           0 IRanWt=          -1 IRanGd=           0 AccXCQ= 1.00D-10.
 NRdTot=     931 NPtTot=      117968 NUsed=      124693 NTot=      124725
 NSgBfM=    95    95    95    95    95 NAtAll=    15    15.
 Leave Link  302 at Sat Aug 22 15:16:36 2015, MaxMem= 3758096384 cpu:       1.9
 (Enter /share/apps/g09/l303.exe)
 DipDrv:  MaxL=1.
 Leave Link  303 at Sat Aug 22 15:16:36 2015, MaxMem= 3758096384 cpu:       0.3
 (Enter /share/apps/g09/l401.exe)
 Initial guess read from the read-write file.
 B after Tr=     0.000000    0.000000    0.000000
         Rot=    1.000000    0.000000    0.000000    0.000000 Ang=   0.00 deg.
 Guess basis will be translated and rotated to current coordinates.
 Initial guess orbital symmetries:
       Occupied  (A) (A) (A) (A) (A) (A) (A) (A) (A) (A) (A) (A)
                 (A) (A) (A) (A) (A) (A) (A) (A)
       Virtual   (A) (A) (A) (A) (A) (A) (A) (A) (A) (A) (A) (A)
                 (A) (A) (A) (A) (A) (A) (A) (A) (A) (A) (A) (A)
                 (A) (A) (A) (A) (A) (A) (A) (A) (A) (A) (A) (A)
                 (A) (A) (A) (A) (A) (A) (A) (A) (A) (A) (A) (A)
                 (A) (A) (A) (A) (A) (A) (A) (A) (A) (A) (A) (A)
                 (A) (A) (A) (A) (A) (A) (A) (A) (A) (A) (A) (A)
                 (A) (A) (A)
 The electronic state of the initial guess is 1-A.
 Generating alternative initial guess.
 Harris functional with IExCor=  402 diagonalized for initial guess.
 ExpMin= 1.61D-01 ExpMax= 3.05D+03 ExpMxC= 4.57D+02 IAcc=1 IRadAn=         1 AccDes= 0.00D+00
 HarFok:  IExCor=  402 AccDes= 0.00D+00 IRadAn=         1 IDoV= 1
 ScaDFX=  1.000000  1.000000  1.000000  1.000000
 FoFCou: FMM=F IPFlag=           0 FMFlag=      100000 FMFlg1=           0
         NFxFlg=           0 DoJE=T BraDBF=F KetDBF=T FulRan=T
         Omega=  0.000000  0.000000  1.000000  0.000000  0.000000 ICntrl=     500 IOpCl=  0
         NMat0=    1 NMatS0=    1 NMatT0=    0 NMatD0=    1 NMtDS0=    0 NMtDT0=    0
         I1Cent=           4 NGrid=           0.
 Petite list used in FoFCou.
 Harris En= -196.623396111151    
 Leave Link  401 at Sat Aug 22 15:16:36 2015, MaxMem= 3758096384 cpu:       3.2
 (Enter /share/apps/g09/l502.exe)
 Closed shell SCF:
 Requested convergence on RMS density matrix=1.00D-08 within 128 cycles.
 Requested convergence on MAX density matrix=1.00D-06.
 Requested convergence on             energy=1.00D-06.
 No special actions if energy rises.
 Using DIIS extrapolation, IDIIS=  1040.
 Integral symmetry usage will be decided dynamically.
       124545 words used for storage of precomputed grid.
 Keep R1 ints in memory in canonical form, NReq=11484737.
 IEnd=      171641 IEndB=      171641 NGot=  3758096384 MDV=  3747551396
 LenX=  3747551396 LenY=  3747541930
 Symmetry not used in FoFDir.
 MinBra= 0 MaxBra= 2 Meth= 1.
 IRaf=       0 NMat=   1 IRICut=       1 DoRegI=T DoRafI=F ISym2E= 0 JSym2E=0.
 Integral accuracy reduced to 1.0D-05 until final iterations.

 Cycle   1  Pass 0  IDiag  1:
 E= -196.539175561080    
 DIIS: error= 1.40D-03 at cycle   1 NSaved=   1.
 NSaved= 1 IEnMin= 1 EnMin= -196.539175561080     IErMin= 1 ErrMin= 1.40D-03
 ErrMax= 1.40D-03 EMaxC= 1.00D-01 BMatC= 1.87D-04 BMatP= 1.87D-04
 IDIUse=3 WtCom= 9.86D-01 WtEn= 1.40D-02
 Coeff-Com:  0.100D+01
 Coeff-En:   0.100D+01
 Coeff:      0.100D+01
 Gap=     0.269 Goal=   None    Shift=    0.000
 GapD=    0.269 DampG=1.000 DampE=1.000 DampFc=1.0000 IDamp=-1.
 RMSDP=1.99D-04 MaxDP=2.44D-03              OVMax= 5.10D-03

 Cycle   2  Pass 0  IDiag  1:
 E= -196.539537123212     Delta-E=       -0.000361562132 Rises=F Damp=F
 DIIS: error= 1.60D-04 at cycle   2 NSaved=   2.
 NSaved= 2 IEnMin= 2 EnMin= -196.539537123212     IErMin= 2 ErrMin= 1.60D-04
 ErrMax= 1.60D-04 EMaxC= 1.00D-01 BMatC= 1.62D-06 BMatP= 1.87D-04
 IDIUse=3 WtCom= 9.98D-01 WtEn= 1.60D-03
 Coeff-Com: -0.831D-01 0.108D+01
 Coeff-En:   0.000D+00 0.100D+01
 Coeff:     -0.829D-01 0.108D+01
 Gap=     0.269 Goal=   None    Shift=    0.000
 RMSDP=2.72D-05 MaxDP=3.67D-04 DE=-3.62D-04 OVMax= 6.12D-04

 Cycle   3  Pass 0  IDiag  1:
 E= -196.539540482573     Delta-E=       -0.000003359361 Rises=F Damp=F
 DIIS: error= 2.54D-05 at cycle   3 NSaved=   3.
 NSaved= 3 IEnMin= 3 EnMin= -196.539540482573     IErMin= 3 ErrMin= 2.54D-05
 ErrMax= 2.54D-05 EMaxC= 1.00D-01 BMatC= 1.45D-07 BMatP= 1.62D-06
 IDIUse=1 WtCom= 1.00D+00 WtEn= 0.00D+00
 Coeff-Com: -0.271D-01 0.329D+00 0.698D+00
 Coeff:     -0.271D-01 0.329D+00 0.698D+00
 Gap=     0.269 Goal=   None    Shift=    0.000
 RMSDP=5.88D-06 MaxDP=1.10D-04 DE=-3.36D-06 OVMax= 2.06D-04

 Initial convergence to 1.0D-05 achieved.  Increase integral accuracy.
 Cycle   4  Pass 1  IDiag  1:
 E= -196.539578145921     Delta-E=       -0.000037663348 Rises=F Damp=F
 DIIS: error= 2.12D-05 at cycle   1 NSaved=   1.
 NSaved= 1 IEnMin= 1 EnMin= -196.539578145921     IErMin= 1 ErrMin= 2.12D-05
 ErrMax= 2.12D-05 EMaxC= 1.00D-01 BMatC= 7.77D-08 BMatP= 7.77D-08
 IDIUse=1 WtCom= 1.00D+00 WtEn= 0.00D+00
 Coeff-Com:  0.100D+01
 Coeff:      0.100D+01
 Gap=     0.269 Goal=   None    Shift=    0.000
 RMSDP=5.88D-06 MaxDP=1.10D-04 DE=-3.77D-05 OVMax= 3.22D-04

 Cycle   5  Pass 1  IDiag  1:
 E= -196.539578052100     Delta-E=        0.000000093821 Rises=F Damp=F
 DIIS: error= 4.14D-05 at cycle   2 NSaved=   2.
 NSaved= 2 IEnMin= 1 EnMin= -196.539578145921     IErMin= 1 ErrMin= 2.12D-05
 ErrMax= 4.14D-05 EMaxC= 1.00D-01 BMatC= 1.77D-07 BMatP= 7.77D-08
 IDIUse=1 WtCom= 1.00D+00 WtEn= 0.00D+00
 Coeff-Com:  0.608D+00 0.392D+00
 Coeff:      0.608D+00 0.392D+00
 Gap=     0.269 Goal=   None    Shift=    0.000
 RMSDP=4.22D-06 MaxDP=1.11D-04 DE= 9.38D-08 OVMax= 2.37D-04

 Cycle   6  Pass 1  IDiag  1:
 E= -196.539578227224     Delta-E=       -0.000000175124 Rises=F Damp=F
 DIIS: error= 5.51D-06 at cycle   3 NSaved=   3.
 NSaved= 3 IEnMin= 3 EnMin= -196.539578227224     IErMin= 3 ErrMin= 5.51D-06
 ErrMax= 5.51D-06 EMaxC= 1.00D-01 BMatC= 3.89D-09 BMatP= 7.77D-08
 IDIUse=1 WtCom= 1.00D+00 WtEn= 0.00D+00
 Coeff-Com:  0.177D+00 0.166D+00 0.657D+00
 Coeff:      0.177D+00 0.166D+00 0.657D+00
 Gap=     0.269 Goal=   None    Shift=    0.000
 RMSDP=8.91D-07 MaxDP=2.00D-05 DE=-1.75D-07 OVMax= 4.39D-05

 Cycle   7  Pass 1  IDiag  1:
 E= -196.539578230251     Delta-E=       -0.000000003027 Rises=F Damp=F
 DIIS: error= 2.14D-06 at cycle   4 NSaved=   4.
 NSaved= 4 IEnMin= 4 EnMin= -196.539578230251     IErMin= 4 ErrMin= 2.14D-06
 ErrMax= 2.14D-06 EMaxC= 1.00D-01 BMatC= 1.08D-09 BMatP= 3.89D-09
 IDIUse=1 WtCom= 1.00D+00 WtEn= 0.00D+00
 Coeff-Com: -0.184D-01 0.171D-01 0.383D+00 0.619D+00
 Coeff:     -0.184D-01 0.171D-01 0.383D+00 0.619D+00
 Gap=     0.269 Goal=   None    Shift=    0.000
 RMSDP=3.26D-07 MaxDP=5.85D-06 DE=-3.03D-09 OVMax= 1.06D-05

 Cycle   8  Pass 1  IDiag  1:
 E= -196.539578231335     Delta-E=       -0.000000001084 Rises=F Damp=F
 DIIS: error= 9.70D-08 at cycle   5 NSaved=   5.
 NSaved= 5 IEnMin= 5 EnMin= -196.539578231335     IErMin= 5 ErrMin= 9.70D-08
 ErrMax= 9.70D-08 EMaxC= 1.00D-01 BMatC= 2.14D-12 BMatP= 1.08D-09
 IDIUse=1 WtCom= 1.00D+00 WtEn= 0.00D+00
 Coeff-Com: -0.622D-02 0.338D-02 0.106D+00 0.174D+00 0.723D+00
 Coeff:     -0.622D-02 0.338D-02 0.106D+00 0.174D+00 0.723D+00
 Gap=     0.269 Goal=   None    Shift=    0.000
 RMSDP=2.41D-08 MaxDP=3.66D-07 DE=-1.08D-09 OVMax= 3.85D-07

 Cycle   9  Pass 1  IDiag  1:
 E= -196.539578231336     Delta-E=       -0.000000000001 Rises=F Damp=F
 DIIS: error= 4.93D-08 at cycle   6 NSaved=   6.
 NSaved= 6 IEnMin= 6 EnMin= -196.539578231336     IErMin= 6 ErrMin= 4.93D-08
 ErrMax= 4.93D-08 EMaxC= 1.00D-01 BMatC= 3.80D-13 BMatP= 2.14D-12
 IDIUse=1 WtCom= 1.00D+00 WtEn= 0.00D+00
 Coeff-Com: -0.147D-02 0.187D-03 0.204D-01 0.328D-01 0.316D+00 0.632D+00
 Coeff:     -0.147D-02 0.187D-03 0.204D-01 0.328D-01 0.316D+00 0.632D+00
 Gap=     0.269 Goal=   None    Shift=    0.000
 RMSDP=7.84D-09 MaxDP=1.51D-07 DE=-1.36D-12 OVMax= 1.44D-07

 SCF Done:  E(RB3LYP) =  -196.539578231     A.U. after    9 cycles
             Convg  =    0.7837D-08             -V/T =  2.0104
 KE= 1.945203142408D+02 PE=-8.040703836879D+02 EE= 2.378162371363D+02
 Leave Link  502 at Sat Aug 22 15:16:38 2015, MaxMem= 3758096384 cpu:      21.1
 (Enter /share/apps/g09/l701.exe)
 Compute integral first derivatives.
 ... and contract with generalized density number  0.
 Leave Link  701 at Sat Aug 22 15:16:38 2015, MaxMem= 3758096384 cpu:       1.7
 (Enter /share/apps/g09/l702.exe)
 L702 exits ... SP integral derivatives will be done elsewhere.
 Leave Link  702 at Sat Aug 22 15:16:38 2015, MaxMem= 3758096384 cpu:       0.2
 (Enter /share/apps/g09/l703.exe)
 Compute integral first derivatives, UseDBF=F ICtDFT=           0.
 Integral derivatives from FoFDir, PRISM(SPDF).
 Calling FoFJK, ICntrl=      2127 FMM=F ISym2X=0 I1Cent= 0 IOpClX= 0 NMat=1 NMatS=1 NMatT=0.
 FoFCou: FMM=F IPFlag=           0 FMFlag=      100000 FMFlg1=         800
         NFxFlg=           0 DoJE=F BraDBF=F KetDBF=F FulRan=T
         Omega=  0.000000  0.000000  1.000000  0.000000  0.000000 ICntrl=    2127 IOpCl=  0
         NMat0=    1 NMatS0=    1 NMatT0=    0 NMatD0=    1 NMtDS0=    0 NMtDT0=    0
         I1Cent=           0 NGrid=           0.
 Symmetry not used in FoFCou.
 Leave Link  703 at Sat Aug 22 15:16:39 2015, MaxMem= 3758096384 cpu:       7.5
 (Enter /share/apps/g09/l716.exe)
 Dipole        =-1.26943208D-01 1.41506438D-01 3.93733649D-02
 ***** Axes restored to original set *****
 -------------------------------------------------------------------
 Center     Atomic                   Forces (Hartrees/Bohr)
 Number     Number              X              Y              Z
 -------------------------------------------------------------------
      1        6          -0.000068010   -0.000054586   -0.000150486
      2        6           0.000048338   -0.000097003   -0.000082594
      3        6          -0.000019464    0.000130434    0.000138120
      4        1          -0.000045448   -0.000043541   -0.000109735
      5        6           0.000032730   -0.000029331   -0.000078025
      6        1           0.000010430   -0.000062990   -0.000019224
      7        1           0.000038608    0.000010028    0.000045660
      8        1          -0.000011225   -0.000006582    0.000020482
      9        1           0.000019479    0.000033376    0.000062888
     10        1          -0.000013657    0.000012352   -0.000017082
     11        1           0.000000240    0.000051304    0.000068533
     12        6           0.000069428    0.000056231    0.000182759
     13        1          -0.000051598    0.000029212   -0.000035255
     14        1          -0.000011507   -0.000014366   -0.000016693
     15        1           0.000001655   -0.000014538   -0.000009348
 -------------------------------------------------------------------
 Cartesian Forces:  Max     0.000182759 RMS     0.000062980
 Leave Link  716 at Sat Aug 22 15:16:39 2015, MaxMem= 3758096384 cpu:       0.2
 (Enter /share/apps/g09/l103.exe)

 GradGradGradGradGradGradGradGradGradGradGradGradGradGradGradGradGradGrad
 Berny optimization.
 Using GEDIIS/GDIIS optimizer.
 Internal  Forces:  Max     0.000291117 RMS     0.000060051
 Search for a local minimum.
 Step number   2 out of a maximum of   73
 All quantities printed in internal units (Hartrees-Bohrs-Radians)
 RMS Force = .60051D-04 SwitMx=.10000D-02 MixMth= 2
 Mixed Optimization -- En-DIIS/RFO-DIIS
 Swaping is turned off.
 Update second derivatives using D2CorX and points    1    2
 DE= -1.38D-05 DEPred=-8.68D-06 R= 1.60D+00
 SS=  1.41D+00  RLast= 5.11D-02 DXNew= 5.0454D-01 1.5329D-01
 Trust test= 1.60D+00 RLast= 5.11D-02 DXMaxT set to 3.00D-01
     Eigenvalues ---    0.00231   0.00283   0.00641   0.01249   0.02920
     Eigenvalues ---    0.02978   0.04259   0.05352   0.05397   0.05480
     Eigenvalues ---    0.07023   0.07204   0.09540   0.13047   0.15979
     Eigenvalues ---    0.16000   0.16000   0.16000   0.16000   0.16000
     Eigenvalues ---    0.16000   0.16179   0.22859   0.24920   0.25258
     Eigenvalues ---    0.28555   0.30797   0.31352   0.33724   0.33809
     Eigenvalues ---    0.33900   0.34076   0.34137   0.34162   0.34203
     Eigenvalues ---    0.34320   0.35098   0.35105   0.578571000.00000
     Eigenvalues --- 1000.000001000.000001000.000001000.000001000.00000
     Eigenvalues --- 1000.000001000.000001000.000001000.000001000.00000
     Eigenvalues --- 1000.000001000.000001000.000001000.000001000.00000
     Eigenvalues --- 1000.000001000.000001000.000001000.000001000.00000
     Eigenvalues --- 1000.000001000.000001000.00000
 En-DIIS/RFO-DIIS IScMMF=        0 using points:     2    1
 RFO step:  Lambda=-9.80684685D-07.
 DIIS coeffs:      1.64290     -0.64290
 Iteration  1 RMS(Cart)=  0.01673850 RMS(Int)=  0.00009773
 Iteration  2 RMS(Cart)=  0.00012860 RMS(Int)=  0.00000187
 Iteration  3 RMS(Cart)=  0.00000000 RMS(Int)=  0.00000187
 Variable       Old X    -DE/DX   Delta X   Delta X   Delta X     New X
                                  (DIIS)     (GDIIS)  (Total)
    R1        2.52680   0.00000   0.00002   0.00000   0.00002   2.52682
    R2        2.05533  -0.00001   0.00003  -0.00006  -0.00003   2.05530
    R3        2.05509   0.00001   0.00001   0.00005   0.00006   2.05514
    R4        2.86376  -0.00003  -0.00008  -0.00013  -0.00021   2.86355
    R5        2.85350   0.00002   0.00002   0.00008   0.00010   2.85360
    R6        2.07932   0.00009   0.00000   0.00046   0.00045   2.07977
    R7        2.90961   0.00001   0.00009   0.00001   0.00010   2.90971
    R8        2.07229  -0.00004   0.00000  -0.00020  -0.00020   2.07209
    R9        2.07059  -0.00005  -0.00003  -0.00026  -0.00028   2.07031
   R10        2.07057   0.00004   0.00001   0.00017   0.00018   2.07075
   R11        2.07100  -0.00001   0.00000  -0.00006  -0.00006   2.07094
   R12        2.07474  -0.00003  -0.00007  -0.00014  -0.00021   2.07453
   R13        2.07683   0.00001   0.00009   0.00002   0.00011   2.07694
   R14        2.06792  -0.00001  -0.00001  -0.00003  -0.00004   2.06788
    A1        2.12435   0.00001   0.00013   0.00005   0.00018   2.12453
    A2        2.12661  -0.00001  -0.00016  -0.00009  -0.00025   2.12636
    A3        2.03223   0.00001   0.00003   0.00004   0.00008   2.03230
    A4        2.12114  -0.00003   0.00017  -0.00023  -0.00007   2.12107
    A5        2.12445  -0.00010  -0.00025  -0.00060  -0.00085   2.12360
    A6        2.03759   0.00013   0.00009   0.00083   0.00091   2.03850
    A7        1.90676  -0.00010  -0.00062  -0.00023  -0.00085   1.90591
    A8        1.98594   0.00029   0.00012   0.00229   0.00241   1.98835
    A9        1.90749  -0.00011   0.00063  -0.00148  -0.00085   1.90664
   A10        1.89594  -0.00005  -0.00122   0.00069  -0.00053   1.89541
   A11        1.85949   0.00004  -0.00003  -0.00026  -0.00029   1.85920
   A12        1.90400  -0.00008   0.00111  -0.00116  -0.00005   1.90395
   A13        1.95224  -0.00002   0.00015  -0.00023  -0.00008   1.95216
   A14        1.93333   0.00007  -0.00001   0.00090   0.00090   1.93423
   A15        1.93156  -0.00001  -0.00003  -0.00022  -0.00025   1.93131
   A16        1.88159  -0.00001  -0.00005   0.00016   0.00011   1.88170
   A17        1.87634   0.00000   0.00000  -0.00029  -0.00029   1.87605
   A18        1.88623  -0.00004  -0.00006  -0.00036  -0.00042   1.88581
   A19        1.94898   0.00010  -0.00003   0.00125   0.00122   1.95020
   A20        1.93579  -0.00003  -0.00001  -0.00036  -0.00037   1.93542
   A21        1.94834  -0.00004   0.00003  -0.00054  -0.00051   1.94784
   A22        1.85829  -0.00001  -0.00005   0.00014   0.00009   1.85838
   A23        1.88189  -0.00003  -0.00007  -0.00013  -0.00020   1.88168
   A24        1.88682   0.00000   0.00012  -0.00037  -0.00025   1.88657
    D1       -0.00952   0.00007   0.00220   0.00347   0.00567  -0.00385
    D2        3.13020   0.00006  -0.00261   0.00358   0.00098   3.13117
    D3        3.13448   0.00002   0.00247   0.00079   0.00326   3.13773
    D4       -0.00899   0.00001  -0.00233   0.00090  -0.00144  -0.01042
    D5        2.21602  -0.00011  -0.01416  -0.01423  -0.02839   2.18763
    D6       -1.94520  -0.00005  -0.01611  -0.01194  -0.02805  -1.97326
    D7        0.18770  -0.00004  -0.01413  -0.01295  -0.02708   0.16062
    D8       -0.92379  -0.00010  -0.00959  -0.01433  -0.02391  -0.94770
    D9        1.19817  -0.00004  -0.01154  -0.01204  -0.02358   1.17460
   D10       -2.95211  -0.00003  -0.00955  -0.01305  -0.02261  -2.97471
   D11        2.09066   0.00000   0.00390  -0.00135   0.00254   2.09320
   D12       -2.12285   0.00003   0.00381  -0.00059   0.00321  -2.11964
   D13       -0.01752  -0.00002   0.00398  -0.00168   0.00231  -0.01521
   D14       -1.05272  -0.00001  -0.00069  -0.00125  -0.00194  -1.05466
   D15        1.01695   0.00002  -0.00078  -0.00049  -0.00127   1.01568
   D16        3.12229  -0.00003  -0.00060  -0.00157  -0.00218   3.12011
   D17       -1.06301  -0.00004   0.00274  -0.00822  -0.00548  -1.06849
   D18        1.03663  -0.00001   0.00278  -0.00756  -0.00478   1.03185
   D19        3.12840  -0.00002   0.00267  -0.00756  -0.00488   3.12352
   D20        1.06495   0.00000   0.00113  -0.00647  -0.00533   1.05962
   D21       -3.11860   0.00002   0.00117  -0.00580  -0.00463  -3.12323
   D22       -1.02683   0.00002   0.00106  -0.00580  -0.00474  -1.03157
   D23        3.08535  -0.00003   0.00103  -0.00703  -0.00600   3.07935
   D24       -1.09820  -0.00001   0.00107  -0.00636  -0.00530  -1.10350
   D25        0.99357  -0.00001   0.00096  -0.00636  -0.00541   0.98817
         Item               Value     Threshold  Converged?
 Maximum Force            0.000291     0.000450     YES
 RMS     Force            0.000060     0.000300     YES
 Maximum Displacement     0.054323     0.001800     NO 
 RMS     Displacement     0.016735     0.001200     NO 
 Predicted change in Energy=-5.879469D-06
 GradGradGradGradGradGradGradGradGradGradGradGradGradGradGradGradGradGrad

 Leave Link  103 at Sat Aug 22 15:16:39 2015, MaxMem= 3758096384 cpu:       0.1
 (Enter /share/apps/g09/l202.exe)
                          Input orientation:                          
 ---------------------------------------------------------------------
 Center     Atomic      Atomic             Coordinates (Angstroms)
 Number     Number       Type             X           Y           Z
 ---------------------------------------------------------------------
      1          6           0       -1.580905   -0.709572    0.512268
      2          6           0       -0.590515   -0.034162   -0.080088
      3          6           0        0.742830   -0.686965   -0.383812
      4          1           0        0.968679   -0.567772   -1.454343
      5          6           0        1.917464   -0.116908    0.432340
      6          1           0        2.073246    0.949020    0.232884
      7          1           0        1.738295   -0.234175    1.507010
      8          1           0        2.849200   -0.637945    0.184608
      9          1           0       -1.471140   -1.753686    0.796329
     10          1           0       -2.538490   -0.244993    0.735722
     11          1           0        0.667700   -1.765182   -0.199094
     12          6           0       -0.748802    1.411688   -0.485970
     13          1           0       -0.016231    2.057344    0.015646
     14          1           0       -0.585879    1.535729   -1.565795
     15          1           0       -1.747419    1.790138   -0.247279
 ---------------------------------------------------------------------
                    Distance matrix (angstroms):
                    1          2          3          4          5
     1  C    0.000000
     2  C    1.337137   0.000000
     3  C    2.490625   1.515324   0.000000
     4  H    3.223049   2.145787   1.100568   0.000000
     5  C    3.549117   2.561131   1.539752   2.159409   0.000000
     6  H    4.022661   2.856610   2.196990   2.523382   1.095560
     7  H    3.497514   2.825287   2.184303   3.077858   1.095796
     8  H    4.442783   3.502322   2.182270   2.495485   1.095893
     9  H    1.087618   2.121408   2.726223   3.524859   3.780763
    10  H    1.087536   2.122404   3.495104   4.147385   4.468106
    11  H    2.583907   2.143291   1.096503   1.760690   2.162736
    12  C    2.487693   1.510058   2.576769   2.793876   3.207627
    13  H    3.217245   2.171029   2.875234   3.165777   2.939419
    14  H    3.217110   2.161458   2.846562   2.617973   3.604231
    15  H    2.617859   2.166668   3.515113   3.793933   4.186893
                    6          7          8          9         10
     6  H    0.000000
     7  H    1.770746   0.000000
     8  H    1.767171   1.773664   0.000000
     9  H    4.492745   3.621389   4.503823   0.000000
    10  H    4.790263   4.345790   5.430040   1.849071   0.000000
    11  H    3.086917   2.530009   2.485324   2.359160   3.669402
    12  C    2.948688   3.586988   4.194792   3.490796   2.727656
    13  H    2.375182   3.248629   3.937490   4.153334   3.490137
    14  H    3.263498   4.239867   4.425894   4.145307   3.504374
    15  H    3.941512   4.396087   5.216418   3.704610   2.394544
                   11         12         13         14         15
    11  H    0.000000
    12  C    3.490168   0.000000
    13  H    3.889162   1.097793   0.000000
    14  H    3.786204   1.099069   1.759982   0.000000
    15  H    4.298304   1.094274   1.771311   1.775495   0.000000
 Stoichiometry    C5H10
 Framework group  C1[X(C5H10)]
 Deg. of freedom    39
 Full point group                 C1      NOp   1
 Largest Abelian subgroup         C1      NOp   1
 Largest concise Abelian subgroup C1      NOp   1
                         Standard orientation:                         
 ---------------------------------------------------------------------
 Center     Atomic      Atomic             Coordinates (Angstroms)
 Number     Number       Type             X           Y           Z
 ---------------------------------------------------------------------
      1          6           0        1.417546   -1.115440   -0.230990
      2          6           0        0.586401   -0.120924    0.097752
      3          6           0       -0.825703   -0.393478    0.575125
      4          1           0       -0.980680    0.099255    1.546951
      5          6           0       -1.917588    0.086651   -0.398580
      6          1           0       -1.876779    1.170245   -0.554821
      7          1           0       -1.808379   -0.397270   -1.375648
      8          1           0       -2.914101   -0.152861   -0.010536
      9          1           0        1.115613   -2.158278   -0.165864
     10          1           0        2.430723   -0.925353   -0.577504
     11          1           0       -0.947355   -1.469402    0.748056
     12          6           0        1.011235    1.326029    0.019521
     13          1           0        0.381059    1.897875   -0.674035
     14          1           0        0.919412    1.814997    0.999537
     15          1           0        2.049138    1.423759   -0.313108
 ---------------------------------------------------------------------
 Rotational constants (GHZ):      7.2020544      3.7088529      2.8244847
 Leave Link  202 at Sat Aug 22 15:16:39 2015, MaxMem= 3758096384 cpu:       0.1
 (Enter /share/apps/g09/l301.exe)
 Standard basis: 6-31G(d) (6D, 7F)
 Ernie: Thresh=  0.10000D-02 Tol=  0.10000D-05 Strict=F.
 There are    95 symmetry adapted basis functions of A   symmetry.
 Integral buffers will be    131072 words long.
 Raffenetti 2 integral format.
 Two-electron integral symmetry is turned on.
    95 basis functions,   180 primitive gaussians,    95 cartesian basis functions
    20 alpha electrons       20 beta electrons
       nuclear repulsion energy       175.1851409941 Hartrees.
 IExCor=  402 DFT=T Ex+Corr=B3LYP ExCW=0 ScaHFX=  0.200000
 ScaDFX=  0.800000  0.720000  1.000000  0.810000 ScalE2=  1.000000  1.000000
 IRadAn=      0 IRanWt=     -1 IRanGd=            0 ICorTp=0
 NAtoms=   15 NActive=   15 NUniq=   15 SFac= 7.50D-01 NAtFMM=   80 NAOKFM=F Big=F
 Leave Link  301 at Sat Aug 22 15:16:39 2015, MaxMem= 3758096384 cpu:       0.6
 (Enter /share/apps/g09/l302.exe)
 NPDir=0 NMtPBC=     1 NCelOv=     1 NCel=       1 NClECP=     1 NCelD=      1
         NCelK=      1 NCelE2=     1 NClLst=     1 CellRange=     0.0.
 One-electron integrals computed using PRISM.
 NBasis=    95 RedAO= T  NBF=    95
 NBsUse=    95 1.00D-06 NBFU=    95
 Precomputing XC quadrature grid using
 IXCGrd= 2 IRadAn=           0 IRanWt=          -1 IRanGd=           0 AccXCQ= 1.00D-10.
 NRdTot=     930 NPtTot=      117968 NUsed=      124686 NTot=      124718
 NSgBfM=    95    95    95    95    95 NAtAll=    15    15.
 Leave Link  302 at Sat Aug 22 15:16:39 2015, MaxMem= 3758096384 cpu:       2.0
 (Enter /share/apps/g09/l303.exe)
 DipDrv:  MaxL=1.
 Leave Link  303 at Sat Aug 22 15:16:39 2015, MaxMem= 3758096384 cpu:       0.3
 (Enter /share/apps/g09/l401.exe)
 Initial guess read from the read-write file.
 B after Tr=     0.000000    0.000000    0.000000
         Rot=    1.000000    0.000000    0.000000    0.000000 Ang=   0.00 deg.
 Guess basis will be translated and rotated to current coordinates.
 Initial guess orbital symmetries:
       Occupied  (A) (A) (A) (A) (A) (A) (A) (A) (A) (A) (A) (A)
                 (A) (A) (A) (A) (A) (A) (A) (A)
       Virtual   (A) (A) (A) (A) (A) (A) (A) (A) (A) (A) (A) (A)
                 (A) (A) (A) (A) (A) (A) (A) (A) (A) (A) (A) (A)
                 (A) (A) (A) (A) (A) (A) (A) (A) (A) (A) (A) (A)
                 (A) (A) (A) (A) (A) (A) (A) (A) (A) (A) (A) (A)
                 (A) (A) (A) (A) (A) (A) (A) (A) (A) (A) (A) (A)
                 (A) (A) (A) (A) (A) (A) (A) (A) (A) (A) (A) (A)
                 (A) (A) (A)
 The electronic state of the initial guess is 1-A.
 Generating alternative initial guess.
 Harris functional with IExCor=  402 diagonalized for initial guess.
[...]
 ! R14   R(12,15)                1.0943         -DE/DX =    0.0                 !
 ! A1    A(2,1,9)              121.7259         -DE/DX =    0.0                 !
 ! A2    A(2,1,10)             121.8341         -DE/DX =    0.0                 !
 ! A3    A(9,1,10)             116.44           -DE/DX =    0.0                 !
 ! A4    A(1,2,3)              121.5134         -DE/DX =    0.0                 !
 ! A5    A(1,2,12)             121.6668         -DE/DX =    0.0                 !
 ! A6    A(3,2,12)             116.819          -DE/DX =    0.0                 !
 ! A7    A(2,3,4)              109.155          -DE/DX =    0.0                 !
 ! A8    A(2,3,5)              114.0214         -DE/DX =    0.0                 !
 ! A9    A(2,3,11)             109.2092         -DE/DX =    0.0                 !
 ! A10   A(4,3,5)              108.6049         -DE/DX =    0.0                 !
 ! A11   A(4,3,11)             106.5022         -DE/DX =    0.0                 !
 ! A12   A(5,3,11)             109.078          -DE/DX =    0.0                 !
 ! A13   A(3,5,6)              111.8784         -DE/DX =    0.0                 !
 ! A14   A(3,5,7)              110.841          -DE/DX =    0.0                 !
 ! A15   A(3,5,8)              110.6168         -DE/DX =    0.0                 !
 ! A16   A(6,5,7)              107.8245         -DE/DX =    0.0                 !
 ! A17   A(6,5,8)              107.4871         -DE/DX =    0.0                 !
 ! A18   A(7,5,8)              108.0331         -DE/DX =    0.0                 !
 ! A19   A(2,12,13)            111.6956         -DE/DX =    0.0                 !
 ! A20   A(2,12,14)            110.9528         -DE/DX =    0.0                 !
 ! A21   A(2,12,15)            111.5895         -DE/DX =    0.0                 !
 ! A22   A(13,12,14)           106.4844         -DE/DX =    0.0                 !
 ! A23   A(13,12,15)           107.8148         -DE/DX =    0.0                 !
 ! A24   A(14,12,15)           108.0781         -DE/DX =    0.0                 !
 ! D1    D(9,1,2,3)             -0.1422         -DE/DX =    0.0                 !
 ! D2    D(9,1,2,12)           179.533          -DE/DX =    0.0                 !
 ! D3    D(10,1,2,3)           179.9224         -DE/DX =    0.0                 !
 ! D4    D(10,1,2,12)           -0.4024         -DE/DX =    0.0                 !
 ! D5    D(1,2,3,4)            124.7253         -DE/DX =    0.0                 !
 ! D6    D(1,2,3,5)           -113.6353         -DE/DX =    0.0                 !
 ! D7    D(1,2,3,11)             8.6562         -DE/DX =    0.0                 !
 ! D8    D(12,2,3,4)           -54.965          -DE/DX =    0.0                 !
 ! D9    D(12,2,3,5)            66.6744         -DE/DX =    0.0                 !
 ! D10   D(12,2,3,11)         -171.0341         -DE/DX =    0.0                 !
 ! D11   D(1,2,12,13)          119.1497         -DE/DX =    0.0                 !
 ! D12   D(1,2,12,14)         -122.2068         -DE/DX =    0.0                 !
 ! D13   D(1,2,12,15)           -1.6173         -DE/DX =    0.0                 !
 ! D14   D(3,2,12,13)          -61.1606         -DE/DX =    0.0                 !
 ! D15   D(3,2,12,14)           57.4829         -DE/DX =    0.0                 !
 ! D16   D(3,2,12,15)          178.0724         -DE/DX =    0.0                 !
 ! D17   D(2,3,5,6)            -61.4318         -DE/DX =    0.0                 !
 ! D18   D(2,3,5,7)             58.9541         -DE/DX =    0.0                 !
 ! D19   D(2,3,5,8)            178.7638         -DE/DX =    0.0                 !
 ! D20   D(4,3,5,6)             60.5112         -DE/DX =    0.0                 !
 ! D21   D(4,3,5,7)           -179.103          -DE/DX =    0.0                 !
 ! D22   D(4,3,5,8)            -59.2932         -DE/DX =    0.0                 !
 ! D23   D(11,3,5,6)           176.2048         -DE/DX =    0.0                 !
 ! D24   D(11,3,5,7)           -63.4094         -DE/DX =    0.0                 !
 ! D25   D(11,3,5,8)            56.4004         -DE/DX =    0.0                 !
 --------------------------------------------------------------------------------
 GradGradGradGradGradGradGradGradGradGradGradGradGradGradGradGradGradGrad

 Leave Link  103 at Sat Aug 22 15:17:10 2015, MaxMem= 3758096384 cpu:       0.1
 (Enter /share/apps/g09/l9999.exe)
 1\1\GINC-COMPUTE-0-12\Freq\RB3LYP\6-31G(d)\C5H10\HETANJIN\22-Aug-2015\
 0\\#P Geom=AllCheck Guess=TCheck SCRF=Check GenChk RB3LYP/6-31G(d) Fre
 q\\using ub3lyp/6-31G(d) to scan\\0,1\C,-1.5836716731,-0.7109309695,0.
 5097389322\C,-0.5914030152,-0.0351546763,-0.0790913743\C,0.7417813854,
 -0.6888117182,-0.3811956792\H,0.9641678705,-0.5769173421,-1.4533746477
 \C,1.9190215013,-0.1139864558,0.4271686489\H,2.0772744222,0.9497247459
 ,0.2177817286\H,1.742311288,-0.2213593395,1.5033181078\H,2.8487361212,
 -0.6397572559,0.1819212774\H,-1.4750101765,-1.7553640993,0.7929451874\
 H,-2.5421289081,-0.2466464392,0.7300913643\H,0.6672397388,-1.765883739
 1,-0.1892922568\C,-0.7472868066,1.4119778767,-0.4811359637\H,-0.023472
 4014,2.0566094359,0.0343161953\H,-0.5693907133,1.5421005491,-1.5578756
 953\H,-1.7501366332,1.7869584271,-0.254888825\\Version=EM64L-G09RevA.0
 1\State=1-A\HF=-196.5395903\RMSD=2.545e-09\RMSF=9.279e-06\ZeroPoint=0.
 1375011\Thermal=0.1440532\Dipole=0.1521628,0.0950419,-0.0764142\Dipole
 Deriv=-0.1194627,-0.1156229,-0.0683971,-0.0892529,-0.0338845,-0.038026
 3,-0.0535428,-0.0488,-0.2896733,0.1941454,-0.0042683,-0.0976725,-0.051
 4126,0.2106945,-0.1193723,-0.1327735,-0.0980787,-0.0350326,0.0935243,0
 .0106808,0.0065753,-0.0086679,0.0696314,0.0311467,-0.0194026,0.0040188
 ,0.1811311,-0.044733,-0.0059513,0.0302618,0.0089913,0.0541191,0.028571
 6,0.0437032,0.0050399,-0.1826423,0.0489749,-0.0192994,-0.0226358,0.050
 2633,0.1131635,-0.0324066,0.0434223,-0.0148671,0.0978686,0.0559529,-0.
 0209299,-0.0148785,-0.0569062,-0.1523147,0.023394,-0.0143864,0.0389168
 ,0.0289769,0.0383143,-0.0187294,0.042607,-0.019172,0.0460619,0.0140183
 ,-0.014784,0.0039547,-0.1508273,-0.173343,0.0686301,0.0235253,0.086327
 6,0.0082217,-0.0252753,0.0187728,-0.0348638,0.0439436,0.0489045,0.0532
 413,0.0193732,0.0159728,-0.1114542,0.0688192,0.028223,0.0545745,0.1052
 623,-0.0871744,0.0603515,0.0598314,0.0990609,0.0094183,0.0030329,0.059
 0944,0.0186522,0.1135312,-0.017409,-0.0304667,-0.0081162,0.0074755,-0.
 168368,0.0068781,-0.0145254,0.0429161,0.0399498,0.0286065,0.0101805,0.
 0239483,0.0298832,-0.0053622,0.0264093,0.0313304,0.0210996,0.1240972,-
 0.019357,-0.094881,-0.0717902,-0.1010587,-0.0495994,-0.0140489,-0.0669
 191,-0.0453139,0.0154817,0.0674241,0.0033731,0.0506631,-0.0163888,0.00
 29765,0.0192122,0.0445563,0.0618901,-0.1490515,-0.1143678,0.1036916,0.
 0267048,0.0448847,0.0066961,0.0076471,0.0472315,-0.0091391,0.0569847\P
 olar=62.3666166,2.8347534,53.7599856,-6.818755,-6.1748602,42.9276439\P
 G=C01 [X(C5H10)]\NImag=0\\0.69988488,0.02323483,0.66066568,-0.23450543
 ,-0.18252199,0.24912928,-0.34554054,-0.15855440,0.16115406,0.65450418,
 -0.15962352,-0.21790954,0.11262298,0.09750689,0.57505153,0.16117353,0.
 11198205,-0.14765494,-0.20510960,-0.15586206,0.31980093,-0.02924418,0.
 00953858,0.01120956,-0.16566962,0.04205821,0.02331994,0.45404962,-0.01
 191633,0.01084838,0.00303817,0.05008018,-0.11337555,-0.00768845,0.0025
 8352,0.57798237,0.01685590,-0.00430730,0.00179855,0.02391185,-0.008447
 67,-0.08414098,-0.03331537,-0.04091056,0.53521502,-0.00276616,0.003202
 02,0.00008263,-0.00998932,-0.00391399,0.03124929,-0.05557433,-0.003918
 83,0.05172256,0.06747157,0.00141873,-0.00098706,0.00006719,0.00248617,
 0.00193875,-0.01485467,-0.00322437,-0.05625917,0.02764205,0.00553983,0
 .05463645,0.00045957,-0.00175800,0.00028917,0.00441079,0.00185703,-0.0
 0640778,0.04907087,0.02803471,-0.28228351,-0.05352934,-0.02914580,0.31
 035198,0.00015401,0.00254323,-0.00143096,-0.03208438,-0.00878845,-0.01
 277661,-0.13380215,-0.03243551,-0.04502790,0.00402165,0.00120041,0.001
 95376,0.51129231,0.00213225,-0.00142215,-0.00075428,0.00677417,0.01024
 433,0.01035308,-0.02607104,-0.09853635,-0.02031823,0.00241125,0.001081
 44,0.00160635,-0.03126397,0.56287837,0.00292254,-0.00113467,-0.0011768
 8,0.00198705,0.00623173,0.00560971,-0.04095932,-0.02223091,-0.10801612
 ,-0.02815026,-0.01448660,-0.01907091,-0.04744956,-0.02026694,0.5466236
 6,-0.00033119,0.00021894,0.00012215,0.00128682,-0.00105880,0.00070340,
 -0.00315731,-0.02589305,0.00601685,0.00110898,0.00090807,0.00040167,-0
 .05381609,-0.03345278,0.00763216,0.05658520,-0.00025648,0.00026515,0.0
 0005755,0.00066253,-0.00056940,-0.00013604,-0.00192468,-0.01140056,0.0
 0191300,0.00020039,0.00049134,-0.00046149,-0.03410782,-0.29694050,0.05
 157100,0.03782968,0.32415099,-0.00005665,-0.00001990,0.00010930,0.0006
 2618,0.00051474,0.00037645,-0.00176524,-0.01940282,0.00370478,0.000948
 66,-0.00005233,0.00082307,0.00790365,0.05183439,-0.06115615,-0.0054948
 0,-0.05577351,0.06157491,0.00001248,-0.00031894,0.00071032,0.00259739,
 0.00038215,-0.00117994,0.00336725,0.00336212,-0.02701367,-0.00411226,-
 0.00226732,-0.00348160,-0.05708215,-0.00401448,0.04636693,-0.00162437,
 0.00022942,0.00341955,0.05985898,-0.00000107,0.00004216,0.00014064,0.0
 0074102,0.00021136,0.00045100,0.00224969,0.00122881,-0.01339750,-0.002
 56009,-0.00007987,-0.00172142,-0.00407171,-0.05402552,0.02785685,-0.00
 598466,-0.00189261,0.03286190,0.00688130,0.05283734,-0.00055066,0.0001
 4009,0.00066251,0.00171676,-0.00015735,0.00052997,0.00189577,0.0017834
 9,-0.01701132,-0.00318217,-0.00179679,-0.00043465,0.04541425,0.0277393
 7,-0.30190056,0.00118135,0.00075140,-0.00507103,-0.04742708,-0.0288885
 0,0.32860627,-0.00081370,0.00093151,-0.00018824,-0.00206807,-0.0040778
 6,-0.00363045,-0.02131987,0.01262410,0.00596899,0.00109622,0.00035682,
 -0.00016300,-0.23510010,0.10897562,0.05209597,0.00508862,-0.00214004,-
 0.00166286,-0.00395674,0.00199892,0.00125534,0.25634219,-0.00040554,0.
 00037943,0.00013281,-0.00151537,-0.00140178,-0.00182557,-0.01343729,0.
 00657816,0.00311096,0.00071797,0.00022919,0.00047101,0.10932909,-0.111
 83815,-0.02909891,0.02781000,-0.01502375,-0.00848909,-0.00464610,0.001
 66069,0.00073555,-0.11808280,0.11823120,-0.00075899,0.00050686,0.00051
 937,-0.00172300,-0.00240150,-0.00184577,-0.01696791,0.01010382,0.00359
 255,0.00059964,0.00069989,0.00067745,0.05259945,-0.02943420,-0.0640914
 2,-0.00687359,0.00359221,0.00101799,0.02757094,-0.01722127,-0.00591708
 ,-0.05504018,0.03406125,0.06517159,-0.05938657,0.03561591,-0.00081556,
 0.00533316,-0.02343969,0.00658537,0.00015059,-0.00262061,-0.00244962,0
 .00042669,0.00010984,-0.00020494,-0.00035880,0.00015940,0.00026393,0.0
 0005530,0.00005704,0.00001831,-0.00004115,-0.00000491,-0.00002202,-0.0
 0010889,-0.00006006,-0.00005138,0.05487426,0.03138332,-0.31353989,0.07
 522515,0.00418782,-0.01404341,0.00388733,0.00103209,-0.00019735,-0.002
 78705,0.00038026,0.00034002,-0.00017699,-0.00054808,0.00030438,0.00021
 605,0.00014707,0.00010059,0.00000143,-0.00007613,-0.00006503,-0.000039
 86,-0.00014325,-0.00005208,-0.00011665,-0.03333829,0.33351862,0.000447
 89,0.07342851,-0.05562483,-0.00159028,0.01406090,-0.00039699,-0.003391
 91,-0.00086783,-0.00610886,0.00107775,-0.00005976,-0.00017593,-0.00081
 749,0.00006903,0.00069332,-0.00014897,-0.00008490,-0.00008763,-0.00007
 982,0.00003704,-0.00000454,-0.00024669,-0.00014739,-0.00018084,-0.0018
 4102,-0.08374632,0.04966186,-0.26942038,0.10828789,0.05635896,-0.01871
 017,0.01312646,0.00424268,0.00092216,-0.00231830,0.00552406,-0.0017698
 3,0.00036084,0.00038461,0.00033058,0.00008263,0.00014117,-0.00009138,-
 0.00008517,-0.00001752,0.00001005,-0.00003715,-0.00014422,-0.00000987,
 -0.00003646,-0.00008146,0.00021864,-0.00051186,0.00058628,0.28720479,0
 .11251979,-0.11098546,-0.01839483,-0.01507684,0.00896625,0.00383519,-0
 .00023429,-0.00078329,0.00432843,-0.00096489,0.00065147,0.00013063,0.0
 0031041,0.00018358,-0.00022789,0.00008704,0.00004776,0.00004272,-0.000
 02308,-0.00009441,-0.00007949,0.00005336,0.00005013,-0.00002853,0.0240
 8762,-0.00836088,-0.00617768,-0.11838251,0.10913774,0.05500603,-0.0166
 1458,-0.04866158,0.01290524,-0.00652316,0.00040935,0.00447302,0.004603
 22,0.01003733,-0.00173737,0.00034845,0.00018742,0.00209368,-0.00118691
 ,-0.00128830,0.00000901,0.00008450,0.00000264,-0.00002253,-0.00006070,
 -0.00010180,0.00071092,0.00033342,0.00041108,-0.00711726,0.00326556,0.
 00304123,-0.06377847,0.01820492,0.04154536,0.00040449,0.00135770,-0.00
 099613,0.00031823,0.03053369,-0.00623075,-0.04912982,-0.01902526,0.005
 50725,-0.00094293,-0.00669053,0.00099492,-0.00365331,-0.02663663,0.004
 60935,-0.00381209,-0.00190438,-0.00360012,0.00101404,0.00079577,0.0001
 5414,0.00070590,0.00027932,0.00080879,-0.00023898,-0.00066449,0.000469
 80,0.00042026,-0.00023679,-0.00013040,0.06013977,-0.00199049,0.0010249
 7,0.00061670,-0.00050768,-0.01615637,0.00406923,-0.01605196,-0.2973053
 9,0.04687712,-0.00024776,-0.00271169,0.00132077,-0.00205700,-0.0117878
 8,0.00179544,-0.00188177,0.00076914,-0.00162131,0.00037169,0.00037104,
 -0.00035564,-0.00032418,0.00071525,0.00012630,0.00043384,0.00095767,-0
 .00069392,-0.00010994,0.00053624,0.00004155,0.01939205,0.32334162,-0.0
 0001579,-0.00089698,-0.00027104,-0.00042628,-0.00734760,0.00080836,0.0
 0508211,0.04800023,-0.06101958,0.00191974,0.03187668,-0.00512273,-0.00
 254869,-0.01924581,0.00327725,-0.00326476,-0.00186187,-0.00133872,0.00
 097941,-0.00008842,0.00069511,0.00065103,0.00058133,0.00057927,0.00025
 556,0.00014030,0.00026474,-0.00022840,-0.00001551,-0.00011524,-0.00344
 234,-0.05103296,0.06082700,0.00509158,-0.02459168,0.00852250,-0.089907
 51,0.01931384,-0.00156526,-0.00190532,0.02964451,-0.00693721,0.0009319
 1,-0.00029234,-0.00043790,0.00082113,0.00062039,0.00046531,-0.00057469
 ,0.00017741,-0.00004318,-0.00006713,0.00006110,-0.00031496,0.00004415,
 -0.00014827,-0.00006668,-0.00147069,-0.00127936,0.00578888,-0.00031268
 ,-0.00224526,-0.00202769,-0.00520323,0.00310242,0.00107591,0.58670201,
 -0.00248927,-0.02270905,0.01044555,0.01237411,-0.19665895,0.03254989,0
 .00668599,-0.01507743,0.00324938,-0.00123987,0.00066224,0.00064050,0.0
 0058144,0.00075150,-0.00012975,-0.00023015,-0.00068246,0.00017030,0.00
 013168,-0.00015036,0.00015622,-0.00044682,-0.00035081,0.00000842,0.000
 63328,0.00176759,0.00366052,0.00093237,0.00053575,-0.00318212,0.001412
 40,0.00065900,0.00016394,-0.00405957,0.49202662,0.00180015,0.01892422,
 0.00107407,-0.00082342,0.03186999,-0.08699547,0.00050423,-0.00510117,0
 .00376960,0.00004348,-0.00057575,0.00034390,0.00090989,0.00009492,-0.0
 0002188,-0.00046639,-0.00018481,0.00018765,0.00002837,-0.00011416,0.00
 002623,0.00017019,-0.00020439,0.00021792,0.00543513,0.00397430,0.00998
 265,-0.00323451,-0.00181915,-0.00607343,0.00208624,-0.00129431,0.00061
 729,-0.01667102,0.01814145,0.53669198,0.00077139,0.00013106,-0.0004867
 9,0.00342098,-0.00052573,0.00492857,-0.00039547,-0.00048997,0.00023164
 ,0.00004619,0.00008731,-0.00005271,-0.00075015,0.00042796,-0.00017597,
 -0.00092893,0.00109537,-0.00017080,-0.00001008,-0.00003947,0.00000897,
 0.00011110,0.00002714,-0.00001395,0.00018531,-0.00014103,0.00007736,0.
 00009862,-0.00013281,-0.00049266,0.00010983,-0.00018412,-0.00009588,-0
 .16231872,-0.09566587,-0.08220642,0.17461434,0.00272695,-0.00319925,0.
 00011491,-0.02374596,-0.01998537,-0.01363977,-0.00071823,0.00089539,0.
 00007948,0.00010360,-0.00004040,-0.00005036,-0.00009838,-0.00064207,0.
 00021453,0.00119238,0.00028248,-0.00008598,0.00006539,-0.00004038,0.00
 005266,0.00012545,0.00055627,0.00007005,0.00017583,0.00006149,0.002552
 29,-0.00043993,-0.00025619,-0.00095062,0.00000965,0.00024610,0.0003196
 4,-0.09794957,-0.13365442,-0.07315699,0.10886225,0.14651083,-0.0002065
 4,0.00129756,-0.00017468,0.00912203,0.00711538,0.00587241,-0.00022859,
 -0.00063476,0.00010662,-0.00013602,-0.00008239,-0.00003564,-0.00060680
 ,-0.00041694,0.00027531,0.00005379,0.00044789,0.00018525,0.00000129,0.
 00021515,-0.00019818,0.00006050,0.00016950,-0.00015227,-0.00028567,0.0
 0000450,-0.00131084,0.00024558,0.00024057,0.00061962,0.00015471,-0.000
 05044,-0.00007577,-0.08141682,-0.07175624,-0.10465365,0.09109439,0.077
 21443,0.11254013,0.00042147,0.00027708,0.00011207,-0.00051179,-0.00221
 687,-0.00230932,0.00037513,0.00009138,-0.00066367,0.00002363,0.0001780
 5,0.00014759,-0.00007478,0.00005821,0.00006891,-0.00003415,-0.00001898
 ,-0.00011585,0.00004825,-0.00009038,0.00009010,-0.00000521,0.00003415,
 0.00001259,0.00009049,-0.00036435,-0.00025064,0.00042962,0.00011295,0.
 00036385,0.00001066,-0.00013200,0.00005777,-0.05601812,-0.00088792,0.0
 4054192,0.00384619,0.00264587,-0.02310623,0.05471460,0.00211257,-0.003
 63697,0.00027372,-0.00688541,-0.00538859,0.03478967,-0.00112619,0.0011
 5254,0.00036438,0.00070009,-0.00016037,-0.00075622,-0.00001105,0.00006
 906,-0.00014127,0.00007427,0.00003329,0.00000692,-0.00013494,-0.000057
 85,-0.00008478,0.00004920,0.00003654,0.00001330,-0.00157209,-0.0013296
 8,-0.00184657,0.00028611,0.00034063,0.00105730,-0.00037948,0.00024713,
 -0.00040284,-0.00181966,-0.04954193,0.02748807,0.00410098,0.00222467,-
 0.01942308,0.00413673,0.05554446,-0.00171509,0.00087724,0.00033052,0.0
 0303317,0.00380135,-0.00724625,0.00064494,-0.00042172,0.00007612,-0.00
 058960,0.00025304,0.00044830,-0.00030171,0.00005332,0.00008689,-0.0000
 3362,-0.00000088,-0.00022988,0.00010867,-0.00007371,0.00012355,-0.0000
 3683,0.00004240,0.00000224,0.00032169,0.00036185,0.00035184,-0.0002397
 2,-0.00016254,-0.00025599,-0.00000726,0.00000518,0.00038871,0.04083861
 ,0.02496725,-0.29336610,0.00271346,0.00083819,-0.01652702,-0.04529518,
 -0.03050795,0.32080149,0.00076242,-0.00187374,0.00015084,-0.00297937,0
 .00072366,0.00059914,0.00133331,0.00023205,-0.00033167,0.00002797,-0.0
 0017150,0.00004571,0.00010224,-0.00020298,0.00018179,0.00024527,0.0001
 8571,0.00001067,-0.00001456,0.00006162,-0.00007557,-0.00000573,0.00013
 422,-0.00001426,0.00027063,-0.00006373,-0.00008114,0.00067959,0.000125
 32,-0.00025535,-0.00014282,0.00018691,0.00000062,-0.27581270,0.0822682
 0,0.05188215,-0.01880061,0.00704468,0.00525439,-0.00331602,0.00046888,
 0.00055847,0.29765037,0.00115426,0.00116361,-0.00106426,0.03147277,-0.
 01092325,-0.00791086,-0.00136002,-0.00575055,0.00260350,-0.00040997,0.
 00020765,0.00000929,-0.00058262,-0.00032004,-0.00016867,0.00023375,0.0
 0036853,0.00001254,0.00005724,0.00005464,0.00004364,0.00009996,0.00022
 973,0.00002007,-0.00023711,0.00053795,-0.00018393,-0.00115500,0.000030
 67,0.00057916,0.00175698,-0.00090683,-0.00019014,0.07946605,-0.0775772
 9,-0.01804222,-0.01755306,0.00704085,0.00565887,-0.00382392,0.00046707
 ,-0.00003301,-0.08911931,0.08537726,-0.00085647,0.00009690,-0.00034882
 ,-0.00919454,0.00266524,0.00128101,0.00042790,0.00169458,0.00027980,-0
 .00031898,0.00016678,0.00040985,0.00008504,-0.00012715,0.00015609,0.00
 016174,0.00008595,-0.00009864,0.00001914,0.00000309,-0.00000449,0.0000
 5531,0.00012714,-0.00000207,-0.00009254,-0.00020959,-0.00010517,0.0002
 4095,0.00012316,0.00024231,-0.00037818,0.00019630,0.00048534,0.0527895
 3,-0.01908531,-0.06180076,-0.01535920,0.00642753,0.00352871,0.03034610
 ,-0.01083065,-0.00498441,-0.05792579,0.01866603,0.06096125\\-0.0000005
 4,-0.00000707,0.00000328,0.00000702,0.00000347,-0.00000087,0.00001808,
 0.00003535,0.00002500,-0.00000251,-0.00000147,-0.00001545,-0.00001475,
 -0.00001038,-0.00001185,0.00000440,0.00000078,0.00000046,0.00000482,0.
 00000096,0.00000108,-0.00000124,0.00000016,-0.00000493,0.00000324,-0.0
 0000264,-0.00000255,-0.00000192,-0.00000890,-0.00000339,0.00000301,-0.
 00000132,-0.00000148,-0.00000168,-0.00000133,0.00001731,-0.00000241,-0
 .00000932,-0.00000153,-0.00000984,0.00000741,-0.00000429,-0.00000566,-
 0.00000569,-0.00000080\\\@


 IF YOU GIVE A BOY AND A PIG EVERYTHING THEY WANT,
 YOU'LL GET A BAD BOY AND A GOOD PIG.
 Job cpu time:  0 days  0 hours  3 minutes 26.2 seconds.
 File lengths (MBytes):  RWF=     21 Int=      0 D2E=      0 Chk=      3 Scr=      1
 Normal termination of Gaussian 09 at Sat Aug 22 15:17:10 2015.
