 Entering Gaussian System, Link 0=/share/apps/g09/g09
 Input=C5H10_7_1_opt_631gd.gjf
 Output=C5H10_7_1_opt_631gd.log
 Initial command:
 /share/apps/g09/l1.exe /state/partition1/Gau-5780.inp -scrdir=/state/partition1/
 Entering Link 1 = /share/apps/g09/l1.exe PID=      5781.
  
 Copyright (c) 1988,1990,1992,1993,1995,1998,2003,2009, Gaussian, Inc.
                  All Rights Reserved.
  
 This is part of the Gaussian(R) 09 program.  It is based on
 the Gaussian(R) 03 system (copyright 2003, Gaussian, Inc.),
 the Gaussian(R) 98 system (copyright 1998, Gaussian, Inc.),
 the Gaussian(R) 94 system (copyright 1995, Gaussian, Inc.),
 the Gaussian 92(TM) system (copyright 1992, Gaussian, Inc.),
 the Gaussian 90(TM) system (copyright 1990, Gaussian, Inc.),
 the Gaussian 88(TM) system (copyright 1988, Gaussian, Inc.),
 the Gaussian 86(TM) system (copyright 1986, Carnegie Mellon
 University), and the Gaussian 82(TM) system (copyright 1983,
 Carnegie Mellon University). Gaussian is a federally registered
 trademark of Gaussian, Inc.
  
 This software contains proprietary and confidential information,
 including trade secrets, belonging to Gaussian, Inc.
  
 This software is provided under written license and may be
 used, copied, transmitted, or stored only in accord with that
 written license.
  
 The following legend is applicable only to US Government
 contracts under FAR:
  
                    RESTRICTED RIGHTS LEGEND
  
 Use, reproduction and disclosure by the US Government is
 subject to restrictions as set forth in subparagraphs (a)
 and (c) of the Commercial Computer Software - Restricted
 Rights clause in FAR 52.227-19.
  
 Gaussian, Inc.
 340 Quinnipiac St., Bldg. 40, Wallingford CT 06492
  
  
 ---------------------------------------------------------------
 Warning -- This program may not be used in any manner that
 competes with the business of Gaussian, Inc. or will provide
 assistance to any competitor of Gaussian, Inc.  The licensee
 of this program is prohibited from giving any competitor of
 Gaussian, Inc. access to this program.  By using this program,
 the user acknowledges that Gaussian, Inc. is engaged in the
 business of creating and licensing software in the field of
 computational chemistry and represents and warrants to the
 licensee that it is not a competitor of Gaussian, Inc. and that
 it will not use this program in any manner prohibited above.
 ---------------------------------------------------------------
  

 Cite this work as:
 Gaussian 09, Revision A.01,
 M. J. Frisch, G. W. Trucks, H. B. Schlegel, G. E. Scuseria, 
 M. A. Robb, J. R. Cheeseman, G. Scalmani, V. Barone, B. Mennucci, 
 G. A. Petersson, H. Nakatsuji, M. Caricato, X. Li, H. P. Hratchian, 
 A. F. Izmaylov, J. Bloino, G. Zheng, J. L. Sonnenberg, M. Hada, 
 M. Ehara, K. Toyota, R. Fukuda, J. Hasegawa, M. Ishida, T. Nakajima, 
 Y. Honda, O. Kitao, H. Nakai, T. Vreven, J. A. Montgomery, Jr., 
 J. E. Peralta, F. Ogliaro, M. Bearpark, J. J. Heyd, E. Brothers, 
 K. N. Kudin, V. N. Staroverov, R. Kobayashi, J. Normand, 
 K. Raghavachari, A. Rendell, J. C. Burant, S. S. Iyengar, J. Tomasi, 
 M. Cossi, N. Rega, J. M. Millam, M. Klene, J. E. Knox, J. B. Cross, 
 V. Bakken, C. Adamo, J. Jaramillo, R. Gomperts, R. E. Stratmann, 
 O. Yazyev, A. J. Austin, R. Cammi, C. Pomelli, J. W. Ochterski, 
 R. L. Martin, K. Morokuma, V. G. Zakrzewski, G. A. Voth, 
 P. Salvador, J. J. Dannenberg, S. Dapprich, A. D. Daniels, 
 O. Farkas, J. B. Foresman, J. V. Ortiz, J. Cioslowski, 
 and D. J. Fox, Gaussian, Inc., Wallingford CT, 2009.
 
 ******************************************
 Gaussian 09:  EM64L-G09RevA.01  8-May-2009
                 6-Jun-2015 
 ******************************************
 %mem=28GB
 %nprocshared=12
 Will use up to   12 processors via shared memory.
 %chk=C5H10_7_1_opt_631gd.chk
 ---------------------------
 #p ub3lyp/6-31G(d) opt freq
 ---------------------------
 1/14=-1,18=20,19=15,26=3,38=1/1,3;
 2/9=110,12=2,17=6,18=5,40=1/2;
 3/5=1,6=6,7=1,11=2,16=1,25=1,30=1,71=1,74=-5,116=2/1,2,3;
 4//1;
 5/5=2,38=5/2;
 6/7=2,8=2,9=2,10=2,28=1/1;
 7//1,2,3,16;
 1/14=-1,18=20,19=15/3(2);
 2/9=110/2;
 99//99;
 2/9=110/2;
 3/5=1,6=6,7=1,11=2,16=1,25=1,30=1,71=1,74=-5,116=2/1,2,3;
 4/5=5,16=3/1;
 5/5=2,38=5/2;
 7//1,2,3,16;
 1/14=-1,18=20,19=15/3(-5);
 2/9=110/2;
 6/7=2,8=2,9=2,10=2,19=2,28=1/1;
 99/9=1/99;
 Leave Link    1 at Sat Jun  6 00:33:28 2015, MaxMem= 3758096384 cpu:       0.5
 (Enter /share/apps/g09/l101.exe)
 -----------------------------
 using ub3lyp/6-31G(d) to scan
 -----------------------------
 Symbolic Z-matrix:
 Charge =  0 Multiplicity = 1
 C                    -1.02707   0.76433   0. 
 C                     0.49479   0.76433   0. 
 C                     0.96356   2.2122    0. 
 C                    -0.26418   3.10176  -0.13319 
 C                    -1.49628   2.20865  -0.10359 
 H                    -1.41903   0.16189  -0.85751 
 H                    -1.41719   0.29392   0.9375 
 H                     0.88341   0.22973  -0.90328 
 H                     0.88815   0.2236    0.89684 
 H                     1.5105    2.44389   0.94859 
 H                     1.67552   2.39537  -0.84322 
 H                    -0.29986   3.84783   0.6998 
 H                    -0.22506   3.67935  -1.09092 
 H                    -2.14865   2.47045   0.76707 
 H                    -2.10802   2.35627  -1.02879 
 
 NAtoms=     15 NQM=     15 NQMF=      0 NMic=      0 NMicF=      0 NTot=     15.
                    Isotopes and Nuclear Properties:
 (Nuclear quadrupole moments (NQMom) in fm**2, nuclear magnetic moments (NMagM)
  in nuclear magnetons)

  Atom         1           2           3           4           5           6           7           8           9          10
 IAtWgt=          12          12          12          12          12           1           1           1           1           1
 AtmWgt=  12.0000000  12.0000000  12.0000000  12.0000000  12.0000000   1.0078250   1.0078250   1.0078250   1.0078250   1.0078250
 NucSpn=           0           0           0           0           0           1           1           1           1           1
 AtZEff=   0.0000000   0.0000000   0.0000000   0.0000000   0.0000000   0.0000000   0.0000000   0.0000000   0.0000000   0.0000000
 NQMom=    0.0000000   0.0000000   0.0000000   0.0000000   0.0000000   0.0000000   0.0000000   0.0000000   0.0000000   0.0000000
 NMagM=    0.0000000   0.0000000   0.0000000   0.0000000   0.0000000   2.7928460   2.7928460   2.7928460   2.7928460   2.7928460

  Atom        11          12          13          14          15
 IAtWgt=           1           1           1           1           1
 AtmWgt=   1.0078250   1.0078250   1.0078250   1.0078250   1.0078250
 NucSpn=           1           1           1           1           1
 AtZEff=   0.0000000   0.0000000   0.0000000   0.0000000   0.0000000
 NQMom=    0.0000000   0.0000000   0.0000000   0.0000000   0.0000000
 NMagM=    2.7928460   2.7928460   2.7928460   2.7928460   2.7928460
 Leave Link  101 at Sat Jun  6 00:33:28 2015, MaxMem= 3758096384 cpu:       0.5
 (Enter /share/apps/g09/l103.exe)

 GradGradGradGradGradGradGradGradGradGradGradGradGradGradGradGradGradGrad
 Berny optimization.
 Initialization pass.
                           ----------------------------
                           !    Initial Parameters    !
                           ! (Angstroms and Degrees)  !
 --------------------------                            --------------------------
 ! Name  Definition              Value          Derivative Info.                !
 --------------------------------------------------------------------------------
 ! R1    R(1,2)                  1.5219         estimate D2E/DX2                !
 ! R2    R(1,5)                  1.5222         estimate D2E/DX2                !
 ! R3    R(1,6)                  1.1189         estimate D2E/DX2                !
 ! R4    R(1,7)                  1.1191         estimate D2E/DX2                !
 ! R5    R(2,3)                  1.5219         estimate D2E/DX2                !
 ! R6    R(2,8)                  1.1193         estimate D2E/DX2                !
 ! R7    R(2,9)                  1.1187         estimate D2E/DX2                !
 ! R8    R(3,4)                  1.522          estimate D2E/DX2                !
 ! R9    R(3,10)                 1.1192         estimate D2E/DX2                !
 ! R10   R(3,11)                 1.1187         estimate D2E/DX2                !
 ! R11   R(4,5)                  1.522          estimate D2E/DX2                !
 ! R12   R(4,12)                 1.1188         estimate D2E/DX2                !
 ! R13   R(4,13)                 1.1191         estimate D2E/DX2                !
 ! R14   R(5,14)                 1.119          estimate D2E/DX2                !
 ! R15   R(5,15)                 1.1189         estimate D2E/DX2                !
 ! A1    A(2,1,5)              107.9539         estimate D2E/DX2                !
 ! A2    A(2,1,6)              110.5067         estimate D2E/DX2                !
 ! A3    A(2,1,7)              110.4015         estimate D2E/DX2                !
 ! A4    A(5,1,6)              110.5339         estimate D2E/DX2                !
 ! A5    A(5,1,7)              110.3901         estimate D2E/DX2                !
 ! A6    A(6,1,7)              107.0727         estimate D2E/DX2                !
 ! A7    A(1,2,3)              107.9403         estimate D2E/DX2                !
 ! A8    A(1,2,8)              110.3173         estimate D2E/DX2                !
 ! A9    A(1,2,9)              110.5873         estimate D2E/DX2                !
 ! A10   A(3,2,8)              110.332          estimate D2E/DX2                !
 ! A11   A(3,2,9)              110.5822         estimate D2E/DX2                !
 ! A12   A(8,2,9)              107.0991         estimate D2E/DX2                !
 ! A13   A(2,3,4)              107.9138         estimate D2E/DX2                !
 ! A14   A(2,3,10)             110.3329         estimate D2E/DX2                !
 ! A15   A(2,3,11)             110.5985         estimate D2E/DX2                !
 ! A16   A(4,3,10)             110.3269         estimate D2E/DX2                !
 ! A17   A(4,3,11)             110.5928         estimate D2E/DX2                !
 ! A18   A(10,3,11)            107.094          estimate D2E/DX2                !
 ! A19   A(3,4,5)              107.9592         estimate D2E/DX2                !
 ! A20   A(3,4,12)             110.5072         estimate D2E/DX2                !
 ! A21   A(3,4,13)             110.3864         estimate D2E/DX2                !
 ! A22   A(5,4,12)             110.5486         estimate D2E/DX2                !
 ! A23   A(5,4,13)             110.3522         estimate D2E/DX2                !
 ! A24   A(12,4,13)            107.1046         estimate D2E/DX2                !
 ! A25   A(1,5,4)              107.9735         estimate D2E/DX2                !
 ! A26   A(1,5,14)             110.411          estimate D2E/DX2                !
 ! A27   A(1,5,15)             110.4863         estimate D2E/DX2                !
 ! A28   A(4,5,14)             110.474          estimate D2E/DX2                !
 ! A29   A(4,5,15)             110.431          estimate D2E/DX2                !
 ! A30   A(14,5,15)            107.0824         estimate D2E/DX2                !
 ! D1    D(5,1,2,3)              4.1024         estimate D2E/DX2                !
 ! D2    D(5,1,2,8)           -116.5164         estimate D2E/DX2                !
 ! D3    D(5,1,2,9)            125.1895         estimate D2E/DX2                !
 ! D4    D(6,1,2,3)            125.0901         estimate D2E/DX2                !
 ! D5    D(6,1,2,8)              4.4713         estimate D2E/DX2                !
 ! D6    D(6,1,2,9)           -113.8228         estimate D2E/DX2                !
 ! D7    D(7,1,2,3)           -116.6461         estimate D2E/DX2                !
 ! D8    D(7,1,2,8)            122.7351         estimate D2E/DX2                !
 ! D9    D(7,1,2,9)              4.441          estimate D2E/DX2                !
 ! D10   D(2,1,5,4)             -1.3604         estimate D2E/DX2                !
 ! D11   D(2,1,5,14)          -122.2296         estimate D2E/DX2                !
 ! D12   D(2,1,5,15)           119.5013         estimate D2E/DX2                !
 ! D13   D(6,1,5,4)           -122.3312         estimate D2E/DX2                !
 ! D14   D(6,1,5,14)           116.7997         estimate D2E/DX2                !
 ! D15   D(6,1,5,15)            -1.4694         estimate D2E/DX2                !
 ! D16   D(7,1,5,4)            119.3952         estimate D2E/DX2                !
 ! D17   D(7,1,5,14)            -1.474          estimate D2E/DX2                !
 ! D18   D(7,1,5,15)          -119.7431         estimate D2E/DX2                !
 ! D19   D(1,2,3,4)             -5.2768         estimate D2E/DX2                !
 ! D20   D(1,2,3,10)           115.3286         estimate D2E/DX2                !
 ! D21   D(1,2,3,11)          -126.3669         estimate D2E/DX2                !
 ! D22   D(8,2,3,4)            115.3328         estimate D2E/DX2                !
 ! D23   D(8,2,3,10)          -124.0619         estimate D2E/DX2                !
 ! D24   D(8,2,3,11)            -5.7574         estimate D2E/DX2                !
 ! D25   D(9,2,3,4)           -126.3671         estimate D2E/DX2                !
 ! D26   D(9,2,3,10)            -5.7618         estimate D2E/DX2                !
 ! D27   D(9,2,3,11)           112.5428         estimate D2E/DX2                !
 ! D28   D(2,3,4,5)              4.4355         estimate D2E/DX2                !
 ! D29   D(2,3,4,12)           125.4449         estimate D2E/DX2                !
 ! D30   D(2,3,4,13)          -116.2609         estimate D2E/DX2                !
 ! D31   D(10,3,4,5)          -116.1737         estimate D2E/DX2                !
 ! D32   D(10,3,4,12)            4.8358         estimate D2E/DX2                !
 ! D33   D(10,3,4,13)          123.1299         estimate D2E/DX2                !
 ! D34   D(11,3,4,5)           125.5291         estimate D2E/DX2                !
 ! D35   D(11,3,4,12)         -113.4615         estimate D2E/DX2                !
 ! D36   D(11,3,4,13)            4.8327         estimate D2E/DX2                !
 ! D37   D(3,4,5,1)             -1.9007         estimate D2E/DX2                !
 ! D38   D(3,4,5,14)           118.9291         estimate D2E/DX2                !
 ! D39   D(3,4,5,15)          -122.7969         estimate D2E/DX2                !
 ! D40   D(12,4,5,1)          -122.8844         estimate D2E/DX2                !
 ! D41   D(12,4,5,14)           -2.0545         estimate D2E/DX2                !
 ! D42   D(12,4,5,15)          116.2194         estimate D2E/DX2                !
 ! D43   D(13,4,5,1)           118.8171         estimate D2E/DX2                !
 ! D44   D(13,4,5,14)         -120.353          estimate D2E/DX2                !
 ! D45   D(13,4,5,15)           -2.0791         estimate D2E/DX2                !
 --------------------------------------------------------------------------------
 Trust Radius=3.00D-01 FncErr=1.00D-07 GrdErr=1.00D-06
 Number of steps in this run= 100 maximum allowed number of steps= 100.
 GradGradGradGradGradGradGradGradGradGradGradGradGradGradGradGradGradGrad

 Leave Link  103 at Sat Jun  6 00:33:28 2015, MaxMem= 3758096384 cpu:       0.1
 (Enter /share/apps/g09/l202.exe)
                          Input orientation:                          
 ---------------------------------------------------------------------
 Center     Atomic      Atomic             Coordinates (Angstroms)
 Number     Number       Type             X           Y           Z
 ---------------------------------------------------------------------
      1          6           0       -1.027070    0.764331    0.000000
      2          6           0        0.494788    0.764331    0.000000
      3          6           0        0.963561    2.212196    0.000000
      4          6           0       -0.264179    3.101764   -0.133186
      5          6           0       -1.496276    2.208651   -0.103590
      6          1           0       -1.419032    0.161886   -0.857508
      7          1           0       -1.417185    0.293920    0.937504
      8          1           0        0.883415    0.229733   -0.903280
      9          1           0        0.888155    0.223599    0.896837
     10          1           0        1.510496    2.443889    0.948588
     11          1           0        1.675522    2.395372   -0.843216
     12          1           0       -0.299856    3.847834    0.699798
     13          1           0       -0.225058    3.679349   -1.090922
     14          1           0       -2.148654    2.470453    0.767074
     15          1           0       -2.108022    2.356273   -1.028793
 ---------------------------------------------------------------------
                    Distance matrix (angstroms):
                    1          2          3          4          5
     1  C    0.000000
     2  C    1.521858   0.000000
     3  C    2.461488   1.521861   0.000000
     4  C    2.462384   2.461171   1.521977   0.000000
     5  C    1.522152   2.461936   2.462020   1.522035   0.000000
     6  H    1.118881   2.181964   3.258196   3.240557   2.182569
     7  H    1.119102   2.180789   3.197913   3.218662   2.180900
     8  H    2.179831   1.119259   2.180022   3.187253   3.196647
     9  H    2.182841   1.118680   2.182778   3.266903   3.259877
    10  H    3.187472   2.179999   1.119213   2.180024   3.194228
    11  H    3.267310   2.182989   1.118685   2.183019   3.262241
    12  H    3.244464   3.260240   2.182029   1.118819   2.182607
    13  H    3.214135   3.194623   2.180703   1.119104   2.180315
    14  H    2.181102   3.238370   3.215740   2.181804   1.119014
    15  H    2.182006   3.219831   3.242498   2.181198   1.118940
                    6          7          8          9         10
     6  H    0.000000
     7  H    1.799862   0.000000
     8  H    2.303901   2.947095   0.000000
     9  H    2.899077   2.306771   1.800134   0.000000
    10  H    4.129365   3.632328   2.953834   2.306442   0.000000
    11  H    3.816403   4.141485   2.306737   2.892115   1.800041
    12  H    4.154993   3.732992   4.130453   3.819067   2.304416
    13  H    3.721908   4.122719   3.628191   4.139159   2.949256
    14  H    2.915664   2.302475   4.123633   3.779868   3.663746
    15  H    2.306378   2.932044   3.672414   4.151316   4.124486
                   11         12         13         14         15
    11  H    0.000000
    12  H    2.897008   0.000000
    13  H    2.306981   1.800183   0.000000
    14  H    4.150059   2.306460   2.934928   0.000000
    15  H    3.788294   2.912429   2.302161   1.799952   0.000000
 Stoichiometry    C5H10
 Framework group  C1[X(C5H10)]
 Deg. of freedom    39
 Full point group                 C1      NOp   1
 Largest Abelian subgroup         C1      NOp   1
 Largest concise Abelian subgroup C1      NOp   1
                         Standard orientation:                         
 ---------------------------------------------------------------------
 Center     Atomic      Atomic             Coordinates (Angstroms)
 Number     Number       Type             X           Y           Z
 ---------------------------------------------------------------------
      1          6           0        1.245312   -0.352845   -0.017075
      2          6           0        0.049379   -1.292869    0.029296
      3          6           0       -1.214339   -0.446983   -0.030341
      4          6           0       -0.800648    1.016834    0.019784
      5          6           0        0.720095    1.075740   -0.001704
      6          1           0        1.919322   -0.532623    0.857731
      7          1           0        1.849938   -0.536060   -0.940790
      8          1           0        0.067666   -1.898896    0.970113
      9          1           0        0.081489   -2.012774   -0.826362
     10          1           0       -1.780169   -0.659049   -0.972415
     11          1           0       -1.893542   -0.693381    0.823724
     12          1           0       -1.227605    1.574835   -0.850904
     13          1           0       -1.195878    1.502092    0.947529
     14          1           0        1.077516    1.632674   -0.904072
     15          1           0        1.102472    1.623924    0.895686
 ---------------------------------------------------------------------
 Rotational constants (GHZ):      6.4975861      6.4968633      3.6316166
 Leave Link  202 at Sat Jun  6 00:33:28 2015, MaxMem= 3758096384 cpu:       0.5
 (Enter /share/apps/g09/l301.exe)
 Standard basis: 6-31G(d) (6D, 7F)
 Ernie: Thresh=  0.10000D-02 Tol=  0.10000D-05 Strict=F.
 There are    95 symmetry adapted basis functions of A   symmetry.
 Integral buffers will be    131072 words long.
 Raffenetti 2 integral format.
 Two-electron integral symmetry is turned on.
    95 basis functions,   180 primitive gaussians,    95 cartesian basis functions
    20 alpha electrons       20 beta electrons
       nuclear repulsion energy       186.7076963899 Hartrees.
 IExCor=  402 DFT=T Ex+Corr=B3LYP ExCW=0 ScaHFX=  0.200000
 ScaDFX=  0.800000  0.720000  1.000000  0.810000 ScalE2=  1.000000  1.000000
 IRadAn=      0 IRanWt=     -1 IRanGd=            0 ICorTp=0
 NAtoms=   15 NActive=   15 NUniq=   15 SFac= 7.50D-01 NAtFMM=   80 NAOKFM=F Big=F
 Leave Link  301 at Sat Jun  6 00:33:28 2015, MaxMem= 3758096384 cpu:       0.6
 (Enter /share/apps/g09/l302.exe)
 NPDir=0 NMtPBC=     1 NCelOv=     1 NCel=       1 NClECP=     1 NCelD=      1
         NCelK=      1 NCelE2=     1 NClLst=     1 CellRange=     0.0.
 One-electron integrals computed using PRISM.
 NBasis=    95 RedAO= T  NBF=    95
 NBsUse=    95 1.00D-06 NBFU=    95
 Precomputing XC quadrature grid using
 IXCGrd= 2 IRadAn=           0 IRanWt=          -1 IRanGd=           0 AccXCQ= 1.00D-10.
 NRdTot=     925 NPtTot=      116800 NUsed=      123483 NTot=      123515
 NSgBfM=    95    95    95    95    95 NAtAll=    15    15.
 Leave Link  302 at Sat Jun  6 00:33:29 2015, MaxMem= 3758096384 cpu:       4.0
 (Enter /share/apps/g09/l303.exe)
 DipDrv:  MaxL=1.
 Leave Link  303 at Sat Jun  6 00:33:29 2015, MaxMem= 3758096384 cpu:       0.9
 (Enter /share/apps/g09/l401.exe)
 Harris functional with IExCor=  402 diagonalized for initial guess.
 ExpMin= 1.61D-01 ExpMax= 3.05D+03 ExpMxC= 4.57D+02 IAcc=1 IRadAn=         1 AccDes= 0.00D+00
 HarFok:  IExCor=  402 AccDes= 0.00D+00 IRadAn=         1 IDoV= 1
 ScaDFX=  1.000000  1.000000  1.000000  1.000000
 FoFCou: FMM=F IPFlag=           0 FMFlag=      100000 FMFlg1=           0
         NFxFlg=           0 DoJE=T BraDBF=F KetDBF=T FulRan=T
         Omega=  0.000000  0.000000  1.000000  0.000000  0.000000 ICntrl=     500 IOpCl=  0
         NMat0=    1 NMatS0=    1 NMatT0=    0 NMatD0=    1 NMtDS0=    0 NMtDT0=    0
         I1Cent=           4 NGrid=           0.
 Petite list used in FoFCou.
 Harris En= -196.602404479094    
 Initial guess orbital symmetries:
 Alpha Orbitals:
       Occupied  (A) (A) (A) (A) (A) (A) (A) (A) (A) (A) (A) (A)
                 (A) (A) (A) (A) (A) (A) (A) (A)
       Virtual   (A) (A) (A) (A) (A) (A) (A) (A) (A) (A) (A) (A)
                 (A) (A) (A) (A) (A) (A) (A) (A) (A) (A) (A) (A)
                 (A) (A) (A) (A) (A) (A) (A) (A) (A) (A) (A) (A)
                 (A) (A) (A) (A) (A) (A) (A) (A) (A) (A) (A) (A)
                 (A) (A) (A) (A) (A) (A) (A) (A) (A) (A) (A) (A)
                 (A) (A) (A) (A) (A) (A) (A) (A) (A) (A) (A) (A)
                 (A) (A) (A)
 Beta  Orbitals:
       Occupied  (A) (A) (A) (A) (A) (A) (A) (A) (A) (A) (A) (A)
                 (A) (A) (A) (A) (A) (A) (A) (A)
       Virtual   (A) (A) (A) (A) (A) (A) (A) (A) (A) (A) (A) (A)
                 (A) (A) (A) (A) (A) (A) (A) (A) (A) (A) (A) (A)
                 (A) (A) (A) (A) (A) (A) (A) (A) (A) (A) (A) (A)
                 (A) (A) (A) (A) (A) (A) (A) (A) (A) (A) (A) (A)
                 (A) (A) (A) (A) (A) (A) (A) (A) (A) (A) (A) (A)
                 (A) (A) (A) (A) (A) (A) (A) (A) (A) (A) (A) (A)
                 (A) (A) (A)
 The electronic state of the initial guess is 1-A.
 Initial guess <Sx>= 0.0000 <Sy>= 0.0000 <Sz>= 0.0000 <S**2>= 0.0000 S= 0.0000
 Leave Link  401 at Sat Jun  6 00:33:30 2015, MaxMem= 3758096384 cpu:       5.6
 (Enter /share/apps/g09/l502.exe)
 UHF open shell SCF:
 Requested convergence on RMS density matrix=1.00D-08 within 128 cycles.
 Requested convergence on MAX density matrix=1.00D-06.
 Requested convergence on             energy=1.00D-06.
 No special actions if energy rises.
 Using DIIS extrapolation, IDIIS=  1040.
 Integral symmetry usage will be decided dynamically.
       123335 words used for storage of precomputed grid.
 Keep R1 and R2 ints in memory in canonical form, NReq=21882614.
 IEnd=      170431 IEndB=      170431 NGot=  3758096384 MDV=  3737153526
 LenX=  3737153526 LenY=  3737144060
 Symmetry not used in FoFDir.
 MinBra= 0 MaxBra= 2 Meth= 1.
 IRaf=       0 NMat=   1 IRICut=       1 DoRegI=T DoRafI=F ISym2E= 0 JSym2E=0.
 Integral accuracy reduced to 1.0D-05 until final iterations.

 Cycle   1  Pass 0  IDiag  1:
 E= -196.334851892906    
 DIIS: error= 5.54D-02 at cycle   1 NSaved=   1.
 NSaved= 1 IEnMin= 1 EnMin= -196.334851892906     IErMin= 1 ErrMin= 5.54D-02
 ErrMax= 5.54D-02 EMaxC= 1.00D-01 BMatC= 7.36D-01 BMatP= 7.36D-01
 IDIUse=3 WtCom= 4.46D-01 WtEn= 5.54D-01
 Coeff-Com:  0.100D+01
 Coeff-En:   0.100D+01
 Coeff:      0.100D+01
 Gap=     0.340 Goal=   None    Shift=    0.000
 Gap=     0.340 Goal=   None    Shift=    0.000
 GapD=    0.340 DampG=1.000 DampE=0.500 DampFc=0.5000 IDamp=-1.
 Damping current iteration by 5.00D-01
 RMSDP=1.18D-02 MaxDP=1.44D-01              OVMax= 1.83D-01

 Cycle   2  Pass 0  IDiag  1:
 E= -196.416097066706     Delta-E=       -0.081245173800 Rises=F Damp=T
 DIIS: error= 1.10D-02 at cycle   2 NSaved=   2.
 NSaved= 2 IEnMin= 2 EnMin= -196.416097066706     IErMin= 2 ErrMin= 1.10D-02
 ErrMax= 1.10D-02 EMaxC= 1.00D-01 BMatC= 4.95D-02 BMatP= 7.36D-01
 IDIUse=3 WtCom= 8.90D-01 WtEn= 1.10D-01
 Coeff-Com:  0.137D+00 0.863D+00
 Coeff-En:   0.224D+00 0.776D+00
 Coeff:      0.147D+00 0.853D+00
 Gap=     0.399 Goal=   None    Shift=    0.000
 Gap=     0.399 Goal=   None    Shift=    0.000
 RMSDP=2.06D-03 MaxDP=2.49D-02 DE=-8.12D-02 OVMax= 1.10D-01

 Cycle   3  Pass 0  IDiag  1:
 E= -196.543010224249     Delta-E=       -0.126913157542 Rises=F Damp=F
 DIIS: error= 4.57D-03 at cycle   3 NSaved=   3.
 NSaved= 3 IEnMin= 3 EnMin= -196.543010224249     IErMin= 3 ErrMin= 4.57D-03
 ErrMax= 4.57D-03 EMaxC= 1.00D-01 BMatC= 4.35D-03 BMatP= 4.95D-02
 IDIUse=3 WtCom= 9.54D-01 WtEn= 4.57D-02
 Coeff-Com:  0.144D-01 0.204D+00 0.782D+00
 Coeff-En:   0.000D+00 0.000D+00 0.100D+01
 Coeff:      0.137D-01 0.195D+00 0.792D+00
 Gap=     0.371 Goal=   None    Shift=    0.000
 Gap=     0.371 Goal=   None    Shift=    0.000
 RMSDP=4.44D-04 MaxDP=3.96D-03 DE=-1.27D-01 OVMax= 8.13D-03

 Cycle   4  Pass 0  IDiag  1:
 E= -196.543960309448     Delta-E=       -0.000950085199 Rises=F Damp=F
 DIIS: error= 7.91D-04 at cycle   4 NSaved=   4.
 NSaved= 4 IEnMin= 4 EnMin= -196.543960309448     IErMin= 4 ErrMin= 7.91D-04
 ErrMax= 7.91D-04 EMaxC= 1.00D-01 BMatC= 1.54D-04 BMatP= 4.35D-03
 IDIUse=3 WtCom= 9.92D-01 WtEn= 7.91D-03
 Coeff-Com: -0.148D-02-0.447D-03 0.158D+00 0.844D+00
 Coeff-En:   0.000D+00 0.000D+00 0.000D+00 0.100D+01
 Coeff:     -0.147D-02-0.443D-03 0.157D+00 0.845D+00
 Gap=     0.371 Goal=   None    Shift=    0.000
 Gap=     0.371 Goal=   None    Shift=    0.000
 RMSDP=7.38D-05 MaxDP=6.14D-04 DE=-9.50D-04 OVMax= 1.25D-03

 Cycle   5  Pass 0  IDiag  1:
 E= -196.543995968512     Delta-E=       -0.000035659064 Rises=F Damp=F
 DIIS: error= 1.88D-05 at cycle   5 NSaved=   5.
 NSaved= 5 IEnMin= 5 EnMin= -196.543995968512     IErMin= 5 ErrMin= 1.88D-05
 ErrMax= 1.88D-05 EMaxC= 1.00D-01 BMatC= 1.08D-07 BMatP= 1.54D-04
 IDIUse=1 WtCom= 1.00D+00 WtEn= 0.00D+00
 Coeff-Com:  0.243D-03-0.839D-03-0.430D-02-0.666D-02 0.101D+01
 Coeff:      0.243D-03-0.839D-03-0.430D-02-0.666D-02 0.101D+01
 Gap=     0.371 Goal=   None    Shift=    0.000
 Gap=     0.371 Goal=   None    Shift=    0.000
 RMSDP=3.24D-06 MaxDP=2.91D-05 DE=-3.57D-05 OVMax= 4.85D-05

 Initial convergence to 1.0D-05 achieved.  Increase integral accuracy.
 Cycle   6  Pass 1  IDiag  1:
 E= -196.544036995829     Delta-E=       -0.000041027317 Rises=F Damp=F
 DIIS: error= 2.65D-05 at cycle   1 NSaved=   1.
 NSaved= 1 IEnMin= 1 EnMin= -196.544036995829     IErMin= 1 ErrMin= 2.65D-05
 ErrMax= 2.65D-05 EMaxC= 1.00D-01 BMatC= 1.76D-07 BMatP= 1.76D-07
 IDIUse=1 WtCom= 1.00D+00 WtEn= 0.00D+00
 Coeff-Com:  0.100D+01
 Coeff:      0.100D+01
 Gap=     0.371 Goal=   None    Shift=    0.000
 Gap=     0.371 Goal=   None    Shift=    0.000
 RMSDP=3.24D-06 MaxDP=2.91D-05 DE=-4.10D-05 OVMax= 7.99D-05

 Cycle   7  Pass 1  IDiag  1:
 E= -196.544037055124     Delta-E=       -0.000000059295 Rises=F Damp=F
 DIIS: error= 4.22D-06 at cycle   2 NSaved=   2.
 NSaved= 2 IEnMin= 2 EnMin= -196.544037055124     IErMin= 2 ErrMin= 4.22D-06
 ErrMax= 4.22D-06 EMaxC= 1.00D-01 BMatC= 1.09D-08 BMatP= 1.76D-07
 IDIUse=1 WtCom= 1.00D+00 WtEn= 0.00D+00
 Coeff-Com:  0.661D-01 0.934D+00
 Coeff:      0.661D-01 0.934D+00
 Gap=     0.371 Goal=   None    Shift=    0.000
 Gap=     0.371 Goal=   None    Shift=    0.000
 RMSDP=1.16D-06 MaxDP=2.29D-05 DE=-5.93D-08 OVMax= 2.64D-05

 Cycle   8  Pass 1  IDiag  1:
 E= -196.544037054920     Delta-E=        0.000000000204 Rises=F Damp=F
 DIIS: error= 4.97D-06 at cycle   3 NSaved=   3.
 NSaved= 3 IEnMin= 2 EnMin= -196.544037055124     IErMin= 2 ErrMin= 4.22D-06
 ErrMax= 4.97D-06 EMaxC= 1.00D-01 BMatC= 1.26D-08 BMatP= 1.09D-08
 IDIUse=1 WtCom= 1.00D+00 WtEn= 0.00D+00
 Coeff-Com: -0.279D-01 0.525D+00 0.503D+00
 Coeff:     -0.279D-01 0.525D+00 0.503D+00
 Gap=     0.371 Goal=   None    Shift=    0.000
 Gap=     0.371 Goal=   None    Shift=    0.000
 RMSDP=5.74D-07 MaxDP=1.12D-05 DE= 2.04D-10 OVMax= 1.26D-05

 Cycle   9  Pass 1  IDiag  1:
 E= -196.544037058012     Delta-E=       -0.000000003092 Rises=F Damp=F
 DIIS: error= 1.64D-07 at cycle   4 NSaved=   4.
 NSaved= 4 IEnMin= 4 EnMin= -196.544037058012     IErMin= 4 ErrMin= 1.64D-07
 ErrMax= 1.64D-07 EMaxC= 1.00D-01 BMatC= 2.61D-11 BMatP= 1.09D-08
 IDIUse=1 WtCom= 1.00D+00 WtEn= 0.00D+00
 Coeff-Com: -0.699D-02 0.109D+00 0.117D+00 0.781D+00
 Coeff:     -0.699D-02 0.109D+00 0.117D+00 0.781D+00
 Gap=     0.371 Goal=   None    Shift=    0.000
 Gap=     0.371 Goal=   None    Shift=    0.000
 RMSDP=4.16D-08 MaxDP=4.59D-07 DE=-3.09D-09 OVMax= 6.89D-07

 Cycle  10  Pass 1  IDiag  1:
 E= -196.544037058018     Delta-E=       -0.000000000006 Rises=F Damp=F
 DIIS: error= 6.85D-08 at cycle   5 NSaved=   5.
 NSaved= 5 IEnMin= 5 EnMin= -196.544037058018     IErMin= 5 ErrMin= 6.85D-08
 ErrMax= 6.85D-08 EMaxC= 1.00D-01 BMatC= 3.76D-12 BMatP= 2.61D-11
 IDIUse=1 WtCom= 1.00D+00 WtEn= 0.00D+00
 Coeff-Com: -0.101D-02 0.864D-02 0.123D-01 0.279D+00 0.701D+00
 Coeff:     -0.101D-02 0.864D-02 0.123D-01 0.279D+00 0.701D+00
 Gap=     0.371 Goal=   None    Shift=    0.000
 Gap=     0.371 Goal=   None    Shift=    0.000
 RMSDP=1.33D-08 MaxDP=2.09D-07 DE=-5.68D-12 OVMax= 2.74D-07

 Cycle  11  Pass 1  IDiag  1:
 E= -196.544037058019     Delta-E=       -0.000000000001 Rises=F Damp=F
 DIIS: error= 3.56D-08 at cycle   6 NSaved=   6.
 NSaved= 6 IEnMin= 6 EnMin= -196.544037058019     IErMin= 6 ErrMin= 3.56D-08
 ErrMax= 3.56D-08 EMaxC= 1.00D-01 BMatC= 5.21D-13 BMatP= 3.76D-12
 IDIUse=1 WtCom= 1.00D+00 WtEn= 0.00D+00
 Coeff-Com:  0.383D-04-0.372D-02-0.273D-02 0.710D-01 0.331D+00 0.605D+00
 Coeff:      0.383D-04-0.372D-02-0.273D-02 0.710D-01 0.331D+00 0.605D+00
 Gap=     0.371 Goal=   None    Shift=    0.000
 Gap=     0.371 Goal=   None    Shift=    0.000
 RMSDP=3.75D-09 MaxDP=7.77D-08 DE=-1.19D-12 OVMax= 8.13D-08

 SCF Done:  E(UB3LYP) =  -196.544037058     A.U. after   11 cycles
             Convg  =    0.3753D-08             -V/T =  2.0105
 <Sx>= 0.0000 <Sy>= 0.0000 <Sz>= 0.0000 <S**2>= 0.0000 S= 0.0000
 <L.S>= 0.000000000000E+00
 KE= 1.945095872615D+02 PE=-8.273287132207D+02 EE= 2.495673925113D+02
 Annihilation of the first spin contaminant:
 S**2 before annihilation     0.0000,   after     0.0000
 Leave Link  502 at Sat Jun  6 00:33:35 2015, MaxMem= 3758096384 cpu:      64.4
 (Enter /share/apps/g09/l601.exe)
 Copying SCF densities to generalized density rwf, IOpCl= 1 IROHF=0.

 **********************************************************************

            Population analysis using the SCF density.

 **********************************************************************

 Orbital symmetries:
 Alpha Orbitals:
       Occupied  (A) (A) (A) (A) (A) (A) (A) (A) (A) (A) (A) (A)
                 (A) (A) (A) (A) (A) (A) (A) (A)
       Virtual   (A) (A) (A) (A) (A) (A) (A) (A) (A) (A) (A) (A)
                 (A) (A) (A) (A) (A) (A) (A) (A) (A) (A) (A) (A)
                 (A) (A) (A) (A) (A) (A) (A) (A) (A) (A) (A) (A)
                 (A) (A) (A) (A) (A) (A) (A) (A) (A) (A) (A) (A)
                 (A) (A) (A) (A) (A) (A) (A) (A) (A) (A) (A) (A)
                 (A) (A) (A) (A) (A) (A) (A) (A) (A) (A) (A) (A)
                 (A) (A) (A)
 Beta  Orbitals:
       Occupied  (A) (A) (A) (A) (A) (A) (A) (A) (A) (A) (A) (A)
                 (A) (A) (A) (A) (A) (A) (A) (A)
       Virtual   (A) (A) (A) (A) (A) (A) (A) (A) (A) (A) (A) (A)
                 (A) (A) (A) (A) (A) (A) (A) (A) (A) (A) (A) (A)
                 (A) (A) (A) (A) (A) (A) (A) (A) (A) (A) (A) (A)
                 (A) (A) (A) (A) (A) (A) (A) (A) (A) (A) (A) (A)
                 (A) (A) (A) (A) (A) (A) (A) (A) (A) (A) (A) (A)
                 (A) (A) (A) (A) (A) (A) (A) (A) (A) (A) (A) (A)
                 (A) (A) (A)
 The electronic state is 1-A.
 Alpha  occ. eigenvalues --  -10.17320 -10.17306 -10.17305 -10.17280 -10.17280
 Alpha  occ. eigenvalues --   -0.82391  -0.70177  -0.70175  -0.54785  -0.54772
 Alpha  occ. eigenvalues --   -0.47912  -0.46492  -0.40560  -0.40558  -0.33516
 Alpha  occ. eigenvalues --   -0.33509  -0.32409  -0.32405  -0.29961  -0.29943
 Alpha virt. eigenvalues --    0.07152   0.07423   0.13694   0.13695   0.16063
 Alpha virt. eigenvalues --    0.16064   0.18840   0.18863   0.18917   0.18924
 Alpha virt. eigenvalues --    0.26704   0.26812   0.30953   0.31071   0.38321
 Alpha virt. eigenvalues --    0.51180   0.57554   0.57593   0.58756   0.61618
 Alpha virt. eigenvalues --    0.61626   0.68019   0.68028   0.69485   0.69488
 Alpha virt. eigenvalues --    0.70309   0.70317   0.81395   0.83317   0.83886
 Alpha virt. eigenvalues --    0.84553   0.84561   0.87239   0.87240   0.91340
 Alpha virt. eigenvalues --    0.91344   0.94597   0.95105   0.95131   0.97338
 Alpha virt. eigenvalues --    0.97547   1.29695   1.29699   1.31163   1.73475
 Alpha virt. eigenvalues --    1.73517   1.77919   1.78120   1.80407   1.80699
 Alpha virt. eigenvalues --    1.86810   1.87339   1.94639   2.01411   2.02213
 Alpha virt. eigenvalues --    2.02219   2.09064   2.09070   2.17167   2.17182
 Alpha virt. eigenvalues --    2.30696   2.37447   2.37546   2.51548   2.51787
 Alpha virt. eigenvalues --    2.59356   2.59359   2.62905   2.63144   2.89682
 Alpha virt. eigenvalues --    4.11142   4.27810   4.27815   4.59740   4.59938
  Beta  occ. eigenvalues --  -10.17320 -10.17306 -10.17305 -10.17280 -10.17280
  Beta  occ. eigenvalues --   -0.82391  -0.70177  -0.70175  -0.54785  -0.54772
  Beta  occ. eigenvalues --   -0.47912  -0.46492  -0.40560  -0.40558  -0.33516
  Beta  occ. eigenvalues --   -0.33509  -0.32409  -0.32405  -0.29961  -0.29943
  Beta virt. eigenvalues --    0.07152   0.07423   0.13694   0.13695   0.16063
  Beta virt. eigenvalues --    0.16064   0.18840   0.18863   0.18917   0.18924
  Beta virt. eigenvalues --    0.26704   0.26812   0.30953   0.31071   0.38321
  Beta virt. eigenvalues --    0.51180   0.57554   0.57593   0.58756   0.61618
  Beta virt. eigenvalues --    0.61626   0.68019   0.68028   0.69485   0.69488
  Beta virt. eigenvalues --    0.70309   0.70317   0.81395   0.83317   0.83886
  Beta virt. eigenvalues --    0.84553   0.84561   0.87239   0.87240   0.91340
  Beta virt. eigenvalues --    0.91344   0.94597   0.95105   0.95131   0.97338
  Beta virt. eigenvalues --    0.97547   1.29695   1.29699   1.31163   1.73475
  Beta virt. eigenvalues --    1.73517   1.77919   1.78120   1.80407   1.80699
  Beta virt. eigenvalues --    1.86810   1.87339   1.94639   2.01411   2.02213
  Beta virt. eigenvalues --    2.02219   2.09064   2.09070   2.17167   2.17182
  Beta virt. eigenvalues --    2.30696   2.37447   2.37546   2.51548   2.51787
  Beta virt. eigenvalues --    2.59356   2.59359   2.62905   2.63144   2.89682
  Beta virt. eigenvalues --    4.11142   4.27810   4.27815   4.59740   4.59938
          Condensed to atoms (all electrons):
              1          2          3          4          5          6
     1  C    5.034644   0.373806  -0.071210  -0.071221   0.373618   0.377858
     2  C    0.373806   5.034320   0.373934  -0.071259  -0.071237  -0.035946
     3  C   -0.071210   0.373934   5.034348   0.373786  -0.071224   0.004481
     4  C   -0.071221  -0.071259   0.373786   5.034479   0.373660   0.004491
     5  C    0.373618  -0.071237  -0.071224   0.373660   5.034851  -0.036610
     6  H    0.377858  -0.035946   0.004481   0.004491  -0.036610   0.600021
     7  H    0.378694  -0.037489   0.004131   0.004121  -0.036830  -0.033879
     8  H   -0.037406   0.378934  -0.037660   0.003994   0.003992  -0.010829
     9  H   -0.036128   0.377510  -0.035816   0.004604   0.004606   0.004129
    10  H    0.003977  -0.037642   0.378964  -0.037445   0.003976  -0.000129
    11  H    0.004609  -0.035812   0.377479  -0.036038   0.004612  -0.000210
    12  H    0.004519   0.004512  -0.035917   0.377784  -0.036523  -0.000133
    13  H    0.004093   0.004102  -0.037535   0.378751  -0.036980  -0.000177
    14  H   -0.036387   0.004289   0.004302  -0.037121   0.378324   0.004283
    15  H   -0.037031   0.004337   0.004324  -0.036307   0.378262  -0.010781
              7          8          9         10         11         12
     1  C    0.378694  -0.037406  -0.036128   0.003977   0.004609   0.004519
     2  C   -0.037489   0.378934   0.377510  -0.037642  -0.035812   0.004512
     3  C    0.004131  -0.037660  -0.035816   0.378964   0.377479  -0.035917
     4  C    0.004121   0.003994   0.004604  -0.037445  -0.036038   0.377784
     5  C   -0.036830   0.003992   0.004606   0.003976   0.004612  -0.036523
     6  H   -0.033879  -0.010829   0.004129  -0.000129  -0.000210  -0.000133
     7  H    0.601428   0.004570  -0.010756  -0.000124  -0.000132  -0.000182
     8  H    0.004570   0.602137  -0.033849   0.004627  -0.010753  -0.000130
     9  H   -0.010756  -0.033849   0.599538  -0.010756   0.004055  -0.000211
    10  H   -0.000124   0.004627  -0.010756   0.602161  -0.033874  -0.010806
    11  H   -0.000132  -0.010753   0.004055  -0.033874   0.599490   0.004107
    12  H   -0.000182  -0.000130  -0.000211  -0.010806   0.004107   0.599898
    13  H   -0.000126  -0.000121  -0.000132   0.004582  -0.010745  -0.033838
    14  H   -0.010864  -0.000127  -0.000200  -0.000145  -0.000133  -0.010776
    15  H    0.004423  -0.000151  -0.000133  -0.000127  -0.000202   0.004252
             13         14         15
     1  C    0.004093  -0.036387  -0.037031
     2  C    0.004102   0.004289   0.004337
     3  C   -0.037535   0.004302   0.004324
     4  C    0.378751  -0.037121  -0.036307
     5  C   -0.036980   0.378324   0.378262
     6  H   -0.000177   0.004283  -0.010781
     7  H   -0.000126  -0.010864   0.004423
     8  H   -0.000121  -0.000127  -0.000151
     9  H   -0.000132  -0.000200  -0.000133
    10  H    0.004582  -0.000145  -0.000127
    11  H   -0.010745  -0.000133  -0.000202
    12  H   -0.033838  -0.010776   0.004252
    13  H    0.601590   0.004453  -0.010862
    14  H    0.004453   0.600734  -0.033856
    15  H   -0.010862  -0.033856   0.600570
 Mulliken atomic charges:
              1
     1  C   -0.266437
     2  C   -0.266360
     3  C   -0.266387
     4  C   -0.266277
     5  C   -0.266496
     6  H    0.133431
     7  H    0.133015
     8  H    0.132772
     9  H    0.133539
    10  H    0.132762
    11  H    0.133545
    12  H    0.133444
    13  H    0.132944
    14  H    0.133224
    15  H    0.133282
 Sum of Mulliken atomic charges =   0.00000
 Mulliken charges with hydrogens summed into heavy atoms:
              1
     1  C    0.000009
     2  C   -0.000049
     3  C   -0.000081
     4  C    0.000111
     5  C    0.000010
 Sum of Mulliken charges with hydrogens summed into heavy atoms =   0.00000
          Atomic-Atomic Spin Densities.
              1          2          3          4          5          6
     1  C    0.000000   0.000000   0.000000   0.000000   0.000000   0.000000
     2  C    0.000000   0.000000   0.000000   0.000000   0.000000   0.000000
     3  C    0.000000   0.000000   0.000000   0.000000   0.000000   0.000000
     4  C    0.000000   0.000000   0.000000   0.000000   0.000000   0.000000
     5  C    0.000000   0.000000   0.000000   0.000000   0.000000   0.000000
     6  H    0.000000   0.000000   0.000000   0.000000   0.000000   0.000000
     7  H    0.000000   0.000000   0.000000   0.000000   0.000000   0.000000
     8  H    0.000000   0.000000   0.000000   0.000000   0.000000   0.000000
     9  H    0.000000   0.000000   0.000000   0.000000   0.000000   0.000000
    10  H    0.000000   0.000000   0.000000   0.000000   0.000000   0.000000
    11  H    0.000000   0.000000   0.000000   0.000000   0.000000   0.000000
    12  H    0.000000   0.000000   0.000000   0.000000   0.000000   0.000000
    13  H    0.000000   0.000000   0.000000   0.000000   0.000000   0.000000
    14  H    0.000000   0.000000   0.000000   0.000000   0.000000   0.000000
    15  H    0.000000   0.000000   0.000000   0.000000   0.000000   0.000000
              7          8          9         10         11         12
     1  C    0.000000   0.000000   0.000000   0.000000   0.000000   0.000000
     2  C    0.000000   0.000000   0.000000   0.000000   0.000000   0.000000
     3  C    0.000000   0.000000   0.000000   0.000000   0.000000   0.000000
     4  C    0.000000   0.000000   0.000000   0.000000   0.000000   0.000000
     5  C    0.000000   0.000000   0.000000   0.000000   0.000000   0.000000
     6  H    0.000000   0.000000   0.000000   0.000000   0.000000   0.000000
     7  H    0.000000   0.000000   0.000000   0.000000   0.000000   0.000000
     8  H    0.000000   0.000000   0.000000   0.000000   0.000000   0.000000
     9  H    0.000000   0.000000   0.000000   0.000000   0.000000   0.000000
    10  H    0.000000   0.000000   0.000000   0.000000   0.000000   0.000000
    11  H    0.000000   0.000000   0.000000   0.000000   0.000000   0.000000
    12  H    0.000000   0.000000   0.000000   0.000000   0.000000   0.000000
    13  H    0.000000   0.000000   0.000000   0.000000   0.000000   0.000000
    14  H    0.000000   0.000000   0.000000   0.000000   0.000000   0.000000
    15  H    0.000000   0.000000   0.000000   0.000000   0.000000   0.000000
             13         14         15
     1  C    0.000000   0.000000   0.000000
     2  C    0.000000   0.000000   0.000000
     3  C    0.000000   0.000000   0.000000
     4  C    0.000000   0.000000   0.000000
     5  C    0.000000   0.000000   0.000000
     6  H    0.000000   0.000000   0.000000
     7  H    0.000000   0.000000   0.000000
     8  H    0.000000   0.000000   0.000000
     9  H    0.000000   0.000000   0.000000
    10  H    0.000000   0.000000   0.000000
    11  H    0.000000   0.000000   0.000000
    12  H    0.000000   0.000000   0.000000
    13  H    0.000000   0.000000   0.000000
    14  H    0.000000   0.000000   0.000000
    15  H    0.000000   0.000000   0.000000
 Mulliken atomic spin densities:
              1
     1  C    0.000000
     2  C    0.000000
     3  C    0.000000
     4  C    0.000000
     5  C    0.000000
     6  H    0.000000
     7  H    0.000000
     8  H    0.000000
     9  H    0.000000
    10  H    0.000000
    11  H    0.000000
    12  H    0.000000
    13  H    0.000000
    14  H    0.000000
    15  H    0.000000
 Sum of Mulliken atomic spin densities =   0.00000
 Electronic spatial extent (au):  <R**2>=            419.7274
 Charge=              0.0000 electrons
 Dipole moment (field-independent basis, Debye):
    X=              0.0003    Y=              0.0002    Z=              0.0000  Tot=              0.0004
 Quadrupole moment (field-independent basis, Debye-Ang):
   XX=            -33.9708   YY=            -33.9725   ZZ=            -31.9454
   XY=             -0.0002   XZ=             -0.0005   YZ=              0.0011
 Traceless Quadrupole moment (field-independent basis, Debye-Ang):
   XX=             -0.6745   YY=             -0.6763   ZZ=              1.3508
   XY=             -0.0002   XZ=             -0.0005   YZ=              0.0011
 Octapole moment (field-independent basis, Debye-Ang**2):
  XXX=             -0.0069  YYY=             -0.0081  ZZZ=              0.0003  XYY=              0.0000
  XXY=             -0.0049  XXZ=              0.1941  XZZ=              0.0088  YZZ=              0.0119
  YYZ=             -0.1951  XYZ=              0.0936
 Hexadecapole moment (field-independent basis, Debye-Ang**3):
 XXXX=           -259.6382 YYYY=           -259.6261 ZZZZ=            -68.9929 XXXY=              0.0156
 XXXZ=             -0.0638 YYYX=             -0.0142 YYYZ=              0.2365 ZZZX=             -0.0007
 ZZZY=              0.0013 XXYY=            -86.5609 XXZZ=            -50.4456 YYZZ=            -50.4406
 XXYZ=             -0.2281 YYXZ=              0.0584 ZZXY=             -0.0009
 N-N= 1.867076963899D+02 E-N=-1.240993071672D+03  KE= 2.917643808923D+02
                          Isotropic Fermi Contact Couplings
        Atom                 a.u.       MegaHertz       Gauss      10(-4) cm-1
     1  C(13)              0.00000       0.00000       0.00000       0.00000
     2  C(13)              0.00000       0.00000       0.00000       0.00000
     3  C(13)              0.00000       0.00000       0.00000       0.00000
     4  C(13)              0.00000       0.00000       0.00000       0.00000
     5  C(13)              0.00000       0.00000       0.00000       0.00000
     6  H(1)               0.00000       0.00000       0.00000       0.00000
     7  H(1)               0.00000       0.00000       0.00000       0.00000
     8  H(1)               0.00000       0.00000       0.00000       0.00000
     9  H(1)               0.00000       0.00000       0.00000       0.00000
    10  H(1)               0.00000       0.00000       0.00000       0.00000
    11  H(1)               0.00000       0.00000       0.00000       0.00000
    12  H(1)               0.00000       0.00000       0.00000       0.00000
    13  H(1)               0.00000       0.00000       0.00000       0.00000
    14  H(1)               0.00000       0.00000       0.00000       0.00000
    15  H(1)               0.00000       0.00000       0.00000       0.00000
 --------------------------------------------------------
       Center         ----  Spin Dipole Couplings  ----
                      3XX-RR        3YY-RR        3ZZ-RR
 --------------------------------------------------------
     1   Atom        0.000000      0.000000      0.000000
     2   Atom        0.000000      0.000000      0.000000
     3   Atom        0.000000      0.000000      0.000000
     4   Atom        0.000000      0.000000      0.000000
     5   Atom        0.000000      0.000000      0.000000
     6   Atom        0.000000      0.000000      0.000000
     7   Atom        0.000000      0.000000      0.000000
     8   Atom        0.000000      0.000000      0.000000
     9   Atom        0.000000      0.000000      0.000000
    10   Atom        0.000000      0.000000      0.000000
    11   Atom        0.000000      0.000000      0.000000
    12   Atom        0.000000      0.000000      0.000000
    13   Atom        0.000000      0.000000      0.000000
    14   Atom        0.000000      0.000000      0.000000
    15   Atom        0.000000      0.000000      0.000000
 --------------------------------------------------------
                        XY            XZ            YZ
 --------------------------------------------------------
     1   Atom        0.000000      0.000000      0.000000
     2   Atom        0.000000      0.000000      0.000000
     3   Atom        0.000000      0.000000      0.000000
     4   Atom        0.000000      0.000000      0.000000
     5   Atom        0.000000      0.000000      0.000000
     6   Atom        0.000000      0.000000      0.000000
     7   Atom        0.000000      0.000000      0.000000
     8   Atom        0.000000      0.000000      0.000000
     9   Atom        0.000000      0.000000      0.000000
    10   Atom        0.000000      0.000000      0.000000
    11   Atom        0.000000      0.000000      0.000000
    12   Atom        0.000000      0.000000      0.000000
    13   Atom        0.000000      0.000000      0.000000
    14   Atom        0.000000      0.000000      0.000000
    15   Atom        0.000000      0.000000      0.000000
 --------------------------------------------------------


 ---------------------------------------------------------------------------------
              Anisotropic Spin Dipole Couplings in Principal Axis System
 ---------------------------------------------------------------------------------

       Atom             a.u.   MegaHertz   Gauss  10(-4) cm-1        Axes

              Baa     0.0000     0.000     0.000     0.000  1.0000  0.0000  0.0000
     1 C(13)  Bbb     0.0000     0.000     0.000     0.000  0.0000  1.0000  0.0000
              Bcc     0.0000     0.000     0.000     0.000  0.0000  0.0000  1.0000
 
              Baa     0.0000     0.000     0.000     0.000  1.0000  0.0000  0.0000
     2 C(13)  Bbb     0.0000     0.000     0.000     0.000  0.0000  1.0000  0.0000
              Bcc     0.0000     0.000     0.000     0.000  0.0000  0.0000  1.0000
 
              Baa     0.0000     0.000     0.000     0.000  1.0000  0.0000  0.0000
     3 C(13)  Bbb     0.0000     0.000     0.000     0.000  0.0000  1.0000  0.0000
              Bcc     0.0000     0.000     0.000     0.000  0.0000  0.0000  1.0000
 
              Baa     0.0000     0.000     0.000     0.000  1.0000  0.0000  0.0000
     4 C(13)  Bbb     0.0000     0.000     0.000     0.000  0.0000  1.0000  0.0000
              Bcc     0.0000     0.000     0.000     0.000  0.0000  0.0000  1.0000
 
              Baa     0.0000     0.000     0.000     0.000  1.0000  0.0000  0.0000
     5 C(13)  Bbb     0.0000     0.000     0.000     0.000  0.0000  1.0000  0.0000
              Bcc     0.0000     0.000     0.000     0.000  0.0000  0.0000  1.0000
 
              Baa     0.0000     0.000     0.000     0.000  1.0000  0.0000  0.0000
     6 H(1)   Bbb     0.0000     0.000     0.000     0.000  0.0000  1.0000  0.0000
              Bcc     0.0000     0.000     0.000     0.000  0.0000  0.0000  1.0000
 
              Baa     0.0000     0.000     0.000     0.000  1.0000  0.0000  0.0000
     7 H(1)   Bbb     0.0000     0.000     0.000     0.000  0.0000  1.0000  0.0000
              Bcc     0.0000     0.000     0.000     0.000  0.0000  0.0000  1.0000
 
              Baa     0.0000     0.000     0.000     0.000  1.0000  0.0000  0.0000
     8 H(1)   Bbb     0.0000     0.000     0.000     0.000  0.0000  1.0000  0.0000
              Bcc     0.0000     0.000     0.000     0.000  0.0000  0.0000  1.0000
 
              Baa     0.0000     0.000     0.000     0.000  1.0000  0.0000  0.0000
     9 H(1)   Bbb     0.0000     0.000     0.000     0.000  0.0000  1.0000  0.0000
              Bcc     0.0000     0.000     0.000     0.000  0.0000  0.0000  1.0000
 
              Baa     0.0000     0.000     0.000     0.000  1.0000  0.0000  0.0000
    10 H(1)   Bbb     0.0000     0.000     0.000     0.000  0.0000  1.0000  0.0000
              Bcc     0.0000     0.000     0.000     0.000  0.0000  0.0000  1.0000
 
              Baa     0.0000     0.000     0.000     0.000  1.0000  0.0000  0.0000
    11 H(1)   Bbb     0.0000     0.000     0.000     0.000  0.0000  1.0000  0.0000
              Bcc     0.0000     0.000     0.000     0.000  0.0000  0.0000  1.0000
 
              Baa     0.0000     0.000     0.000     0.000  1.0000  0.0000  0.0000
    12 H(1)   Bbb     0.0000     0.000     0.000     0.000  0.0000  1.0000  0.0000
              Bcc     0.0000     0.000     0.000     0.000  0.0000  0.0000  1.0000
 
              Baa     0.0000     0.000     0.000     0.000  1.0000  0.0000  0.0000
    13 H(1)   Bbb     0.0000     0.000     0.000     0.000  0.0000  1.0000  0.0000
              Bcc     0.0000     0.000     0.000     0.000  0.0000  0.0000  1.0000
 
              Baa     0.0000     0.000     0.000     0.000  1.0000  0.0000  0.0000
    14 H(1)   Bbb     0.0000     0.000     0.000     0.000  0.0000  1.0000  0.0000
              Bcc     0.0000     0.000     0.000     0.000  0.0000  0.0000  1.0000
 
              Baa     0.0000     0.000     0.000     0.000  1.0000  0.0000  0.0000
    15 H(1)   Bbb     0.0000     0.000     0.000     0.000  0.0000  1.0000  0.0000
              Bcc     0.0000     0.000     0.000     0.000  0.0000  0.0000  1.0000
 

 ---------------------------------------------------------------------------------

 No NMR shielding tensors so no spin-rotation constants.
 Leave Link  601 at Sat Jun  6 00:33:36 2015, MaxMem= 3758096384 cpu:       3.2
 (Enter /share/apps/g09/l701.exe)
 Compute integral first derivatives.
 ... and contract with generalized density number  0.
 Leave Link  701 at Sat Jun  6 00:33:36 2015, MaxMem= 3758096384 cpu:       1.8
 (Enter /share/apps/g09/l702.exe)
 L702 exits ... SP integral derivatives will be done elsewhere.
 Leave Link  702 at Sat Jun  6 00:33:36 2015, MaxMem= 3758096384 cpu:       0.1
 (Enter /share/apps/g09/l703.exe)
 Compute integral first derivatives, UseDBF=F ICtDFT=           0.
 Integral derivatives from FoFDir, PRISM(SPDF).
 Calling FoFJK, ICntrl=      2127 FMM=F ISym2X=0 I1Cent= 0 IOpClX= 1 NMat=1 NMatS=1 NMatT=0.
 FoFCou: FMM=F IPFlag=           0 FMFlag=      100000 FMFlg1=         800
         NFxFlg=           0 DoJE=F BraDBF=F KetDBF=F FulRan=T
         Omega=  0.000000  0.000000  1.000000  0.000000  0.000000 ICntrl=    2127 IOpCl=  1
         NMat0=    1 NMatS0=    1 NMatT0=    0 NMatD0=    1 NMtDS0=    0 NMtDT0=    0
         I1Cent=           0 NGrid=           0.
 Symmetry not used in FoFCou.
 Leave Link  703 at Sat Jun  6 00:33:37 2015, MaxMem= 3758096384 cpu:      14.4
 (Enter /share/apps/g09/l716.exe)
 Dipole        = 1.23929846D-04 7.81541964D-05 3.08983167D-06
 ***** Axes restored to original set *****
 -------------------------------------------------------------------
 Center     Atomic                   Forces (Hartrees/Bohr)
 Number     Number              X              Y              Z
 -------------------------------------------------------------------
      1        6          -0.019126000   -0.026139815    0.002246177
      2        6           0.019172604   -0.026211112   -0.000901961
      3        6           0.030546150    0.010101775    0.003305309
      4        6           0.000171667    0.032161807   -0.003438344
      5        6          -0.030934680    0.010056678   -0.001225629
      6        1           0.003310319    0.005252146    0.012941887
      7        1           0.003329738    0.003784464   -0.013246622
      8        1          -0.003458203    0.004727827    0.012860409
      9        1          -0.003046854    0.004311333   -0.013320252
     10        1          -0.004430090   -0.002164552   -0.013204729
     11        1          -0.006166513   -0.001346580    0.012873540
     12        1           0.000650136   -0.006543699   -0.012753705
     13        1          -0.000618959   -0.004558446    0.013391618
     14        1           0.005592421   -0.002652288   -0.012864461
     15        1           0.005008266   -0.000779538    0.013336764
 -------------------------------------------------------------------
 Cartesian Forces:  Max     0.032161807 RMS     0.012729103
 Leave Link  716 at Sat Jun  6 00:33:37 2015, MaxMem= 3758096384 cpu:       0.2
 (Enter /share/apps/g09/l103.exe)

 GradGradGradGradGradGradGradGradGradGradGradGradGradGradGradGradGradGrad
 Berny optimization.
 Internal  Forces:  Max     0.018134025 RMS     0.006339742
 Search for a local minimum.
 Step number   1 out of a maximum of  100
 All quantities printed in internal units (Hartrees-Bohrs-Radians)
 RMS Force = .63397D-02 SwitMx=.10000D-02 MixMth= 1
 Mixed Optimization -- RFO/linear search
 Second derivative matrix not updated -- first step.
     Eigenvalues ---    0.00475   0.00479   0.02094   0.02095   0.04059
     Eigenvalues ---    0.04061   0.04066   0.05021   0.05024   0.05521
     Eigenvalues ---    0.05521   0.05604   0.05739   0.07627   0.07631
     Eigenvalues ---    0.07633   0.07633   0.07635   0.09315   0.09316
     Eigenvalues ---    0.11645   0.11648   0.21784   0.21790   0.28480
     Eigenvalues ---    0.28485   0.30164   0.30168   0.30180   0.31639
     Eigenvalues ---    0.31644   0.31655   0.31655   0.31664   0.31672
     Eigenvalues ---    0.31678   0.31684   0.31698   0.316981000.00000
     Eigenvalues --- 1000.000001000.000001000.000001000.000001000.00000
     Eigenvalues --- 1000.000001000.000001000.000001000.000001000.00000
     Eigenvalues --- 1000.000001000.000001000.000001000.000001000.00000
     Eigenvalues --- 1000.000001000.000001000.000001000.000001000.00000
     Eigenvalues --- 1000.000001000.000001000.000001000.000001000.00000
     Eigenvalues --- 1000.000001000.000001000.000001000.000001000.00000
     Eigenvalues --- 1000.000001000.000001000.000001000.000001000.00000
     Eigenvalues --- 1000.000001000.000001000.000001000.000001000.00000
     Eigenvalues --- 1000.000001000.000001000.000001000.000001000.00000
     Eigenvalues --- 1000.000001000.000001000.000001000.000001000.00000
 RFO step:  Lambda=-1.20630649D-02 EMin= 4.74737869D-03
 Linear search not attempted -- first point.
 Iteration  1 RMS(Cart)=  0.02644009 RMS(Int)=  0.00031018
 Iteration  2 RMS(Cart)=  0.00020344 RMS(Int)=  0.00001902
 Iteration  3 RMS(Cart)=  0.00000004 RMS(Int)=  0.00001902
 Variable       Old X    -DE/DX   Delta X   Delta X   Delta X     New X
                                 (Linear)    (Quad)   (Total)
    R1        2.87589   0.01812   0.00000   0.05772   0.05771   2.93361
    R2        2.87645   0.01813   0.00000   0.05788   0.05789   2.93434
    R3        2.11438  -0.01391   0.00000  -0.04229  -0.04229   2.07209
    R4        2.11480  -0.01385   0.00000  -0.04215  -0.04215   2.07265
    R5        2.87590   0.01794   0.00000   0.05708   0.05707   2.93297
    R6        2.11509  -0.01384   0.00000  -0.04213  -0.04213   2.07296
    R7        2.11400  -0.01383   0.00000  -0.04204  -0.04204   2.07196
    R8        2.87612   0.01802   0.00000   0.05739   0.05738   2.93351
    R9        2.11501  -0.01380   0.00000  -0.04202  -0.04202   2.07299
   R10        2.11401  -0.01385   0.00000  -0.04209  -0.04209   2.07191
   R11        2.87623   0.01811   0.00000   0.05775   0.05776   2.93399
   R12        2.11426  -0.01388   0.00000  -0.04220  -0.04220   2.07206
   R13        2.11480  -0.01384   0.00000  -0.04210  -0.04210   2.07270
   R14        2.11463  -0.01389   0.00000  -0.04226  -0.04226   2.07237
   R15        2.11449  -0.01387   0.00000  -0.04218  -0.04218   2.07231
    A1        1.88415   0.00003   0.00000  -0.00006  -0.00009   1.88407
    A2        1.92870   0.00039   0.00000   0.00594   0.00591   1.93462
    A3        1.92687   0.00048   0.00000   0.00726   0.00722   1.93409
    A4        1.92918   0.00044   0.00000   0.00659   0.00657   1.93575
    A5        1.92667   0.00049   0.00000   0.00738   0.00735   1.93402
    A6        1.86877  -0.00182   0.00000  -0.02684  -0.02680   1.84197
    A7        1.88391  -0.00005   0.00000  -0.00064  -0.00068   1.88323
    A8        1.92540   0.00057   0.00000   0.00829   0.00826   1.93366
    A9        1.93011   0.00042   0.00000   0.00598   0.00597   1.93609
   A10        1.92566   0.00054   0.00000   0.00799   0.00795   1.93361
   A11        1.93002   0.00038   0.00000   0.00554   0.00553   1.93556
   A12        1.86923  -0.00184   0.00000  -0.02687  -0.02684   1.84240
   A13        1.88345   0.00005   0.00000  -0.00029  -0.00034   1.88311
   A14        1.92567   0.00054   0.00000   0.00818   0.00815   1.93383
   A15        1.93031   0.00033   0.00000   0.00520   0.00519   1.93550
   A16        1.92557   0.00052   0.00000   0.00816   0.00813   1.93369
   A17        1.93021   0.00040   0.00000   0.00580   0.00579   1.93600
   A18        1.86914  -0.00182   0.00000  -0.02675  -0.02672   1.84242
   A19        1.88424   0.00002   0.00000  -0.00017  -0.00020   1.88404
   A20        1.92871   0.00041   0.00000   0.00608   0.00606   1.93478
   A21        1.92661   0.00049   0.00000   0.00746   0.00743   1.93404
   A22        1.92944   0.00043   0.00000   0.00635   0.00633   1.93577
   A23        1.92601   0.00052   0.00000   0.00771   0.00768   1.93369
   A24        1.86933  -0.00185   0.00000  -0.02716  -0.02713   1.84220
   A25        1.88449  -0.00009   0.00000  -0.00052  -0.00054   1.88396
   A26        1.92704   0.00052   0.00000   0.00722   0.00719   1.93422
   A27        1.92835   0.00047   0.00000   0.00671   0.00668   1.93503
   A28        1.92814   0.00049   0.00000   0.00702   0.00699   1.93512
   A29        1.92738   0.00050   0.00000   0.00694   0.00691   1.93430
   A30        1.86894  -0.00186   0.00000  -0.02709  -0.02706   1.84188
    D1        0.07160   0.00033   0.00000   0.01317   0.01317   0.08477
    D2       -2.03360  -0.00064   0.00000  -0.00113  -0.00114  -2.03473
    D3        2.18497   0.00102   0.00000   0.02318   0.02319   2.20816
    D4        2.18323   0.00113   0.00000   0.02478   0.02479   2.20803
    D5        0.07804   0.00016   0.00000   0.01049   0.01048   0.08852
    D6       -1.98658   0.00182   0.00000   0.03479   0.03481  -1.95177
    D7       -2.03586  -0.00058   0.00000  -0.00017  -0.00017  -2.03603
    D8        2.14213  -0.00155   0.00000  -0.01446  -0.01448   2.12765
    D9        0.07751   0.00011   0.00000   0.00985   0.00984   0.08735
   D10       -0.02374  -0.00010   0.00000  -0.00415  -0.00415  -0.02789
   D11       -2.13331  -0.00095   0.00000  -0.01674  -0.01676  -2.15007
   D12        2.08569   0.00074   0.00000   0.00806   0.00807   2.09376
   D13       -2.13508  -0.00087   0.00000  -0.01535  -0.01537  -2.15045
   D14        2.03854  -0.00172   0.00000  -0.02795  -0.02798   2.01056
   D15       -0.02565  -0.00003   0.00000  -0.00315  -0.00315  -0.02879
   D16        2.08384   0.00080   0.00000   0.00911   0.00912   2.09296
   D17       -0.02573  -0.00005   0.00000  -0.00349  -0.00349  -0.02922
   D18       -2.08991   0.00164   0.00000   0.02131   0.02134  -2.06857
   D19       -0.09210  -0.00043   0.00000  -0.01716  -0.01716  -0.10926
   D20        2.01286   0.00056   0.00000  -0.00251  -0.00250   2.01037
   D21       -2.20552  -0.00114   0.00000  -0.02723  -0.02724  -2.23275
   D22        2.01294   0.00056   0.00000  -0.00267  -0.00266   2.01027
   D23       -2.16529   0.00154   0.00000   0.01198   0.01200  -2.15329
   D24       -0.10048  -0.00016   0.00000  -0.01274  -0.01273  -0.11322
   D25       -2.20552  -0.00115   0.00000  -0.02744  -0.02745  -2.23297
   D26       -0.10056  -0.00016   0.00000  -0.01279  -0.01279  -0.11335
   D27        1.96424  -0.00186   0.00000  -0.03751  -0.03753   1.92672
   D28        0.07741   0.00037   0.00000   0.01461   0.01462   0.09203
   D29        2.18943   0.00115   0.00000   0.02595   0.02597   2.21540
   D30       -2.02914  -0.00057   0.00000   0.00083   0.00082  -2.02832
   D31       -2.02761  -0.00063   0.00000  -0.00006  -0.00006  -2.02768
   D32        0.08440   0.00016   0.00000   0.01129   0.01129   0.09569
   D33        2.14902  -0.00157   0.00000  -0.01384  -0.01386   2.13516
   D34        2.19090   0.00105   0.00000   0.02431   0.02432   2.21521
   D35       -1.98028   0.00183   0.00000   0.03565   0.03567  -1.94461
   D36        0.08435   0.00011   0.00000   0.01052   0.01052   0.09487
   D37       -0.03317  -0.00016   0.00000  -0.00646  -0.00646  -0.03963
   D38        2.07571   0.00071   0.00000   0.00627   0.00628   2.08199
   D39       -2.14321  -0.00098   0.00000  -0.01851  -0.01853  -2.16174
   D40       -2.14474  -0.00093   0.00000  -0.01764  -0.01765  -2.16238
   D41       -0.03586  -0.00006   0.00000  -0.00491  -0.00491  -0.04077
   D42        2.02841  -0.00175   0.00000  -0.02969  -0.02972   1.99870
   D43        2.07375   0.00076   0.00000   0.00717   0.00718   2.08093
   D44       -2.10056   0.00163   0.00000   0.01990   0.01992  -2.08063
   D45       -0.03629  -0.00006   0.00000  -0.00489  -0.00489  -0.04117
         Item               Value     Threshold  Converged?
 Maximum Force            0.018134     0.000450     NO 
 RMS     Force            0.006340     0.000300     NO 
 Maximum Displacement     0.075269     0.001800     NO 
 RMS     Displacement     0.026388     0.001200     NO 
 Predicted change in Energy=-6.351153D-03
 GradGradGradGradGradGradGradGradGradGradGradGradGradGradGradGradGradGrad

 Leave Link  103 at Sat Jun  6 00:33:38 2015, MaxMem= 3758096384 cpu:       1.3
 (Enter /share/apps/g09/l202.exe)
                          Input orientation:                          
 ---------------------------------------------------------------------
 Center     Atomic      Atomic             Coordinates (Angstroms)
 Number     Number       Type             X           Y           Z
 ---------------------------------------------------------------------
      1          6           0       -1.042212    0.743666    0.003997
      2          6           0        0.510163    0.743439   -0.004682
      3          6           0        0.987522    2.220220    0.006829
      4          6           0       -0.263914    3.127160   -0.138563
      5          6           0       -1.521131    2.216780   -0.104266
      6          1           0       -1.437118    0.141973   -0.823249
      7          1           0       -1.426934    0.275003    0.917951
      8          1           0        0.894532    0.216904   -0.886924
      9          1           0        0.906588    0.197499    0.859588
     10          1           0        1.527753    2.447770    0.934047
     11          1           0        1.702352    2.406464   -0.803385
     12          1           0       -0.299776    3.874330    0.663146
     13          1           0       -0.223503    3.700169   -1.072935
     14          1           0       -2.170322    2.478685    0.739890
     15          1           0       -2.133396    2.363522   -1.002138
 ---------------------------------------------------------------------
                    Distance matrix (angstroms):
                    1          2          3          4          5
     1  C    0.000000
     2  C    1.552399   0.000000
     3  C    2.509988   1.552059   0.000000
     4  C    2.511397   2.509830   1.552344   0.000000
     5  C    1.552787   2.511335   2.511114   1.552599   0.000000
     6  H    1.096504   2.196296   3.299549   3.279717   2.197457
     7  H    1.096800   2.196139   3.231657   3.256322   2.196428
     8  H    2.195949   1.096964   2.195612   3.220501   3.232256
     9  H    2.197307   1.096433   2.196622   3.308972   3.301564
    10  H    3.220820   2.195779   1.096978   2.195935   3.229108
    11  H    3.308987   2.196564   1.096410   2.197179   3.303875
    12  H    3.284317   3.302192   2.196353   1.096488   2.197294
    13  H    3.251303   3.228263   2.196069   1.096824   2.196042
    14  H    2.196465   3.278790   3.252101   2.196950   1.096650
    15  H    2.197025   3.256991   3.283090   2.196331   1.096620
                    6          7          8          9         10
     6  H    0.000000
     7  H    1.746305   0.000000
     8  H    2.333723   2.941114   0.000000
     9  H    2.885825   2.335538   1.746661   0.000000
    10  H    4.146715   3.667608   2.948502   2.335617   0.000000
    11  H    3.870993   4.159153   2.335321   2.877194   1.746672
    12  H    4.175333   3.780286   4.147993   3.874659   2.334163
    13  H    3.767753   4.140487   3.663022   4.156975   2.943361
    14  H    2.905377   2.332497   4.141920   3.832168   3.703297
    15  H    2.334970   2.923652   3.713434   4.171233   4.142453
                   11         12         13         14         15
    11  H    0.000000
    12  H    2.883377   0.000000
    13  H    2.335647   1.746462   0.000000
    14  H    4.169474   2.335092   2.927193   0.000000
    15  H    3.841134   2.901358   2.332237   1.746221   0.000000
 Stoichiometry    C5H10
 Framework group  C1[X(C5H10)]
 Deg. of freedom    39
 Full point group                 C1      NOp   1
 Largest Abelian subgroup         C1      NOp   1
 Largest concise Abelian subgroup C1      NOp   1
                         Standard orientation:                         
 ---------------------------------------------------------------------
 Center     Atomic      Atomic             Coordinates (Angstroms)
 Number     Number       Type             X           Y           Z
 ---------------------------------------------------------------------
      1          6           0       -0.344025    1.274389   -0.020563
      2          6           0        1.105212    0.720746    0.035417
      3          6           0        1.027495   -0.827683   -0.036781
      4          6           0       -0.469641   -1.233468    0.024002
      5          6           0       -1.318968    0.065964   -0.002154
      6          1           0       -0.537846    1.946491    0.823851
      7          1           0       -0.494366    1.882696   -0.920746
      8          1           0        1.609823    1.042792    0.954647
      9          1           0        1.709386    1.120830   -0.787427
     10          1           0        1.494431   -1.198648   -0.957497
     11          1           0        1.591127   -1.286232    0.784295
     12          1           0       -0.730867   -1.888716   -0.815460
     13          1           0       -0.678783   -1.817164    0.928758
     14          1           0       -1.978740    0.083989   -0.877949
     15          1           0       -1.984608    0.114276    0.867999
 ---------------------------------------------------------------------
 Rotational constants (GHZ):      6.3323603      6.3307065      3.5059416
 Leave Link  202 at Sat Jun  6 00:33:38 2015, MaxMem= 3758096384 cpu:       0.4
 (Enter /share/apps/g09/l301.exe)
 Standard basis: 6-31G(d) (6D, 7F)
 Ernie: Thresh=  0.10000D-02 Tol=  0.10000D-05 Strict=F.
 There are    95 symmetry adapted basis functions of A   symmetry.
 Integral buffers will be    131072 words long.
 Raffenetti 2 integral format.
 Two-electron integral symmetry is turned on.
    95 basis functions,   180 primitive gaussians,    95 cartesian basis functions
    20 alpha electrons       20 beta electrons
       nuclear repulsion energy       184.8736948510 Hartrees.
 IExCor=  402 DFT=T Ex+Corr=B3LYP ExCW=0 ScaHFX=  0.200000
 ScaDFX=  0.800000  0.720000  1.000000  0.810000 ScalE2=  1.000000  1.000000
 IRadAn=      0 IRanWt=     -1 IRanGd=            0 ICorTp=0
 NAtoms=   15 NActive=   15 NUniq=   15 SFac= 7.50D-01 NAtFMM=   80 NAOKFM=F Big=F
 Leave Link  301 at Sat Jun  6 00:33:38 2015, MaxMem= 3758096384 cpu:       0.6
 (Enter /share/apps/g09/l302.exe)
 NPDir=0 NMtPBC=     1 NCelOv=     1 NCel=       1 NClECP=     1 NCelD=      1
         NCelK=      1 NCelE2=     1 NClLst=     1 CellRange=     0.0.
 One-electron integrals computed using PRISM.
 NBasis=    95 RedAO= T  NBF=    95
 NBsUse=    95 1.00D-06 NBFU=    95
 Precomputing XC quadrature grid using
 IXCGrd= 2 IRadAn=           0 IRanWt=          -1 IRanGd=           0 AccXCQ= 1.00D-10.
 NRdTot=     925 NPtTot=      116800 NUsed=      123483 NTot=      123515
 NSgBfM=    95    95    95    95    95 NAtAll=    15    15.
 Leave Link  302 at Sat Jun  6 00:33:38 2015, MaxMem= 3758096384 cpu:       4.5
 (Enter /share/apps/g09/l303.exe)
 DipDrv:  MaxL=1.
 Leave Link  303 at Sat Jun  6 00:33:38 2015, MaxMem= 3758096384 cpu:       0.6
 (Enter /share/apps/g09/l401.exe)
 Initial guess read from the read-write file.
 B after Tr=     0.000000    0.000000    0.000000
         Rot=    1.000000    0.000000    0.000000    0.000000 Ang=   0.00 deg.
 Guess basis will be translated and rotated to current coordinates.
 Initial guess orbital symmetries:
 Alpha Orbitals:
       Occupied  (A) (A) (A) (A) (A) (A) (A) (A) (A) (A) (A) (A)
                 (A) (A) (A) (A) (A) (A) (A) (A)
       Virtual   (A) (A) (A) (A) (A) (A) (A) (A) (A) (A) (A) (A)
                 (A) (A) (A) (A) (A) (A) (A) (A) (A) (A) (A) (A)
                 (A) (A) (A) (A) (A) (A) (A) (A) (A) (A) (A) (A)
                 (A) (A) (A) (A) (A) (A) (A) (A) (A) (A) (A) (A)
                 (A) (A) (A) (A) (A) (A) (A) (A) (A) (A) (A) (A)
                 (A) (A) (A) (A) (A) (A) (A) (A) (A) (A) (A) (A)
                 (A) (A) (A)
 Beta  Orbitals:
       Occupied  (A) (A) (A) (A) (A) (A) (A) (A) (A) (A) (A) (A)
                 (A) (A) (A) (A) (A) (A) (A) (A)
       Virtual   (A) (A) (A) (A) (A) (A) (A) (A) (A) (A) (A) (A)
                 (A) (A) (A) (A) (A) (A) (A) (A) (A) (A) (A) (A)
                 (A) (A) (A) (A) (A) (A) (A) (A) (A) (A) (A) (A)
                 (A) (A) (A) (A) (A) (A) (A) (A) (A) (A) (A) (A)
                 (A) (A) (A) (A) (A) (A) (A) (A) (A) (A) (A) (A)
                 (A) (A) (A) (A) (A) (A) (A) (A) (A) (A) (A) (A)
                 (A) (A) (A)
 The electronic state of the initial guess is 1-A.
 Initial guess <Sx>= 0.0000 <Sy>= 0.0000 <Sz>= 0.0000 <S**2>= 0.0000 S= 0.0000
 Generating alternative initial guess.
 Harris functional with IExCor=  402 diagonalized for initial guess.
 ExpMin= 1.61D-01 ExpMax= 3.05D+03 ExpMxC= 4.57D+02 IAcc=1 IRadAn=         1 AccDes= 0.00D+00
 HarFok:  IExCor=  402 AccDes= 0.00D+00 IRadAn=         1 IDoV= 1
 ScaDFX=  1.000000  1.000000  1.000000  1.000000
 FoFCou: FMM=F IPFlag=           0 FMFlag=      100000 FMFlg1=           0
         NFxFlg=           0 DoJE=T BraDBF=F KetDBF=T FulRan=T
         Omega=  0.000000  0.000000  1.000000  0.000000  0.000000 ICntrl=     500 IOpCl=  0
         NMat0=    1 NMatS0=    1 NMatT0=    0 NMatD0=    1 NMtDS0=    0 NMtDT0=    0
         I1Cent=           4 NGrid=           0.
 Petite list used in FoFCou.
 Harris En= -196.613152493283    
 Leave Link  401 at Sat Jun  6 00:33:39 2015, MaxMem= 3758096384 cpu:       5.9
 (Enter /share/apps/g09/l502.exe)
 UHF open shell SCF:
 Requested convergence on RMS density matrix=1.00D-08 within 128 cycles.
 Requested convergence on MAX density matrix=1.00D-06.
 Requested convergence on             energy=1.00D-06.
 No special actions if energy rises.
 Using DIIS extrapolation, IDIIS=  1040.
 Integral symmetry usage will be decided dynamically.
       123335 words used for storage of precomputed grid.
 Keep R1 and R2 ints in memory in canonical form, NReq=21882614.
 IEnd=      170431 IEndB=      170431 NGot=  3758096384 MDV=  3737153526
 LenX=  3737153526 LenY=  3737144060
 Symmetry not used in FoFDir.
 MinBra= 0 MaxBra= 2 Meth= 1.
 IRaf=       0 NMat=   1 IRICut=       1 DoRegI=T DoRafI=F ISym2E= 0 JSym2E=0.
 Integral accuracy reduced to 1.0D-05 until final iterations.

 Cycle   1  Pass 0  IDiag  1:
 E= -191.355568852543    
 DIIS: error= 9.73D-02 at cycle   1 NSaved=   1.
 NSaved= 1 IEnMin= 1 EnMin= -191.355568852543     IErMin= 1 ErrMin= 9.73D-02
 ErrMax= 9.73D-02 EMaxC= 1.00D-01 BMatC= 4.92D+00 BMatP= 4.92D+00
 IDIUse=3 WtCom= 2.68D-02 WtEn= 9.73D-01
 Coeff-Com:  0.100D+01
 Coeff-En:   0.100D+01
 Coeff:      0.100D+01
 Recover alternate guess density for next cycle.
 RMSDP=3.52D-02 MaxDP=3.48D-01              OVMax= 0.00D+00

 Cycle   2  Pass 0  IDiag  1:
 E= -196.352731227163     Delta-E=       -4.997162374620 Rises=F Damp=F
 DIIS: error= 5.45D-02 at cycle   2 NSaved=   2.
 NSaved= 2 IEnMin= 2 EnMin= -196.352731227163     IErMin= 2 ErrMin= 5.45D-02
 ErrMax= 5.45D-02 EMaxC= 1.00D-01 BMatC= 6.89D-01 BMatP= 4.92D+00
 IDIUse=3 WtCom= 4.55D-01 WtEn= 5.45D-01
 Coeff-Com:  0.719D-01 0.928D+00
 Coeff-En:   0.000D+00 0.100D+01
 Coeff:      0.327D-01 0.967D+00
 Gap=     0.357 Goal=   None    Shift=    0.000
 Gap=     0.357 Goal=   None    Shift=    0.000
 RMSDP=1.10D-02 MaxDP=1.34D-01 DE=-5.00D+00 OVMax= 1.74D-01

 Cycle   3  Pass 0  IDiag  1:
 E= -196.260374773219     Delta-E=        0.092356453944 Rises=F Damp=F
 DIIS: error= 5.85D-02 at cycle   3 NSaved=   3.
 NSaved= 3 IEnMin= 2 EnMin= -196.352731227163     IErMin= 2 ErrMin= 5.45D-02
 ErrMax= 5.85D-02 EMaxC= 1.00D-01 BMatC= 1.08D+00 BMatP= 6.89D-01
 IDIUse=2 WtCom= 0.00D+00 WtEn= 1.00D+00
 Coeff-En:   0.000D+00 0.591D+00 0.409D+00
 Coeff:      0.000D+00 0.591D+00 0.409D+00
 Gap=     0.404 Goal=   None    Shift=    0.000
 Gap=     0.404 Goal=   None    Shift=    0.000
 RMSDP=6.19D-03 MaxDP=8.46D-02 DE= 9.24D-02 OVMax= 9.33D-02

 Cycle   4  Pass 0  IDiag  1:
 E= -196.548665741520     Delta-E=       -0.288290968300 Rises=F Damp=F
 DIIS: error= 4.14D-03 at cycle   4 NSaved=   4.
 NSaved= 4 IEnMin= 4 EnMin= -196.548665741520     IErMin= 4 ErrMin= 4.14D-03
 ErrMax= 4.14D-03 EMaxC= 1.00D-01 BMatC= 5.40D-03 BMatP= 6.89D-01
 IDIUse=3 WtCom= 9.59D-01 WtEn= 4.14D-02
 Coeff-Com: -0.137D-02 0.118D+00 0.532D-01 0.831D+00
 Coeff-En:   0.000D+00 0.000D+00 0.000D+00 0.100D+01
 Coeff:     -0.131D-02 0.113D+00 0.510D-01 0.838D+00
 Gap=     0.387 Goal=   None    Shift=    0.000
 Gap=     0.387 Goal=   None    Shift=    0.000
 RMSDP=4.73D-04 MaxDP=4.88D-03 DE=-2.88D-01 OVMax= 8.21D-03

 Cycle   5  Pass 0  IDiag  1:
 E= -196.549968437045     Delta-E=       -0.001302695526 Rises=F Damp=F
 DIIS: error= 7.72D-04 at cycle   5 NSaved=   5.
 NSaved= 5 IEnMin= 5 EnMin= -196.549968437045     IErMin= 5 ErrMin= 7.72D-04
 ErrMax= 7.72D-04 EMaxC= 1.00D-01 BMatC= 1.58D-04 BMatP= 5.40D-03
 IDIUse=3 WtCom= 9.92D-01 WtEn= 7.72D-03
 Coeff-Com:  0.214D-04 0.256D-02-0.775D-02 0.175D+00 0.830D+00
 Coeff-En:   0.000D+00 0.000D+00 0.000D+00 0.000D+00 0.100D+01
 Coeff:      0.213D-04 0.254D-02-0.769D-02 0.174D+00 0.831D+00
 Gap=     0.387 Goal=   None    Shift=    0.000
 Gap=     0.387 Goal=   None    Shift=    0.000
 RMSDP=7.54D-05 MaxDP=6.63D-04 DE=-1.30D-03 OVMax= 1.28D-03

 Cycle   6  Pass 0  IDiag  1:
 E= -196.550004969859     Delta-E=       -0.000036532814 Rises=F Damp=F
 DIIS: error= 3.60D-05 at cycle   6 NSaved=   6.
 NSaved= 6 IEnMin= 6 EnMin= -196.550004969859     IErMin= 6 ErrMin= 3.60D-05
 ErrMax= 3.60D-05 EMaxC= 1.00D-01 BMatC= 2.95D-07 BMatP= 1.58D-04
 IDIUse=1 WtCom= 1.00D+00 WtEn= 0.00D+00
 Coeff-Com:  0.211D-05-0.323D-04-0.399D-03-0.261D-02-0.248D-02 0.101D+01
 Coeff:      0.211D-05-0.323D-04-0.399D-03-0.261D-02-0.248D-02 0.101D+01
 Gap=     0.387 Goal=   None    Shift=    0.000
 Gap=     0.387 Goal=   None    Shift=    0.000
 RMSDP=4.24D-06 MaxDP=4.48D-05 DE=-3.65D-05 OVMax= 5.59D-05

 Initial convergence to 1.0D-05 achieved.  Increase integral accuracy.
 Cycle   7  Pass 1  IDiag  1:
 E= -196.550063198494     Delta-E=       -0.000058228635 Rises=F Damp=F
 DIIS: error= 2.71D-05 at cycle   1 NSaved=   1.
 NSaved= 1 IEnMin= 1 EnMin= -196.550063198494     IErMin= 1 ErrMin= 2.71D-05
 ErrMax= 2.71D-05 EMaxC= 1.00D-01 BMatC= 1.54D-07 BMatP= 1.54D-07
 IDIUse=1 WtCom= 1.00D+00 WtEn= 0.00D+00
 Coeff-Com:  0.100D+01
 Coeff:      0.100D+01
 Gap=     0.387 Goal=   None    Shift=    0.000
 Gap=     0.387 Goal=   None    Shift=    0.000
 RMSDP=4.24D-06 MaxDP=4.48D-05 DE=-5.82D-05 OVMax= 9.64D-05

 Cycle   8  Pass 1  IDiag  1:
 E= -196.550063251818     Delta-E=       -0.000000053323 Rises=F Damp=F
[...]
   A22        1.96702   0.00001   0.00000   0.00082   0.00098   1.96800
   A23        1.91945   0.00001   0.00000  -0.00007   0.00002   1.91947
   A24        1.86476  -0.00001   0.00000   0.00118   0.00110   1.86586
   A25        1.84984   0.00001   0.00000  -0.00015  -0.00070   1.84914
   A26        1.93199   0.00000   0.00000  -0.00301  -0.00286   1.92913
   A27        1.94740   0.00005   0.00000   0.00504   0.00519   1.95259
   A28        1.94104  -0.00002   0.00000  -0.00521  -0.00506   1.93598
   A29        1.93683  -0.00003   0.00000   0.00334   0.00350   1.94033
   A30        1.85835   0.00000   0.00000  -0.00006  -0.00014   1.85821
    D1        0.55908  -0.00006   0.00000  -0.03674  -0.03676   0.52232
    D2       -1.48362  -0.00002   0.00000  -0.03622  -0.03620  -1.51982
    D3        2.70687  -0.00002   0.00000  -0.03440  -0.03441   2.67246
    D4        2.70815  -0.00004   0.00000  -0.03809  -0.03815   2.67000
    D5        0.66545   0.00000   0.00000  -0.03757  -0.03759   0.62787
    D6       -1.42724   0.00000   0.00000  -0.03575  -0.03580  -1.46304
    D7       -1.50579  -0.00003   0.00000  -0.03998  -0.03997  -1.54576
    D8        2.73469   0.00001   0.00000  -0.03947  -0.03940   2.69529
    D9        0.64200   0.00001   0.00000  -0.03764  -0.03762   0.60438
   D10       -0.18267   0.00001   0.00000   0.05526   0.05525  -0.12742
   D11       -2.28935   0.00003   0.00000   0.06330   0.06334  -2.22601
   D12        1.92761   0.00000   0.00000   0.06210   0.06205   1.98966
   D13       -2.33069  -0.00001   0.00000   0.05812   0.05815  -2.27254
   D14        1.84581   0.00000   0.00000   0.06616   0.06624   1.91205
   D15       -0.22042  -0.00002   0.00000   0.06496   0.06495  -0.15547
   D16        1.87677  -0.00001   0.00000   0.06020   0.06015   1.93692
   D17       -0.22991   0.00001   0.00000   0.06824   0.06824  -0.16167
   D18       -2.29614  -0.00002   0.00000   0.06704   0.06695  -2.22918
   D19       -0.72282   0.00000   0.00000   0.00323   0.00333  -0.71949
   D20        1.32645   0.00002   0.00000   0.00198   0.00201   1.32845
   D21       -2.86302   0.00001   0.00000   0.00351   0.00357  -2.85945
   D22        1.32803  -0.00005   0.00000   0.00313   0.00316   1.33119
   D23       -2.90589  -0.00003   0.00000   0.00188   0.00184  -2.90405
   D24       -0.81217  -0.00004   0.00000   0.00341   0.00340  -0.80877
   D25       -2.86481  -0.00001   0.00000   0.00171   0.00178  -2.86303
   D26       -0.81554   0.00001   0.00000   0.00046   0.00046  -0.81508
   D27        1.27818   0.00000   0.00000   0.00199   0.00202   1.28020
   D28        0.60835   0.00000   0.00000   0.03132   0.03127   0.63962
   D29        2.75897   0.00000   0.00000   0.03158   0.03151   2.79048
   D30       -1.45161   0.00001   0.00000   0.03431   0.03431  -1.41730
   D31       -1.43505   0.00000   0.00000   0.03112   0.03113  -1.40391
   D32        0.71557   0.00000   0.00000   0.03138   0.03137   0.74694
   D33        2.78818   0.00000   0.00000   0.03411   0.03417   2.82235
   D34        2.75311   0.00000   0.00000   0.02984   0.02981   2.78292
   D35       -1.37946   0.00001   0.00000   0.03010   0.03005  -1.34941
   D36        0.69315   0.00001   0.00000   0.03282   0.03285   0.72599
   D37       -0.26196   0.00002   0.00000  -0.05314  -0.05314  -0.31510
   D38        1.83884   0.00001   0.00000  -0.05979  -0.05982   1.77902
   D39       -2.37906  -0.00002   0.00000  -0.06105  -0.06101  -2.44006
   D40       -2.41429   0.00001   0.00000  -0.05508  -0.05504  -2.46933
   D41       -0.31349   0.00001   0.00000  -0.06172  -0.06173  -0.37522
   D42        1.75180  -0.00003   0.00000  -0.06299  -0.06291   1.68889
   D43        1.79030   0.00001   0.00000  -0.05705  -0.05709   1.73321
   D44       -2.39209   0.00001   0.00000  -0.06369  -0.06377  -2.45586
   D45       -0.32680  -0.00003   0.00000  -0.06496  -0.06496  -0.39175
         Item               Value     Threshold  Converged?
 Maximum Force            0.000171     0.000450     YES
 RMS     Force            0.000036     0.000300     YES
 Maximum Displacement     0.093834     0.001800     NO 
 RMS     Displacement     0.029551     0.001200     NO 
 Predicted change in Energy=-7.363700D-06
 GradGradGradGradGradGradGradGradGradGradGradGradGradGradGradGradGradGrad

 Leave Link  103 at Sat Jun  6 00:37:14 2015, MaxMem= 3758096384 cpu:       0.2
 (Enter /share/apps/g09/l9999.exe)
 1\1\GINC-COMPUTE-0-7\Freq\UB3LYP\6-31G(d)\C5H10\HETANJIN\06-Jun-2015\0
 \\#P Geom=AllCheck Guess=TCheck SCRF=Check GenChk UB3LYP/6-31G(d) Freq
 \\using ub3lyp/6-31G(d) to scan\\0,1\C,-1.0045026094,0.7564947501,0.11
 88558141\C,0.5020884779,0.7882597825,-0.2109735336\C,0.9335219552,2.19
 92954072,0.218253919\C,-0.2285138773,3.0857141264,-0.2702720844\C,-1.5
 054311388,2.216239674,-0.091368305\H,-1.5526370858,0.0308234556,-0.491
 5948571\H,-1.1446333183,0.4588795416,1.1654377982\H,0.6562015938,0.670
 1110372,-1.2924232475\H,1.0649443596,-0.0097197615,0.2864734417\H,1.01
 1698947,2.2459545239,1.31346636\H,1.9043387887,2.5012521371,-0.1909351
 16\H,-0.2888964993,4.0404069634,0.2635005729\H,-0.0825196249,3.3235116
 195,-1.3316581425\H,-2.0954842051,2.5507661925,0.768994805\H,-2.159571
 3633,2.2955945504,-0.9664514247\\Version=EM64L-G09RevA.01\State=1-A\HF
 =-196.5570857\S2=0.\S2-1=0.\S2A=0.\RMSD=2.346e-09\RMSF=7.446e-05\ZeroP
 oint=0.1414371\Thermal=0.1466154\Dipole=-0.0023952,0.0003909,0.0000236
 \DipoleDeriv=0.0650439,0.0096069,0.0360379,0.0191088,0.0888709,0.02056
 99,-0.0033495,-0.0261169,0.1628531,0.079026,-0.0205784,0.022153,-0.011
 7085,0.0799702,-0.0507761,-0.0279445,0.0218502,0.1630065,0.0957521,0.0
 075773,-0.0560913,0.0059031,0.0647821,-0.0222445,0.0283079,0.0073684,0
 .1611488,0.0648848,0.0130869,-0.025417,-0.0022703,0.0959124,0.0456773,
 -0.0201913,-0.0231101,0.1599155,0.0843413,-0.0105917,0.0075691,-0.0125
 029,0.0597888,0.0213993,0.0011355,0.0231324,0.1549657,-0.0511915,-0.08
 80065,-0.0457291,-0.0754198,-0.0954701,-0.055818,-0.0622437,-0.0848252
 ,-0.0064391,0.0041722,0.0110376,0.0193996,0.0059943,-0.0139629,0.03916
 53,0.0501383,0.085881,-0.154972,-0.0047362,-0.0156592,0.0203663,-0.016
 146,0.0177486,-0.0105836,0.0521394,-0.0528977,-0.1777093,-0.0482268,0.
 0916392,-0.0326966,0.0955167,-0.1157929,0.0515556,-0.0516096,0.0721082
 ,0.0145952,0.0272718,0.0155391,-0.0020015,0.012988,-0.0055469,-0.00228
 27,-0.0516007,-0.0180121,-0.185709,-0.1733967,-0.0609825,0.0400161,-0.
 0620874,-0.0014945,0.0161058,0.0672827,0.0227255,0.0259628,0.0121162,0
 .0175171,0.0049984,0.0039416,-0.1723799,-0.0615124,0.0013352,-0.091475
 ,0.0079457,-0.0142213,-0.0184021,0.0210077,-0.0107838,0.0132012,0.0278
 187,0.0233646,0.0832712,-0.164498,-0.0593125,0.0304897,0.0733186,0.049
 5892,-0.0208642,-0.0342746,0.1182655,-0.0501452,-0.079145,-0.0815231,0
 .0177267,-0.0829312,-0.002123,0.0052372,0.0151999,-0.1250296,0.0302453
 ,-0.0819209\Polar=51.8443691,0.0102816,51.8766545,0.1046912,-0.2918934
 ,47.3478571\PG=C01 [X(C5H10)]\NImag=0\\0.45950352,0.08444943,0.5022156
 7,0.02283394,0.01747584,0.58810613,-0.16489008,-0.00142380,0.02382522,
 0.46198315,-0.00375524,-0.07182100,0.00050993,-0.08641629,0.52721224,0
 .02279090,0.00312778,-0.08880902,0.01101686,-0.03257501,0.58498430,-0.
 02452225,-0.02728397,-0.01032584,-0.07923304,-0.02352921,-0.00820717,0
 .57317532,-0.01730949,-0.00963252,-0.00198701,-0.02821600,-0.15981281,
 -0.02814856,0.05640066,0.42431816,0.00174152,0.00615176,0.00630757,-0.
 00739411,-0.02819653,-0.09290291,-0.03170291,-0.00722054,0.58005055,0.
 00679111,-0.00991381,-0.00135942,0.00046357,0.00982625,0.00118637,-0.1
 2733431,0.04482343,-0.02287130,0.39975807,-0.01659495,-0.02961650,0.00
 296713,0.01793884,-0.03611912,0.00942045,0.04203537,-0.10608237,0.0203
 8438,-0.00983923,0.57528019,0.00269864,0.00104388,0.00081697,0.0057093
 5,-0.00513407,0.00726019,-0.02484524,0.01951025,-0.09489078,-0.0234842
 9,0.03009784,0.58160402,-0.08031658,0.02812166,-0.00669454,-0.01922527
 ,0.02525622,-0.00476537,-0.03588537,-0.00452623,0.00124747,-0.13232050
 ,-0.04062366,0.01370084,0.53471356,0.02536711,-0.14605989,0.01388020,0
 .01739702,-0.00724414,0.00008707,0.00310864,0.00794467,-0.00311437,-0.
 03875225,-0.09752328,0.00551063,-0.04739684,0.40446493,-0.00236496,0.0
 0902383,-0.08273285,0.00105066,-0.00725049,0.00350477,-0.00976569,-0.0
 0588441,0.00417832,0.00786805,0.00525928,-0.08293318,0.01005784,0.0275
 7577,0.59462975,-0.11226494,-0.08614773,-0.07436520,-0.01337684,-0.021
 37980,-0.01834918,-0.00609269,0.00063097,0.00229865,-0.00134055,0.0016
 9849,0.00014319,0.00564280,0.00885120,0.00671259,0.12224676,-0.0860573
 2,-0.16098457,-0.09819129,0.00132336,0.00192525,0.00169553,0.00077160,
 -0.00096602,0.00048445,0.00091187,-0.00309511,-0.00050425,-0.01349261,
 -0.01630389,-0.01531475,0.09332769,0.17413949,-0.07585312,-0.09977366,
 -0.13664661,0.00524441,0.00671900,0.00449744,0.00134447,0.00077155,0.0
 0004279,0.00058256,0.00151600,-0.00012516,0.00373874,0.00510626,0.0029
 9323,0.08119148,0.10595472,0.14434027,-0.05206681,-0.01224712,0.028330
 49,-0.00567118,-0.00669883,0.03434608,0.00088642,0.00067962,0.00054236
 ,-0.00104973,0.00012329,-0.00059095,-0.00009660,0.00515998,-0.01123300
 ,0.00277581,0.00502589,-0.01685829,0.05879179,-0.01218576,-0.06662264,
 0.06395729,0.00138919,-0.00012812,-0.00140320,0.00021695,0.00009970,0.
 00049419,0.00127826,-0.00153612,-0.00010205,-0.00106253,-0.00978212,0.
 02825649,0.00343501,0.00663135,-0.02148591,0.00674202,0.07310342,0.028
 60496,0.06389234,-0.28677311,0.00130600,0.00041753,-0.00699224,-0.0004
 2644,0.00004893,-0.00007120,-0.00017872,0.00003673,0.00010709,-0.00011
 953,-0.00057295,-0.00219205,0.00225541,0.00462505,-0.01876956,-0.03389
 255,-0.06965160,0.30857311,-0.00582546,0.00115811,0.03365632,-0.053295
 73,0.00735479,0.03304587,0.00045480,-0.00217447,-0.01293997,0.00009835
 ,0.00037180,0.00023377,0.00029935,-0.00066424,-0.00020680,0.00214877,-
 0.00031606,-0.00034347,-0.00644374,0.00085679,0.00165164,0.05920146,-0
 .00179277,-0.00051690,0.00338254,0.00745255,-0.05373154,-0.02350707,0.
 00329440,-0.00386993,-0.03216221,-0.00045841,0.00129649,-0.00056385,-0
 .00008865,0.00007475,0.00026070,0.00020637,0.00037116,0.00034976,-0.00
 131842,0.00089448,0.00008584,-0.00255025,0.05649038,0.00092043,0.00036
 620,-0.00583856,0.03271137,-0.02344671,-0.29602971,0.00012994,-0.00125
 572,-0.01000528,0.00015444,0.00064398,0.00024037,0.00012067,-0.0000899
 9,-0.00002970,0.00028524,0.00030909,0.00129397,0.00141010,-0.00035093,
 0.00134928,-0.03698620,0.02838925,0.32119043,-0.01310113,0.02302730,-0
 .01403297,-0.11602359,0.09651883,-0.06225380,0.00689840,-0.00865772,0.
 00676278,-0.00181441,-0.00258506,-0.00072059,-0.00461119,-0.00059132,0
 .00139704,-0.00080052,-0.00034435,-0.00016327,0.00191514,-0.00011233,0
 .00030284,0.00260458,-0.00383557,0.00171947,0.12468433,-0.00278894,0.0
 0333065,-0.00194465,0.09651098,-0.18523586,0.08795875,0.01600250,-0.01
 739433,0.01415223,-0.00141330,-0.00485151,-0.00288509,-0.00145193,-0.0
 0092174,0.00009216,0.00025423,-0.00017900,-0.00018775,0.00045334,0.000
 50861,-0.00041177,-0.00244606,0.00329416,-0.00125631,-0.10645507,0.200
 61590,0.00442199,-0.00649252,0.00274333,-0.06357689,0.08992814,-0.1084
 7279,0.00616775,-0.00748922,0.00411486,0.00050361,-0.00175621,0.000065
 59,0.00164711,-0.00130496,0.00045617,-0.00014999,0.00016004,0.00001024
 ,-0.00018621,-0.00049979,0.00111036,-0.01693366,0.02419668,-0.01517512
 ,0.06688418,-0.09612679,0.11345317,0.00048766,-0.00000301,-0.00043213,
 -0.00053208,0.00055370,-0.00722239,-0.05478348,-0.00317275,-0.01436798
 ,-0.00116275,-0.00009807,-0.02525922,0.00075853,0.00022841,0.00034291,
 0.00010038,0.00004416,0.00022393,-0.00012082,-0.00044228,0.00011477,0.
 00032887,-0.00103993,-0.00060454,0.00032190,0.00020209,0.00046825,0.05
 392861,0.00094987,0.00081057,-0.00016089,-0.00117233,-0.00288621,-0.03
 407600,-0.00315491,-0.04712195,-0.00954960,0.00159305,-0.00150022,0.02
 274080,-0.00036411,-0.00007394,-0.00004549,0.00026316,-0.00002973,0.00
 031934,-0.00057515,-0.00001554,0.00043905,-0.00308101,-0.00582004,-0.0
 0206550,0.00089995,0.00170021,0.00041682,0.00014084,0.05523422,0.00015
 017,0.00042755,0.00022751,0.00037038,-0.00103964,-0.00949058,-0.014355
 82,-0.00971266,-0.30088875,-0.00017482,0.00072633,-0.00978816,-0.00003
 742,0.00000138,0.00005027,-0.00012476,-0.00013190,0.00031096,-0.000582
 08,-0.00028707,0.00036765,-0.00072370,-0.00188117,0.00115147,0.0002175
 1,-0.00036614,0.00098813,0.01808888,0.01139043,0.32729849,-0.00068778,
 -0.00006733,-0.00112340,-0.00411749,0.00001856,0.00195860,-0.25161983,
 -0.06323454,0.08914353,-0.01718951,-0.00782097,0.00860082,-0.00213258,
 0.00160981,-0.00172314,-0.00033299,-0.00021862,0.00021578,-0.00000244,
 -0.00006840,0.00020453,0.00033785,0.00006095,-0.00046481,-0.00004512,-
 0.00051932,-0.00010956,0.00288561,0.00097944,-0.00026716,0.27348253,-0
 .00112146,-0.00568739,-0.00269938,-0.02684308,-0.00520959,0.01293895,-
 0.06308916,-0.06775278,0.02727935,0.01813849,0.00702150,-0.00835887,0.
 00242542,-0.00316279,0.00146781,-0.00193704,0.00016183,0.00037261,0.00
 013354,0.00001724,0.00011730,0.00082526,0.00174083,-0.00012016,0.00038
 094,-0.00020186,0.00034712,0.00169826,0.00035644,-0.00040037,0.0696309
 4,0.07108909,-0.00154043,-0.00097136,0.00001609,-0.00927985,-0.0021519
 6,0.00290866,0.09136478,0.02806555,-0.09041782,-0.01005969,-0.00375017
 ,0.00328684,-0.00239130,0.00016783,0.00007185,-0.00042910,-0.00018566,
 0.00027913,-0.00043439,-0.00022633,0.00025340,-0.00024711,0.00057747,0
 .00090717,0.00027363,0.00017662,0.00000397,0.02970376,0.00931023,-0.01
 255795,-0.09625623,-0.03022715,0.09409262,-0.00350503,-0.00181822,-0.0
 0042950,-0.00479234,0.00224333,-0.00223408,0.00053826,0.02178805,0.014
 08179,-0.04833957,0.01326700,0.00763276,0.00182976,-0.02276900,-0.0126
 8462,0.00051013,-0.00094716,0.00020258,0.00013683,-0.00044063,0.000099
 20,-0.00009644,-0.00026917,-0.00002583,0.00085385,0.00145307,0.0002641
 6,0.00146988,-0.00115155,0.00002723,-0.00043857,-0.00007926,0.00021278
 ,0.05200247,-0.00089897,-0.00118029,-0.00024539,0.00189672,-0.00190317
 ,0.00205065,-0.00062526,-0.01272351,-0.00815936,0.01294372,-0.24475291
 ,-0.11361025,0.00219927,-0.01125604,-0.00708564,0.00005610,-0.00064480
 ,0.00019693,-0.00002697,-0.00037684,0.00016635,0.00001965,0.00017325,-
 0.00018160,-0.00023635,-0.00101472,-0.00038937,-0.00056472,0.00090684,
 0.00039942,0.00058886,-0.00034106,0.00009255,-0.01434681,0.26541202,0.
 00027031,0.00167643,-0.00006944,-0.00110009,0.00172954,-0.00038867,-0.
 00031484,0.01140635,0.00554893,0.00787908,-0.11585967,-0.11684075,-0.0
 0020881,0.00567238,0.00196186,-0.00002164,0.00027516,-0.00005134,0.000
 00138,0.00015821,-0.00004980,-0.00005226,0.00038958,0.00033791,0.00009
 108,0.00062497,0.00034493,0.00060021,-0.00007388,0.00120950,-0.0000067
 1,-0.00027235,0.00002555,-0.00908224,0.12301712,0.12285559,-0.00149045
 ,0.00024800,0.00028457,0.00027517,-0.00085874,-0.00010891,0.00122222,0
 .00545377,-0.02850566,-0.04949314,-0.00600942,0.03420817,-0.00765911,-
 0.00587839,0.02643582,0.00012773,-0.00033411,0.00010479,0.00011786,-0.
 00017754,-0.00000756,0.00040276,0.00023836,0.00032556,-0.00006926,-0.0
 0016467,0.00018546,-0.00344079,0.00448402,-0.00200557,0.00129274,-0.00
 105039,-0.00000665,-0.00018893,-0.00041629,0.00229716,0.06110300,-0.00
 075908,-0.00046228,-0.00046131,-0.00025098,0.00087092,0.00069745,-0.00
 208460,-0.00331007,0.01874999,-0.00625048,-0.06380859,0.04992549,-0.00
 329003,-0.00292465,0.01621452,-0.00000908,-0.00033059,0.00012555,0.000
 10602,0.00000800,-0.00005999,0.00031257,-0.00052000,-0.00056372,0.0001
 1860,0.00009418,-0.00041038,0.00239925,-0.00175533,0.00098902,-0.00040
 891,0.00102574,-0.00058799,0.00365812,0.00735452,-0.02900229,0.0077743
 7,0.06383877,0.00009503,0.00003470,0.00005921,0.00046975,-0.00045036,0
 .00000675,0.00000713,0.00147397,-0.01120734,0.03396390,0.04984739,-0.2
 9137366,-0.00015832,-0.00076306,-0.00157200,0.00004437,0.00019151,-0.0
 0003989,-0.00004456,-0.00001375,-0.00000043,0.00013882,0.00052636,0.00
 049717,-0.00015229,0.00018952,0.00031751,-0.00191525,0.00160157,0.0009
 5647,-0.00044600,-0.00025577,0.00105289,0.00208211,0.00297074,-0.01648
 761,-0.03433628,-0.05610751,0.31464930,-0.00407384,0.00279134,0.006644
 46,-0.00111949,0.00100686,-0.00090277,-0.00052279,-0.00010269,0.000624
 01,-0.01177691,0.00669643,0.02151917,-0.12270396,0.04199107,0.10821539
 ,-0.00054747,0.00048323,-0.00005939,0.00103325,-0.00003088,-0.00021187
 ,0.00007279,-0.00005875,0.00005354,-0.00053996,0.00014332,0.00018280,-
 0.00035504,0.00019992,-0.00043103,-0.00042800,0.00014402,-0.00047818,0
 .00175521,0.00017225,-0.00030101,-0.00355618,-0.00172814,0.00009722,0.
 13069642,0.01656377,-0.01041370,-0.02275711,-0.00007404,-0.00444318,0.
 00098110,-0.00057979,-0.00070278,0.00025180,-0.01083012,0.00371557,0.0
 1722235,0.04245796,-0.06927086,-0.06478678,0.00126443,-0.00253277,0.00
 003786,-0.00016980,0.00167144,-0.00002049,-0.00001859,0.00003544,-0.00
 015718,0.00121400,0.00017264,-0.00021351,0.00002221,0.00022395,-0.0000
 4479,-0.00009101,0.00028280,-0.00016095,0.00058233,0.00122278,0.000333
 39,-0.00387400,-0.00140842,0.00077596,-0.04507131,0.08039336,-0.004895
 37,0.00372366,0.00463642,-0.00059759,0.00092450,0.00027234,-0.00007569
 ,0.00007060,-0.00027661,0.00026073,0.00048096,-0.00195153,0.10900369,-
 0.06489090,-0.21618650,0.00021525,0.00027616,0.00042916,-0.00031223,0.
 00018842,0.00212601,-0.00026396,0.00003634,0.00007901,-0.00017546,-0.0
 0000268,0.00002068,-0.00000023,-0.00011875,0.00003586,0.00012667,-0.00
 008901,0.00002633,0.00001238,0.00050271,0.00131588,0.00088190,0.000529
 59,0.00110750,-0.11880827,0.06707098,0.23088435,-0.00403793,-0.0008908
 3,-0.00681198,-0.00044477,-0.00014041,-0.00030103,-0.00318165,-0.00238
 259,0.00133982,-0.01528971,0.00144016,-0.01954644,-0.13829283,0.012338
 80,-0.12410208,0.00120362,-0.00017756,0.00042880,-0.00020580,0.0006021
 3,0.00029733,-0.00028823,0.00015930,0.00025063,-0.00027301,0.00021977,
 0.00023100,0.00011353,-0.00001120,-0.00015181,-0.00100441,0.00074351,-
 0.00043202,-0.00173550,-0.00076119,-0.00005162,0.00135638,0.00041239,0
 .00015439,0.01206598,-0.00139605,0.01462820,0.15001433,0.01593380,-0.0
 0335920,0.02627410,0.00048787,-0.00147365,0.00075210,-0.00148322,-0.00
 299346,0.00045447,-0.01205745,0.00157196,-0.01489281,0.01183607,-0.047
 96100,0.01221700,-0.00051399,0.00183739,-0.00002224,0.00261259,-0.0044
 7285,0.00088766,0.00035171,0.00008749,-0.00022068,0.00065816,0.0000826
 9,-0.00036604,0.00003187,-0.00002927,-0.00007038,-0.00045946,0.0006600
 0,-0.00012868,-0.00117009,-0.00087607,-0.00007494,0.00056502,0.0013278
 0,-0.00002128,-0.00663664,0.00105372,-0.00870256,-0.01015623,0.0545444
 5,0.00012597,0.00029357,-0.00204364,0.00024454,0.00001612,-0.00034852,
 0.00100557,0.00035092,0.00041767,0.00572951,-0.00001441,0.00452214,-0.
 12514107,0.01273470,-0.22219995,0.00029369,0.00035615,0.00143538,-0.00
 049614,0.00096604,0.00096146,-0.00002927,-0.00008023,0.00003158,-0.000
 15015,-0.00001305,0.00001897,0.00025903,-0.00012812,0.00012914,0.00014
 710,-0.00010007,0.00005126,-0.00015871,0.00027514,0.00028745,0.0002472
 2,-0.00003842,0.00203413,-0.01614408,0.00146739,-0.02251888,0.13406680
 ,-0.01608571,0.23722181\\0.00002763,0.00013329,0.00005183,-0.00030205,
 0.00001672,-0.00012259,0.00021265,-0.00006147,0.00009366,-0.00016432,-
 0.00001961,-0.00009054,0.00007059,0.00001016,-0.00001156,0.00001241,-0
 .00000556,-0.00001316,-0.00000351,0.00002189,0.00001179,0.00006804,-0.
 00003387,-0.00000459,0.00002280,-0.00001912,0.00003057,0.00003864,0.00
 001573,0.00005697,0.00004267,0.00000232,-0.00000052,0.00000766,0.00001
 597,0.00001913,0.00001131,-0.00000719,-0.00000954,-0.00003097,-0.00000
 472,0.00002089,-0.00001354,-0.00006453,-0.00003233\\\@


 THE CAUTIOUS SELDOM ERR...CONFUCIUS                   
 Job cpu time:  0 days  0 hours  8 minutes 25.0 seconds.
 File lengths (MBytes):  RWF=     37 Int=      0 D2E=      0 Chk=      3 Scr=      1
 Normal termination of Gaussian 09 at Sat Jun  6 00:37:14 2015.
