Title Card Required                                                     
SP        RM062X                                                      def2TZVP            
Number of atoms                            I                2
Info1-9                                    I   N=           9
          16          11           0           0           0         110
           1          18        -502
Charge                                     I                0
Multiplicity                               I                1
Number of electrons                        I                2
Number of alpha electrons                  I                1
Number of beta electrons                   I                1
Number of basis functions                  I               12
Number of independent functions            I               12
Number of point charges in /Mol/           I                0
Number of translation vectors              I                0
Atomic numbers                             I   N=           2
           1           1
Nuclear charges                            R   N=           2
  1.00000000E+00  1.00000000E+00
Current cartesian coordinates              R   N=           6
  0.00000000E+00  0.00000000E+00  7.01832947E-01  8.59497473E-17  0.00000000E+00
 -7.01832947E-01
Force Field                                I                0
Int Atom Types                             I   N=           2
           0           0
MM charges                                 R   N=           2
  0.00000000E+00  0.00000000E+00
Integer atomic weights                     I   N=           2
           1           1
Real atomic weights                        R   N=           2
  1.00782504E+00  1.00782504E+00
Atom fragment info                         I   N=           2
           0           0
Atom residue num                           I   N=           2
           0           0
Nuclear spins                              I   N=           2
           1           1
Nuclear ZEff                               R   N=           2
 -1.00000000E+00 -1.00000000E+00
Nuclear ZNuc                               R   N=           2
  1.00000000E+00  1.00000000E+00
Nuclear QMom                               R   N=           2
  0.00000000E+00  0.00000000E+00
Nuclear GFac                               R   N=           2
  2.79284600E+00  2.79284600E+00
MicOpt                                     I   N=           2
          -1          -1
Number of contracted shells                I                8
Number of primitive shells                 I               12
Pure/Cartesian d shells                    I                0
Pure/Cartesian f shells                    I                0
Highest angular momentum                   I                1
Largest degree of contraction              I                3
Shell types                                I   N=           8
           0           0           0           1           0           0
           0           1
Number of primitives per shell             I   N=           8
           3           1           1           1           3           1
           1           1
Shell to atom map                          I   N=           8
           1           1           1           1           2           2
           2           2
Primitive exponents                        R   N=          12
  3.40613410E+01  5.12357460E+00  1.16466260E+00  3.27230410E-01  1.03072410E-01
  8.00000000E-01  3.40613410E+01  5.12357460E+00  1.16466260E+00  3.27230410E-01
  1.03072410E-01  8.00000000E-01
Contraction coefficients                   R   N=          12
  2.54393072E-02  1.90085949E-01  8.52441130E-01  1.00000000E+00  1.00000000E+00
  1.00000000E+00  2.54393072E-02  1.90085949E-01  8.52441130E-01  1.00000000E+00
  1.00000000E+00  1.00000000E+00
Coordinates of each shell                  R   N=          24
  0.00000000E+00  0.00000000E+00  7.01832947E-01  0.00000000E+00  0.00000000E+00
  7.01832947E-01  0.00000000E+00  0.00000000E+00  7.01832947E-01  0.00000000E+00
  0.00000000E+00  7.01832947E-01  8.59497473E-17  0.00000000E+00 -7.01832947E-01
  8.59497473E-17  0.00000000E+00 -7.01832947E-01  8.59497473E-17  0.00000000E+00
 -7.01832947E-01  8.59497473E-17  0.00000000E+00 -7.01832947E-01
Constraint Structure                       R   N=           6
  0.00000000E+00  0.00000000E+00  7.01832947E-01  8.59497473E-17  0.00000000E+00
 -7.01832947E-01
Num ILSW                                   I              100
ILSW                                       I   N=         100
           0           0           0           0           2           0
           0           0           0           0        4336          -1
           0           0           0           0           0           0
           0           0           1           0           0           0
           1           0           0           0           0           0
           0           0      100000           0          -1           0
           0           0           0           0           0           0
           0           0           0           1           0           0
           0           0           1           0           0           0
           0           0           4          41           0           0
           0           0          55           0           0           0
           0           0           0           0           0           0
           0           0           0           0           0           0
           0           0           0           0           0           0
           0           0           0           0           0           0
           0           0           0           0           0           0
           0           0           0           0
Num RLSW                                   I               41
RLSW                                       R   N=          41
  1.00000000E+00  1.00000000E+00  1.00000000E+00  1.00000000E+00  5.40000000E-01
  0.00000000E+00  0.00000000E+00  1.00000000E+00  0.00000000E+00  0.00000000E+00
  0.00000000E+00  0.00000000E+00  1.00000000E+00  0.00000000E+00  0.00000000E+00
  0.00000000E+00  0.00000000E+00  1.00000000E+00  0.00000000E+00  0.00000000E+00
  0.00000000E+00  0.00000000E+00  1.00000000E+00  0.00000000E+00  0.00000000E+00
  0.00000000E+00  0.00000000E+00  1.00000000E+00  0.00000000E+00  0.00000000E+00
  0.00000000E+00  0.00000000E+00  1.00000000E+00  0.00000000E+00  0.00000000E+00
  0.00000000E+00  0.00000000E+00  0.00000000E+00  1.00000000E+00  1.00000000E+00
  0.00000000E+00
ECP-MxAtEC                                 I           250000
ECP-MaxLECP                                I               10
ECP-MaxAtL                                 I          2250000
ECP-MxTECP                                 I         11250000
ECP-LenNCZ                                 I                0
ECP-KFirst                                 I   N=          20
           0           0           0           0           0           0
           0           0           0           0           0           0
           0           0           0           0           0           0
           0           0
ECP-KLast                                  I   N=          20
           0           0           0           0           0           0
           0           0           0           0           0           0
           0           0           0           0           0           0
           0           0
ECP-LMax                                   I   N=           2
           0           0
ECP-LPSkip                                 I   N=           2
           1           1
ECP-RNFroz                                 R   N=           2
  0.00000000E+00  0.00000000E+00
ECP-NLP                                    I                0
ECP-CLP1                                   R      0.000000000000000E+00
ECP-CLP2                                   R      0.000000000000000E+00
ECP-ZLP                                    R      0.000000000000000E+00
MxBond                                     I                1
NBond                                      I   N=           2
           1           1
IBond                                      I   N=           2
           2           1
RBond                                      R   N=           2
  1.00000000E+00  1.00000000E+00
Virial Ratio                               R      2.025833367697333E+00
SCF Energy                                 R     -1.168350088443901E+00
Total Energy                               R     -1.168350088443901E+00
RMS Density                                R      7.790722912479673E-10
External E-field                           R   N=          35
  0.00000000E+00  0.00000000E+00  0.00000000E+00  0.00000000E+00  0.00000000E+00
  0.00000000E+00  0.00000000E+00  0.00000000E+00  0.00000000E+00  0.00000000E+00
  0.00000000E+00  0.00000000E+00  0.00000000E+00  0.00000000E+00  0.00000000E+00
  0.00000000E+00  0.00000000E+00  0.00000000E+00  0.00000000E+00  0.00000000E+00
  0.00000000E+00  0.00000000E+00  0.00000000E+00  0.00000000E+00  0.00000000E+00
  0.00000000E+00  0.00000000E+00  0.00000000E+00  0.00000000E+00  0.00000000E+00
  0.00000000E+00  0.00000000E+00  0.00000000E+00  0.00000000E+00  0.00000000E+00
IOpCl                                      I                0
IROHF                                      I                0
Alpha Orbital Energies                     R   N=          12
 -4.95696362E-01  1.06986990E-01  2.42600676E-01  5.63801048E-01  1.33990314E+00
  1.33990314E+00  1.66027179E+00  1.97876192E+00  1.97876192E+00  2.12612353E+00
  2.53456669E+00  3.90048361E+00
Alpha MO coefficients                      R   N=         144
  1.92909421E-01  2.80166219E-01  1.37757586E-01  0.00000000E+00  0.00000000E+00
 -2.02666676E-02  1.92909421E-01  2.80166219E-01  1.37757586E-01  0.00000000E+00
  0.00000000E+00  2.02666676E-02  5.53702755E-02 -1.13303764E-01  2.25704926E+00
  0.00000000E+00  0.00000000E+00  8.22992023E-02 -5.53702755E-02  1.13303764E-01
 -2.25704926E+00  0.00000000E+00  0.00000000E+00  8.22992023E-02 -6.94651471E-02
 -6.86972077E-01  8.35717109E-01  0.00000000E+00  0.00000000E+00  8.46973570E-03
 -6.94651471E-02 -6.86972077E-01  8.35717109E-01  0.00000000E+00  0.00000000E+00
 -8.46973570E-03 -5.19488384E-02 -1.95473993E+00  2.33921649E+00  0.00000000E+00
  0.00000000E+00  9.52396287E-02  5.19488384E-02  1.95473993E+00 -2.33921649E+00
  0.00000000E+00  0.00000000E+00  9.52396287E-02  0.00000000E+00  0.00000000E+00
  0.00000000E+00  0.00000000E+00  5.86270253E-01  0.00000000E+00  0.00000000E+00
  0.00000000E+00  0.00000000E+00  0.00000000E+00  5.86270253E-01  0.00000000E+00
  0.00000000E+00  0.00000000E+00  0.00000000E+00  5.86270253E-01  0.00000000E+00
  0.00000000E+00  0.00000000E+00  0.00000000E+00  0.00000000E+00  5.86270253E-01
  0.00000000E+00  0.00000000E+00 -3.98546698E-01  7.92571734E-01 -3.87339246E-01
  0.00000000E+00  0.00000000E+00  5.54824324E-01 -3.98546698E-01  7.92571734E-01
 -3.87339246E-01  0.00000000E+00  0.00000000E+00 -5.54824324E-01  0.00000000E+00
  0.00000000E+00  0.00000000E+00  9.57565264E-01  0.00000000E+00  0.00000000E+00
  0.00000000E+00  0.00000000E+00  0.00000000E+00 -9.57565264E-01  0.00000000E+00
  0.00000000E+00  0.00000000E+00  0.00000000E+00  0.00000000E+00  0.00000000E+00
  9.57565264E-01  0.00000000E+00  0.00000000E+00  0.00000000E+00  0.00000000E+00
  0.00000000E+00 -9.57565264E-01  0.00000000E+00 -5.15650881E-01  3.29545412E+00
 -1.54507724E+00  0.00000000E+00  0.00000000E+00 -1.42746647E+00  5.15650881E-01
 -3.29545412E+00  1.54507724E+00  0.00000000E+00  0.00000000E+00 -1.42746647E+00
  1.06207871E+00 -9.49116027E-01  3.34982006E-01  0.00000000E+00  0.00000000E+00
  4.34706139E-01  1.06207871E+00 -9.49116027E-01  3.34982006E-01  0.00000000E+00
  0.00000000E+00 -4.34706139E-01 -1.13939357E+00 -1.25661813E+00  1.37303805E-01
  0.00000000E+00  0.00000000E+00  1.67885435E+00  1.13939357E+00  1.25661813E+00
 -1.37303805E-01  0.00000000E+00  0.00000000E+00  1.67885435E+00
Total SCF Density                          R   N=          78
  7.44280896E-02  1.08093406E-01  1.56986220E-01  5.31494724E-02  7.71900440E-02
  3.79543050E-02 -1.19697931E-19 -1.73839704E-19 -8.54768930E-20  1.54002014E-36
 -1.19697931E-19 -1.73839704E-19 -8.54768930E-20  9.42990365E-53  1.54002014E-36
 -7.81926222E-03 -1.13560712E-02 -5.58377440E-03  1.25752187E-20  1.25752187E-20
  8.21475628E-04  7.44280896E-02  1.08093406E-01  5.31494724E-02 -1.19697931E-19
 -1.19697931E-19 -7.81926222E-03  7.44280896E-02  1.08093406E-01  1.56986220E-01
  7.71900440E-02 -1.73839704E-19 -1.73839704E-19 -1.13560712E-02  1.08093406E-01
  1.56986220E-01  5.31494724E-02  7.71900440E-02  3.79543050E-02 -8.54768930E-20
 -8.54768930E-20 -5.58377440E-03  5.31494724E-02  7.71900440E-02  3.79543050E-02
  1.19697931E-19  1.73839704E-19  8.54768930E-20 -1.54002014E-36 -9.42990365E-53
 -1.25752187E-20  1.19697931E-19  1.73839704E-19  8.54768930E-20  1.54002014E-36
  1.19697931E-19  1.73839704E-19  8.54768930E-20 -9.42990365E-53 -1.54002014E-36
 -1.25752187E-20  1.19697931E-19  1.73839704E-19  8.54768930E-20  9.42990365E-53
  1.54002014E-36  7.81926222E-03  1.13560712E-02  5.58377440E-03 -1.25752187E-20
 -1.25752187E-20 -8.21475628E-04  7.81926222E-03  1.13560712E-02  5.58377440E-03
  1.25752187E-20  1.25752187E-20  8.21475628E-04
Mulliken Charges                           R   N=           2
 -1.11022302E-15 -1.11022302E-15
ONIOM Charges                              I   N=          16
           0           0           0           0           0           0
           0           0           0           0           0           0
           0           0           0           0
ONIOM Multiplicities                       I   N=          16
           1           0           0           0           0           0
           0           0           0           0           0           0
           0           0           0           0
Atom Layers                                I   N=           2
           1           1
Atom Modifiers                             I   N=           2
           0           0
Force Field                                I                0
Int Atom Modified Types                    I   N=           2
           0           0
Link Atoms                                 I   N=           2
           0           0
Atom Modified MM Charges                   R   N=           2
  0.00000000E+00  0.00000000E+00
Link Distances                             R   N=           8
  0.00000000E+00  0.00000000E+00  0.00000000E+00  0.00000000E+00  0.00000000E+00
  0.00000000E+00  0.00000000E+00  0.00000000E+00
Cartesian Gradient                         R   N=           6
  0.00000000E+00  0.00000000E+00  0.00000000E+00  0.00000000E+00  0.00000000E+00
  0.00000000E+00
Dipole Moment                              R   N=           3
 -9.86076132E-32  1.20370622E-35 -2.80730496E-18
Quadrupole Moment                          R   N=           6
 -1.39656101E-01 -1.39656101E-01  2.79312202E-01 -4.55743190E-35 -2.19758417E-17
  7.35713572E-19
QEq coupling tensors                       R   N=          12
  1.74026750E-01  0.00000000E+00  1.74026750E-01  3.29414860E-17  0.00000000E+00
 -3.48053501E-01  1.74026750E-01  0.00000000E+00  1.74026750E-01  1.98133790E-17
  0.00000000E+00 -3.48053501E-01
