 Entering Gaussian System, Link 0=/home/hetanjin/apps/g09D01/g09/g09
 Input=C3H7OOH_1_3_opt_M06.gjf
 Output=C3H7OOH_1_3_opt_M06.log
 Initial command:
 /home/hetanjin/apps/g09D01/g09/l1.exe "/state/partition1/Gau-21729.inp" -scrdir="/state/partition1/"
 Entering Link 1 = /home/hetanjin/apps/g09D01/g09/l1.exe PID=     21730.
  
 Copyright (c) 1988,1990,1992,1993,1995,1998,2003,2009,2013,
            Gaussian, Inc.  All Rights Reserved.
  
 This is part of the Gaussian(R) 09 program.  It is based on
 the Gaussian(R) 03 system (copyright 2003, Gaussian, Inc.),
 the Gaussian(R) 98 system (copyright 1998, Gaussian, Inc.),
 the Gaussian(R) 94 system (copyright 1995, Gaussian, Inc.),
 the Gaussian 92(TM) system (copyright 1992, Gaussian, Inc.),
 the Gaussian 90(TM) system (copyright 1990, Gaussian, Inc.),
 the Gaussian 88(TM) system (copyright 1988, Gaussian, Inc.),
 the Gaussian 86(TM) system (copyright 1986, Carnegie Mellon
 University), and the Gaussian 82(TM) system (copyright 1983,
 Carnegie Mellon University). Gaussian is a federally registered
 trademark of Gaussian, Inc.
  
 This software contains proprietary and confidential information,
 including trade secrets, belonging to Gaussian, Inc.
  
 This software is provided under written license and may be
 used, copied, transmitted, or stored only in accord with that
 written license.
  
 The following legend is applicable only to US Government
 contracts under FAR:
  
                    RESTRICTED RIGHTS LEGEND
  
 Use, reproduction and disclosure by the US Government is
 subject to restrictions as set forth in subparagraphs (a)
 and (c) of the Commercial Computer Software - Restricted
 Rights clause in FAR 52.227-19.
  
 Gaussian, Inc.
 340 Quinnipiac St., Bldg. 40, Wallingford CT 06492
  
  
 ---------------------------------------------------------------
 Warning -- This program may not be used in any manner that
 competes with the business of Gaussian, Inc. or will provide
 assistance to any competitor of Gaussian, Inc.  The licensee
 of this program is prohibited from giving any competitor of
 Gaussian, Inc. access to this program.  By using this program,
 the user acknowledges that Gaussian, Inc. is engaged in the
 business of creating and licensing software in the field of
 computational chemistry and represents and warrants to the
 licensee that it is not a competitor of Gaussian, Inc. and that
 it will not use this program in any manner prohibited above.
 ---------------------------------------------------------------
  

 Cite this work as:
 Gaussian 09, Revision D.01,
 M. J. Frisch, G. W. Trucks, H. B. Schlegel, G. E. Scuseria, 
 M. A. Robb, J. R. Cheeseman, G. Scalmani, V. Barone, B. Mennucci, 
 G. A. Petersson, H. Nakatsuji, M. Caricato, X. Li, H. P. Hratchian, 
 A. F. Izmaylov, J. Bloino, G. Zheng, J. L. Sonnenberg, M. Hada, 
 M. Ehara, K. Toyota, R. Fukuda, J. Hasegawa, M. Ishida, T. Nakajima, 
 Y. Honda, O. Kitao, H. Nakai, T. Vreven, J. A. Montgomery, Jr., 
 J. E. Peralta, F. Ogliaro, M. Bearpark, J. J. Heyd, E. Brothers, 
 K. N. Kudin, V. N. Staroverov, T. Keith, R. Kobayashi, J. Normand, 
 K. Raghavachari, A. Rendell, J. C. Burant, S. S. Iyengar, J. Tomasi, 
 M. Cossi, N. Rega, J. M. Millam, M. Klene, J. E. Knox, J. B. Cross, 
 V. Bakken, C. Adamo, J. Jaramillo, R. Gomperts, R. E. Stratmann, 
 O. Yazyev, A. J. Austin, R. Cammi, C. Pomelli, J. W. Ochterski, 
 R. L. Martin, K. Morokuma, V. G. Zakrzewski, G. A. Voth, 
 P. Salvador, J. J. Dannenberg, S. Dapprich, A. D. Daniels, 
 O. Farkas, J. B. Foresman, J. V. Ortiz, J. Cioslowski, 
 and D. J. Fox, Gaussian, Inc., Wallingford CT, 2013.
 
 ******************************************
 Gaussian 09:  ES64L-G09RevD.01 24-Apr-2013
                 6-Oct-2015 
 ******************************************
 %mem=28GB
 %nprocshared=12
 Will use up to   12 processors via shared memory.
 %chk=C3H7OOH_1_3_opt_M06.chk
 -----------------
 #p M062X/def2TZVP
 -----------------
 1/38=1/1;
 2/12=2,17=6,18=5,40=1/2;
 3/5=44,7=101,11=2,16=1,25=1,30=1,74=-55/1,2,3;
 4//1;
 5/5=2,38=5/2;
 6/7=2,8=2,9=2,10=2,28=1/1;
 99/5=1,9=1/99;
 Leave Link    1 at Tue Oct  6 19:35:32 2015, MaxMem=  3758096384 cpu:         0.3
 (Enter /home/hetanjin/apps/g09D01/g09/l101.exe)
 -----------------------------
 using ub3lyp/6-31G(d) to scan
 -----------------------------
 Symbolic Z-matrix:
 Charge =  0 Multiplicity = 1
 C                    -2.44977  -0.29446   0.01116 
 H                    -2.5081   -0.92578   0.90588 
 H                    -2.5113   -0.95086  -0.86495 
 H                    -3.33198   0.35414   0.00366 
 C                    -1.1624    0.53719  -0.00408 
 H                    -1.13532   1.17811  -0.89347 
 H                    -1.13259   1.20329   0.86714 
 C                     0.08408  -0.34348   0.00218 
 H                     0.11159  -0.99547  -0.88136 
 H                     0.11456  -0.98067   0.89941 
 O                     1.20521   0.53478  -0.01361 
 O                     2.39309  -0.30238  -0.09599 
 H                     2.77534  -0.13748   0.78495 
 
 NAtoms=     13 NQM=       13 NQMF=       0 NMMI=      0 NMMIF=      0
                NMic=       0 NMicF=      0.
                    Isotopes and Nuclear Properties:
 (Nuclear quadrupole moments (NQMom) in fm**2, nuclear magnetic moments (NMagM)
  in nuclear magnetons)

  Atom         1           2           3           4           5           6           7           8           9          10
 IAtWgt=          12           1           1           1          12           1           1          12           1           1
 AtmWgt=  12.0000000   1.0078250   1.0078250   1.0078250  12.0000000   1.0078250   1.0078250  12.0000000   1.0078250   1.0078250
 NucSpn=           0           1           1           1           0           1           1           0           1           1
 AtZEff=   0.0000000   0.0000000   0.0000000   0.0000000   0.0000000   0.0000000   0.0000000   0.0000000   0.0000000   0.0000000
 NQMom=    0.0000000   0.0000000   0.0000000   0.0000000   0.0000000   0.0000000   0.0000000   0.0000000   0.0000000   0.0000000
 NMagM=    0.0000000   2.7928460   2.7928460   2.7928460   0.0000000   2.7928460   2.7928460   0.0000000   2.7928460   2.7928460
 AtZNuc=   6.0000000   1.0000000   1.0000000   1.0000000   6.0000000   1.0000000   1.0000000   6.0000000   1.0000000   1.0000000

  Atom        11          12          13
 IAtWgt=          16          16           1
 AtmWgt=  15.9949146  15.9949146   1.0078250
 NucSpn=           0           0           1
 AtZEff=   0.0000000   0.0000000   0.0000000
 NQMom=    0.0000000   0.0000000   0.0000000
 NMagM=    0.0000000   0.0000000   2.7928460
 AtZNuc=   8.0000000   8.0000000   1.0000000
 Leave Link  101 at Tue Oct  6 19:35:32 2015, MaxMem=  3758096384 cpu:         0.8
 (Enter /home/hetanjin/apps/g09D01/g09/l202.exe)
                          Input orientation:                          
 ---------------------------------------------------------------------
 Center     Atomic      Atomic             Coordinates (Angstroms)
 Number     Number       Type             X           Y           Z
 ---------------------------------------------------------------------
      1          6           0       -2.449767   -0.294459    0.011156
      2          1           0       -2.508100   -0.925779    0.905876
      3          1           0       -2.511299   -0.950855   -0.864952
      4          1           0       -3.331981    0.354143    0.003662
      5          6           0       -1.162403    0.537185   -0.004078
      6          1           0       -1.135323    1.178113   -0.893474
      7          1           0       -1.132593    1.203287    0.867135
      8          6           0        0.084082   -0.343475    0.002179
      9          1           0        0.111588   -0.995474   -0.881361
     10          1           0        0.114558   -0.980670    0.899405
     11          8           0        1.205206    0.534781   -0.013605
     12          8           0        2.393086   -0.302380   -0.095994
     13          1           0        2.775342   -0.137476    0.784953
 ---------------------------------------------------------------------
                    Distance matrix (angstroms):
                    1          2          3          4          5
     1  C    0.000000
     2  H    1.096582   0.000000
     3  H    1.096452   1.771008   0.000000
     4  H    1.095008   1.769455   1.769471   0.000000
     5  C    1.532700   2.186134   2.185152   2.177299   0.000000
     6  H    2.171310   3.090071   2.535080   2.511789   1.096607
     7  H    2.170459   2.535043   3.088897   2.510765   1.097084
     8  C    2.534339   2.806270   2.803004   3.486568   1.526213
     9  H    2.801526   3.172040   2.623318   3.803012   2.177550
    10  H    2.799220   2.623240   3.163696   3.802987   2.179632
    11  O    3.747943   4.094792   4.091982   4.540814   2.367629
    12  O    4.844045   5.041229   5.006477   5.763449   3.654425
    13  H    5.284427   5.343295   5.597530   6.176690   4.072293
                    6          7          8          9         10
     6  H    0.000000
     7  H    1.760791   0.000000
     8  C    2.145780   2.149632   0.000000
     9  H    2.505876   3.072422   1.098409   0.000000
    10  H    3.071964   2.515173   1.100891   1.780830   0.000000
    11  O    2.581883   2.586099   1.424255   2.071396   2.078387
    12  O    3.908645   3.952855   2.311455   2.510461   2.577322
    13  H    4.454345   4.132355   2.810347   3.257046   2.793537
                   11         12         13
    11  O    0.000000
    12  O    1.455570   0.000000
    13  H    1.885458   0.974362   0.000000
 Stoichiometry    C3H8O2
 Framework group  C1[X(C3H8O2)]
 Deg. of freedom    33
 Full point group                 C1      NOp   1
 Largest Abelian subgroup         C1      NOp   1
 Largest concise Abelian subgroup C1      NOp   1
                         Standard orientation:                         
 ---------------------------------------------------------------------
 Center     Atomic      Atomic             Coordinates (Angstroms)
 Number     Number       Type             X           Y           Z
 ---------------------------------------------------------------------
      1          6           0       -2.449767   -0.294459    0.011156
      2          1           0       -2.508100   -0.925779    0.905876
      3          1           0       -2.511299   -0.950855   -0.864952
      4          1           0       -3.331981    0.354143    0.003662
      5          6           0       -1.162403    0.537185   -0.004078
      6          1           0       -1.135323    1.178113   -0.893474
      7          1           0       -1.132593    1.203287    0.867135
      8          6           0        0.084082   -0.343475    0.002179
      9          1           0        0.111588   -0.995474   -0.881361
     10          1           0        0.114558   -0.980670    0.899405
     11          8           0        1.205206    0.534781   -0.013605
     12          8           0        2.393086   -0.302380   -0.095994
     13          1           0        2.775342   -0.137476    0.784953
 ---------------------------------------------------------------------
 Rotational constants (GHZ):     20.9094522      2.0868652      1.9790264
 Leave Link  202 at Tue Oct  6 19:35:32 2015, MaxMem=  3758096384 cpu:         0.1
 (Enter /home/hetanjin/apps/g09D01/g09/l301.exe)
 Standard basis: def2TZVP (5D, 7F)
 Ernie: Thresh=  0.10000D-02 Tol=  0.10000D-05 Strict=F.
 There are   228 symmetry adapted cartesian basis functions of A   symmetry.
 There are   203 symmetry adapted basis functions of A   symmetry.
   203 basis functions,   319 primitive gaussians,   228 cartesian basis functions
    21 alpha electrons       21 beta electrons
       nuclear repulsion energy       185.7734184672 Hartrees.
 IExCor= 4336 DFT=T Ex+Corr=M062X ExCW=0 ScaHFX=  0.540000
 ScaDFX=  1.000000  1.000000  1.000000  1.000000 ScalE2=  1.000000  1.000000
 IRadAn=      0 IRanWt=     -1 IRanGd=            0 ICorTp=0 IEmpDi=  4
 NAtoms=   13 NActive=   13 NUniq=   13 SFac= 1.00D+00 NAtFMM=   60 NAOKFM=F Big=F
 Integral buffers will be    131072 words long.
 Raffenetti 2 integral format.
 Two-electron integral symmetry is turned on.
 Leave Link  301 at Tue Oct  6 19:35:32 2015, MaxMem=  3758096384 cpu:         0.7
 (Enter /home/hetanjin/apps/g09D01/g09/l302.exe)
 NPDir=0 NMtPBC=     1 NCelOv=     1 NCel=       1 NClECP=     1 NCelD=      1
         NCelK=      1 NCelE2=     1 NClLst=     1 CellRange=     0.0.
 One-electron integrals computed using PRISM.
   1 Symmetry operations used in ECPInt.
 ECPInt:  NShTT=    3828 NPrTT=   11160 LenC2=    3749 LenP2D=    9069.
 LDataN:  DoStor=T MaxTD1= 6 Len=  172
 NBasis=   203 RedAO= T EigKep=  3.46D-04  NBF=   203
 NBsUse=   203 1.00D-06 EigRej= -1.00D+00 NBFU=   203
 Precomputing XC quadrature grid using
 IXCGrd= 4 IRadAn=           0 IRanWt=          -1 IRanGd=           0 AccXCQ= 0.00D+00.
 Generated NRdTot=       0 NPtTot=           0 NUsed=           0 NTot=          32
 NSgBfM=   227   227   227   227   227 MxSgAt=    13 MxSgA2=    13.
 Leave Link  302 at Tue Oct  6 19:35:32 2015, MaxMem=  3758096384 cpu:         3.0
 (Enter /home/hetanjin/apps/g09D01/g09/l303.exe)
 DipDrv:  MaxL=1.
 Leave Link  303 at Tue Oct  6 19:35:32 2015, MaxMem=  3758096384 cpu:         0.3
 (Enter /home/hetanjin/apps/g09D01/g09/l401.exe)
 ExpMin= 9.52D-02 ExpMax= 2.70D+04 ExpMxC= 9.22D+02 IAcc=2 IRadAn=         4 AccDes= 0.00D+00
 Harris functional with IExCor= 1009 and IRadAn=       4 diagonalized for initial guess.
 HarFok:  IExCor= 1009 AccDes= 0.00D+00 IRadAn=         4 IDoV= 1 UseB2=F ITyADJ=14
 ICtDFT=  3500011 ScaDFX=  1.000000  1.000000  1.000000  1.000000
 FoFCou: FMM=F IPFlag=           0 FMFlag=      100000 FMFlg1=           0
         NFxFlg=           0 DoJE=T BraDBF=F KetDBF=T FulRan=T
         wScrn=  0.000000 ICntrl=     500 IOpCl=  0 I1Cent=   200000004 NGrid=           0
         NMat0=    1 NMatS0=      1 NMatT0=    0 NMatD0=    1 NMtDS0=    0 NMtDT0=    0
 Petite list used in FoFCou.
 Harris En= -269.389673281237    
 JPrj=0 DoOrth=F DoCkMO=F.
 Leave Link  401 at Tue Oct  6 19:35:33 2015, MaxMem=  3758096384 cpu:         5.8
 (Enter /home/hetanjin/apps/g09D01/g09/l502.exe)
 Closed shell SCF:
 Using DIIS extrapolation, IDIIS=  1040.
 Integral symmetry usage will be decided dynamically.
 Keep R1 ints in memory in canonical form, NReq=220562873.
 IVT=      178922 IEndB=      178922 NGot=  3758096384 MDV=  3543537892
 LenX=  3543537892 LenY=  3543485467
 Requested convergence on RMS density matrix=1.00D-08 within 128 cycles.
 Requested convergence on MAX density matrix=1.00D-06.
 Requested convergence on             energy=1.00D-06.
 No special actions if energy rises.
 FoFCou: FMM=F IPFlag=           0 FMFlag=           0 FMFlg1=           0
         NFxFlg=           0 DoJE=F BraDBF=F KetDBF=F FulRan=T
         wScrn=  0.000000 ICntrl=     600 IOpCl=  0 I1Cent=           0 NGrid=           0
         NMat0=    1 NMatS0=  20706 NMatT0=    0 NMatD0=    1 NMtDS0=    0 NMtDT0=    0
 Symmetry not used in FoFCou.
 Integral accuracy reduced to 1.0D-05 until final iterations.

 Cycle   1  Pass 0  IDiag  1:
 E= -269.313485664863    
 DIIS: error= 3.68D-02 at cycle   1 NSaved=   1.
 NSaved= 1 IEnMin= 1 EnMin= -269.313485664863     IErMin= 1 ErrMin= 3.68D-02
 ErrMax= 3.68D-02  0.00D+00 EMaxC= 1.00D-01 BMatC= 1.94D-01 BMatP= 1.94D-01
 IDIUse=3 WtCom= 6.32D-01 WtEn= 3.68D-01
 Coeff-Com:  0.100D+01
 Coeff-En:   0.100D+01
 Coeff:      0.100D+01
 Gap=     0.450 Goal=   None    Shift=    0.000
 GapD=    0.450 DampG=2.000 DampE=0.500 DampFc=1.0000 IDamp=-1.
 RMSDP=2.59D-03 MaxDP=6.63D-02              OVMax= 1.40D-01

 Cycle   2  Pass 0  IDiag  1:
 E= -269.359385619130     Delta-E=       -0.045899954267 Rises=F Damp=F
 DIIS: error= 3.20D-02 at cycle   2 NSaved=   2.
 NSaved= 2 IEnMin= 2 EnMin= -269.359385619130     IErMin= 2 ErrMin= 3.20D-02
 ErrMax= 3.20D-02  0.00D+00 EMaxC= 1.00D-01 BMatC= 1.14D-01 BMatP= 1.94D-01
 IDIUse=3 WtCom= 6.80D-01 WtEn= 3.20D-01
 Coeff-Com:  0.428D+00 0.572D+00
 Coeff-En:   0.398D+00 0.602D+00
 Coeff:      0.418D+00 0.582D+00
 Gap=     0.486 Goal=   None    Shift=    0.000
 RMSDP=1.33D-03 MaxDP=3.03D-02 DE=-4.59D-02 OVMax= 7.56D-02

 Cycle   3  Pass 0  IDiag  1:
 E= -269.464348288110     Delta-E=       -0.104962668980 Rises=F Damp=F
 DIIS: error= 3.64D-03 at cycle   3 NSaved=   3.
 NSaved= 3 IEnMin= 3 EnMin= -269.464348288110     IErMin= 3 ErrMin= 3.64D-03
 ErrMax= 3.64D-03  0.00D+00 EMaxC= 1.00D-01 BMatC= 4.37D-03 BMatP= 1.14D-01
 IDIUse=3 WtCom= 9.64D-01 WtEn= 3.64D-02
 Coeff-Com:  0.688D-01 0.191D+00 0.740D+00
 Coeff-En:   0.000D+00 0.000D+00 0.100D+01
 Coeff:      0.663D-01 0.184D+00 0.750D+00
 Gap=     0.415 Goal=   None    Shift=    0.000
 RMSDP=2.52D-04 MaxDP=8.08D-03 DE=-1.05D-01 OVMax= 1.30D-02

 Cycle   4  Pass 0  IDiag  1:
 E= -269.466844199301     Delta-E=       -0.002495911191 Rises=F Damp=F
 DIIS: error= 1.50D-03 at cycle   4 NSaved=   4.
 NSaved= 4 IEnMin= 4 EnMin= -269.466844199301     IErMin= 4 ErrMin= 1.50D-03
 ErrMax= 1.50D-03  0.00D+00 EMaxC= 1.00D-01 BMatC= 1.37D-03 BMatP= 4.37D-03
 IDIUse=3 WtCom= 9.85D-01 WtEn= 1.50D-02
 Coeff-Com:  0.715D-02 0.643D-01 0.431D+00 0.498D+00
 Coeff-En:   0.000D+00 0.000D+00 0.156D+00 0.844D+00
 Coeff:      0.704D-02 0.633D-01 0.426D+00 0.503D+00
 Gap=     0.407 Goal=   None    Shift=    0.000
 RMSDP=1.11D-04 MaxDP=3.70D-03 DE=-2.50D-03 OVMax= 6.59D-03

 Cycle   5  Pass 0  IDiag  1:
 E= -269.467729448972     Delta-E=       -0.000885249672 Rises=F Damp=F
 DIIS: error= 2.40D-04 at cycle   5 NSaved=   5.
 NSaved= 5 IEnMin= 5 EnMin= -269.467729448972     IErMin= 5 ErrMin= 2.40D-04
 ErrMax= 2.40D-04  0.00D+00 EMaxC= 1.00D-01 BMatC= 3.44D-05 BMatP= 1.37D-03
 IDIUse=3 WtCom= 9.98D-01 WtEn= 2.40D-03
 Coeff-Com: -0.163D-02 0.112D-01 0.104D+00 0.194D+00 0.692D+00
 Coeff-En:   0.000D+00 0.000D+00 0.000D+00 0.000D+00 0.100D+01
 Coeff:     -0.163D-02 0.112D-01 0.104D+00 0.194D+00 0.693D+00
 Gap=     0.407 Goal=   None    Shift=    0.000
 RMSDP=2.13D-05 MaxDP=6.33D-04 DE=-8.85D-04 OVMax= 1.35D-03

 Cycle   6  Pass 0  IDiag  1:
 E= -269.467753343885     Delta-E=       -0.000023894913 Rises=F Damp=F
 DIIS: error= 8.08D-05 at cycle   6 NSaved=   6.
 NSaved= 6 IEnMin= 6 EnMin= -269.467753343885     IErMin= 6 ErrMin= 8.08D-05
 ErrMax= 8.08D-05  0.00D+00 EMaxC= 1.00D-01 BMatC= 2.91D-06 BMatP= 3.44D-05
 IDIUse=1 WtCom= 1.00D+00 WtEn= 0.00D+00
 Coeff-Com: -0.127D-02 0.201D-03 0.143D-01 0.469D-01 0.294D+00 0.646D+00
 Coeff:     -0.127D-02 0.201D-03 0.143D-01 0.469D-01 0.294D+00 0.646D+00
 Gap=     0.407 Goal=   None    Shift=    0.000
 RMSDP=6.71D-06 MaxDP=1.93D-04 DE=-2.39D-05 OVMax= 3.59D-04

 Initial convergence to 1.0D-05 achieved.  Increase integral accuracy.
 Cycle   7  Pass 1  IDiag  1:
 E= -269.467689071050     Delta-E=        0.000064272835 Rises=F Damp=F
 DIIS: error= 2.31D-04 at cycle   1 NSaved=   1.
 NSaved= 1 IEnMin= 1 EnMin= -269.467689071050     IErMin= 1 ErrMin= 2.31D-04
 ErrMax= 2.31D-04  0.00D+00 EMaxC= 1.00D-01 BMatC= 8.78D-06 BMatP= 8.78D-06
 IDIUse=3 WtCom= 9.98D-01 WtEn= 2.31D-03
 Coeff-Com:  0.100D+01
 Coeff-En:   0.100D+01
 Coeff:      0.100D+01
 Gap=     0.407 Goal=   None    Shift=    0.000
 RMSDP=6.71D-06 MaxDP=1.93D-04 DE= 6.43D-05 OVMax= 3.73D-04

 Cycle   8  Pass 1  IDiag  1:
 E= -269.467693130090     Delta-E=       -0.000004059040 Rises=F Damp=F
 DIIS: error= 6.42D-05 at cycle   2 NSaved=   2.
 NSaved= 2 IEnMin= 2 EnMin= -269.467693130090     IErMin= 2 ErrMin= 6.42D-05
 ErrMax= 6.42D-05  0.00D+00 EMaxC= 1.00D-01 BMatC= 5.96D-07 BMatP= 8.78D-06
 IDIUse=1 WtCom= 1.00D+00 WtEn= 0.00D+00
 Coeff-Com:  0.104D+00 0.896D+00
 Coeff:      0.104D+00 0.896D+00
 Gap=     0.407 Goal=   None    Shift=    0.000
 RMSDP=4.46D-06 MaxDP=9.84D-05 DE=-4.06D-06 OVMax= 2.49D-04

 Cycle   9  Pass 1  IDiag  1:
 E= -269.467693330825     Delta-E=       -0.000000200736 Rises=F Damp=F
 DIIS: error= 4.80D-05 at cycle   3 NSaved=   3.
 NSaved= 3 IEnMin= 3 EnMin= -269.467693330825     IErMin= 3 ErrMin= 4.80D-05
 ErrMax= 4.80D-05  0.00D+00 EMaxC= 1.00D-01 BMatC= 3.88D-07 BMatP= 5.96D-07
 IDIUse=1 WtCom= 1.00D+00 WtEn= 0.00D+00
 Coeff-Com: -0.148D-01 0.442D+00 0.573D+00
 Coeff:     -0.148D-01 0.442D+00 0.573D+00
 Gap=     0.407 Goal=   None    Shift=    0.000
 RMSDP=2.01D-06 MaxDP=4.58D-05 DE=-2.01D-07 OVMax= 1.07D-04

 Cycle  10  Pass 1  IDiag  1:
 E= -269.467693664445     Delta-E=       -0.000000333619 Rises=F Damp=F
 DIIS: error= 3.02D-06 at cycle   4 NSaved=   4.
 NSaved= 4 IEnMin= 4 EnMin= -269.467693664445     IErMin= 4 ErrMin= 3.02D-06
 ErrMax= 3.02D-06  0.00D+00 EMaxC= 1.00D-01 BMatC= 4.23D-09 BMatP= 3.88D-07
 IDIUse=1 WtCom= 1.00D+00 WtEn= 0.00D+00
 Coeff-Com: -0.629D-02 0.545D-01 0.120D+00 0.832D+00
 Coeff:     -0.629D-02 0.545D-01 0.120D+00 0.832D+00
 Gap=     0.407 Goal=   None    Shift=    0.000
 RMSDP=3.38D-07 MaxDP=1.24D-05 DE=-3.34D-07 OVMax= 2.24D-05

 Cycle  11  Pass 1  IDiag  1:
 E= -269.467693667864     Delta-E=       -0.000000003420 Rises=F Damp=F
 DIIS: error= 1.91D-06 at cycle   5 NSaved=   5.
 NSaved= 5 IEnMin= 5 EnMin= -269.467693667864     IErMin= 5 ErrMin= 1.91D-06
 ErrMax= 1.91D-06  0.00D+00 EMaxC= 1.00D-01 BMatC= 1.56D-09 BMatP= 4.23D-09
 IDIUse=1 WtCom= 1.00D+00 WtEn= 0.00D+00
 Coeff-Com: -0.889D-03-0.308D-01-0.138D-01 0.401D+00 0.644D+00
 Coeff:     -0.889D-03-0.308D-01-0.138D-01 0.401D+00 0.644D+00
 Gap=     0.407 Goal=   None    Shift=    0.000
 RMSDP=1.76D-07 MaxDP=6.59D-06 DE=-3.42D-09 OVMax= 1.36D-05

 Cycle  12  Pass 1  IDiag  1:
 E= -269.467693669238     Delta-E=       -0.000000001374 Rises=F Damp=F
 DIIS: error= 5.76D-07 at cycle   6 NSaved=   6.
 NSaved= 6 IEnMin= 6 EnMin= -269.467693669238     IErMin= 6 ErrMin= 5.76D-07
 ErrMax= 5.76D-07  0.00D+00 EMaxC= 1.00D-01 BMatC= 2.22D-10 BMatP= 1.56D-09
 IDIUse=1 WtCom= 1.00D+00 WtEn= 0.00D+00
 Coeff-Com:  0.421D-03-0.202D-01-0.219D-01 0.661D-01 0.298D+00 0.678D+00
 Coeff:      0.421D-03-0.202D-01-0.219D-01 0.661D-01 0.298D+00 0.678D+00
 Gap=     0.407 Goal=   None    Shift=    0.000
 RMSDP=8.81D-08 MaxDP=2.32D-06 DE=-1.37D-09 OVMax= 7.23D-06

 Cycle  13  Pass 1  IDiag  1:
 E= -269.467693669476     Delta-E=       -0.000000000238 Rises=F Damp=F
 DIIS: error= 2.32D-07 at cycle   7 NSaved=   7.
 NSaved= 7 IEnMin= 7 EnMin= -269.467693669476     IErMin= 7 ErrMin= 2.32D-07
 ErrMax= 2.32D-07  0.00D+00 EMaxC= 1.00D-01 BMatC= 3.45D-11 BMatP= 2.22D-10
 IDIUse=1 WtCom= 1.00D+00 WtEn= 0.00D+00
 Coeff-Com:  0.363D-03-0.142D-02-0.680D-02-0.685D-01-0.246D-01 0.281D+00
 Coeff-Com:  0.820D+00
 Coeff:      0.363D-03-0.142D-02-0.680D-02-0.685D-01-0.246D-01 0.281D+00
 Coeff:      0.820D+00
 Gap=     0.407 Goal=   None    Shift=    0.000
 RMSDP=4.28D-08 MaxDP=1.19D-06 DE=-2.38D-10 OVMax= 4.51D-06

 Cycle  14  Pass 1  IDiag  1:
 E= -269.467693669534     Delta-E=       -0.000000000058 Rises=F Damp=F
 DIIS: error= 6.23D-08 at cycle   8 NSaved=   8.
 NSaved= 8 IEnMin= 8 EnMin= -269.467693669534     IErMin= 8 ErrMin= 6.23D-08
 ErrMax= 6.23D-08  0.00D+00 EMaxC= 1.00D-01 BMatC= 2.80D-12 BMatP= 3.45D-11
 IDIUse=1 WtCom= 1.00D+00 WtEn= 0.00D+00
 Coeff-Com:  0.184D-04 0.331D-02 0.230D-02-0.294D-01-0.574D-01-0.419D-01
 Coeff-Com:  0.177D+00 0.947D+00
 Coeff:      0.184D-04 0.331D-02 0.230D-02-0.294D-01-0.574D-01-0.419D-01
 Coeff:      0.177D+00 0.947D+00
 Gap=     0.407 Goal=   None    Shift=    0.000
 RMSDP=1.74D-08 MaxDP=4.40D-07 DE=-5.82D-11 OVMax= 2.15D-06

 Cycle  15  Pass 1  IDiag  1:
 E= -269.467693669544     Delta-E=       -0.000000000010 Rises=F Damp=F
 DIIS: error= 1.72D-08 at cycle   9 NSaved=   9.
 NSaved= 9 IEnMin= 9 EnMin= -269.467693669544     IErMin= 9 ErrMin= 1.72D-08
 ErrMax= 1.72D-08  0.00D+00 EMaxC= 1.00D-01 BMatC= 1.79D-13 BMatP= 2.80D-12
 IDIUse=1 WtCom= 1.00D+00 WtEn= 0.00D+00
 Coeff-Com: -0.281D-04 0.657D-03 0.108D-02 0.160D-02-0.604D-02-0.294D-01
 Coeff-Com: -0.449D-01 0.113D+00 0.964D+00
 Coeff:     -0.281D-04 0.657D-03 0.108D-02 0.160D-02-0.604D-02-0.294D-01
 Coeff:     -0.449D-01 0.113D+00 0.964D+00
 Gap=     0.407 Goal=   None    Shift=    0.000
 RMSDP=4.25D-09 MaxDP=9.05D-08 DE=-1.00D-11 OVMax= 5.17D-07

 SCF Done:  E(RM062X) =  -269.467693670     A.U. after   15 cycles
            NFock= 15  Conv=0.43D-08     -V/T= 2.0052
 KE= 2.680829343579D+02 PE=-1.002615711338D+03 EE= 2.792916648433D+02
 Leave Link  502 at Tue Oct  6 19:35:48 2015, MaxMem=  3758096384 cpu:       122.3
 (Enter /home/hetanjin/apps/g09D01/g09/l601.exe)
 Copying SCF densities to generalized density rwf, IOpCl= 0 IROHF=0.

 **********************************************************************

            Population analysis using the SCF density.

 **********************************************************************

 Orbital symmetries:
       Occupied  (A) (A) (A) (A) (A) (A) (A) (A) (A) (A) (A) (A)
                 (A) (A) (A) (A) (A) (A) (A) (A) (A)
       Virtual   (A) (A) (A) (A) (A) (A) (A) (A) (A) (A) (A) (A)
                 (A) (A) (A) (A) (A) (A) (A) (A) (A) (A) (A) (A)
                 (A) (A) (A) (A) (A) (A) (A) (A) (A) (A) (A) (A)
                 (A) (A) (A) (A) (A) (A) (A) (A) (A) (A) (A) (A)
                 (A) (A) (A) (A) (A) (A) (A) (A) (A) (A) (A) (A)
                 (A) (A) (A) (A) (A) (A) (A) (A) (A) (A) (A) (A)
                 (A) (A) (A) (A) (A) (A) (A) (A) (A) (A) (A) (A)
                 (A) (A) (A) (A) (A) (A) (A) (A) (A) (A) (A) (A)
                 (A) (A) (A) (A) (A) (A) (A) (A) (A) (A) (A) (A)
                 (A) (A) (A) (A) (A) (A) (A) (A) (A) (A) (A) (A)
                 (A) (A) (A) (A) (A) (A) (A) (A) (A) (A) (A) (A)
                 (A) (A) (A) (A) (A) (A) (A) (A) (A) (A) (A) (A)
                 (A) (A) (A) (A) (A) (A) (A) (A) (A) (A) (A) (A)
                 (A) (A) (A) (A) (A) (A) (A) (A) (A) (A) (A) (A)
                 (A) (A) (A) (A) (A) (A) (A) (A) (A) (A) (A) (A)
                 (A) (A)
 The electronic state is 1-A.
 Alpha  occ. eigenvalues --  -19.68404 -19.68087 -10.58627 -10.54110 -10.53413
 Alpha  occ. eigenvalues --   -1.24457  -1.03034  -0.87747  -0.76154  -0.68123
 Alpha  occ. eigenvalues --   -0.60656  -0.56478  -0.54498  -0.51860  -0.47778
 Alpha  occ. eigenvalues --   -0.46346  -0.43211  -0.40598  -0.40441  -0.38479
 Alpha  occ. eigenvalues --   -0.34694
 Alpha virt. eigenvalues --    0.05999   0.06796   0.08275   0.11437   0.11881
 Alpha virt. eigenvalues --    0.13363   0.14966   0.15711   0.17513   0.18408
 Alpha virt. eigenvalues --    0.22346   0.23372   0.24582   0.26376   0.26468
 Alpha virt. eigenvalues --    0.31258   0.35085   0.36130   0.38379   0.40540
 Alpha virt. eigenvalues --    0.42614   0.42969   0.44032   0.45223   0.46657
 Alpha virt. eigenvalues --    0.47892   0.49790   0.49986   0.50962   0.52335
 Alpha virt. eigenvalues --    0.55054   0.57406   0.59118   0.60607   0.63785
 Alpha virt. eigenvalues --    0.64692   0.64929   0.67824   0.76235   0.82258
 Alpha virt. eigenvalues --    0.83731   0.84686   0.87036   0.90786   0.91708
 Alpha virt. eigenvalues --    0.95355   0.99621   1.02403   1.05154   1.11890
 Alpha virt. eigenvalues --    1.13412   1.14731   1.16929   1.20579   1.26462
 Alpha virt. eigenvalues --    1.28707   1.35507   1.46371   1.52701   1.53464
 Alpha virt. eigenvalues --    1.56505   1.56773   1.59786   1.61695   1.62813
 Alpha virt. eigenvalues --    1.62878   1.64169   1.67746   1.73475   1.78696
 Alpha virt. eigenvalues --    1.80292   1.82373   1.85147   1.87218   1.87641
 Alpha virt. eigenvalues --    1.90088   1.94361   1.94905   1.95132   1.96962
 Alpha virt. eigenvalues --    2.07851   2.11163   2.12906   2.16173   2.19497
 Alpha virt. eigenvalues --    2.24821   2.29735   2.31579   2.31982   2.33892
 Alpha virt. eigenvalues --    2.35264   2.37991   2.40115   2.42944   2.44706
 Alpha virt. eigenvalues --    2.49325   2.53884   2.56125   2.56663   2.58383
 Alpha virt. eigenvalues --    2.62279   2.64176   2.64329   2.67477   2.68409
 Alpha virt. eigenvalues --    2.69329   2.72666   2.75910   2.77263   2.82113
 Alpha virt. eigenvalues --    2.86203   2.91929   2.94158   2.98838   3.01881
 Alpha virt. eigenvalues --    3.05472   3.09649   3.13791   3.15318   3.18384
 Alpha virt. eigenvalues --    3.21382   3.23908   3.25224   3.30297   3.34016
 Alpha virt. eigenvalues --    3.34258   3.35381   3.38303   3.47890   3.50708
 Alpha virt. eigenvalues --    3.54102   3.58152   3.60206   3.61784   3.75132
 Alpha virt. eigenvalues --    3.76672   3.80205   3.84933   3.90239   3.96384
 Alpha virt. eigenvalues --    3.99938   4.08040   4.16909   4.24172   4.25471
 Alpha virt. eigenvalues --    4.31305   4.38679   4.48529   4.51713   4.54585
 Alpha virt. eigenvalues --    4.56103   4.73099   4.84508   4.85225   4.92651
 Alpha virt. eigenvalues --    5.04949   5.07623   5.22312   5.37435   5.46925
 Alpha virt. eigenvalues --    5.55067   5.71873   5.78853   5.84289   5.99721
 Alpha virt. eigenvalues --    6.11425   6.33600   6.38359   6.40954   6.61110
 Alpha virt. eigenvalues --    6.66270   6.73230   6.80195   6.99916   7.15203
 Alpha virt. eigenvalues --    7.19995   8.00064  22.38998  22.48376  22.54331
 Alpha virt. eigenvalues --   43.56359  44.12183
          Condensed to atoms (all electrons):
               1          2          3          4          5          6
     1  C    5.059511   0.407080   0.408514   0.416171   0.258684  -0.036014
     2  H    0.407080   0.548386  -0.032039  -0.023672  -0.034779   0.007187
     3  H    0.408514  -0.032039   0.544068  -0.023102  -0.036140  -0.005912
     4  H    0.416171  -0.023672  -0.023102   0.526101  -0.042594  -0.004855
     5  C    0.258684  -0.034779  -0.036140  -0.042594   5.106649   0.418337
     6  H   -0.036014   0.007187  -0.005912  -0.004855   0.418337   0.550917
     7  H   -0.037208  -0.005992   0.007380  -0.004882   0.415187  -0.033068
     8  C   -0.045416  -0.006700  -0.005685   0.009639   0.273697  -0.042735
     9  H    0.000261  -0.000182   0.002854  -0.000240  -0.039103  -0.010794
    10  H    0.002260   0.002439  -0.000384  -0.000171  -0.040491   0.009618
    11  O    0.005488   0.000050   0.000022  -0.000155  -0.041638   0.004741
    12  O   -0.000381  -0.000067  -0.000007   0.000012   0.010786  -0.000385
    13  H    0.000058  -0.000004   0.000003  -0.000002  -0.001261   0.000079
               7          8          9         10         11         12
     1  C   -0.037208  -0.045416   0.000261   0.002260   0.005488  -0.000381
     2  H   -0.005992  -0.006700  -0.000182   0.002439   0.000050  -0.000067
     3  H    0.007380  -0.005685   0.002854  -0.000384   0.000022  -0.000007
     4  H   -0.004882   0.009639  -0.000240  -0.000171  -0.000155   0.000012
     5  C    0.415187   0.273697  -0.039103  -0.040491  -0.041638   0.010786
     6  H   -0.033068  -0.042735  -0.010794   0.009618   0.004741  -0.000385
     7  H    0.561360  -0.040493   0.009112  -0.011349   0.003614  -0.000180
     8  C   -0.040493   4.900644   0.428658   0.412786   0.217248  -0.045760
     9  H    0.009112   0.428658   0.577922  -0.061328  -0.039677   0.002499
    10  H   -0.011349   0.412786  -0.061328   0.614190  -0.046542   0.002678
    11  O    0.003614   0.217248  -0.039677  -0.046542   8.114271   0.014700
    12  O   -0.000180  -0.045760   0.002499   0.002678   0.014700   8.072297
    13  H    0.000023  -0.002472  -0.000871   0.003627  -0.027455   0.284583
              13
     1  C    0.000058
     2  H   -0.000004
     3  H    0.000003
     4  H   -0.000002
     5  C   -0.001261
     6  H    0.000079
     7  H    0.000023
     8  C   -0.002472
     9  H   -0.000871
    10  H    0.003627
    11  O   -0.027455
    12  O    0.284583
    13  H    0.407894
 Mulliken charges:
               1
     1  C   -0.439010
     2  H    0.138291
     3  H    0.140426
     4  H    0.147750
     5  C   -0.247334
     6  H    0.142883
     7  H    0.136497
     8  C   -0.053411
     9  H    0.130888
    10  H    0.112667
    11  O   -0.204668
    12  O   -0.340776
    13  H    0.335797
 Sum of Mulliken charges =   0.00000
 Mulliken charges with hydrogens summed into heavy atoms:
               1
     1  C   -0.012543
     5  C    0.032046
     8  C    0.190144
    11  O   -0.204668
    12  O   -0.004979
 Electronic spatial extent (au):  <R**2>=            618.6657
 Charge=              0.0000 electrons
 Dipole moment (field-independent basis, Debye):
    X=             -1.0547    Y=             -0.5519    Z=              1.4785  Tot=              1.8981
 Quadrupole moment (field-independent basis, Debye-Ang):
   XX=            -30.5291   YY=            -33.0984   ZZ=            -30.4305
   XY=             -0.7091   XZ=              4.7108   YZ=             -0.1166
 Traceless Quadrupole moment (field-independent basis, Debye-Ang):
   XX=              0.8235   YY=             -1.7457   ZZ=              0.9221
   XY=             -0.7091   XZ=              4.7108   YZ=             -0.1166
 Octapole moment (field-independent basis, Debye-Ang**2):
  XXX=             24.3055  YYY=              1.1274  ZZZ=              1.3112  XYY=              2.7705
  XXY=              2.0421  XXZ=             13.5815  XZZ=              7.8308  YZZ=             -0.5064
  YYZ=              0.0240  XYZ=             -0.5209
 Hexadecapole moment (field-independent basis, Debye-Ang**3):
 XXXX=           -603.1073 YYYY=            -93.7946 ZZZZ=            -52.6233 XXXY=             -6.6324
 XXXZ=             40.9072 YYYX=             -1.2190 YYYZ=              0.2287 ZZZX=              4.9433
 ZZZY=             -0.0619 XXYY=           -125.2620 XXZZ=           -108.0194 YYZZ=            -22.2017
 XXYZ=             -1.5312 YYXZ=              0.7295 ZZXY=             -0.1631
 N-N= 1.857734184672D+02 E-N=-1.002615708867D+03  KE= 2.680829343579D+02
 No NMR shielding tensors so no spin-rotation constants.
 Leave Link  601 at Tue Oct  6 19:35:49 2015, MaxMem=  3758096384 cpu:         2.2
 (Enter /home/hetanjin/apps/g09D01/g09/l9999.exe)
 1\1\GINC-COMPUTE-0-11\SP\RM062X\def2TZVP\C3H8O2\HETANJIN\06-Oct-2015\0
 \\#p M062X/def2TZVP\\using ub3lyp/6-31G(d) to scan\\0,1\C,0,-2.449767,
 -0.294459,0.011156\H,0,-2.5081,-0.925779,0.905876\H,0,-2.511299,-0.950
 855,-0.864952\H,0,-3.331981,0.354143,0.003662\C,0,-1.162403,0.537185,-
 0.004078\H,0,-1.135323,1.178113,-0.893474\H,0,-1.132593,1.203287,0.867
 135\C,0,0.084082,-0.343475,0.002179\H,0,0.111588,-0.995474,-0.881361\H
 ,0,0.114558,-0.98067,0.899405\O,0,1.205206,0.534781,-0.013605\O,0,2.39
 3086,-0.30238,-0.095994\H,0,2.775342,-0.137476,0.784953\\Version=ES64L
 -G09RevD.01\State=1-A\HF=-269.4676937\RMSD=4.252e-09\Dipole=-0.4149373
 ,-0.2171323,0.5816975\Quadrupole=0.6122779,-1.2978736,0.6855956,-0.527
 1896,3.5023747,-0.0866619\PG=C01 [X(C3H8O2)]\\@


 Children are likely to live up to what you believe of them.
 -- Lady Bird Johnson
 Job cpu time:       0 days  0 hours  2 minutes 16.0 seconds.
 File lengths (MBytes):  RWF=     18 Int=      0 D2E=      0 Chk=      3 Scr=      1
 Normal termination of Gaussian 09 at Tue Oct  6 19:35:49 2015.
