using ub3lyp/6-31G(d) to scan                                           
SP        RM062X                                                      def2TZVP            
Number of atoms                            I               13
Info1-9                                    I   N=           9
          26          22           0           0           0         110
           1          18        -502
Charge                                     I                0
Multiplicity                               I                1
Number of electrons                        I               42
Number of alpha electrons                  I               21
Number of beta electrons                   I               21
Number of basis functions                  I              203
Number of independent functions            I              203
Number of point charges in /Mol/           I                0
Number of translation vectors              I                0
Atomic numbers                             I   N=          13
           6           1           1           1           6           1
           1           6           1           1           8           8
           1
Nuclear charges                            R   N=          13
  6.00000000E+00  1.00000000E+00  1.00000000E+00  1.00000000E+00  6.00000000E+00
  1.00000000E+00  1.00000000E+00  6.00000000E+00  1.00000000E+00  1.00000000E+00
  8.00000000E+00  8.00000000E+00  1.00000000E+00
Current cartesian coordinates              R   N=          39
 -4.62938872E+00 -5.56446867E-01  2.10817847E-02 -4.73962211E+00 -1.74946877E+00
  1.71185755E+00 -4.74566735E+00 -1.79685554E+00 -1.63452240E+00 -6.29653157E+00
  6.69233282E-01  6.92017710E-03 -2.19662333E+00  1.01513253E+00 -7.70630317E-03
 -2.14544954E+00  2.22631092E+00 -1.68842117E+00 -2.14029059E+00  2.27388289E+00
  1.63864767E+00  1.58891953E-01 -6.49073683E-01  4.11771324E-03  2.10870760E-01
 -1.88117323E+00 -1.66553091E+00  2.16483246E-01 -1.85319773E+00  1.69962913E+00
  2.27750927E+00  1.01058963E+00 -2.57097240E-02  4.52227715E+00 -5.71415388E-01
 -1.81402370E-01  5.24463631E+00 -2.59791990E-01  1.48334620E+00
Force Field                                I                0
Int Atom Types                             I   N=          13
           0           0           0           0           0           0
           0           0           0           0           0           0
           0
MM charges                                 R   N=          13
  0.00000000E+00  0.00000000E+00  0.00000000E+00  0.00000000E+00  0.00000000E+00
  0.00000000E+00  0.00000000E+00  0.00000000E+00  0.00000000E+00  0.00000000E+00
  0.00000000E+00  0.00000000E+00  0.00000000E+00
Integer atomic weights                     I   N=          13
          12           1           1           1          12           1
           1          12           1           1          16          16
           1
Real atomic weights                        R   N=          13
  1.20000000E+01  1.00782504E+00  1.00782504E+00  1.00782504E+00  1.20000000E+01
  1.00782504E+00  1.00782504E+00  1.20000000E+01  1.00782504E+00  1.00782504E+00
  1.59949146E+01  1.59949146E+01  1.00782504E+00
Atom fragment info                         I   N=          13
           0           0           0           0           0           0
           0           0           0           0           0           0
           0
Atom residue num                           I   N=          13
           0           0           0           0           0           0
           0           0           0           0           0           0
           0
Nuclear spins                              I   N=          13
           0           1           1           1           0           1
           1           0           1           1           0           0
           1
Nuclear ZEff                               R   N=          13
 -3.60000000E+00 -1.00000000E+00 -1.00000000E+00 -1.00000000E+00 -3.60000000E+00
 -1.00000000E+00 -1.00000000E+00 -3.60000000E+00 -1.00000000E+00 -1.00000000E+00
 -5.60000000E+00 -5.60000000E+00 -1.00000000E+00
Nuclear ZNuc                               R   N=          13
  6.00000000E+00  1.00000000E+00  1.00000000E+00  1.00000000E+00  6.00000000E+00
  1.00000000E+00  1.00000000E+00  6.00000000E+00  1.00000000E+00  1.00000000E+00
  8.00000000E+00  8.00000000E+00  1.00000000E+00
Nuclear QMom                               R   N=          13
  0.00000000E+00  0.00000000E+00  0.00000000E+00  0.00000000E+00  0.00000000E+00
  0.00000000E+00  0.00000000E+00  0.00000000E+00  0.00000000E+00  0.00000000E+00
  0.00000000E+00  0.00000000E+00  0.00000000E+00
Nuclear GFac                               R   N=          13
  0.00000000E+00  2.79284600E+00  2.79284600E+00  2.79284600E+00  0.00000000E+00
  2.79284600E+00  2.79284600E+00  0.00000000E+00  2.79284600E+00  2.79284600E+00
  0.00000000E+00  0.00000000E+00  2.79284600E+00
MicOpt                                     I   N=          13
          -1          -1          -1          -1          -1          -1
          -1          -1          -1          -1          -1          -1
          -1
Number of contracted shells                I               87
Number of primitive shells                 I              148
Pure/Cartesian d shells                    I                0
Pure/Cartesian f shells                    I                0
Highest angular momentum                   I                3
Largest degree of contraction              I                6
Shell types                                I   N=          87
           0           0           0           0           0           1
           1           1          -2          -2          -3           0
           0           0           1           0           0           0
           1           0           0           0           1           0
           0           0           0           0           1           1
           1          -2          -2          -3           0           0
           0           1           0           0           0           1
           0           0           0           0           0           1
           1           1          -2          -2          -3           0
           0           0           1           0           0           0
           1           0           0           0           0           0
           1           1           1          -2          -2          -3
           0           0           0           0           0           1
           1           1          -2          -2          -3           0
           0           0           1
Number of primitives per shell             I   N=          87
           6           2           1           1           1           4
           1           1           1           1           1           3
           1           1           1           3           1           1
           1           3           1           1           1           6
           2           1           1           1           4           1
           1           1           1           1           3           1
           1           1           3           1           1           1
           6           2           1           1           1           4
           1           1           1           1           1           3
           1           1           1           3           1           1
           1           6           2           1           1           1
           4           1           1           1           1           1
           6           2           1           1           1           4
           1           1           1           1           1           3
           1           1           1
Shell to atom map                          I   N=          87
           1           1           1           1           1           1
           1           1           1           1           1           2
           2           2           2           3           3           3
           3           4           4           4           4           5
           5           5           5           5           5           5
           5           5           5           5           6           6
           6           6           7           7           7           7
           8           8           8           8           8           8
           8           8           8           8           8           9
           9           9           9          10          10          10
          10          11          11          11          11          11
          11          11          11          11          11          11
          12          12          12          12          12          12
          12          12          12          12          12          13
          13          13          13
Primitive exponents                        R   N=         148
  1.35753497E+04  2.03523337E+03  4.63225624E+02  1.31200196E+02  4.28530159E+01
  1.55841858E+01  6.20671385E+00  2.57648965E+00  5.76963394E-01  2.29728314E-01
  9.51644400E-02  3.46972322E+01  7.95826228E+00  2.37808269E+00  8.14332082E-01
  2.88875473E-01  1.00568237E-01  1.09700000E+00  3.18000000E-01  7.61000000E-01
  3.40613410E+01  5.12357460E+00  1.16466260E+00  3.27230410E-01  1.03072410E-01
  8.00000000E-01  3.40613410E+01  5.12357460E+00  1.16466260E+00  3.27230410E-01
  1.03072410E-01  8.00000000E-01  3.40613410E+01  5.12357460E+00  1.16466260E+00
  3.27230410E-01  1.03072410E-01  8.00000000E-01  1.35753497E+04  2.03523337E+03
  4.63225624E+02  1.31200196E+02  4.28530159E+01  1.55841858E+01  6.20671385E+00
  2.57648965E+00  5.76963394E-01  2.29728314E-01  9.51644400E-02  3.46972322E+01
  7.95826228E+00  2.37808269E+00  8.14332082E-01  2.88875473E-01  1.00568237E-01
  1.09700000E+00  3.18000000E-01  7.61000000E-01  3.40613410E+01  5.12357460E+00
  1.16466260E+00  3.27230410E-01  1.03072410E-01  8.00000000E-01  3.40613410E+01
  5.12357460E+00  1.16466260E+00  3.27230410E-01  1.03072410E-01  8.00000000E-01
  1.35753497E+04  2.03523337E+03  4.63225624E+02  1.31200196E+02  4.28530159E+01
  1.55841858E+01  6.20671385E+00  2.57648965E+00  5.76963394E-01  2.29728314E-01
  9.51644400E-02  3.46972322E+01  7.95826228E+00  2.37808269E+00  8.14332082E-01
  2.88875473E-01  1.00568237E-01  1.09700000E+00  3.18000000E-01  7.61000000E-01
  3.40613410E+01  5.12357460E+00  1.16466260E+00  3.27230410E-01  1.03072410E-01
  8.00000000E-01  3.40613410E+01  5.12357460E+00  1.16466260E+00  3.27230410E-01
  1.03072410E-01  8.00000000E-01  2.70323826E+04  4.05238714E+03  9.22327227E+02
  2.61240710E+02  8.53546414E+01  3.10350352E+01  1.22608607E+01  4.99870760E+00
  1.17031082E+00  4.64747410E-01  1.85045364E-01  6.32749548E+01  1.46270494E+01
  4.45012235E+00  1.52757996E+00  5.29351179E-01  1.74784213E-01  2.31400000E+00
  6.45000000E-01  1.42800000E+00  2.70323826E+04  4.05238714E+03  9.22327227E+02
  2.61240710E+02  8.53546414E+01  3.10350352E+01  1.22608607E+01  4.99870760E+00
  1.17031082E+00  4.64747410E-01  1.85045364E-01  6.32749548E+01  1.46270494E+01
  4.45012235E+00  1.52757996E+00  5.29351179E-01  1.74784213E-01  2.31400000E+00
  6.45000000E-01  1.42800000E+00  3.40613410E+01  5.12357460E+00  1.16466260E+00
  3.27230410E-01  1.03072410E-01  8.00000000E-01
Contraction coefficients                   R   N=         148
  6.06455036E-04  4.69790889E-03  2.43324776E-02  9.73999683E-02  3.01955843E-01
  6.62336091E-01  6.55953085E-01  3.75856333E-01  1.00000000E+00  1.00000000E+00
  1.00000000E+00  1.13272200E-02  7.61696592E-02  3.01922522E-01  7.27850273E-01
  1.00000000E+00  1.00000000E+00  1.00000000E+00  1.00000000E+00  1.00000000E+00
  2.54393072E-02  1.90085949E-01  8.52441130E-01  1.00000000E+00  1.00000000E+00
  1.00000000E+00  2.54393072E-02  1.90085949E-01  8.52441130E-01  1.00000000E+00
  1.00000000E+00  1.00000000E+00  2.54393072E-02  1.90085949E-01  8.52441130E-01
  1.00000000E+00  1.00000000E+00  1.00000000E+00  6.06455036E-04  4.69790889E-03
  2.43324776E-02  9.73999683E-02  3.01955843E-01  6.62336091E-01  6.55953085E-01
  3.75856333E-01  1.00000000E+00  1.00000000E+00  1.00000000E+00  1.13272200E-02
  7.61696592E-02  3.01922522E-01  7.27850273E-01  1.00000000E+00  1.00000000E+00
  1.00000000E+00  1.00000000E+00  1.00000000E+00  2.54393072E-02  1.90085949E-01
  8.52441130E-01  1.00000000E+00  1.00000000E+00  1.00000000E+00  2.54393072E-02
  1.90085949E-01  8.52441130E-01  1.00000000E+00  1.00000000E+00  1.00000000E+00
  6.06455036E-04  4.69790889E-03  2.43324776E-02  9.73999683E-02  3.01955843E-01
  6.62336091E-01  6.55953085E-01  3.75856333E-01  1.00000000E+00  1.00000000E+00
  1.00000000E+00  1.13272200E-02  7.61696592E-02  3.01922522E-01  7.27850273E-01
  1.00000000E+00  1.00000000E+00  1.00000000E+00  1.00000000E+00  1.00000000E+00
  2.54393072E-02  1.90085949E-01  8.52441130E-01  1.00000000E+00  1.00000000E+00
  1.00000000E+00  2.54393072E-02  1.90085949E-01  8.52441130E-01  1.00000000E+00
  1.00000000E+00  1.00000000E+00  5.72273352E-04  4.43532335E-03  2.30201077E-02
  9.28224907E-02  2.93785000E-01  6.74016045E-01  6.38399370E-01  3.95345871E-01
  1.00000000E+00  1.00000000E+00  1.00000000E+00  1.20183322E-02  8.30054218E-02
  3.19917439E-01  7.07155429E-01  1.00000000E+00  1.00000000E+00  1.00000000E+00
  1.00000000E+00  1.00000000E+00  5.72273352E-04  4.43532335E-03  2.30201077E-02
  9.28224907E-02  2.93785000E-01  6.74016045E-01  6.38399370E-01  3.95345871E-01
  1.00000000E+00  1.00000000E+00  1.00000000E+00  1.20183322E-02  8.30054218E-02
  3.19917439E-01  7.07155429E-01  1.00000000E+00  1.00000000E+00  1.00000000E+00
  1.00000000E+00  1.00000000E+00  2.54393072E-02  1.90085949E-01  8.52441130E-01
  1.00000000E+00  1.00000000E+00  1.00000000E+00
Coordinates of each shell                  R   N=         261
 -4.62938867E+00 -5.56447416E-01  2.10820547E-02 -4.62938867E+00 -5.56447416E-01
  2.10820547E-02 -4.62938867E+00 -5.56447416E-01  2.10820547E-02 -4.62938867E+00
 -5.56447416E-01  2.10820547E-02 -4.62938867E+00 -5.56447416E-01  2.10820547E-02
 -4.62938867E+00 -5.56447416E-01  2.10820547E-02 -4.62938867E+00 -5.56447416E-01
  2.10820547E-02 -4.62938867E+00 -5.56447416E-01  2.10820547E-02 -4.62938867E+00
 -5.56447416E-01  2.10820547E-02 -4.62938867E+00 -5.56447416E-01  2.10820547E-02
 -4.62938867E+00 -5.56447416E-01  2.10820547E-02 -4.73962196E+00 -1.74946933E+00
  1.71185782E+00 -4.73962196E+00 -1.74946933E+00  1.71185782E+00 -4.73962196E+00
 -1.74946933E+00  1.71185782E+00 -4.73962196E+00 -1.74946933E+00  1.71185782E+00
 -4.74566719E+00 -1.79685610E+00 -1.63452213E+00 -4.74566719E+00 -1.79685610E+00
 -1.63452213E+00 -4.74566719E+00 -1.79685610E+00 -1.63452213E+00 -4.74566719E+00
 -1.79685610E+00 -1.63452213E+00 -6.29653163E+00  6.69232584E-01  6.92044706E-03
 -6.29653163E+00  6.69232584E-01  6.92044706E-03 -6.29653163E+00  6.69232584E-01
  6.92044706E-03 -6.29653163E+00  6.69232584E-01  6.92044706E-03 -2.19662342E+00
  1.01513220E+00 -7.70603321E-03 -2.19662342E+00  1.01513220E+00 -7.70603321E-03
 -2.19662342E+00  1.01513220E+00 -7.70603321E-03 -2.19662342E+00  1.01513220E+00
 -7.70603321E-03 -2.19662342E+00  1.01513220E+00 -7.70603321E-03 -2.19662342E+00
  1.01513220E+00 -7.70603321E-03 -2.19662342E+00  1.01513220E+00 -7.70603321E-03
 -2.19662342E+00  1.01513220E+00 -7.70603321E-03 -2.19662342E+00  1.01513220E+00
 -7.70603321E-03 -2.19662342E+00  1.01513220E+00 -7.70603321E-03 -2.19662342E+00
  1.01513220E+00 -7.70603321E-03 -2.14544974E+00  2.22631060E+00 -1.68842090E+00
 -2.14544974E+00  2.22631060E+00 -1.68842090E+00 -2.14544974E+00  2.22631060E+00
 -1.68842090E+00 -2.14544974E+00  2.22631060E+00 -1.68842090E+00 -2.14029079E+00
  2.27388256E+00  1.63864794E+00 -2.14029079E+00  2.27388256E+00  1.63864794E+00
 -2.14029079E+00  2.27388256E+00  1.63864794E+00 -2.14029079E+00  2.27388256E+00
  1.63864794E+00  1.58892011E-01 -6.49073804E-01  4.11798320E-03  1.58892011E-01
 -6.49073804E-01  4.11798320E-03  1.58892011E-01 -6.49073804E-01  4.11798320E-03
  1.58892011E-01 -6.49073804E-01  4.11798320E-03  1.58892011E-01 -6.49073804E-01
  4.11798320E-03  1.58892011E-01 -6.49073804E-01  4.11798320E-03  1.58892011E-01
 -6.49073804E-01  4.11798320E-03  1.58892011E-01 -6.49073804E-01  4.11798320E-03
  1.58892011E-01 -6.49073804E-01  4.11798320E-03  1.58892011E-01 -6.49073804E-01
  4.11798320E-03  1.58892011E-01 -6.49073804E-01  4.11798320E-03  2.10870928E-01
 -1.88117335E+00 -1.66553064E+00  2.10870928E-01 -1.88117335E+00 -1.66553064E+00
  2.10870928E-01 -1.88117335E+00 -1.66553064E+00  2.10870928E-01 -1.88117335E+00
 -1.66553064E+00  2.16483412E-01 -1.85319784E+00  1.69962940E+00  2.16483412E-01
 -1.85319784E+00  1.69962940E+00  2.16483412E-01 -1.85319784E+00  1.69962940E+00
  2.16483412E-01 -1.85319784E+00  1.69962940E+00  2.27750918E+00  1.01058970E+00
 -2.57094541E-02  2.27750918E+00  1.01058970E+00 -2.57094541E-02  2.27750918E+00
  1.01058970E+00 -2.57094541E-02  2.27750918E+00  1.01058970E+00 -2.57094541E-02
  2.27750918E+00  1.01058970E+00 -2.57094541E-02  2.27750918E+00  1.01058970E+00
 -2.57094541E-02  2.27750918E+00  1.01058970E+00 -2.57094541E-02  2.27750918E+00
  1.01058970E+00 -2.57094541E-02  2.27750918E+00  1.01058970E+00 -2.57094541E-02
  2.27750918E+00  1.01058970E+00 -2.57094541E-02  2.27750918E+00  1.01058970E+00
 -2.57094541E-02  4.52227720E+00 -5.71415119E-01 -1.81402100E-01  4.52227720E+00
 -5.71415119E-01 -1.81402100E-01  4.52227720E+00 -5.71415119E-01 -1.81402100E-01
  4.52227720E+00 -5.71415119E-01 -1.81402100E-01  4.52227720E+00 -5.71415119E-01
 -1.81402100E-01  4.52227720E+00 -5.71415119E-01 -1.81402100E-01  4.52227720E+00
 -5.71415119E-01 -1.81402100E-01  4.52227720E+00 -5.71415119E-01 -1.81402100E-01
  4.52227720E+00 -5.71415119E-01 -1.81402100E-01  4.52227720E+00 -5.71415119E-01
 -1.81402100E-01  4.52227720E+00 -5.71415119E-01 -1.81402100E-01  5.24463633E+00
 -2.59791656E-01  1.48334647E+00  5.24463633E+00 -2.59791656E-01  1.48334647E+00
  5.24463633E+00 -2.59791656E-01  1.48334647E+00  5.24463633E+00 -2.59791656E-01
  1.48334647E+00
Constraint Structure                       R   N=          39
 -4.62938867E+00 -5.56447416E-01  2.10820547E-02 -4.73962196E+00 -1.74946933E+00
  1.71185782E+00 -4.74566719E+00 -1.79685610E+00 -1.63452213E+00 -6.29653163E+00
  6.69232584E-01  6.92044706E-03 -2.19662342E+00  1.01513220E+00 -7.70603321E-03
 -2.14544974E+00  2.22631060E+00 -1.68842090E+00 -2.14029079E+00  2.27388256E+00
  1.63864794E+00  1.58892011E-01 -6.49073804E-01  4.11798320E-03  2.10870928E-01
 -1.88117335E+00 -1.66553064E+00  2.16483412E-01 -1.85319784E+00  1.69962940E+00
  2.27750918E+00  1.01058970E+00 -2.57094541E-02  4.52227720E+00 -5.71415119E-01
 -1.81402100E-01  5.24463633E+00 -2.59791656E-01  1.48334647E+00
Num ILSW                                   I              100
ILSW                                       I   N=         100
           0           0           0           0           2           0
           0           0           0           0        4336          -1
           0           0           0           0           0           0
           0           0           0           0           0           0
           1           0           0           0           0           0
           0           0      100000           0          -1           0
           0           0           0           0           0           0
           0           0           0           1           0           0
           0           0           1           0           0           0
           0           0           4          41           0           0
           0           0          55           0           0           0
           0           0           0          13           0           0
           0           0           0           0           0           0
           0           0           0           0           0           0
           0           0           0           0           0           0
           0           0           0           0           0           0
           0           0           0           0
Num RLSW                                   I               41
RLSW                                       R   N=          41
  1.00000000E+00  1.00000000E+00  1.00000000E+00  1.00000000E+00  5.40000000E-01
  0.00000000E+00  0.00000000E+00  1.00000000E+00  0.00000000E+00  0.00000000E+00
  0.00000000E+00  0.00000000E+00  1.00000000E+00  0.00000000E+00  0.00000000E+00
  0.00000000E+00  0.00000000E+00  1.00000000E+00  0.00000000E+00  0.00000000E+00
  0.00000000E+00  0.00000000E+00  1.00000000E+00  0.00000000E+00  0.00000000E+00
  0.00000000E+00  0.00000000E+00  1.00000000E+00  0.00000000E+00  0.00000000E+00
  0.00000000E+00  0.00000000E+00  1.00000000E+00  0.00000000E+00  0.00000000E+00
  0.00000000E+00  0.00000000E+00  0.00000000E+00  1.00000000E+00  1.00000000E+00
  0.00000000E+00
ECP-MxAtEC                                 I           250000
ECP-MaxLECP                                I               10
ECP-MaxAtL                                 I          2250000
ECP-MxTECP                                 I         11250000
ECP-LenNCZ                                 I                0
ECP-KFirst                                 I   N=         130
           0           0           0           0           0           0
           0           0           0           0           0           0
           0           0           0           0           0           0
           0           0           0           0           0           0
           0           0           0           0           0           0
           0           0           0           0           0           0
           0           0           0           0           0           0
           0           0           0           0           0           0
           0           0           0           0           0           0
           0           0           0           0           0           0
           0           0           0           0           0           0
           0           0           0           0           0           0
           0           0           0           0           0           0
           0           0           0           0           0           0
           0           0           0           0           0           0
           0           0           0           0           0           0
           0           0           0           0           0           0
           0           0           0           0           0           0
           0           0           0           0           0           0
           0           0           0           0           0           0
           0           0           0           0           0           0
           0           0           0           0
ECP-KLast                                  I   N=         130
           0           0           0           0           0           0
           0           0           0           0           0           0
           0           0           0           0           0           0
           0           0           0           0           0           0
           0           0           0           0           0           0
           0           0           0           0           0           0
           0           0           0           0           0           0
           0           0           0           0           0           0
           0           0           0           0           0           0
           0           0           0           0           0           0
           0           0           0           0           0           0
           0           0           0           0           0           0
           0           0           0           0           0           0
           0           0           0           0           0           0
           0           0           0           0           0           0
           0           0           0           0           0           0
           0           0           0           0           0           0
           0           0           0           0           0           0
           0           0           0           0           0           0
           0           0           0           0           0           0
           0           0           0           0           0           0
           0           0           0           0
ECP-LMax                                   I   N=          13
           0           0           0           0           0           0
           0           0           0           0           0           0
           0
ECP-LPSkip                                 I   N=          13
           1           1           1           1           1           1
           1           1           1           1           1           1
           1
ECP-RNFroz                                 R   N=          13
  0.00000000E+00  0.00000000E+00  0.00000000E+00  0.00000000E+00  0.00000000E+00
  0.00000000E+00  0.00000000E+00  0.00000000E+00  0.00000000E+00  0.00000000E+00
  0.00000000E+00  0.00000000E+00  0.00000000E+00
ECP-NLP                                    I                0
ECP-CLP1                                   R      0.000000000000000E+00
ECP-CLP2                                   R      0.000000000000000E+00
ECP-ZLP                                    R      0.000000000000000E+00
MxBond                                     I                4
NBond                                      I   N=          13
           4           1           1           1           4           1
           1           4           1           1           2           2
           1
IBond                                      I   N=          52
           2           3           4           5           1           0
           0           0           1           0           0           0
           1           0           0           0           1           6
           7           8           5           0           0           0
           5           0           0           0           5           9
          10          11           8           0           0           0
           8           0           0           0           8          12
           0           0          11          13           0           0
          12           0           0           0
RBond                                      R   N=          52
  1.00000000E+00  1.00000000E+00  1.00000000E+00  1.00000000E+00  1.00000000E+00
  0.00000000E+00  0.00000000E+00  0.00000000E+00  1.00000000E+00  0.00000000E+00
  0.00000000E+00  0.00000000E+00  1.00000000E+00  0.00000000E+00  0.00000000E+00
  0.00000000E+00  1.00000000E+00  1.00000000E+00  1.00000000E+00  1.00000000E+00
  1.00000000E+00  0.00000000E+00  0.00000000E+00  0.00000000E+00  1.00000000E+00
  0.00000000E+00  0.00000000E+00  0.00000000E+00  1.00000000E+00  1.00000000E+00
  1.00000000E+00  1.00000000E+00  1.00000000E+00  0.00000000E+00  0.00000000E+00
  0.00000000E+00  1.00000000E+00  0.00000000E+00  0.00000000E+00  0.00000000E+00
  1.00000000E+00  1.00000000E+00  0.00000000E+00  0.00000000E+00  1.00000000E+00
  1.00000000E+00  0.00000000E+00  0.00000000E+00  1.00000000E+00  0.00000000E+00
  0.00000000E+00  0.00000000E+00
Virial Ratio                               R      2.005165413885666E+00
SCF Energy                                 R     -2.694676936695442E+02
Total Energy                               R     -2.694676936695442E+02
RMS Density                                R      4.252068407500591E-09
External E-field                           R   N=          35
  0.00000000E+00  0.00000000E+00  0.00000000E+00  0.00000000E+00  0.00000000E+00
  0.00000000E+00  0.00000000E+00  0.00000000E+00  0.00000000E+00  0.00000000E+00
  0.00000000E+00  0.00000000E+00  0.00000000E+00  0.00000000E+00  0.00000000E+00
  0.00000000E+00  0.00000000E+00  0.00000000E+00  0.00000000E+00  0.00000000E+00
  0.00000000E+00  0.00000000E+00  0.00000000E+00  0.00000000E+00  0.00000000E+00
  0.00000000E+00  0.00000000E+00  0.00000000E+00  0.00000000E+00  0.00000000E+00
  0.00000000E+00  0.00000000E+00  0.00000000E+00  0.00000000E+00  0.00000000E+00
IOpCl                                      I                0
IROHF                                      I                0
Alpha Orbital Energies                     R   N=         203
 -1.96840432E+01 -1.96808677E+01 -1.05862749E+01 -1.05411011E+01 -1.05341269E+01
 -1.24456784E+00 -1.03033689E+00 -8.77471794E-01 -7.61543658E-01 -6.81234816E-01
 -6.06561471E-01 -5.64777701E-01 -5.44978465E-01 -5.18598803E-01 -4.77776306E-01
 -4.63455725E-01 -4.32108709E-01 -4.05977554E-01 -4.04406416E-01 -3.84792778E-01
 -3.46940042E-01  5.99904749E-02  6.79569924E-02  8.27533800E-02  1.14372962E-01
  1.18812716E-01  1.33632144E-01  1.49660040E-01  1.57112167E-01  1.75130620E-01
  1.84084565E-01  2.23455499E-01  2.33718684E-01  2.45822970E-01  2.63760526E-01
  2.64678873E-01  3.12577230E-01  3.50850057E-01  3.61297501E-01  3.83790205E-01
  4.05395523E-01  4.26139228E-01  4.29686227E-01  4.40315682E-01  4.52231711E-01
  4.66567560E-01  4.78915783E-01  4.97897467E-01  4.99859206E-01  5.09622650E-01
  5.23350584E-01  5.50538983E-01  5.74064251E-01  5.91179216E-01  6.06072259E-01
  6.37850909E-01  6.46920290E-01  6.49290741E-01  6.78242338E-01  7.62351720E-01
  8.22578067E-01  8.37305844E-01  8.46855501E-01  8.70360806E-01  9.07862782E-01
  9.17075273E-01  9.53553135E-01  9.96214218E-01  1.02402868E+00  1.05154244E+00
  1.11890336E+00  1.13411659E+00  1.14730538E+00  1.16928950E+00  1.20579366E+00
  1.26461965E+00  1.28706789E+00  1.35507390E+00  1.46370574E+00  1.52701272E+00
  1.53464272E+00  1.56504754E+00  1.56772755E+00  1.59785704E+00  1.61694865E+00
  1.62812560E+00  1.62878361E+00  1.64169132E+00  1.67745608E+00  1.73474972E+00