 Entering Gaussian System, Link 0=g09
 Initial command:
 /usr/caen/gaussian-09revc/g09/l1.exe /scratch/avioli_flux/hetanjin/scratch/Gau-7923.inp -scrdir=/scratch/avioli_flux/hetanjin/scratch/
 Entering Link 1 = /usr/caen/gaussian-09revc/g09/l1.exe PID=      7924.
  
 Copyright (c) 1988,1990,1992,1993,1995,1998,2003,2009,2011,
            Gaussian, Inc.  All Rights Reserved.
  
 This is part of the Gaussian(R) 09 program.  It is based on
 the Gaussian(R) 03 system (copyright 2003, Gaussian, Inc.),
 the Gaussian(R) 98 system (copyright 1998, Gaussian, Inc.),
 the Gaussian(R) 94 system (copyright 1995, Gaussian, Inc.),
 the Gaussian 92(TM) system (copyright 1992, Gaussian, Inc.),
 the Gaussian 90(TM) system (copyright 1990, Gaussian, Inc.),
 the Gaussian 88(TM) system (copyright 1988, Gaussian, Inc.),
 the Gaussian 86(TM) system (copyright 1986, Carnegie Mellon
 University), and the Gaussian 82(TM) system (copyright 1983,
 Carnegie Mellon University). Gaussian is a federally registered
 trademark of Gaussian, Inc.
  
 This software contains proprietary and confidential information,
 including trade secrets, belonging to Gaussian, Inc.
  
 This software is provided under written license and may be
 used, copied, transmitted, or stored only in accord with that
 written license.
  
 The following legend is applicable only to US Government
 contracts under FAR:
  
                    RESTRICTED RIGHTS LEGEND
  
 Use, reproduction and disclosure by the US Government is
 subject to restrictions as set forth in subparagraphs (a)
 and (c) of the Commercial Computer Software - Restricted
 Rights clause in FAR 52.227-19.
  
 Gaussian, Inc.
 340 Quinnipiac St., Bldg. 40, Wallingford CT 06492
  
  
 ---------------------------------------------------------------
 Warning -- This program may not be used in any manner that
 competes with the business of Gaussian, Inc. or will provide
 assistance to any competitor of Gaussian, Inc.  The licensee
 of this program is prohibited from giving any competitor of
 Gaussian, Inc. access to this program.  By using this program,
 the user acknowledges that Gaussian, Inc. is engaged in the
 business of creating and licensing software in the field of
 computational chemistry and represents and warrants to the
 licensee that it is not a competitor of Gaussian, Inc. and that
 it will not use this program in any manner prohibited above.
 ---------------------------------------------------------------
  

 Cite this work as:
 Gaussian 09, Revision C.01,
 M. J. Frisch, G. W. Trucks, H. B. Schlegel, G. E. Scuseria, 
 M. A. Robb, J. R. Cheeseman, G. Scalmani, V. Barone, B. Mennucci, 
 G. A. Petersson, H. Nakatsuji, M. Caricato, X. Li, H. P. Hratchian, 
 A. F. Izmaylov, J. Bloino, G. Zheng, J. L. Sonnenberg, M. Hada, 
 M. Ehara, K. Toyota, R. Fukuda, J. Hasegawa, M. Ishida, T. Nakajima, 
 Y. Honda, O. Kitao, H. Nakai, T. Vreven, J. A. Montgomery, Jr., 
 J. E. Peralta, F. Ogliaro, M. Bearpark, J. J. Heyd, E. Brothers, 
 K. N. Kudin, V. N. Staroverov, T. Keith, R. Kobayashi, J. Normand, 
 K. Raghavachari, A. Rendell, J. C. Burant, S. S. Iyengar, J. Tomasi, 
 M. Cossi, N. Rega, J. M. Millam, M. Klene, J. E. Knox, J. B. Cross, 
 V. Bakken, C. Adamo, J. Jaramillo, R. Gomperts, R. E. Stratmann, 
 O. Yazyev, A. J. Austin, R. Cammi, C. Pomelli, J. W. Ochterski, 
 R. L. Martin, K. Morokuma, V. G. Zakrzewski, G. A. Voth, 
 P. Salvador, J. J. Dannenberg, S. Dapprich, A. D. Daniels, 
 O. Farkas, J. B. Foresman, J. V. Ortiz, J. Cioslowski, 
 and D. J. Fox, Gaussian, Inc., Wallingford CT, 2010.
 
 ******************************************
 Gaussian 09:  EM64L-G09RevC.01 23-Sep-2011
                10-Mar-2014 
 ******************************************
 %mem=30GB
 %nprocshared=8
 Will use up to    8 processors via shared memory.
 %chk=C3H6O_2.chk
 --------------------------
 #p cbs-qb3 opt=calcfc freq
 --------------------------
 1/10=4,14=-1,18=20,19=15,26=3,38=1/1,3;
 2/9=110,12=2,17=6,18=5,40=1/2;
 3/5=4,6=6,7=700,11=2,16=1,25=1,30=1,71=2,74=-5/1,2,3;
 4//1;
 5/5=2,38=5/2;
 8/6=4,10=90,11=11/1;
 11/6=1,8=1,9=11,15=111,16=1/1,2,10;
 10/6=1,7=6,13=1/2;
 6/7=2,8=2,9=2,10=2,28=1/1;
 7/10=1,18=20,25=1/1,2,3,16;
 1/10=4,14=-1,18=20,19=15/3(2);
 2/9=110/2;
 99//99;
 2/9=110/2;
 3/5=4,6=6,7=700,11=2,16=1,25=1,30=1,71=1,74=-5/1,2,3;
 4/5=5,16=3/1;
 5/5=2,38=5/2;
 7//1,2,3,16;
 1/14=-1,18=20,19=15/3(-5);
 2/9=110/2;
 6/7=2,8=2,9=2,10=2,19=2,28=1/1;
 99/9=1/99;
 Leave Link    1 at Mon Mar 10 22:02:24 2014, MaxMem= 4026531840 cpu:       0.5
 (Enter /usr/caen/gaussian-09revc/g09/l101.exe)
 ------------------------------------
 C3H6O_2 using cbs-qb3 to cal. energy
 ------------------------------------
 Charge =  0 Multiplicity = 1
 Symbolic Z-Matrix:
 C                    -1.29057   0.61285   0.00202 
 H                    -2.14322  -0.05552   0.11388 
 H                    -1.38374   1.16549  -0.93897 
 H                    -1.28763   1.35368   0.80737 
 C                     1.29057   0.61285  -0.00202 
 H                     1.28762   1.35368  -0.80737 
 H                     2.14322  -0.05552  -0.11388 
 C                     0.       -0.18491   0. 
 O                     0.       -1.39651   0. 
 H                     1.38373   1.16549   0.93897 
 
 NAtoms=     10 NQM=        0 NQMF=       0 NMMI=     10 NMMIF=      0
                NMic=       0 NMicF=      0.
                    Isotopes and Nuclear Properties:
 (Nuclear quadrupole moments (NQMom) in fm**2, nuclear magnetic moments (NMagM)
  in nuclear magnetons)

  Atom         1           2           3           4           5           6           7           8           9          10
 IAtWgt=          12           1           1           1          12           1           1          12          16           1
 AtmWgt=  12.0000000   1.0078250   1.0078250   1.0078250  12.0000000   1.0078250   1.0078250  12.0000000  15.9949146   1.0078250
 NucSpn=           0           1           1           1           0           1           1           0           0           1
 AtZEff=   0.0000000   0.0000000   0.0000000   0.0000000   0.0000000   0.0000000   0.0000000   0.0000000   0.0000000   0.0000000
 NQMom=    0.0000000   0.0000000   0.0000000   0.0000000   0.0000000   0.0000000   0.0000000   0.0000000   0.0000000   0.0000000
 NMagM=    0.0000000   2.7928460   2.7928460   2.7928460   0.0000000   2.7928460   2.7928460   0.0000000   0.0000000   2.7928460
 Leave Link  101 at Mon Mar 10 22:02:24 2014, MaxMem= 4026531840 cpu:       3.1
 (Enter /usr/caen/gaussian-09revc/g09/l103.exe)

 GradGradGradGradGradGradGradGradGradGradGradGradGradGradGradGradGradGrad
 Berny optimization.
 Initialization pass.
                           ----------------------------
                           !    Initial Parameters    !
                           ! (Angstroms and Degrees)  !
 --------------------------                            --------------------------
 ! Name  Definition              Value          Derivative Info.                !
 --------------------------------------------------------------------------------
 ! R1    R(1,2)                  1.0891         calculate D2E/DX2 analytically  !
 ! R2    R(1,3)                  1.0952         calculate D2E/DX2 analytically  !
 ! R3    R(1,4)                  1.0943         calculate D2E/DX2 analytically  !
 ! R4    R(1,8)                  1.5172         calculate D2E/DX2 analytically  !
 ! R5    R(5,6)                  1.0943         calculate D2E/DX2 analytically  !
 ! R6    R(5,7)                  1.0891         calculate D2E/DX2 analytically  !
 ! R7    R(5,8)                  1.5172         calculate D2E/DX2 analytically  !
 ! R8    R(5,10)                 1.0952         calculate D2E/DX2 analytically  !
 ! R9    R(8,9)                  1.2116         calculate D2E/DX2 analytically  !
 ! A1    A(2,1,3)              109.347          calculate D2E/DX2 analytically  !
 ! A2    A(2,1,4)              109.9976         calculate D2E/DX2 analytically  !
 ! A3    A(2,1,8)              110.0829         calculate D2E/DX2 analytically  !
 ! A4    A(3,1,4)              106.9143         calculate D2E/DX2 analytically  !
 ! A5    A(3,1,8)              109.665          calculate D2E/DX2 analytically  !
 ! A6    A(4,1,8)              110.7725         calculate D2E/DX2 analytically  !
 ! A7    A(6,5,7)              109.9975         calculate D2E/DX2 analytically  !
 ! A8    A(6,5,8)              110.7725         calculate D2E/DX2 analytically  !
 ! A9    A(6,5,10)             106.9144         calculate D2E/DX2 analytically  !
 ! A10   A(7,5,8)              110.0829         calculate D2E/DX2 analytically  !
 ! A11   A(7,5,10)             109.347          calculate D2E/DX2 analytically  !
 ! A12   A(8,5,10)             109.665          calculate D2E/DX2 analytically  !
 ! A13   A(1,8,5)              116.556          calculate D2E/DX2 analytically  !
 ! A14   A(1,8,9)              121.7221         calculate D2E/DX2 analytically  !
 ! A15   A(5,8,9)              121.7219         calculate D2E/DX2 analytically  !
 ! D1    D(2,1,8,5)           -173.7974         calculate D2E/DX2 analytically  !
 ! D2    D(2,1,8,9)              6.2026         calculate D2E/DX2 analytically  !
 ! D3    D(3,1,8,5)             65.8555         calculate D2E/DX2 analytically  !
 ! D4    D(3,1,8,9)           -114.1445         calculate D2E/DX2 analytically  !
 ! D5    D(4,1,8,5)            -51.9191         calculate D2E/DX2 analytically  !
 ! D6    D(4,1,8,9)            128.0809         calculate D2E/DX2 analytically  !
 ! D7    D(6,5,8,1)            -51.9192         calculate D2E/DX2 analytically  !
 ! D8    D(6,5,8,9)            128.0808         calculate D2E/DX2 analytically  !
 ! D9    D(7,5,8,1)           -173.7974         calculate D2E/DX2 analytically  !
 ! D10   D(7,5,8,9)              6.2026         calculate D2E/DX2 analytically  !
 ! D11   D(10,5,8,1)            65.8554         calculate D2E/DX2 analytically  !
 ! D12   D(10,5,8,9)          -114.1446         calculate D2E/DX2 analytically  !
 --------------------------------------------------------------------------------
 Trust Radius=3.00D-01 FncErr=1.00D-07 GrdErr=1.00D-06
 Number of steps in this run=     46 maximum allowed number of steps=    100.
 GradGradGradGradGradGradGradGradGradGradGradGradGradGradGradGradGradGrad

 Leave Link  103 at Mon Mar 10 22:02:25 2014, MaxMem= 4026531840 cpu:       0.3
 (Enter /usr/caen/gaussian-09revc/g09/l202.exe)
                          Input orientation:                          
 ---------------------------------------------------------------------
 Center     Atomic      Atomic             Coordinates (Angstroms)
 Number     Number       Type             X           Y           Z
 ---------------------------------------------------------------------
      1          6           0       -1.290573    0.612849    0.002020
      2          1           0       -2.143219   -0.055520    0.113876
      3          1           0       -1.383738    1.165488   -0.938971
      4          1           0       -1.287625    1.353676    0.807366
      5          6           0        1.290571    0.612852   -0.002020
      6          1           0        1.287623    1.353677   -0.807367
      7          1           0        2.143218   -0.055515   -0.113875
      8          6           0        0.000000   -0.184909    0.000000
      9          8           0        0.000003   -1.396506    0.000000
     10          1           0        1.383734    1.165492    0.938971
 ---------------------------------------------------------------------
                    Distance matrix (angstroms):
                    1          2          3          4          5
     1  C    0.000000
     2  H    1.089144   0.000000
     3  H    1.095241   1.782178   0.000000
     4  H    1.094265   1.788520   1.759075   0.000000
     5  C    2.581147   3.500152   2.887077   2.801967   0.000000
     6  H    2.801969   3.821675   2.681213   3.039616   1.094264
     7  H    3.500152   4.292483   3.822440   3.821673   1.089143
     8  C    1.517235   2.150139   2.149411   2.162652   1.517234
     9  O    2.388116   2.530733   3.059447   3.142185   2.388114
    10  H    2.887076   3.822440   3.344483   2.681211   1.095242
                    6          7          8          9         10
     6  H    0.000000
     7  H    1.788518   0.000000
     8  C    2.162651   2.150138   0.000000
     9  O    3.142183   2.530730   1.211597   0.000000
    10  H    1.759076   1.782178   2.149411   3.059446   0.000000
 Stoichiometry    C3H6O
 Framework group  C1[X(C3H6O)]
 Deg. of freedom    24
 Full point group                 C1      NOp   1
 Largest Abelian subgroup         C1      NOp   1
 Largest concise Abelian subgroup C1      NOp   1
                         Standard orientation:                         
 ---------------------------------------------------------------------
 Center     Atomic      Atomic             Coordinates (Angstroms)
 Number     Number       Type             X           Y           Z
 ---------------------------------------------------------------------
      1          6           0       -1.290574   -0.612848   -0.002020
      2          1           0       -2.143219    0.055522   -0.113876
      3          1           0       -1.383739   -1.165487    0.938971
      4          1           0       -1.287626   -1.353675   -0.807366
      5          6           0        1.290570   -0.612853    0.002020
      6          1           0        1.287622   -1.353678    0.807367
      7          1           0        2.143218    0.055513    0.113875
      8          6           0        0.000000    0.184909    0.000000
      9          8           0        0.000004    1.396506    0.000000
     10          1           0        1.383733   -1.165493   -0.938971
 ---------------------------------------------------------------------
 Rotational constants (GHZ):     10.1558155      8.4864837      4.9028267
 Leave Link  202 at Mon Mar 10 22:02:25 2014, MaxMem= 4026531840 cpu:       0.2
 (Enter /usr/caen/gaussian-09revc/g09/l301.exe)
 Standard basis: 6-311G(2d,d,p) (5D, 7F)
 Ernie: Thresh=  0.10000D-02 Tol=  0.10000D-05 Strict=F.
 There are   108 symmetry adapted basis functions of A   symmetry.
 Integral buffers will be    131072 words long.
 Raffenetti 2 integral format.
 Two-electron integral symmetry is turned on.
   108 basis functions,   176 primitive gaussians,   112 cartesian basis functions
    16 alpha electrons       16 beta electrons
       nuclear repulsion energy       119.2839397866 Hartrees.
 IExCor=  402 DFT=T Ex+Corr=B3LYP ExCW=0 ScaHFX=  0.200000
 ScaDFX=  0.800000  0.720000  1.000000  0.810000 ScalE2=  1.000000  1.000000
 IRadAn=      0 IRanWt=     -1 IRanGd=            0 ICorTp=0
 NAtoms=   10 NActive=   10 NUniq=   10 SFac= 1.00D+00 NAtFMM=   60 NAOKFM=F Big=F
 Leave Link  301 at Mon Mar 10 22:02:25 2014, MaxMem= 4026531840 cpu:       0.7
 (Enter /usr/caen/gaussian-09revc/g09/l302.exe)
 NPDir=0 NMtPBC=     1 NCelOv=     1 NCel=       1 NClECP=     1 NCelD=      1
         NCelK=      1 NCelE2=     1 NClLst=     1 CellRange=     0.0.
 One-electron integrals computed using PRISM.
 NBasis=   108 RedAO= T  NBF=   108
 NBsUse=   108 1.00D-06 NBFU=   108
 Precomputing XC quadrature grid using
 IXCGrd= 2 IRadAn=           0 IRanWt=          -1 IRanGd=           0 AccXCQ= 0.00D+00.
 NRdTot=     626 NPtTot=       79440 NUsed=       83965 NTot=       83997
 NSgBfM=   112   112   112   112   112 NAtAll=    10    10.
 Leave Link  302 at Mon Mar 10 22:02:25 2014, MaxMem= 4026531840 cpu:       1.7
 (Enter /usr/caen/gaussian-09revc/g09/l303.exe)
 DipDrv:  MaxL=1.
 Leave Link  303 at Mon Mar 10 22:02:26 2014, MaxMem= 4026531840 cpu:       0.5
 (Enter /usr/caen/gaussian-09revc/g09/l401.exe)
 Harris functional with IExCor=  402 diagonalized for initial guess.
 ExpMin= 1.03D-01 ExpMax= 8.59D+03 ExpMxC= 1.30D+03 IAcc=1 IRadAn=         1 AccDes= 0.00D+00
 HarFok:  IExCor=  402 AccDes= 0.00D+00 IRadAn=         1 IDoV= 1
 ScaDFX=  1.000000  1.000000  1.000000  1.000000
 FoFCou: FMM=F IPFlag=           0 FMFlag=      100000 FMFlg1=           0
         NFxFlg=           0 DoJE=T BraDBF=F KetDBF=T FulRan=T
         Omega=  0.000000  0.000000  1.000000  0.000000  0.000000 ICntrl=     500 IOpCl=  0
         NMat0=    1 NMatS0=    1 NMatT0=    0 NMatD0=    1 NMtDS0=    0 NMtDT0=    0
         I1Cent=           4 NGrid=           0.
 Petite list used in FoFCou.
 Harris En= -193.260344898266    
 Initial guess orbital symmetries:
       Occupied  (A) (A) (A) (A) (A) (A) (A) (A) (A) (A) (A) (A)
                 (A) (A) (A) (A)
       Virtual   (A) (A) (A) (A) (A) (A) (A) (A) (A) (A) (A) (A)
                 (A) (A) (A) (A) (A) (A) (A) (A) (A) (A) (A) (A)
                 (A) (A) (A) (A) (A) (A) (A) (A) (A) (A) (A) (A)
                 (A) (A) (A) (A) (A) (A) (A) (A) (A) (A) (A) (A)
                 (A) (A) (A) (A) (A) (A) (A) (A) (A) (A) (A) (A)
                 (A) (A) (A) (A) (A) (A) (A) (A) (A) (A) (A) (A)
                 (A) (A) (A) (A) (A) (A) (A) (A) (A) (A) (A) (A)
                 (A) (A) (A) (A) (A) (A) (A) (A)
 The electronic state of the initial guess is 1-A.
 Leave Link  401 at Mon Mar 10 22:02:26 2014, MaxMem= 4026531840 cpu:       2.0
 (Enter /usr/caen/gaussian-09revc/g09/l502.exe)
 Closed shell SCF:
 Requested convergence on RMS density matrix=1.00D-08 within 128 cycles.
 Requested convergence on MAX density matrix=1.00D-06.
 Requested convergence on             energy=1.00D-06.
 No special actions if energy rises.
 Using DIIS extrapolation, IDIIS=  1040.
 Integral symmetry usage will be decided dynamically.
        83862 words used for storage of precomputed grid.
 Keep R1 ints in memory in canonical form, NReq=21100604.
 IEnd=      141380 IEndB=      141380 NGot=  4026531840 MDV=  4006394773
 LenX=  4006394773 LenY=  4006381788
 Symmetry not used in FoFDir.
 MinBra= 0 MaxBra= 2 Meth= 1.
 IRaf=       0 NMat=   1 IRICut=       1 DoRegI=T DoRafI=F ISym2E= 0 JSym2E=0.
 Integral accuracy reduced to 1.0D-05 until final iterations.

 Cycle   1  Pass 0  IDiag  1:
 E= -193.047325910115    
 DIIS: error= 5.01D-02 at cycle   1 NSaved=   1.
 NSaved= 1 IEnMin= 1 EnMin= -193.047325910115     IErMin= 1 ErrMin= 5.01D-02
 ErrMax= 5.01D-02 EMaxC= 1.00D-01 BMatC= 1.96D-01 BMatP= 1.96D-01
 IDIUse=3 WtCom= 4.99D-01 WtEn= 5.01D-01
 Coeff-Com:  0.100D+01
 Coeff-En:   0.100D+01
 Coeff:      0.100D+01
 Gap=     0.138 Goal=   None    Shift=    0.000
 GapD=    0.138 DampG=1.000 DampE=0.500 DampFc=0.5000 IDamp=-1.
 Damping current iteration by 5.00D-01
 RMSDP=9.66D-03 MaxDP=2.51D-01              OVMax= 2.85D-01

 Cycle   2  Pass 0  IDiag  1:
 E= -193.105427995004     Delta-E=       -0.058102084889 Rises=F Damp=T
 DIIS: error= 2.06D-02 at cycle   2 NSaved=   2.
 NSaved= 2 IEnMin= 2 EnMin= -193.105427995004     IErMin= 2 ErrMin= 2.06D-02
 ErrMax= 2.06D-02 EMaxC= 1.00D-01 BMatC= 2.06D-02 BMatP= 1.96D-01
 IDIUse=3 WtCom= 7.94D-01 WtEn= 2.06D-01
 Coeff-Com:  0.174D+00 0.826D+00
 Coeff-En:   0.271D+00 0.729D+00
 Coeff:      0.194D+00 0.806D+00
 Gap=     0.301 Goal=   None    Shift=    0.000
 RMSDP=2.67D-03 MaxDP=7.50D-02 DE=-5.81D-02 OVMax= 2.16D-01

 Cycle   3  Pass 0  IDiag  1:
 E= -193.192831335441     Delta-E=       -0.087403340436 Rises=F Damp=F
 DIIS: error= 2.34D-02 at cycle   3 NSaved=   3.
 NSaved= 3 IEnMin= 3 EnMin= -193.192831335441     IErMin= 2 ErrMin= 2.06D-02
 ErrMax= 2.34D-02 EMaxC= 1.00D-01 BMatC= 2.46D-02 BMatP= 2.06D-02
 IDIUse=2 WtCom= 0.00D+00 WtEn= 1.00D+00
 Coeff-En:   0.000D+00 0.000D+00 0.100D+01
 Coeff:      0.000D+00 0.000D+00 0.100D+01
 Gap=     0.210 Goal=   None    Shift=    0.000
 RMSDP=3.66D-03 MaxDP=6.99D-02 DE=-8.74D-02 OVMax= 1.89D-01

 Cycle   4  Pass 0  IDiag  1:
 E= -193.113745751399     Delta-E=        0.079085584041 Rises=F Damp=F
 DIIS: error= 6.08D-02 at cycle   4 NSaved=   4.
 NSaved= 4 IEnMin= 3 EnMin= -193.192831335441     IErMin= 2 ErrMin= 2.06D-02
 ErrMax= 6.08D-02 EMaxC= 1.00D-01 BMatC= 1.29D-01 BMatP= 2.06D-02
 IDIUse=2 WtCom= 0.00D+00 WtEn= 1.00D+00
 Coeff-En:   0.000D+00 0.000D+00 0.779D+00 0.221D+00
 Coeff:      0.000D+00 0.000D+00 0.779D+00 0.221D+00
 Gap=     0.224 Goal=   None    Shift=    0.000
 RMSDP=2.15D-03 MaxDP=4.72D-02 DE= 7.91D-02 OVMax= 1.00D-01

 Cycle   5  Pass 0  IDiag  1:
 E= -193.206438216867     Delta-E=       -0.092692465467 Rises=F Damp=F
 DIIS: error= 1.38D-02 at cycle   5 NSaved=   5.
 NSaved= 5 IEnMin= 5 EnMin= -193.206438216867     IErMin= 5 ErrMin= 1.38D-02
 ErrMax= 1.38D-02 EMaxC= 1.00D-01 BMatC= 8.16D-03 BMatP= 2.06D-02
 IDIUse=3 WtCom= 8.62D-01 WtEn= 1.38D-01
 Coeff-Com: -0.120D-01 0.392D-01 0.275D+00-0.952D-01 0.793D+00
 Coeff-En:   0.000D+00 0.000D+00 0.293D+00 0.000D+00 0.707D+00
 Coeff:     -0.103D-01 0.338D-01 0.277D+00-0.821D-01 0.781D+00
 Gap=     0.234 Goal=   None    Shift=    0.000
 RMSDP=6.18D-04 MaxDP=1.10D-02 DE=-9.27D-02 OVMax= 3.05D-02

 Cycle   6  Pass 0  IDiag  1:
 E= -193.212970049649     Delta-E=       -0.006531832782 Rises=F Damp=F
 DIIS: error= 6.24D-04 at cycle   6 NSaved=   6.
 NSaved= 6 IEnMin= 6 EnMin= -193.212970049649     IErMin= 6 ErrMin= 6.24D-04
 ErrMax= 6.24D-04 EMaxC= 1.00D-01 BMatC= 1.86D-05 BMatP= 8.16D-03
 IDIUse=3 WtCom= 9.94D-01 WtEn= 6.24D-03
 Coeff-Com: -0.524D-02 0.998D-02 0.755D-01-0.343D-01 0.279D+00 0.675D+00
 Coeff-En:   0.000D+00 0.000D+00 0.000D+00 0.000D+00 0.000D+00 0.100D+01
 Coeff:     -0.521D-02 0.991D-02 0.751D-01-0.341D-01 0.277D+00 0.677D+00
 Gap=     0.233 Goal=   None    Shift=    0.000
 RMSDP=3.44D-05 MaxDP=6.06D-04 DE=-6.53D-03 OVMax= 1.57D-03

 Cycle   7  Pass 0  IDiag  1:
 E= -193.212983329548     Delta-E=       -0.000013279899 Rises=F Damp=F
 DIIS: error= 9.73D-05 at cycle   7 NSaved=   7.
 NSaved= 7 IEnMin= 7 EnMin= -193.212983329548     IErMin= 7 ErrMin= 9.73D-05
 ErrMax= 9.73D-05 EMaxC= 1.00D-01 BMatC= 4.68D-07 BMatP= 1.86D-05
 IDIUse=1 WtCom= 1.00D+00 WtEn= 0.00D+00
 Coeff-Com: -0.114D-02 0.124D-02 0.159D-01-0.778D-02 0.663D-01 0.300D+00
 Coeff-Com:  0.625D+00
 Coeff:     -0.114D-02 0.124D-02 0.159D-01-0.778D-02 0.663D-01 0.300D+00
 Coeff:      0.625D+00
 Gap=     0.233 Goal=   None    Shift=    0.000
 RMSDP=8.47D-06 MaxDP=1.88D-04 DE=-1.33D-05 OVMax= 2.02D-04

 Initial convergence to 1.0D-05 achieved.  Increase integral accuracy.
 Cycle   8  Pass 1  IDiag  1:
 E= -193.213003974827     Delta-E=       -0.000020645279 Rises=F Damp=F
 DIIS: error= 1.11D-05 at cycle   1 NSaved=   1.
 NSaved= 1 IEnMin= 1 EnMin= -193.213003974827     IErMin= 1 ErrMin= 1.11D-05
 ErrMax= 1.11D-05 EMaxC= 1.00D-01 BMatC= 1.34D-08 BMatP= 1.34D-08
 IDIUse=1 WtCom= 1.00D+00 WtEn= 0.00D+00
 Coeff-Com:  0.100D+01
 Coeff:      0.100D+01
 Gap=     0.233 Goal=   None    Shift=    0.000
 RMSDP=8.47D-06 MaxDP=1.88D-04 DE=-2.06D-05 OVMax= 5.73D-05

 Cycle   9  Pass 1  IDiag  1:
 E= -193.213003976031     Delta-E=       -0.000000001204 Rises=F Damp=F
 DIIS: error= 2.13D-05 at cycle   2 NSaved=   2.
 NSaved= 2 IEnMin= 2 EnMin= -193.213003976031     IErMin= 1 ErrMin= 1.11D-05
 ErrMax= 2.13D-05 EMaxC= 1.00D-01 BMatC= 1.82D-08 BMatP= 1.34D-08
 IDIUse=1 WtCom= 1.00D+00 WtEn= 0.00D+00
 Coeff-Com:  0.548D+00 0.452D+00
 Coeff:      0.548D+00 0.452D+00
 Gap=     0.233 Goal=   None    Shift=    0.000
 RMSDP=1.13D-06 MaxDP=2.18D-05 DE=-1.20D-09 OVMax= 6.29D-05

 Cycle  10  Pass 1  IDiag  1:
 E= -193.213003986806     Delta-E=       -0.000000010775 Rises=F Damp=F
 DIIS: error= 9.40D-06 at cycle   3 NSaved=   3.
 NSaved= 3 IEnMin= 3 EnMin= -193.213003986806     IErMin= 3 ErrMin= 9.40D-06
 ErrMax= 9.40D-06 EMaxC= 1.00D-01 BMatC= 3.47D-09 BMatP= 1.34D-08
 IDIUse=1 WtCom= 1.00D+00 WtEn= 0.00D+00
 Coeff-Com:  0.606D-01 0.300D+00 0.639D+00
 Coeff:      0.606D-01 0.300D+00 0.639D+00
 Gap=     0.233 Goal=   None    Shift=    0.000
 RMSDP=6.25D-07 MaxDP=1.26D-05 DE=-1.08D-08 OVMax= 2.50D-05

 Cycle  11  Pass 1  IDiag  1:
 E= -193.213003989123     Delta-E=       -0.000000002317 Rises=F Damp=F
 DIIS: error= 2.22D-06 at cycle   4 NSaved=   4.
 NSaved= 4 IEnMin= 4 EnMin= -193.213003989123     IErMin= 4 ErrMin= 2.22D-06
 ErrMax= 2.22D-06 EMaxC= 1.00D-01 BMatC= 2.77D-10 BMatP= 3.47D-09
 IDIUse=1 WtCom= 1.00D+00 WtEn= 0.00D+00
 Coeff-Com: -0.983D-02 0.125D+00 0.354D+00 0.530D+00
 Coeff:     -0.983D-02 0.125D+00 0.354D+00 0.530D+00
 Gap=     0.233 Goal=   None    Shift=    0.000
 RMSDP=1.48D-07 MaxDP=2.46D-06 DE=-2.32D-09 OVMax= 4.99D-06

 Cycle  12  Pass 1  IDiag  1:
 E= -193.213003989383     Delta-E=       -0.000000000260 Rises=F Damp=F
 DIIS: error= 1.75D-07 at cycle   5 NSaved=   5.
 NSaved= 5 IEnMin= 5 EnMin= -193.213003989383     IErMin= 5 ErrMin= 1.75D-07
 ErrMax= 1.75D-07 EMaxC= 1.00D-01 BMatC= 3.19D-12 BMatP= 2.77D-10
 IDIUse=1 WtCom= 1.00D+00 WtEn= 0.00D+00
 Coeff-Com: -0.551D-02 0.297D-01 0.938D-01 0.172D+00 0.710D+00
 Coeff:     -0.551D-02 0.297D-01 0.938D-01 0.172D+00 0.710D+00
 Gap=     0.233 Goal=   None    Shift=    0.000
 RMSDP=1.60D-08 MaxDP=3.77D-07 DE=-2.60D-10 OVMax= 5.68D-07

 Cycle  13  Pass 1  IDiag  1:
 E= -193.213003989386     Delta-E=       -0.000000000003 Rises=F Damp=F
 DIIS: error= 3.63D-08 at cycle   6 NSaved=   6.
 NSaved= 6 IEnMin= 6 EnMin= -193.213003989386     IErMin= 6 ErrMin= 3.63D-08
 ErrMax= 3.63D-08 EMaxC= 1.00D-01 BMatC= 1.20D-13 BMatP= 3.19D-12
 IDIUse=1 WtCom= 1.00D+00 WtEn= 0.00D+00
 Coeff-Com: -0.771D-03 0.233D-02 0.459D-02 0.181D-01 0.133D+00 0.843D+00
 Coeff:     -0.771D-03 0.233D-02 0.459D-02 0.181D-01 0.133D+00 0.843D+00
 Gap=     0.233 Goal=   None    Shift=    0.000
 RMSDP=5.46D-09 MaxDP=1.27D-07 DE=-2.79D-12 OVMax= 1.06D-07

 SCF Done:  E(RB3LYP) =  -193.213003989     A.U. after   13 cycles
             Convg  =    0.5462D-08             -V/T =  2.0039
 KE= 1.924559954901D+02 PE=-6.897019332132D+02 EE= 1.847489939471D+02
 Leave Link  502 at Mon Mar 10 22:02:29 2014, MaxMem= 4026531840 cpu:      18.1
 (Enter /usr/caen/gaussian-09revc/g09/l801.exe)
 Range of M.O.s used for correlation:     1   108
 NBasis=   108 NAE=    16 NBE=    16 NFC=     0 NFV=     0
 NROrb=    108 NOA=    16 NOB=    16 NVA=    92 NVB=    92
 Leave Link  801 at Mon Mar 10 22:02:29 2014, MaxMem= 4026531840 cpu:       0.2
 (Enter /usr/caen/gaussian-09revc/g09/l1101.exe)
 Using compressed storage, NAtomX=    10.
 Will process  11 centers per pass.
 Leave Link 1101 at Mon Mar 10 22:02:30 2014, MaxMem= 4026531840 cpu:       1.5
 (Enter /usr/caen/gaussian-09revc/g09/l1102.exe)
 Symmetrizing basis deriv contribution to polar:
 IMax=3 JMax=2 DiffMx= 0.00D+00
 Leave Link 1102 at Mon Mar 10 22:02:30 2014, MaxMem= 4026531840 cpu:       1.1
 (Enter /usr/caen/gaussian-09revc/g09/l1110.exe)
 Forming Gx(P) for the SCF density, NAtomX=    10.
 Integral derivatives from FoFDir/FoFCou, PRISM(SPDF).
 Do as many integral derivatives as possible in FoFDir.
 G2DrvN: MDV=    4026531656.
 G2DrvN: will do    11 centers at a time, making    1 passes doing MaxLOS=2.
 Calling FoFCou, ICntrl=  3107 FMM=F I1Cent=   0 AccDes= 0.00D+00.
 FoFCou: FMM=F IPFlag=           0 FMFlag=      100000 FMFlg1=           0
         NFxFlg=           0 DoJE=F BraDBF=F KetDBF=F FulRan=T
         Omega=  0.000000  0.000000  1.000000  0.000000  0.000000 ICntrl=    3107 IOpCl=  0
         NMat0=    1 NMatS0=    1 NMatT0=    0 NMatD0=    1 NMtDS0=    0 NMtDT0=    0
         I1Cent=           0 NGrid=           0.
 Symmetry not used in FoFCou.
 FoFDir/FoFCou used for L=0 through L=2.
 End of G2Drv Frequency-dependent properties file   721 does not exist.
 End of G2Drv Frequency-dependent properties file   722 does not exist.
 Leave Link 1110 at Mon Mar 10 22:02:35 2014, MaxMem= 4026531840 cpu:      33.9
 (Enter /usr/caen/gaussian-09revc/g09/l1002.exe)
 Minotr:  Closed shell wavefunction.
          IDoAtm=1111111111
          Direct CPHF calculation.
          Differentiating once with respect to nuclear coordinates.
          Requested convergence is 1.0D-06 RMS, and 1.0D-05 maximum.
          Secondary convergence is 1.0D-12 RMS, and 1.0D-12 maximum.
          NewPWx=T KeepS1=F KeepF1=F KeepIn=T MapXYZ=F SortEE=F KeepMc=T.
          MDV=    4026531736 using IRadAn=       2.
 Generate precomputed XC quadrature information.
          Keep R1 ints in memory in canonical form, NReq=20848089.
 Symmetry not used in FoFDir.
 MinBra= 0 MaxBra= 2 Meth= 1.
 IRaf=       0 NMat=   1 IRICut=       1 DoRegI=T DoRafI=F ISym2E= 0 JSym2E=0.
          Solving linear equations simultaneously, MaxMat=       0.
          There are    33 degrees of freedom in the 1st order CPHF.  IDoFFX=5.
     27 vectors produced by pass  0 Test12= 4.46D-11 3.03D-07 XBig12= 1.97D-01 1.64D-01.
 AX will form    27 AO Fock derivatives at one time.
     27 vectors produced by pass  1 Test12= 4.46D-11 3.03D-07 XBig12= 3.04D-02 6.87D-02.
     27 vectors produced by pass  2 Test12= 4.46D-11 3.03D-07 XBig12= 6.93D-05 2.00D-03.
     27 vectors produced by pass  3 Test12= 4.46D-11 3.03D-07 XBig12= 3.25D-07 1.12D-04.
     12 vectors produced by pass  4 Test12= 4.46D-11 3.03D-07 XBig12= 4.89D-10 5.49D-06.
 Inverted reduced A of dimension   120 with in-core refinement.
 End of Minotr Frequency-dependent properties file   721 does not exist.
 End of Minotr Frequency-dependent properties file   722 does not exist.
 Leave Link 1002 at Mon Mar 10 22:02:39 2014, MaxMem= 4026531840 cpu:      33.5
 (Enter /usr/caen/gaussian-09revc/g09/l601.exe)
 Copying SCF densities to generalized density rwf, IOpCl= 0 IROHF=0.

 **********************************************************************

            Population analysis using the SCF density.

 **********************************************************************

 Orbital symmetries:
       Occupied  (A) (A) (A) (A) (A) (A) (A) (A) (A) (A) (A) (A)
                 (A) (A) (A) (A)
       Virtual   (A) (A) (A) (A) (A) (A) (A) (A) (A) (A) (A) (A)
                 (A) (A) (A) (A) (A) (A) (A) (A) (A) (A) (A) (A)
                 (A) (A) (A) (A) (A) (A) (A) (A) (A) (A) (A) (A)
                 (A) (A) (A) (A) (A) (A) (A) (A) (A) (A) (A) (A)
                 (A) (A) (A) (A) (A) (A) (A) (A) (A) (A) (A) (A)
                 (A) (A) (A) (A) (A) (A) (A) (A) (A) (A) (A) (A)
                 (A) (A) (A) (A) (A) (A) (A) (A) (A) (A) (A) (A)
                 (A) (A) (A) (A) (A) (A) (A) (A)
 The electronic state is 1-A.
 Alpha  occ. eigenvalues --  -19.10700 -10.26337 -10.17721 -10.17720  -1.04526
 Alpha  occ. eigenvalues --   -0.77371  -0.71579  -0.53657  -0.46537  -0.46498
 Alpha  occ. eigenvalues --   -0.45556  -0.40939  -0.40070  -0.38522  -0.35510
 Alpha  occ. eigenvalues --   -0.25245
 Alpha virt. eigenvalues --   -0.01901   0.03261   0.08403   0.09643   0.09936
 Alpha virt. eigenvalues --    0.12549   0.12880   0.16831   0.23602   0.25168
 Alpha virt. eigenvalues --    0.27825   0.30760   0.34432   0.38376   0.41084
 Alpha virt. eigenvalues --    0.46430   0.47881   0.53165   0.55108   0.56139
 Alpha virt. eigenvalues --    0.57927   0.58565   0.59158   0.61301   0.63377
 Alpha virt. eigenvalues --    0.65421   0.73818   0.80122   0.85667   0.91033
 Alpha virt. eigenvalues --    0.96161   1.03975   1.09548   1.23704   1.26699
 Alpha virt. eigenvalues --    1.36432   1.41992   1.42840   1.45115   1.45905
 Alpha virt. eigenvalues --    1.47725   1.48724   1.48749   1.50435   1.51550
 Alpha virt. eigenvalues --    1.55862   1.64774   1.69219   1.73906   1.80140
 Alpha virt. eigenvalues --    1.87889   1.89729   1.98525   2.00477   2.03845
 Alpha virt. eigenvalues --    2.16607   2.20711   2.23415   2.32818   2.38372
 Alpha virt. eigenvalues --    2.39846   2.41896   2.44281   2.46264   2.46530
 Alpha virt. eigenvalues --    2.48904   2.54153   2.56836   2.70058   2.74374
 Alpha virt. eigenvalues --    2.81117   2.81712   2.90983   2.91775   3.01232
 Alpha virt. eigenvalues --    3.12801   3.32219   3.43512   3.54614   3.72686
 Alpha virt. eigenvalues --    3.79489   3.83826   3.84342   4.00454   4.19834
 Alpha virt. eigenvalues --    4.88494   5.04109   5.58226  23.77028  23.88216
 Alpha virt. eigenvalues --   23.92603  49.95375
          Condensed to atoms (all electrons):
              1          2          3          4          5          6
     1  C    5.128676   0.372618   0.376074   0.375586  -0.150460   0.004966
     2  H    0.372618   0.532574  -0.016889  -0.019406   0.011559  -0.000404
     3  H    0.376074  -0.016889   0.558426  -0.025292   0.002614   0.000439
     4  H    0.375586  -0.019406  -0.025292   0.568999   0.004966  -0.001139
     5  C   -0.150460   0.011559   0.002614   0.004966   5.128677   0.375586
     6  H    0.004966  -0.000404   0.000439  -0.001139   0.375586   0.568999
     7  H    0.011559  -0.000646  -0.000619  -0.000404   0.372618  -0.019406
     8  C    0.295819  -0.024914  -0.022115  -0.025475   0.295819  -0.025475
     9  O   -0.100000   0.011906   0.001682   0.002579  -0.100001   0.002579
    10  H    0.002614  -0.000619  -0.000137   0.000439   0.376074  -0.025292
              7          8          9         10
     1  C    0.011559   0.295819  -0.100000   0.002614
     2  H   -0.000646  -0.024914   0.011906  -0.000619
     3  H   -0.000619  -0.022115   0.001682  -0.000137
     4  H   -0.000404  -0.025475   0.002579   0.000439
     5  C    0.372618   0.295819  -0.100001   0.376074
     6  H   -0.019406  -0.025475   0.002579  -0.025292
     7  H    0.532574  -0.024914   0.011906  -0.016889
     8  C   -0.024914   4.708329   0.678360  -0.022115
     9  O    0.011906   0.678360   7.779452   0.001682
    10  H   -0.016889  -0.022115   0.001682   0.558426
 Mulliken atomic charges:
              1
     1  C   -0.317452
     2  H    0.134222
     3  H    0.125817
     4  H    0.119146
     5  C   -0.317453
     6  H    0.119146
     7  H    0.134222
     8  C    0.166683
     9  O   -0.290147
    10  H    0.125817
 Sum of Mulliken atomic charges =   0.00000
 Mulliken charges with hydrogens summed into heavy atoms:
              1
     1  C    0.061733
     5  C    0.061732
     8  C    0.166683
     9  O   -0.290147
 Sum of Mulliken charges with hydrogens summed into heavy atoms =   0.00000
 APT atomic charges:
              1
     1  C   -0.933914
     2  H    0.369115
     3  H    0.342699
     4  H    0.334841
     5  C   -0.933914
     6  H    0.334841
     7  H    0.369115
     8  C   -0.209264
     9  O   -0.016218
    10  H    0.342698
 Sum of APT charges=   0.00000
 APT Atomic charges with hydrogens summed into heavy atoms:
              1
     1  C    0.112741
     2  H    0.000000
     3  H    0.000000
     4  H    0.000000
     5  C    0.112741
     6  H    0.000000
     7  H    0.000000
     8  C   -0.209264
     9  O   -0.016218
    10  H    0.000000
 Sum of APT charges=   0.00000
 Electronic spatial extent (au):  <R**2>=            293.3550
 Charge=              0.0000 electrons
 Dipole moment (field-independent basis, Debye):
    X=              0.0000    Y=             -2.8576    Z=              0.0000  Tot=              2.8576
 Quadrupole moment (field-independent basis, Debye-Ang):
   XX=            -23.9683   YY=            -28.7611   ZZ=            -24.2846
   XY=              0.0000   XZ=             -0.0691   YZ=              0.0000
 Traceless Quadrupole moment (field-independent basis, Debye-Ang):
   XX=              1.7030   YY=             -3.0897   ZZ=              1.3867
   XY=              0.0000   XZ=             -0.0691   YZ=              0.0000
 Octapole moment (field-independent basis, Debye-Ang**2):
  XXX=              0.0000  YYY=             -1.6593  ZZZ=              0.0000  XYY=              0.0000
  XXY=              2.4890  XXZ=              0.0000  XZZ=              0.0000  YZZ=              0.3826
  YYZ=              0.0000  XYZ=              0.2392
 Hexadecapole moment (field-independent basis, Debye-Ang**3):
 XXXX=           -201.2037 YYYY=           -151.9175 ZZZZ=            -37.3416 XXXY=              0.0000
 XXXZ=              0.5280 YYYX=              0.0000 YYYZ=              0.0000 ZZZX=             -0.9056
 ZZZY=              0.0000 XXYY=            -58.5556 XXZZ=            -40.6842 YYZZ=            -27.2983
 XXYZ=              0.0000 YYXZ=              0.1339 ZZXY=              0.0000
 N-N= 1.192839397866D+02 E-N=-6.897019356297D+02  KE= 1.924559954901D+02
  Exact polarizability:   0.000   0.000   0.000   0.000   0.000   0.000
 Approx polarizability:  47.706   0.000  64.708  -0.156   0.000  41.379
 No NMR shielding tensors so no spin-rotation constants.
 Leave Link  601 at Mon Mar 10 22:02:40 2014, MaxMem= 4026531840 cpu:       2.3
 (Enter /usr/caen/gaussian-09revc/g09/l701.exe)
 Compute integral second derivatives.
 ... and contract with generalized density number  0.
 Leave Link  701 at Mon Mar 10 22:02:41 2014, MaxMem= 4026531840 cpu:       2.4
 (Enter /usr/caen/gaussian-09revc/g09/l702.exe)
 L702 exits ... SP integral derivatives will be done elsewhere.
 Leave Link  702 at Mon Mar 10 22:02:41 2014, MaxMem= 4026531840 cpu:       0.2
 (Enter /usr/caen/gaussian-09revc/g09/l703.exe)
 Compute integral second derivatives, UseDBF=F ICtDFT=           0.
 Integral derivatives from FoFDir, PRISM(SPDF).
 Calling FoFJK, ICntrl=    100147 FMM=F ISym2X=0 I1Cent= 0 IOpClX= 0 NMat=1 NMatS=1 NMatT=0.
 FoFCou: FMM=F IPFlag=           0 FMFlag=      100000 FMFlg1=         800
         NFxFlg=           0 DoJE=F BraDBF=F KetDBF=F FulRan=T
         Omega=  0.000000  0.000000  1.000000  0.000000  0.000000 ICntrl=  100147 IOpCl=  0
         NMat0=    1 NMatS0=    1 NMatT0=    0 NMatD0=    1 NMtDS0=    0 NMtDT0=    0
         I1Cent=           0 NGrid=           0.
 Symmetry not used in FoFCou.
 Leave Link  703 at Mon Mar 10 22:02:48 2014, MaxMem= 4026531840 cpu:      53.2
 (Enter /usr/caen/gaussian-09revc/g09/l716.exe)
 Dipole        =-3.79544499D-06-1.12426957D+00 4.42250663D-07
 Polarizability= 0.00000000D+00 0.00000000D+00 0.00000000D+00
                 0.00000000D+00 0.00000000D+00 0.00000000D+00
 ***** Axes restored to original set *****
 -------------------------------------------------------------------
 Center     Atomic                   Forces (Hartrees/Bohr)
 Number     Number              X              Y              Z
 -------------------------------------------------------------------
      1        6          -0.000108062    0.001022574   -0.000019853
      2        1           0.000416593   -0.000267208   -0.000015309
      3        1          -0.000203902    0.000099390    0.000064761
      4        1          -0.000229854    0.000100558   -0.000047226
      5        6           0.000107910    0.001022798    0.000020268
      6        1           0.000229759    0.000100937    0.000047020
      7        1          -0.000416338   -0.000267477    0.000015367
      8        6           0.000000260   -0.005255819   -0.000000042
      9        8          -0.000000298    0.003344889    0.000000009
     10        1           0.000203933    0.000099359   -0.000064994
 -------------------------------------------------------------------
 Cartesian Forces:  Max     0.005255819 RMS     0.001178414
 Force constants in Cartesian coordinates: 
                1             2             3             4             5 
      1  0.502882D+00
      2  0.703205D-01  0.547810D+00
      3 -0.584012D-02  0.164517D-02  0.515046D+00
      4 -0.211269D+00 -0.129686D+00  0.224565D-01  0.229318D+00
      5 -0.134572D+00 -0.153585D+00  0.171366D-01  0.142760D+00  0.161935D+00
      6  0.226990D-01  0.166772D-01 -0.507400D-01 -0.240986D-01 -0.192061D-01
      7 -0.491620D-01  0.104037D-01 -0.220517D-01  0.364179D-02 -0.110153D-01
      8  0.888622D-02 -0.106436D+00  0.117355D+00  0.331744D-02 -0.899736D-02
      9 -0.181379D-01  0.113930D+00 -0.234936D+00  0.112891D-03  0.438855D-04
     10 -0.495529D-01 -0.268526D-02  0.222761D-02  0.151467D-02 -0.148713D-01
     11 -0.352297D-02 -0.161538D+00 -0.134412D+00  0.184645D-02 -0.115559D-01
     12  0.391435D-03 -0.132019D+00 -0.184412D+00 -0.880874D-03  0.393639D-02
     13 -0.236986D-01 -0.130591D-01  0.426626D-03 -0.348391D-02  0.254789D-02
     14  0.130590D-01  0.139470D-01 -0.105010D-02  0.509873D-02 -0.185026D-02
     15  0.426651D-03  0.105007D-02  0.166647D-01  0.736394D-04  0.210228D-03
     16 -0.209683D-03  0.144278D-02 -0.259524D-02  0.607640D-03 -0.246453D-04
     17  0.556288D-03  0.409291D-03 -0.733039D-03  0.130569D-03 -0.793775D-04
     18 -0.111293D-03 -0.635205D-04 -0.214752D-03  0.135007D-03 -0.148959D-03
     19 -0.348394D-02 -0.509885D-02  0.736404D-04 -0.148724D-02  0.856782D-03
     20 -0.254786D-02 -0.185024D-02 -0.210213D-03 -0.856779D-03  0.552142D-03
     21 -0.196573D-03 -0.477503D-03  0.116980D-02 -0.118493D-03  0.833425D-04
     22 -0.172774D+00  0.255834D-01  0.207969D-02 -0.249982D-01  0.156823D-01
     23  0.268155D-01 -0.893868D-01 -0.169009D-02 -0.226637D-01  0.119256D-01
     24  0.262285D-03 -0.122746D-02 -0.877718D-01  0.310318D-02 -0.235537D-02
     25  0.762202D-02  0.415916D-01  0.569335D-03  0.588417D-02 -0.146160D-02
     26  0.206455D-01 -0.492462D-01  0.518628D-03 -0.855435D-05  0.171891D-02
     27  0.541543D-03  0.103849D-02  0.257127D-01 -0.630540D-03  0.179096D-03
     28 -0.353646D-03  0.118680D-02  0.265359D-02  0.272078D-03  0.976036D-04
     29  0.359904D-03 -0.125257D-03  0.144006D-02  0.612804D-04 -0.637920D-04
     30 -0.349648D-04 -0.553176D-03 -0.518305D-03 -0.152712D-03  0.120857D-03
                6             7             8             9            10 
      6  0.492631D-01
      7  0.223630D-01  0.478944D-01
      8  0.163347D-01 -0.126008D-01  0.116195D+00
      9 -0.170128D-02  0.202380D-01 -0.125188D+00  0.256803D+00
     10 -0.196876D-01 -0.446961D-03 -0.260838D-02 -0.223507D-02  0.472928D-01
     11 -0.138497D-01 -0.585808D-03  0.119118D-01  0.125616D-01  0.787650D-03
     12  0.358390D-02  0.285319D-03 -0.195889D-01 -0.210990D-01  0.144035D-02
     13 -0.196579D-03 -0.353615D-03 -0.359934D-03 -0.348977D-04 -0.209653D-03
     14  0.477515D-03 -0.118679D-02 -0.125212D-03  0.553189D-03 -0.144275D-02
     15  0.116990D-02  0.265357D-02 -0.143999D-02 -0.518363D-03 -0.259520D-02
     16 -0.204458D-03 -0.146176D-02  0.164397D-03  0.552956D-04  0.153667D-03
     17 -0.410090D-03 -0.321125D-03  0.687603D-03 -0.329455D-03  0.129088D-03
     18  0.138644D-03 -0.489829D-05 -0.609566D-04  0.577766D-03  0.101778D-03
     19 -0.118491D-03  0.272070D-03 -0.612111D-04 -0.152759D-03  0.607638D-03
     20 -0.833447D-04 -0.975959D-04 -0.638256D-04 -0.120832D-03  0.246491D-04
     21  0.523097D-03  0.450126D-03 -0.201160D-03  0.234891D-03 -0.204458D-03
     22 -0.119334D-02  0.206595D-02 -0.205649D-03  0.463426D-03  0.632788D-02
     23  0.342859D-03  0.122670D-01 -0.120276D-01 -0.235524D-03  0.168225D-01
     24 -0.134125D-02 -0.276902D-01  0.158520D-01  0.138906D-02  0.245772D-01
     25 -0.130550D-04 -0.284622D-02  0.389282D-02 -0.379886D-03 -0.422541D-02
     26 -0.484090D-03  0.271176D-02 -0.126267D-02 -0.124748D-02  0.400822D-02
     27 -0.113101D-02  0.368580D-02 -0.303024D-02 -0.783174D-03 -0.367987D-02
     28  0.450117D-03  0.396305D-03 -0.424930D-03  0.709605D-04 -0.146177D-02
     29  0.201105D-03  0.424929D-03  0.117860D-03  0.324328D-04 -0.164421D-03
     30  0.234819D-03  0.709590D-04 -0.324596D-04  0.333639D-04  0.552627D-04
               11            12            13            14            15 
     11  0.175987D+00
     12  0.144739D+00  0.201289D+00
     13 -0.556328D-03 -0.111339D-03  0.502883D+00
     14  0.409318D-03  0.635006D-04 -0.703208D-01  0.547811D+00
     15  0.732955D-03 -0.214812D-03 -0.584045D-02 -0.164599D-02  0.515046D+00
     16 -0.129082D-03  0.101775D-03 -0.495528D-01  0.268518D-02  0.222757D-02
     17  0.426617D-05 -0.101661D-03  0.352290D-02 -0.161538D+00  0.134412D+00
     18  0.101684D-03 -0.223987D-03  0.391445D-03  0.132020D+00 -0.184413D+00
     19 -0.130488D-03  0.135054D-03 -0.211270D+00  0.129686D+00  0.224565D-01
     20 -0.794240D-04  0.148923D-03  0.134572D+00 -0.153585D+00 -0.171365D-01
     21  0.410133D-03  0.138685D-03  0.226989D-01 -0.166771D-01 -0.507398D-01
     22 -0.314847D-02 -0.126970D-02 -0.172774D+00 -0.255838D-01  0.207958D-02
     23 -0.143293D-01  0.171122D-02 -0.268156D-01 -0.893867D-01  0.169013D-02
     24 -0.123231D-01  0.977035D-03  0.262320D-03  0.122742D-02 -0.877719D-01
     25  0.511793D-02 -0.871116D-04  0.762211D-02 -0.415916D-01  0.569337D-03
     26 -0.149786D-02  0.104945D-02 -0.206455D-01 -0.492470D-01 -0.518636D-03
     27  0.170957D-02 -0.615854D-03  0.541507D-03 -0.103844D-02  0.257128D-01
     28  0.321112D-03 -0.491265D-05 -0.491620D-01 -0.104035D-01 -0.220512D-01
     29  0.687622D-03  0.609761D-04 -0.888598D-02 -0.106436D+00 -0.117354D+00
     30  0.329487D-03  0.577796D-03 -0.181375D-01 -0.113930D+00 -0.234936D+00
               16            17            18            19            20 
     16  0.472926D-01
     17 -0.787676D-03  0.175987D+00
     18  0.144038D-02 -0.144740D+00  0.201290D+00
     19  0.151466D-02 -0.184639D-02 -0.880827D-03  0.229320D+00
     20  0.148714D-01 -0.115559D-01 -0.393635D-02 -0.142761D+00  0.161935D+00
     21 -0.196877D-01  0.138498D-01  0.358384D-02 -0.240985D-01  0.192059D-01
     22  0.632795D-02  0.314848D-02 -0.126976D-02 -0.249985D-01 -0.156823D-01
     23 -0.168224D-01 -0.143294D-01 -0.171121D-02  0.226635D-01  0.119256D-01
     24  0.245772D-01  0.123233D-01  0.977002D-03  0.310307D-02  0.235538D-02
     25 -0.422538D-02 -0.511795D-02 -0.871229D-04  0.588415D-02  0.146158D-02
     26 -0.400825D-02 -0.149790D-02 -0.104948D-02  0.852109D-05  0.171901D-02
     27 -0.367992D-02 -0.170968D-02 -0.615782D-03 -0.630479D-03 -0.179120D-03
     28 -0.446978D-03  0.585810D-03  0.285291D-03  0.364180D-02  0.110153D-01
     29  0.260836D-02  0.119118D-01  0.195888D-01 -0.331743D-02 -0.899735D-02
     30 -0.223499D-02 -0.125617D-01 -0.210991D-01  0.112810D-03 -0.438046D-04
               21            22            23            24            25 
     21  0.492630D-01
     22 -0.119333D-02  0.490651D+00
     23 -0.342825D-03 -0.123581D-05  0.938016D+00
     24 -0.134122D-02 -0.127867D-02  0.000000D+00  0.244507D+00
     25 -0.130531D-04 -0.111894D+00  0.145646D-05  0.773813D-03  0.990246D-01
     26  0.484076D-03  0.158179D-05 -0.730379D+00  0.000000D+00 -0.143849D-05
     27 -0.113104D-02  0.111856D-02  0.000000D+00 -0.710128D-01 -0.952388D-03
     28  0.223631D-01  0.206602D-02 -0.122669D-01 -0.276902D-01 -0.284620D-02
     29 -0.163347D-01  0.205661D-03 -0.120277D-01 -0.158520D-01 -0.389284D-02
     30 -0.170129D-02  0.463540D-03  0.235429D-03  0.138906D-02 -0.379869D-03
               26            27            28            29            30 
     26  0.830956D+00
     27  0.000000D+00  0.246474D-01
     28 -0.271181D-02  0.368578D-02  0.478944D-01
     29 -0.126263D-02  0.303029D-02  0.126005D-01  0.116195D+00
     30  0.124753D-02 -0.783185D-03  0.202375D-01  0.125187D+00  0.256802D+00
 Force constants in internal coordinates: 
                1             2             3             4             5 
      1  0.345504D+00
      2  0.204455D-02  0.332077D+00
      3  0.187680D-02  0.284493D-02  0.333937D+00
      4  0.253487D-02  0.478130D-02  0.418938D-02  0.262055D+00
      5 -0.661886D-04  0.828782D-03  0.265723D-04  0.212765D-03  0.333938D+00
      6  0.284746D-03  0.479081D-04 -0.660892D-04 -0.451035D-03  0.187682D-02
      7 -0.451119D-03 -0.616733D-05  0.212767D-03  0.161713D-01  0.418934D-02
      8  0.478170D-04 -0.728097D-04  0.828830D-03 -0.610681D-05  0.284493D-02
      9  0.109770D-02 -0.202777D-03  0.229869D-03  0.497114D-01  0.229855D-03
     10  0.487714D-02  0.501777D-02 -0.104700D-02 -0.117840D-01 -0.237462D-03
     11  0.460178D-02 -0.102159D-02  0.515110D-02 -0.114984D-01  0.825852D-04
     12  0.253407D-02 -0.606390D-02 -0.606614D-02  0.148272D-01  0.615899D-04
     13 -0.731484D-03  0.544612D-02  0.572458D-02 -0.144161D-01 -0.356773D-04
     14 -0.566809D-02  0.392763D-02 -0.678917D-02  0.103985D-01  0.223259D-03
     15 -0.562610D-02 -0.678394D-02  0.327299D-02  0.113831D-01 -0.991497D-04
     16 -0.700436D-05 -0.240786D-03  0.826058D-04 -0.227106D-02  0.515113D-02
     17 -0.844622D-03  0.251438D-03 -0.991444D-04  0.124535D-02  0.327304D-02
     18  0.237109D-03 -0.501939D-04 -0.356850D-04 -0.822251D-03  0.572455D-02
     19  0.121329D-02  0.197205D-03  0.616125D-04  0.270029D-02 -0.606617D-02
     20 -0.199699D-03  0.249036D-03 -0.237480D-03 -0.217713D-02 -0.104703D-02
     21 -0.434227D-03 -0.415225D-03  0.223235D-03  0.117223D-02 -0.678917D-02
     22  0.661957D-02 -0.280517D-02 -0.416363D-02  0.132241D-01 -0.416363D-02
     23 -0.756831D-02  0.430573D-02  0.596819D-02  0.167170D-01 -0.180456D-02
     24  0.948741D-03 -0.150056D-02 -0.180456D-02 -0.299411D-01  0.596819D-02
     25  0.954640D-04  0.433622D-02 -0.404998D-02 -0.762135D-03 -0.637153D-03
     26 -0.325554D-04  0.528020D-02 -0.486979D-02 -0.581221D-03  0.182672D-03
     27 -0.393832D-02 -0.543529D-03  0.535156D-02 -0.208931D-02 -0.523582D-03
     28 -0.406634D-02  0.400458D-03  0.453174D-02 -0.190840D-02  0.296244D-03
     29  0.385311D-02 -0.555982D-02  0.533605D-03  0.232873D-02 -0.557644D-03
     30  0.372509D-02 -0.461584D-02 -0.286212D-03  0.250964D-02  0.262181D-03
     31  0.159863D-03  0.600106D-03 -0.557650D-03  0.150477D-04  0.533608D-03
     32  0.287882D-03 -0.343879D-03  0.262166D-03 -0.165866D-03 -0.286216D-03
     33 -0.862499D-04  0.603037D-03 -0.637203D-03  0.226832D-03 -0.405002D-02
     34  0.417693D-04 -0.340948D-03  0.182612D-03  0.459180D-04 -0.486985D-02
     35 -0.326694D-03  0.434086D-03 -0.523608D-03  0.480172D-03  0.535155D-02
     36 -0.198675D-03 -0.509899D-03  0.296208D-03  0.299258D-03  0.453173D-02
                6             7             8             9            10 
      6  0.345505D+00
      7  0.253519D-02  0.262055D+00
      8  0.204446D-02  0.478126D-02  0.332077D+00
      9  0.109780D-02  0.497119D-01 -0.202848D-03  0.830956D+00
     10 -0.199701D-03 -0.217711D-02  0.249009D-03 -0.895345D-03  0.526869D-01
     11 -0.700724D-05 -0.227104D-02 -0.240776D-03 -0.174707D-02  0.649219D-02
     12  0.121329D-02  0.270030D-02  0.197182D-03 -0.421043D-02 -0.359421D-01
     13  0.237074D-03 -0.822284D-03 -0.501944D-04 -0.377806D-02  0.599508D-02
     14 -0.434190D-03  0.117222D-02 -0.415258D-03  0.432450D-02 -0.354421D-01
     15 -0.844619D-03  0.124534D-02  0.251511D-03  0.631950D-02  0.820661D-02
     16  0.460180D-02 -0.114984D-01 -0.102164D-02 -0.174705D-02  0.988912D-03
     17 -0.562606D-02  0.113830D-01 -0.678392D-02  0.631953D-02 -0.925980D-03
     18 -0.731548D-03 -0.144161D-01  0.544612D-02 -0.377808D-02  0.175543D-04
     19  0.253405D-02  0.148274D-01 -0.606394D-02 -0.421048D-02 -0.115199D-02
     20  0.487710D-02 -0.117840D-01  0.501780D-02 -0.895368D-03  0.933359D-04
     21 -0.566802D-02  0.103985D-01  0.392766D-02  0.432454D-02  0.103465D-02
     22  0.661959D-02  0.132240D-01 -0.280517D-02 -0.469285D-01 -0.545109D-02
     23  0.948734D-03 -0.299413D-01 -0.150055D-02  0.234640D-01  0.370701D-02
     24 -0.756833D-02  0.167174D-01  0.430572D-02  0.234645D-01  0.174408D-02
     25 -0.862379D-04  0.226825D-03  0.602966D-03 -0.204278D-04  0.110936D-01
     26  0.417580D-04  0.459324D-04 -0.340999D-03 -0.204291D-04  0.994216D-02
     27 -0.326702D-03  0.480141D-03  0.434084D-03  0.994318D-03 -0.903136D-02
     28 -0.198706D-03  0.299249D-03 -0.509880D-03  0.994317D-03 -0.101828D-01
     29  0.159873D-03  0.150684D-04  0.600080D-03 -0.848509D-03  0.516739D-03
     30  0.287869D-03 -0.165824D-03 -0.343884D-03 -0.848511D-03 -0.634685D-03
     31  0.385313D-02  0.232879D-02 -0.555984D-02 -0.848513D-03 -0.734774D-03
     32  0.372513D-02  0.250968D-02 -0.461588D-02 -0.848512D-03  0.416648D-03
     33  0.954322D-04 -0.762110D-03  0.433627D-02 -0.204372D-04 -0.587333D-03
     34 -0.325634D-04 -0.581218D-03  0.528023D-02 -0.204359D-04  0.564089D-03
     35 -0.393833D-02 -0.208936D-02 -0.543513D-03  0.994341D-03 -0.633903D-03
     36 -0.406632D-02 -0.190847D-02  0.400449D-03  0.994343D-03  0.517519D-03
               11            12            13            14            15 
     11  0.538542D-01
     12 -0.365420D-01  0.988028D-01
     13  0.627444D-02  0.919784D-02  0.520028D-01
     14  0.811749D-02 -0.183148D-01 -0.362395D-01  0.933263D-01
     15 -0.363404D-01 -0.209331D-01 -0.361143D-01 -0.115719D-01  0.958373D-01
     16  0.851591D-04 -0.757665D-03  0.112994D-04 -0.118903D-02  0.888882D-03
     17  0.888885D-03 -0.231900D-02 -0.701986D-03  0.400819D-02 -0.868337D-03
     18  0.112929D-04  0.645135D-03  0.508283D-03 -0.487006D-03 -0.701992D-03
     19 -0.757661D-03  0.487884D-02  0.645119D-03 -0.145726D-02 -0.231901D-02
     20  0.988913D-03 -0.115200D-02  0.175614D-04  0.103466D-02 -0.925986D-03
     21 -0.118903D-02 -0.145727D-02 -0.487008D-03 -0.190094D-02  0.400821D-02
     22 -0.463921D-02  0.203146D-01  0.527844D-02 -0.663930D-02 -0.949031D-02
     23  0.242962D-02 -0.208545D-01 -0.901900D-02  0.973722D-02  0.145022D-01
     24  0.220958D-02  0.539896D-03  0.374057D-02 -0.309792D-02 -0.501188D-02
     25 -0.103088D-01 -0.511756D-04  0.101590D-03  0.354574D-02 -0.410425D-02
     26 -0.902594D-02 -0.544564D-03 -0.208486D-03  0.799268D-02 -0.782643D-02
     27 -0.518022D-03 -0.609085D-02  0.984802D-02 -0.199965D-03  0.622341D-02
     28  0.764791D-03 -0.658424D-02  0.953794D-02  0.424698D-02  0.250122D-02
     29  0.870596D-02  0.654849D-02 -0.986002D-02 -0.628238D-02 -0.138819D-03
     30  0.998877D-02  0.605510D-02 -0.101701D-01 -0.183544D-02 -0.386100D-02
     31  0.766743D-03  0.430770D-03 -0.157831D-03  0.216780D-02 -0.246773D-02
     32 -0.516068D-03  0.924157D-03  0.152245D-03 -0.227914D-02  0.125445D-02
     33  0.577744D-03 -0.357607D-03 -0.139084D-03  0.197721D-02 -0.144600D-02
     34 -0.705067D-03  0.135781D-03  0.170992D-03 -0.246973D-02  0.227617D-02
     35  0.583669D-03 -0.107586D-02 -0.257808D-03  0.281659D-02 -0.138131D-02
     36 -0.699143D-03 -0.582472D-03  0.522674D-04 -0.163034D-02  0.234087D-02
               16            17            18            19            20 
     16  0.538542D-01
     17 -0.363404D-01  0.958373D-01
     18  0.627445D-02 -0.361143D-01  0.520028D-01
     19 -0.365420D-01 -0.209331D-01  0.919784D-02  0.988030D-01
     20  0.649219D-02  0.820662D-02  0.599509D-02 -0.359422D-01  0.526869D-01
     21  0.811745D-02 -0.115720D-01 -0.362396D-01 -0.183148D-01 -0.354420D-01
     22 -0.463920D-02 -0.949031D-02  0.527846D-02  0.203145D-01 -0.545108D-02
     23  0.220959D-02 -0.501186D-02  0.374059D-02  0.539857D-03  0.174409D-02
     24  0.242962D-02  0.145022D-01 -0.901905D-02 -0.208544D-01  0.370699D-02
     25  0.577747D-03 -0.144601D-02 -0.139082D-03 -0.357600D-03 -0.587336D-03
     26 -0.705070D-03  0.227621D-02  0.170992D-03  0.135772D-03  0.564088D-03
     27  0.583675D-03 -0.138132D-02 -0.257809D-03 -0.107586D-02 -0.633906D-03
     28 -0.699142D-03  0.234090D-02  0.522644D-04 -0.582492D-03  0.517518D-03
     29  0.766742D-03 -0.246773D-02 -0.157831D-03  0.430778D-03 -0.734783D-03
     30 -0.516075D-03  0.125449D-02  0.152243D-03  0.924149D-03  0.416641D-03
     31  0.870598D-02 -0.138828D-03 -0.986000D-02  0.654849D-02  0.516737D-03
     32  0.998879D-02 -0.386104D-02 -0.101701D-01  0.605512D-02 -0.634685D-03
     33 -0.103088D-01 -0.410424D-02  0.101581D-03 -0.511847D-04  0.110936D-01
     34 -0.902598D-02 -0.782645D-02 -0.208492D-03 -0.544555D-03  0.994217D-02
     35 -0.518013D-03  0.622340D-02  0.984800D-02 -0.609086D-02 -0.903137D-02
     36  0.764802D-03  0.250119D-02  0.953793D-02 -0.658423D-02 -0.101828D-01
               21            22            23            24            25 
     21  0.933263D-01
     22 -0.663930D-02  0.138444D+00
     23 -0.309793D-02 -0.692217D-01  0.162447D+00
     24  0.973723D-02 -0.692222D-01 -0.932249D-01  0.162447D+00
     25  0.197720D-02  0.824787D-04 -0.333373D-03  0.250894D-03  0.138492D-01
     26 -0.246975D-02  0.824890D-04 -0.213495D-04 -0.611395D-04  0.928266D-02
     27  0.281660D-02 -0.173751D-02  0.202121D-02 -0.283699D-03 -0.207681D-02
     28 -0.163035D-02 -0.173750D-02  0.233323D-02 -0.595732D-03 -0.664337D-02
     29  0.216780D-02  0.160483D-02 -0.166393D-02  0.590978D-04 -0.191140D-02
     30 -0.227915D-02  0.160484D-02 -0.135191D-02 -0.252936D-03 -0.647796D-02
     31 -0.628240D-02  0.160484D-02  0.590803D-04 -0.166392D-02 -0.273781D-02
     32 -0.183545D-02  0.160483D-02 -0.252943D-03 -0.135188D-02  0.182874D-02
     33  0.354577D-02  0.824939D-04  0.250880D-03 -0.333374D-03 -0.226113D-02
     34  0.799271D-02  0.824836D-04 -0.611430D-04 -0.213407D-04  0.230542D-02
     35 -0.199936D-03 -0.173750D-02 -0.283691D-03  0.202119D-02 -0.256176D-02
     36  0.424701D-02 -0.173751D-02 -0.595714D-03  0.233322D-02  0.200480D-02
               26            27            28            29            30 
     26  0.148808D-01
     27 -0.772442D-02  0.130405D-01
     28 -0.212632D-02  0.739289D-02  0.119099D-01
     29 -0.767463D-02 -0.268765D-02 -0.845088D-02  0.133812D-01
     30 -0.207653D-02 -0.833526D-02 -0.393383D-02  0.761801D-02  0.120194D-01
     31  0.302541D-02 -0.347201D-02  0.229120D-02 -0.312584D-02  0.263738D-02
     32 -0.257268D-02  0.217559D-02 -0.222584D-02  0.263738D-02 -0.176404D-02
     33  0.230542D-02 -0.256176D-02  0.200478D-02 -0.273781D-02  0.182873D-02
     34 -0.329267D-02  0.308584D-02 -0.251226D-02  0.302540D-02 -0.257269D-02
     35  0.308585D-02 -0.288487D-02  0.276273D-02 -0.347201D-02  0.217559D-02
     36 -0.251224D-02  0.276272D-02 -0.175431D-02  0.229121D-02 -0.222583D-02
               31            32            33            34            35 
     31  0.133812D-01
     32  0.761802D-02  0.120194D-01
     33 -0.191143D-02 -0.647796D-02  0.138492D-01
     34 -0.767463D-02 -0.207655D-02  0.928268D-02  0.148808D-01
     35 -0.268767D-02 -0.833526D-02 -0.207682D-02 -0.772442D-02  0.130405D-01
     36 -0.845088D-02 -0.393385D-02 -0.664336D-02 -0.212633D-02  0.739289D-02
               36 
     36  0.119099D-01
 Leave Link  716 at Mon Mar 10 22:02:48 2014, MaxMem= 4026531840 cpu:       1.8
 (Enter /usr/caen/gaussian-09revc/g09/l103.exe)

 GradGradGradGradGradGradGradGradGradGradGradGradGradGradGradGradGradGrad
 Berny optimization.
 Red2BG is reusing G-inverse.
 Internal  Forces:  Max     0.003344889 RMS     0.000641571
 Search for a local minimum.
 Step number   1 out of a maximum of   46
 All quantities printed in internal units (Hartrees-Bohrs-Radians)
 RMS Force = .64157D-03 SwitMx=.10000D-02 MixMth= 2
 Mixed Optimization -- En-DIIS/RFO-DIIS
 Second derivative matrix not updated -- analytic derivatives used.
 ITU=  0
     Eigenvalues ---    0.00037   0.00116   0.02803   0.05287   0.05363
     Eigenvalues ---    0.05502   0.05702   0.11899   0.12019   0.12326
     Eigenvalues ---    0.12535   0.12563   0.13730   0.21080   0.21192
     Eigenvalues ---    0.29032   0.30075   0.33023   0.33202   0.33819
     Eigenvalues ---    0.33912   0.34715   0.34844   0.84487
 RFO step:  Lambda=-4.20531793D-05 EMin= 3.66146869D-04
 Linear search not attempted -- first point.
 Iteration  1 RMS(Cart)=  0.01692498 RMS(Int)=  0.00017112
 Iteration  2 RMS(Cart)=  0.00017234 RMS(Int)=  0.00000456
 Iteration  3 RMS(Cart)=  0.00000001 RMS(Int)=  0.00000456
 Variable       Old X    -DE/DX   Delta X   Delta X   Delta X     New X
                                 (Linear)    (Quad)   (Total)
    R1        2.05818  -0.00016   0.00000  -0.00018  -0.00018   2.05800
    R2        2.06971   0.00001   0.00000  -0.00034  -0.00034   2.06937
    R3        2.06786   0.00003   0.00000   0.00001   0.00001   2.06787
    R4        2.86716   0.00061   0.00000   0.00346   0.00346   2.87062
    R5        2.06786   0.00003   0.00000   0.00001   0.00001   2.06787
    R6        2.05818  -0.00016   0.00000  -0.00018  -0.00018   2.05800
    R7        2.86716   0.00061   0.00000   0.00347   0.00347   2.87062
    R8        2.06971   0.00001   0.00000  -0.00034  -0.00034   2.06937
    R9        2.28959  -0.00334   0.00000  -0.00473  -0.00473   2.28485
    A1        1.90846   0.00010   0.00000   0.00111   0.00112   1.90958
    A2        1.91982   0.00011   0.00000  -0.00056  -0.00057   1.91925
    A3        1.92131  -0.00085   0.00000  -0.00674  -0.00674   1.91457
    A4        1.86601  -0.00023   0.00000   0.00024   0.00023   1.86624
    A5        1.91401   0.00042   0.00000   0.00475   0.00475   1.91877
    A6        1.93334   0.00047   0.00000   0.00148   0.00147   1.93481
    A7        1.91982   0.00011   0.00000  -0.00056  -0.00057   1.91925
    A8        1.93335   0.00047   0.00000   0.00148   0.00147   1.93481
    A9        1.86601  -0.00023   0.00000   0.00024   0.00023   1.86624
   A10        1.92131  -0.00085   0.00000  -0.00674  -0.00674   1.91457
   A11        1.90847   0.00010   0.00000   0.00111   0.00112   1.90958
   A12        1.91401   0.00042   0.00000   0.00475   0.00475   1.91877
   A13        2.03429  -0.00044   0.00000  -0.00176  -0.00176   2.03252
   A14        2.12445   0.00022   0.00000   0.00088   0.00088   2.12533
   A15        2.12445   0.00022   0.00000   0.00088   0.00088   2.12533
    D1       -3.03334  -0.00002   0.00000  -0.01970  -0.01971  -3.05304
    D2        0.10826  -0.00002   0.00000  -0.01970  -0.01971   0.08855
    D3        1.14939   0.00013   0.00000  -0.01985  -0.01984   1.12955
    D4       -1.99220   0.00013   0.00000  -0.01985  -0.01984  -2.01204
    D5       -0.90616  -0.00013   0.00000  -0.02397  -0.02397  -0.93013
    D6        2.23543  -0.00013   0.00000  -0.02397  -0.02397   2.21146
    D7       -0.90616  -0.00013   0.00000  -0.02397  -0.02397  -0.93013
    D8        2.23543  -0.00013   0.00000  -0.02397  -0.02397   2.21146
    D9       -3.03334  -0.00002   0.00000  -0.01970  -0.01971  -3.05304
   D10        0.10826  -0.00002   0.00000  -0.01970  -0.01971   0.08855
   D11        1.14939   0.00013   0.00000  -0.01985  -0.01984   1.12955
   D12       -1.99220   0.00013   0.00000  -0.01985  -0.01984  -2.01204
         Item               Value     Threshold  Converged?
 Maximum Force            0.003345     0.000450     NO 
 RMS     Force            0.000642     0.000300     NO 
 Maximum Displacement     0.035698     0.001800     NO 
 RMS     Displacement     0.016916     0.001200     NO 
 Predicted change in Energy=-2.114554D-05
 GradGradGradGradGradGradGradGradGradGradGradGradGradGradGradGradGradGrad

 Leave Link  103 at Mon Mar 10 22:02:48 2014, MaxMem= 4026531840 cpu:       0.6
 (Enter /usr/caen/gaussian-09revc/g09/l202.exe)
                          Input orientation:                          
 ---------------------------------------------------------------------
 Center     Atomic      Atomic             Coordinates (Angstroms)
 Number     Number       Type             X           Y           Z
 ---------------------------------------------------------------------
      1          6           0       -1.291421    0.614009    0.004704
      2          1           0       -2.140906   -0.060978    0.098472
      3          1           0       -1.380773    1.184379   -0.925810
      4          1           0       -1.297813    1.338772    0.824522
      5          6           0        1.291419    0.614012   -0.004704
      6          1           0        1.297810    1.338774   -0.824522
      7          1           0        2.140906   -0.060973   -0.098471
      8          6           0        0.000000   -0.185851    0.000000
      9          8           0        0.000002   -1.394944    0.000000
     10          1           0        1.380770    1.184383    0.925810
 ---------------------------------------------------------------------
                    Distance matrix (angstroms):
                    1          2          3          4          5
     1  C    0.000000
     2  H    1.089047   0.000000
     3  H    1.095062   1.782657   0.000000
     4  H    1.094268   1.788086   1.759085   0.000000
     5  C    2.582858   3.499587   2.883464   2.813719   0.000000
     6  H    2.813719   3.825701   2.684940   3.075159   1.094268
     7  H    3.499587   4.286338   3.825913   3.825701   1.089047
     8  C    1.519068   2.146804   2.154342   2.165324   1.519068
     9  O    2.388240   2.524410   3.068643   3.136457   2.388240
    10  H    2.883464   3.825913   3.324848   2.684939   1.095062
                    6          7          8          9         10
     6  H    0.000000
     7  H    1.788086   0.000000
     8  C    2.165324   2.146804   0.000000
     9  O    3.136457   2.524410   1.209093   0.000000
    10  H    1.759085   1.782657   2.154342   3.068643   0.000000
 Stoichiometry    C3H6O
 Framework group  C1[X(C3H6O)]
 Deg. of freedom    24
 Full point group                 C1      NOp   1
 RotChk:  IX=0 Diff= 3.32D-03
 Largest Abelian subgroup         C1      NOp   1
 Largest concise Abelian subgroup C1      NOp   1
                         Standard orientation:                         
 ---------------------------------------------------------------------
 Center     Atomic      Atomic             Coordinates (Angstroms)
 Number     Number       Type             X           Y           Z
 ---------------------------------------------------------------------
      1          6           0       -1.291428   -0.613454   -0.001676
      2          1           0       -2.141131    0.061532   -0.093451
      3          1           0       -1.378597   -1.183823    0.929046
      4          1           0       -1.299741   -1.338216   -0.821476
      5          6           0        1.291428   -0.613454    0.001675
      6          1           0        1.299741   -1.338216    0.821476
      7          1           0        2.141131    0.061532    0.093450
      8          6           0        0.000000    0.186408    0.000000
      9          8           0        0.000000    1.395501    0.000000
     10          1           0        1.378596   -1.183824   -0.929045
 ---------------------------------------------------------------------
 Rotational constants (GHZ):     10.1588041      8.4765254      4.9002341
 Leave Link  202 at Mon Mar 10 22:02:48 2014, MaxMem= 4026531840 cpu:       0.0
 (Enter /usr/caen/gaussian-09revc/g09/l301.exe)
 Standard basis: 6-311G(2d,d,p) (5D, 7F)
 Ernie: Thresh=  0.10000D-02 Tol=  0.10000D-05 Strict=F.
 There are   108 symmetry adapted basis functions of A   symmetry.
 Integral buffers will be    131072 words long.
 Raffenetti 2 integral format.
 Two-electron integral symmetry is turned on.
   108 basis functions,   176 primitive gaussians,   112 cartesian basis functions
    16 alpha electrons       16 beta electrons
       nuclear repulsion energy       119.2832661390 Hartrees.
 IExCor=  402 DFT=T Ex+Corr=B3LYP ExCW=0 ScaHFX=  0.200000
 ScaDFX=  0.800000  0.720000  1.000000  0.810000 ScalE2=  1.000000  1.000000
 IRadAn=      0 IRanWt=     -1 IRanGd=            0 ICorTp=0
 NAtoms=   10 NActive=   10 NUniq=   10 SFac= 1.00D+00 NAtFMM=   60 NAOKFM=F Big=F
 Leave Link  301 at Mon Mar 10 22:02:49 2014, MaxMem= 4026531840 cpu:       0.5
 (Enter /usr/caen/gaussian-09revc/g09/l302.exe)
 NPDir=0 NMtPBC=     1 NCelOv=     1 NCel=       1 NClECP=     1 NCelD=      1
         NCelK=      1 NCelE2=     1 NClLst=     1 CellRange=     0.0.
 One-electron integrals computed using PRISM.
 NBasis=   108 RedAO= T  NBF=   108
 NBsUse=   108 1.00D-06 NBFU=   108
 Precomputing XC quadrature grid using
 IXCGrd= 2 IRadAn=           0 IRanWt=          -1 IRanGd=           0 AccXCQ= 0.00D+00.
 NRdTot=     626 NPtTot=       79440 NUsed=       83965 NTot=       83997
 NSgBfM=   112   112   112   112   112 NAtAll=    10    10.
 Leave Link  302 at Mon Mar 10 22:02:49 2014, MaxMem= 4026531840 cpu:       1.3
 (Enter /usr/caen/gaussian-09revc/g09/l303.exe)
 DipDrv:  MaxL=1.
 Leave Link  303 at Mon Mar 10 22:02:49 2014, MaxMem= 4026531840 cpu:       0.2
 (Enter /usr/caen/gaussian-09revc/g09/l401.exe)
 Initial guess read from the read-write file.
 B after Tr=     0.000000    0.000000    0.000000
         Rot=    1.000000    0.000000    0.000000    0.000000 Ang=   0.00 deg.
 Guess basis will be translated and rotated to current coordinates.
 Initial guess orbital symmetries:
       Occupied  (A) (A) (A) (A) (A) (A) (A) (A) (A) (A) (A) (A)
                 (A) (A) (A) (A)
       Virtual   (A) (A) (A) (A) (A) (A) (A) (A) (A) (A) (A) (A)
                 (A) (A) (A) (A) (A) (A) (A) (A) (A) (A) (A) (A)
                 (A) (A) (A) (A) (A) (A) (A) (A) (A) (A) (A) (A)
                 (A) (A) (A) (A) (A) (A) (A) (A) (A) (A) (A) (A)
                 (A) (A) (A) (A) (A) (A) (A) (A) (A) (A) (A) (A)
                 (A) (A) (A) (A) (A) (A) (A) (A) (A) (A) (A) (A)
                 (A) (A) (A) (A) (A) (A) (A) (A) (A) (A) (A) (A)
                 (A) (A) (A) (A) (A) (A) (A) (A)
 The electronic state of the initial guess is 1-A.
 Generating alternative initial guess.
 Harris functional with IExCor=  402 diagonalized for initial guess.
 ExpMin= 1.03D-01 ExpMax= 8.59D+03 ExpMxC= 1.30D+03 IAcc=1 IRadAn=         1 AccDes= 0.00D+00
 HarFok:  IExCor=  402 AccDes= 0.00D+00 IRadAn=         1 IDoV= 1
 ScaDFX=  1.000000  1.000000  1.000000  1.000000
 FoFCou: FMM=F IPFlag=           0 FMFlag=      100000 FMFlg1=           0
         NFxFlg=           0 DoJE=T BraDBF=F KetDBF=T FulRan=T
         Omega=  0.000000  0.000000  1.000000  0.000000  0.000000 ICntrl=     500 IOpCl=  0
         NMat0=    1 NMatS0=    1 NMatT0=    0 NMatD0=    1 NMtDS0=    0 NMtDT0=    0
         I1Cent=           4 NGrid=           0.
 Petite list used in FoFCou.
 Harris En= -193.260383638516    
 Leave Link  401 at Mon Mar 10 22:02:49 2014, MaxMem= 4026531840 cpu:       2.4
 (Enter /usr/caen/gaussian-09revc/g09/l502.exe)
 Closed shell SCF:
 Requested convergence on RMS density matrix=1.00D-08 within 128 cycles.
 Requested convergence on MAX density matrix=1.00D-06.
 Requested convergence on             energy=1.00D-06.
 No special actions if energy rises.
 Using DIIS extrapolation, IDIIS=  1040.
 Integral symmetry usage will be decided dynamically.
        83862 words used for storage of precomputed grid.
 Keep R1 ints in memory in canonical form, NReq=21100604.
 IEnd=      141380 IEndB=      141380 NGot=  4026531840 MDV=  4006394773
 LenX=  4006394773 LenY=  4006381788
 Symmetry not used in FoFDir.
 MinBra= 0 MaxBra= 2 Meth= 1.
 IRaf=       0 NMat=   1 IRICut=       1 DoRegI=T DoRafI=F ISym2E= 0 JSym2E=0.
 Integral accuracy reduced to 1.0D-05 until final iterations.

 Cycle   1  Pass 0  IDiag  1:
 E= -193.212809515382    
 DIIS: error= 1.22D-03 at cycle   1 NSaved=   1.
 NSaved= 1 IEnMin= 1 EnMin= -193.212809515382     IErMin= 1 ErrMin= 1.22D-03
 ErrMax= 1.22D-03 EMaxC= 1.00D-01 BMatC= 1.20D-04 BMatP= 1.20D-04
 IDIUse=3 WtCom= 9.88D-01 WtEn= 1.22D-02
 Coeff-Com:  0.100D+01
 Coeff-En:   0.100D+01
 Coeff:      0.100D+01
 Gap=     0.234 Goal=   None    Shift=    0.000
 GapD=    0.234 DampG=1.000 DampE=1.000 DampFc=1.0000 IDamp=-1.
 RMSDP=1.11D-04 MaxDP=1.16D-03              OVMax= 5.07D-03

 Cycle   2  Pass 0  IDiag  1:
 E= -193.213002785412     Delta-E=       -0.000193270029 Rises=F Damp=F
 DIIS: error= 3.35D-04 at cycle   2 NSaved=   2.
 NSaved= 2 IEnMin= 2 EnMin= -193.213002785412     IErMin= 2 ErrMin= 3.35D-04
 ErrMax= 3.35D-04 EMaxC= 1.00D-01 BMatC= 5.82D-06 BMatP= 1.20D-04
 IDIUse=3 WtCom= 9.97D-01 WtEn= 3.35D-03
 Coeff-Com:  0.391D-02 0.996D+00
 Coeff-En:   0.000D+00 0.100D+01
 Coeff:      0.390D-02 0.996D+00
 Gap=     0.233 Goal=   None    Shift=    0.000
 RMSDP=5.08D-05 MaxDP=1.04D-03 DE=-1.93D-04 OVMax= 2.39D-03

 Cycle   3  Pass 0  IDiag  1:
 E= -193.212992545685     Delta-E=        0.000010239726 Rises=F Damp=F
 DIIS: error= 7.60D-04 at cycle   3 NSaved=   3.
 NSaved= 3 IEnMin= 2 EnMin= -193.213002785412     IErMin= 2 ErrMin= 3.35D-04
 ErrMax= 7.60D-04 EMaxC= 1.00D-01 BMatC= 2.18D-05 BMatP= 5.82D-06
 IDIUse=3 WtCom= 2.66D-01 WtEn= 7.34D-01
 Coeff-Com: -0.478D-01 0.698D+00 0.350D+00
 Coeff-En:   0.000D+00 0.727D+00 0.273D+00
 Coeff:     -0.127D-01 0.720D+00 0.293D+00
 Gap=     0.234 Goal=   None    Shift=    0.000
 RMSDP=3.17D-05 MaxDP=6.51D-04 DE= 1.02D-05 OVMax= 1.55D-03

 Cycle   4  Pass 0  IDiag  1:
 E= -193.213008040112     Delta-E=       -0.000015494427 Rises=F Damp=F
 DIIS: error= 6.31D-05 at cycle   4 NSaved=   4.
 NSaved= 4 IEnMin= 4 EnMin= -193.213008040112     IErMin= 4 ErrMin= 6.31D-05
 ErrMax= 6.31D-05 EMaxC= 1.00D-01 BMatC= 1.66D-07 BMatP= 5.82D-06
 IDIUse=1 WtCom= 1.00D+00 WtEn= 0.00D+00
 Coeff-Com: -0.172D-01 0.186D+00 0.337D-01 0.797D+00
 Coeff:     -0.172D-01 0.186D+00 0.337D-01 0.797D+00
 Gap=     0.234 Goal=   None    Shift=    0.000
 RMSDP=3.85D-06 MaxDP=6.99D-05 DE=-1.55D-05 OVMax= 1.27D-04

 Initial convergence to 1.0D-05 achieved.  Increase integral accuracy.
 Cycle   5  Pass 1  IDiag  1:
 E= -193.213024932963     Delta-E=       -0.000016892851 Rises=F Damp=F
 DIIS: error= 1.25D-05 at cycle   1 NSaved=   1.
 NSaved= 1 IEnMin= 1 EnMin= -193.213024932963     IErMin= 1 ErrMin= 1.25D-05
 ErrMax= 1.25D-05 EMaxC= 1.00D-01 BMatC= 1.56D-08 BMatP= 1.56D-08
 IDIUse=1 WtCom= 1.00D+00 WtEn= 0.00D+00
 Coeff-Com:  0.100D+01
 Coeff:      0.100D+01
 Gap=     0.234 Goal=   None    Shift=    0.000
 RMSDP=3.85D-06 MaxDP=6.99D-05 DE=-1.69D-05 OVMax= 5.49D-05

 Cycle   6  Pass 1  IDiag  1:
 E= -193.213024938117     Delta-E=       -0.000000005154 Rises=F Damp=F
 DIIS: error= 1.46D-05 at cycle   2 NSaved=   2.
 NSaved= 2 IEnMin= 2 EnMin= -193.213024938117     IErMin= 1 ErrMin= 1.25D-05
 ErrMax= 1.46D-05 EMaxC= 1.00D-01 BMatC= 1.19D-08 BMatP= 1.56D-08
 IDIUse=1 WtCom= 1.00D+00 WtEn= 0.00D+00
 Coeff-Com:  0.461D+00 0.539D+00
 Coeff:      0.461D+00 0.539D+00
 Gap=     0.234 Goal=   None    Shift=    0.000
 RMSDP=9.96D-07 MaxDP=3.20D-05 DE=-5.15D-09 OVMax= 3.28D-05

 Cycle   7  Pass 1  IDiag  1:
 E= -193.213024949061     Delta-E=       -0.000000010944 Rises=F Damp=F
 DIIS: error= 3.47D-06 at cycle   3 NSaved=   3.
 NSaved= 3 IEnMin= 3 EnMin= -193.213024949061     IErMin= 3 ErrMin= 3.47D-06
 ErrMax= 3.47D-06 EMaxC= 1.00D-01 BMatC= 5.06D-10 BMatP= 1.19D-08
 IDIUse=1 WtCom= 1.00D+00 WtEn= 0.00D+00
 Coeff-Com:  0.203D-01 0.165D+00 0.815D+00
 Coeff:      0.203D-01 0.165D+00 0.815D+00
 Gap=     0.234 Goal=   None    Shift=    0.000
 RMSDP=2.55D-07 MaxDP=5.42D-06 DE=-1.09D-08 OVMax= 1.28D-05

 Cycle   8  Pass 1  IDiag  1:
 E= -193.213024949153     Delta-E=       -0.000000000092 Rises=F Damp=F
 DIIS: error= 3.67D-06 at cycle   4 NSaved=   4.
 NSaved= 4 IEnMin= 4 EnMin= -193.213024949153     IErMin= 3 ErrMin= 3.47D-06
 ErrMax= 3.67D-06 EMaxC= 1.00D-01 BMatC= 4.84D-10 BMatP= 5.06D-10
 IDIUse=1 WtCom= 1.00D+00 WtEn= 0.00D+00
 Coeff-Com: -0.168D-01 0.834D-01 0.591D+00 0.342D+00
 Coeff:     -0.168D-01 0.834D-01 0.591D+00 0.342D+00
 Gap=     0.234 Goal=   None    Shift=    0.000
 RMSDP=1.73D-07 MaxDP=3.60D-06 DE=-9.23D-11 OVMax= 8.10D-06

 Cycle   9  Pass 1  IDiag  1:
 E= -193.213024949504     Delta-E=       -0.000000000351 Rises=F Damp=F
 DIIS: error= 1.21D-07 at cycle   5 NSaved=   5.
 NSaved= 5 IEnMin= 5 EnMin= -193.213024949504     IErMin= 5 ErrMin= 1.21D-07
 ErrMax= 1.21D-07 EMaxC= 1.00D-01 BMatC= 1.10D-12 BMatP= 4.84D-10
 IDIUse=1 WtCom= 1.00D+00 WtEn= 0.00D+00
 Coeff-Com: -0.609D-02 0.229D-01 0.170D+00 0.969D-01 0.716D+00
 Coeff:     -0.609D-02 0.229D-01 0.170D+00 0.969D-01 0.716D+00
 Gap=     0.234 Goal=   None    Shift=    0.000
 RMSDP=1.31D-08 MaxDP=2.41D-07 DE=-3.51D-10 OVMax= 5.64D-07

 Cycle  10  Pass 1  IDiag  1:
 E= -193.213024949505     Delta-E=       -0.000000000001 Rises=F Damp=F
 DIIS: error= 6.40D-08 at cycle   6 NSaved=   6.
 NSaved= 6 IEnMin= 6 EnMin= -193.213024949505     IErMin= 6 ErrMin= 6.40D-08
 ErrMax= 6.40D-08 EMaxC= 1.00D-01 BMatC= 2.27D-13 BMatP= 1.10D-12
 IDIUse=1 WtCom= 1.00D+00 WtEn= 0.00D+00
 Coeff-Com: -0.857D-04-0.187D-02-0.108D-01-0.792D-02 0.285D+00 0.736D+00
 Coeff:     -0.857D-04-0.187D-02-0.108D-01-0.792D-02 0.285D+00 0.736D+00
 Gap=     0.234 Goal=   None    Shift=    0.000
 RMSDP=5.18D-09 MaxDP=9.22D-08 DE=-9.66D-13 OVMax= 3.55D-07

 SCF Done:  E(RB3LYP) =  -193.213024950     A.U. after   10 cycles
             Convg  =    0.5177D-08             -V/T =  2.0039
 KE= 1.924602250002D+02 PE=-6.897005573612D+02 EE= 1.847440412725D+02
 Leave Link  502 at Mon Mar 10 22:02:51 2014, MaxMem= 4026531840 cpu:      14.1
 (Enter /usr/caen/gaussian-09revc/g09/l701.exe)
 Compute integral first derivatives.
 ... and contract with generalized density number  0.
 Leave Link  701 at Mon Mar 10 22:02:52 2014, MaxMem= 4026531840 cpu:       1.3
 (Enter /usr/caen/gaussian-09revc/g09/l702.exe)
 L702 exits ... SP integral derivatives will be done elsewhere.
 Leave Link  702 at Mon Mar 10 22:02:52 2014, MaxMem= 4026531840 cpu:       0.2
 (Enter /usr/caen/gaussian-09revc/g09/l703.exe)
 Compute integral first derivatives, UseDBF=F ICtDFT=           0.
 Integral derivatives from FoFDir, PRISM(SPDF).
 Calling FoFJK, ICntrl=      2127 FMM=F ISym2X=0 I1Cent= 0 IOpClX= 0 NMat=1 NMatS=1 NMatT=0.
 FoFCou: FMM=F IPFlag=           0 FMFlag=      100000 FMFlg1=         800
         NFxFlg=           0 DoJE=F BraDBF=F KetDBF=F FulRan=T
         Omega=  0.000000  0.000000  1.000000  0.000000  0.000000 ICntrl=    2127 IOpCl=  0
         NMat0=    1 NMatS0=    1 NMatT0=    0 NMatD0=    1 NMtDS0=    0 NMtDT0=    0
         I1Cent=           0 NGrid=           0.
 Symmetry not used in FoFCou.
 Leave Link  703 at Mon Mar 10 22:02:53 2014, MaxMem= 4026531840 cpu:       8.5
 (Enter /usr/caen/gaussian-09revc/g09/l716.exe)
 Dipole        = 1.43612970D-08-1.11781731D+00 4.81026674D-08
 ***** Axes restored to original set *****
 -------------------------------------------------------------------
 Center     Atomic                   Forces (Hartrees/Bohr)
 Number     Number              X              Y              Z
 -------------------------------------------------------------------
      1        6          -0.000000711    0.000001230    0.000006462
      2        1          -0.000003144    0.000000918    0.000003636
      3        1          -0.000001396    0.000000686    0.000002478
      4        1          -0.000001999   -0.000002028    0.000004891
      5        6           0.000000711    0.000001226   -0.000006468
      6        1           0.000001997   -0.000002027   -0.000004890
      7        1           0.000003145    0.000000918   -0.000003637
      8        6          -0.000000001    0.000027174    0.000000002
      9        8           0.000000001   -0.000028784    0.000000000
     10        1           0.000001396    0.000000688   -0.000002475
 -------------------------------------------------------------------
 Cartesian Forces:  Max     0.000028784 RMS     0.000007711
 Leave Link  716 at Mon Mar 10 22:02:53 2014, MaxMem= 4026531840 cpu:       0.2
 (Enter /usr/caen/gaussian-09revc/g09/l103.exe)

 GradGradGradGradGradGradGradGradGradGradGradGradGradGradGradGradGradGrad
 Berny optimization.
 Using GEDIIS/GDIIS optimizer.
 Internal  Forces:  Max     0.000028784 RMS     0.000005492
 Search for a local minimum.
 Step number   2 out of a maximum of   46
 All quantities printed in internal units (Hartrees-Bohrs-Radians)
 RMS Force = .54921D-05 SwitMx=.10000D-02 MixMth= 2
 Mixed Optimization -- En-DIIS/RFO-DIIS
 Swaping is turned off.
 Update second derivatives using D2CorX and points    1    2
 DE= -2.10D-05 DEPred=-2.11D-05 R= 9.91D-01
 SS=  1.41D+00  RLast= 7.50D-02 DXNew= 5.0454D-01 2.2494D-01
 Trust test= 9.91D-01 RLast= 7.50D-02 DXMaxT set to 3.00D-01
 ITU=  1  0
     Eigenvalues ---    0.00036   0.00116   0.02803   0.05287   0.05363
     Eigenvalues ---    0.05502   0.05698   0.11899   0.12027   0.12334
     Eigenvalues ---    0.12531   0.12563   0.13730   0.21157   0.21192
     Eigenvalues ---    0.29006   0.30075   0.33023   0.33202   0.33820
     Eigenvalues ---    0.33912   0.34715   0.34851   0.84989
 En-DIIS/RFO-DIIS IScMMF=        0 using points:     2    1
 RFO step:  Lambda=-2.13344617D-09.
 DidBck=F Rises=F RFO-DIIS coefs:    1.00830   -0.00830
 Iteration  1 RMS(Cart)=  0.00400635 RMS(Int)=  0.00000943
 Iteration  2 RMS(Cart)=  0.00000965 RMS(Int)=  0.00000005
 Iteration  3 RMS(Cart)=  0.00000000 RMS(Int)=  0.00000005
 Variable       Old X    -DE/DX   Delta X   Delta X   Delta X     New X
[...]
 Largest valence mixing into a core orbital is  1.47D-04
 Largest core mixing into a valence orbital is  4.47D-05
 Range of M.O.s used for correlation:     5   196
 NBasis=   196 NAE=    16 NBE=    16 NFC=     4 NFV=     0
 NROrb=    192 NOA=    12 NOB=    12 NVA=   180 NVB=   180

 **** Warning!!: The largest alpha MO coefficient is  0.42704075D+02

 Leave Link  801 at Mon Mar 10 22:04:44 2014, MaxMem= 4026531840 cpu:       1.1
 (Enter /usr/caen/gaussian-09revc/g09/l906.exe)
 FulOut=F Deriv=F AODrv=F NAtomX=    10
   MMem=           0  MDisk=          12 MDiskD=          12
  W3Min=      466560 MinDsk=      835484 NBas6D=         216
 NBas2D=       23868    NTT=       23436    LW2=     2000000
    MDV=  4026326511 MDiskM=       93155 NBas2p=       23798
 Disk-based method using OVN memory for 12 occupieds at a time.
 Permanent disk used for amplitudes and <ij||ab> integrals=    11457720 words.
 Estimated scratch disk usage=   171649440 words.
 IMap=   1   2   3   4   5   6   7   8   9  10  11  12
 Actual    scratch disk usage=   129278880 words.
 JobTyp=1 Pass  1:  I=   1 to  12 NPSUse=  8 ParTrn=T ParDer=T DoDerP=F.
 (rs|ai) integrals will be sorted in core.
 Spin components of T(2) and E(2):
     alpha-alpha T2 =       0.2671504928D-01 E2=     -0.8633540967D-01
     alpha-beta  T2 =       0.1620230165D+00 E2=     -0.5567331462D+00
     beta-beta   T2 =       0.2671504928D-01 E2=     -0.8633540967D-01
 The integrals were generated   1 times.
 ANorm=    0.1102475902D+01
 E2 =    -0.7294039655D+00 EUMP2 =    -0.19275906826053D+03
 Leave Link  906 at Mon Mar 10 22:04:51 2014, MaxMem= 4026531840 cpu:      48.8
 (Enter /usr/caen/gaussian-09revc/g09/l904.exe)

 Complete Basis Set (CBS) Extrapolation:
 M. R. Nyden and G. A. Petersson, JCP 75, 1843 (1981)
 G. A. Petersson and M. A. Al-Laham, JCP 94, 6081 (1991)
 G. A. Petersson, T. Tensfeldt, and J. A. Montgomery, JCP 94, 6091 (1991)
 J. A. Montgomery, J. W. Ochterski, and G. A. Petersson, JCP 101, 5900 (1994)
 
 Available Memory in CBS = 4026531840
 Minimum Number of PNO for Extrapolation =  10
 Absolute Overlaps: IRadAn =     99590
 LocTrn: ILocal=3 LocCor=F DoCore=F.
 LocMO: Using population method
 Initial Trace= 0.12000000D+02 Initial TraceA= 0.30373005D+01
 RMSG= 0.23592574D-08
 There are a total of      495600 grid points.
 ElSum from         orbitals=       15.9999998847
 E2(CBS)=      -0.801203 CBS-Int=       0.024223 OIii=       6.409328
 Leave Link  904 at Mon Mar 10 22:04:59 2014, MaxMem= 4026531840 cpu:      58.8
 (Enter /usr/caen/gaussian-09revc/g09/l601.exe)
 Copying SCF densities to generalized density rwf, IOpCl= 0 IROHF=0.

 **********************************************************************

            Population analysis using the SCF density.

 **********************************************************************

 Orbital symmetries:
       Occupied  (A) (A) (A) (A) (A) (A) (A) (A) (A) (A) (A) (A)
                 (A) (A) (A) (A)
       Virtual   (A) (A) (A) (A) (A) (A) (A) (A) (A) (A) (A) (A)
                 (A) (A) (A) (A) (A) (A) (A) (A) (A) (A) (A) (A)
                 (A) (A) (A) (A) (A) (A) (A) (A) (A) (A) (A) (A)
                 (A) (A) (A) (A) (A) (A) (A) (A) (A) (A) (A) (A)
                 (A) (A) (A) (A) (A) (A) (A) (A) (A) (A) (A) (A)
                 (A) (A) (A) (A) (A) (A) (A) (A) (A) (A) (A) (A)
                 (A) (A) (A) (A) (A) (A) (A) (A) (A) (A) (A) (A)
                 (A) (A) (A) (A) (A) (A) (A) (A) (A) (A) (A) (A)
                 (A) (A) (A) (A) (A) (A) (A) (A) (A) (A) (A) (A)
                 (A) (A) (A) (A) (A) (A) (A) (A) (A) (A) (A) (A)
                 (A) (A) (A) (A) (A) (A) (A) (A) (A) (A) (A) (A)
                 (A) (A) (A) (A) (A) (A) (A) (A) (A) (A) (A) (A)
                 (A) (A) (A) (A) (A) (A) (A) (A) (A) (A) (A) (A)
                 (A) (A) (A) (A) (A) (A) (A) (A) (A) (A) (A) (A)
                 (A) (A) (A) (A) (A) (A) (A) (A) (A) (A) (A) (A)
 The electronic state is 1-A.
 Alpha  occ. eigenvalues --  -20.54610 -11.33268 -11.23507 -11.23505  -1.38901
 Alpha  occ. eigenvalues --   -1.04032  -0.96725  -0.74226  -0.64631  -0.63688
 Alpha  occ. eigenvalues --   -0.62289  -0.56362  -0.56028  -0.53774  -0.49112
 Alpha  occ. eigenvalues --   -0.41407
 Alpha virt. eigenvalues --    0.03572   0.05606   0.06073   0.07384   0.08772
 Alpha virt. eigenvalues --    0.09044   0.10994   0.13593   0.13643   0.16047
 Alpha virt. eigenvalues --    0.16054   0.16563   0.17711   0.17941   0.18087
 Alpha virt. eigenvalues --    0.18557   0.20884   0.21862   0.23453   0.27234
 Alpha virt. eigenvalues --    0.29334   0.30020   0.32328   0.34354   0.36791
 Alpha virt. eigenvalues --    0.37222   0.38402   0.40478   0.41761   0.45355
 Alpha virt. eigenvalues --    0.50945   0.53060   0.53999   0.58316   0.61398
 Alpha virt. eigenvalues --    0.64144   0.66355   0.67653   0.68924   0.71849
 Alpha virt. eigenvalues --    0.72038   0.73976   0.75798   0.77447   0.78657
 Alpha virt. eigenvalues --    0.80389   0.81838   0.83754   0.85590   0.86572
 Alpha virt. eigenvalues --    0.97216   1.01119   1.02233   1.03595   1.07635
 Alpha virt. eigenvalues --    1.09733   1.12562   1.18545   1.21622   1.22914
 Alpha virt. eigenvalues --    1.23814   1.29267   1.31426   1.31945   1.32295
 Alpha virt. eigenvalues --    1.33800   1.36953   1.42531   1.44165   1.47355
 Alpha virt. eigenvalues --    1.49623   1.50528   1.51952   1.52248   1.56488
 Alpha virt. eigenvalues --    1.57382   1.63529   1.65765   1.67255   1.68927
 Alpha virt. eigenvalues --    1.69131   1.74103   1.79320   1.80009   1.84788
 Alpha virt. eigenvalues --    1.91842   2.02918   2.09924   2.20749   2.30440
 Alpha virt. eigenvalues --    2.57236   2.57549   2.70846   2.86107   2.86131
 Alpha virt. eigenvalues --    2.91758   2.96074   2.98159   3.06538   3.11403
 Alpha virt. eigenvalues --    3.12463   3.14995   3.17123   3.23513   3.24685
 Alpha virt. eigenvalues --    3.24695   3.33663   3.35764   3.37946   3.44177
 Alpha virt. eigenvalues --    3.45362   3.45603   3.48312   3.53275   3.59532
 Alpha virt. eigenvalues --    3.62067   3.66278   3.66898   3.73971   3.76450
 Alpha virt. eigenvalues --    3.79026   3.79127   3.81831   3.86734   3.92587
 Alpha virt. eigenvalues --    3.94611   3.99701   4.00819   4.11250   4.14202
 Alpha virt. eigenvalues --    4.19644   4.23749   4.26582   4.28986   4.33403
 Alpha virt. eigenvalues --    4.36845   4.39687   4.43342   4.44600   4.52154
 Alpha virt. eigenvalues --    4.55234   4.56148   4.57249   4.59727   4.74159
 Alpha virt. eigenvalues --    4.74376   4.75927   4.79396   4.83363   4.86810
 Alpha virt. eigenvalues --    4.92327   4.96191   4.98122   5.03787   5.21028
 Alpha virt. eigenvalues --    5.52809   5.53587   5.54625   5.65328   5.82098
 Alpha virt. eigenvalues --    5.92906   5.93500   5.95439   6.05837   6.08018
 Alpha virt. eigenvalues --    6.09758   6.10061   6.21966   6.80126   7.17347
 Alpha virt. eigenvalues --    7.41330   7.44399   7.62261   7.80984   8.03694
 Alpha virt. eigenvalues --    8.21404  25.38809  25.47815  25.75945  51.89173
          Condensed to atoms (all electrons):
              1          2          3          4          5          6
     1  C    4.818729   0.465253   0.424671   0.429829  -0.088815  -0.008141
     2  H    0.465253   0.557971  -0.024006  -0.025553  -0.021582  -0.000056
     3  H    0.424671  -0.024006   0.621215  -0.049104  -0.009690  -0.001182
     4  H    0.429829  -0.025553  -0.049104   0.625598  -0.008141   0.000134
     5  C   -0.088815  -0.021582  -0.009690  -0.008141   4.818729   0.429829
     6  H   -0.008141  -0.000056  -0.001182   0.000134   0.429829   0.625598
     7  H   -0.021582  -0.000915  -0.000087  -0.000056   0.465253  -0.025553
     8  C    0.272892  -0.049293  -0.029605  -0.035584   0.272892  -0.035584
     9  O   -0.079686  -0.000464  -0.000855   0.000164  -0.079686   0.000164
    10  H   -0.009690  -0.000087   0.001334  -0.001182   0.424671  -0.049104
              7          8          9         10
     1  C   -0.021582   0.272892  -0.079686  -0.009690
     2  H   -0.000915  -0.049293  -0.000464  -0.000087
     3  H   -0.000087  -0.029605  -0.000855   0.001334
     4  H   -0.000056  -0.035584   0.000164  -0.001182
     5  C    0.465253   0.272892  -0.079686   0.424671
     6  H   -0.025553  -0.035584   0.000164  -0.049104
     7  H    0.557971  -0.049293  -0.000464  -0.024006
     8  C   -0.049293   4.926708   0.369585  -0.029605
     9  O   -0.000464   0.369585   8.231939  -0.000855
    10  H   -0.024006  -0.029605  -0.000855   0.621215
 Mulliken atomic charges:
              1
     1  C   -0.203460
     2  H    0.098734
     3  H    0.067309
     4  H    0.063896
     5  C   -0.203461
     6  H    0.063896
     7  H    0.098734
     8  C    0.386886
     9  O   -0.439842
    10  H    0.067309
 Sum of Mulliken atomic charges =   0.00000
 Mulliken charges with hydrogens summed into heavy atoms:
              1
     1  C    0.026478
     5  C    0.026478
     8  C    0.386886
     9  O   -0.439842
 Sum of Mulliken charges with hydrogens summed into heavy atoms =   0.00000
 Electronic spatial extent (au):  <R**2>=            293.9115
 Charge=              0.0000 electrons
 Dipole moment (field-independent basis, Debye):
    X=              0.0000    Y=             -3.4160    Z=              0.0000  Tot=              3.4160
 Quadrupole moment (field-independent basis, Debye-Ang):
   XX=            -23.5105   YY=            -29.6845   ZZ=            -24.3807
   XY=              0.0000   XZ=             -0.0259   YZ=              0.0000
 Traceless Quadrupole moment (field-independent basis, Debye-Ang):
   XX=              2.3481   YY=             -3.8259   ZZ=              1.4779
   XY=              0.0000   XZ=             -0.0259   YZ=              0.0000
 Octapole moment (field-independent basis, Debye-Ang**2):
  XXX=              0.0000  YYY=             -4.2061  ZZZ=              0.0000  XYY=              0.0000
  XXY=              1.6390  XXZ=              0.0000  XZZ=              0.0000  YZZ=             -0.4059
  YYZ=              0.0000  XYZ=              0.1774
 Hexadecapole moment (field-independent basis, Debye-Ang**3):
 XXXX=           -195.4067 YYYY=           -156.3346 ZZZZ=            -37.1463 XXXY=              0.0000
 XXXZ=              0.5059 YYYX=              0.0000 YYYZ=              0.0000 ZZZX=             -0.6713
 ZZZY=              0.0000 XXYY=            -58.2460 XXZZ=            -40.0644 YYZZ=            -27.9347
 XXYZ=              0.0000 YYXZ=              0.1820 ZZXY=              0.0000
 N-N= 1.192821271095D+02 E-N=-6.884935195592D+02  KE= 1.917912488419D+02
 Leave Link  601 at Mon Mar 10 22:04:59 2014, MaxMem= 4026531840 cpu:       0.4
 (Enter /usr/caen/gaussian-09revc/g09/l9999.exe)
 1\1\GINC-NYX5524\SP\RMP2-FC\CBSB3\C3H6O1\HETANJIN\10-Mar-2014\0\\#P Ge
 om=AllCheck Guess=TCheck SCRF=Check MP2/CBSB3 CBSExtrap=(NMin=10,MinPo
 p)\\C3H6O_2 using cbs-qb3 to cal. energy\\0,1\C,0,-1.2914420916,0.6139
 82712,0.0054043065\H,0,-2.1410796191,-0.0614076915,0.0947671782\H,0,-1
 .3791186124,1.1887349084,-0.9225460146\H,0,-1.2993292946,1.3348982808,
 0.8286204843\C,0,1.2914405237,0.6139857471,-0.0054044042\H,0,1.2993260
 733,1.3349006836,-0.8286211546\H,0,2.1410796462,-0.061402727,-0.094766
 7014\C,0,0.0000001569,-0.1858686828,0.0000002178\O,0,0.0000015744,-1.3
 949781165,0.0000006237\H,0,1.3791156419,1.1887388859,0.9225454631\\Ver
 sion=EM64L-G09RevC.01\State=1-A\HF=-192.0296643\MP2=-192.7590683\E2(CB
 S)=-0.8012031\CBS-Int=-0.7769798\OIii=6.4093284\RMSD=4.685e-09\PG=C01 
 [X(C3H6O1)]\\@


 DEPRESSION IS WAITING FOR YOUR SHIP TO COME IN,
 AND FINDING OUT IT'S THE TITANIC.

 Complete Basis Set (CBS) Extrapolation:
 M. R. Nyden and G. A. Petersson, JCP 75, 1843 (1981)
 G. A. Petersson and M. A. Al-Laham, JCP 94, 6081 (1991)
 G. A. Petersson, T. Tensfeldt, and J. A. Montgomery, JCP 94, 6091 (1991)
 J. A. Montgomery, J. W. Ochterski, and G. A. Petersson, JCP 101, 5900 (1994)

 Temperature=               298.150000 Pressure=                       1.000000
 E(ZPE)=                      0.082404 E(Thermal)=                     0.087816
 E(SCF)=                   -192.029664 DE(MP2)=                       -0.729404
 DE(CBS)=                    -0.071799 DE(MP34)=                      -0.039250
 DE(CCSD)=                   -0.018913 DE(Int)=                        0.024223
 DE(Empirical)=              -0.037110
 CBS-QB3 (0 K)=            -192.819512 CBS-QB3 Energy=              -192.814101
 CBS-QB3 Enthalpy=         -192.813157 CBS-QB3 Free Energy=         -192.847774
 1\1\GINC-NYX5524\Mixed\CBS-QB3\CBS-QB3\C3H6O1\HETANJIN\10-Mar-2014\0\\
 #p cbs-qb3 opt=calcfc freq\\C3H6O_2 using cbs-qb3 to cal. energy\\0,1\
 C,0,-1.2914420916,0.613982712,0.0054043065\H,0,-2.1410796191,-0.061407
 6915,0.0947671782\H,0,-1.3791186124,1.1887349084,-0.9225460146\H,0,-1.
 2993292946,1.3348982808,0.8286204843\C,0,1.2914405237,0.6139857471,-0.
 0054044042\H,0,1.2993260733,1.3349006836,-0.8286211546\H,0,2.141079646
 2,-0.061402727,-0.0947667014\C,0,0.0000001569,-0.1858686828,0.00000021
 78\O,0,0.0000015744,-1.3949781165,0.0000006237\H,0,1.3791156419,1.1887
 388859,0.9225454631\\Version=EM64L-G09RevC.01\State=1-A\HF/CbsB3=-192.
 0296643\E2(CBS)/CbsB3=-0.8012031\CBS-Int/CbsB3=0.0242233\OIii/CbsB3=6.
 4093284\MP2/CbsB4=-192.592464\MP4(SDQ)/CbsB4=-192.6317141\MP4(SDQ)/6-3
 1+G(d')=-192.5829731\QCISD(T)/6-31+G(d')=-192.6018859\CBSQB3=-192.8195
 125\FreqCoord=-2.4404718696,1.1602591761,0.0102126592,-4.0460541087,-0
 .1160437194,0.1790840132,-2.6061564822,2.2463834215,-1.7433593126,-2.4
 553765233,2.5225921659,1.5658657833,2.4404689066,1.1602649116,-0.01021
 28438,2.4553704358,2.5225967065,-1.5658670501,4.0460541599,-0.11603433
 79,-0.1790831122,0.0000002966,-0.3512409071,0.0000004119,0.0000029751,
 -2.6361266016,0.0000011794,2.6061508688,2.2463909379,1.7433582705\PG=C
 01 [X(C3H6O1)]\NImag=0\\0.49957223,0.07086720,0.54820796,-0.00430355,0
 .00110525,0.51593258,-0.21015118,-0.13061467,0.01787040,0.22848838,-0.
 13560567,-0.15559754,0.01386451,0.14370156,0.16418716,0.01806811,0.013
 49023,-0.04980354,-0.01921463,-0.01550772,0.04812785,-0.04911252,0.010
 08071,-0.02063767,0.00351109,-0.01143069,0.02210037,0.04756787,0.00856
 871,-0.11212944,0.12043849,0.00326836,-0.00935439,0.01622324,-0.012229
 28,0.12228352,-0.01688983,0.11713036,-0.23005487,0.00023173,-0.0002564
 8,-0.00110951,0.01858834,-0.12858342,0.25142212,-0.04920585,-0.0007496
 0,0.00416521,0.00173053,-0.01441483,-0.02005332,-0.00038917,-0.0024012
 6,-0.00212180,0.04687983,-0.00177486,-0.15504684,-0.13385433,0.0020225
 0,-0.01136274,-0.01431513,-0.00073953,0.01203388,0.01334930,-0.0010720
 6,0.16883194,0.00202069,-0.13137838,-0.19089858,-0.00084841,0.00342469
 ,0.00314406,0.00049665,-0.01880134,-0.02129351,-0.00054632,0.14397371,
 0.20837719,-0.02361726,-0.01306319,0.00044847,-0.00352158,0.00254791,-
 0.00013438,-0.00032532,-0.00037081,-0.00002272,-0.00022922,-0.00051206
 ,-0.00009008,0.49957256,0.01306310,0.01408762,-0.00086156,0.00514066,-
 0.00185718,0.00035834,-0.00125577,-0.00009363,0.00047938,-0.00146601,0
 .00032542,0.00001326,-0.07086732,0.54820762,0.00044846,0.00086156,0.01
 685191,0.00006557,0.00015200,0.00113805,0.00267970,-0.00132693,-0.0005
 4053,-0.00263676,0.00076973,-0.00028126,-0.00430349,-0.00110527,0.5159
 3259,-0.00022922,0.00146600,-0.00263676,0.00057512,-0.00001947,-0.0002
 3222,-0.00148604,0.00017853,0.00005953,0.00019419,-0.00015806,0.000074
 69,-0.04920586,0.00074984,0.00416491,0.04687982,0.00051206,0.00032542,
 -0.00076974,0.00012253,-0.00007918,-0.00039529,-0.00029641,0.00070298,
 -0.00029759,0.00015806,0.00001440,-0.00010523,0.00177510,-0.15504662,0
 .13385431,0.00107178,0.16883171,-0.00009008,-0.00001326,-0.00028126,0.
 00014092,-0.00014171,0.00015779,-0.00000240,-0.00008621,0.00059584,0.0
 0007469,0.00010523,-0.00018538,0.00202039,0.13137836,-0.19089878,-0.00
 054599,-0.14397368,0.20837742,-0.00352156,-0.00514067,0.00006558,-0.00
 151560,0.00086460,-0.00008552,0.00031151,-0.00007204,-0.00015531,0.000
 57512,-0.00012252,0.00014092,-0.21015181,0.13061455,0.01787032,0.00173
 051,-0.00202247,-0.00084840,0.22848906,-0.00254791,-0.00185720,-0.0001
 5199,-0.00086461,0.00055573,-0.00006284,-0.00007656,-0.00006572,-0.000
 12158,0.00001947,-0.00007918,0.00014171,0.13560555,-0.15559693,-0.0138
 6437,0.01441485,-0.01136270,-0.00342468,-0.14370142,0.16418651,-0.0001
 3438,-0.00035833,0.00113805,-0.00008552,0.00006284,0.00053845,0.000423
 85,-0.00022923,0.00023248,-0.00023222,0.00039529,0.00015779,0.01806803
 ,-0.01349010,-0.04980352,-0.02005336,0.01431510,0.00314405,-0.01921454
 ,0.01550758,0.04812783,-0.17096150,0.02423436,0.00183839,-0.02537814,0
 .01570248,-0.00083452,0.00256236,-0.00059173,0.00058601,0.00603524,-0.
 00294089,-0.00121290,-0.17096138,-0.02423455,0.00183840,0.00603527,0.0
 0294094,-0.00121290,-0.02537816,-0.01570257,-0.00083450,0.48638230,0.0
 2582257,-0.08856216,-0.00143360,-0.02285094,0.01182786,0.00035966,0.01
 267713,-0.01219105,-0.00051141,0.01620826,-0.01394581,0.00157576,-0.02
 582276,-0.08856227,0.00143360,-0.01620820,-0.01394583,-0.00157576,0.02
 285086,0.01182788,-0.00035967,-0.00000054,0.94908917,0.00041696,-0.001
 04883,-0.08820593,0.00251097,-0.00185921,-0.00127029,-0.02740454,0.015
 31069,0.00156848,0.02498112,-0.01255435,0.00105900,0.00041697,0.001048
 83,-0.08820593,0.02498110,0.01255442,0.00105899,0.00251095,0.00185920,
 -0.00127029,-0.00173482,-0.00000024,0.24341369,0.00755219,0.04166407,0
 .00051024,0.00594986,-0.00142245,-0.00003774,-0.00300670,0.00404294,-0
 .00032042,-0.00410463,0.00500108,-0.00003283,0.00755233,-0.04166394,0.
 00051027,-0.00410461,-0.00500109,-0.00003283,0.00594986,0.00142246,-0.
 00003775,-0.11089838,0.00000074,0.00072578,0.09811676,0.02072400,-0.04
 933419,0.00033604,0.00000258,0.00174601,-0.00037972,0.00287697,-0.0012
 9610,-0.00123981,0.00389650,-0.00147403,0.00106962,-0.02072387,-0.0493
 3434,-0.00033599,-0.00389650,-0.00147406,-0.00106962,-0.00000257,0.001
 74601,0.00037971,0.00000074,-0.74334671,0.00000023,-0.00000087,0.84406
 353,0.00048634,0.00069080,0.02586216,-0.00051572,0.00013951,-0.0011553
 5,0.00371124,-0.00289403,-0.00083152,-0.00369015,0.00183295,-0.0006751
 5,0.00048636,-0.00069075,0.02586216,-0.00369014,-0.00183296,-0.0006751
 5,-0.00051571,-0.00013951,-0.00115535,0.00098084,0.00000023,-0.0697162
 0,-0.00096430,-0.00000028,0.02331592,-0.00032532,0.00125577,0.00267969
 ,0.00031151,0.00007656,0.00042385,0.00036691,-0.00039343,0.00004446,-0
 .00148604,0.00029641,-0.00000240,-0.04911247,-0.01008057,-0.02063737,-
 0.00038917,0.00073950,0.00049660,0.00351107,0.01143073,0.02210040,0.00
 256239,-0.01267712,-0.02740449,-0.00300668,-0.00287697,0.00371124,0.04
 756781,0.00037080,-0.00009362,0.00132694,0.00007204,-0.00006572,0.0002
 2924,0.00039343,0.00010995,0.00005124,-0.00017853,0.00070298,0.0000862
 1,-0.00856857,-0.11212967,-0.12043863,0.00240123,0.01203389,0.01880132
 ,-0.00326833,-0.00935439,-0.01622318,0.00059177,-0.01219108,-0.0153107
 4,-0.00404295,-0.00129611,0.00289404,0.01222911,0.12228378,-0.00002272
 ,-0.00047938,-0.00054053,-0.00015531,0.00012158,0.00023248,0.00004446,
 -0.00005124,0.00001101,0.00005953,0.00029759,0.00059584,-0.01688954,-0
 .11713049,-0.23005469,-0.00212177,-0.01334934,-0.02129351,0.00023173,0
 .00025649,-0.00110949,0.00058601,0.00051142,0.00156849,-0.00032042,0.0
 0123981,-0.00083153,0.01858802,0.12858357,0.25142192\\-0.00000088,0.00
 000136,-0.00000329,0.00000154,-0.00000047,-0.00000468,0.00000107,0.000
 00027,-0.00000276,-0.00000143,0.00000146,-0.00000392,0.00000088,0.0000
 0136,0.00000329,0.00000143,0.00000146,0.00000392,-0.00000154,-0.000000
 47,0.00000468,0.,-0.00000877,0.,0.,0.00000353,0.,-0.00000107,0.0000002
 7,0.00000276\\\@
 Job cpu time:  0 days  0 hours  2 minutes 49.8 seconds.
 File lengths (MBytes):  RWF=   1085 Int=      0 D2E=      0 Chk=      3 Scr=      1
 Normal termination of Gaussian 09 at Mon Mar 10 22:04:59 2014.
