 Entering Gaussian System, Link 0=/share/apps/g09/g09
 Input=C3H7_45_b3631gd.gjf
 Output=C3H7_45_b3631gd.log
 Initial command:
 /share/apps/g09/l1.exe /state/partition1/Gau-5176.inp -scrdir=/state/partition1/
 Entering Link 1 = /share/apps/g09/l1.exe PID=      5177.
  
 Copyright (c) 1988,1990,1992,1993,1995,1998,2003,2009, Gaussian, Inc.
                  All Rights Reserved.
  
 This is part of the Gaussian(R) 09 program.  It is based on
 the Gaussian(R) 03 system (copyright 2003, Gaussian, Inc.),
 the Gaussian(R) 98 system (copyright 1998, Gaussian, Inc.),
 the Gaussian(R) 94 system (copyright 1995, Gaussian, Inc.),
 the Gaussian 92(TM) system (copyright 1992, Gaussian, Inc.),
 the Gaussian 90(TM) system (copyright 1990, Gaussian, Inc.),
 the Gaussian 88(TM) system (copyright 1988, Gaussian, Inc.),
 the Gaussian 86(TM) system (copyright 1986, Carnegie Mellon
 University), and the Gaussian 82(TM) system (copyright 1983,
 Carnegie Mellon University). Gaussian is a federally registered
 trademark of Gaussian, Inc.
  
 This software contains proprietary and confidential information,
 including trade secrets, belonging to Gaussian, Inc.
  
 This software is provided under written license and may be
 used, copied, transmitted, or stored only in accord with that
 written license.
  
 The following legend is applicable only to US Government
 contracts under FAR:
  
                    RESTRICTED RIGHTS LEGEND
  
 Use, reproduction and disclosure by the US Government is
 subject to restrictions as set forth in subparagraphs (a)
 and (c) of the Commercial Computer Software - Restricted
 Rights clause in FAR 52.227-19.
  
 Gaussian, Inc.
 340 Quinnipiac St., Bldg. 40, Wallingford CT 06492
  
  
 ---------------------------------------------------------------
 Warning -- This program may not be used in any manner that
 competes with the business of Gaussian, Inc. or will provide
 assistance to any competitor of Gaussian, Inc.  The licensee
 of this program is prohibited from giving any competitor of
 Gaussian, Inc. access to this program.  By using this program,
 the user acknowledges that Gaussian, Inc. is engaged in the
 business of creating and licensing software in the field of
 computational chemistry and represents and warrants to the
 licensee that it is not a competitor of Gaussian, Inc. and that
 it will not use this program in any manner prohibited above.
 ---------------------------------------------------------------
  

 Cite this work as:
 Gaussian 09, Revision A.01,
 M. J. Frisch, G. W. Trucks, H. B. Schlegel, G. E. Scuseria, 
 M. A. Robb, J. R. Cheeseman, G. Scalmani, V. Barone, B. Mennucci, 
 G. A. Petersson, H. Nakatsuji, M. Caricato, X. Li, H. P. Hratchian, 
 A. F. Izmaylov, J. Bloino, G. Zheng, J. L. Sonnenberg, M. Hada, 
 M. Ehara, K. Toyota, R. Fukuda, J. Hasegawa, M. Ishida, T. Nakajima, 
 Y. Honda, O. Kitao, H. Nakai, T. Vreven, J. A. Montgomery, Jr., 
 J. E. Peralta, F. Ogliaro, M. Bearpark, J. J. Heyd, E. Brothers, 
 K. N. Kudin, V. N. Staroverov, R. Kobayashi, J. Normand, 
 K. Raghavachari, A. Rendell, J. C. Burant, S. S. Iyengar, J. Tomasi, 
 M. Cossi, N. Rega, J. M. Millam, M. Klene, J. E. Knox, J. B. Cross, 
 V. Bakken, C. Adamo, J. Jaramillo, R. Gomperts, R. E. Stratmann, 
 O. Yazyev, A. J. Austin, R. Cammi, C. Pomelli, J. W. Ochterski, 
 R. L. Martin, K. Morokuma, V. G. Zakrzewski, G. A. Voth, 
 P. Salvador, J. J. Dannenberg, S. Dapprich, A. D. Daniels, 
 O. Farkas, J. B. Foresman, J. V. Ortiz, J. Cioslowski, 
 and D. J. Fox, Gaussian, Inc., Wallingford CT, 2009.
 
 ******************************************
 Gaussian 09:  EM64L-G09RevA.01  8-May-2009
                 1-Apr-2015 
 ******************************************
 %mem=28GB
 %nprocshared=12
 Will use up to   12 processors via shared memory.
 %chk=C3H7_45_b3631gd.chk
 ---------------------------
 #p opt freq ub3lyp/6-31g(d)
 ---------------------------
 1/14=-1,18=20,19=15,26=3,38=1/1,3;
 2/9=110,12=2,17=6,18=5,40=1/2;
 3/5=1,6=6,7=1,11=2,16=1,25=1,30=1,71=1,74=-5,116=2/1,2,3;
 4//1;
 5/5=2,38=5/2;
 6/7=2,8=2,9=2,10=2,28=1/1;
 7//1,2,3,16;
 1/14=-1,18=20,19=15/3(2);
 2/9=110/2;
 99//99;
 2/9=110/2;
 3/5=1,6=6,7=1,11=2,16=1,25=1,30=1,71=1,74=-5,116=2/1,2,3;
 4/5=5,16=3/1;
 5/5=2,38=5/2;
 7//1,2,3,16;
 1/14=-1,18=20,19=15/3(-5);
 2/9=110/2;
 6/7=2,8=2,9=2,10=2,19=2,28=1/1;
 99/9=1/99;
 Leave Link    1 at Wed Apr  1 00:05:49 2015, MaxMem= 3758096384 cpu:       0.3
 (Enter /share/apps/g09/l101.exe)
 ------------------------------------------------------
 RO2_3_2_opt_ub3631gd using cbs-qb3 to calculate energy
 ------------------------------------------------------
 Symbolic Z-matrix:
 Charge =  0 Multiplicity = 2
 C                     0.01751  -0.08404  -0.04768 
 H                    -0.27726  -0.54659   0.90866 
 H                     1.08791   0.17396   0.02338 
 H                    -0.0918   -0.84191  -0.84011 
 C                    -0.82871   1.16011  -0.34261 
 H                    -0.54185   1.55816  -1.34262 
 H                    -1.89291   0.87695  -0.4534 
 C                    -0.69725   2.23523   0.68241 
 H                     0.22351   2.34082   1.26384 
 H                    -1.44229   3.03117   0.75854 
 
 NAtoms=     10 NQM=     10 NQMF=      0 NMic=      0 NMicF=      0 NTot=     10.
                    Isotopes and Nuclear Properties:
 (Nuclear quadrupole moments (NQMom) in fm**2, nuclear magnetic moments (NMagM)
  in nuclear magnetons)

  Atom         1           2           3           4           5           6           7           8           9          10
 IAtWgt=          12           1           1           1          12           1           1          12           1           1
 AtmWgt=  12.0000000   1.0078250   1.0078250   1.0078250  12.0000000   1.0078250   1.0078250  12.0000000   1.0078250   1.0078250
 NucSpn=           0           1           1           1           0           1           1           0           1           1
 AtZEff=   0.0000000   0.0000000   0.0000000   0.0000000   0.0000000   0.0000000   0.0000000   0.0000000   0.0000000   0.0000000
 NQMom=    0.0000000   0.0000000   0.0000000   0.0000000   0.0000000   0.0000000   0.0000000   0.0000000   0.0000000   0.0000000
 NMagM=    0.0000000   2.7928460   2.7928460   2.7928460   0.0000000   2.7928460   2.7928460   0.0000000   2.7928460   2.7928460
 Leave Link  101 at Wed Apr  1 00:05:49 2015, MaxMem= 3758096384 cpu:       0.7
 (Enter /share/apps/g09/l103.exe)

 GradGradGradGradGradGradGradGradGradGradGradGradGradGradGradGradGradGrad
 Berny optimization.
 Initialization pass.
                           ----------------------------
                           !    Initial Parameters    !
                           ! (Angstroms and Degrees)  !
 --------------------------                            --------------------------
 ! Name  Definition              Value          Derivative Info.                !
 --------------------------------------------------------------------------------
 ! R1    R(1,2)                  1.1025         estimate D2E/DX2                !
 ! R2    R(1,3)                  1.1033         estimate D2E/DX2                !
 ! R3    R(1,4)                  1.1019         estimate D2E/DX2                !
 ! R4    R(1,5)                  1.5333         estimate D2E/DX2                !
 ! R5    R(5,6)                  1.1139         estimate D2E/DX2                !
 ! R6    R(5,7)                  1.1068         estimate D2E/DX2                !
 ! R7    R(5,8)                  1.4912         estimate D2E/DX2                !
 ! R8    R(8,9)                  1.0941         estimate D2E/DX2                !
 ! R9    R(8,10)                 1.0929         estimate D2E/DX2                !
 ! A1    A(2,1,3)              107.5555         estimate D2E/DX2                !
 ! A2    A(2,1,4)              107.9827         estimate D2E/DX2                !
 ! A3    A(2,1,5)              111.0836         estimate D2E/DX2                !
 ! A4    A(3,1,4)              107.66           estimate D2E/DX2                !
 ! A5    A(3,1,5)              110.9818         estimate D2E/DX2                !
 ! A6    A(4,1,5)              111.4077         estimate D2E/DX2                !
 ! A7    A(1,5,6)              108.694          estimate D2E/DX2                !
 ! A8    A(1,5,7)              110.0187         estimate D2E/DX2                !
 ! A9    A(1,5,8)              113.8371         estimate D2E/DX2                !
 ! A10   A(6,5,7)              104.4288         estimate D2E/DX2                !
 ! A11   A(6,5,8)              109.6784         estimate D2E/DX2                !
 ! A12   A(7,5,8)              109.7563         estimate D2E/DX2                !
 ! A13   A(5,8,9)              120.601          estimate D2E/DX2                !
 ! A14   A(5,8,10)             120.8538         estimate D2E/DX2                !
 ! A15   A(9,8,10)             117.8017         estimate D2E/DX2                !
 ! D1    D(2,1,5,6)           -176.5812         estimate D2E/DX2                !
 ! D2    D(2,1,5,7)            -62.7998         estimate D2E/DX2                !
 ! D3    D(2,1,5,8)             60.8614         estimate D2E/DX2                !
 ! D4    D(3,1,5,6)             63.8095         estimate D2E/DX2                !
 ! D5    D(3,1,5,7)            177.591          estimate D2E/DX2                !
 ! D6    D(3,1,5,8)            -58.7479         estimate D2E/DX2                !
 ! D7    D(4,1,5,6)            -56.1468         estimate D2E/DX2                !
 ! D8    D(4,1,5,7)             57.6346         estimate D2E/DX2                !
 ! D9    D(4,1,5,8)           -178.7042         estimate D2E/DX2                !
 ! D10   D(1,5,8,9)             28.1621         estimate D2E/DX2                !
 ! D11   D(1,5,8,10)          -161.9331         estimate D2E/DX2                !
 ! D12   D(6,5,8,9)            -93.8531         estimate D2E/DX2                !
 ! D13   D(6,5,8,10)            76.0516         estimate D2E/DX2                !
 ! D14   D(7,5,8,9)            151.9654         estimate D2E/DX2                !
 ! D15   D(7,5,8,10)           -38.1298         estimate D2E/DX2                !
 --------------------------------------------------------------------------------
 Trust Radius=3.00D-01 FncErr=1.00D-07 GrdErr=1.00D-06
 Number of steps in this run=  49 maximum allowed number of steps= 100.
 GradGradGradGradGradGradGradGradGradGradGradGradGradGradGradGradGradGrad

 Leave Link  103 at Wed Apr  1 00:05:49 2015, MaxMem= 3758096384 cpu:       0.1
 (Enter /share/apps/g09/l202.exe)
                          Input orientation:                          
 ---------------------------------------------------------------------
 Center     Atomic      Atomic             Coordinates (Angstroms)
 Number     Number       Type             X           Y           Z
 ---------------------------------------------------------------------
      1          6           0        0.017510   -0.084038   -0.047683
      2          1           0       -0.277263   -0.546592    0.908664
      3          1           0        1.087911    0.173960    0.023377
      4          1           0       -0.091795   -0.841907   -0.840111
      5          6           0       -0.828710    1.160109   -0.342606
      6          1           0       -0.541845    1.558161   -1.342616
      7          1           0       -1.892905    0.876953   -0.453403
      8          6           0       -0.697247    2.235233    0.682407
      9          1           0        0.223508    2.340823    1.263843
     10          1           0       -1.442285    3.031170    0.758538
 ---------------------------------------------------------------------
                    Distance matrix (angstroms):
                    1          2          3          4          5
     1  C    0.000000
     2  H    1.102473   0.000000
     3  H    1.103345   1.779502   0.000000
     4  H    1.101932   1.783206   1.780254   0.000000
     5  C    1.533287   2.186915   2.186291   2.190576   0.000000
     6  H    2.164843   3.093259   2.537332   2.493067   1.113893
     7  H    2.176648   2.547942   3.099481   2.519528   1.106781
     8  C    2.534349   2.822433   2.805344   3.486176   1.491250
     9  H    2.764505   2.951964   2.642204   3.828291   2.254313
    10  H    3.533485   3.765660   3.886644   4.402298   2.256072
                    6          7          8          9         10
     6  H    0.000000
     7  H    1.755023   0.000000
     8  C    2.140863   2.136489   0.000000
     9  H    2.827004   3.093712   1.094078   0.000000
    10  H    2.719448   2.512471   1.092883   1.872639   0.000000
 Stoichiometry    C3H7(2)
 Framework group  C1[X(C3H7)]
 Deg. of freedom    24
 Full point group                 C1      NOp   1
 Largest Abelian subgroup         C1      NOp   1
 Largest concise Abelian subgroup C1      NOp   1
                         Standard orientation:                         
 ---------------------------------------------------------------------
 Center     Atomic      Atomic             Coordinates (Angstroms)
 Number     Number       Type             X           Y           Z
 ---------------------------------------------------------------------
      1          6           0        1.228577   -0.241788   -0.036167
      2          1           0        1.303309   -0.782258   -0.994161
      3          1           0        1.290833   -0.989014    0.773245
      4          1           0        2.105943    0.419203    0.050871
      5          6           0       -0.080616    0.551796    0.048743
      6          1           0       -0.086753    1.129574    1.001052
      7          1           0       -0.107161    1.324749   -0.742966
      8          6           0       -1.305205   -0.295315   -0.032563
      9          1           0       -1.287215   -1.334552    0.309006
     10          1           0       -2.275494    0.144142   -0.277123
 ---------------------------------------------------------------------
 Rotational constants (GHZ):     32.7151520      8.9018219      7.7225834
 Leave Link  202 at Wed Apr  1 00:05:49 2015, MaxMem= 3758096384 cpu:       0.1
 (Enter /share/apps/g09/l301.exe)
 Standard basis: 6-31G(d) (6D, 7F)
 Ernie: Thresh=  0.10000D-02 Tol=  0.10000D-05 Strict=F.
 There are    59 symmetry adapted basis functions of A   symmetry.
 Integral buffers will be    131072 words long.
 Raffenetti 2 integral format.
 Two-electron integral symmetry is turned on.
    59 basis functions,   112 primitive gaussians,    59 cartesian basis functions
    13 alpha electrons       12 beta electrons
       nuclear repulsion energy        75.4938974023 Hartrees.
 IExCor=  402 DFT=T Ex+Corr=B3LYP ExCW=0 ScaHFX=  0.200000
 ScaDFX=  0.800000  0.720000  1.000000  0.810000 ScalE2=  1.000000  1.000000
 IRadAn=      0 IRanWt=     -1 IRanGd=            0 ICorTp=0
 NAtoms=   10 NActive=   10 NUniq=   10 SFac= 7.50D-01 NAtFMM=   80 NAOKFM=F Big=F
 Leave Link  301 at Wed Apr  1 00:05:50 2015, MaxMem= 3758096384 cpu:       0.6
 (Enter /share/apps/g09/l302.exe)
 NPDir=0 NMtPBC=     1 NCelOv=     1 NCel=       1 NClECP=     1 NCelD=      1
         NCelK=      1 NCelE2=     1 NClLst=     1 CellRange=     0.0.
 One-electron integrals computed using PRISM.
 NBasis=    59 RedAO= T  NBF=    59
 NBsUse=    59 1.00D-06 NBFU=    59
 Precomputing XC quadrature grid using
 IXCGrd= 2 IRadAn=           0 IRanWt=          -1 IRanGd=           0 AccXCQ= 1.00D-10.
 NRdTot=     616 NPtTot=       78248 NUsed=       82703 NTot=       82735
 NSgBfM=    59    59    59    59    59 NAtAll=    10    10.
 Leave Link  302 at Wed Apr  1 00:05:50 2015, MaxMem= 3758096384 cpu:       1.8
 (Enter /share/apps/g09/l303.exe)
 DipDrv:  MaxL=1.
 Leave Link  303 at Wed Apr  1 00:05:50 2015, MaxMem= 3758096384 cpu:       0.2
 (Enter /share/apps/g09/l401.exe)
 Harris functional with IExCor=  402 diagonalized for initial guess.
 ExpMin= 1.61D-01 ExpMax= 3.05D+03 ExpMxC= 4.57D+02 IAcc=1 IRadAn=         1 AccDes= 0.00D+00
 HarFok:  IExCor=  402 AccDes= 0.00D+00 IRadAn=         1 IDoV= 1
 ScaDFX=  1.000000  1.000000  1.000000  1.000000
 FoFCou: FMM=F IPFlag=           0 FMFlag=      100000 FMFlg1=           0
         NFxFlg=           0 DoJE=T BraDBF=F KetDBF=T FulRan=T
         Omega=  0.000000  0.000000  1.000000  0.000000  0.000000 ICntrl=     500 IOpCl=  0
         NMat0=    1 NMatS0=    1 NMatT0=    0 NMatD0=    1 NMtDS0=    0 NMtDT0=    0
         I1Cent=           4 NGrid=           0.
 Petite list used in FoFCou.
 Harris En= -118.496684278427    
 Initial guess orbital symmetries:
 Alpha Orbitals:
       Occupied  (A) (A) (A) (A) (A) (A) (A) (A) (A) (A) (A) (A)
                 (A)
       Virtual   (A) (A) (A) (A) (A) (A) (A) (A) (A) (A) (A) (A)
                 (A) (A) (A) (A) (A) (A) (A) (A) (A) (A) (A) (A)
                 (A) (A) (A) (A) (A) (A) (A) (A) (A) (A) (A) (A)
                 (A) (A) (A) (A) (A) (A) (A) (A) (A) (A)
 Beta  Orbitals:
       Occupied  (A) (A) (A) (A) (A) (A) (A) (A) (A) (A) (A) (A)
       Virtual   (A) (A) (A) (A) (A) (A) (A) (A) (A) (A) (A) (A)
                 (A) (A) (A) (A) (A) (A) (A) (A) (A) (A) (A) (A)
                 (A) (A) (A) (A) (A) (A) (A) (A) (A) (A) (A) (A)
                 (A) (A) (A) (A) (A) (A) (A) (A) (A) (A) (A)
 The electronic state of the initial guess is 2-A.
 Initial guess <Sx>= 0.0000 <Sy>= 0.0000 <Sz>= 0.5000 <S**2>= 0.7500 S= 0.5000
 Leave Link  401 at Wed Apr  1 00:05:50 2015, MaxMem= 3758096384 cpu:       2.1
 (Enter /share/apps/g09/l502.exe)
 UHF open shell SCF:
 Requested convergence on RMS density matrix=1.00D-08 within 128 cycles.
 Requested convergence on MAX density matrix=1.00D-06.
 Requested convergence on             energy=1.00D-06.
 No special actions if energy rises.
 Using DIIS extrapolation, IDIIS=  1040.
 Integral symmetry usage will be decided dynamically.
        82600 words used for storage of precomputed grid.
 Keep R1 and R2 ints in memory in canonical form, NReq=4123375.
 IEnd=      112356 IEndB=      112356 NGot=  3758096384 MDV=  3754869511
 LenX=  3754869511 LenY=  3754865589
 Symmetry not used in FoFDir.
 MinBra= 0 MaxBra= 2 Meth= 1.
 IRaf=       0 NMat=   1 IRICut=       1 DoRegI=T DoRafI=F ISym2E= 0 JSym2E=0.
 Integral accuracy reduced to 1.0D-05 until final iterations.

 Cycle   1  Pass 0  IDiag  1:
 E= -118.334165411563    
 DIIS: error= 5.57D-02 at cycle   1 NSaved=   1.
 NSaved= 1 IEnMin= 1 EnMin= -118.334165411563     IErMin= 1 ErrMin= 5.57D-02
 ErrMax= 5.57D-02 EMaxC= 1.00D-01 BMatC= 4.74D-01 BMatP= 4.74D-01
 IDIUse=3 WtCom= 4.43D-01 WtEn= 5.57D-01
 Coeff-Com:  0.100D+01
 Coeff-En:   0.100D+01
 Coeff:      0.100D+01
 Gap=     0.241 Goal=   None    Shift=    0.000
 Gap=     0.308 Goal=   None    Shift=    0.000
 GapD=    0.241 DampG=1.000 DampE=0.500 DampFc=0.5000 IDamp=-1.
 Damping current iteration by 5.00D-01
 RMSDP=1.29D-02 MaxDP=1.40D-01              OVMax= 1.89D-01

 Cycle   2  Pass 0  IDiag  1:
 E= -118.395915906665     Delta-E=       -0.061750495102 Rises=F Damp=T
 DIIS: error= 9.64D-03 at cycle   2 NSaved=   2.
 NSaved= 2 IEnMin= 2 EnMin= -118.395915906665     IErMin= 2 ErrMin= 9.64D-03
 ErrMax= 9.64D-03 EMaxC= 1.00D-01 BMatC= 1.89D-02 BMatP= 4.74D-01
 IDIUse=3 WtCom= 9.04D-01 WtEn= 9.64D-02
 Coeff-Com:  0.736D-01 0.926D+00
 Coeff-En:   0.108D+00 0.892D+00
 Coeff:      0.770D-01 0.923D+00
 Gap=     0.291 Goal=   None    Shift=    0.000
 Gap=     0.320 Goal=   None    Shift=    0.000
 RMSDP=1.73D-03 MaxDP=1.94D-02 DE=-6.18D-02 OVMax= 9.34D-02

 Cycle   3  Pass 0  IDiag  1:
 E= -118.470725412043     Delta-E=       -0.074809505378 Rises=F Damp=F
 DIIS: error= 2.30D-03 at cycle   3 NSaved=   3.
 NSaved= 3 IEnMin= 3 EnMin= -118.470725412043     IErMin= 3 ErrMin= 2.30D-03
 ErrMax= 2.30D-03 EMaxC= 1.00D-01 BMatC= 1.51D-03 BMatP= 1.89D-02
 IDIUse=3 WtCom= 9.77D-01 WtEn= 2.30D-02
 Coeff-Com:  0.685D-03 0.146D+00 0.854D+00
 Coeff-En:   0.000D+00 0.000D+00 0.100D+01
 Coeff:      0.669D-03 0.142D+00 0.857D+00
 Gap=     0.301 Goal=   None    Shift=    0.000
 Gap=     0.298 Goal=   None    Shift=    0.000
 RMSDP=5.24D-04 MaxDP=9.59D-03 DE=-7.48D-02 OVMax= 9.03D-03

 Cycle   4  Pass 0  IDiag  1:
 E= -118.471006605551     Delta-E=       -0.000281193508 Rises=F Damp=F
 DIIS: error= 1.12D-03 at cycle   4 NSaved=   4.
 NSaved= 4 IEnMin= 4 EnMin= -118.471006605551     IErMin= 4 ErrMin= 1.12D-03
 ErrMax= 1.12D-03 EMaxC= 1.00D-01 BMatC= 5.54D-04 BMatP= 1.51D-03
 IDIUse=3 WtCom= 9.89D-01 WtEn= 1.12D-02
 Coeff-Com: -0.187D-02 0.107D-01 0.372D+00 0.620D+00
 Coeff-En:   0.000D+00 0.000D+00 0.146D+00 0.854D+00
 Coeff:     -0.185D-02 0.106D-01 0.369D+00 0.622D+00
 Gap=     0.298 Goal=   None    Shift=    0.000
 Gap=     0.302 Goal=   None    Shift=    0.000
 RMSDP=2.00D-04 MaxDP=3.33D-03 DE=-2.81D-04 OVMax= 3.73D-03

 Cycle   5  Pass 0  IDiag  1:
 E= -118.471141800098     Delta-E=       -0.000135194547 Rises=F Damp=F
 DIIS: error= 3.37D-04 at cycle   5 NSaved=   5.
 NSaved= 5 IEnMin= 5 EnMin= -118.471141800098     IErMin= 5 ErrMin= 3.37D-04
 ErrMax= 3.37D-04 EMaxC= 1.00D-01 BMatC= 3.45D-05 BMatP= 5.54D-04
 IDIUse=3 WtCom= 9.97D-01 WtEn= 3.37D-03
 Coeff-Com: -0.633D-03-0.930D-02 0.582D-01 0.223D+00 0.729D+00
 Coeff-En:   0.000D+00 0.000D+00 0.000D+00 0.000D+00 0.100D+01
 Coeff:     -0.631D-03-0.927D-02 0.580D-01 0.222D+00 0.730D+00
 Gap=     0.299 Goal=   None    Shift=    0.000
 Gap=     0.302 Goal=   None    Shift=    0.000
 RMSDP=5.83D-05 MaxDP=1.24D-03 DE=-1.35D-04 OVMax= 1.06D-03

 Cycle   6  Pass 0  IDiag  1:
 E= -118.471152037911     Delta-E=       -0.000010237813 Rises=F Damp=F
 DIIS: error= 6.77D-05 at cycle   6 NSaved=   6.
 NSaved= 6 IEnMin= 6 EnMin= -118.471152037911     IErMin= 6 ErrMin= 6.77D-05
 ErrMax= 6.77D-05 EMaxC= 1.00D-01 BMatC= 1.69D-06 BMatP= 3.45D-05
 IDIUse=1 WtCom= 1.00D+00 WtEn= 0.00D+00
 Coeff-Com:  0.104D-03-0.690D-03-0.452D-01-0.820D-01-0.205D-01 0.115D+01
 Coeff:      0.104D-03-0.690D-03-0.452D-01-0.820D-01-0.205D-01 0.115D+01
 Gap=     0.299 Goal=   None    Shift=    0.000
 Gap=     0.302 Goal=   None    Shift=    0.000
 RMSDP=2.39D-05 MaxDP=3.81D-04 DE=-1.02D-05 OVMax= 4.27D-04

 Cycle   7  Pass 0  IDiag  1:
 E= -118.471153088943     Delta-E=       -0.000001051032 Rises=F Damp=F
 DIIS: error= 2.73D-05 at cycle   7 NSaved=   7.
 NSaved= 7 IEnMin= 7 EnMin= -118.471153088943     IErMin= 7 ErrMin= 2.73D-05
 ErrMax= 2.73D-05 EMaxC= 1.00D-01 BMatC= 1.27D-07 BMatP= 1.69D-06
 IDIUse=1 WtCom= 1.00D+00 WtEn= 0.00D+00
 Coeff-Com:  0.291D-04 0.553D-03-0.130D-01-0.313D-01-0.539D-01 0.236D+00
 Coeff-Com:  0.861D+00
 Coeff:      0.291D-04 0.553D-03-0.130D-01-0.313D-01-0.539D-01 0.236D+00
 Coeff:      0.861D+00
 Gap=     0.299 Goal=   None    Shift=    0.000
 Gap=     0.302 Goal=   None    Shift=    0.000
 RMSDP=5.93D-06 MaxDP=8.28D-05 DE=-1.05D-06 OVMax= 9.84D-05

 Initial convergence to 1.0D-05 achieved.  Increase integral accuracy.
 Cycle   8  Pass 1  IDiag  1:
 E= -118.471160401891     Delta-E=       -0.000007312949 Rises=F Damp=F
 DIIS: error= 7.61D-06 at cycle   1 NSaved=   1.
 NSaved= 1 IEnMin= 1 EnMin= -118.471160401891     IErMin= 1 ErrMin= 7.61D-06
 ErrMax= 7.61D-06 EMaxC= 1.00D-01 BMatC= 3.86D-08 BMatP= 3.86D-08
 IDIUse=1 WtCom= 1.00D+00 WtEn= 0.00D+00
 Coeff-Com:  0.100D+01
 Coeff:      0.100D+01
 Gap=     0.299 Goal=   None    Shift=    0.000
 Gap=     0.302 Goal=   None    Shift=    0.000
 RMSDP=5.93D-06 MaxDP=8.28D-05 DE=-7.31D-06 OVMax= 5.03D-05

 Cycle   9  Pass 1  IDiag  1:
 E= -118.471160411654     Delta-E=       -0.000000009762 Rises=F Damp=F
 DIIS: error= 8.52D-06 at cycle   2 NSaved=   2.
 NSaved= 2 IEnMin= 2 EnMin= -118.471160411654     IErMin= 1 ErrMin= 7.61D-06
 ErrMax= 8.52D-06 EMaxC= 1.00D-01 BMatC= 1.68D-08 BMatP= 3.86D-08
 IDIUse=1 WtCom= 1.00D+00 WtEn= 0.00D+00
 Coeff-Com:  0.361D+00 0.639D+00
 Coeff:      0.361D+00 0.639D+00
 Gap=     0.299 Goal=   None    Shift=    0.000
 Gap=     0.302 Goal=   None    Shift=    0.000
 RMSDP=1.36D-06 MaxDP=1.92D-05 DE=-9.76D-09 OVMax= 2.26D-05

 Cycle  10  Pass 1  IDiag  1:
 E= -118.471160415271     Delta-E=       -0.000000003618 Rises=F Damp=F
 DIIS: error= 3.78D-06 at cycle   3 NSaved=   3.
 NSaved= 3 IEnMin= 3 EnMin= -118.471160415271     IErMin= 3 ErrMin= 3.78D-06
 ErrMax= 3.78D-06 EMaxC= 1.00D-01 BMatC= 2.95D-09 BMatP= 1.68D-08
 IDIUse=1 WtCom= 1.00D+00 WtEn= 0.00D+00
 Coeff-Com: -0.433D-01 0.275D+00 0.768D+00
 Coeff:     -0.433D-01 0.275D+00 0.768D+00
 Gap=     0.299 Goal=   None    Shift=    0.000
 Gap=     0.302 Goal=   None    Shift=    0.000
 RMSDP=4.26D-07 MaxDP=6.90D-06 DE=-3.62D-09 OVMax= 9.76D-06

 Cycle  11  Pass 1  IDiag  1:
 E= -118.471160416066     Delta-E=       -0.000000000795 Rises=F Damp=F
 DIIS: error= 3.50D-07 at cycle   4 NSaved=   4.
 NSaved= 4 IEnMin= 4 EnMin= -118.471160416066     IErMin= 4 ErrMin= 3.50D-07
 ErrMax= 3.50D-07 EMaxC= 1.00D-01 BMatC= 3.45D-11 BMatP= 2.95D-09
 IDIUse=1 WtCom= 1.00D+00 WtEn= 0.00D+00
 Coeff-Com: -0.678D-02-0.395D-01-0.637D-01 0.111D+01
 Coeff:     -0.678D-02-0.395D-01-0.637D-01 0.111D+01
 Gap=     0.299 Goal=   None    Shift=    0.000
 Gap=     0.302 Goal=   None    Shift=    0.000
 RMSDP=1.17D-07 MaxDP=1.47D-06 DE=-7.95D-10 OVMax= 2.23D-06

 Cycle  12  Pass 1  IDiag  1:
 E= -118.471160416089     Delta-E=       -0.000000000023 Rises=F Damp=F
 DIIS: error= 1.85D-07 at cycle   5 NSaved=   5.
 NSaved= 5 IEnMin= 5 EnMin= -118.471160416089     IErMin= 5 ErrMin= 1.85D-07
 ErrMax= 1.85D-07 EMaxC= 1.00D-01 BMatC= 7.51D-12 BMatP= 3.45D-11
 IDIUse=1 WtCom= 1.00D+00 WtEn= 0.00D+00
 Coeff-Com:  0.482D-02-0.504D-01-0.127D+00 0.268D+00 0.905D+00
 Coeff:      0.482D-02-0.504D-01-0.127D+00 0.268D+00 0.905D+00
 Gap=     0.299 Goal=   None    Shift=    0.000
 Gap=     0.302 Goal=   None    Shift=    0.000
 RMSDP=4.79D-08 MaxDP=6.89D-07 DE=-2.31D-11 OVMax= 8.64D-07

 Cycle  13  Pass 1  IDiag  1:
 E= -118.471160416092     Delta-E=       -0.000000000003 Rises=F Damp=F
 DIIS: error= 6.51D-08 at cycle   6 NSaved=   6.
 NSaved= 6 IEnMin= 6 EnMin= -118.471160416092     IErMin= 6 ErrMin= 6.51D-08
 ErrMax= 6.51D-08 EMaxC= 1.00D-01 BMatC= 1.07D-12 BMatP= 7.51D-12
 IDIUse=1 WtCom= 1.00D+00 WtEn= 0.00D+00
 Coeff-Com:  0.237D-02-0.157D-01-0.423D-01 0.877D-02 0.348D+00 0.699D+00
 Coeff:      0.237D-02-0.157D-01-0.423D-01 0.877D-02 0.348D+00 0.699D+00
 Gap=     0.299 Goal=   None    Shift=    0.000
 Gap=     0.302 Goal=   None    Shift=    0.000
 RMSDP=1.23D-08 MaxDP=2.35D-07 DE=-3.21D-12 OVMax= 2.07D-07

 Cycle  14  Pass 1  IDiag  1:
 E= -118.471160416093     Delta-E=       -0.000000000001 Rises=F Damp=F
 DIIS: error= 1.69D-08 at cycle   7 NSaved=   7.
 NSaved= 7 IEnMin= 7 EnMin= -118.471160416093     IErMin= 7 ErrMin= 1.69D-08
 ErrMax= 1.69D-08 EMaxC= 1.00D-01 BMatC= 9.68D-14 BMatP= 1.07D-12
 IDIUse=1 WtCom= 1.00D+00 WtEn= 0.00D+00
 Coeff-Com:  0.195D-03 0.657D-03 0.872D-03-0.288D-01 0.837D-02 0.238D+00
 Coeff-Com:  0.781D+00
 Coeff:      0.195D-03 0.657D-03 0.872D-03-0.288D-01 0.837D-02 0.238D+00
 Coeff:      0.781D+00
 Gap=     0.299 Goal=   None    Shift=    0.000
 Gap=     0.302 Goal=   None    Shift=    0.000
 RMSDP=3.92D-09 MaxDP=5.67D-08 DE=-6.54D-13 OVMax= 6.22D-08

 SCF Done:  E(UB3LYP) =  -118.471160416     A.U. after   14 cycles
             Convg  =    0.3921D-08             -V/T =  2.0109
 <Sx>= 0.0000 <Sy>= 0.0000 <Sz>= 0.5000 <S**2>= 0.7540 S= 0.5020
 <L.S>= 0.000000000000E+00
 KE= 1.171988948477D+02 PE=-4.242421930551D+02 EE= 1.130782403890D+02
 Annihilation of the first spin contaminant:
 S**2 before annihilation     0.7540,   after     0.7500
 Leave Link  502 at Wed Apr  1 00:05:52 2015, MaxMem= 3758096384 cpu:      15.1
 (Enter /share/apps/g09/l601.exe)
 Copying SCF densities to generalized density rwf, IOpCl= 1 IROHF=0.

 **********************************************************************

            Population analysis using the SCF density.

 **********************************************************************

 Orbital symmetries:
 Alpha Orbitals:
       Occupied  (A) (A) (A) (A) (A) (A) (A) (A) (A) (A) (A) (A)
                 (A)
       Virtual   (A) (A) (A) (A) (A) (A) (A) (A) (A) (A) (A) (A)
                 (A) (A) (A) (A) (A) (A) (A) (A) (A) (A) (A) (A)
                 (A) (A) (A) (A) (A) (A) (A) (A) (A) (A) (A) (A)
                 (A) (A) (A) (A) (A) (A) (A) (A) (A) (A)
 Beta  Orbitals:
       Occupied  (A) (A) (A) (A) (A) (A) (A) (A) (A) (A) (A) (A)
       Virtual   (A) (A) (A) (A) (A) (A) (A) (A) (A) (A) (A) (A)
                 (A) (A) (A) (A) (A) (A) (A) (A) (A) (A) (A) (A)
                 (A) (A) (A) (A) (A) (A) (A) (A) (A) (A) (A) (A)
                 (A) (A) (A) (A) (A) (A) (A) (A) (A) (A) (A)
 The electronic state is 2-A.
 Alpha  occ. eigenvalues --  -10.18696 -10.18512 -10.17568  -0.77805  -0.66995
 Alpha  occ. eigenvalues --   -0.57738  -0.44941  -0.43677  -0.40342  -0.35500
 Alpha  occ. eigenvalues --   -0.34859  -0.33995  -0.19520
 Alpha virt. eigenvalues --    0.10365   0.13690   0.14492   0.15348   0.17326
 Alpha virt. eigenvalues --    0.18610   0.19983   0.24417   0.28132   0.51310
 Alpha virt. eigenvalues --    0.52155   0.54264   0.57845   0.59873   0.61893
 Alpha virt. eigenvalues --    0.67281   0.72785   0.80359   0.84388   0.86271
 Alpha virt. eigenvalues --    0.89163   0.90759   0.93373   0.95422   0.96096
 Alpha virt. eigenvalues --    0.99997   1.18592   1.42730   1.49541   1.59605
 Alpha virt. eigenvalues --    1.67760   1.83679   1.91311   1.94119   1.98911
 Alpha virt. eigenvalues --    2.06974   2.13619   2.23258   2.32732   2.35007
 Alpha virt. eigenvalues --    2.42306   2.61322   2.68414   4.09112   4.20293
 Alpha virt. eigenvalues --    4.44370
  Beta  occ. eigenvalues --  -10.18786 -10.17542 -10.17130  -0.76901  -0.65267
  Beta  occ. eigenvalues --   -0.56243  -0.44370  -0.42988  -0.39807  -0.34859
  Beta  occ. eigenvalues --   -0.34271  -0.33648
  Beta virt. eigenvalues --   -0.03447   0.10577   0.14670   0.14999   0.15667
  Beta virt. eigenvalues --    0.17445   0.18867   0.20473   0.24925   0.28746
  Beta virt. eigenvalues --    0.51645   0.52447   0.56003   0.59525   0.63312
  Beta virt. eigenvalues --    0.63993   0.67459   0.73450   0.81601   0.85104
  Beta virt. eigenvalues --    0.86676   0.89469   0.91070   0.94016   0.95710
  Beta virt. eigenvalues --    0.97936   1.00295   1.19464   1.44388   1.50345
  Beta virt. eigenvalues --    1.59750   1.73321   1.85029   1.92883   1.95227
  Beta virt. eigenvalues --    2.01421   2.09475   2.16488   2.23615   2.33328
  Beta virt. eigenvalues --    2.36355   2.43055   2.62140   2.68953   4.11440
  Beta virt. eigenvalues --    4.21233   4.44732
          Condensed to atoms (all electrons):
              1          2          3          4          5          6
     1  C    5.064203   0.376898   0.377677   0.369906   0.377772  -0.041390
     2  H    0.376898   0.572212  -0.032363  -0.029971  -0.035553   0.005427
     3  H    0.377677  -0.032363   0.577722  -0.031155  -0.035535  -0.004678
     4  H    0.369906  -0.029971  -0.031155   0.579274  -0.028337  -0.002280
     5  C    0.377772  -0.035553  -0.035535  -0.028337   4.907139   0.370482
     6  H   -0.041390   0.005427  -0.004678  -0.002280   0.370482   0.620981
     7  H   -0.036262  -0.004863   0.005073  -0.002863   0.376162  -0.043155
     8  C   -0.047396  -0.000272  -0.004022   0.004372   0.393659  -0.050912
     9  H   -0.005672   0.000323   0.004119   0.000060  -0.040352   0.001014
    10  H    0.003860   0.000024  -0.000010  -0.000153  -0.031718   0.000696
              7          8          9         10
     1  C   -0.036262  -0.047396  -0.005672   0.003860
     2  H   -0.004863  -0.000272   0.000323   0.000024
     3  H    0.005073  -0.004022   0.004119  -0.000010
     4  H   -0.002863   0.004372   0.000060  -0.000153
     5  C    0.376162   0.393659  -0.040352  -0.031718
     6  H   -0.043155  -0.050912   0.001014   0.000696
     7  H    0.604613  -0.041229   0.004355  -0.003900
     8  C   -0.041229   5.306870   0.373685   0.367538
     9  H    0.004355   0.373685   0.560738  -0.037289
    10  H   -0.003900   0.367538  -0.037289   0.562706
 Mulliken atomic charges:
              1
     1  C   -0.439597
     2  H    0.148139
     3  H    0.143172
     4  H    0.141146
     5  C   -0.253718
     6  H    0.143815
     7  H    0.142069
     8  C   -0.302293
     9  H    0.139021
    10  H    0.138246
 Sum of Mulliken atomic charges =   0.00000
 Mulliken charges with hydrogens summed into heavy atoms:
              1
     1  C   -0.007140
     5  C    0.032166
     8  C   -0.025027
 Sum of Mulliken charges with hydrogens summed into heavy atoms =   0.00000
          Atomic-Atomic Spin Densities.
              1          2          3          4          5          6
     1  C    0.022441  -0.006286   0.001029  -0.003413   0.007563  -0.008206
     2  H   -0.006286   0.004042  -0.001079   0.001840  -0.000965   0.000989
     3  H    0.001029  -0.001079   0.000468  -0.000591   0.000614  -0.001466
     4  H   -0.003413   0.001840  -0.000591   0.001142   0.000285   0.001985
     5  C    0.007563  -0.000965   0.000614   0.000285  -0.066356   0.012370
     6  H   -0.008206   0.000989  -0.001466   0.001985   0.012370   0.102980
     7  H    0.006548  -0.001473   0.000301  -0.000974   0.006780  -0.014879
     8  C   -0.011392   0.005138  -0.000127   0.000384  -0.038066  -0.031636
     9  H    0.000786  -0.000121   0.000111  -0.000045   0.000120  -0.000466
    10  H    0.000034  -0.000034   0.000018   0.000000  -0.000442  -0.000538
              7          8          9         10
     1  C    0.006548  -0.011392   0.000786   0.000034
     2  H   -0.001473   0.005138  -0.000121  -0.000034
     3  H    0.000301  -0.000127   0.000111   0.000018
     4  H   -0.000974   0.000384  -0.000045   0.000000
     5  C    0.006780  -0.038066   0.000120  -0.000442
     6  H   -0.014879  -0.031636  -0.000466  -0.000538
     7  H    0.036651  -0.013040   0.000116   0.000853
     8  C   -0.013040   1.189816  -0.007204  -0.006170
     9  H    0.000116  -0.007204  -0.046858   0.002253
    10  H    0.000853  -0.006170   0.002253  -0.047334
 Mulliken atomic spin densities:
              1
     1  C    0.009105
     2  H    0.002051
     3  H   -0.000722
     4  H    0.000612
     5  C   -0.078097
     6  H    0.061133
     7  H    0.020884
     8  C    1.087703
     9  H   -0.051309
    10  H   -0.051359
 Sum of Mulliken atomic spin densities =   1.00000
 Electronic spatial extent (au):  <R**2>=            212.9041
 Charge=              0.0000 electrons
 Dipole moment (field-independent basis, Debye):
    X=              0.1292    Y=              0.1796    Z=              0.1210  Tot=              0.2521
 Quadrupole moment (field-independent basis, Debye-Ang):
   XX=            -20.8383   YY=            -20.3677   ZZ=            -21.2630
   XY=             -0.0846   XZ=              0.0720   YZ=             -0.4162
 Traceless Quadrupole moment (field-independent basis, Debye-Ang):
   XX=             -0.0153   YY=              0.4553   ZZ=             -0.4400
   XY=             -0.0846   XZ=              0.0720   YZ=             -0.4162
 Octapole moment (field-independent basis, Debye-Ang**2):
  XXX=             -0.9833  YYY=             -0.3403  ZZZ=              0.1460  XYY=             -0.1012
  XXY=              1.1965  XXZ=             -0.4766  XZZ=              1.2417  YZZ=              0.3477
  YYZ=              0.4537  XYZ=              0.5646
 Hexadecapole moment (field-independent basis, Debye-Ang**3):
 XXXX=           -185.9369 YYYY=            -64.7999 ZZZZ=            -36.8662 XXXY=             -0.0672
 XXXZ=              2.0583 YYYX=              0.8453 YYYZ=             -1.4706 ZZZX=             -0.4616
 ZZZY=              0.0402 XXYY=            -42.3336 XXZZ=            -39.7886 YYZZ=            -16.0905
 XXYZ=             -0.7859 YYXZ=             -0.3751 ZZXY=             -1.2020
 N-N= 7.549389740230D+01 E-N=-6.315736675533D+02  KE= 1.751657454349D+02
                          Isotropic Fermi Contact Couplings
        Atom                 a.u.       MegaHertz       Gauss      10(-4) cm-1
     1  C(13)              0.01206      13.56308       4.83964       4.52416
     2  H(1)              -0.00040      -1.78748      -0.63782      -0.59624
     3  H(1)              -0.00032      -1.40879      -0.50269      -0.46992
     4  H(1)              -0.00019      -0.83483      -0.29789      -0.27847
     5  C(13)             -0.02608     -29.32020     -10.46218      -9.78017
     6  H(1)               0.03151     140.82390      50.24947      46.97380
     7  H(1)               0.01133      50.62292      18.06352      16.88599
     8  C(13)              0.12040     135.35782      48.29904      45.15051
     9  H(1)              -0.01514     -67.67053     -24.14653     -22.57246
    10  H(1)              -0.01511     -67.53389     -24.09777     -22.52688
 --------------------------------------------------------
       Center         ----  Spin Dipole Couplings  ----
                      3XX-RR        3YY-RR        3ZZ-RR
 --------------------------------------------------------
     1   Atom        0.019592     -0.008994     -0.010598
     2   Atom        0.010188     -0.005392     -0.004796
     3   Atom        0.007671     -0.004042     -0.003629
     4   Atom        0.006490     -0.003136     -0.003355
     5   Atom        0.005841     -0.006800      0.000960
     6   Atom        0.001432      0.002010     -0.003442
     7   Atom       -0.000938      0.008299     -0.007361
     8   Atom       -0.486418     -0.427734      0.914152
     9   Atom       -0.067507      0.066139      0.001367
    10   Atom        0.045510     -0.040910     -0.004599
 --------------------------------------------------------
                        XY            XZ            YZ
 --------------------------------------------------------
     1   Atom       -0.005626      0.005250     -0.001458
     2   Atom       -0.003062     -0.004598      0.001880
     3   Atom       -0.004251      0.004395     -0.001371
     4   Atom        0.001624      0.000236      0.000343
     5   Atom        0.013130      0.000814      0.005879
     6   Atom        0.011154      0.004873      0.008794
     7   Atom        0.012225     -0.004272     -0.005542
     8   Atom       -0.075685     -0.269377      0.392102
     9   Atom       -0.006485     -0.009540     -0.026298
    10   Atom       -0.055228      0.018856      0.001995
 --------------------------------------------------------


 ---------------------------------------------------------------------------------
              Anisotropic Spin Dipole Couplings in Principal Axis System
 ---------------------------------------------------------------------------------

       Atom             a.u.   MegaHertz   Gauss  10(-4) cm-1        Axes

              Baa    -0.0116    -1.562    -0.557    -0.521 -0.1059  0.2976  0.9488
     1 C(13)  Bbb    -0.0099    -1.333    -0.476    -0.445  0.2262  0.9364 -0.2685
              Bcc     0.0216     2.895     1.033     0.966  0.9683 -0.1862  0.1664
 
              Baa    -0.0070    -3.758    -1.341    -1.254  0.0692 -0.6910  0.7196
     2 H(1)   Bbb    -0.0051    -2.735    -0.976    -0.912  0.3305  0.6964  0.6370
              Bcc     0.0122     6.493     2.317     2.166  0.9413 -0.1937 -0.2766
 
              Baa    -0.0054    -2.898    -1.034    -0.967  0.3517  0.9230 -0.1558
     3 H(1)   Bbb    -0.0051    -2.730    -0.974    -0.911 -0.2395  0.2496  0.9383
              Bcc     0.0105     5.627     2.008     1.877  0.9049 -0.2927  0.3089
 
              Baa    -0.0037    -1.965    -0.701    -0.655 -0.0996  0.7233 -0.6833
     4 H(1)   Bbb    -0.0031    -1.645    -0.587    -0.549 -0.1319  0.6711  0.7295
              Bcc     0.0068     3.609     1.288     1.204  0.9863  0.1627  0.0286
 
              Baa    -0.0163    -2.185    -0.780    -0.729 -0.4855  0.8342 -0.2615
     5 C(13)  Bbb     0.0011     0.150     0.053     0.050 -0.3692  0.0755  0.9263
              Bcc     0.0152     2.036     0.726     0.679  0.7925  0.5462  0.2714
 
              Baa    -0.0112    -5.995    -2.139    -2.000 -0.4238  0.7209 -0.5484
     6 H(1)   Bbb    -0.0062    -3.310    -1.181    -1.104 -0.6777  0.1493  0.7201
              Bcc     0.0174     9.305     3.320     3.104  0.6010  0.6768  0.4252
 
              Baa    -0.0097    -5.161    -1.841    -1.721  0.7306 -0.3092  0.6088
     7 H(1)   Bbb    -0.0090    -4.778    -1.705    -1.594 -0.4022  0.5257  0.7496
              Bcc     0.0186     9.939     3.546     3.315  0.5519  0.7925 -0.2597
 
              Baa    -0.5383   -72.229   -25.773   -24.093  0.8444  0.5356  0.0120
     8 C(13)  Bbb    -0.5323   -71.436   -25.490   -23.828 -0.5057  0.8043 -0.3122
              Bcc     1.0706   143.665    51.263    47.921 -0.1769  0.2575  0.9499
 
              Baa    -0.0696   -37.128   -13.248   -12.385  0.9838  0.0783  0.1613
     9 H(1)   Bbb    -0.0059    -3.172    -1.132    -1.058 -0.1781  0.3231  0.9295
              Bcc     0.0755    40.301    14.380    13.443 -0.0206  0.9431 -0.3318
 
              Baa    -0.0694   -37.043   -13.218   -12.356  0.4486  0.8798 -0.1575
    10 H(1)   Bbb    -0.0062    -3.331    -1.189    -1.111 -0.1085  0.2286  0.9675
              Bcc     0.0757    40.375    14.407    13.468  0.8871 -0.4169  0.1980
 

 ---------------------------------------------------------------------------------

 No NMR shielding tensors so no spin-rotation constants.
 Leave Link  601 at Wed Apr  1 00:05:52 2015, MaxMem= 3758096384 cpu:       2.9
 (Enter /share/apps/g09/l701.exe)
 Compute integral first derivatives.
 ... and contract with generalized density number  0.
 Leave Link  701 at Wed Apr  1 00:05:52 2015, MaxMem= 3758096384 cpu:       1.7
 (Enter /share/apps/g09/l702.exe)
 L702 exits ... SP integral derivatives will be done elsewhere.
 Leave Link  702 at Wed Apr  1 00:05:52 2015, MaxMem= 3758096384 cpu:       0.2
 (Enter /share/apps/g09/l703.exe)
 Compute integral first derivatives, UseDBF=F ICtDFT=           0.
 Integral derivatives from FoFDir, PRISM(SPDF).
 Calling FoFJK, ICntrl=      2127 FMM=F ISym2X=0 I1Cent= 0 IOpClX= 1 NMat=1 NMatS=1 NMatT=0.
 FoFCou: FMM=F IPFlag=           0 FMFlag=      100000 FMFlg1=         800
         NFxFlg=           0 DoJE=F BraDBF=F KetDBF=F FulRan=T
         Omega=  0.000000  0.000000  1.000000  0.000000  0.000000 ICntrl=    2127 IOpCl=  1
         NMat0=    1 NMatS0=    1 NMatT0=    0 NMatD0=    1 NMtDS0=    0 NMtDT0=    0
         I1Cent=           0 NGrid=           0.
 Symmetry not used in FoFCou.
 Leave Link  703 at Wed Apr  1 00:05:53 2015, MaxMem= 3758096384 cpu:       4.5
 (Enter /share/apps/g09/l716.exe)
 Dipole        = 5.08143746D-02 7.06426706D-02 4.76102353D-02
 ***** Axes restored to original set *****
 -------------------------------------------------------------------
 Center     Atomic                   Forces (Hartrees/Bohr)
 Number     Number              X              Y              Z
 -------------------------------------------------------------------
      1        6           0.002608351   -0.003844783    0.001225785
      2        1           0.001066354    0.001765114   -0.003664178
      3        1          -0.004035411   -0.000873905   -0.000236354
      4        1           0.000333247    0.002788988    0.002827163
      5        6          -0.002999942    0.001403841   -0.004559898
      6        1          -0.000867888   -0.001788653    0.003295933
      7        1           0.003866022    0.000694416    0.000648507
      8        6           0.000858193    0.003232026    0.003073205
      9        1          -0.004440228   -0.000050772   -0.002589626
     10        1           0.003611301   -0.003326273   -0.000020536
 -------------------------------------------------------------------
 Cartesian Forces:  Max     0.004559898 RMS     0.002628935
 Leave Link  716 at Wed Apr  1 00:05:53 2015, MaxMem= 3758096384 cpu:       0.3
 (Enter /share/apps/g09/l103.exe)

 GradGradGradGradGradGradGradGradGradGradGradGradGradGradGradGradGradGrad
 Berny optimization.
 Internal  Forces:  Max     0.005118027 RMS     0.001843337
 Search for a local minimum.
 Step number   1 out of a maximum of   49
 All quantities printed in internal units (Hartrees-Bohrs-Radians)
 RMS Force = .18433D-02 SwitMx=.10000D-02 MixMth= 1
 Mixed Optimization -- RFO/linear search
 Second derivative matrix not updated -- first step.
     Eigenvalues ---    0.00326   0.00882   0.00955   0.03935   0.05392
     Eigenvalues ---    0.05436   0.05498   0.09692   0.13053   0.16000
     Eigenvalues ---    0.16000   0.16000   0.16000   0.16000   0.21882
     Eigenvalues ---    0.29122   0.32191   0.32943   0.33313   0.33315
     Eigenvalues ---    0.33410   0.33469   0.34346   0.344821000.00000
     Eigenvalues --- 1000.000001000.000001000.000001000.000001000.00000
     Eigenvalues --- 1000.000001000.000001000.000001000.000001000.00000
     Eigenvalues --- 1000.000001000.000001000.000001000.00000
 RFO step:  Lambda=-4.04737794D-04 EMin= 3.25621664D-03
 Linear search not attempted -- first point.
 Iteration  1 RMS(Cart)=  0.00629690 RMS(Int)=  0.00002104
 Iteration  2 RMS(Cart)=  0.00002157 RMS(Int)=  0.00000292
 Iteration  3 RMS(Cart)=  0.00000000 RMS(Int)=  0.00000292
 Variable       Old X    -DE/DX   Delta X   Delta X   Delta X     New X
                                 (Linear)    (Quad)   (Total)
    R1        2.08337  -0.00420   0.00000  -0.01257  -0.01257   2.07081
    R2        2.08502  -0.00414   0.00000  -0.01240  -0.01240   2.07262
    R3        2.08235  -0.00398   0.00000  -0.01189  -0.01189   2.07046
    R4        2.89749   0.00015   0.00000   0.00051   0.00051   2.89800
    R5        2.10495  -0.00382   0.00000  -0.01185  -0.01185   2.09310
    R6        2.09151  -0.00396   0.00000  -0.01201  -0.01201   2.07950
    R7        2.81805   0.00022   0.00000   0.00065   0.00065   2.81870
    R8        2.06751  -0.00512   0.00000  -0.01488  -0.01488   2.05262
    R9        2.06525  -0.00489   0.00000  -0.01415  -0.01415   2.05110
    A1        1.87720   0.00007   0.00000   0.00046   0.00046   1.87766
    A2        1.88465   0.00005   0.00000   0.00018   0.00018   1.88483
    A3        1.93878  -0.00002   0.00000  -0.00020  -0.00020   1.93858
    A4        1.87902   0.00011   0.00000   0.00076   0.00076   1.87978
    A5        1.93700  -0.00009   0.00000  -0.00048  -0.00048   1.93651
    A6        1.94443  -0.00010   0.00000  -0.00064  -0.00064   1.94379
    A7        1.89707  -0.00017   0.00000  -0.00105  -0.00105   1.89602
    A8        1.92019  -0.00017   0.00000  -0.00367  -0.00368   1.91651
    A9        1.98683  -0.00035   0.00000  -0.00201  -0.00201   1.98482
   A10        1.82263   0.00009   0.00000   0.00197   0.00197   1.82459
   A11        1.91425   0.00047   0.00000   0.00526   0.00526   1.91951
   A12        1.91561   0.00017   0.00000  -0.00011  -0.00012   1.91549
   A13        2.10488   0.00031   0.00000   0.00169   0.00168   2.10657
   A14        2.10930   0.00035   0.00000   0.00190   0.00190   2.11119
   A15        2.05603  -0.00065   0.00000  -0.00434  -0.00434   2.05169
    D1       -3.08192   0.00014   0.00000   0.00721   0.00721  -3.07471
    D2       -1.09606   0.00005   0.00000   0.00703   0.00703  -1.08903
    D3        1.06223  -0.00011   0.00000   0.00258   0.00258   1.06482
    D4        1.11369   0.00013   0.00000   0.00708   0.00708   1.12077
    D5        3.09955   0.00005   0.00000   0.00690   0.00690   3.10645
    D6       -1.02534  -0.00011   0.00000   0.00245   0.00246  -1.02289
    D7       -0.97995   0.00012   0.00000   0.00687   0.00687  -0.97308
    D8        1.00591   0.00004   0.00000   0.00669   0.00669   1.01260
    D9       -3.11898  -0.00012   0.00000   0.00224   0.00225  -3.11673
   D10        0.49152   0.00012   0.00000   0.00719   0.00719   0.49871
   D11       -2.82627   0.00007   0.00000   0.00173   0.00173  -2.82454
   D12       -1.63805   0.00024   0.00000   0.00604   0.00604  -1.63200
   D13        1.32735   0.00018   0.00000   0.00058   0.00058   1.32793
   D14        2.65230  -0.00022   0.00000   0.00082   0.00082   2.65312
   D15       -0.66549  -0.00028   0.00000  -0.00464  -0.00464  -0.67013
         Item               Value     Threshold  Converged?
 Maximum Force            0.005118     0.000450     NO 
 RMS     Force            0.001843     0.000300     NO 
 Maximum Displacement     0.014075     0.001800     NO 
 RMS     Displacement     0.006298     0.001200     NO 
 Predicted change in Energy=-2.027019D-04
 GradGradGradGradGradGradGradGradGradGradGradGradGradGradGradGradGradGrad

 Leave Link  103 at Wed Apr  1 00:05:53 2015, MaxMem= 3758096384 cpu:       0.1
 (Enter /share/apps/g09/l202.exe)
                          Input orientation:                          
 ---------------------------------------------------------------------
 Center     Atomic      Atomic             Coordinates (Angstroms)
 Number     Number       Type             X           Y           Z
 ---------------------------------------------------------------------
      1          6           0        0.017121   -0.083515   -0.047622
      2          1           0       -0.279486   -0.544557    0.901216
      3          1           0        1.080688    0.173703    0.027208
      4          1           0       -0.088995   -0.835712   -0.837159
      5          6           0       -0.828551    1.160967   -0.344087
      6          1           0       -0.544136    1.553055   -1.340179
      7          1           0       -1.886160    0.876366   -0.450862
      8          6           0       -0.696731    2.234639    0.682901
      9          1           0        0.218720    2.343104    1.257373
     10          1           0       -1.435590    3.025822    0.761622
 ---------------------------------------------------------------------
                    Distance matrix (angstroms):
                    1          2          3          4          5
     1  C    0.000000
     2  H    1.095823   0.000000
     3  H    1.096784   1.769141   0.000000
     4  H    1.095641   1.772852   1.770369   0.000000
     5  C    1.533555   2.181986   2.181225   2.185587   0.000000
     6  H    2.159647   3.081212   2.532274   2.483222   1.107621
     7  H    2.169436   2.535456   3.086175   2.512019   1.100426
     8  C    2.533198   2.818809   2.799395   3.479509   1.491594
     9  H    2.762633   2.951888   2.638673   3.819245   2.249200
    10  H    3.526078   3.755485   3.873707   4.390998   2.251393
                    6          7          8          9         10
     6  H    0.000000
     7  H    1.746374   0.000000
     8  C    2.140256   2.131916   0.000000
     9  H    2.820178   3.082193   1.086202   0.000000
    10  H    2.716855   2.508644   1.085394   1.857045   0.000000
 Stoichiometry    C3H7(2)
 Framework group  C1[X(C3H7)]
 Deg. of freedom    24
 Full point group                 C1      NOp   1
 Largest Abelian subgroup         C1      NOp   1
 Largest concise Abelian subgroup C1      NOp   1
                         Standard orientation:                         
 ---------------------------------------------------------------------
 Center     Atomic      Atomic             Coordinates (Angstroms)
 Number     Number       Type             X           Y           Z
 ---------------------------------------------------------------------
      1          6           0        1.227805   -0.242974   -0.035876
      2          1           0        1.302271   -0.778211   -0.989189
      3          1           0        1.286841   -0.987331    0.767482
      4          1           0        2.100784    0.413103    0.052997
      5          6           0       -0.080325    0.552887    0.048920
      6          1           0       -0.082369    1.130792    0.993825
      7          1           0       -0.103797    1.317172   -0.742442
      8          6           0       -1.304859   -0.294883   -0.032655
      9          1           0       -1.290264   -1.324776    0.312224
     10          1           0       -2.269196    0.139072   -0.277229
 ---------------------------------------------------------------------
 Rotational constants (GHZ):     32.8711429      8.9212440      7.7383187
 Leave Link  202 at Wed Apr  1 00:05:53 2015, MaxMem= 3758096384 cpu:       0.1
 (Enter /share/apps/g09/l301.exe)
 Standard basis: 6-31G(d) (6D, 7F)
 Ernie: Thresh=  0.10000D-02 Tol=  0.10000D-05 Strict=F.
 There are    59 symmetry adapted basis functions of A   symmetry.
 Integral buffers will be    131072 words long.
 Raffenetti 2 integral format.
 Two-electron integral symmetry is turned on.
    59 basis functions,   112 primitive gaussians,    59 cartesian basis functions
    13 alpha electrons       12 beta electrons
       nuclear repulsion energy        75.6702332328 Hartrees.
 IExCor=  402 DFT=T Ex+Corr=B3LYP ExCW=0 ScaHFX=  0.200000
 ScaDFX=  0.800000  0.720000  1.000000  0.810000 ScalE2=  1.000000  1.000000
 IRadAn=      0 IRanWt=     -1 IRanGd=            0 ICorTp=0
 NAtoms=   10 NActive=   10 NUniq=   10 SFac= 7.50D-01 NAtFMM=   80 NAOKFM=F Big=F
 Leave Link  301 at Wed Apr  1 00:05:53 2015, MaxMem= 3758096384 cpu:       0.6
 (Enter /share/apps/g09/l302.exe)
 NPDir=0 NMtPBC=     1 NCelOv=     1 NCel=       1 NClECP=     1 NCelD=      1
         NCelK=      1 NCelE2=     1 NClLst=     1 CellRange=     0.0.
 One-electron integrals computed using PRISM.
 NBasis=    59 RedAO= T  NBF=    59
 NBsUse=    59 1.00D-06 NBFU=    59
 Precomputing XC quadrature grid using
 IXCGrd= 2 IRadAn=           0 IRanWt=          -1 IRanGd=           0 AccXCQ= 1.00D-10.
 NRdTot=     616 NPtTot=       78248 NUsed=       82703 NTot=       82735
 NSgBfM=    59    59    59    59    59 NAtAll=    10    10.
 Leave Link  302 at Wed Apr  1 00:05:53 2015, MaxMem= 3758096384 cpu:       1.7
 (Enter /share/apps/g09/l303.exe)
 DipDrv:  MaxL=1.
 Leave Link  303 at Wed Apr  1 00:05:53 2015, MaxMem= 3758096384 cpu:       0.2
 (Enter /share/apps/g09/l401.exe)
 Initial guess read from the read-write file.
 B after Tr=     0.000000    0.000000    0.000000
         Rot=    1.000000    0.000000    0.000000    0.000000 Ang=   0.00 deg.
 Guess basis will be translated and rotated to current coordinates.
 Initial guess orbital symmetries:
 Alpha Orbitals:
       Occupied  (A) (A) (A) (A) (A) (A) (A) (A) (A) (A) (A) (A)
                 (A)
       Virtual   (A) (A) (A) (A) (A) (A) (A) (A) (A) (A) (A) (A)
                 (A) (A) (A) (A) (A) (A) (A) (A) (A) (A) (A) (A)
                 (A) (A) (A) (A) (A) (A) (A) (A) (A) (A) (A) (A)
                 (A) (A) (A) (A) (A) (A) (A) (A) (A) (A)
 Beta  Orbitals:
       Occupied  (A) (A) (A) (A) (A) (A) (A) (A) (A) (A) (A) (A)
       Virtual   (A) (A) (A) (A) (A) (A) (A) (A) (A) (A) (A) (A)
                 (A) (A) (A) (A) (A) (A) (A) (A) (A) (A) (A) (A)
                 (A) (A) (A) (A) (A) (A) (A) (A) (A) (A) (A) (A)
                 (A) (A) (A) (A) (A) (A) (A) (A) (A) (A) (A)
 The electronic state of the initial guess is 2-A.
 Initial guess <Sx>= 0.0000 <Sy>= 0.0000 <Sz>= 0.5000 <S**2>= 0.7539 S= 0.5020
 Leave Link  401 at Wed Apr  1 00:05:54 2015, MaxMem= 3758096384 cpu:       0.9
 (Enter /share/apps/g09/l502.exe)
 UHF open shell SCF:
 Requested convergence on RMS density matrix=1.00D-08 within 128 cycles.
 Requested convergence on MAX density matrix=1.00D-06.
 Requested convergence on             energy=1.00D-06.
 No special actions if energy rises.
 Using DIIS extrapolation, IDIIS=  1040.
 Integral symmetry usage will be decided dynamically.
        82600 words used for storage of precomputed grid.
 Keep R1 and R2 ints in memory in canonical form, NReq=4123375.
 IEnd=      112356 IEndB=      112356 NGot=  3758096384 MDV=  3754869511
 LenX=  3754869511 LenY=  3754865589
 Symmetry not used in FoFDir.
 MinBra= 0 MaxBra= 2 Meth= 1.
 IRaf=       0 NMat=   1 IRICut=       1 DoRegI=T DoRafI=F ISym2E= 0 JSym2E=0.

 Cycle   1  Pass 1  IDiag  1:
 E= -118.471307672344    
 DIIS: error= 7.46D-04 at cycle   1 NSaved=   1.
 NSaved= 1 IEnMin= 1 EnMin= -118.471307672344     IErMin= 1 ErrMin= 7.46D-04
 ErrMax= 7.46D-04 EMaxC= 1.00D-01 BMatC= 1.47D-04 BMatP= 1.47D-04
 IDIUse=3 WtCom= 9.93D-01 WtEn= 7.46D-03
 Coeff-Com:  0.100D+01
 Coeff-En:   0.100D+01
 Coeff:      0.100D+01
 Gap=     0.301 Goal=   None    Shift=    0.000
 Gap=     0.303 Goal=   None    Shift=    0.000
 RMSDP=1.69D-04 MaxDP=1.88D-03              OVMax= 2.84D-03

 Cycle   2  Pass 1  IDiag  1:
 E= -118.471345960546     Delta-E=       -0.000038288202 Rises=F Damp=F
 DIIS: error= 5.79D-04 at cycle   2 NSaved=   2.
 NSaved= 2 IEnMin= 2 EnMin= -118.471345960546     IErMin= 2 ErrMin= 5.79D-04
 ErrMax= 5.79D-04 EMaxC= 1.00D-01 BMatC= 6.38D-05 BMatP= 1.47D-04
 IDIUse=3 WtCom= 9.94D-01 WtEn= 5.79D-03
 Coeff-Com:  0.370D+00 0.630D+00
 Coeff-En:   0.000D+00 0.100D+01
 Coeff:      0.368D+00 0.632D+00
 Gap=     0.300 Goal=   None    Shift=    0.000
 Gap=     0.303 Goal=   None    Shift=    0.000
 RMSDP=8.90D-05 MaxDP=1.22D-03 DE=-3.83D-05 OVMax= 1.27D-03

 Cycle   3  Pass 1  IDiag  1:
 E= -118.471361066695     Delta-E=       -0.000015106149 Rises=F Damp=F
 DIIS: error= 1.92D-04 at cycle   3 NSaved=   3.
 NSaved= 3 IEnMin= 3 EnMin= -118.471361066695     IErMin= 3 ErrMin= 1.92D-04
 ErrMax= 1.92D-04 EMaxC= 1.00D-01 BMatC= 8.73D-06 BMatP= 6.38D-05
 IDIUse=3 WtCom= 9.98D-01 WtEn= 1.92D-03
 Coeff-Com:  0.344D-01 0.271D+00 0.695D+00
 Coeff-En:   0.000D+00 0.261D-01 0.974D+00
 Coeff:      0.344D-01 0.270D+00 0.695D+00
 Gap=     0.300 Goal=   None    Shift=    0.000
 Gap=     0.303 Goal=   None    Shift=    0.000
 RMSDP=2.38D-05 MaxDP=3.38D-04 DE=-1.51D-05 OVMax= 3.57D-04

 Cycle   4  Pass 1  IDiag  1:
 E= -118.471363298098     Delta-E=       -0.000002231404 Rises=F Damp=F
 DIIS: error= 2.25D-05 at cycle   4 NSaved=   4.
 NSaved= 4 IEnMin= 4 EnMin= -118.471363298098     IErMin= 4 ErrMin= 2.25D-05
 ErrMax= 2.25D-05 EMaxC= 1.00D-01 BMatC= 1.89D-07 BMatP= 8.73D-06
 IDIUse=1 WtCom= 1.00D+00 WtEn= 0.00D+00
 Coeff-Com: -0.620D-02 0.448D-01 0.179D+00 0.782D+00
 Coeff:     -0.620D-02 0.448D-01 0.179D+00 0.782D+00
 Gap=     0.300 Goal=   None    Shift=    0.000
 Gap=     0.302 Goal=   None    Shift=    0.000
 RMSDP=5.26D-06 MaxDP=6.05D-05 DE=-2.23D-06 OVMax= 8.68D-05

 Cycle   5  Pass 1  IDiag  1:
 E= -118.471363349206     Delta-E=       -0.000000051107 Rises=F Damp=F
 DIIS: error= 8.23D-06 at cycle   5 NSaved=   5.
 NSaved= 5 IEnMin= 5 EnMin= -118.471363349206     IErMin= 5 ErrMin= 8.23D-06
 ErrMax= 8.23D-06 EMaxC= 1.00D-01 BMatC= 3.42D-08 BMatP= 1.89D-07
 IDIUse=1 WtCom= 1.00D+00 WtEn= 0.00D+00
 Coeff-Com: -0.431D-02 0.228D-02 0.274D-01 0.314D+00 0.660D+00
 Coeff:     -0.431D-02 0.228D-02 0.274D-01 0.314D+00 0.660D+00
 Gap=     0.300 Goal=   None    Shift=    0.000
 Gap=     0.303 Goal=   None    Shift=    0.000
 RMSDP=1.97D-06 MaxDP=4.72D-05 DE=-5.11D-08 OVMax= 4.38D-05

 Cycle   6  Pass 1  IDiag  1:
 E= -118.471363359192     Delta-E=       -0.000000009987 Rises=F Damp=F
 DIIS: error= 2.87D-06 at cycle   6 NSaved=   6.
 NSaved= 6 IEnMin= 6 EnMin= -118.471363359192     IErMin= 6 ErrMin= 2.87D-06
 ErrMax= 2.87D-06 EMaxC= 1.00D-01 BMatC= 3.09D-09 BMatP= 3.42D-08
 IDIUse=1 WtCom= 1.00D+00 WtEn= 0.00D+00
 Coeff-Com: -0.112D-03-0.733D-02-0.259D-01-0.574D-01 0.171D+00 0.920D+00
 Coeff:     -0.112D-03-0.733D-02-0.259D-01-0.574D-01 0.171D+00 0.920D+00
 Gap=     0.300 Goal=   None    Shift=    0.000
 Gap=     0.303 Goal=   None    Shift=    0.000
 RMSDP=9.62D-07 MaxDP=1.70D-05 DE=-9.99D-09 OVMax= 2.18D-05

 Cycle   7  Pass 1  IDiag  1:
 E= -118.471363360526     Delta-E=       -0.000000001334 Rises=F Damp=F
 DIIS: error= 6.21D-07 at cycle   7 NSaved=   7.
 NSaved= 7 IEnMin= 7 EnMin= -118.471363360526     IErMin= 7 ErrMin= 6.21D-07
 ErrMax= 6.21D-07 EMaxC= 1.00D-01 BMatC= 1.39D-10 BMatP= 3.09D-09
 IDIUse=1 WtCom= 1.00D+00 WtEn= 0.00D+00
 Coeff-Com:  0.349D-03-0.147D-02-0.634D-02-0.358D-01-0.218D-01 0.175D+00
 Coeff-Com:  0.891D+00
 Coeff:      0.349D-03-0.147D-02-0.634D-02-0.358D-01-0.218D-01 0.175D+00
 Coeff:      0.891D+00
 Gap=     0.300 Goal=   None    Shift=    0.000
 Gap=     0.303 Goal=   None    Shift=    0.000
 RMSDP=2.01D-07 MaxDP=2.90D-06 DE=-1.33D-09 OVMax= 4.91D-06

 Cycle   8  Pass 1  IDiag  1:
 E= -118.471363360590     Delta-E=       -0.000000000064 Rises=F Damp=F
 DIIS: error= 1.71D-07 at cycle   8 NSaved=   8.
 NSaved= 8 IEnMin= 8 EnMin= -118.471363360590     IErMin= 8 ErrMin= 1.71D-07
 ErrMax= 1.71D-07 EMaxC= 1.00D-01 BMatC= 6.21D-12 BMatP= 1.39D-10
 IDIUse=1 WtCom= 1.00D+00 WtEn= 0.00D+00
 Coeff-Com:  0.570D-04 0.223D-03 0.777D-03-0.142D-02-0.130D-01-0.299D-01
 Coeff-Com:  0.125D+00 0.918D+00
 Coeff:      0.570D-04 0.223D-03 0.777D-03-0.142D-02-0.130D-01-0.299D-01
 Coeff:      0.125D+00 0.918D+00
 Gap=     0.300 Goal=   None    Shift=    0.000
 Gap=     0.303 Goal=   None    Shift=    0.000
 RMSDP=4.45D-08 MaxDP=5.81D-07 DE=-6.41D-11 OVMax= 6.82D-07

 Cycle   9  Pass 1  IDiag  1:
 E= -118.471363360593     Delta-E=       -0.000000000003 Rises=F Damp=F
 DIIS: error= 6.96D-08 at cycle   9 NSaved=   9.
 NSaved= 9 IEnMin= 9 EnMin= -118.471363360593     IErMin= 9 ErrMin= 6.96D-08
 ErrMax= 6.96D-08 EMaxC= 1.00D-01 BMatC= 9.39D-13 BMatP= 6.21D-12
 IDIUse=1 WtCom= 1.00D+00 WtEn= 0.00D+00
 Coeff-Com:  0.964D-06 0.121D-03 0.457D-03 0.115D-02-0.265D-02-0.148D-01
 Coeff-Com: -0.487D-02 0.248D+00 0.773D+00
 Coeff:      0.964D-06 0.121D-03 0.457D-03 0.115D-02-0.265D-02-0.148D-01
 Coeff:     -0.487D-02 0.248D+00 0.773D+00
 Gap=     0.300 Goal=   None    Shift=    0.000
 Gap=     0.303 Goal=   None    Shift=    0.000
 RMSDP=1.25D-08 MaxDP=2.44D-07 DE=-2.81D-12 OVMax= 2.58D-07

 Cycle  10  Pass 1  IDiag  1:
 E= -118.471363360593     Delta-E=        0.000000000000 Rises=F Damp=F
 DIIS: error= 4.43D-08 at cycle  10 NSaved=  10.
 NSaved=10 IEnMin=10 EnMin= -118.471363360593     IErMin=10 ErrMin= 4.43D-08
 ErrMax= 4.43D-08 EMaxC= 1.00D-01 BMatC= 3.23D-13 BMatP= 9.39D-13
 IDIUse=1 WtCom= 1.00D+00 WtEn= 0.00D+00
 Coeff-Com: -0.188D-04-0.763D-05-0.136D-04 0.109D-02 0.280D-02 0.187D-02
 Coeff-Com: -0.430D-01-0.164D+00 0.367D+00 0.834D+00
 Coeff:     -0.188D-04-0.763D-05-0.136D-04 0.109D-02 0.280D-02 0.187D-02
 Coeff:     -0.430D-01-0.164D+00 0.367D+00 0.834D+00
 Gap=     0.300 Goal=   None    Shift=    0.000
 Gap=     0.303 Goal=   None    Shift=    0.000
 RMSDP=7.00D-09 MaxDP=1.40D-07 DE=-2.84D-13 OVMax= 1.56D-07

 SCF Done:  E(UB3LYP) =  -118.471363361     A.U. after   10 cycles
             Convg  =    0.7004D-08             -V/T =  2.0103
 <Sx>= 0.0000 <Sy>= 0.0000 <Sz>= 0.5000 <S**2>= 0.7539 S= 0.5019
 <L.S>= 0.000000000000E+00
 KE= 1.172589018660D+02 PE=-4.246402891174D+02 EE= 1.132397906580D+02
 Annihilation of the first spin contaminant:
 S**2 before annihilation     0.7539,   after     0.7500
 Leave Link  502 at Wed Apr  1 00:05:55 2015, MaxMem= 3758096384 cpu:      14.7
 (Enter /share/apps/g09/l701.exe)
 Compute integral first derivatives.
 ... and contract with generalized density number  0.
 Leave Link  701 at Wed Apr  1 00:05:55 2015, MaxMem= 3758096384 cpu:       1.7
 (Enter /share/apps/g09/l702.exe)
 L702 exits ... SP integral derivatives will be done elsewhere.
 Leave Link  702 at Wed Apr  1 00:05:55 2015, MaxMem= 3758096384 cpu:       0.2
 (Enter /share/apps/g09/l703.exe)
 Compute integral first derivatives, UseDBF=F ICtDFT=           0.
 Integral derivatives from FoFDir, PRISM(SPDF).
 Calling FoFJK, ICntrl=      2127 FMM=F ISym2X=0 I1Cent= 0 IOpClX= 1 NMat=1 NMatS=1 NMatT=0.
 FoFCou: FMM=F IPFlag=           0 FMFlag=      100000 FMFlg1=         800
         NFxFlg=           0 DoJE=F BraDBF=F KetDBF=F FulRan=T
         Omega=  0.000000  0.000000  1.000000  0.000000  0.000000 ICntrl=    2127 IOpCl=  1
         NMat0=    1 NMatS0=    1 NMatT0=    0 NMatD0=    1 NMtDS0=    0 NMtDT0=    0
         I1Cent=           0 NGrid=           0.
 Symmetry not used in FoFCou.
 Leave Link  703 at Wed Apr  1 00:05:55 2015, MaxMem= 3758096384 cpu:       4.5
 (Enter /share/apps/g09/l716.exe)
 Dipole        = 5.07811257D-02 7.10254031D-02 4.81559380D-02
 ***** Axes restored to original set *****
 -------------------------------------------------------------------
 Center     Atomic                   Forces (Hartrees/Bohr)
 Number     Number              X              Y              Z
 -------------------------------------------------------------------
      1        6           0.000572147   -0.000636005    0.000335353
      2        1          -0.000102830    0.000057108    0.000035613
      3        1           0.000023650    0.000093436   -0.000016750
      4        1          -0.000086775    0.000034100   -0.000124604
      5        6          -0.000665664    0.000481328   -0.000928001
      6        1           0.000097712   -0.000117295    0.000330709
      7        1           0.000059615   -0.000027912    0.000169774
      8        6           0.000095863   -0.000139802   -0.000052717
      9        1           0.000200367    0.000071841    0.000138284
     10        1          -0.000194086    0.000183201    0.000112338
 -------------------------------------------------------------------
 Cartesian Forces:  Max     0.000928001 RMS     0.000304127
 Leave Link  716 at Wed Apr  1 00:05:55 2015, MaxMem= 3758096384 cpu:       0.2
 (Enter /share/apps/g09/l103.exe)

 GradGradGradGradGradGradGradGradGradGradGradGradGradGradGradGradGradGrad
 Berny optimization.
 Using GEDIIS/GDIIS optimizer.
 Internal  Forces:  Max     0.000633963 RMS     0.000151452
 Search for a local minimum.
 Step number   2 out of a maximum of   49
 All quantities printed in internal units (Hartrees-Bohrs-Radians)
 RMS Force = .15145D-03 SwitMx=.10000D-02 MixMth= 2
 Mixed Optimization -- En-DIIS/RFO-DIIS
 Update second derivatives using D2CorX and points    1    2
 DE= -2.03D-04 DEPred=-2.03D-04 R= 1.00D+00
 SS=  1.41D+00  RLast= 4.07D-02 DXNew= 5.0454D-01 1.2222D-01
 Trust test= 1.00D+00 RLast= 4.07D-02 DXMaxT set to 3.00D-01
 Use linear search instead of GDIIS.
     Eigenvalues ---    0.00325   0.00880   0.00960   0.03951   0.05388
     Eigenvalues ---    0.05442   0.05502   0.09631   0.13036   0.15895
     Eigenvalues ---    0.16000   0.16000   0.16000   0.16027   0.21834
     Eigenvalues ---    0.28535   0.31643   0.32879   0.33212   0.33350
     Eigenvalues ---    0.33436   0.33642   0.34410   0.364291000.00000
     Eigenvalues --- 1000.000001000.000001000.000001000.000001000.00000
     Eigenvalues --- 1000.000001000.000001000.000001000.000001000.00000
     Eigenvalues --- 1000.000001000.000001000.000001000.00000
 RFO step:  Lambda=-4.80636836D-06 EMin= 3.25246996D-03
 Quartic linear search produced a step of -0.00422.
 Iteration  1 RMS(Cart)=  0.00168456 RMS(Int)=  0.00000330
 Iteration  2 RMS(Cart)=  0.00000363 RMS(Int)=  0.00000068
 Iteration  3 RMS(Cart)=  0.00000000 RMS(Int)=  0.00000068
 Variable       Old X    -DE/DX   Delta X   Delta X   Delta X     New X
                                 (Linear)    (Quad)   (Total)
    R1        2.07081   0.00004   0.00005  -0.00010  -0.00004   2.07076
    R2        2.07262   0.00004   0.00005  -0.00007  -0.00002   2.07260
    R3        2.07046   0.00008   0.00005   0.00003   0.00008   2.07054
    R4        2.89800   0.00063   0.00000   0.00218   0.00217   2.90017
    R5        2.09310  -0.00031   0.00005  -0.00116  -0.00111   2.09199
    R6        2.07950  -0.00007   0.00005  -0.00040  -0.00035   2.07916
    R7        2.81870   0.00023   0.00000   0.00069   0.00069   2.81940
    R8        2.05262   0.00025   0.00006   0.00048   0.00055   2.05317
    R9        2.05110   0.00027   0.00006   0.00056   0.00062   2.05172
    A1        1.87766   0.00011   0.00000   0.00085   0.00084   1.87850
    A2        1.88483   0.00013   0.00000   0.00067   0.00067   1.88550
    A3        1.93858  -0.00012   0.00000  -0.00074  -0.00074   1.93784
    A4        1.87978   0.00011   0.00000   0.00070   0.00070   1.88048
    A5        1.93651  -0.00006   0.00000  -0.00029  -0.00029   1.93622
    A6        1.94379  -0.00015   0.00000  -0.00105  -0.00105   1.94274
    A7        1.89602   0.00000   0.00000  -0.00024  -0.00024   1.89578
    A8        1.91651   0.00002   0.00002  -0.00024  -0.00023   1.91628
    A9        1.98482  -0.00019   0.00001  -0.00135  -0.00134   1.98348
   A10        1.82459   0.00008  -0.00001   0.00202   0.00202   1.82661
   A11        1.91951   0.00006  -0.00002   0.00018   0.00015   1.91966
   A12        1.91549   0.00005   0.00000  -0.00008  -0.00008   1.91541
   A13        2.10657   0.00002  -0.00001   0.00035   0.00034   2.10691
   A14        2.11119   0.00005  -0.00001   0.00056   0.00055   2.11174
   A15        2.05169  -0.00007   0.00002  -0.00031  -0.00029   2.05140
    D1       -3.07471  -0.00003  -0.00003   0.00145   0.00142  -3.07330
    D2       -1.08903   0.00008  -0.00003   0.00359   0.00356  -1.08548
    D3        1.06482   0.00002  -0.00001   0.00232   0.00231   1.06713
    D4        1.12077  -0.00005  -0.00003   0.00107   0.00104   1.12180
    D5        3.10645   0.00006  -0.00003   0.00321   0.00318   3.10963
    D6       -1.02289   0.00000  -0.00001   0.00194   0.00193  -1.02096
    D7       -0.97308  -0.00005  -0.00003   0.00108   0.00105  -0.97202
    D8        1.01260   0.00006  -0.00003   0.00322   0.00319   1.01580
    D9       -3.11673   0.00000  -0.00001   0.00196   0.00195  -3.11478
   D10        0.49871   0.00000  -0.00003   0.00105   0.00102   0.49973
   D11       -2.82454   0.00004  -0.00001   0.00497   0.00496  -2.81958
   D12       -1.63200   0.00009  -0.00003   0.00219   0.00216  -1.62984
   D13        1.32793   0.00013   0.00000   0.00611   0.00610   1.33404
   D14        2.65312  -0.00007   0.00000  -0.00030  -0.00030   2.65281
   D15       -0.67013  -0.00003   0.00002   0.00362   0.00364  -0.66650
         Item               Value     Threshold  Converged?
 Maximum Force            0.000634     0.000450     NO 
 RMS     Force            0.000151     0.000300     YES
 Maximum Displacement     0.005318     0.001800     NO 
 RMS     Displacement     0.001685     0.001200     NO 
 Predicted change in Energy=-2.403662D-06
 GradGradGradGradGradGradGradGradGradGradGradGradGradGradGradGradGradGrad

 Leave Link  103 at Wed Apr  1 00:05:55 2015, MaxMem= 3758096384 cpu:       0.1
 (Enter /share/apps/g09/l202.exe)
                          Input orientation:                          
 ---------------------------------------------------------------------
 Center     Atomic      Atomic             Coordinates (Angstroms)
 Number     Number       Type             X           Y           Z
 ---------------------------------------------------------------------
      1          6           0        0.017340   -0.083854   -0.047302
      2          1           0       -0.281401   -0.544693    0.900939
      3          1           0        1.080598    0.174110    0.029170
      4          1           0       -0.087924   -0.835393   -0.837640
      5          6           0       -0.829016    1.161219   -0.345287
      6          1           0       -0.543915    1.552435   -1.340875
      7          1           0       -1.886549    0.876450   -0.450468
      8          6           0       -0.695955    2.235077    0.681878
      9          1           0        0.220299    2.343871    1.255557
     10          1           0       -1.436599    3.024650    0.764437
 ---------------------------------------------------------------------
                    Distance matrix (angstroms):
                    1          2          3          4          5
     1  C    0.000000
     2  H    1.095801   0.000000
     3  H    1.096774   1.769661   0.000000
     4  H    1.095685   1.773301   1.770847   0.000000
     5  C    1.534705   2.182452   2.182024   2.185884   0.000000
     6  H    2.160041   3.081004   2.532951   2.482518   1.107036
     7  H    2.170142   2.534255   3.086632   2.513038   1.100241
     8  C    2.533364   2.819036   2.798170   3.479429   1.491960
     9  H    2.762695   2.953178   2.636666   3.818926   2.249984
    10  H    3.526422   3.754108   3.873303   4.391527   2.252336
                    6          7          8          9         10
     6  H    0.000000
     7  H    1.747125   0.000000
     8  C    2.140244   2.132039   0.000000
     9  H    2.819903   3.082637   1.086492   0.000000
    10  H    2.719676   2.508627   1.085724   1.857409   0.000000
 Stoichiometry    C3H7(2)
 Framework group  C1[X(C3H7)]
 Deg. of freedom    24
 Full point group                 C1      NOp   1
 Largest Abelian subgroup         C1      NOp   1
 Largest concise Abelian subgroup C1      NOp   1
                         Standard orientation:                         
 ---------------------------------------------------------------------
 Center     Atomic      Atomic             Coordinates (Angstroms)
 Number     Number       Type             X           Y           Z
 ---------------------------------------------------------------------
      1          6           0        1.228057   -0.243435   -0.036166
      2          1           0        1.302190   -0.776310   -0.990802
      3          1           0        1.285729   -0.989248    0.765924
      4          1           0        2.100811    0.412752    0.054632
      5          6           0       -0.080509    0.553849    0.049351
      6          1           0       -0.082012    1.130405    0.994395
      7          1           0       -0.104104    1.317290   -0.742566
      8          6           0       -1.304780   -0.294949   -0.032177
      9          1           0       -1.290017   -1.324938    0.313320
     10          1           0       -2.269201    0.137257   -0.280949
 ---------------------------------------------------------------------
 Rotational constants (GHZ):     32.8255070      8.9201219      7.7362258
 Leave Link  202 at Wed Apr  1 00:05:56 2015, MaxMem= 3758096384 cpu:       0.1
 (Enter /share/apps/g09/l301.exe)
 Standard basis: 6-31G(d) (6D, 7F)
 Ernie: Thresh=  0.10000D-02 Tol=  0.10000D-05 Strict=F.
 There are    59 symmetry adapted basis functions of A   symmetry.
 Integral buffers will be    131072 words long.
 Raffenetti 2 integral format.
 Two-electron integral symmetry is turned on.
    59 basis functions,   112 primitive gaussians,    59 cartesian basis functions
    13 alpha electrons       12 beta electrons
       nuclear repulsion energy        75.6544680933 Hartrees.
 IExCor=  402 DFT=T Ex+Corr=B3LYP ExCW=0 ScaHFX=  0.200000
 ScaDFX=  0.800000  0.720000  1.000000  0.810000 ScalE2=  1.000000  1.000000
 IRadAn=      0 IRanWt=     -1 IRanGd=            0 ICorTp=0
 NAtoms=   10 NActive=   10 NUniq=   10 SFac= 7.50D-01 NAtFMM=   80 NAOKFM=F Big=F
 Leave Link  301 at Wed Apr  1 00:05:56 2015, MaxMem= 3758096384 cpu:       0.6
 (Enter /share/apps/g09/l302.exe)
 NPDir=0 NMtPBC=     1 NCelOv=     1 NCel=       1 NClECP=     1 NCelD=      1
         NCelK=      1 NCelE2=     1 NClLst=     1 CellRange=     0.0.
 One-electron integrals computed using PRISM.
 NBasis=    59 RedAO= T  NBF=    59
 NBsUse=    59 1.00D-06 NBFU=    59
 Precomputing XC quadrature grid using
 IXCGrd= 2 IRadAn=           0 IRanWt=          -1 IRanGd=           0 AccXCQ= 1.00D-10.
 NRdTot=     616 NPtTot=       78248 NUsed=       82703 NTot=       82735
 NSgBfM=    59    59    59    59    59 NAtAll=    10    10.
 Leave Link  302 at Wed Apr  1 00:05:56 2015, MaxMem= 3758096384 cpu:       1.7
 (Enter /share/apps/g09/l303.exe)
 DipDrv:  MaxL=1.
 Leave Link  303 at Wed Apr  1 00:05:56 2015, MaxMem= 3758096384 cpu:       0.2
 (Enter /share/apps/g09/l401.exe)
 Initial guess read from the read-write file.
 B after Tr=     0.000000    0.000000    0.000000
         Rot=    1.000000    0.000000    0.000000    0.000000 Ang=   0.00 deg.
 Guess basis will be translated and rotated to current coordinates.
 Initial guess orbital symmetries:
 Alpha Orbitals:
       Occupied  (A) (A) (A) (A) (A) (A) (A) (A) (A) (A) (A) (A)
                 (A)
       Virtual   (A) (A) (A) (A) (A) (A) (A) (A) (A) (A) (A) (A)
                 (A) (A) (A) (A) (A) (A) (A) (A) (A) (A) (A) (A)
                 (A) (A) (A) (A) (A) (A) (A) (A) (A) (A) (A) (A)
                 (A) (A) (A) (A) (A) (A) (A) (A) (A) (A)
 Beta  Orbitals:
       Occupied  (A) (A) (A) (A) (A) (A) (A) (A) (A) (A) (A) (A)
       Virtual   (A) (A) (A) (A) (A) (A) (A) (A) (A) (A) (A) (A)
                 (A) (A) (A) (A) (A) (A) (A) (A) (A) (A) (A) (A)
                 (A) (A) (A) (A) (A) (A) (A) (A) (A) (A) (A) (A)
                 (A) (A) (A) (A) (A) (A) (A) (A) (A) (A) (A)
 The electronic state of the initial guess is 2-A.
 Initial guess <Sx>= 0.0000 <Sy>= 0.0000 <Sz>= 0.5000 <S**2>= 0.7539 S= 0.5019
 Leave Link  401 at Wed Apr  1 00:05:56 2015, MaxMem= 3758096384 cpu:       0.9
 (Enter /share/apps/g09/l502.exe)
 UHF open shell SCF:
 Requested convergence on RMS density matrix=1.00D-08 within 128 cycles.
 Requested convergence on MAX density matrix=1.00D-06.
 Requested convergence on             energy=1.00D-06.
 No special actions if energy rises.
 Using DIIS extrapolation, IDIIS=  1040.
 Integral symmetry usage will be decided dynamically.
        82600 words used for storage of precomputed grid.
 Keep R1 and R2 ints in memory in canonical form, NReq=4123375.
 IEnd=      112356 IEndB=      112356 NGot=  3758096384 MDV=  3754869511
 LenX=  3754869511 LenY=  3754865589
 Symmetry not used in FoFDir.
 MinBra= 0 MaxBra= 2 Meth= 1.
 IRaf=       0 NMat=   1 IRICut=       1 DoRegI=T DoRafI=F ISym2E= 0 JSym2E=0.

 Cycle   1  Pass 1  IDiag  1:
 E= -118.471362817911    
 DIIS: error= 1.18D-04 at cycle   1 NSaved=   1.
 NSaved= 1 IEnMin= 1 EnMin= -118.471362817911     IErMin= 1 ErrMin= 1.18D-04
 ErrMax= 1.18D-04 EMaxC= 1.00D-01 BMatC= 6.36D-06 BMatP= 6.36D-06
 IDIUse=3 WtCom= 9.99D-01 WtEn= 1.18D-03
 Coeff-Com:  0.100D+01
 Coeff-En:   0.100D+01
 Coeff:      0.100D+01
 Gap=     0.300 Goal=   None    Shift=    0.000
 Gap=     0.303 Goal=   None    Shift=    0.000
 RMSDP=3.57D-05 MaxDP=6.25D-04              OVMax= 9.42D-04

 Cycle   2  Pass 1  IDiag  1:
 E= -118.471366419975     Delta-E=       -0.000003602063 Rises=F Damp=F
 DIIS: error= 2.44D-05 at cycle   2 NSaved=   2.
 NSaved= 2 IEnMin= 2 EnMin= -118.471366419975     IErMin= 2 ErrMin= 2.44D-05
 ErrMax= 2.44D-05 EMaxC= 1.00D-01 BMatC= 2.37D-07 BMatP= 6.36D-06
 IDIUse=1 WtCom= 1.00D+00 WtEn= 0.00D+00
 Coeff-Com: -0.454D-01 0.105D+01
 Coeff:     -0.454D-01 0.105D+01
 Gap=     0.300 Goal=   None    Shift=    0.000
 Gap=     0.303 Goal=   None    Shift=    0.000
 RMSDP=1.16D-05 MaxDP=2.29D-04 DE=-3.60D-06 OVMax= 2.87D-04

 Cycle   3  Pass 1  IDiag  1:
 E= -118.471366535200     Delta-E=       -0.000000115226 Rises=F Damp=F
 DIIS: error= 1.92D-05 at cycle   3 NSaved=   3.
 NSaved= 3 IEnMin= 3 EnMin= -118.471366535200     IErMin= 3 ErrMin= 1.92D-05
 ErrMax= 1.92D-05 EMaxC= 1.00D-01 BMatC= 1.49D-07 BMatP= 2.37D-07
 IDIUse=1 WtCom= 1.00D+00 WtEn= 0.00D+00
 Coeff-Com: -0.501D-01 0.469D+00 0.581D+00
 Coeff:     -0.501D-01 0.469D+00 0.581D+00
 Gap=     0.300 Goal=   None    Shift=    0.000
 Gap=     0.303 Goal=   None    Shift=    0.000
 RMSDP=3.36D-06 MaxDP=6.56D-05 DE=-1.15D-07 OVMax= 7.29D-05

 Cycle   4  Pass 1  IDiag  1:
 E= -118.471366575348     Delta-E=       -0.000000040148 Rises=F Damp=F
 DIIS: error= 3.76D-06 at cycle   4 NSaved=   4.
 NSaved= 4 IEnMin= 4 EnMin= -118.471366575348     IErMin= 4 ErrMin= 3.76D-06
 ErrMax= 3.76D-06 EMaxC= 1.00D-01 BMatC= 7.37D-09 BMatP= 1.49D-07
 IDIUse=1 WtCom= 1.00D+00 WtEn= 0.00D+00
 Coeff-Com: -0.955D-03-0.836D-01 0.932D-01 0.991D+00
 Coeff:     -0.955D-03-0.836D-01 0.932D-01 0.991D+00
 Gap=     0.300 Goal=   None    Shift=    0.000
 Gap=     0.303 Goal=   None    Shift=    0.000
 RMSDP=1.47D-06 MaxDP=3.17D-05 DE=-4.01D-08 OVMax= 3.56D-05

 Cycle   5  Pass 1  IDiag  1:
 E= -118.471366578996     Delta-E=       -0.000000003648 Rises=F Damp=F
 DIIS: error= 1.48D-06 at cycle   5 NSaved=   5.
 NSaved= 5 IEnMin= 5 EnMin= -118.471366578996     IErMin= 5 ErrMin= 1.48D-06
 ErrMax= 1.48D-06 EMaxC= 1.00D-01 BMatC= 6.95D-10 BMatP= 7.37D-09
 IDIUse=1 WtCom= 1.00D+00 WtEn= 0.00D+00
[...]
     39  0.167897D-02  0.155965D-01  0.624532D-02 -0.694928D-02 -0.507964D-02
               21            22            23            24            25 
     21  0.518627D-01
     22  0.942279D-02  0.782856D-01
     23 -0.848568D-02 -0.412417D-01  0.773153D-01
     24 -0.917932D-03 -0.364284D-01 -0.354938D-01  0.708423D-01
     25  0.406831D-03  0.177246D-04  0.244389D-03 -0.305707D-03  0.143267D-01
     26 -0.102023D-01 -0.141334D-02  0.328408D-03  0.107998D-02  0.335620D-02
     27  0.991172D-02  0.199794D-02 -0.159951D-02 -0.373526D-03  0.442030D-02
     28 -0.331336D-03 -0.410457D-03  0.899089D-03 -0.523450D-03  0.383504D-02
     29 -0.109405D-01 -0.184152D-02  0.983108D-03  0.862233D-03 -0.713543D-02
     30  0.917355D-02  0.156976D-02 -0.944807D-03 -0.591269D-03 -0.607133D-02
     31  0.120313D-02 -0.373769D-04  0.500927D-03 -0.504102D-03  0.358566D-02
     32 -0.940601D-02 -0.146844D-02  0.584946D-03  0.881581D-03 -0.738482D-02
     33  0.107080D-01  0.194284D-02 -0.134297D-02 -0.571920D-03 -0.632071D-02
     34  0.712644D-02  0.571269D-03 -0.875945D-03  0.261699D-05  0.369265D-03
     35  0.716904D-02  0.975555D-03 -0.744409D-03  0.119474D-03  0.505441D-04
     36  0.547674D-02  0.212880D-02 -0.239097D-02 -0.818872D-04  0.392098D-03
     37  0.551933D-02  0.253309D-02 -0.225943D-02  0.349701D-04  0.733771D-04
     38 -0.123981D-01 -0.154171D-02  0.125552D-02 -0.295772D-04 -0.422076D-04
     39 -0.123555D-01 -0.113742D-02  0.138705D-02  0.872801D-04 -0.360928D-03
               26            27            28            29            30 
     26  0.152425D-01
     27  0.483699D-02  0.137325D-01
     28 -0.799850D-02 -0.655083D-02  0.151610D-01
     29  0.388782D-02 -0.613414D-02  0.332744D-02  0.143507D-01
     30 -0.651771D-02  0.276141D-02  0.477511D-02  0.432873D-02  0.136079D-01
     31 -0.784278D-02 -0.651288D-02  0.398473D-02 -0.744371D-02 -0.611381D-02
     32  0.404354D-02 -0.609619D-02 -0.784882D-02  0.357954D-02 -0.656019D-02
     33 -0.636199D-02  0.279936D-02 -0.640115D-02 -0.644242D-02  0.271893D-02
     34 -0.407712D-04 -0.169198D-02  0.340345D-03 -0.696907D-04 -0.172090D-02
     35  0.358853D-04 -0.156390D-02  0.566265D-04  0.419677D-04 -0.155782D-02
     36 -0.668538D-03  0.794483D-03  0.570469D-03 -0.490167D-03  0.972854D-03
     37 -0.591882D-03  0.922562D-03  0.286750D-03 -0.378508D-03  0.113594D-02
     38  0.446005D-03  0.575525D-03 -0.296937D-03  0.191276D-03  0.320796D-03
     39  0.522661D-03  0.703605D-03 -0.580655D-03  0.302934D-03  0.483878D-03
               31            32            33            34            35 
     31  0.146129D-01
     32  0.318447D-02  0.146128D-01
     33  0.451437D-02  0.447310D-02  0.136344D-01
     34  0.151778D-02  0.110774D-02 -0.543467D-03  0.105620D-01
     35  0.119867D-02  0.118401D-02 -0.415776D-03  0.857179D-02  0.108963D-01
     36 -0.133190D-03 -0.119383D-02  0.269195D-03 -0.360945D-02 -0.588333D-02
     37 -0.452299D-03 -0.111756D-02  0.396886D-03 -0.559961D-02 -0.355881D-02
     38 -0.742697D-03 -0.254485D-03 -0.124965D-03 -0.314078D-02 -0.522696D-02
     39 -0.106181D-02 -0.178218D-03  0.272612D-05 -0.513094D-02 -0.290245D-02
               36            37            38            39 
     36  0.121321D-01
     37  0.985825D-02  0.118990D-01
     38 -0.564440D-02 -0.773058D-02  0.124258D-01
     39 -0.791828D-02 -0.568979D-02  0.103396D-01  0.125681D-01
 Leave Link  716 at Wed Apr  1 00:06:16 2015, MaxMem= 3758096384 cpu:       0.3
 (Enter /share/apps/g09/l103.exe)

 GradGradGradGradGradGradGradGradGradGradGradGradGradGradGradGradGradGrad
 Berny optimization.
 Internal  Forces:  Max     0.000013050 RMS     0.000004122
 Search for a local minimum.
 Step number   1 out of a maximum of    2
 All quantities printed in internal units (Hartrees-Bohrs-Radians)
 Second derivative matrix not updated -- analytic derivatives used.
     Eigenvalues ---    0.00053   0.00251   0.00645   0.03829   0.04419
     Eigenvalues ---    0.04757   0.04786   0.07973   0.10377   0.10603
     Eigenvalues ---    0.11649   0.12620   0.13984   0.16382   0.20559
     Eigenvalues ---    0.29255   0.29793   0.31999   0.33604   0.33769
     Eigenvalues ---    0.34053   0.34710   0.36327   0.366491000.00000
     Eigenvalues --- 1000.000001000.000001000.000001000.000001000.00000
     Eigenvalues --- 1000.000001000.000001000.000001000.000001000.00000
     Eigenvalues --- 1000.000001000.000001000.000001000.00000
 Angle between quadratic step and forces=  72.16 degrees.
 Linear search not attempted -- first point.
 Iteration  1 RMS(Cart)=  0.00011010 RMS(Int)=  0.00000002
 Iteration  2 RMS(Cart)=  0.00000002 RMS(Int)=  0.00000000
 Variable       Old X    -DE/DX   Delta X   Delta X   Delta X     New X
                                 (Linear)    (Quad)   (Total)
    R1        2.07065   0.00000   0.00000   0.00001   0.00001   2.07065
    R2        2.07264   0.00000   0.00000   0.00000   0.00000   2.07264
    R3        2.07073   0.00000   0.00000   0.00000   0.00000   2.07074
    R4        2.90210  -0.00001   0.00000  -0.00007  -0.00007   2.90203
    R5        2.09193   0.00000   0.00000   0.00000   0.00000   2.09193
    R6        2.07816   0.00000   0.00000   0.00000   0.00000   2.07817
    R7        2.81955   0.00001   0.00000   0.00004   0.00004   2.81959
    R8        2.05351   0.00000   0.00000  -0.00001  -0.00001   2.05350
    R9        2.05171   0.00000   0.00000   0.00000   0.00000   2.05170
    A1        1.87893   0.00000   0.00000  -0.00004  -0.00004   1.87889
    A2        1.88642   0.00000   0.00000  -0.00003  -0.00003   1.88638
    A3        1.93744   0.00000   0.00000   0.00003   0.00003   1.93747
    A4        1.88083   0.00000   0.00000  -0.00003  -0.00003   1.88081
    A5        1.93567   0.00000   0.00000   0.00005   0.00005   1.93572
    A6        1.94208   0.00000   0.00000   0.00001   0.00001   1.94209
    A7        1.89363   0.00000   0.00000   0.00003   0.00003   1.89366
    A8        1.91640   0.00000   0.00000  -0.00001  -0.00001   1.91639
    A9        1.98210   0.00001   0.00000   0.00008   0.00008   1.98218
   A10        1.82938   0.00000   0.00000  -0.00001  -0.00001   1.82937
   A11        1.92007  -0.00001   0.00000  -0.00005  -0.00005   1.92002
   A12        1.91595   0.00000   0.00000  -0.00005  -0.00005   1.91591
   A13        2.10483   0.00001   0.00000   0.00007   0.00007   2.10490
   A14        2.11389  -0.00001   0.00000  -0.00008  -0.00008   2.11380
   A15        2.05088   0.00000   0.00000   0.00006   0.00006   2.05094
    D1       -3.07198   0.00000   0.00000   0.00004   0.00004  -3.07193
    D2       -1.08197   0.00000   0.00000   0.00004   0.00004  -1.08193
    D3        1.07044   0.00000   0.00000   0.00003   0.00003   1.07047
    D4        1.12321   0.00000   0.00000   0.00003   0.00003   1.12325
    D5        3.11322   0.00000   0.00000   0.00003   0.00003   3.11325
    D6       -1.01755   0.00000   0.00000   0.00002   0.00002  -1.01753
    D7       -0.97026   0.00000   0.00000   0.00003   0.00003  -0.97023
    D8        1.01975   0.00000   0.00000   0.00003   0.00003   1.01978
    D9       -3.11102   0.00000   0.00000   0.00002   0.00002  -3.11100
   D10        0.55642   0.00000   0.00000  -0.00038  -0.00038   0.55604
   D11       -2.76595   0.00000   0.00000  -0.00007  -0.00007  -2.76602
   D12       -1.56970   0.00000   0.00000  -0.00044  -0.00044  -1.57013
   D13        1.39112   0.00000   0.00000  -0.00013  -0.00013   1.39099
   D14        2.70908   0.00000   0.00000  -0.00037  -0.00037   2.70871
   D15       -0.61329   0.00000   0.00000  -0.00006  -0.00006  -0.61336
         Item               Value     Threshold  Converged?
 Maximum Force            0.000013     0.000450     YES
 RMS     Force            0.000004     0.000300     YES
 Maximum Displacement     0.000404     0.001800     YES
 RMS     Displacement     0.000110     0.001200     YES
 Predicted change in Energy=-2.921938D-09
 Optimization completed.
    -- Stationary point found.
                           ----------------------------
                           !   Optimized Parameters   !
                           ! (Angstroms and Degrees)  !
 --------------------------                            --------------------------
 ! Name  Definition              Value          Derivative Info.                !
 --------------------------------------------------------------------------------
 ! R1    R(1,2)                  1.0957         -DE/DX =    0.0                 !
 ! R2    R(1,3)                  1.0968         -DE/DX =    0.0                 !
 ! R3    R(1,4)                  1.0958         -DE/DX =    0.0                 !
 ! R4    R(1,5)                  1.5357         -DE/DX =    0.0                 !
 ! R5    R(5,6)                  1.107          -DE/DX =    0.0                 !
 ! R6    R(5,7)                  1.0997         -DE/DX =    0.0                 !
 ! R7    R(5,8)                  1.492          -DE/DX =    0.0                 !
 ! R8    R(8,9)                  1.0867         -DE/DX =    0.0                 !
 ! R9    R(8,10)                 1.0857         -DE/DX =    0.0                 !
 ! A1    A(2,1,3)              107.6546         -DE/DX =    0.0                 !
 ! A2    A(2,1,4)              108.0836         -DE/DX =    0.0                 !
 ! A3    A(2,1,5)              111.0072         -DE/DX =    0.0                 !
 ! A4    A(3,1,4)              107.7639         -DE/DX =    0.0                 !
 ! A5    A(3,1,5)              110.9059         -DE/DX =    0.0                 !
 ! A6    A(4,1,5)              111.2731         -DE/DX =    0.0                 !
 ! A7    A(1,5,6)              108.4969         -DE/DX =    0.0                 !
 ! A8    A(1,5,7)              109.8015         -DE/DX =    0.0                 !
 ! A9    A(1,5,8)              113.5658         -DE/DX =    0.0                 !
 ! A10   A(6,5,7)              104.816          -DE/DX =    0.0                 !
 ! A11   A(6,5,8)              110.0118         -DE/DX =    0.0                 !
 ! A12   A(7,5,8)              109.7761         -DE/DX =    0.0                 !
 ! A13   A(5,8,9)              120.5978         -DE/DX =    0.0                 !
 ! A14   A(5,8,10)             121.1168         -DE/DX =    0.0                 !
 ! A15   A(9,8,10)             117.5069         -DE/DX =    0.0                 !
 ! D1    D(2,1,5,6)           -176.0113         -DE/DX =    0.0                 !
 ! D2    D(2,1,5,7)            -61.9922         -DE/DX =    0.0                 !
 ! D3    D(2,1,5,8)             61.3319         -DE/DX =    0.0                 !
 ! D4    D(3,1,5,6)             64.3553         -DE/DX =    0.0                 !
 ! D5    D(3,1,5,7)            178.3744         -DE/DX =    0.0                 !
 ! D6    D(3,1,5,8)            -58.3014         -DE/DX =    0.0                 !
 ! D7    D(4,1,5,6)            -55.5917         -DE/DX =    0.0                 !
 ! D8    D(4,1,5,7)             58.4274         -DE/DX =    0.0                 !
 ! D9    D(4,1,5,8)           -178.2485         -DE/DX =    0.0                 !
 ! D10   D(1,5,8,9)             31.8807         -DE/DX =    0.0                 !
 ! D11   D(1,5,8,10)          -158.4771         -DE/DX =    0.0                 !
 ! D12   D(6,5,8,9)            -89.937          -DE/DX =    0.0                 !
 ! D13   D(6,5,8,10)            79.7052         -DE/DX =    0.0                 !
 ! D14   D(7,5,8,9)            155.2187         -DE/DX =    0.0                 !
 ! D15   D(7,5,8,10)           -35.1392         -DE/DX =    0.0                 !
 --------------------------------------------------------------------------------
 GradGradGradGradGradGradGradGradGradGradGradGradGradGradGradGradGradGrad

 Leave Link  103 at Wed Apr  1 00:06:16 2015, MaxMem= 3758096384 cpu:       0.1
 (Enter /share/apps/g09/l9999.exe)
 1\1\GINC-COMPUTE-0-12\Freq\UB3LYP\6-31G(d)\C3H7(2)\HETANJIN\01-Apr-201
 5\0\\#P Geom=AllCheck Guess=TCheck SCRF=Check GenChk UB3LYP/6-31G(d) F
 req\\RO2_3_2_opt_ub3631gd using cbs-qb3 to calculate energy\\0,2\C,0.0
 138476016,-0.086230578,-0.0447955217\H,-0.2946620695,-0.5476555234,0.8
 999539423\H,1.0771143877,0.1687785971,0.0411705772\H,-0.087214022,-0.8
 353074525,-0.8381510774\C,-0.8265476325,1.1629605982,-0.3476307756\H,-
 0.5311693104,1.5526722535,-1.3407732648\H,-1.8840940766,0.882553057,-0
 .4587408326\C,-0.6939793562,2.2350063366,0.6816054538\H,0.2389219363,2
 .3705085445,1.2221484547\H,-1.4553384585,3.000586167,0.7956230441\\Ver
 sion=EM64L-G09RevA.01\State=2-A\HF=-118.4713715\S2=0.753881\S2-1=0.\S2
 A=0.75001\RMSD=2.636e-09\RMSF=7.297e-06\ZeroPoint=0.0887408\Thermal=0.
 0936549\Dipole=0.0007571,-0.0245164,-0.0958111\DipoleDeriv=0.1166475,0
 .0021174,-0.0173289,0.035442,0.0725779,0.0103846,0.0071505,-0.0275116,
 0.1140122,0.0266919,-0.0115364,0.0547257,0.0016345,-0.0054527,0.068901
 7,0.0379111,0.1141964,-0.1028954,-0.1618224,-0.0158507,-0.02252,-0.059
 7312,0.0185224,0.0019199,-0.0282239,0.0108549,0.0539898,0.0457476,0.00
 9203,-0.0229047,0.0196054,-0.0946201,-0.0998061,-0.0127817,-0.1229158,
 -0.0616042,0.1193833,0.0360674,-0.0424061,0.0354446,0.1478768,-0.02471
 21,-0.0463865,-0.073376,0.1366983,0.036683,-0.0009846,0.0595376,-0.000
 0593,-0.0423235,0.0444017,0.0378385,0.052674,-0.1765956,-0.1740269,-0.
 0272783,-0.0399071,-0.0361444,-0.0225769,-0.0354353,-0.0313639,-0.0157
 155,0.0410046,0.0786331,-0.0823147,0.1475593,-0.1107892,-0.0586285,0.1
 746713,0.1350653,0.1994708,-0.1214073,-0.0669119,-0.0049264,-0.098889,
 0.0213397,0.0392895,-0.0595253,-0.0702398,-0.0686102,0.0437454,-0.0210
 252,0.0955032,-0.0178669,0.0932579,-0.0546647,-0.0808004,-0.0289696,-0
 .069067,0.0730522\Polar=30.7854314,-2.3030541,33.3912008,1.6019457,3.9
 602053,30.0374679\PG=C01 [X(C3H7)]\NImag=0\\0.54099177,0.04722545,0.51
 049429,-0.01104552,0.01967031,0.57684942,-0.07265160,-0.03321355,0.067
 03506,0.07526602,-0.03273263,-0.09401812,0.09242007,0.03273199,0.10076
 146,0.06662083,0.09320670,-0.24662179,-0.07284041,-0.10406779,0.265427
 07,-0.29239428,-0.06270436,-0.01813508,-0.00842646,-0.00234413,-0.0006
 7537,0.31912109,-0.06351981,-0.06479709,-0.00527123,-0.01268849,-0.003
 97902,-0.00217918,0.06645846,0.06908400,-0.01800138,-0.00504646,-0.051
 87400,0.02904511,0.00692779,0.00359055,0.02143240,0.00443582,0.0501884
 6,-0.05217407,-0.01892044,-0.01923999,0.00039547,0.00773552,0.00741497
 ,-0.00174886,-0.02186591,-0.02471239,0.05237555,-0.01837942,-0.1694797
 7,-0.12922616,0.00229395,0.01106470,0.01023970,-0.00086865,-0.00550317
 ,-0.00523940,0.01773886,0.18398507,-0.01911359,-0.13049364,-0.19093701
 ,-0.00405014,-0.01965880,-0.01966182,-0.00028596,-0.00005219,-0.001372
 21,0.02212999,0.14262186,0.20383741,-0.11520788,0.04678520,-0.01589552
 ,0.00558292,-0.00818331,0.00109276,-0.01833774,0.02915896,-0.00772096,
 0.00187584,-0.00446867,0.00130120,0.54889160,0.04619744,-0.15107834,0.
 01843969,0.00885189,-0.01245910,0.00245923,-0.00382583,0.00672268,-0.0
 0175257,0.01345694,-0.01777489,0.00721940,0.02617465,0.46996550,-0.016
 07425,0.02227789,-0.08118193,-0.01754433,0.02330344,-0.00447312,-0.001
 25117,0.00179653,-0.00134426,0.01436918,-0.01983252,0.00642528,0.00854
 763,0.00300244,0.48829427,0.00447182,0.00928881,-0.01759850,-0.0014402
 3,0.00353691,-0.00115153,0.00081697,-0.00075821,-0.00025318,0.00058895
 ,-0.00092559,0.00042031,-0.06428351,-0.02530455,0.05607560,0.06849577,
 -0.00683220,-0.01264468,0.02623138,0.00413437,-0.00439603,0.00096136,-
 0.00001591,0.00128440,-0.00060321,-0.00100971,0.00081462,-0.00039250,-
 0.02216230,-0.07201681,0.06760843,0.02419576,0.08521780,0.00203466,0.0
 0370021,-0.00601860,-0.00106016,0.00094848,0.00093082,-0.00034105,-0.0
 0037649,-0.00000794,-0.00005723,0.00028258,0.00069395,0.05981061,0.082
 94548,-0.22622553,-0.06408848,-0.08111258,0.25488339,-0.01696221,-0.00
 372598,-0.00106059,0.00094633,-0.00015142,-0.00046074,-0.00041851,0.00
 364821,-0.00078068,0.00041310,0.00018019,0.00054376,-0.27988255,-0.060
 88907,-0.02081899,-0.01091454,-0.00337139,0.00077577,0.30619689,0.0286
 4599,0.00723232,0.00210921,-0.00085323,0.00115910,-0.00011612,0.003753
 96,-0.00470359,0.00144752,-0.00063213,0.00108917,-0.00040330,-0.063588
 53,-0.06782754,-0.00528912,-0.01248504,-0.00297951,0.00042595,0.067121
 16,0.07298655,-0.00679674,-0.00188698,-0.00119621,-0.00031285,-0.00054
 069,-0.00007294,-0.00103193,0.00106635,0.00049500,0.00055695,-0.000047
 20,0.00016232,-0.02153238,-0.00509543,-0.04648455,0.02947375,0.0084635
 5,0.00177735,0.02412503,0.00867768,0.05424841,0.00239195,0.01530534,0.
 01609048,0.00042775,-0.00022620,-0.00004804,0.00072795,0.00046786,0.00
 113037,-0.00226787,0.00475987,-0.00100550,-0.08451014,-0.00111804,-0.0
 2268689,0.00254539,0.00559250,0.00307914,-0.00121054,-0.02227634,-0.02
 465829,0.54186790,0.00219055,-0.02574164,-0.02065108,-0.00112585,0.002
 15699,-0.00087690,-0.00125973,0.00171901,-0.00013099,0.00245451,-0.003
 27437,0.00063020,0.00019017,-0.14688393,-0.08704527,0.00264507,0.00591
 412,-0.00550396,-0.00161191,-0.00486670,-0.00765413,-0.13992712,0.4014
 3907,0.00438581,-0.00136727,0.00346000,-0.00030660,0.00081830,0.000721
 26,-0.00081036,0.00095754,0.00035989,-0.00138761,0.00192340,0.00029583
 ,-0.02263704,-0.09226697,-0.13458866,-0.00329365,-0.02229378,-0.024970
 22,-0.00259678,-0.00541602,-0.00731301,0.15745153,0.19565397,0.2980391
 8,0.00081015,0.00071796,0.00010926,-0.00002383,-0.00035028,0.00005858,
 0.00025954,-0.00063258,-0.00004844,0.00019404,-0.00011337,0.00019281,0
 .00150222,0.00092015,0.00164734,-0.00057359,-0.00024335,0.00009929,0.0
 0071942,0.00004145,-0.00072015,-0.26519594,-0.01729973,-0.13799009,0.2
 7426978,-0.00192935,0.00194133,0.00033698,-0.00003387,-0.00039500,0.00
 025169,0.00067935,0.00001825,-0.00008761,0.00023006,0.00021330,0.00030
 192,-0.01665380,0.00009736,-0.00805080,-0.00067338,-0.00052926,-0.0007
 4995,-0.00119532,-0.00275196,-0.00378089,-0.01962011,-0.04539828,-0.03
 740848,0.02170234,0.04130520,-0.00007976,0.00111665,0.00097149,0.00014
 226,-0.00007753,0.00002669,0.00087806,-0.00046078,0.00009919,0.0001925
 7,0.00029283,-0.00004957,-0.01972269,-0.00102815,-0.00434831,0.0006761
 1,0.00024197,-0.00055388,0.00101492,-0.00210483,-0.00225245,-0.1329133
 2,-0.03663271,-0.10104683,0.14629022,0.03892804,0.10280206,0.00072435,
 -0.00075843,-0.00025959,-0.00007636,-0.00001645,-0.00001105,0.00040029
 ,-0.00026848,-0.00009086,0.00034785,-0.00021717,-0.00013288,0.00436925
 ,-0.00446360,-0.00226413,0.00029298,-0.00028776,-0.00025256,0.00111261
 ,0.00027274,0.00089660,-0.19477645,0.15374403,0.00718479,-0.01196178,0
 .01749407,0.00352162,0.19956726,-0.00086602,-0.00190830,-0.00405916,-0
 .00009720,0.00010501,0.00012130,0.00012684,0.00015452,0.00004910,0.000
 81231,-0.00113466,0.00022705,0.01274762,-0.00874492,0.00222898,0.00048
 021,-0.00066465,-0.00055971,-0.00000446,0.00066217,0.00079775,0.157042
 25,-0.18506427,-0.04060070,-0.00474259,0.00549906,-0.00027549,-0.16549
 895,0.19109605,-0.00193006,-0.00117740,-0.00345137,-0.00010794,-0.0000
 7327,0.00013327,0.00022046,0.00008362,-0.00013467,0.00073355,-0.001015
 08,0.00060581,0.01675639,-0.01392313,0.00392681,-0.00026044,0.00089538
 ,-0.00050934,-0.00074170,0.00066903,0.00063609,0.00356052,-0.03778915,
 -0.03495743,-0.00963882,0.01025911,0.00435163,-0.00859195,0.04207090,0
 .02939921\\0.00001230,-0.00001736,0.00000825,-0.00000568,0.00000215,-0
 .00000203,-0.00000144,0.00000224,0.00000235,-0.00000045,0.00000211,-0.
 00000080,-0.00000575,0.00002323,0.00000058,0.00000493,-0.00000164,-0.0
 0000114,0.00000057,0.00000074,-0.00000577,-0.00000863,-0.00001535,-0.0
 0000550,0.00000099,-0.00000079,0.00000224,0.00000316,0.00000467,0.0000
 0183\\\@


 THERE'S SMALL CHOICE IN A BOWL OF ROTTEN APPLES.
                     SHAKESPEARE
 Job cpu time:  0 days  0 hours  1 minutes 40.2 seconds.
 File lengths (MBytes):  RWF=     12 Int=      0 D2E=      0 Chk=      2 Scr=      1
 Normal termination of Gaussian 09 at Wed Apr  1 00:06:16 2015.
