 Entering Gaussian System, Link 0=g09
 Input=C5P_reac.gjf
 Output=C5P_reac.log
 Initial command:
 /home/youxq1/g09/l1.exe /scratch/Gau-26728.inp -scrdir=/scratch/
 Default is to use a total of   4 processors:
                                4 via shared-memory
                                1 via Linda
 Entering Link 1 = /home/youxq1/g09/l1.exe PID=     26730.
  
 Copyright (c) 1988,1990,1992,1993,1995,1998,2003,2009,2010,
            Gaussian, Inc.  All Rights Reserved.
  
 This is part of the Gaussian(R) 09 program.  It is based on
 the Gaussian(R) 03 system (copyright 2003, Gaussian, Inc.),
 the Gaussian(R) 98 system (copyright 1998, Gaussian, Inc.),
 the Gaussian(R) 94 system (copyright 1995, Gaussian, Inc.),
 the Gaussian 92(TM) system (copyright 1992, Gaussian, Inc.),
 the Gaussian 90(TM) system (copyright 1990, Gaussian, Inc.),
 the Gaussian 88(TM) system (copyright 1988, Gaussian, Inc.),
 the Gaussian 86(TM) system (copyright 1986, Carnegie Mellon
 University), and the Gaussian 82(TM) system (copyright 1983,
 Carnegie Mellon University). Gaussian is a federally registered
 trademark of Gaussian, Inc.
  
 This software contains proprietary and confidential information,
 including trade secrets, belonging to Gaussian, Inc.
  
 This software is provided under written license and may be
 used, copied, transmitted, or stored only in accord with that
 written license.
  
 The following legend is applicable only to US Government
 contracts under FAR:
  
                    RESTRICTED RIGHTS LEGEND
  
 Use, reproduction and disclosure by the US Government is
 subject to restrictions as set forth in subparagraphs (a)
 and (c) of the Commercial Computer Software - Restricted
 Rights clause in FAR 52.227-19.
  
 Gaussian, Inc.
 340 Quinnipiac St., Bldg. 40, Wallingford CT 06492
  
  
 ---------------------------------------------------------------
 Warning -- This program may not be used in any manner that
 competes with the business of Gaussian, Inc. or will provide
 assistance to any competitor of Gaussian, Inc.  The licensee
 of this program is prohibited from giving any competitor of
 Gaussian, Inc. access to this program.  By using this program,
 the user acknowledges that Gaussian, Inc. is engaged in the
 business of creating and licensing software in the field of
 computational chemistry and represents and warrants to the
 licensee that it is not a competitor of Gaussian, Inc. and that
 it will not use this program in any manner prohibited above.
 ---------------------------------------------------------------
  

 Cite this work as:
 Gaussian 09, Revision B.01,
 M. J. Frisch, G. W. Trucks, H. B. Schlegel, G. E. Scuseria, 
 M. A. Robb, J. R. Cheeseman, G. Scalmani, V. Barone, B. Mennucci, 
 G. A. Petersson, H. Nakatsuji, M. Caricato, X. Li, H. P. Hratchian, 
 A. F. Izmaylov, J. Bloino, G. Zheng, J. L. Sonnenberg, M. Hada, 
 M. Ehara, K. Toyota, R. Fukuda, J. Hasegawa, M. Ishida, T. Nakajima, 
 Y. Honda, O. Kitao, H. Nakai, T. Vreven, J. A. Montgomery, Jr., 
 J. E. Peralta, F. Ogliaro, M. Bearpark, J. J. Heyd, E. Brothers, 
 K. N. Kudin, V. N. Staroverov, T. Keith, R. Kobayashi, J. Normand, 
 K. Raghavachari, A. Rendell, J. C. Burant, S. S. Iyengar, J. Tomasi, 
 M. Cossi, N. Rega, J. M. Millam, M. Klene, J. E. Knox, J. B. Cross, 
 V. Bakken, C. Adamo, J. Jaramillo, R. Gomperts, R. E. Stratmann, 
 O. Yazyev, A. J. Austin, R. Cammi, C. Pomelli, J. W. Ochterski, 
 R. L. Martin, K. Morokuma, V. G. Zakrzewski, G. A. Voth, 
 P. Salvador, J. J. Dannenberg, S. Dapprich, A. D. Daniels, 
 O. Farkas, J. B. Foresman, J. V. Ortiz, J. Cioslowski, 
 and D. J. Fox, Gaussian, Inc., Wallingford CT, 2010.
 
 ******************************************
 Gaussian 09:  EM64L-G09RevB.01 12-Aug-2010
                 6-Feb-2015 
 ******************************************
 %nprocshared=12
 Will use up to   12 processors via shared memory.
 %mem=30GB
 ---------------------------
 # CBS-QB3 geom=connectivity
 ---------------------------
 1/14=-1,18=20,19=15,26=3,38=1,57=2/1,3;
 2/9=110,12=2,17=6,18=5,40=1/2;
 3/5=4,6=6,7=700,11=2,16=1,25=1,30=1,71=1,74=-5/1,2,3;
 4//1;
 5/5=2,38=5/2;
 6/7=2,8=2,9=2,10=2,28=1/1;
 7//1,2,3,16;
 1/14=-1,18=20,19=15/3(2);
 2/9=110/2;
 99//99;
 2/9=110/2;
 3/5=4,6=6,7=700,11=2,16=1,25=1,30=1,71=1,74=-5/1,2,3;
 4/5=5,16=3/1;
 5/5=2,38=5/2;
 7//1,2,3,16;
 1/14=-1,18=20,19=15/3(-5);
 2/9=110/2;
 6/7=2,8=2,9=2,10=2,19=2,28=1/1;
 99/9=1/99;
 -------------------
 Title Card Required
 -------------------
 Symbolic Z-matrix:
 Charge =  0 Multiplicity = 2
 C                    -3.57208  -0.85144  -0.44467 
 H                    -3.88376  -0.91557  -1.49298 
 H                    -4.48193  -0.95453   0.15714 
 H                    -2.9347   -1.71091  -0.232 
 C                    -2.90433   0.46552  -0.17101 
 H                    -3.51282   1.33947  -0.39488 
 C                    -1.68023   0.6877    0.31156 
 H                    -1.36838   1.71967   0.44867 
 C                    -0.65022  -0.33806   0.69969 
 H                    -0.45769  -0.28003   1.77898 
 H                    -1.00011  -1.35315   0.4995 
 C                     0.68953  -0.15168  -0.01943 
 H                     0.55152  -0.02636  -1.09531 
 C                     1.71058  -1.24559   0.28841 
 H                     1.24997  -2.20412   0.02353 
 H                     1.87695  -1.26857   1.37113 
 C                     3.04277  -1.08854  -0.4487 
 H                     3.52928  -0.14478  -0.19556 
 H                     3.72438  -1.90064  -0.18377 
 H                     2.90119  -1.10832  -1.53282 
 O                     1.23134   1.13609   0.45469 
 O                     1.7674    1.85646  -0.51053 
 

 GradGradGradGradGradGradGradGradGradGradGradGradGradGradGradGradGradGrad
 Berny optimization.
 Initialization pass.
                           ----------------------------
                           !    Initial Parameters    !
                           ! (Angstroms and Degrees)  !
 --------------------------                            --------------------------
 ! Name  Definition              Value          Derivative Info.                !
 --------------------------------------------------------------------------------
 ! R1    R(1,2)                  1.0955         estimate D2E/DX2                !
 ! R2    R(1,3)                  1.0957         estimate D2E/DX2                !
 ! R3    R(1,4)                  1.091          estimate D2E/DX2                !
 ! R4    R(1,5)                  1.5017         estimate D2E/DX2                !
 ! R5    R(5,6)                  1.0882         estimate D2E/DX2                !
 ! R6    R(5,7)                  1.3344         estimate D2E/DX2                !
 ! R7    R(7,8)                  1.0867         estimate D2E/DX2                !
 ! R8    R(7,9)                  1.5046         estimate D2E/DX2                !
 ! R9    R(9,10)                 1.0979         estimate D2E/DX2                !
 ! R10   R(9,11)                 1.0922         estimate D2E/DX2                !
 ! R11   R(9,12)                 1.5319         estimate D2E/DX2                !
 ! R12   R(12,13)                1.0919         estimate D2E/DX2                !
 ! R13   R(12,14)                1.5277         estimate D2E/DX2                !
 ! R14   R(12,21)                1.4754         estimate D2E/DX2                !
 ! R15   R(14,15)                1.096          estimate D2E/DX2                !
 ! R16   R(14,16)                1.0957         estimate D2E/DX2                !
 ! R17   R(14,17)                1.5306         estimate D2E/DX2                !
 ! R18   R(17,18)                1.0915         estimate D2E/DX2                !
 ! R19   R(17,19)                1.0928         estimate D2E/DX2                !
 ! R20   R(17,20)                1.0935         estimate D2E/DX2                !
 ! R21   R(21,22)                1.3183         estimate D2E/DX2                !
 ! A1    A(2,1,3)              106.4881         estimate D2E/DX2                !
 ! A2    A(2,1,4)              107.8567         estimate D2E/DX2                !
 ! A3    A(2,1,5)              110.6229         estimate D2E/DX2                !
 ! A4    A(3,1,4)              107.6939         estimate D2E/DX2                !
 ! A5    A(3,1,5)              110.5882         estimate D2E/DX2                !
 ! A6    A(4,1,5)              113.302          estimate D2E/DX2                !
 ! A7    A(1,5,6)              114.7197         estimate D2E/DX2                !
 ! A8    A(1,5,7)              128.303          estimate D2E/DX2                !
 ! A9    A(6,5,7)              116.9762         estimate D2E/DX2                !
 ! A10   A(5,7,8)              117.8379         estimate D2E/DX2                !
 ! A11   A(5,7,9)              127.4278         estimate D2E/DX2                !
 ! A12   A(8,7,9)              114.7343         estimate D2E/DX2                !
 ! A13   A(7,9,10)             109.7314         estimate D2E/DX2                !
 ! A14   A(7,9,11)             111.5332         estimate D2E/DX2                !
 ! A15   A(7,9,12)             113.2452         estimate D2E/DX2                !
 ! A16   A(10,9,11)            106.5883         estimate D2E/DX2                !
 ! A17   A(10,9,12)            107.5584         estimate D2E/DX2                !
 ! A18   A(11,9,12)            107.8909         estimate D2E/DX2                !
 ! A19   A(9,12,13)            111.4659         estimate D2E/DX2                !
 ! A20   A(9,12,14)            113.7533         estimate D2E/DX2                !
 ! A21   A(9,12,21)            106.0524         estimate D2E/DX2                !
 ! A22   A(13,12,14)           111.4198         estimate D2E/DX2                !
 ! A23   A(13,12,21)           105.2409         estimate D2E/DX2                !
 ! A24   A(14,12,21)           108.3486         estimate D2E/DX2                !
 ! A25   A(12,14,15)           107.2572         estimate D2E/DX2                !
 ! A26   A(12,14,16)           108.3983         estimate D2E/DX2                !
 ! A27   A(12,14,17)           114.2807         estimate D2E/DX2                !
 ! A28   A(15,14,16)           106.517          estimate D2E/DX2                !
 ! A29   A(15,14,17)           109.8253         estimate D2E/DX2                !
 ! A30   A(16,14,17)           110.2356         estimate D2E/DX2                !
 ! A31   A(14,17,18)           111.4053         estimate D2E/DX2                !
 ! A32   A(14,17,19)           110.4792         estimate D2E/DX2                !
 ! A33   A(14,17,20)           111.278          estimate D2E/DX2                !
 ! A34   A(18,17,19)           107.9572         estimate D2E/DX2                !
 ! A35   A(18,17,20)           107.6536         estimate D2E/DX2                !
 ! A36   A(19,17,20)           107.9183         estimate D2E/DX2                !
 ! A37   A(12,21,22)           113.017          estimate D2E/DX2                !
 ! D1    D(2,1,5,6)             57.5459         estimate D2E/DX2                !
 ! D2    D(2,1,5,7)           -122.8559         estimate D2E/DX2                !
 ! D3    D(3,1,5,6)            -60.1839         estimate D2E/DX2                !
 ! D4    D(3,1,5,7)            119.4143         estimate D2E/DX2                !
 ! D5    D(4,1,5,6)            178.799          estimate D2E/DX2                !
 ! D6    D(4,1,5,7)             -1.6028         estimate D2E/DX2                !
 ! D7    D(1,5,7,8)           -179.6853         estimate D2E/DX2                !
 ! D8    D(1,5,7,9)              0.3293         estimate D2E/DX2                !
 ! D9    D(6,5,7,8)             -0.0949         estimate D2E/DX2                !
 ! D10   D(6,5,7,9)            179.9197         estimate D2E/DX2                !
 ! D11   D(5,7,9,10)          -115.3472         estimate D2E/DX2                !
 ! D12   D(5,7,9,11)             2.5303         estimate D2E/DX2                !
 ! D13   D(5,7,9,12)           124.4626         estimate D2E/DX2                !
 ! D14   D(8,7,9,10)            64.6671         estimate D2E/DX2                !
 ! D15   D(8,7,9,11)          -177.4555         estimate D2E/DX2                !
 ! D16   D(8,7,9,12)           -55.5231         estimate D2E/DX2                !
 ! D17   D(7,9,12,13)          -48.7878         estimate D2E/DX2                !
 ! D18   D(7,9,12,14)         -175.7858         estimate D2E/DX2                !
 ! D19   D(7,9,12,21)           65.2336         estimate D2E/DX2                !
 ! D20   D(10,9,12,13)        -170.2077         estimate D2E/DX2                !
 ! D21   D(10,9,12,14)          62.7943         estimate D2E/DX2                !
 ! D22   D(10,9,12,21)         -56.1864         estimate D2E/DX2                !
 ! D23   D(11,9,12,13)          75.1592         estimate D2E/DX2                !
 ! D24   D(11,9,12,14)         -51.8387         estimate D2E/DX2                !
 ! D25   D(11,9,12,21)        -170.8194         estimate D2E/DX2                !
 ! D26   D(9,12,14,15)          56.6902         estimate D2E/DX2                !
 ! D27   D(9,12,14,16)         -57.9593         estimate D2E/DX2                !
 ! D28   D(9,12,14,17)         178.6781         estimate D2E/DX2                !
 ! D29   D(13,12,14,15)        -70.3318         estimate D2E/DX2                !
 ! D30   D(13,12,14,16)        175.0187         estimate D2E/DX2                !
 ! D31   D(13,12,14,17)         51.6561         estimate D2E/DX2                !
 ! D32   D(21,12,14,15)        174.3518         estimate D2E/DX2                !
 ! D33   D(21,12,14,16)         59.7023         estimate D2E/DX2                !
 ! D34   D(21,12,14,17)        -63.6603         estimate D2E/DX2                !
 ! D35   D(9,12,21,22)        -138.0347         estimate D2E/DX2                !
 ! D36   D(13,12,21,22)        -19.8007         estimate D2E/DX2                !
 ! D37   D(14,12,21,22)         99.484          estimate D2E/DX2                !
 ! D38   D(12,14,17,18)         59.9822         estimate D2E/DX2                !
 ! D39   D(12,14,17,19)        179.9749         estimate D2E/DX2                !
 ! D40   D(12,14,17,20)        -60.1649         estimate D2E/DX2                !
 ! D41   D(15,14,17,18)       -179.4479         estimate D2E/DX2                !
 ! D42   D(15,14,17,19)        -59.4551         estimate D2E/DX2                !
 ! D43   D(15,14,17,20)         60.4051         estimate D2E/DX2                !
 ! D44   D(16,14,17,18)        -62.3835         estimate D2E/DX2                !
 ! D45   D(16,14,17,19)         57.6092         estimate D2E/DX2                !
 ! D46   D(16,14,17,20)        177.4694         estimate D2E/DX2                !
 --------------------------------------------------------------------------------
 Trust Radius=3.00D-01 FncErr=1.00D-07 GrdErr=1.00D-06
 Number of steps in this run=    114 maximum allowed number of steps=    132.
 GradGradGradGradGradGradGradGradGradGradGradGradGradGradGradGradGradGrad

                          Input orientation:                          
 ---------------------------------------------------------------------
 Center     Atomic      Atomic             Coordinates (Angstroms)
 Number     Number       Type             X           Y           Z
 ---------------------------------------------------------------------
      1          6           0       -3.572082   -0.851437   -0.444674
      2          1           0       -3.883762   -0.915566   -1.492984
      3          1           0       -4.481927   -0.954534    0.157144
      4          1           0       -2.934701   -1.710911   -0.232001
      5          6           0       -2.904330    0.465517   -0.171013
      6          1           0       -3.512816    1.339465   -0.394876
      7          6           0       -1.680229    0.687703    0.311564
      8          1           0       -1.368380    1.719672    0.448668
      9          6           0       -0.650220   -0.338063    0.699686
     10          1           0       -0.457693   -0.280029    1.778977
     11          1           0       -1.000110   -1.353153    0.499501
     12          6           0        0.689533   -0.151679   -0.019427
     13          1           0        0.551517   -0.026360   -1.095309
     14          6           0        1.710580   -1.245586    0.288408
     15          1           0        1.249968   -2.204122    0.023533
     16          1           0        1.876949   -1.268569    1.371132
     17          6           0        3.042774   -1.088543   -0.448695
     18          1           0        3.529280   -0.144775   -0.195561
     19          1           0        3.724375   -1.900641   -0.183770
     20          1           0        2.901185   -1.108319   -1.532821
     21          8           0        1.231342    1.136086    0.454687
     22          8           0        1.767404    1.856460   -0.510527
 ---------------------------------------------------------------------
                    Distance matrix (angstroms):
                    1          2          3          4          5
     1  C    0.000000
     2  H    1.095541   0.000000
     3  H    1.095733   1.755632   0.000000
     4  H    1.090954   1.767305   1.765630   0.000000
     5  C    1.501716   2.148089   2.147800   2.177494   0.000000
     6  H    2.192269   2.535470   2.550752   3.108945   1.088189
     7  C    2.553420   3.268398   3.251200   2.760890   1.334418
     8  H    3.502137   4.128152   4.114674   3.832176   2.077511
     9  C    3.179684   3.949317   3.918720   2.823403   2.546541
    10  H    3.869179   4.779915   4.390872   3.496716   3.216261
    11  H    2.785359   3.532269   3.521243   2.098983   2.717205
    12  C    4.339569   4.865174   5.236387   3.951135   3.649625
    13  H    4.255367   4.540984   5.269317   3.966955   3.610976
    14  C    5.347830   5.880385   6.200733   4.697445   4.943312
    15  H    5.030024   5.505941   5.868044   4.221375   4.941964
    16  H    5.758740   6.443102   6.481334   5.090941   5.314687
    17  C    6.619105   7.006951   7.550240   6.013693   6.153069
    18  H    7.140782   7.565092   8.059749   6.651102   6.462538
    19  H    7.376123   7.782555   8.267692   6.661953   7.038366
    20  H    6.569112   6.787801   7.575617   6.009394   6.167292
    21  O    5.275602   5.845253   6.091032   5.092430   4.236148
    22  O    5.987249   6.370638   6.884883   5.908765   4.886214
                    6          7          8          9         10
     6  H    0.000000
     7  C    2.069354   0.000000
     8  H    2.335536   1.086742   0.000000
     9  C    3.493798   1.504577   2.193864   0.000000
    10  H    4.084382   2.141121   2.568633   1.097863   0.000000
    11  H    3.789960   2.159392   3.095232   1.092202   1.755810
    12  C    4.474842   2.535723   2.820651   1.531927   2.137021
    13  H    4.344524   2.733106   3.019685   2.182507   3.056857
    14  C    5.867984   3.903297   4.277667   2.562445   2.802767
    15  H    5.951150   4.126944   4.736311   2.747740   3.114454
    16  H    6.242611   4.195617   4.506960   2.775476   2.567898
    17  C    6.990986   5.102921   5.305621   3.939569   4.227232
    18  H    7.199570   5.299923   5.279987   4.278674   4.451185
    19  H    7.932199   6.012872   6.280350   4.728554   4.895759
    20  H    6.958877   5.255169   5.491176   4.264957   4.789168
    21  O    4.823915   2.949369   2.664426   2.402793   2.571374
    22  O    5.306730   3.732024   3.282058   3.482162   3.841545
                   11         12         13         14         15
    11  H    0.000000
    12  C    2.137222   0.000000
    13  H    2.590626   1.091914   0.000000
    14  C    2.721024   1.527721   2.178213   0.000000
    15  H    2.452253   2.128017   2.546034   1.095953   0.000000
    16  H    3.007385   2.142675   3.063198   1.095672   1.756242
    17  C    4.161010   2.568994   2.784368   1.530596   2.163717
    18  H    4.739057   2.845212   3.112979   2.180294   3.079639
    19  H    4.804931   3.506586   3.796164   2.169659   2.501553
    20  H    4.405721   2.845510   2.623546   2.180197   2.519829
    21  O    3.343306   1.475358   2.053273   2.435093   3.367971
    22  O    4.356708   2.331439   2.316325   3.203781   4.128109
                   16         17         18         19         20
    16  H    0.000000
    17  C    2.168716   0.000000
    18  H    2.539220   1.091542   0.000000
    19  H    2.496040   1.092826   1.766711   0.000000
    20  H    3.083453   1.093512   1.763855   1.767867   0.000000
    21  O    2.653120   3.007717   2.709972   3.980522   3.431606
    22  O    3.649445   3.209896   2.684837   4.248801   3.334735
                   21         22
    21  O    0.000000
    22  O    1.318309   0.000000
 Stoichiometry    C7H13O2(2)
 Framework group  C1[X(C7H13O2)]
 Deg. of freedom    60
 Full point group                 C1      NOp   1
 Largest Abelian subgroup         C1      NOp   1
 Largest concise Abelian subgroup C1      NOp   1
                         Standard orientation:                         
 ---------------------------------------------------------------------
 Center     Atomic      Atomic             Coordinates (Angstroms)
 Number     Number       Type             X           Y           Z
 ---------------------------------------------------------------------
      1          6           0       -3.572082   -0.851437   -0.444674
      2          1           0       -3.883762   -0.915566   -1.492984
      3          1           0       -4.481927   -0.954534    0.157144
      4          1           0       -2.934701   -1.710911   -0.232001
      5          6           0       -2.904330    0.465517   -0.171013
      6          1           0       -3.512816    1.339465   -0.394876
      7          6           0       -1.680229    0.687703    0.311564
      8          1           0       -1.368380    1.719672    0.448668
      9          6           0       -0.650220   -0.338063    0.699686
     10          1           0       -0.457693   -0.280029    1.778977
     11          1           0       -1.000110   -1.353153    0.499501
     12          6           0        0.689533   -0.151679   -0.019427
     13          1           0        0.551517   -0.026360   -1.095309
     14          6           0        1.710580   -1.245586    0.288408
     15          1           0        1.249968   -2.204122    0.023533
     16          1           0        1.876949   -1.268569    1.371132
     17          6           0        3.042774   -1.088543   -0.448695
     18          1           0        3.529280   -0.144775   -0.195561
     19          1           0        3.724375   -1.900641   -0.183770
     20          1           0        2.901185   -1.108319   -1.532821
     21          8           0        1.231342    1.136086    0.454687
     22          8           0        1.767404    1.856460   -0.510527
 ---------------------------------------------------------------------
 Rotational constants (GHZ):      2.7820485      0.7752464      0.6572501
 Standard basis: 6-311G(2d,d,p) (5D, 7F)
 There are   240 symmetry adapted basis functions of A   symmetry.
 Integral buffers will be    131072 words long.
 Raffenetti 2 integral format.
 Two-electron integral symmetry is turned on.
   240 basis functions,   392 primitive gaussians,   249 cartesian basis functions
    36 alpha electrons       35 beta electrons
       nuclear repulsion energy       453.2919558009 Hartrees.
 NAtoms=   22 NActive=   22 NUniq=   22 SFac= 1.00D+00 NAtFMM=   50 NAOKFM=F Big=F
 One-electron integrals computed using PRISM.
 NBasis=   240 RedAO= T  NBF=   240
 NBsUse=   240 1.00D-06 NBFU=   240
 Harris functional with IExCor=  402 diagonalized for initial guess.
 ExpMin= 1.03D-01 ExpMax= 8.59D+03 ExpMxC= 1.30D+03 IAcc=1 IRadAn=         1 AccDes= 0.00D+00
 HarFok:  IExCor=  402 AccDes= 0.00D+00 IRadAn=         1 IDoV= 1
 ScaDFX=  1.000000  1.000000  1.000000  1.000000
 FoFCou: FMM=F IPFlag=           0 FMFlag=      100000 FMFlg1=           0
         NFxFlg=           0 DoJE=T BraDBF=F KetDBF=T FulRan=T
         Omega=  0.000000  0.000000  1.000000  0.000000  0.000000 ICntrl=     500 IOpCl=  0
         NMat0=    1 NMatS0=    1 NMatT0=    0 NMatD0=    1 NMtDS0=    0 NMtDT0=    0
         I1Cent=           4 NGrid=           0.
 Petite list used in FoFCou.
 Initial guess orbital symmetries:
 Alpha Orbitals:
       Occupied  (A) (A) (A) (A) (A) (A) (A) (A) (A) (A) (A) (A)
                 (A) (A) (A) (A) (A) (A) (A) (A) (A) (A) (A) (A)
                 (A) (A) (A) (A) (A) (A) (A) (A) (A) (A) (A) (A)
       Virtual   (A) (A) (A) (A) (A) (A) (A) (A) (A) (A) (A) (A)
                 (A) (A) (A) (A) (A) (A) (A) (A) (A) (A) (A) (A)
                 (A) (A) (A) (A) (A) (A) (A) (A) (A) (A) (A) (A)
                 (A) (A) (A) (A) (A) (A) (A) (A) (A) (A) (A) (A)
                 (A) (A) (A) (A) (A) (A) (A) (A) (A) (A) (A) (A)
                 (A) (A) (A) (A) (A) (A) (A) (A) (A) (A) (A) (A)
                 (A) (A) (A) (A) (A) (A) (A) (A) (A) (A) (A) (A)
                 (A) (A) (A) (A) (A) (A) (A) (A) (A) (A) (A) (A)
                 (A) (A) (A) (A) (A) (A) (A) (A) (A) (A) (A) (A)
                 (A) (A) (A) (A) (A) (A) (A) (A) (A) (A) (A) (A)
                 (A) (A) (A) (A) (A) (A) (A) (A) (A) (A) (A) (A)
                 (A) (A) (A) (A) (A) (A) (A) (A) (A) (A) (A) (A)
                 (A) (A) (A) (A) (A) (A) (A) (A) (A) (A) (A) (A)
                 (A) (A) (A) (A) (A) (A) (A) (A) (A) (A) (A) (A)
                 (A) (A) (A) (A) (A) (A) (A) (A) (A) (A) (A) (A)
                 (A) (A) (A) (A) (A) (A) (A) (A) (A) (A) (A) (A)
                 (A) (A) (A) (A) (A) (A) (A) (A) (A) (A) (A) (A)
 Beta  Orbitals:
       Occupied  (A) (A) (A) (A) (A) (A) (A) (A) (A) (A) (A) (A)
                 (A) (A) (A) (A) (A) (A) (A) (A) (A) (A) (A) (A)
                 (A) (A) (A) (A) (A) (A) (A) (A) (A) (A) (A)
       Virtual   (A) (A) (A) (A) (A) (A) (A) (A) (A) (A) (A) (A)
                 (A) (A) (A) (A) (A) (A) (A) (A) (A) (A) (A) (A)
                 (A) (A) (A) (A) (A) (A) (A) (A) (A) (A) (A) (A)
                 (A) (A) (A) (A) (A) (A) (A) (A) (A) (A) (A) (A)
                 (A) (A) (A) (A) (A) (A) (A) (A) (A) (A) (A) (A)
                 (A) (A) (A) (A) (A) (A) (A) (A) (A) (A) (A) (A)
                 (A) (A) (A) (A) (A) (A) (A) (A) (A) (A) (A) (A)
                 (A) (A) (A) (A) (A) (A) (A) (A) (A) (A) (A) (A)
                 (A) (A) (A) (A) (A) (A) (A) (A) (A) (A) (A) (A)
                 (A) (A) (A) (A) (A) (A) (A) (A) (A) (A) (A) (A)
                 (A) (A) (A) (A) (A) (A) (A) (A) (A) (A) (A) (A)
                 (A) (A) (A) (A) (A) (A) (A) (A) (A) (A) (A) (A)
                 (A) (A) (A) (A) (A) (A) (A) (A) (A) (A) (A) (A)
                 (A) (A) (A) (A) (A) (A) (A) (A) (A) (A) (A) (A)
                 (A) (A) (A) (A) (A) (A) (A) (A) (A) (A) (A) (A)
                 (A) (A) (A) (A) (A) (A) (A) (A) (A) (A) (A) (A)
                 (A) (A) (A) (A) (A) (A) (A) (A) (A) (A) (A) (A)
                 (A)
 The electronic state of the initial guess is 2-A.
 Initial guess <Sx>= 0.0000 <Sy>= 0.0000 <Sz>= 0.5000 <S**2>= 0.7500 S= 0.5000
 Requested convergence on RMS density matrix=1.00D-08 within 128 cycles.
 Requested convergence on MAX density matrix=1.00D-06.
 Requested convergence on             energy=1.00D-06.
 No special actions if energy rises.
 Keep R1 and R2 ints in memory in canonical form, NReq=977006046.
 Integral accuracy reduced to 1.0D-05 until final iterations.
 Initial convergence to 1.0D-05 achieved.  Increase integral accuracy.
 SCF Done:  E(UB3LYP) =  -424.994098208     A.U. after   19 cycles
             Convg  =    0.8783D-08             -V/T =  2.0039
 <Sx>= 0.0000 <Sy>= 0.0000 <Sz>= 0.5000 <S**2>= 0.7536 S= 0.5018
 <L.S>= 0.000000000000E+00
 Annihilation of the first spin contaminant:
 S**2 before annihilation     0.7536,   after     0.7500

 **********************************************************************

            Population analysis using the SCF density.

 **********************************************************************

 Orbital symmetries:
 Alpha Orbitals:
       Occupied  (A) (A) (A) (A) (A) (A) (A) (A) (A) (A) (A) (A)
                 (A) (A) (A) (A) (A) (A) (A) (A) (A) (A) (A) (A)
                 (A) (A) (A) (A) (A) (A) (A) (A) (A) (A) (A) (A)
       Virtual   (A) (A) (A) (A) (A) (A) (A) (A) (A) (A) (A) (A)
                 (A) (A) (A) (A) (A) (A) (A) (A) (A) (A) (A) (A)
                 (A) (A) (A) (A) (A) (A) (A) (A) (A) (A) (A) (A)
                 (A) (A) (A) (A) (A) (A) (A) (A) (A) (A) (A) (A)
                 (A) (A) (A) (A) (A) (A) (A) (A) (A) (A) (A) (A)
                 (A) (A) (A) (A) (A) (A) (A) (A) (A) (A) (A) (A)
                 (A) (A) (A) (A) (A) (A) (A) (A) (A) (A) (A) (A)
                 (A) (A) (A) (A) (A) (A) (A) (A) (A) (A) (A) (A)
                 (A) (A) (A) (A) (A) (A) (A) (A) (A) (A) (A) (A)
                 (A) (A) (A) (A) (A) (A) (A) (A) (A) (A) (A) (A)
                 (A) (A) (A) (A) (A) (A) (A) (A) (A) (A) (A) (A)
                 (A) (A) (A) (A) (A) (A) (A) (A) (A) (A) (A) (A)
                 (A) (A) (A) (A) (A) (A) (A) (A) (A) (A) (A) (A)
                 (A) (A) (A) (A) (A) (A) (A) (A) (A) (A) (A) (A)
                 (A) (A) (A) (A) (A) (A) (A) (A) (A) (A) (A) (A)
                 (A) (A) (A) (A) (A) (A) (A) (A) (A) (A) (A) (A)
                 (A) (A) (A) (A) (A) (A) (A) (A) (A) (A) (A) (A)
 Beta  Orbitals:
       Occupied  (A) (A) (A) (A) (A) (A) (A) (A) (A) (A) (A) (A)
                 (A) (A) (A) (A) (A) (A) (A) (A) (A) (A) (A) (A)
                 (A) (A) (A) (A) (A) (A) (A) (A) (A) (A) (A)
       Virtual   (A) (A) (A) (A) (A) (A) (A) (A) (A) (A) (A) (A)
                 (A) (A) (A) (A) (A) (A) (A) (A) (A) (A) (A) (A)
                 (A) (A) (A) (A) (A) (A) (A) (A) (A) (A) (A) (A)
                 (A) (A) (A) (A) (A) (A) (A) (A) (A) (A) (A) (A)
                 (A) (A) (A) (A) (A) (A) (A) (A) (A) (A) (A) (A)
                 (A) (A) (A) (A) (A) (A) (A) (A) (A) (A) (A) (A)
                 (A) (A) (A) (A) (A) (A) (A) (A) (A) (A) (A) (A)
                 (A) (A) (A) (A) (A) (A) (A) (A) (A) (A) (A) (A)
                 (A) (A) (A) (A) (A) (A) (A) (A) (A) (A) (A) (A)
                 (A) (A) (A) (A) (A) (A) (A) (A) (A) (A) (A) (A)
                 (A) (A) (A) (A) (A) (A) (A) (A) (A) (A) (A) (A)
                 (A) (A) (A) (A) (A) (A) (A) (A) (A) (A) (A) (A)
                 (A) (A) (A) (A) (A) (A) (A) (A) (A) (A) (A) (A)
                 (A) (A) (A) (A) (A) (A) (A) (A) (A) (A) (A) (A)
                 (A) (A) (A) (A) (A) (A) (A) (A) (A) (A) (A) (A)
                 (A) (A) (A) (A) (A) (A) (A) (A) (A) (A) (A) (A)
                 (A) (A) (A) (A) (A) (A) (A) (A) (A) (A) (A) (A)
                 (A)
 The electronic state is 2-A.
 Alpha  occ. eigenvalues --  -19.23023 -19.17949 -10.23927 -10.18713 -10.18503
 Alpha  occ. eigenvalues --  -10.17530 -10.17248 -10.17122 -10.16553  -1.18674
 Alpha  occ. eigenvalues --   -0.88966  -0.80880  -0.78449  -0.74524  -0.68888
 Alpha  occ. eigenvalues --   -0.64493  -0.60298  -0.54057  -0.52949  -0.51173
 Alpha  occ. eigenvalues --   -0.48109  -0.46677  -0.44610  -0.43690  -0.42999
 Alpha  occ. eigenvalues --   -0.41937  -0.40650  -0.38946  -0.38131  -0.36680
 Alpha  occ. eigenvalues --   -0.36384  -0.35357  -0.33740  -0.27615  -0.27300
 Alpha  occ. eigenvalues --   -0.25435
 Alpha virt. eigenvalues --    0.01058   0.03302   0.05073   0.06135   0.06391
 Alpha virt. eigenvalues --    0.08274   0.08869   0.10083   0.11024   0.11358
 Alpha virt. eigenvalues --    0.12334   0.12967   0.13172   0.14407   0.16485
 Alpha virt. eigenvalues --    0.17584   0.19015   0.20111   0.21400   0.24258
 Alpha virt. eigenvalues --    0.27173   0.28799   0.29873   0.30740   0.32369
 Alpha virt. eigenvalues --    0.33311   0.35154   0.38186   0.38940   0.40250
 Alpha virt. eigenvalues --    0.40769   0.43138   0.45276   0.46307   0.49602
 Alpha virt. eigenvalues --    0.50497   0.52373   0.53849   0.55030   0.55547
 Alpha virt. eigenvalues --    0.55690   0.56877   0.57431   0.58353   0.58514
 Alpha virt. eigenvalues --    0.59192   0.59754   0.61071   0.61395   0.62487
 Alpha virt. eigenvalues --    0.63205   0.63587   0.64558   0.67938   0.70270
 Alpha virt. eigenvalues --    0.73941   0.77747   0.78927   0.79715   0.80970
 Alpha virt. eigenvalues --    0.83269   0.83638   0.84541   0.88913   0.92048
 Alpha virt. eigenvalues --    0.94306   0.98099   1.00270   1.01392   1.03711
 Alpha virt. eigenvalues --    1.06815   1.12133   1.13711   1.17386   1.19956
 Alpha virt. eigenvalues --    1.23517   1.27823   1.29747   1.32482   1.38264
 Alpha virt. eigenvalues --    1.39354   1.40473   1.41375   1.43343   1.45256
 Alpha virt. eigenvalues --    1.45773   1.47457   1.47763   1.49133   1.49413
 Alpha virt. eigenvalues --    1.51456   1.52036   1.54297   1.55116   1.55325
 Alpha virt. eigenvalues --    1.57274   1.58469   1.60485   1.63790   1.65777
 Alpha virt. eigenvalues --    1.67924   1.70159   1.71688   1.72903   1.73940
 Alpha virt. eigenvalues --    1.75966   1.77461   1.79450   1.80906   1.84966
 Alpha virt. eigenvalues --    1.85068   1.87419   1.90612   1.92273   1.94437
 Alpha virt. eigenvalues --    1.98138   2.01781   2.03286   2.04811   2.08877
 Alpha virt. eigenvalues --    2.10062   2.11132   2.15221   2.16703   2.21492
 Alpha virt. eigenvalues --    2.22831   2.24655   2.29739   2.30956   2.32288
 Alpha virt. eigenvalues --    2.33447   2.37552   2.39023   2.39517   2.40217
 Alpha virt. eigenvalues --    2.43007   2.43586   2.44290   2.45845   2.46780
 Alpha virt. eigenvalues --    2.48312   2.50676   2.52052   2.54112   2.56645
 Alpha virt. eigenvalues --    2.57621   2.59455   2.61296   2.61465   2.62314
 Alpha virt. eigenvalues --    2.65873   2.66397   2.69796   2.71050   2.72444
 Alpha virt. eigenvalues --    2.73171   2.77106   2.77855   2.79044   2.83071
 Alpha virt. eigenvalues --    2.83743   2.86580   2.91125   2.93099   2.97213
 Alpha virt. eigenvalues --    2.99205   3.03413   3.06479   3.10278   3.17929
 Alpha virt. eigenvalues --    3.27528   3.30274   3.33086   3.41389   3.50577
 Alpha virt. eigenvalues --    3.75467   3.77289   3.78019   3.79272   3.79975
 Alpha virt. eigenvalues --    3.81552   3.83824   3.86916   3.95237   3.98938
 Alpha virt. eigenvalues --    4.05526   4.16503   4.30255   4.43169   4.71991
 Alpha virt. eigenvalues --    4.72360   4.80068   4.93042   5.20307   5.92821
 Alpha virt. eigenvalues --   23.65319  23.74131  23.84361  23.86802  23.92260
 Alpha virt. eigenvalues --   23.93439  24.27280  49.69445  49.77618
  Beta  occ. eigenvalues --  -19.22011 -19.16013 -10.23958 -10.18701 -10.18471
  Beta  occ. eigenvalues --  -10.17528 -10.17248 -10.17124 -10.16554  -1.15965
  Beta  occ. eigenvalues --   -0.86848  -0.80441  -0.77462  -0.74182  -0.68660
  Beta  occ. eigenvalues --   -0.64368  -0.59883  -0.54003  -0.51846  -0.49284
  Beta  occ. eigenvalues --   -0.46745  -0.45967  -0.44448  -0.43068  -0.41993
  Beta  occ. eigenvalues --   -0.40597  -0.39581  -0.38563  -0.37826  -0.36518
  Beta  occ. eigenvalues --   -0.35405  -0.35244  -0.33238  -0.25896  -0.25376
  Beta virt. eigenvalues --   -0.10426   0.01074   0.03380   0.05110   0.06151
  Beta virt. eigenvalues --    0.06432   0.08493   0.09180   0.10356   0.11232
  Beta virt. eigenvalues --    0.11585   0.12387   0.13065   0.13399   0.14537
  Beta virt. eigenvalues --    0.17144   0.17617   0.19237   0.20239   0.21466
  Beta virt. eigenvalues --    0.24351   0.27220   0.28844   0.29929   0.30789
  Beta virt. eigenvalues --    0.32442   0.33380   0.35273   0.38297   0.38997
  Beta virt. eigenvalues --    0.40333   0.40919   0.43193   0.45302   0.46323
  Beta virt. eigenvalues --    0.49648   0.50527   0.52465   0.53864   0.55063
  Beta virt. eigenvalues --    0.55625   0.55733   0.56935   0.57504   0.58519
  Beta virt. eigenvalues --    0.58563   0.59237   0.59837   0.61107   0.61421
  Beta virt. eigenvalues --    0.62525   0.63275   0.63739   0.64632   0.67963
  Beta virt. eigenvalues --    0.70379   0.74354   0.78534   0.79392   0.80149
  Beta virt. eigenvalues --    0.81598   0.83649   0.84576   0.86666   0.89200
  Beta virt. eigenvalues --    0.92868   0.95409   0.98256   1.00321   1.01539
  Beta virt. eigenvalues --    1.03954   1.07301   1.12288   1.14200   1.17499
  Beta virt. eigenvalues --    1.19995   1.23607   1.28532   1.30224   1.32590
  Beta virt. eigenvalues --    1.38273   1.39407   1.40615   1.41433   1.43426
  Beta virt. eigenvalues --    1.45275   1.45876   1.47551   1.47846   1.49175
  Beta virt. eigenvalues --    1.49543   1.51696   1.52085   1.54320   1.55225
  Beta virt. eigenvalues --    1.55474   1.57361   1.58591   1.60506   1.63854
  Beta virt. eigenvalues --    1.65813   1.67948   1.70215   1.71717   1.72936
  Beta virt. eigenvalues --    1.73962   1.76030   1.77529   1.79520   1.80942
  Beta virt. eigenvalues --    1.84991   1.85133   1.87454   1.90645   1.92322
  Beta virt. eigenvalues --    1.94472   1.98158   2.01837   2.03324   2.04882
  Beta virt. eigenvalues --    2.08917   2.10145   2.11178   2.15267   2.16784
  Beta virt. eigenvalues --    2.21548   2.22860   2.24779   2.29868   2.31007
  Beta virt. eigenvalues --    2.32356   2.33803   2.38005   2.39048   2.39956
  Beta virt. eigenvalues --    2.40745   2.43215   2.43700   2.44346   2.46099
  Beta virt. eigenvalues --    2.47387   2.48756   2.50760   2.52156   2.54458
  Beta virt. eigenvalues --    2.56740   2.57745   2.59662   2.61565   2.61588
  Beta virt. eigenvalues --    2.62477   2.66491   2.66806   2.70446   2.71262
  Beta virt. eigenvalues --    2.73018   2.74328   2.78024   2.79530   2.81311
  Beta virt. eigenvalues --    2.84700   2.85773   2.86747   2.92539   2.93412
  Beta virt. eigenvalues --    2.97871   2.99467   3.04454   3.07037   3.11602
  Beta virt. eigenvalues --    3.18065   3.27665   3.33773   3.34699   3.41763
  Beta virt. eigenvalues --    3.50619   3.76240   3.77826   3.78099   3.79314
  Beta virt. eigenvalues --    3.80079   3.81878   3.84382   3.87069   3.95269
  Beta virt. eigenvalues --    3.99027   4.05648   4.16588   4.30398   4.43191
  Beta virt. eigenvalues --    4.73393   4.78859   4.81854   4.98277   5.21256
  Beta virt. eigenvalues --    5.94220  23.65317  23.74100  23.84389  23.86815
  Beta virt. eigenvalues --   23.92262  23.93443  24.27281  49.71360  49.78651
          Condensed to atoms (all electrons):
              1          2          3          4          5          6
     1  C    4.816732   0.399313   0.401191   0.405533   0.371799  -0.048259
     2  H    0.399313   0.579445  -0.032006  -0.028031  -0.035492  -0.003485
     3  H    0.401191  -0.032006   0.578303  -0.028580  -0.036523  -0.003184
     4  H    0.405533  -0.028031  -0.028580   0.582773  -0.036017   0.007117
     5  C    0.371799  -0.035492  -0.036523  -0.036017   4.915126   0.408240
     6  H   -0.048259  -0.003485  -0.003184   0.007117   0.408240   0.576903
     7  C   -0.065526   0.001445   0.001140  -0.006799   0.644405  -0.032342
     8  H    0.006848  -0.000297  -0.000318  -0.000101  -0.025925  -0.012550
     9  C   -0.011443   0.000446   0.000086   0.001035  -0.063820   0.007840
    10  H    0.000635  -0.000116   0.000251  -0.000229  -0.000433  -0.000412
    11  H    0.000626  -0.000153  -0.000358   0.003835  -0.003018  -0.000003
    12  C    0.000218   0.000192  -0.000083  -0.000137  -0.001440  -0.000318
    13  H    0.000044  -0.000111   0.000027  -0.000001   0.002989  -0.000139
    14  C   -0.000021  -0.000007   0.000003   0.000055   0.000007   0.000014
    15  H   -0.000009   0.000000   0.000000  -0.000051  -0.000014   0.000001
    16  H    0.000003   0.000000   0.000000   0.000003  -0.000015  -0.000001
    17  C    0.000000   0.000000   0.000000  -0.000002   0.000001   0.000000
    18  H    0.000000   0.000000   0.000000   0.000000   0.000002   0.000000
    19  H    0.000000   0.000000   0.000000   0.000000   0.000000   0.000000
    20  H    0.000000   0.000000   0.000000   0.000001  -0.000005   0.000000
    21  O   -0.000004   0.000001   0.000000  -0.000001   0.000433  -0.000011
    22  O    0.000000   0.000000   0.000000   0.000001  -0.000002  -0.000005
              7          8          9         10         11         12
     1  C   -0.065526   0.006848  -0.011443   0.000635   0.000626   0.000218
     2  H    0.001445  -0.000297   0.000446  -0.000116  -0.000153   0.000192
     3  H    0.001140  -0.000318   0.000086   0.000251  -0.000358  -0.000083
     4  H   -0.006799  -0.000101   0.001035  -0.000229   0.003835  -0.000137
     5  C    0.644405  -0.025925  -0.063820  -0.000433  -0.003018  -0.001440
     6  H   -0.032342  -0.012550   0.007840  -0.000412  -0.000003  -0.000318
     7  C    4.940840   0.408885   0.356871  -0.035013  -0.037749  -0.069751
     8  H    0.408885   0.555787  -0.053209  -0.001426   0.006764  -0.005095
     9  C    0.356871  -0.053209   4.965596   0.395342   0.402181   0.338743
    10  H   -0.035013  -0.001426   0.395342   0.567858  -0.025888  -0.044280
    11  H   -0.037749   0.006764   0.402181  -0.025888   0.572698  -0.035730
    12  C   -0.069751  -0.005095   0.338743  -0.044280  -0.035730   5.120986
    13  H   -0.001709   0.001155  -0.032891   0.009683  -0.003486   0.382493
    14  C    0.008943   0.000356  -0.066723  -0.005815  -0.001720   0.360645
    15  H   -0.000303  -0.000050  -0.003046  -0.000160   0.002790  -0.040047
    16  H   -0.000121   0.000044  -0.004836   0.005481  -0.000308  -0.039776
    17  C   -0.000401  -0.000010   0.007986  -0.000302   0.000096  -0.061542
    18  H   -0.000033  -0.000004   0.000168   0.000058   0.000052  -0.007520
    19  H    0.000016   0.000000  -0.000291   0.000011  -0.000034   0.007821
    20  H   -0.000033  -0.000002   0.000121   0.000000  -0.000008  -0.004948
    21  O    0.003635   0.008104  -0.047148   0.001224   0.003313   0.155381
    22  O    0.000450   0.000883   0.003837  -0.000139  -0.000377  -0.066136
             13         14         15         16         17         18
     1  C    0.000044  -0.000021  -0.000009   0.000003   0.000000   0.000000
     2  H   -0.000111  -0.000007   0.000000   0.000000   0.000000   0.000000
     3  H    0.000027   0.000003   0.000000   0.000000   0.000000   0.000000
     4  H   -0.000001   0.000055  -0.000051   0.000003  -0.000002   0.000000
     5  C    0.002989   0.000007  -0.000014  -0.000015   0.000001   0.000002
     6  H   -0.000139   0.000014   0.000001  -0.000001   0.000000   0.000000
     7  C   -0.001709   0.008943  -0.000303  -0.000121  -0.000401  -0.000033
     8  H    0.001155   0.000356  -0.000050   0.000044  -0.000010  -0.000004
     9  C   -0.032891  -0.066723  -0.003046  -0.004836   0.007986   0.000168
    10  H    0.009683  -0.005815  -0.000160   0.005481  -0.000302   0.000058
    11  H   -0.003486  -0.001720   0.002790  -0.000308   0.000096   0.000052
    12  C    0.382493   0.360645  -0.040047  -0.039776  -0.061542  -0.007520
    13  H    0.549629  -0.035434  -0.003980   0.008674  -0.006963   0.000171
    14  C   -0.035434   4.924597   0.398643   0.402554   0.359213  -0.035290
    15  H   -0.003980   0.398643   0.597018  -0.031135  -0.032598   0.008576
    16  H    0.008674   0.402554  -0.031135   0.581997  -0.037445  -0.005459
    17  C   -0.006963   0.359213  -0.032598  -0.037445   4.846974   0.405199
    18  H    0.000171  -0.035290   0.008576  -0.005459   0.405199   0.558460
    19  H    0.000035  -0.031102  -0.006264  -0.005639   0.401739  -0.027389
    20  H    0.004249  -0.036384  -0.006903   0.008295   0.404626  -0.029414
    21  O   -0.031534  -0.040752   0.004168   0.000340  -0.001840   0.003619
    22  O    0.015717  -0.005290  -0.000545  -0.000321   0.004645   0.005657
             19         20         21         22
     1  C    0.000000   0.000000  -0.000004   0.000000
     2  H    0.000000   0.000000   0.000001   0.000000
     3  H    0.000000   0.000000   0.000000   0.000000
     4  H    0.000000   0.000001  -0.000001   0.000001
     5  C    0.000000  -0.000005   0.000433  -0.000002
     6  H    0.000000   0.000000  -0.000011  -0.000005
     7  C    0.000016  -0.000033   0.003635   0.000450
     8  H    0.000000  -0.000002   0.008104   0.000883
     9  C   -0.000291   0.000121  -0.047148   0.003837
    10  H    0.000011   0.000000   0.001224  -0.000139
    11  H   -0.000034  -0.000008   0.003313  -0.000377
    12  C    0.007821  -0.004948   0.155381  -0.066136
    13  H    0.000035   0.004249  -0.031534   0.015717
    14  C   -0.031102  -0.036384  -0.040752  -0.005290
    15  H   -0.006264  -0.006903   0.004168  -0.000545
    16  H   -0.005639   0.008295   0.000340  -0.000321
    17  C    0.401739   0.404626  -0.001840   0.004645
    18  H   -0.027389  -0.029414   0.003619   0.005657
    19  H    0.580453  -0.029197  -0.000109   0.000174
    20  H   -0.029197   0.582139  -0.000344   0.000860
    21  O   -0.000109  -0.000344   8.035411   0.052506
    22  O    0.000174   0.000860   0.052506   8.146705
 Mulliken atomic charges:
              1
     1  C   -0.277683
     2  H    0.118856
     3  H    0.120051
     4  H    0.099598
     5  C   -0.140299
     6  H    0.100593
     7  C   -0.116850
     8  H    0.110160
     9  C   -0.196846
    10  H    0.133670
    11  H    0.116475
    12  C    0.010324
    13  H    0.141381
    14  C   -0.196492
    15  H    0.113910
    16  H    0.117665
    17  C   -0.289374
    18  H    0.123148
    19  H    0.109777
    20  H    0.106948
    21  O   -0.146391
    22  O   -0.158621
 Sum of Mulliken atomic charges =   0.00000
 Mulliken charges with hydrogens summed into heavy atoms:
              1
     1  C    0.060822
     5  C   -0.039706
     7  C   -0.006691
     9  C    0.053299
    12  C    0.151706
    14  C    0.035084
    17  C    0.050498
    21  O   -0.146391
    22  O   -0.158621
 Sum of Mulliken charges with hydrogens summed into heavy atoms =   0.00000
          Atomic-Atomic Spin Densities.
              1          2          3          4          5          6
     1  C    0.000233   0.000018  -0.000018   0.000005  -0.000401  -0.000012
     2  H    0.000018   0.000009  -0.000013  -0.000003  -0.000026  -0.000001
     3  H   -0.000018  -0.000013   0.000149   0.000000   0.000007   0.000025
     4  H    0.000005  -0.000003   0.000000  -0.000010  -0.000011   0.000001
     5  C   -0.000401  -0.000026   0.000007  -0.000011   0.002065   0.000348
     6  H   -0.000012  -0.000001   0.000025   0.000001   0.000348   0.000003
     7  C    0.000210   0.000023  -0.000054  -0.000010  -0.000399  -0.000438
     8  H   -0.000005  -0.000001  -0.000004  -0.000004  -0.000540   0.000055
     9  C    0.000046   0.000004   0.000001   0.000016   0.000658  -0.000049
    10  H    0.000008   0.000000  -0.000001   0.000002  -0.000060  -0.000004
    11  H   -0.000185  -0.000007   0.000025   0.000012   0.000598   0.000024
    12  C    0.000013   0.000000  -0.000001  -0.000002  -0.000369  -0.000003
    13  H    0.000033   0.000001  -0.000002  -0.000001  -0.000325  -0.000012
    14  C   -0.000004   0.000000   0.000000  -0.000003   0.000023   0.000001
    15  H    0.000008   0.000000   0.000000   0.000002  -0.000022  -0.000001
    16  H    0.000001   0.000000   0.000000   0.000000  -0.000005   0.000000
    17  C    0.000000   0.000000   0.000000   0.000000   0.000001   0.000000
    18  H    0.000000   0.000000   0.000000   0.000000   0.000001   0.000000
    19  H    0.000000   0.000000   0.000000   0.000000   0.000000   0.000000
    20  H    0.000000   0.000000   0.000000   0.000000   0.000000   0.000000
    21  O   -0.000003   0.000000   0.000000   0.000000   0.000176   0.000018
    22  O    0.000000   0.000000   0.000000   0.000000  -0.000053  -0.000003
              7          8          9         10         11         12
     1  C    0.000210  -0.000005   0.000046   0.000008  -0.000185   0.000013
     2  H    0.000023  -0.000001   0.000004   0.000000  -0.000007   0.000000
     3  H   -0.000054  -0.000004   0.000001  -0.000001   0.000025  -0.000001
     4  H   -0.000010  -0.000004   0.000016   0.000002   0.000012  -0.000002
     5  C   -0.000399  -0.000540   0.000658  -0.000060   0.000598  -0.000369
     6  H   -0.000438   0.000055  -0.000049  -0.000004   0.000024  -0.000003
     7  C   -0.002195   0.000392   0.003073   0.000055  -0.000219  -0.000409
     8  H    0.000392  -0.000851   0.001622   0.000004  -0.000040  -0.000287
     9  C    0.003073   0.001622  -0.010500  -0.000072  -0.000436   0.006461
    10  H    0.000055   0.000004  -0.000072  -0.000130  -0.000289   0.000763
    11  H   -0.000219  -0.000040  -0.000436  -0.000289   0.002000  -0.000420
    12  C   -0.000409  -0.000287   0.006461   0.000763  -0.000420  -0.017315
    13  H   -0.000080  -0.000034   0.001066  -0.000036  -0.000583   0.000002
    14  C   -0.000371  -0.000094   0.001682  -0.000126   0.001061   0.004227
    15  H    0.000022   0.000011   0.000528   0.000109  -0.001129  -0.002018
    16  H   -0.000010   0.000000   0.000157  -0.000008  -0.000109  -0.000077
    17  C    0.000028   0.000006  -0.000380  -0.000014   0.000041   0.001229
    18  H    0.000019   0.000007  -0.000165  -0.000009   0.000005   0.000260
    19  H    0.000001   0.000000  -0.000017  -0.000002   0.000014   0.000240
    20  H    0.000001   0.000000  -0.000017  -0.000001   0.000004  -0.000011
    21  O   -0.000474  -0.001385   0.002540  -0.000512   0.000282  -0.012946
    22  O   -0.000236  -0.000325   0.000175   0.000010  -0.000028   0.002406
             13         14         15         16         17         18
     1  C    0.000033  -0.000004   0.000008   0.000001   0.000000   0.000000
     2  H    0.000001   0.000000   0.000000   0.000000   0.000000   0.000000
     3  H   -0.000002   0.000000   0.000000   0.000000   0.000000   0.000000
     4  H   -0.000001  -0.000003   0.000002   0.000000   0.000000   0.000000
     5  C   -0.000325   0.000023  -0.000022  -0.000005   0.000001   0.000001
     6  H   -0.000012   0.000001  -0.000001   0.000000   0.000000   0.000000
     7  C   -0.000080  -0.000371   0.000022  -0.000010   0.000028   0.000019
     8  H   -0.000034  -0.000094   0.000011   0.000000   0.000006   0.000007
     9  C    0.001066   0.001682   0.000528   0.000157  -0.000380  -0.000165
    10  H   -0.000036  -0.000126   0.000109  -0.000008  -0.000014  -0.000009
    11  H   -0.000583   0.001061  -0.001129  -0.000109   0.000041   0.000005
    12  C    0.000002   0.004227  -0.002018  -0.000077   0.001229   0.000260
    13  H    0.003662  -0.001615   0.001326   0.000067  -0.000298  -0.000086
    14  C   -0.001615   0.002657  -0.000974   0.000041   0.002819   0.001617
    15  H    0.001326  -0.000974   0.007401   0.000519  -0.000958  -0.000331
    16  H    0.000067   0.000041   0.000519  -0.000578   0.000089  -0.000028
    17  C   -0.000298   0.002819  -0.000958   0.000089  -0.004060   0.000967
    18  H   -0.000086   0.001617  -0.000331  -0.000028   0.000967  -0.001608
    19  H   -0.000113  -0.000553  -0.000810  -0.000191  -0.000250   0.000155
    20  H   -0.000029   0.000090   0.000059  -0.000009   0.000054   0.000005
    21  O   -0.000936   0.000938   0.000546   0.000605  -0.001218  -0.002375
    22  O   -0.000856   0.000759  -0.000157  -0.000218   0.000325   0.000082
             19         20         21         22
     1  C    0.000000   0.000000  -0.000003   0.000000
     2  H    0.000000   0.000000   0.000000   0.000000
     3  H    0.000000   0.000000   0.000000   0.000000
     4  H    0.000000   0.000000   0.000000   0.000000
     5  C    0.000000   0.000000   0.000176  -0.000053
     6  H    0.000000   0.000000   0.000018  -0.000003
     7  C    0.000001   0.000001  -0.000474  -0.000236
     8  H    0.000000   0.000000  -0.001385  -0.000325
     9  C   -0.000017  -0.000017   0.002540   0.000175
    10  H   -0.000002  -0.000001  -0.000512   0.000010
    11  H    0.000014   0.000004   0.000282  -0.000028
    12  C    0.000240  -0.000011  -0.012946   0.002406
    13  H   -0.000113  -0.000029  -0.000936  -0.000856
    14  C   -0.000553   0.000090   0.000938   0.000759
    15  H   -0.000810   0.000059   0.000546  -0.000157
    16  H   -0.000191  -0.000009   0.000605  -0.000218
    17  C   -0.000250   0.000054  -0.001218   0.000325
    18  H    0.000155   0.000005  -0.002375   0.000082
    19  H    0.003508  -0.000133  -0.000223   0.000123
    20  H   -0.000133   0.000260  -0.000031  -0.000013
    21  O   -0.000223  -0.000031   0.453271  -0.134153
    22  O    0.000123  -0.000013  -0.134153   0.823882
 Mulliken atomic spin densities:
              1
     1  C   -0.000053
     2  H    0.000005
     3  H    0.000114
     4  H   -0.000004
     5  C    0.001666
     6  H   -0.000047
     7  C   -0.001070
     8  H   -0.001474
     9  C    0.006396
    10  H   -0.000315
    11  H    0.000624
    12  C   -0.018258
    13  H    0.001154
    14  C    0.012175
    15  H    0.004129
    16  H    0.000245
    17  C   -0.001619
    18  H   -0.001487
    19  H    0.001748
    20  H    0.000230
    21  O    0.304118
    22  O    0.691721
 Sum of Mulliken atomic spin densities =   1.00000
 Electronic spatial extent (au):  <R**2>=           1796.1377
 Charge=              0.0000 electrons
 Dipole moment (field-independent basis, Debye):
    X=             -1.4114    Y=             -2.7912    Z=              0.1160  Tot=              3.1299
 Quadrupole moment (field-independent basis, Debye-Ang):
   XX=            -55.3677   YY=            -58.8509   ZZ=            -57.2614
   XY=             -4.2449   XZ=              1.6032   YZ=              0.3590
 Traceless Quadrupole moment (field-independent basis, Debye-Ang):
   XX=              1.7923   YY=             -1.6909   ZZ=             -0.1014
   XY=             -4.2449   XZ=              1.6032   YZ=              0.3590
 Octapole moment (field-independent basis, Debye-Ang**2):
  XXX=             -1.0404  YYY=              4.7775  ZZZ=             -0.1838  XYY=             -4.0024
  XXY=             -4.5259  XXZ=             -2.6554  XZZ=              5.3789  YZZ=              1.7334
  YYZ=              0.8750  XYZ=              1.1561
 Hexadecapole moment (field-independent basis, Debye-Ang**3):
 XXXX=          -1751.7539 YYYY=           -452.3583 ZZZZ=           -154.9341 XXXY=              4.4048
 XXXZ=             19.3568 YYYX=             -3.5001 YYYZ=             -0.0823 ZZZX=              3.0218
 ZZZY=             -1.2288 XXYY=           -382.1221 XXZZ=           -334.1843 YYZZ=           -105.0261
 XXYZ=             -3.4558 YYXZ=              2.6538 ZZXY=              7.0077
 N-N= 4.532919558009D+02 E-N=-2.836236632905D+03  KE= 6.333517123705D+02
                          Isotropic Fermi Contact Couplings
        Atom                 a.u.       MegaHertz       Gauss      10(-4) cm-1
     1  C(13)              0.00008       0.08726       0.03114       0.02911
     2  H(1)               0.00001       0.03024       0.01079       0.01009
     3  H(1)               0.00006       0.26293       0.09382       0.08770
     4  H(1)               0.00000       0.02003       0.00715       0.00668
     5  C(13)              0.00003       0.03506       0.01251       0.01169
     6  H(1)              -0.00002      -0.08664      -0.03091      -0.02890
     7  C(13)             -0.00037      -0.41158      -0.14686      -0.13729
     8  H(1)               0.00004       0.16252       0.05799       0.05421
     9  C(13)              0.00426       4.79124       1.70963       1.59819
    10  H(1)              -0.00014      -0.61145      -0.21818      -0.20396
    11  H(1)               0.00021       0.93330       0.33302       0.31131
    12  C(13)             -0.01033     -11.61003      -4.14275      -3.87269
    13  H(1)               0.00059       2.63774       0.94121       0.87986
    14  C(13)              0.01117      12.55337       4.47936       4.18735
    15  H(1)               0.00139       6.20870       2.21542       2.07100
    16  H(1)              -0.00005      -0.20997      -0.07492      -0.07004
    17  C(13)             -0.00062      -0.69888      -0.24938      -0.23312
    18  H(1)               0.00034       1.51558       0.54080       0.50554
    19  H(1)               0.00068       3.05497       1.09009       1.01903
    20  H(1)               0.00008       0.34185       0.12198       0.11403
    21  O(17)              0.04267     -25.86508      -9.22930      -8.62766
    22  O(17)              0.04995     -30.27659     -10.80344     -10.09918
 --------------------------------------------------------
       Center         ----  Spin Dipole Couplings  ----
                      3XX-RR        3YY-RR        3ZZ-RR
 --------------------------------------------------------
     1   Atom        0.001258     -0.000424     -0.000833
     2   Atom        0.000832     -0.000317     -0.000514
     3   Atom        0.000812     -0.000292     -0.000520
     4   Atom        0.000801      0.000055     -0.000855
     5   Atom        0.002386     -0.002089     -0.000296
     6   Atom        0.002135     -0.001039     -0.001096
     7   Atom        0.006557     -0.002469     -0.004088
     8   Atom        0.010164     -0.005201     -0.004963
     9   Atom        0.007548     -0.001272     -0.006276
    10   Atom        0.000479     -0.000523      0.000044
    11   Atom        0.000575      0.001957     -0.002532
    12   Atom       -0.001031      0.012600     -0.011569
    13   Atom       -0.003841      0.007428     -0.003587
    14   Atom       -0.007488      0.021532     -0.014043
    15   Atom       -0.002338      0.005515     -0.003177
    16   Atom       -0.004785      0.005597     -0.000811
    17   Atom       -0.002488      0.007332     -0.004844
    18   Atom        0.003792      0.003505     -0.007297
    19   Atom       -0.000189      0.002275     -0.002086
    20   Atom       -0.002322      0.003967     -0.001645
    21   Atom        1.106865     -0.306743     -0.800123
    22   Atom        2.024104     -0.594607     -1.429497
 --------------------------------------------------------
                        XY            XZ            YZ
 --------------------------------------------------------
     1   Atom        0.000957      0.000147      0.000076
     2   Atom        0.000678      0.000397      0.000175
     3   Atom        0.000561     -0.000057     -0.000026
     4   Atom        0.001186      0.000099      0.000042
     5   Atom        0.001144     -0.001184     -0.000313
     6   Atom        0.000030      0.000158     -0.000038
     7   Atom        0.002734     -0.000316      0.000185
     8   Atom       -0.001271     -0.002373     -0.000299
     9   Atom        0.010449     -0.006401     -0.003789
    10   Atom        0.004459     -0.004542     -0.004080
    11   Atom        0.003558     -0.000571     -0.000398
    12   Atom        0.006087     -0.000787      0.003636
    13   Atom        0.010684      0.005568      0.009790
    14   Atom       -0.013923     -0.000019     -0.001869
    15   Atom        0.001314      0.000294      0.000398
    16   Atom       -0.001851      0.001547     -0.005708
    17   Atom       -0.005754     -0.000993      0.000841
    18   Atom       -0.010411     -0.000430     -0.000827
    19   Atom       -0.002752     -0.000117      0.000017
    20   Atom       -0.003197     -0.001875      0.003616
    21   Atom       -0.961169      0.342805     -0.148645
    22   Atom       -1.824828      0.578130     -0.284776
 --------------------------------------------------------


 ---------------------------------------------------------------------------------
              Anisotropic Spin Dipole Couplings in Principal Axis System
 ---------------------------------------------------------------------------------

       Atom             a.u.   MegaHertz   Gauss  10(-4) cm-1        Axes

              Baa    -0.0009    -0.116    -0.041    -0.039 -0.3404  0.8236 -0.4537
     1 C(13)  Bbb    -0.0008    -0.113    -0.040    -0.038 -0.2403  0.3903  0.8888
              Bcc     0.0017     0.228     0.081     0.076  0.9091  0.4115  0.0651
 
              Baa    -0.0006    -0.339    -0.121    -0.113 -0.4721  0.7566  0.4524
     2 H(1)   Bbb    -0.0006    -0.329    -0.117    -0.110  0.0038 -0.5115  0.8593
              Bcc     0.0013     0.669     0.239     0.223  0.8815  0.4074  0.2386
 
              Baa    -0.0005    -0.282    -0.101    -0.094 -0.3374  0.8475  0.4097
     3 H(1)   Bbb    -0.0005    -0.278    -0.099    -0.093  0.1918 -0.3642  0.9114
              Bcc     0.0010     0.560     0.200     0.187  0.9216  0.3860 -0.0397
 
              Baa    -0.0009    -0.465    -0.166    -0.155 -0.2741  0.3103  0.9103
     4 H(1)   Bbb    -0.0008    -0.429    -0.153    -0.143 -0.5249  0.7448 -0.4120
              Bcc     0.0017     0.894     0.319     0.298  0.8058  0.5908  0.0412
 
              Baa    -0.0024    -0.317    -0.113    -0.106 -0.2303  0.9730  0.0156
     5 C(13)  Bbb    -0.0007    -0.099    -0.035    -0.033  0.3332  0.0638  0.9407
              Bcc     0.0031     0.416     0.149     0.139  0.9143  0.2219 -0.3389
 
              Baa    -0.0011    -0.599    -0.214    -0.200 -0.0477  0.4287  0.9022
     6 H(1)   Bbb    -0.0010    -0.545    -0.194    -0.182  0.0130  0.9034 -0.4286
              Bcc     0.0021     1.143     0.408     0.381  0.9988  0.0087  0.0486
 
              Baa    -0.0042    -0.559    -0.200    -0.187  0.0933 -0.2548  0.9625
     7 C(13)  Bbb    -0.0032    -0.424    -0.151    -0.141 -0.2526  0.9290  0.2705
              Bcc     0.0073     0.983     0.351     0.328  0.9631  0.2684 -0.0223
 
              Baa    -0.0058    -3.093    -1.104    -1.032  0.1597  0.6930  0.7030
     8 H(1)   Bbb    -0.0048    -2.574    -0.918    -0.858 -0.0493  0.7169 -0.6954
              Bcc     0.0106     5.666     2.022     1.890  0.9859 -0.0764 -0.1487
 
              Baa    -0.0089    -1.189    -0.424    -0.397  0.4883 -0.2557  0.8344
     9 C(13)  Bbb    -0.0080    -1.074    -0.383    -0.358 -0.3577  0.8134  0.4587
              Bcc     0.0169     2.263     0.808     0.755  0.7960  0.5225 -0.3057
 
              Baa    -0.0045    -2.406    -0.858    -0.803 -0.6469  0.7617  0.0373
    10 H(1)   Bbb    -0.0042    -2.262    -0.807    -0.754  0.4577  0.3488  0.8178
              Bcc     0.0087     4.667     1.665     1.557  0.6099  0.5461 -0.5743
 
              Baa    -0.0027    -1.438    -0.513    -0.480  0.4231 -0.2491  0.8712
    11 H(1)   Bbb    -0.0023    -1.204    -0.429    -0.401  0.6460 -0.5913 -0.4828
              Bcc     0.0050     2.642     0.943     0.881  0.6354  0.7670 -0.0893
 
              Baa    -0.0124    -1.662    -0.593    -0.554  0.1644 -0.1812  0.9696
    12 C(13)  Bbb    -0.0029    -0.390    -0.139    -0.130  0.9251 -0.3127 -0.2153
              Bcc     0.0153     2.051     0.732     0.684  0.3422  0.9324  0.1162
 
              Baa    -0.0103    -5.517    -1.969    -1.840  0.7932 -0.5797  0.1864
    13 H(1)   Bbb    -0.0090    -4.829    -1.723    -1.611 -0.3989 -0.2633  0.8784
              Bcc     0.0194    10.346     3.692     3.451  0.4601  0.7711  0.4401
 
              Baa    -0.0145    -1.943    -0.693    -0.648  0.4093  0.2044  0.8892
    14 C(13)  Bbb    -0.0127    -1.707    -0.609    -0.569  0.8331  0.3138 -0.4556
              Bcc     0.0272     3.650     1.303     1.218 -0.3721  0.9272 -0.0419
 
              Baa    -0.0033    -1.745    -0.623    -0.582 -0.3034  0.0022  0.9529
    15 H(1)   Bbb    -0.0025    -1.324    -0.472    -0.442  0.9390 -0.1692  0.2993
              Bcc     0.0058     3.068     1.095     1.024  0.1619  0.9856  0.0493
 
              Baa    -0.0053    -2.838    -1.013    -0.947  0.9344 -0.0273 -0.3553
    16 H(1)   Bbb    -0.0040    -2.145    -0.765    -0.715  0.3152  0.5285  0.7882
              Bcc     0.0093     4.983     1.778     1.662 -0.1662  0.8485 -0.5024
 
              Baa    -0.0056    -0.751    -0.268    -0.251  0.7191  0.2786  0.6366
    17 C(13)  Bbb    -0.0045    -0.601    -0.215    -0.201 -0.5535 -0.3242  0.7671
              Bcc     0.0101     1.353     0.483     0.451 -0.4201  0.9040  0.0789
 
              Baa    -0.0080    -4.248    -1.516    -1.417  0.4117  0.4317  0.8026
    18 H(1)   Bbb    -0.0061    -3.256    -1.162    -1.086 -0.5694 -0.5658  0.5964
              Bcc     0.0141     7.504     2.678     2.503  0.7115 -0.7026  0.0129
 
              Baa    -0.0021    -1.139    -0.407    -0.380  0.4080  0.2512  0.8777
    19 H(1)   Bbb    -0.0019    -1.027    -0.366    -0.342  0.7333  0.4826 -0.4790
              Bcc     0.0041     2.166     0.773     0.722 -0.5439  0.8391  0.0127
 
              Baa    -0.0039    -2.080    -0.742    -0.694  0.8228  0.0754  0.5633
    20 H(1)   Bbb    -0.0033    -1.749    -0.624    -0.583 -0.4375 -0.5487  0.7124
              Bcc     0.0072     3.829     1.366     1.277 -0.3628  0.8326  0.4184
 
              Baa    -0.8637    62.495    22.300    20.846 -0.2614 -0.1990  0.9445
    21 O(17)  Bbb    -0.7862    56.892    20.301    18.977  0.3904  0.8731  0.2920
              Bcc     1.6499  -119.387   -42.600   -39.823  0.8828 -0.4451  0.1505
 
              Baa    -1.5381   111.299    39.714    37.125  0.4509  0.7080 -0.5436
    22 O(17)  Bbb    -1.5152   109.639    39.122    36.572  0.1448  0.5429  0.8272
              Bcc     3.0533  -220.938   -78.836   -73.697  0.8808 -0.4517  0.1423
 

 ---------------------------------------------------------------------------------

 Calling FoFJK, ICntrl=      2127 FMM=F ISym2X=0 I1Cent= 0 IOpClX= 1 NMat=1 NMatS=1 NMatT=0.
 ***** Axes restored to original set *****
 -------------------------------------------------------------------
 Center     Atomic                   Forces (Hartrees/Bohr)
 Number     Number              X              Y              Z
 -------------------------------------------------------------------
      1        6          -0.000001494   -0.000001944   -0.000000310
      2        1          -0.000000481    0.000000599    0.000000923
      3        1          -0.000000178    0.000002671    0.000000854
      4        1           0.000000546    0.000002275    0.000001208
      5        6          -0.000000324    0.000008137   -0.000003368
      6        1           0.000002295    0.000002032   -0.000002462
      7        6          -0.000005981   -0.000002756   -0.000001844
      8        1           0.000002215    0.000000620   -0.000001789
      9        6           0.000017119    0.000007448   -0.000003913
     10        1          -0.000006459    0.000000089    0.000002164
     11        1          -0.000001067   -0.000000614    0.000000258
     12        6          -0.000005378   -0.000020768    0.000004085
     13        1          -0.000004852   -0.000003015   -0.000001699
     14        6          -0.000011850    0.000012530   -0.000003542
     15        1           0.000001729   -0.000004610    0.000004463
     16        1           0.000000177   -0.000001274    0.000003076
     17        6           0.000003236   -0.000005314    0.000000982
     18        1           0.000000479   -0.000002854   -0.000000467
     19        1          -0.000001254   -0.000002990    0.000002070
     20        1          -0.000000078   -0.000002897    0.000000795
     21        8           0.000010635    0.000017770   -0.000004024
     22        8           0.000000965   -0.000005135    0.000002539
 -------------------------------------------------------------------
 Cartesian Forces:  Max     0.000020768 RMS     0.000005520

 GradGradGradGradGradGradGradGradGradGradGradGradGradGradGradGradGradGrad
 Berny optimization.
 Internal  Forces:  Max     0.000017256 RMS     0.000002791
 Search for a local minimum.
 Step number   1 out of a maximum of  114
 All quantities printed in internal units (Hartrees-Bohrs-Radians)
 Mixed Optimization -- En-DIIS/RFO-DIIS
 Second derivative matrix not updated -- first step.
 ITU=  0
     Eigenvalues ---    0.00344   0.00361   0.00399   0.00695   0.00705
     Eigenvalues ---    0.00743   0.01635   0.01649   0.02956   0.03399
     Eigenvalues ---    0.03859   0.04052   0.04802   0.04991   0.05467
     Eigenvalues ---    0.05509   0.05552   0.06915   0.07319   0.07789
     Eigenvalues ---    0.08616   0.09384   0.12399   0.12906   0.16000
     Eigenvalues ---    0.16000   0.16000   0.16000   0.16000   0.16000
     Eigenvalues ---    0.16000   0.16000   0.16674   0.19187   0.21942
     Eigenvalues ---    0.21956   0.22000   0.22000   0.25000   0.29246
     Eigenvalues ---    0.29368   0.29635   0.31902   0.32198   0.33920
     Eigenvalues ---    0.34134   0.34158   0.34165   0.34180   0.34410
     Eigenvalues ---    0.34488   0.34559   0.34592   0.34635   0.34703
     Eigenvalues ---    0.35023   0.35107   0.35192   0.58474   0.62354
 RFO step:  Lambda= 0.00000000D+00 EMin= 3.43613269D-03
 Linear search not attempted -- first point.
 Iteration  1 RMS(Cart)=  0.00013667 RMS(Int)=  0.00000001
 Iteration  2 RMS(Cart)=  0.00000001 RMS(Int)=  0.00000000
 Variable       Old X    -DE/DX   Delta X   Delta X   Delta X     New X
                                 (Linear)    (Quad)   (Total)
    R1        2.07027   0.00000   0.00000   0.00000   0.00000   2.07027
    R2        2.07064   0.00000   0.00000   0.00000   0.00000   2.07064
    R3        2.06160   0.00000   0.00000   0.00000   0.00000   2.06160
    R4        2.83783   0.00000   0.00000   0.00001   0.00001   2.83784
    R5        2.05638   0.00000   0.00000   0.00000   0.00000   2.05638
    R6        2.52168   0.00000   0.00000   0.00000   0.00000   2.52168
    R7        2.05364   0.00000   0.00000   0.00000   0.00000   2.05364
    R8        2.84324   0.00000   0.00000   0.00001   0.00001   2.84325
    R9        2.07466   0.00000   0.00000   0.00000   0.00000   2.07466
   R10        2.06396   0.00000   0.00000   0.00001   0.00001   2.06397
   R11        2.89492  -0.00001   0.00000  -0.00002  -0.00002   2.89490
   R12        2.06342   0.00000   0.00000   0.00001   0.00001   2.06342
   R13        2.88697  -0.00001   0.00000  -0.00002  -0.00002   2.88695
   R14        2.78802   0.00002   0.00000   0.00005   0.00005   2.78807
   R15        2.07105   0.00000   0.00000   0.00000   0.00000   2.07106
   R16        2.07052   0.00000   0.00000   0.00001   0.00001   2.07053
   R17        2.89241   0.00000   0.00000   0.00001   0.00001   2.89242
   R18        2.06271   0.00000   0.00000   0.00000   0.00000   2.06271
   R19        2.06514   0.00000   0.00000   0.00000   0.00000   2.06514
   R20        2.06644   0.00000   0.00000   0.00000   0.00000   2.06644
   R21        2.49124  -0.00001   0.00000  -0.00001  -0.00001   2.49123
    A1        1.85857   0.00000   0.00000   0.00000   0.00000   1.85857
    A2        1.88246   0.00000   0.00000   0.00000   0.00000   1.88246
    A3        1.93073   0.00000   0.00000   0.00000   0.00000   1.93074
    A4        1.87961   0.00000   0.00000   0.00000   0.00000   1.87962
    A5        1.93013   0.00000   0.00000   0.00000   0.00000   1.93013
    A6        1.97749   0.00000   0.00000  -0.00002  -0.00002   1.97748
    A7        2.00224   0.00000   0.00000   0.00002   0.00002   2.00225
    A8        2.23931   0.00000   0.00000  -0.00002  -0.00002   2.23929
    A9        2.04162   0.00000   0.00000   0.00000   0.00000   2.04162
   A10        2.05666   0.00000   0.00000   0.00000   0.00000   2.05666
   A11        2.22403   0.00000   0.00000   0.00002   0.00002   2.22405
   A12        2.00249   0.00000   0.00000  -0.00002  -0.00002   2.00247
   A13        1.91517   0.00000   0.00000  -0.00001  -0.00001   1.91516
   A14        1.94662   0.00000   0.00000  -0.00002  -0.00002   1.94660
   A15        1.97650   0.00000   0.00000   0.00001   0.00001   1.97651
   A16        1.86032   0.00000   0.00000  -0.00002  -0.00002   1.86030
   A17        1.87725   0.00001   0.00000   0.00008   0.00008   1.87733
   A18        1.88305   0.00000   0.00000  -0.00003  -0.00003   1.88302
   A19        1.94545   0.00000   0.00000  -0.00005  -0.00005   1.94539
   A20        1.98537   0.00000   0.00000   0.00001   0.00001   1.98538
   A21        1.85096   0.00000   0.00000   0.00004   0.00004   1.85101
   A22        1.94464   0.00000   0.00000   0.00000   0.00000   1.94464
   A23        1.83680   0.00000   0.00000   0.00001   0.00001   1.83681
   A24        1.89104   0.00000   0.00000   0.00000   0.00000   1.89104
   A25        1.87199   0.00000   0.00000   0.00003   0.00003   1.87202
   A26        1.89191   0.00000   0.00000   0.00001   0.00001   1.89192
   A27        1.99457   0.00000   0.00000   0.00002   0.00002   1.99459
   A28        1.85907   0.00000   0.00000  -0.00003  -0.00003   1.85905
   A29        1.91681   0.00000   0.00000  -0.00003  -0.00003   1.91679
   A30        1.92397   0.00000   0.00000  -0.00001  -0.00001   1.92396
   A31        1.94439   0.00000   0.00000   0.00000   0.00000   1.94439
   A32        1.92823   0.00000   0.00000   0.00000   0.00000   1.92822
   A33        1.94217   0.00000   0.00000   0.00000   0.00000   1.94217
   A34        1.88421   0.00000   0.00000   0.00000   0.00000   1.88421
   A35        1.87891   0.00000   0.00000  -0.00001  -0.00001   1.87890
   A36        1.88353   0.00000   0.00000   0.00000   0.00000   1.88353
   A37        1.97252   0.00000   0.00000   0.00001   0.00001   1.97253
    D1        1.00437   0.00000   0.00000  -0.00007  -0.00007   1.00430
    D2       -2.14424   0.00000   0.00000  -0.00008  -0.00008  -2.14432
    D3       -1.05041   0.00000   0.00000  -0.00007  -0.00007  -1.05048
    D4        2.08417   0.00000   0.00000  -0.00009  -0.00009   2.08408
    D5        3.12063   0.00000   0.00000  -0.00007  -0.00007   3.12056
    D6       -0.02797   0.00000   0.00000  -0.00009  -0.00009  -0.02806
    D7       -3.13610   0.00000   0.00000   0.00000   0.00000  -3.13610
    D8        0.00575   0.00000   0.00000   0.00000   0.00000   0.00574
    D9       -0.00166   0.00000   0.00000  -0.00001  -0.00001  -0.00167
   D10        3.14019   0.00000   0.00000  -0.00002  -0.00002   3.14017
   D11       -2.01319   0.00000   0.00000  -0.00001  -0.00001  -2.01320
   D12        0.04416   0.00000   0.00000  -0.00006  -0.00006   0.04410
   D13        2.17228   0.00000   0.00000  -0.00011  -0.00011   2.17217
   D14        1.12865   0.00000   0.00000  -0.00002  -0.00002   1.12863
   D15       -3.09718   0.00000   0.00000  -0.00007  -0.00007  -3.09725
   D16       -0.96906   0.00000   0.00000  -0.00012  -0.00012  -0.96918
   D17       -0.85151   0.00000   0.00000  -0.00009  -0.00009  -0.85159
   D18       -3.06804   0.00000   0.00000  -0.00005  -0.00005  -3.06809
   D19        1.13854   0.00000   0.00000  -0.00007  -0.00007   1.13847
   D20       -2.97069   0.00000   0.00000  -0.00014  -0.00014  -2.97082
   D21        1.09597   0.00000   0.00000  -0.00010  -0.00010   1.09587
   D22       -0.98064   0.00000   0.00000  -0.00012  -0.00012  -0.98076
   D23        1.31178   0.00000   0.00000  -0.00013  -0.00013   1.31164
   D24       -0.90476   0.00000   0.00000  -0.00009  -0.00009  -0.90485
   D25       -2.98136   0.00000   0.00000  -0.00012  -0.00012  -2.98148
   D26        0.98943   0.00000   0.00000  -0.00012  -0.00012   0.98931
   D27       -1.01158   0.00000   0.00000  -0.00011  -0.00011  -1.01169
   D28        3.11852   0.00000   0.00000  -0.00012  -0.00012   3.11840
   D29       -1.22752   0.00000   0.00000  -0.00005  -0.00005  -1.22758
   D30        3.05465   0.00000   0.00000  -0.00004  -0.00004   3.05461
   D31        0.90157   0.00000   0.00000  -0.00005  -0.00005   0.90152
   D32        3.04301   0.00000   0.00000  -0.00007  -0.00007   3.04295
   D33        1.04200   0.00000   0.00000  -0.00006  -0.00006   1.04195
   D34       -1.11108   0.00000   0.00000  -0.00007  -0.00007  -1.11115
   D35       -2.40916   0.00000   0.00000  -0.00018  -0.00018  -2.40934
   D36       -0.34559   0.00000   0.00000  -0.00022  -0.00022  -0.34580
   D37        1.73632   0.00000   0.00000  -0.00021  -0.00021   1.73611
   D38        1.04689   0.00000   0.00000   0.00007   0.00007   1.04696
   D39        3.14115   0.00000   0.00000   0.00007   0.00007   3.14123
   D40       -1.05007   0.00000   0.00000   0.00008   0.00008  -1.05000
   D41       -3.13196   0.00000   0.00000   0.00010   0.00010  -3.13185
   D42       -1.03769   0.00000   0.00000   0.00011   0.00011  -1.03758
   D43        1.05427   0.00000   0.00000   0.00011   0.00011   1.05438
   D44       -1.08880   0.00000   0.00000   0.00005   0.00005  -1.08875
   D45        1.00547   0.00000   0.00000   0.00006   0.00006   1.00553
   D46        3.09743   0.00000   0.00000   0.00006   0.00006   3.09748
         Item               Value     Threshold  Converged?
 Maximum Force            0.000017     0.000450     YES
 RMS     Force            0.000003     0.000300     YES
 Maximum Displacement     0.000490     0.001800     YES
 RMS     Displacement     0.000137     0.001200     YES
 Predicted change in Energy=-3.357695D-09
 Optimization completed.
    -- Stationary point found.
                           ----------------------------
                           !   Optimized Parameters   !
                           ! (Angstroms and Degrees)  !
 --------------------------                            --------------------------
 ! Name  Definition              Value          Derivative Info.                !
 --------------------------------------------------------------------------------
 ! R1    R(1,2)                  1.0955         -DE/DX =    0.0                 !
 ! R2    R(1,3)                  1.0957         -DE/DX =    0.0                 !
 ! R3    R(1,4)                  1.091          -DE/DX =    0.0                 !
 ! R4    R(1,5)                  1.5017         -DE/DX =    0.0                 !
 ! R5    R(5,6)                  1.0882         -DE/DX =    0.0                 !
 ! R6    R(5,7)                  1.3344         -DE/DX =    0.0                 !
 ! R7    R(7,8)                  1.0867         -DE/DX =    0.0                 !
 ! R8    R(7,9)                  1.5046         -DE/DX =    0.0                 !
 ! R9    R(9,10)                 1.0979         -DE/DX =    0.0                 !
 ! R10   R(9,11)                 1.0922         -DE/DX =    0.0                 !
 ! R11   R(9,12)                 1.5319         -DE/DX =    0.0                 !
 ! R12   R(12,13)                1.0919         -DE/DX =    0.0                 !
 ! R13   R(12,14)                1.5277         -DE/DX =    0.0                 !
 ! R14   R(12,21)                1.4754         -DE/DX =    0.0                 !
 ! R15   R(14,15)                1.096          -DE/DX =    0.0                 !
 ! R16   R(14,16)                1.0957         -DE/DX =    0.0                 !
 ! R17   R(14,17)                1.5306         -DE/DX =    0.0                 !
 ! R18   R(17,18)                1.0915         -DE/DX =    0.0                 !
 ! R19   R(17,19)                1.0928         -DE/DX =    0.0                 !
 ! R20   R(17,20)                1.0935         -DE/DX =    0.0                 !
 ! R21   R(21,22)                1.3183         -DE/DX =    0.0                 !
 ! A1    A(2,1,3)              106.4881         -DE/DX =    0.0                 !
 ! A2    A(2,1,4)              107.8567         -DE/DX =    0.0                 !
 ! A3    A(2,1,5)              110.6229         -DE/DX =    0.0                 !
 ! A4    A(3,1,4)              107.6939         -DE/DX =    0.0                 !
 ! A5    A(3,1,5)              110.5882         -DE/DX =    0.0                 !
 ! A6    A(4,1,5)              113.302          -DE/DX =    0.0                 !
 ! A7    A(1,5,6)              114.7197         -DE/DX =    0.0                 !
 ! A8    A(1,5,7)              128.303          -DE/DX =    0.0                 !
 ! A9    A(6,5,7)              116.9762         -DE/DX =    0.0                 !
 ! A10   A(5,7,8)              117.8379         -DE/DX =    0.0                 !
[...]
 ,0.00119542,-0.00464996,0.00083971,0.00016147,0.00005290,0.00218311,0.
 01981980,0.00813112,-0.01326408,0.00058762,-0.00133992,0.00011475,-0.0
 0169340,-0.07270339,0.00490275,0.00186038,-0.00061755,-0.00064912,-0.0
 2485934,-0.00571494,0.01474226,-0.03375532,0.37520832,-0.00012438,-0.0
 0008671,0.00027985,-0.00024440,-0.00002264,-0.00012964,-0.00022082,-0.
 00003028,-0.00011012,0.00007238,0.00026170,0.00019733,-0.00200310,0.00
 238807,-0.00122442,-0.00047870,0.00007902,-0.00095736,-0.00676958,-0.0
 0556560,0.00565604,0.00012063,0.00046662,0.00037270,0.04024859,0.00178
 655,-0.10849187,0.03300620,0.00600675,-0.02131592,-0.00912395,-0.00153
 224,0.00304264,-0.00351980,-0.05247337,0.62915969,-0.00000164,-0.00012
 233,0.00002549,-0.00007200,0.00003979,0.00000384,0.00002701,0.00002930
 ,-0.00000320,-0.00001879,0.00005455,0.00005370,-0.00039290,-0.00012077
 ,-0.00058314,-0.00006933,0.00000104,0.00004822,0.00280511,-0.00063992,
 0.00041800,-0.00014345,0.00020419,0.00010301,0.00219451,-0.00110002,0.
 02906008,-0.00490743,-0.00085448,0.00295210,0.00084097,-0.00014171,-0.
 00081347,-0.05299467,0.00559197,-0.02901678,0.05987552,-0.00001154,0.0
 0002301,-0.00006761,-0.00005142,-0.00002200,-0.00002284,0.00001411,-0.
 00003363,-0.00000041,-0.00000828,-0.00003591,0.00004974,0.00001504,0.0
 0013486,-0.00009746,-0.00007296,-0.00001244,0.00008369,0.00018040,0.00
 004359,-0.00061481,-0.00007296,0.00001770,-0.00007839,0.00129778,0.001
 26113,0.00423928,-0.00088199,0.00038460,0.00027424,0.00028870,0.000105
 55,-0.00017850,0.00719980,-0.05052740,0.04327195,-0.00373889,0.0637837
 5,-0.00003953,0.00001506,0.00003435,0.00005723,-0.00001749,0.00000879,
 -0.00002688,-0.00001229,0.00000420,0.00002163,-0.00000518,-0.00004980,
 0.00041936,-0.00020137,0.00047960,0.00011024,0.00001433,-0.00010664,-0
 .00121551,0.00037191,0.00083261,0.00015038,-0.00020094,-0.00014513,-0.
 00009398,0.00133052,-0.01156204,0.00165620,0.00059431,0.00002999,0.000
 36568,0.00032870,-0.00000124,-0.03415985,0.02973995,-0.30237424,0.0353
 9826,-0.03122176,0.32739900,-0.00012214,0.00010393,0.00013747,-0.00002
 426,-0.00007181,-0.00003582,-0.00003126,-0.00013024,0.00000695,0.00001
 769,-0.00010187,0.00005557,-0.00013864,0.00148012,-0.00003975,-0.00017
 638,-0.00005603,-0.00056898,-0.00370979,-0.00235380,0.00288973,-0.0001
 1096,0.00030678,-0.00005248,-0.02456410,0.02195533,-0.00540380,0.00173
 852,0.00018308,-0.00112875,0.00076827,0.00114789,-0.00042029,-0.123035
 05,0.04665993,-0.01869565,-0.00357929,0.00475096,-0.00056578,0.4737610
 6,-0.00011435,0.00011456,0.00001573,-0.00003043,-0.00009129,-0.0000478
 7,-0.00003251,-0.00012045,0.00001665,-0.00001437,-0.00006489,0.0000477
 3,-0.00020187,0.00083347,-0.00011606,-0.00008265,-0.00002184,-0.000404
 63,-0.00223209,-0.00110244,0.00148594,0.00008411,-0.00005982,-0.000045
 94,0.00237082,0.00664609,-0.00219987,-0.00054975,-0.00023854,0.0004027
 6,-0.00059531,-0.00055782,0.00010434,0.04892157,-0.11306640,0.02115546
 ,0.00395698,-0.00140076,0.00159328,0.04384691,0.52178745,0.00000941,-0
 .00000224,-0.00013603,0.00003207,0.00003401,0.00001063,0.00005647,0.00
 001144,0.00000770,-0.00003099,0.00000418,-0.00001992,0.00052678,-0.000
 81722,0.00054958,0.00015414,-0.00000756,0.00041623,0.00209133,0.001374
 30,-0.00183001,-0.00001401,-0.00017923,0.00000051,0.01226831,-0.012036
 80,0.00425254,0.00050335,-0.00061499,0.00022987,-0.00059246,-0.0005080
 6,0.00046681,-0.01680962,0.02114740,-0.09248480,-0.02145546,0.02407516
 ,-0.00420516,0.02371095,0.02191310,0.56104611,-0.00001290,0.00002641,-
 0.00001518,0.00000415,0.00000165,0.00000640,0.00001072,-0.00000074,-0.
 00000205,-0.00001321,-0.00001122,0.00000476,0.00001933,-0.00009627,-0.
 00000296,0.00001515,-0.00000105,0.00003427,0.00024467,0.00001659,-0.00
 011983,0.00005636,-0.00002871,0.00003576,0.00011450,-0.00016190,0.0003
 7269,-0.00007120,0.00010419,0.00007718,-0.00079405,0.00058104,0.000140
 42,0.00754125,0.01729336,0.00649907,0.00063407,-0.00071059,-0.00026675
 ,-0.08829862,-0.09091852,-0.02813804,0.10214407,0.00004424,-0.00008292
 ,0.00005236,0.00000509,0.00001630,-0.00000219,-0.00002152,0.00002067,0
 .00000418,0.00002001,0.00005293,-0.00002304,-0.00002272,-0.00000772,-0
 .00002821,-0.00001328,0.00001706,-0.00001528,0.00039002,0.00028424,0.0
 0034460,-0.00021924,0.00022171,-0.00004495,-0.00155167,0.00033955,-0.0
 0020401,0.00009966,0.00007450,0.00011552,0.00095289,0.00087237,-0.0001
 2596,-0.01053331,-0.02228697,-0.00818283,-0.00007173,0.00058789,0.0006
 6789,-0.09017285,-0.24046034,-0.05561929,0.09914545,0.26271765,0.00002
 373,-0.00002572,-0.00000747,-0.00001711,0.00000974,-0.00000802,0.00000
 609,0.00000437,-0.00000493,-0.00000276,0.00000864,0.00002571,-0.000020
 92,-0.00003563,-0.00002549,-0.00001208,0.00000461,0.00002349,0.0002413
 0,0.00015973,-0.00008914,-0.00005228,0.00004386,-0.00001698,0.00011230
 ,-0.00036014,0.00004050,-0.00002023,-0.00014445,0.00009305,0.00043765,
 -0.00001633,0.00031532,0.00230373,0.00715959,0.00055519,0.00041853,-0.
 00048850,0.00003613,-0.02739266,-0.05611999,-0.06355347,0.02721772,0.0
 6122662,0.06553320,-0.00001698,0.00001623,0.00000106,0.00001466,-0.000
 01059,0.00000230,-0.00001194,-0.00000572,0.00000332,0.00001029,-0.0000
 0234,-0.00001754,0.00006647,-0.00009084,0.00011535,0.00005286,0.000002
 03,-0.00003088,-0.00008148,0.00007882,0.00036431,0.00007109,-0.0000655
 9,-0.00004612,0.00107449,-0.00035985,-0.00088545,-0.00043251,0.0003531
 8,0.00067231,-0.00012815,-0.00005561,-0.00008980,-0.00564507,0.0001858
 8,-0.02424974,-0.00223076,0.00335761,0.00019547,-0.05431527,0.00088124
 ,-0.03993029,-0.00276003,0.00070253,-0.01259531,0.06264056,0.00000525,
 -0.00001162,0.00001747,-0.00000035,0.00000368,0.00000694,-0.00000396,0
 .00001500,-0.00000282,0.00000754,0.00000375,-0.00001177,-0.00007466,0.
 00002986,-0.00008244,-0.00002567,0.00000096,0.00000780,-0.00008922,-0.
 00011689,-0.00016771,0.00000791,0.00000479,0.00003608,-0.00125650,0.00
 050640,0.00036616,0.00032740,0.00026251,-0.00054611,0.00000781,0.00006
 294,-0.00019162,0.00650767,-0.00328450,0.02683511,0.00332692,-0.003091
 59,0.00054017,-0.00025155,-0.04798223,0.00153172,-0.00483283,0.0010227
 9,-0.02857453,-0.00326794,0.04942576,-0.00001099,-0.00000360,0.0000252
 4,0.00002129,-0.00000335,0.00001025,-0.00001731,0.00000652,0.00000287,
 0.00000587,0.00000489,-0.00002060,0.00003372,-0.00007508,0.00002939,0.
 00004443,0.00000535,-0.00007390,-0.00004140,0.00009118,0.00044995,0.00
 003326,-0.00001525,-0.00003833,0.00059555,-0.00029106,0.00033198,-0.00
 041845,-0.00005627,0.00077984,-0.00006251,0.00012780,-0.00000393,-0.00
 258580,0.00133727,-0.00944892,-0.00078842,0.00077144,0.00098625,-0.040
 28096,0.00303483,-0.29353194,-0.00158075,-0.00047999,-0.00772320,0.042
 65657,-0.00428596,0.32103187,-0.00002201,0.00001380,0.00002185,-0.0000
 0929,-0.00001891,-0.00000866,-0.00001415,-0.00002252,-0.00000053,0.000
 00295,-0.00001037,0.00000558,-0.00006788,0.00017043,-0.00002615,-0.000
 00076,-0.00001004,-0.00011206,-0.00023604,-0.00042847,0.00068633,-0.00
 000205,-0.00001343,-0.00001129,-0.00060017,0.00234009,-0.00119410,-0.0
 0012687,0.00012753,0.00027313,0.00012082,-0.00010666,-0.00013398,-0.02
 446226,0.00484459,0.01071420,0.00125074,-0.00126771,0.00036223,-0.1580
 7884,-0.01282158,0.04587023,-0.01458004,-0.00135981,0.00818425,0.00381
 505,0.00052443,-0.00126722,0.48800046,0.00005641,-0.00006696,-0.000018
 81,0.00001438,0.00004761,0.00002304,0.00002545,0.00005442,-0.00000780,
 -0.00000498,0.00002658,-0.00002053,0.00011999,-0.00056154,0.00008611,0
 .00007450,0.00001088,0.00022356,0.00135101,0.00120046,-0.00082389,-0.0
 0012137,0.00000025,-0.00000249,0.00236068,-0.00449954,0.00130547,-0.00
 009071,-0.00007580,0.00001883,0.00023073,0.00040473,0.00016432,0.02279
 402,0.00292072,-0.01339726,-0.00068092,0.00075003,-0.00039122,-0.01230
 215,-0.08095662,0.00703656,-0.02633024,-0.00165593,0.01546005,0.000017
 42,-0.00025240,-0.00006104,-0.00904091,0.56957604,-0.00003783,-0.00001
 200,0.00004251,-0.00002522,-0.00002646,-0.00002382,-0.00002845,-0.0000
 3375,-0.00000070,0.00001207,0.00000645,0.00001226,-0.00001280,0.000193
 93,-0.00006142,-0.00001550,0.00001014,-0.00014777,-0.00052420,-0.00008
 873,0.00085597,0.00000867,0.00004534,-0.00003392,-0.00166211,0.0019812
 2,-0.00044978,-0.00009301,0.00010093,0.00041478,0.00019137,0.00028468,
 -0.00012995,-0.00487903,-0.00446166,0.00423410,-0.00133576,0.00014994,
 0.00089294,0.04667527,0.00765549,-0.10734314,-0.00665080,-0.00027148,0
 .00375335,0.03087857,0.00384263,-0.01515407,0.04396919,0.00339494,0.54
 135204,0.00002382,-0.00002444,0.00001683,0.00000301,0.00001039,0.00000
 341,0.00000248,0.00001116,-0.00000009,-0.00000091,0.00001144,-0.000005
 13,-0.00002873,0.00000565,-0.00001491,-0.00000375,0.00000415,0.0000025
 8,0.00008452,0.00006309,0.00002022,-0.00008860,0.00008247,-0.00000171,
 -0.00017960,0.00011745,0.00014699,-0.00000764,-0.00005421,0.00000744,0
 .00026880,0.00019786,-0.00003887,0.00019005,-0.00253819,-0.00077271,-0
 .00012248,0.00016440,0.00002650,-0.01368396,-0.02565695,-0.00746728,-0
 .00480571,-0.00005005,0.00331349,0.00114749,0.00034232,-0.00003391,-0.
 09639442,-0.09825074,-0.02777388,0.10618503,0.00000212,-0.00000721,0.0
 0000363,-0.00000077,-0.00000471,-0.00000512,-0.00000906,-0.00000303,0.
 00000308,0.00000236,0.00000905,-0.00000301,-0.00000197,0.00004376,-0.0
 0000297,-0.00001237,0.00000497,-0.00001390,-0.00000781,-0.00008394,0.0
 0005841,0.00000734,0.00002645,-0.00000999,-0.00009368,0.00008689,-0.00
 003040,-0.00001006,0.00000675,0.00001273,0.00003846,0.00003175,-0.0000
 0081,0.00049923,-0.00065006,0.00024536,-0.00005479,0.00006184,0.000035
 07,-0.00198665,-0.00153974,0.00014294,0.00035582,0.00114277,0.00051910
 ,-0.00027462,0.00016456,0.00036056,-0.10090147,-0.24634609,-0.05573001
 ,0.10997970,0.26671814,0.00000017,0.00000946,-0.00000076,0.00000607,0.
 00000042,0.00000524,0.00000553,0.00000283,0.00000075,-0.00000455,-0.00
 000582,-0.00000379,-0.00000848,0.00000155,-0.00000535,0.00000267,-0.00
 000208,0.00000186,-0.00007365,-0.00006685,-0.00002999,0.00001834,-0.00
 000927,0.00001329,-0.00003423,0.00019536,0.00004769,0.00000624,0.00000
 145,-0.00003141,-0.00005431,-0.00004886,-0.00003502,-0.00034269,-0.000
 30654,0.00041708,0.00003912,-0.00009369,-0.00000482,0.00729309,0.01585
 550,0.00410528,0.00362418,0.00032236,-0.00087904,-0.00069918,0.0004277
 4,0.00059766,-0.02866033,-0.05590411,-0.06365452,0.02777517,0.06095848
 ,0.06525926,-0.00003218,0.00000802,0.00001229,-0.00000985,-0.00002436,
 -0.00001987,-0.00002608,-0.00002822,0.00000713,0.00001358,0.00000481,0
 .00000711,-0.00001369,0.00026497,-0.00000449,-0.00004247,-0.00000206,-
 0.00009971,-0.00044071,-0.00042927,0.00040307,0.00001788,0.00003666,-0
 .00002682,-0.00065020,0.00167580,-0.00048895,-0.00003005,0.00002234,0.
 00008457,0.00004272,-0.00002088,-0.00007554,-0.00421854,-0.00292608,0.
 00392546,0.00029095,-0.00029755,0.00005578,-0.01856820,0.02193309,-0.0
 0788408,0.00074650,-0.00026858,-0.00084230,0.00119772,0.00007809,0.000
 21368,-0.14473021,0.11993783,-0.04026198,0.00984135,-0.01031442,0.0045
 5590,0.15922678,0.00000826,0.00000664,0.00000786,0.00000216,0.00000743
 ,0.00000756,0.00001187,0.00000557,-0.00000379,-0.00000643,-0.00000882,
 0.00000148,-0.00003258,-0.00002009,-0.00003472,0.00001099,-0.00000264,
 0.00000157,0.00000002,0.00000889,0.00001696,-0.00001483,0.00001124,0.0
 0001379,-0.00027626,0.00017239,0.00011065,0.00002389,-0.00001703,-0.00
 001831,0.00002423,0.00000706,-0.00002241,-0.00140076,0.00008424,0.0003
 3531,-0.00006668,0.00002828,-0.00001018,-0.00447372,0.00378274,-0.0014
 7198,0.00036948,0.00069800,-0.00035878,0.00042134,0.00013000,-0.000446
 10,0.12121984,-0.19370601,0.04867123,0.01775484,-0.02004950,0.00780715
 ,-0.13212701,0.20781316,0.00000660,-0.00000341,-0.00000893,0.00000554,
 0.00000903,0.00000387,0.00000572,0.00000865,0.00000049,-0.00000093,0.0
 0000231,-0.00000273,0.00002968,-0.00009434,0.00001516,0.00001330,-0.00
 000069,0.00004760,0.00026685,0.00017538,-0.00019246,-0.00001167,-0.000
 00830,-0.00000187,0.00056102,-0.00075384,0.00047336,-0.00006558,-0.000
 02430,0.00000718,-0.00002460,0.00001849,0.00002168,0.00241921,0.000826
 91,-0.00183061,0.00023616,-0.00014264,0.00021527,0.01082426,-0.0136701
 4,0.00354376,-0.00075212,0.00012758,0.00046854,-0.00062983,-0.00046516
 ,0.00052276,-0.04115046,0.04933802,-0.06358484,0.00594277,-0.00625212,
 0.00133234,0.04189642,-0.05454119,0.06564302,0.00000345,-0.00000233,-0
 .00000699,-0.00000869,0.00000394,-0.00000077,0.00000661,-0.00000048,-0
 .00000305,-0.00000250,-0.00000270,0.00000859,-0.00001824,0.00001754,-0
 .00001833,-0.00001356,-0.00000203,0.00001950,0.00002403,-0.00000596,-0
 .00015631,-0.00001141,0.00001022,0.00000869,-0.00008255,-0.00016868,-0
 .00005140,0.00006343,-0.00001746,-0.00024181,0.00000796,-0.00002761,0.
 00005135,0.00183355,-0.00051839,0.00120564,-0.00018621,0.00037835,-0.0
 0067912,0.00399446,0.00094373,0.03120936,0.00131863,-0.00005807,-0.000
 68717,-0.00525108,-0.00048405,0.00305847,-0.05304245,-0.00096951,-0.03
 843714,-0.00260757,0.00101581,-0.01370747,-0.00318348,-0.00193861,-0.0
 1964563,0.05719588,-0.00000908,0.00000725,-0.00000995,-0.00000420,-0.0
 0000379,-0.00000716,-0.00000361,-0.00000842,0.00000143,0.00000385,-0.0
 0000169,0.00000702,0.00002001,0.00002490,0.00002150,-0.00000394,-0.000
 00280,-0.00000342,-0.00000290,-0.00003369,0.00000725,0.00000889,-0.000
 00900,-0.00000916,0.00012292,-0.00005145,0.00000733,0.00000128,-0.0000
 3114,0.00002407,-0.00005131,-0.00003102,0.00002664,-0.00033351,0.00058
 676,-0.00113800,0.00012581,0.00005942,0.00003240,0.00066423,-0.0010027
 4,0.00425551,0.00042050,0.00004227,0.00039908,-0.00086208,0.00084185,0
 .00035440,-0.00091934,-0.04774885,-0.00565879,-0.00378468,0.00051493,-
 0.02874911,0.00273307,0.00092803,0.02479831,0.00166046,0.04606935,0.00
 000443,0.00000603,-0.00000180,0.00001495,0.00000274,0.00001087,-0.0000
 0014,0.00000933,0.00000171,-0.00000054,-0.00000214,-0.00001231,0.00000
 662,-0.00006237,0.00001907,0.00002221,-0.00000068,0.00000314,0.0000462
 0,0.00005611,0.00001092,0.00001077,-0.00001779,-0.00000274,0.00019759,
 -0.00009222,0.00034040,-0.00020559,0.00004514,0.00015189,-0.00004389,-
 0.00000237,-0.00004031,-0.00109757,0.00062516,0.00020098,0.00076603,-0
 .00077205,0.00033827,-0.00172090,-0.00026284,-0.01565220,0.00016993,0.
 00041206,0.00061976,0.00308274,0.00065240,0.00014906,-0.03692506,-0.00
 596760,-0.30084642,-0.00137235,-0.00002983,-0.00713224,-0.00136690,-0.
 00015165,-0.00689269,0.03821137,0.00551775,0.32853101,-0.00018950,-0.0
 0011059,-0.00015721,-0.00012726,-0.00002919,-0.00007845,-0.00012795,-0
 .00001672,-0.00000565,0.00003579,0.00023223,0.00002427,0.00011254,-0.0
 0107831,0.00007895,-0.00009990,0.00007679,0.00010241,-0.00024736,0.000
 58520,-0.00043593,-0.00058590,-0.00113873,-0.00012519,-0.01717248,-0.0
 2985575,-0.00663938,0.00145107,0.00069431,-0.00095746,-0.00378708,0.00
 010028,0.00231957,-0.04738806,-0.01032245,-0.01740892,-0.00470081,-0.0
 1446461,-0.00380696,0.01009002,0.00924811,0.00502733,-0.00178453,0.002
 87419,-0.00091812,0.00055473,-0.00044112,0.00036643,-0.00049792,0.0001
 6669,0.00025417,-0.00018393,0.00128400,0.00008685,0.00039930,0.0000618
 9,0.00027987,-0.00004102,0.00030119,0.00031394,0.12885864,0.00011643,-
 0.00017533,0.00014761,-0.00000850,0.00011337,-0.00000122,-0.00004214,0
 .00005056,0.00000135,-0.00003254,0.00019387,-0.00002186,-0.00021712,0.
 00004942,-0.00019855,-0.00005475,0.00003963,0.00003157,0.00273881,-0.0
 0066548,0.00009318,0.00001025,0.00090737,-0.00007545,-0.01689871,-0.01
 471496,0.00146583,0.00098743,0.00072380,-0.00096109,-0.00073913,0.0009
 6115,0.00008530,-0.00850635,-0.07725316,-0.05854725,-0.00811953,-0.017
 27599,-0.00737455,-0.00657118,-0.04374871,-0.00953493,0.00422201,-0.00
 325790,0.00114059,-0.00091535,0.00263298,-0.00059032,-0.00347007,0.001
 49940,0.00000324,0.00070423,0.00050176,0.00042573,-0.00022982,0.000419
 26,0.00030731,-0.00006769,-0.00056540,-0.00041622,0.13346185,0.2887981
 9,0.00011225,0.00009503,0.00008751,0.00012033,0.00004444,0.00007299,0.
 00005504,0.00002485,0.00002344,0.00000831,-0.00010447,-0.00006739,0.00
 009843,0.00024335,0.00011690,0.00006533,-0.00003851,-0.00003541,-0.000
 43893,-0.00049493,0.00026017,-0.00019557,0.00031717,0.00008313,0.00663
 621,0.01563399,0.00622536,-0.00037419,0.00108579,0.00118934,0.00387183
 ,0.00135908,-0.00100677,-0.00551665,-0.02905384,-0.11903664,-0.0141528
 5,-0.03644930,-0.01631581,0.00345905,0.00047410,0.00349274,-0.00042411
 ,0.00173761,0.00110320,0.00101013,0.00033736,0.00115571,0.00002615,-0.
 00037105,0.00003686,0.00074378,-0.00029108,-0.00044377,-0.00008266,0.0
 0019171,0.00021690,-0.00006971,0.00030123,0.00024727,-0.09547172,-0.06
 836576,0.37641498,0.00006770,-0.00005222,0.00003507,-0.00000032,0.0000
 3515,-0.00001035,-0.00003856,0.00002028,-0.00000147,0.00000409,0.00007
 803,0.00000576,-0.00007270,0.00032304,0.00004885,-0.00002198,-0.000002
 88,-0.00002928,0.00069221,-0.00066576,-0.00000327,-0.00053250,0.000454
 06,-0.00005420,-0.00083696,-0.00568635,-0.00124454,0.00011952,0.000033
 35,-0.00005076,-0.00146022,-0.00012317,0.00070848,-0.01620071,-0.02159
 064,0.01683639,0.00150086,0.00393134,0.00203540,-0.00193326,0.00106380
 ,0.00086252,0.00027087,0.00010874,0.00030217,0.00022787,-0.00040748,0.
 00005845,-0.00032467,0.00064242,-0.00025160,0.00036074,0.00048283,0.00
 017156,0.00016888,0.00042805,-0.00020659,0.00000076,-0.00008755,-0.000
 11385,-0.06456836,-0.09636812,0.10051956,0.08257675,0.00011070,-0.0001
 1467,0.00007848,0.00000421,0.00003679,-0.00000807,-0.00003180,0.000046
 27,-0.00000561,-0.00000371,0.00012543,-0.00000107,-0.00011336,0.000548
 67,-0.00004566,-0.00007974,0.00000829,-0.00007319,0.00045146,-0.000828
 35,-0.00002700,-0.00058794,0.00067899,0.00001004,0.00069863,-0.0073140
 2,-0.00164010,-0.00026650,-0.00017552,0.00022693,-0.00176405,0.0002179
 0,0.00111270,-0.02664324,-0.03543651,0.03814428,0.00238123,0.00515806,
 0.00417139,-0.00262733,-0.00074968,-0.00073403,0.00055557,-0.00035892,
 -0.00001190,-0.00010575,-0.00036862,0.00021378,0.00115059,-0.00062137,
 -0.00005728,0.00091012,-0.00062934,-0.00082169,-0.00002643,-0.00029884
 ,0.00034411,0.00023353,0.00041522,0.00045104,-0.09162924,-0.13923383,0
 .11332323,0.11738306,0.17889405,-0.00006112,0.00003355,-0.00011230,-0.
 00001862,-0.00004626,-0.00001331,-0.00001080,-0.00002645,0.00001201,0.
 00000403,-0.00003024,0.00000492,0.00002657,-0.00032872,0.00004642,0.00
 000199,0.00001149,0.00003745,-0.00019011,0.00054544,0.00016014,0.00032
 189,-0.00047739,-0.00018430,-0.00229578,0.00022638,0.00152479,-0.00062
 243,-0.00052716,0.00035190,0.00022710,-0.00031829,-0.00019910,0.006460
 00,0.01740437,0.01328892,-0.00137346,-0.00268750,0.00350748,0.00125346
 ,-0.00088756,0.00063491,-0.00022981,-0.00001355,-0.00025971,0.00019201
 ,-0.00027345,-0.00007793,-0.00062330,-0.00008512,-0.00016445,-0.000518
 34,0.00002985,0.00044025,-0.00000812,-0.00010615,0.00000217,-0.0000680
 7,-0.00017835,-0.00004364,0.11715119,0.14238549,-0.25382071,-0.1196183
 0,-0.15465038,0.23486409\\0.00000148,0.00000198,0.00000031,0.00000048,
 -0.00000060,-0.00000093,0.00000018,-0.00000267,-0.00000086,-0.00000053
 ,-0.00000230,-0.00000120,0.00000033,-0.00000811,0.00000337,-0.00000229
 ,-0.00000205,0.00000247,0.00000597,0.00000277,0.00000184,-0.00000222,-
 0.00000064,0.00000179,-0.00001709,-0.00000742,0.00000393,0.00000646,-0
 .00000009,-0.00000218,0.00000106,0.00000059,-0.00000026,0.00000535,0.0
 0002078,-0.00000404,0.00000486,0.00000301,0.00000169,0.00001183,-0.000
 01248,0.00000356,-0.00000175,0.00000457,-0.00000448,-0.00000017,0.0000
 0127,-0.00000307,-0.00000321,0.00000535,-0.00000097,-0.00000049,0.0000
 0285,0.00000047,0.00000127,0.00000297,-0.00000206,0.00000007,0.0000029
 0,-0.00000082,-0.00001064,-0.00001780,0.00000400,-0.00000096,0.0000051
 4,-0.00000254\\\@
 Job cpu time:  0 days  4 hours 40 minutes  0.8 seconds.
 File lengths (MBytes):  RWF=  26054 Int=      0 D2E=      0 Chk=     16 Scr=      1
 Normal termination of Gaussian 09 at Fri Feb  6 14:36:45 2015.
