 Entering Gaussian System, Link 0=g09
 Initial command:
 /usr/caen/gaussian-09revc/g09/l1.exe /scratch/avioli_flux/hetanjin/scratch/Gau-100720.inp -scrdir=/scratch/avioli_flux/hetanjin/scratch/
 Entering Link 1 = /usr/caen/gaussian-09revc/g09/l1.exe PID=    100721.
  
 Copyright (c) 1988,1990,1992,1993,1995,1998,2003,2009,2011,
            Gaussian, Inc.  All Rights Reserved.
  
 This is part of the Gaussian(R) 09 program.  It is based on
 the Gaussian(R) 03 system (copyright 2003, Gaussian, Inc.),
 the Gaussian(R) 98 system (copyright 1998, Gaussian, Inc.),
 the Gaussian(R) 94 system (copyright 1995, Gaussian, Inc.),
 the Gaussian 92(TM) system (copyright 1992, Gaussian, Inc.),
 the Gaussian 90(TM) system (copyright 1990, Gaussian, Inc.),
 the Gaussian 88(TM) system (copyright 1988, Gaussian, Inc.),
 the Gaussian 86(TM) system (copyright 1986, Carnegie Mellon
 University), and the Gaussian 82(TM) system (copyright 1983,
 Carnegie Mellon University). Gaussian is a federally registered
 trademark of Gaussian, Inc.
  
 This software contains proprietary and confidential information,
 including trade secrets, belonging to Gaussian, Inc.
  
 This software is provided under written license and may be
 used, copied, transmitted, or stored only in accord with that
 written license.
  
 The following legend is applicable only to US Government
 contracts under FAR:
  
                    RESTRICTED RIGHTS LEGEND
  
 Use, reproduction and disclosure by the US Government is
 subject to restrictions as set forth in subparagraphs (a)
 and (c) of the Commercial Computer Software - Restricted
 Rights clause in FAR 52.227-19.
  
 Gaussian, Inc.
 340 Quinnipiac St., Bldg. 40, Wallingford CT 06492
  
  
 ---------------------------------------------------------------
 Warning -- This program may not be used in any manner that
 competes with the business of Gaussian, Inc. or will provide
 assistance to any competitor of Gaussian, Inc.  The licensee
 of this program is prohibited from giving any competitor of
 Gaussian, Inc. access to this program.  By using this program,
 the user acknowledges that Gaussian, Inc. is engaged in the
 business of creating and licensing software in the field of
 computational chemistry and represents and warrants to the
 licensee that it is not a competitor of Gaussian, Inc. and that
 it will not use this program in any manner prohibited above.
 ---------------------------------------------------------------
  

 Cite this work as:
 Gaussian 09, Revision C.01,
 M. J. Frisch, G. W. Trucks, H. B. Schlegel, G. E. Scuseria, 
 M. A. Robb, J. R. Cheeseman, G. Scalmani, V. Barone, B. Mennucci, 
 G. A. Petersson, H. Nakatsuji, M. Caricato, X. Li, H. P. Hratchian, 
 A. F. Izmaylov, J. Bloino, G. Zheng, J. L. Sonnenberg, M. Hada, 
 M. Ehara, K. Toyota, R. Fukuda, J. Hasegawa, M. Ishida, T. Nakajima, 
 Y. Honda, O. Kitao, H. Nakai, T. Vreven, J. A. Montgomery, Jr., 
 J. E. Peralta, F. Ogliaro, M. Bearpark, J. J. Heyd, E. Brothers, 
 K. N. Kudin, V. N. Staroverov, T. Keith, R. Kobayashi, J. Normand, 
 K. Raghavachari, A. Rendell, J. C. Burant, S. S. Iyengar, J. Tomasi, 
 M. Cossi, N. Rega, J. M. Millam, M. Klene, J. E. Knox, J. B. Cross, 
 V. Bakken, C. Adamo, J. Jaramillo, R. Gomperts, R. E. Stratmann, 
 O. Yazyev, A. J. Austin, R. Cammi, C. Pomelli, J. W. Ochterski, 
 R. L. Martin, K. Morokuma, V. G. Zakrzewski, G. A. Voth, 
 P. Salvador, J. J. Dannenberg, S. Dapprich, A. D. Daniels, 
 O. Farkas, J. B. Foresman, J. V. Ortiz, J. Cioslowski, 
 and D. J. Fox, Gaussian, Inc., Wallingford CT, 2010.
 
 ******************************************
 Gaussian 09:  EM64L-G09RevC.01 23-Sep-2011
                 2-Apr-2014 
 ******************************************
 %mem=30GB
 %nprocshared=8
 Will use up to    8 processors via shared memory.
 %chk=C6H12_1_4.chk
 --------------------------
 #p cbs-qb3 opt=calcfc freq
 --------------------------
 1/10=4,14=-1,18=20,19=15,26=3,38=1/1,3;
 2/9=110,12=2,17=6,18=5,40=1/2;
 3/5=4,6=6,7=700,11=2,16=1,25=1,30=1,71=2,74=-5/1,2,3;
 4//1;
 5/5=2,38=5/2;
 8/6=4,10=90,11=11/1;
 11/6=1,8=1,9=11,15=111,16=1/1,2,10;
 10/6=1,7=6,13=1/2;
 6/7=2,8=2,9=2,10=2,28=1/1;
 7/10=1,18=20,25=1/1,2,3,16;
 1/10=4,14=-1,18=20,19=15/3(2);
 2/9=110/2;
 99//99;
 2/9=110/2;
 3/5=4,6=6,7=700,11=2,16=1,25=1,30=1,71=1,74=-5/1,2,3;
 4/5=5,16=3/1;
 5/5=2,38=5/2;
 7//1,2,3,16;
 1/14=-1,18=20,19=15/3(-5);
 2/9=110/2;
 6/7=2,8=2,9=2,10=2,19=2,28=1/1;
 99/9=1/99;
 Leave Link    1 at Wed Apr  2 18:21:29 2014, MaxMem= 4026531840 cpu:       1.2
 (Enter /usr/caen/gaussian-09revc/g09/l101.exe)
 --------------------------------------
 C6H12_1_4 using cbs-qb3 to cal. energy
 --------------------------------------
 Charge =  0 Multiplicity = 1
 Symbolic Z-Matrix:
 C                     1.60039  -0.32646  -0.4152 
 H                     1.66621  -0.39702  -1.501 
 C                     0.29563  -0.76532   0.18664 
 H                     0.34111  -0.67471   1.27877 
 H                     0.15137  -1.83164  -0.03353 
 C                    -0.93812   0.00337  -0.34169 
 H                    -0.92195  -0.06254  -1.43822 
 C                    -2.23371  -0.65568   0.14937 
 H                    -2.29336  -0.63225   1.24315 
 H                    -3.11358  -0.13581  -0.24071 
 H                    -2.29513  -1.70183  -0.16527 
 C                    -0.89418   1.48717   0.04459 
 H                    -1.74883   2.02653  -0.37423 
 H                    -0.92783   1.60502   1.13361 
 H                     0.01868   1.96976  -0.31253 
 C                     2.6552    0.12432   0.26091 
 H                     2.64077   0.21448   1.34326 
 H                     3.57123   0.41567  -0.24106 
 
 NAtoms=     18 NQM=        0 NQMF=       0 NMMI=     18 NMMIF=      0
                NMic=       0 NMicF=      0.
                    Isotopes and Nuclear Properties:
 (Nuclear quadrupole moments (NQMom) in fm**2, nuclear magnetic moments (NMagM)
  in nuclear magnetons)

  Atom         1           2           3           4           5           6           7           8           9          10
 IAtWgt=          12           1          12           1           1          12           1          12           1           1
 AtmWgt=  12.0000000   1.0078250  12.0000000   1.0078250   1.0078250  12.0000000   1.0078250  12.0000000   1.0078250   1.0078250
 NucSpn=           0           1           0           1           1           0           1           0           1           1
 AtZEff=   0.0000000   0.0000000   0.0000000   0.0000000   0.0000000   0.0000000   0.0000000   0.0000000   0.0000000   0.0000000
 NQMom=    0.0000000   0.0000000   0.0000000   0.0000000   0.0000000   0.0000000   0.0000000   0.0000000   0.0000000   0.0000000
 NMagM=    0.0000000   2.7928460   0.0000000   2.7928460   2.7928460   0.0000000   2.7928460   0.0000000   2.7928460   2.7928460

  Atom        11          12          13          14          15          16          17          18
 IAtWgt=           1          12           1           1           1          12           1           1
 AtmWgt=   1.0078250  12.0000000   1.0078250   1.0078250   1.0078250  12.0000000   1.0078250   1.0078250
 NucSpn=           1           0           1           1           1           0           1           1
 AtZEff=   0.0000000   0.0000000   0.0000000   0.0000000   0.0000000   0.0000000   0.0000000   0.0000000
 NQMom=    0.0000000   0.0000000   0.0000000   0.0000000   0.0000000   0.0000000   0.0000000   0.0000000
 NMagM=    2.7928460   0.0000000   2.7928460   2.7928460   2.7928460   0.0000000   2.7928460   2.7928460
 Leave Link  101 at Wed Apr  2 18:21:29 2014, MaxMem= 4026531840 cpu:       2.6
 (Enter /usr/caen/gaussian-09revc/g09/l103.exe)

 GradGradGradGradGradGradGradGradGradGradGradGradGradGradGradGradGradGrad
 Berny optimization.
 Initialization pass.
                           ----------------------------
                           !    Initial Parameters    !
                           ! (Angstroms and Degrees)  !
 --------------------------                            --------------------------
 ! Name  Definition              Value          Derivative Info.                !
 --------------------------------------------------------------------------------
 ! R1    R(1,2)                  1.0901         calculate D2E/DX2 analytically  !
 ! R2    R(1,3)                  1.5024         calculate D2E/DX2 analytically  !
 ! R3    R(1,16)                 1.3315         calculate D2E/DX2 analytically  !
 ! R4    R(3,4)                  1.0968         calculate D2E/DX2 analytically  !
 ! R5    R(3,5)                  1.0983         calculate D2E/DX2 analytically  !
 ! R6    R(3,6)                  1.5467         calculate D2E/DX2 analytically  !
 ! R7    R(6,7)                  1.0986         calculate D2E/DX2 analytically  !
 ! R8    R(6,8)                  1.5343         calculate D2E/DX2 analytically  !
 ! R9    R(6,12)                 1.5339         calculate D2E/DX2 analytically  !
 ! R10   R(8,9)                  1.0957         calculate D2E/DX2 analytically  !
 ! R11   R(8,10)                 1.0939         calculate D2E/DX2 analytically  !
 ! R12   R(8,11)                 1.0942         calculate D2E/DX2 analytically  !
 ! R13   R(12,13)                1.094          calculate D2E/DX2 analytically  !
 ! R14   R(12,14)                1.0959         calculate D2E/DX2 analytically  !
 ! R15   R(12,15)                1.0926         calculate D2E/DX2 analytically  !
 ! R16   R(16,17)                1.0862         calculate D2E/DX2 analytically  !
 ! R17   R(16,18)                1.0844         calculate D2E/DX2 analytically  !
 ! A1    A(2,1,3)              115.6291         calculate D2E/DX2 analytically  !
 ! A2    A(2,1,16)             118.6759         calculate D2E/DX2 analytically  !
 ! A3    A(3,1,16)             125.6944         calculate D2E/DX2 analytically  !
 ! A4    A(1,3,4)              109.7996         calculate D2E/DX2 analytically  !
 ! A5    A(1,3,5)              108.5035         calculate D2E/DX2 analytically  !
 ! A6    A(1,3,6)              114.2515         calculate D2E/DX2 analytically  !
 ! A7    A(4,3,5)              106.5738         calculate D2E/DX2 analytically  !
 ! A8    A(4,3,6)              109.3989         calculate D2E/DX2 analytically  !
 ! A9    A(5,3,6)              108.0148         calculate D2E/DX2 analytically  !
 ! A10   A(3,6,7)              107.4208         calculate D2E/DX2 analytically  !
 ! A11   A(3,6,8)              110.5347         calculate D2E/DX2 analytically  !
 ! A12   A(3,6,12)             111.8324         calculate D2E/DX2 analytically  !
 ! A13   A(7,6,8)              107.825          calculate D2E/DX2 analytically  !
 ! A14   A(7,6,12)             107.9962         calculate D2E/DX2 analytically  !
 ! A15   A(8,6,12)             111.0457         calculate D2E/DX2 analytically  !
 ! A16   A(6,8,9)              110.8727         calculate D2E/DX2 analytically  !
 ! A17   A(6,8,10)             111.1578         calculate D2E/DX2 analytically  !
 ! A18   A(6,8,11)             111.4725         calculate D2E/DX2 analytically  !
 ! A19   A(9,8,10)             107.5798         calculate D2E/DX2 analytically  !
 ! A20   A(9,8,11)             107.7265         calculate D2E/DX2 analytically  !
 ! A21   A(10,8,11)            107.8602         calculate D2E/DX2 analytically  !
 ! A22   A(6,12,13)            110.9862         calculate D2E/DX2 analytically  !
 ! A23   A(6,12,14)            110.6955         calculate D2E/DX2 analytically  !
 ! A24   A(6,12,15)            111.648          calculate D2E/DX2 analytically  !
 ! A25   A(13,12,14)           107.6639         calculate D2E/DX2 analytically  !
 ! A26   A(13,12,15)           108.0482         calculate D2E/DX2 analytically  !
 ! A27   A(14,12,15)           107.6356         calculate D2E/DX2 analytically  !
 ! A28   A(1,16,17)            121.5707         calculate D2E/DX2 analytically  !
 ! A29   A(1,16,18)            121.6742         calculate D2E/DX2 analytically  !
 ! A30   A(17,16,18)           116.7548         calculate D2E/DX2 analytically  !
 ! D1    D(2,1,3,4)            178.8381         calculate D2E/DX2 analytically  !
 ! D2    D(2,1,3,5)             62.7226         calculate D2E/DX2 analytically  !
 ! D3    D(2,1,3,6)            -57.8383         calculate D2E/DX2 analytically  !
 ! D4    D(16,1,3,4)            -0.8598         calculate D2E/DX2 analytically  !
 ! D5    D(16,1,3,5)          -116.9754         calculate D2E/DX2 analytically  !
 ! D6    D(16,1,3,6)           122.4637         calculate D2E/DX2 analytically  !
 ! D7    D(2,1,16,17)          179.9519         calculate D2E/DX2 analytically  !
 ! D8    D(2,1,16,18)           -0.2804         calculate D2E/DX2 analytically  !
 ! D9    D(3,1,16,17)           -0.3586         calculate D2E/DX2 analytically  !
 ! D10   D(3,1,16,18)          179.4091         calculate D2E/DX2 analytically  !
 ! D11   D(1,3,6,7)             53.4512         calculate D2E/DX2 analytically  !
 ! D12   D(1,3,6,8)            170.8466         calculate D2E/DX2 analytically  !
 ! D13   D(1,3,6,12)           -64.8778         calculate D2E/DX2 analytically  !
 ! D14   D(4,3,6,7)            176.9909         calculate D2E/DX2 analytically  !
 ! D15   D(4,3,6,8)            -65.6137         calculate D2E/DX2 analytically  !
 ! D16   D(4,3,6,12)            58.6619         calculate D2E/DX2 analytically  !
 ! D17   D(5,3,6,7)            -67.3813         calculate D2E/DX2 analytically  !
 ! D18   D(5,3,6,8)             50.0142         calculate D2E/DX2 analytically  !
 ! D19   D(5,3,6,12)           174.2898         calculate D2E/DX2 analytically  !
 ! D20   D(3,6,8,9)             61.9154         calculate D2E/DX2 analytically  !
 ! D21   D(3,6,8,10)          -178.468          calculate D2E/DX2 analytically  !
 ! D22   D(3,6,8,11)           -58.0948         calculate D2E/DX2 analytically  !
 ! D23   D(7,6,8,9)            179.0618         calculate D2E/DX2 analytically  !
 ! D24   D(7,6,8,10)           -61.3217         calculate D2E/DX2 analytically  !
 ! D25   D(7,6,8,11)            59.0516         calculate D2E/DX2 analytically  !
 ! D26   D(12,6,8,9)           -62.8096         calculate D2E/DX2 analytically  !
 ! D27   D(12,6,8,10)           56.8069         calculate D2E/DX2 analytically  !
 ! D28   D(12,6,8,11)          177.1802         calculate D2E/DX2 analytically  !
 ! D29   D(3,6,12,13)          177.4106         calculate D2E/DX2 analytically  !
 ! D30   D(3,6,12,14)          -63.0962         calculate D2E/DX2 analytically  !
 ! D31   D(3,6,12,15)           56.7963         calculate D2E/DX2 analytically  !
 ! D32   D(7,6,12,13)           59.4249         calculate D2E/DX2 analytically  !
 ! D33   D(7,6,12,14)          178.918          calculate D2E/DX2 analytically  !
 ! D34   D(7,6,12,15)          -61.1894         calculate D2E/DX2 analytically  !
 ! D35   D(8,6,12,13)          -58.6            calculate D2E/DX2 analytically  !
 ! D36   D(8,6,12,14)           60.8932         calculate D2E/DX2 analytically  !
 ! D37   D(8,6,12,15)         -179.2143         calculate D2E/DX2 analytically  !
 --------------------------------------------------------------------------------
 Trust Radius=3.00D-01 FncErr=1.00D-07 GrdErr=1.00D-06
 Number of steps in this run=     94 maximum allowed number of steps=    108.
 GradGradGradGradGradGradGradGradGradGradGradGradGradGradGradGradGradGrad

 Leave Link  103 at Wed Apr  2 18:21:30 2014, MaxMem= 4026531840 cpu:       0.1
 (Enter /usr/caen/gaussian-09revc/g09/l202.exe)
                          Input orientation:                          
 ---------------------------------------------------------------------
 Center     Atomic      Atomic             Coordinates (Angstroms)
 Number     Number       Type             X           Y           Z
 ---------------------------------------------------------------------
      1          6           0        1.600393   -0.326462   -0.415195
      2          1           0        1.666214   -0.397015   -1.501003
      3          6           0        0.295633   -0.765320    0.186640
      4          1           0        0.341106   -0.674708    1.278766
      5          1           0        0.151369   -1.831641   -0.033527
      6          6           0       -0.938121    0.003365   -0.341688
      7          1           0       -0.921950   -0.062537   -1.438224
      8          6           0       -2.233710   -0.655682    0.149374
      9          1           0       -2.293358   -0.632245    1.243149
     10          1           0       -3.113584   -0.135810   -0.240709
     11          1           0       -2.295126   -1.701829   -0.165274
     12          6           0       -0.894176    1.487167    0.044590
     13          1           0       -1.748832    2.026533   -0.374232
     14          1           0       -0.927827    1.605023    1.133607
     15          1           0        0.018676    1.969763   -0.312530
     16          6           0        2.655200    0.124317    0.260908
     17          1           0        2.640770    0.214480    1.343258
     18          1           0        3.571227    0.415672   -0.241060
 ---------------------------------------------------------------------
                    Distance matrix (angstroms):
                    1          2          3          4          5
     1  C    0.000000
     2  H    1.090087   0.000000
     3  C    1.502398   2.205058   0.000000
     4  H    2.139295   3.091948   1.096822   0.000000
     5  H    2.123889   2.550763   1.098329   1.759718   0.000000
     6  C    2.560907   2.878693   1.546660   2.173034   2.156200
     7  H    2.734677   2.610442   2.148626   3.058120   2.500983
     8  C    3.889405   4.242648   2.531992   2.811684   2.665508
     9  H    4.243219   4.823268   2.799428   2.635047   3.007514
    10  H    4.721056   4.950054   3.493089   3.812361   3.684927
    11  H    4.138739   4.379375   2.777215   3.176468   2.453476
    12  C    3.118257   3.534770   2.551376   2.778995   3.480482
    13  H    4.093357   4.336558   3.505547   3.794331   4.314203
    14  H    3.538547   4.204566   2.830570   2.613128   3.786492
    15  H    2.790165   3.119052   2.794021   3.103129   3.813938
    16  C    1.331516   2.086675   2.522801   2.651322   3.190867
    17  H    2.113566   3.068144   2.792390   2.466428   3.504178
    18  H    2.113119   2.424251   3.508160   3.732624   4.097428
                    6          7          8          9         10
     6  C    0.000000
     7  H    1.098634   0.000000
     8  C    1.534287   2.143129   0.000000
     9  H    2.179994   3.065141   1.095651   0.000000
    10  H    2.182248   2.498534   1.093897   1.766650   0.000000
    11  H    2.186383   2.488633   1.094166   1.768522   1.768609
    12  C    1.533887   2.145015   2.529255   2.808231   2.764276
    13  H    2.179798   2.485966   2.775526   3.159356   2.560489
    14  H    2.177593   3.065144   2.790131   2.623365   3.113965
    15  H    2.187014   2.506433   3.489923   3.812622   3.774871
    16  C    3.645505   3.964589   4.951998   5.101511   5.796392
    17  H    3.961322   4.528394   5.093437   5.007253   5.978649
    18  H    4.529276   4.674455   5.915871   6.139574   6.707520
                   11         12         13         14         15
    11  H    0.000000
    12  C    3.489470   0.000000
    13  H    3.773961   1.093967   0.000000
    14  H    3.806819   1.095893   1.767851   0.000000
    15  H    4.342344   1.092581   1.769496   1.766413   0.000000
    16  C    5.293597   3.808179   4.839145   3.973937   3.268908
    17  H    5.505541   3.975187   5.049942   3.835681   3.563429
    18  H    6.237279   4.601035   5.560183   4.852397   3.878263
                   16         17         18
    16  C    0.000000
    17  H    1.086195   0.000000
    18  H    1.084419   1.848321   0.000000
 Stoichiometry    C6H12
 Framework group  C1[X(C6H12)]
 Deg. of freedom    48
 Full point group                 C1      NOp   1
 Largest Abelian subgroup         C1      NOp   1
 Largest concise Abelian subgroup C1      NOp   1
                         Standard orientation:                         
 ---------------------------------------------------------------------
 Center     Atomic      Atomic             Coordinates (Angstroms)
 Number     Number       Type             X           Y           Z
 ---------------------------------------------------------------------
      1          6           0        1.600393   -0.326462   -0.415195
      2          1           0        1.666214   -0.397015   -1.501003
      3          6           0        0.295633   -0.765320    0.186640
      4          1           0        0.341106   -0.674708    1.278766
      5          1           0        0.151369   -1.831641   -0.033527
      6          6           0       -0.938121    0.003365   -0.341688
      7          1           0       -0.921950   -0.062537   -1.438224
      8          6           0       -2.233710   -0.655682    0.149374
      9          1           0       -2.293358   -0.632245    1.243149
     10          1           0       -3.113584   -0.135810   -0.240709
     11          1           0       -2.295126   -1.701829   -0.165274
     12          6           0       -0.894176    1.487167    0.044590
     13          1           0       -1.748832    2.026533   -0.374232
     14          1           0       -0.927827    1.605023    1.133607
     15          1           0        0.018676    1.969763   -0.312530
     16          6           0        2.655200    0.124317    0.260908
     17          1           0        2.640770    0.214480    1.343258
     18          1           0        3.571227    0.415672   -0.241060
 ---------------------------------------------------------------------
 Rotational constants (GHZ):      6.7901141      1.9408784      1.6694851
 Leave Link  202 at Wed Apr  2 18:21:30 2014, MaxMem= 4026531840 cpu:       0.4
 (Enter /usr/caen/gaussian-09revc/g09/l301.exe)
 Standard basis: 6-311G(2d,d,p) (5D, 7F)
 Ernie: Thresh=  0.10000D-02 Tol=  0.10000D-05 Strict=F.
 There are   180 symmetry adapted basis functions of A   symmetry.
 Integral buffers will be    131072 words long.
 Raffenetti 2 integral format.
 Two-electron integral symmetry is turned on.
   180 basis functions,   288 primitive gaussians,   186 cartesian basis functions
    24 alpha electrons       24 beta electrons
       nuclear repulsion energy       237.2383657371 Hartrees.
 IExCor=  402 DFT=T Ex+Corr=B3LYP ExCW=0 ScaHFX=  0.200000
 ScaDFX=  0.800000  0.720000  1.000000  0.810000 ScalE2=  1.000000  1.000000
 IRadAn=      0 IRanWt=     -1 IRanGd=            0 ICorTp=0
 NAtoms=   18 NActive=   18 NUniq=   18 SFac= 1.00D+00 NAtFMM=   60 NAOKFM=F Big=F
 Leave Link  301 at Wed Apr  2 18:21:30 2014, MaxMem= 4026531840 cpu:       0.7
 (Enter /usr/caen/gaussian-09revc/g09/l302.exe)
 NPDir=0 NMtPBC=     1 NCelOv=     1 NCel=       1 NClECP=     1 NCelD=      1
         NCelK=      1 NCelE2=     1 NClLst=     1 CellRange=     0.0.
 One-electron integrals computed using PRISM.
 NBasis=   180 RedAO= T  NBF=   180
 NBsUse=   180 1.00D-06 NBFU=   180
 Precomputing XC quadrature grid using
 IXCGrd= 2 IRadAn=           0 IRanWt=          -1 IRanGd=           0 AccXCQ= 0.00D+00.
 NRdTot=    1136 NPtTot=      144248 NUsed=      152447 NTot=      152479
 NSgBfM=   186   186   186   186   186 NAtAll=    18    18.
 Leave Link  302 at Wed Apr  2 18:21:31 2014, MaxMem= 4026531840 cpu:       3.0
 (Enter /usr/caen/gaussian-09revc/g09/l303.exe)
 DipDrv:  MaxL=1.
 Leave Link  303 at Wed Apr  2 18:21:31 2014, MaxMem= 4026531840 cpu:       1.2
 (Enter /usr/caen/gaussian-09revc/g09/l401.exe)
 Harris functional with IExCor=  402 diagonalized for initial guess.
 ExpMin= 1.03D-01 ExpMax= 4.56D+03 ExpMxC= 6.82D+02 IAcc=1 IRadAn=         1 AccDes= 0.00D+00
 HarFok:  IExCor=  402 AccDes= 0.00D+00 IRadAn=         1 IDoV= 1
 ScaDFX=  1.000000  1.000000  1.000000  1.000000
 FoFCou: FMM=F IPFlag=           0 FMFlag=      100000 FMFlg1=           0
         NFxFlg=           0 DoJE=T BraDBF=F KetDBF=T FulRan=T
         Omega=  0.000000  0.000000  1.000000  0.000000  0.000000 ICntrl=     500 IOpCl=  0
         NMat0=    1 NMatS0=    1 NMatT0=    0 NMatD0=    1 NMtDS0=    0 NMtDT0=    0
         I1Cent=           4 NGrid=           0.
 Petite list used in FoFCou.
 Harris En= -235.992706770926    
 Initial guess orbital symmetries:
       Occupied  (A) (A) (A) (A) (A) (A) (A) (A) (A) (A) (A) (A)
                 (A) (A) (A) (A) (A) (A) (A) (A) (A) (A) (A) (A)
       Virtual   (A) (A) (A) (A) (A) (A) (A) (A) (A) (A) (A) (A)
                 (A) (A) (A) (A) (A) (A) (A) (A) (A) (A) (A) (A)
                 (A) (A) (A) (A) (A) (A) (A) (A) (A) (A) (A) (A)
                 (A) (A) (A) (A) (A) (A) (A) (A) (A) (A) (A) (A)
                 (A) (A) (A) (A) (A) (A) (A) (A) (A) (A) (A) (A)
                 (A) (A) (A) (A) (A) (A) (A) (A) (A) (A) (A) (A)
                 (A) (A) (A) (A) (A) (A) (A) (A) (A) (A) (A) (A)
                 (A) (A) (A) (A) (A) (A) (A) (A) (A) (A) (A) (A)
                 (A) (A) (A) (A) (A) (A) (A) (A) (A) (A) (A) (A)
                 (A) (A) (A) (A) (A) (A) (A) (A) (A) (A) (A) (A)
                 (A) (A) (A) (A) (A) (A) (A) (A) (A) (A) (A) (A)
                 (A) (A) (A) (A) (A) (A) (A) (A) (A) (A) (A) (A)
                 (A) (A) (A) (A) (A) (A) (A) (A) (A) (A) (A) (A)
 The electronic state of the initial guess is 1-A.
 Leave Link  401 at Wed Apr  2 18:21:32 2014, MaxMem= 4026531840 cpu:       3.7
 (Enter /usr/caen/gaussian-09revc/g09/l502.exe)
 Closed shell SCF:
 Requested convergence on RMS density matrix=1.00D-08 within 128 cycles.
 Requested convergence on MAX density matrix=1.00D-06.
 Requested convergence on             energy=1.00D-06.
 No special actions if energy rises.
 Using DIIS extrapolation, IDIIS=  1040.
 Integral symmetry usage will be decided dynamically.
       152272 words used for storage of precomputed grid.
 Keep R1 ints in memory in canonical form, NReq=154778762.
 IEnd=      277104 IEndB=      277104 NGot=  4026531840 MDV=  3875073995
 LenX=  3875073995 LenY=  3875038958
 Symmetry not used in FoFDir.
 MinBra= 0 MaxBra= 2 Meth= 1.
 IRaf=       0 NMat=   1 IRICut=       1 DoRegI=T DoRafI=F ISym2E= 0 JSym2E=0.
 Integral accuracy reduced to 1.0D-05 until final iterations.

 Cycle   1  Pass 0  IDiag  1:
 E= -235.659815376357    
 DIIS: error= 3.66D-02 at cycle   1 NSaved=   1.
 NSaved= 1 IEnMin= 1 EnMin= -235.659815376357     IErMin= 1 ErrMin= 3.66D-02
 ErrMax= 3.66D-02 EMaxC= 1.00D-01 BMatC= 2.49D-01 BMatP= 2.49D-01
 IDIUse=3 WtCom= 6.34D-01 WtEn= 3.66D-01
 Coeff-Com:  0.100D+01
 Coeff-En:   0.100D+01
 Coeff:      0.100D+01
 Gap=     0.266 Goal=   None    Shift=    0.000
 GapD=    0.266 DampG=1.000 DampE=0.500 DampFc=0.5000 IDamp=-1.
 Damping current iteration by 5.00D-01
 RMSDP=4.54D-03 MaxDP=1.21D-01              OVMax= 1.90D-01

 Cycle   2  Pass 0  IDiag  1:
 E= -235.771838378180     Delta-E=       -0.112023001823 Rises=F Damp=T
 DIIS: error= 5.12D-03 at cycle   2 NSaved=   2.
 NSaved= 2 IEnMin= 2 EnMin= -235.771838378180     IErMin= 2 ErrMin= 5.12D-03
 ErrMax= 5.12D-03 EMaxC= 1.00D-01 BMatC= 1.05D-02 BMatP= 2.49D-01
 IDIUse=3 WtCom= 9.49D-01 WtEn= 5.12D-02
 Coeff-Com:  0.604D-01 0.940D+00
 Coeff-En:   0.138D+00 0.862D+00
 Coeff:      0.644D-01 0.936D+00
 Gap=     0.300 Goal=   None    Shift=    0.000
 RMSDP=9.04D-04 MaxDP=1.96D-02 DE=-1.12D-01 OVMax= 1.15D-01

 Cycle   3  Pass 0  IDiag  1:
 E= -235.913859402955     Delta-E=       -0.142021024775 Rises=F Damp=F
 DIIS: error= 3.95D-03 at cycle   3 NSaved=   3.
 NSaved= 3 IEnMin= 3 EnMin= -235.913859402955     IErMin= 3 ErrMin= 3.95D-03
 ErrMax= 3.95D-03 EMaxC= 1.00D-01 BMatC= 3.01D-03 BMatP= 1.05D-02
 IDIUse=3 WtCom= 9.60D-01 WtEn= 3.95D-02
 Coeff-Com: -0.159D-01 0.303D+00 0.713D+00
 Coeff-En:   0.000D+00 0.000D+00 0.100D+01
 Coeff:     -0.153D-01 0.291D+00 0.724D+00
 Gap=     0.270 Goal=   None    Shift=    0.000
 RMSDP=4.06D-04 MaxDP=1.06D-02 DE=-1.42D-01 OVMax= 3.21D-02

 Cycle   4  Pass 0  IDiag  1:
 E= -235.915530928745     Delta-E=       -0.001671525790 Rises=F Damp=F
 DIIS: error= 2.89D-03 at cycle   4 NSaved=   4.
 NSaved= 4 IEnMin= 4 EnMin= -235.915530928745     IErMin= 4 ErrMin= 2.89D-03
 ErrMax= 2.89D-03 EMaxC= 1.00D-01 BMatC= 1.45D-03 BMatP= 3.01D-03
 IDIUse=3 WtCom= 9.71D-01 WtEn= 2.89D-02
 Coeff-Com: -0.164D-01 0.856D-01 0.434D+00 0.497D+00
 Coeff-En:   0.000D+00 0.000D+00 0.324D+00 0.676D+00
 Coeff:     -0.160D-01 0.831D-01 0.431D+00 0.502D+00
 Gap=     0.270 Goal=   None    Shift=    0.000
 RMSDP=1.67D-04 MaxDP=6.20D-03 DE=-1.67D-03 OVMax= 2.19D-02

 Cycle   5  Pass 0  IDiag  1:
 E= -235.916895130650     Delta-E=       -0.001364201905 Rises=F Damp=F
 DIIS: error= 1.01D-03 at cycle   5 NSaved=   5.
 NSaved= 5 IEnMin= 5 EnMin= -235.916895130650     IErMin= 5 ErrMin= 1.01D-03
 ErrMax= 1.01D-03 EMaxC= 1.00D-01 BMatC= 9.53D-05 BMatP= 1.45D-03
 IDIUse=3 WtCom= 9.90D-01 WtEn= 1.01D-02
 Coeff-Com: -0.724D-02 0.212D-01 0.178D+00 0.277D+00 0.531D+00
 Coeff-En:   0.000D+00 0.000D+00 0.000D+00 0.000D+00 0.100D+01
 Coeff:     -0.717D-02 0.209D-01 0.176D+00 0.274D+00 0.536D+00
 Gap=     0.270 Goal=   None    Shift=    0.000
 RMSDP=4.74D-05 MaxDP=1.59D-03 DE=-1.36D-03 OVMax= 6.17D-03

 Cycle   6  Pass 0  IDiag  1:
 E= -235.916983075184     Delta-E=       -0.000087944534 Rises=F Damp=F
 DIIS: error= 2.86D-04 at cycle   6 NSaved=   6.
 NSaved= 6 IEnMin= 6 EnMin= -235.916983075184     IErMin= 6 ErrMin= 2.86D-04
 ErrMax= 2.86D-04 EMaxC= 1.00D-01 BMatC= 9.41D-06 BMatP= 9.53D-05
 IDIUse=3 WtCom= 9.97D-01 WtEn= 2.86D-03
 Coeff-Com: -0.227D-02 0.342D-02 0.561D-01 0.104D+00 0.306D+00 0.533D+00
 Coeff-En:   0.000D+00 0.000D+00 0.000D+00 0.000D+00 0.420D-01 0.958D+00
 Coeff:     -0.227D-02 0.341D-02 0.559D-01 0.104D+00 0.305D+00 0.534D+00
 Gap=     0.270 Goal=   None    Shift=    0.000
 RMSDP=1.26D-05 MaxDP=4.48D-04 DE=-8.79D-05 OVMax= 1.25D-03

 Cycle   7  Pass 0  IDiag  1:
 E= -235.916992316595     Delta-E=       -0.000009241411 Rises=F Damp=F
 DIIS: error= 2.49D-05 at cycle   7 NSaved=   7.
 NSaved= 7 IEnMin= 7 EnMin= -235.916992316595     IErMin= 7 ErrMin= 2.49D-05
 ErrMax= 2.49D-05 EMaxC= 1.00D-01 BMatC= 1.48D-07 BMatP= 9.41D-06
 IDIUse=1 WtCom= 1.00D+00 WtEn= 0.00D+00
 Coeff-Com: -0.338D-03-0.793D-04 0.104D-01 0.224D-01 0.821D-01 0.190D+00
 Coeff-Com:  0.695D+00
 Coeff:     -0.338D-03-0.793D-04 0.104D-01 0.224D-01 0.821D-01 0.190D+00
 Coeff:      0.695D+00
 Gap=     0.270 Goal=   None    Shift=    0.000
 RMSDP=2.64D-06 MaxDP=5.32D-05 DE=-9.24D-06 OVMax= 9.23D-05

 Initial convergence to 1.0D-05 achieved.  Increase integral accuracy.
 Cycle   8  Pass 1  IDiag  1:
 E= -235.917046990026     Delta-E=       -0.000054673432 Rises=F Damp=F
 DIIS: error= 1.20D-05 at cycle   1 NSaved=   1.
 NSaved= 1 IEnMin= 1 EnMin= -235.917046990026     IErMin= 1 ErrMin= 1.20D-05
 ErrMax= 1.20D-05 EMaxC= 1.00D-01 BMatC= 4.33D-08 BMatP= 4.33D-08
 IDIUse=1 WtCom= 1.00D+00 WtEn= 0.00D+00
 Coeff-Com:  0.100D+01
 Coeff:      0.100D+01
 Gap=     0.270 Goal=   None    Shift=    0.000
 RMSDP=2.64D-06 MaxDP=5.32D-05 DE=-5.47D-05 OVMax= 8.20D-05

 Cycle   9  Pass 1  IDiag  1:
 E= -235.917047042698     Delta-E=       -0.000000052672 Rises=F Damp=F
 DIIS: error= 7.49D-06 at cycle   2 NSaved=   2.
 NSaved= 2 IEnMin= 2 EnMin= -235.917047042698     IErMin= 2 ErrMin= 7.49D-06
 ErrMax= 7.49D-06 EMaxC= 1.00D-01 BMatC= 8.41D-09 BMatP= 4.33D-08
 IDIUse=1 WtCom= 1.00D+00 WtEn= 0.00D+00
 Coeff-Com:  0.219D+00 0.781D+00
 Coeff:      0.219D+00 0.781D+00
 Gap=     0.270 Goal=   None    Shift=    0.000
 RMSDP=8.15D-07 MaxDP=1.95D-05 DE=-5.27D-08 OVMax= 3.98D-05

 Cycle  10  Pass 1  IDiag  1:
 E= -235.917047046829     Delta-E=       -0.000000004131 Rises=F Damp=F
 DIIS: error= 4.65D-06 at cycle   3 NSaved=   3.
 NSaved= 3 IEnMin= 3 EnMin= -235.917047046829     IErMin= 3 ErrMin= 4.65D-06
 ErrMax= 4.65D-06 EMaxC= 1.00D-01 BMatC= 4.75D-09 BMatP= 8.41D-09
 IDIUse=1 WtCom= 1.00D+00 WtEn= 0.00D+00
 Coeff-Com: -0.730D-02 0.426D+00 0.581D+00
 Coeff:     -0.730D-02 0.426D+00 0.581D+00
 Gap=     0.270 Goal=   None    Shift=    0.000
 RMSDP=3.33D-07 MaxDP=9.79D-06 DE=-4.13D-09 OVMax= 2.94D-05

 Cycle  11  Pass 1  IDiag  1:
 E= -235.917047051260     Delta-E=       -0.000000004431 Rises=F Damp=F
 DIIS: error= 1.64D-06 at cycle   4 NSaved=   4.
 NSaved= 4 IEnMin= 4 EnMin= -235.917047051260     IErMin= 4 ErrMin= 1.64D-06
 ErrMax= 1.64D-06 EMaxC= 1.00D-01 BMatC= 3.62D-10 BMatP= 4.75D-09
 IDIUse=1 WtCom= 1.00D+00 WtEn= 0.00D+00
 Coeff-Com: -0.126D-01 0.218D+00 0.337D+00 0.458D+00
 Coeff:     -0.126D-01 0.218D+00 0.337D+00 0.458D+00
 Gap=     0.270 Goal=   None    Shift=    0.000
 RMSDP=8.52D-08 MaxDP=2.81D-06 DE=-4.43D-09 OVMax= 1.11D-05

 Cycle  12  Pass 1  IDiag  1:
 E= -235.917047051605     Delta-E=       -0.000000000345 Rises=F Damp=F
 DIIS: error= 4.67D-07 at cycle   5 NSaved=   5.
 NSaved= 5 IEnMin= 5 EnMin= -235.917047051605     IErMin= 5 ErrMin= 4.67D-07
 ErrMax= 4.67D-07 EMaxC= 1.00D-01 BMatC= 2.17D-11 BMatP= 3.62D-10
 IDIUse=1 WtCom= 1.00D+00 WtEn= 0.00D+00
 Coeff-Com: -0.645D-02 0.839D-01 0.136D+00 0.248D+00 0.538D+00
 Coeff:     -0.645D-02 0.839D-01 0.136D+00 0.248D+00 0.538D+00
 Gap=     0.270 Goal=   None    Shift=    0.000
 RMSDP=2.28D-08 MaxDP=6.71D-07 DE=-3.45D-10 OVMax= 2.60D-06

 Cycle  13  Pass 1  IDiag  1:
 E= -235.917047051626     Delta-E=       -0.000000000021 Rises=F Damp=F
 DIIS: error= 9.52D-08 at cycle   6 NSaved=   6.
 NSaved= 6 IEnMin= 6 EnMin= -235.917047051626     IErMin= 6 ErrMin= 9.52D-08
 ErrMax= 9.52D-08 EMaxC= 1.00D-01 BMatC= 1.17D-12 BMatP= 2.17D-11
 IDIUse=1 WtCom= 1.00D+00 WtEn= 0.00D+00
 Coeff-Com: -0.109D-02 0.923D-02 0.165D-01 0.402D-01 0.224D+00 0.711D+00
 Coeff:     -0.109D-02 0.923D-02 0.165D-01 0.402D-01 0.224D+00 0.711D+00
 Gap=     0.270 Goal=   None    Shift=    0.000
 RMSDP=5.79D-09 MaxDP=1.19D-07 DE=-2.12D-11 OVMax= 4.24D-07

 SCF Done:  E(RB3LYP) =  -235.917047052     A.U. after   13 cycles
             Convg  =    0.5793D-08             -V/T =  2.0052
 KE= 2.347047189025D+02 PE=-1.020215515509D+03 EE= 3.123553838178D+02
 Leave Link  502 at Wed Apr  2 18:21:43 2014, MaxMem= 4026531840 cpu:      80.8
 (Enter /usr/caen/gaussian-09revc/g09/l801.exe)
 Range of M.O.s used for correlation:     1   180
 NBasis=   180 NAE=    24 NBE=    24 NFC=     0 NFV=     0
 NROrb=    180 NOA=    24 NOB=    24 NVA=   156 NVB=   156
 Leave Link  801 at Wed Apr  2 18:21:44 2014, MaxMem= 4026531840 cpu:       0.2
 (Enter /usr/caen/gaussian-09revc/g09/l1101.exe)
 Using compressed storage, NAtomX=    18.
 Will process  19 centers per pass.
 Leave Link 1101 at Wed Apr  2 18:21:45 2014, MaxMem= 4026531840 cpu:       5.2
 (Enter /usr/caen/gaussian-09revc/g09/l1102.exe)
 Symmetrizing basis deriv contribution to polar:
 IMax=3 JMax=2 DiffMx= 0.00D+00
 Leave Link 1102 at Wed Apr  2 18:21:46 2014, MaxMem= 4026531840 cpu:       1.4
 (Enter /usr/caen/gaussian-09revc/g09/l1110.exe)
 Forming Gx(P) for the SCF density, NAtomX=    18.
 Integral derivatives from FoFDir/FoFCou, PRISM(SPDF).
 Do as many integral derivatives as possible in FoFDir.
 G2DrvN: MDV=    4026531592.
 G2DrvN: will do    19 centers at a time, making    1 passes doing MaxLOS=2.
 Calling FoFCou, ICntrl=  3107 FMM=F I1Cent=   0 AccDes= 0.00D+00.
 FoFCou: FMM=F IPFlag=           0 FMFlag=      100000 FMFlg1=           0
         NFxFlg=           0 DoJE=F BraDBF=F KetDBF=F FulRan=T
         Omega=  0.000000  0.000000  1.000000  0.000000  0.000000 ICntrl=    3107 IOpCl=  0
         NMat0=    1 NMatS0=    1 NMatT0=    0 NMatD0=    1 NMtDS0=    0 NMtDT0=    0
         I1Cent=           0 NGrid=           0.
 Symmetry not used in FoFCou.
 FoFDir/FoFCou used for L=0 through L=2.
 End of G2Drv Frequency-dependent properties file   721 does not exist.
 End of G2Drv Frequency-dependent properties file   722 does not exist.
 Leave Link 1110 at Wed Apr  2 18:22:06 2014, MaxMem= 4026531840 cpu:     158.8
 (Enter /usr/caen/gaussian-09revc/g09/l1002.exe)
 Minotr:  Closed shell wavefunction.
          IDoAtm=111111111111111111
          Direct CPHF calculation.
          Differentiating once with respect to nuclear coordinates.
          Requested convergence is 1.0D-06 RMS, and 1.0D-05 maximum.
          Secondary convergence is 1.0D-12 RMS, and 1.0D-12 maximum.
          NewPWx=T KeepS1=F KeepF1=F KeepIn=T MapXYZ=F SortEE=F KeepMc=T.
          MDV=    4026531656 using IRadAn=       2.
 Generate precomputed XC quadrature information.
          Keep R1 ints in memory in canonical form, NReq=152057551.
 Symmetry not used in FoFDir.
 MinBra= 0 MaxBra= 2 Meth= 1.
 IRaf=       0 NMat=   1 IRICut=       1 DoRegI=T DoRafI=F ISym2E= 0 JSym2E=0.
          Solving linear equations simultaneously, MaxMat=       0.
          There are    57 degrees of freedom in the 1st order CPHF.  IDoFFX=5.
     51 vectors produced by pass  0 Test12= 6.57D-11 1.75D-07 XBig12= 8.29D-02 8.58D-02.
 AX will form    51 AO Fock derivatives at one time.
     51 vectors produced by pass  1 Test12= 6.57D-11 1.75D-07 XBig12= 1.19D-02 5.09D-02.
     51 vectors produced by pass  2 Test12= 6.57D-11 1.75D-07 XBig12= 8.70D-05 1.39D-03.
     51 vectors produced by pass  3 Test12= 6.57D-11 1.75D-07 XBig12= 1.90D-07 6.32D-05.
     15 vectors produced by pass  4 Test12= 6.57D-11 1.75D-07 XBig12= 2.23D-10 1.57D-06.
 Inverted reduced A of dimension   219 with in-core refinement.
 End of Minotr Frequency-dependent properties file   721 does not exist.
 End of Minotr Frequency-dependent properties file   722 does not exist.
 Leave Link 1002 at Wed Apr  2 18:22:23 2014, MaxMem= 4026531840 cpu:     130.1
 (Enter /usr/caen/gaussian-09revc/g09/l601.exe)
 Copying SCF densities to generalized density rwf, IOpCl= 0 IROHF=0.

 **********************************************************************

            Population analysis using the SCF density.

 **********************************************************************

 Orbital symmetries:
       Occupied  (A) (A) (A) (A) (A) (A) (A) (A) (A) (A) (A) (A)
                 (A) (A) (A) (A) (A) (A) (A) (A) (A) (A) (A) (A)
       Virtual   (A) (A) (A) (A) (A) (A) (A) (A) (A) (A) (A) (A)
                 (A) (A) (A) (A) (A) (A) (A) (A) (A) (A) (A) (A)
                 (A) (A) (A) (A) (A) (A) (A) (A) (A) (A) (A) (A)
                 (A) (A) (A) (A) (A) (A) (A) (A) (A) (A) (A) (A)
                 (A) (A) (A) (A) (A) (A) (A) (A) (A) (A) (A) (A)
                 (A) (A) (A) (A) (A) (A) (A) (A) (A) (A) (A) (A)
                 (A) (A) (A) (A) (A) (A) (A) (A) (A) (A) (A) (A)
                 (A) (A) (A) (A) (A) (A) (A) (A) (A) (A) (A) (A)
                 (A) (A) (A) (A) (A) (A) (A) (A) (A) (A) (A) (A)
                 (A) (A) (A) (A) (A) (A) (A) (A) (A) (A) (A) (A)
                 (A) (A) (A) (A) (A) (A) (A) (A) (A) (A) (A) (A)
                 (A) (A) (A) (A) (A) (A) (A) (A) (A) (A) (A) (A)
                 (A) (A) (A) (A) (A) (A) (A) (A) (A) (A) (A) (A)
 The electronic state is 1-A.
 Alpha  occ. eigenvalues --  -10.17596 -10.17166 -10.16853 -10.15902 -10.15748
 Alpha  occ. eigenvalues --  -10.15356  -0.81801  -0.76594  -0.68384  -0.67925
 Alpha  occ. eigenvalues --   -0.57053  -0.55426  -0.46786  -0.46268  -0.43754
 Alpha  occ. eigenvalues --   -0.42325  -0.40345  -0.38500  -0.36638  -0.35209
 Alpha  occ. eigenvalues --   -0.33921  -0.32699  -0.32571  -0.25885
 Alpha virt. eigenvalues --    0.01098   0.04427   0.06084   0.07059   0.08392
 Alpha virt. eigenvalues --    0.09906   0.10361   0.11173   0.11604   0.14112
 Alpha virt. eigenvalues --    0.14663   0.15175   0.16145   0.20340   0.21396
 Alpha virt. eigenvalues --    0.23124   0.24608   0.27982   0.29495   0.31666
 Alpha virt. eigenvalues --    0.33075   0.34093   0.35634   0.37313   0.39671
 Alpha virt. eigenvalues --    0.40637   0.44320   0.45973   0.46731   0.49757
 Alpha virt. eigenvalues --    0.52549   0.55590   0.57043   0.57570   0.57675
 Alpha virt. eigenvalues --    0.58817   0.59193   0.60016   0.60898   0.61321
 Alpha virt. eigenvalues --    0.62300   0.62862   0.64093   0.64821   0.65442
 Alpha virt. eigenvalues --    0.69306   0.71743   0.75074   0.79469   0.82658
 Alpha virt. eigenvalues --    0.87546   0.95853   0.97480   0.98929   1.03714
 Alpha virt. eigenvalues --    1.04476   1.08735   1.14346   1.19126   1.19778
 Alpha virt. eigenvalues --    1.21790   1.35411   1.38121   1.38430   1.41137
 Alpha virt. eigenvalues --    1.41819   1.44821   1.46099   1.47118   1.49685
 Alpha virt. eigenvalues --    1.49926   1.50930   1.52179   1.55027   1.56629
 Alpha virt. eigenvalues --    1.57162   1.60056   1.61234   1.63856   1.65486
 Alpha virt. eigenvalues --    1.66709   1.67290   1.71363   1.74932   1.77605
 Alpha virt. eigenvalues --    1.78093   1.78331   1.80756   1.84238   1.85546
 Alpha virt. eigenvalues --    1.91773   1.92786   1.96770   2.00730   2.03784
 Alpha virt. eigenvalues --    2.06577   2.07879   2.10829   2.11380   2.15354
 Alpha virt. eigenvalues --    2.16780   2.20236   2.21592   2.25477   2.28643
 Alpha virt. eigenvalues --    2.32302   2.35000   2.36478   2.38813   2.42242
 Alpha virt. eigenvalues --    2.44756   2.46120   2.47532   2.49880   2.50121
 Alpha virt. eigenvalues --    2.51921   2.53118   2.55643   2.57616   2.60269
 Alpha virt. eigenvalues --    2.62993   2.64589   2.65457   2.68496   2.70594
 Alpha virt. eigenvalues --    2.73186   2.75578   2.79459   2.81527   2.86866
 Alpha virt. eigenvalues --    2.89602   2.91752   2.93934   3.01100   3.04991
 Alpha virt. eigenvalues --    3.11228   3.25929   3.44903   3.49365   3.71994
 Alpha virt. eigenvalues --    3.77426   3.78306   3.80354   3.81836   3.85364
 Alpha virt. eigenvalues --    3.94381   4.00896   4.23029   4.29847   4.35893
 Alpha virt. eigenvalues --   23.70950  23.80913  23.88482  23.92509  23.94371
 Alpha virt. eigenvalues --   24.27442
          Condensed to atoms (all electrons):
              1          2          3          4          5          6
     1  C    4.916619   0.406863   0.374512  -0.045825  -0.034606  -0.060539
     2  H    0.406863   0.584445  -0.047874   0.007536  -0.003078  -0.002903
     3  C    0.374512  -0.047874   4.938096   0.405968   0.404739   0.358680
     4  H   -0.045825   0.007536   0.405968   0.591965  -0.032370  -0.037356
     5  H   -0.034606  -0.003078   0.404739  -0.032370   0.591824  -0.045144
     6  C   -0.060539  -0.002903   0.358680  -0.037356  -0.045144   5.074221
     7  H   -0.006044   0.004461  -0.049232   0.009460  -0.005701   0.409541
     8  C    0.007598  -0.000157  -0.062535  -0.004284  -0.006327   0.369945
     9  H   -0.000030   0.000012  -0.006812   0.004756  -0.000808  -0.038215
    10  H   -0.000401   0.000017   0.008159  -0.000289   0.000106  -0.032193
    11  H    0.000024   0.000008  -0.005290  -0.000479   0.004999  -0.033604
    12  C   -0.009585  -0.000212  -0.068041  -0.008186   0.009070   0.358630
    13  H   -0.000008  -0.000007   0.008230  -0.000108  -0.000490  -0.032268
    14  H   -0.000789   0.000026  -0.005817   0.004912  -0.000081  -0.041177
    15  H    0.009610   0.000033  -0.007413  -0.000662   0.000375  -0.032629
    16  C    0.644412  -0.038425  -0.064830  -0.003656   0.000383   0.000082
    17  H   -0.041502   0.008583  -0.012045   0.005403   0.000286   0.000214
    18  H   -0.031812  -0.012226   0.007564   0.000089  -0.000488  -0.000355
              7          8          9         10         11         12
     1  C   -0.006044   0.007598  -0.000030  -0.000401   0.000024  -0.009585
     2  H    0.004461  -0.000157   0.000012   0.000017   0.000008  -0.000212
     3  C   -0.049232  -0.062535  -0.006812   0.008159  -0.005290  -0.068041
     4  H    0.009460  -0.004284   0.004756  -0.000289  -0.000479  -0.008186
     5  H   -0.005701  -0.006327  -0.000808   0.000106   0.004999   0.009070
     6  C    0.409541   0.369945  -0.038215  -0.032193  -0.033604   0.358630
     7  H    0.621782  -0.042457   0.009596  -0.006791  -0.006232  -0.045356
     8  C   -0.042457   4.870499   0.402124   0.402500   0.401745  -0.065562
     9  H    0.009596   0.402124   0.593533  -0.031151  -0.031010  -0.006315
    10  H   -0.006791   0.402500  -0.031151   0.584531  -0.028009  -0.004920
    11  H   -0.006232   0.401745  -0.031010  -0.028009   0.587704   0.008430
    12  C   -0.045356  -0.065562  -0.006315  -0.004920   0.008430   4.884873
    13  H   -0.007187  -0.005282  -0.000716   0.003921   0.000007   0.402603
    14  H    0.009696  -0.005932   0.005228  -0.000710  -0.000117   0.401475
    15  H   -0.005545   0.008199  -0.000157  -0.000097  -0.000489   0.402978
    16  C    0.000508  -0.000202   0.000014   0.000008  -0.000015  -0.001036
    17  H    0.000035  -0.000045  -0.000015   0.000003   0.000001   0.000052
    18  H    0.000015   0.000018   0.000001  -0.000001   0.000000  -0.000008
             13         14         15         16         17         18
     1  C   -0.000008  -0.000789   0.009610   0.644412  -0.041502  -0.031812
     2  H   -0.000007   0.000026   0.000033  -0.038425   0.008583  -0.012226
     3  C    0.008230  -0.005817  -0.007413  -0.064830  -0.012045   0.007564
     4  H   -0.000108   0.004912  -0.000662  -0.003656   0.005403   0.000089
     5  H   -0.000490  -0.000081   0.000375   0.000383   0.000286  -0.000488
     6  C   -0.032268  -0.041177  -0.032629   0.000082   0.000214  -0.000355
     7  H   -0.007187   0.009696  -0.005545   0.000508   0.000035   0.000015
     8  C   -0.005282  -0.005932   0.008199  -0.000202  -0.000045   0.000018
     9  H   -0.000716   0.005228  -0.000157   0.000014  -0.000015   0.000001
    10  H    0.003921  -0.000710  -0.000097   0.000008   0.000003  -0.000001
    11  H    0.000007  -0.000117  -0.000489  -0.000015   0.000001   0.000000
    12  C    0.402603   0.401475   0.402978  -0.001036   0.000052  -0.000008
    13  H    0.588408  -0.031815  -0.027869  -0.000055  -0.000005  -0.000004
    14  H   -0.031815   0.596774  -0.029359   0.000665   0.000028   0.000007
    15  H   -0.027869  -0.029359   0.568500   0.002849   0.000020   0.000146
    16  C   -0.000055   0.000665   0.002849   4.835912   0.411551   0.405691
    17  H   -0.000005   0.000028   0.000020   0.411551   0.573352  -0.043252
    18  H   -0.000004   0.000007   0.000146   0.405691  -0.043252   0.571413
 Mulliken atomic charges:
              1
     1  C   -0.128495
     2  H    0.092899
     3  C   -0.176059
     4  H    0.103125
     5  H    0.117311
     6  C   -0.214930
     7  H    0.109452
     8  C   -0.269844
     9  H    0.099965
    10  H    0.105318
    11  H    0.102326
    12  C   -0.258891
    13  H    0.102645
    14  H    0.096986
    15  H    0.111510
    16  C   -0.193856
    17  H    0.097334
    18  H    0.103203
 Sum of Mulliken atomic charges =   0.00000
 Mulliken charges with hydrogens summed into heavy atoms:
              1
     1  C   -0.035596
     3  C    0.044377
     6  C   -0.105478
     8  C    0.037765
    12  C    0.052250
    16  C    0.006681
 Sum of Mulliken charges with hydrogens summed into heavy atoms =   0.00000
 APT atomic charges:
              1
     1  C   -0.715209
     2  H    0.344199
     3  C   -0.607776
     4  H    0.266795
     5  H    0.372505
     6  C   -0.369462
     7  H    0.319135
     8  C   -1.128979
     9  H    0.293363
    10  H    0.471059
    11  H    0.365303
    12  C   -0.981677
    13  H    0.467330
    14  H    0.286898
    15  H    0.255452
    16  C   -0.566051
    17  H    0.309308
    18  H    0.617807
 Sum of APT charges=   0.00000
 APT Atomic charges with hydrogens summed into heavy atoms:
              1
     1  C   -0.371009
     2  H    0.000000
     3  C    0.031524
     4  H    0.000000
     5  H    0.000000
     6  C   -0.050327
     7  H    0.000000
     8  C    0.000746
     9  H    0.000000
    10  H    0.000000
    11  H    0.000000
    12  C    0.028002
    13  H    0.000000
    14  H    0.000000
    15  H    0.000000
    16  C    0.361065
    17  H    0.000000
    18  H    0.000000
 Sum of APT charges=   0.00000
 Electronic spatial extent (au):  <R**2>=            796.0452
 Charge=              0.0000 electrons
 Dipole moment (field-independent basis, Debye):
    X=             -0.2848    Y=             -0.1160    Z=             -0.1594  Tot=              0.3463
 Quadrupole moment (field-independent basis, Debye-Ang):
   XX=            -40.9863   YY=            -41.9426   ZZ=            -39.2586
   XY=              0.6993   XZ=              0.0502   YZ=              0.3001
 Traceless Quadrupole moment (field-independent basis, Debye-Ang):
   XX=             -0.2571   YY=             -1.2135   ZZ=              1.4706
   XY=              0.6993   XZ=              0.0502   YZ=              0.3001
 Octapole moment (field-independent basis, Debye-Ang**2):
  XXX=              2.6549  YYY=             -2.2659  ZZZ=              0.5434  XYY=             -3.0791
  XXY=              5.1262  XXZ=             -1.9627  XZZ=              1.9496  YZZ=             -0.0174
  YYZ=             -1.2111  XYZ=              0.4997
 Hexadecapole moment (field-independent basis, Debye-Ang**3):
 XXXX=           -770.8679 YYYY=           -239.2464 ZZZZ=           -102.6370 XXXY=              9.7418
 XXXZ=             -0.0231 YYYX=              2.4772 YYYZ=              0.5140 ZZZX=             -0.4537
 ZZZY=              1.4842 XXYY=           -178.4002 XXZZ=           -144.5618 YYZZ=            -59.3283
 XXYZ=             -0.5855 YYXZ=              0.9844 ZZXY=             -0.0915
 N-N= 2.372383657371D+02 E-N=-1.020215515007D+03  KE= 2.347047189025D+02
  Exact polarizability:   0.000   0.000   0.000   0.000   0.000   0.000
 Approx polarizability: 108.010   9.768  84.746   9.494   4.799  95.849
 No NMR shielding tensors so no spin-rotation constants.
 Leave Link  601 at Wed Apr  2 18:22:24 2014, MaxMem= 4026531840 cpu:       2.2
 (Enter /usr/caen/gaussian-09revc/g09/l701.exe)
 Compute integral second derivatives.
 ... and contract with generalized density number  0.
 Leave Link  701 at Wed Apr  2 18:22:24 2014, MaxMem= 4026531840 cpu:       2.2
 (Enter /usr/caen/gaussian-09revc/g09/l702.exe)
 L702 exits ... SP integral derivatives will be done elsewhere.
 Leave Link  702 at Wed Apr  2 18:22:25 2014, MaxMem= 4026531840 cpu:       0.1
 (Enter /usr/caen/gaussian-09revc/g09/l703.exe)
 Compute integral second derivatives, UseDBF=F ICtDFT=           0.
 Integral derivatives from FoFDir, PRISM(SPDF).
 Calling FoFJK, ICntrl=    100147 FMM=F ISym2X=0 I1Cent= 0 IOpClX= 0 NMat=1 NMatS=1 NMatT=0.
 FoFCou: FMM=F IPFlag=           0 FMFlag=      100000 FMFlg1=         800
         NFxFlg=           0 DoJE=F BraDBF=F KetDBF=F FulRan=T
         Omega=  0.000000  0.000000  1.000000  0.000000  0.000000 ICntrl=  100147 IOpCl=  0
         NMat0=    1 NMatS0=    1 NMatT0=    0 NMatD0=    1 NMtDS0=    0 NMtDT0=    0
         I1Cent=           0 NGrid=           0.
 Symmetry not used in FoFCou.
 Leave Link  703 at Wed Apr  2 18:22:50 2014, MaxMem= 4026531840 cpu:     200.9
 (Enter /usr/caen/gaussian-09revc/g09/l716.exe)
 Dipole        =-1.12030475D-01-4.56188745D-02-6.27021148D-02
 Polarizability= 0.00000000D+00 0.00000000D+00 0.00000000D+00
                 0.00000000D+00 0.00000000D+00 0.00000000D+00
 ***** Axes restored to original set *****
 -------------------------------------------------------------------
 Center     Atomic                   Forces (Hartrees/Bohr)
 Number     Number              X              Y              Z
 -------------------------------------------------------------------
      1        6           0.001421186    0.000696526    0.000805716
      2        1          -0.000078158   -0.000021248    0.000057233
      3        6           0.000120111   -0.000029574   -0.000058262
      4        1          -0.000024677   -0.000019694   -0.000057225
      5        1          -0.000087414   -0.000038682    0.000027265
      6        6          -0.000008794   -0.000028226    0.000126401
      7        1          -0.000006248    0.000007702    0.000045720
      8        6          -0.000087231    0.000019301   -0.000013839
      9        1           0.000027623   -0.000001385   -0.000096196
     10        1           0.000049205   -0.000047803    0.000024399
     11        1           0.000021352    0.000068476    0.000015685
     12        6           0.000021847    0.000106918   -0.000037767
     13        1           0.000040713   -0.000031286    0.000038402
     14        1          -0.000001219   -0.000042727   -0.000089151
     15        1          -0.000016664   -0.000141551    0.000051117
     16        6          -0.001356430   -0.000445326   -0.000817416
     17        1          -0.000025957   -0.000025934   -0.000071378
     18        1          -0.000009244   -0.000025487    0.000049296
 -------------------------------------------------------------------
 Cartesian Forces:  Max     0.001421186 RMS     0.000333634
 Leave Link  716 at Wed Apr  2 18:22:51 2014, MaxMem= 4026531840 cpu:       1.3
 (Enter /usr/caen/gaussian-09revc/g09/l103.exe)

 GradGradGradGradGradGradGradGradGradGradGradGradGradGradGradGradGradGrad
 Berny optimization.
 Red2BG is reusing G-inverse.
 Internal  Forces:  Max     0.001703270 RMS     0.000196342
 Search for a local minimum.
 Step number   1 out of a maximum of   94
 All quantities printed in internal units (Hartrees-Bohrs-Radians)
 RMS Force = .19634D-03 SwitMx=.10000D-02 MixMth= 2
 Mixed Optimization -- En-DIIS/RFO-DIIS
 Second derivative matrix not updated -- analytic derivatives used.
 ITU=  0
     Eigenvalues ---    0.00191   0.00250   0.00281   0.00329   0.01916
     Eigenvalues ---    0.03139   0.03437   0.03873   0.03996   0.04199
     Eigenvalues ---    0.04349   0.04471   0.04550   0.04603   0.04642
     Eigenvalues ---    0.04696   0.07861   0.10410   0.10816   0.11362
     Eigenvalues ---    0.11883   0.12257   0.12408   0.12837   0.13518
     Eigenvalues ---    0.14194   0.14856   0.16333   0.17400   0.18145
     Eigenvalues ---    0.19955   0.26546   0.27878   0.29338   0.30663
     Eigenvalues ---    0.32071   0.32310   0.32712   0.32886   0.33022
     Eigenvalues ---    0.33230   0.33343   0.33957   0.34159   0.34370
     Eigenvalues ---    0.35265   0.35682   0.62206
 RFO step:  Lambda=-9.10517828D-06 EMin= 1.90881913D-03
 Linear search not attempted -- first point.
 Iteration  1 RMS(Cart)=  0.00546990 RMS(Int)=  0.00000884
 Iteration  2 RMS(Cart)=  0.00001464 RMS(Int)=  0.00000024
 Iteration  3 RMS(Cart)=  0.00000000 RMS(Int)=  0.00000024
 Variable       Old X    -DE/DX   Delta X   Delta X   Delta X     New X
                                 (Linear)    (Quad)   (Total)
    R1        2.05997  -0.00006   0.00000  -0.00014  -0.00014   2.05983
    R2        2.83912   0.00000   0.00000   0.00019   0.00019   2.83931
    R3        2.51620  -0.00170   0.00000  -0.00284  -0.00284   2.51336
    R4        2.07269  -0.00006   0.00000  -0.00013  -0.00013   2.07256
    R5        2.07554   0.00004   0.00000   0.00002   0.00002   2.07556
    R6        2.92276  -0.00009   0.00000   0.00007   0.00007   2.92284
    R7        2.07612  -0.00005   0.00000  -0.00009  -0.00009   2.07602
    R8        2.89938  -0.00005   0.00000  -0.00026  -0.00026   2.89912
    R9        2.89863  -0.00011   0.00000  -0.00022  -0.00022   2.89841
   R10        2.07048  -0.00009   0.00000  -0.00027  -0.00027   2.07021
   R11        2.06717  -0.00007   0.00000  -0.00022  -0.00022   2.06695
   R12        2.06767  -0.00008   0.00000  -0.00021  -0.00021   2.06747
   R13        2.06730  -0.00006   0.00000  -0.00023  -0.00023   2.06707
   R14        2.07094  -0.00010   0.00000  -0.00024  -0.00024   2.07069
   R15        2.06468  -0.00009   0.00000  -0.00036  -0.00036   2.06432
   R16        2.05261  -0.00008   0.00000  -0.00013  -0.00013   2.05248
   R17        2.04926  -0.00004   0.00000  -0.00006  -0.00006   2.04920
    A1        2.01811  -0.00005   0.00000  -0.00091  -0.00091   2.01720
    A2        2.07129   0.00012   0.00000   0.00127   0.00127   2.07255
    A3        2.19378  -0.00007   0.00000  -0.00035  -0.00035   2.19343
    A4        1.91636   0.00005   0.00000  -0.00001  -0.00001   1.91635
    A5        1.89374   0.00016   0.00000   0.00161   0.00161   1.89535
    A6        1.99407  -0.00023   0.00000  -0.00101  -0.00101   1.99305
    A7        1.86006  -0.00004   0.00000  -0.00009  -0.00009   1.85998
    A8        1.90937   0.00003   0.00000  -0.00048  -0.00048   1.90889
    A9        1.88521   0.00003   0.00000   0.00006   0.00006   1.88528
   A10        1.87485   0.00001   0.00000  -0.00020  -0.00020   1.87465
   A11        1.92920   0.00011   0.00000   0.00065   0.00065   1.92984
   A12        1.95184  -0.00016   0.00000  -0.00055  -0.00055   1.95129
   A13        1.88190  -0.00004   0.00000  -0.00009  -0.00009   1.88181
   A14        1.88489   0.00002   0.00000  -0.00023  -0.00023   1.88466
   A15        1.93811   0.00006   0.00000   0.00039   0.00039   1.93851
   A16        1.93509  -0.00003   0.00000  -0.00026  -0.00026   1.93483
   A17        1.94007   0.00003   0.00000   0.00015   0.00015   1.94022
   A18        1.94556  -0.00002   0.00000  -0.00007  -0.00007   1.94549
   A19        1.87762   0.00001   0.00000   0.00012   0.00012   1.87774
   A20        1.88018   0.00002   0.00000   0.00004   0.00004   1.88022
   A21        1.88252   0.00000   0.00000   0.00003   0.00003   1.88255
   A22        1.93708   0.00005   0.00000   0.00043   0.00043   1.93751
   A23        1.93200  -0.00003   0.00000  -0.00031  -0.00032   1.93169
   A24        1.94863  -0.00014   0.00000  -0.00101  -0.00101   1.94761
   A25        1.87909   0.00001   0.00000   0.00013   0.00013   1.87922
   A26        1.88580   0.00007   0.00000   0.00082   0.00082   1.88662
   A27        1.87860   0.00005   0.00000   0.00000  -0.00001   1.87859
   A28        2.12181  -0.00006   0.00000  -0.00037  -0.00037   2.12144
   A29        2.12362   0.00006   0.00000   0.00087   0.00087   2.12449
   A30        2.03775   0.00000   0.00000  -0.00050  -0.00050   2.03725
    D1        3.12131   0.00004   0.00000  -0.00671  -0.00671   3.11460
    D2        1.09472  -0.00004   0.00000  -0.00751  -0.00751   1.08721
    D3       -1.00947  -0.00004   0.00000  -0.00809  -0.00809  -1.01756
    D4       -0.01501   0.00002   0.00000  -0.00838  -0.00838  -0.02339
    D5       -2.04161  -0.00006   0.00000  -0.00918  -0.00918  -2.05078
    D6        2.13740  -0.00006   0.00000  -0.00975  -0.00975   2.12764
    D7        3.14075   0.00000   0.00000   0.00018   0.00018   3.14093
    D8       -0.00489  -0.00004   0.00000  -0.00092  -0.00092  -0.00581
    D9       -0.00626   0.00002   0.00000   0.00189   0.00189  -0.00437
   D10        3.13128  -0.00002   0.00000   0.00079   0.00079   3.13207
   D11        0.93290   0.00004   0.00000   0.00409   0.00409   0.93699
   D12        2.98184   0.00006   0.00000   0.00422   0.00422   2.98606
   D13       -1.13233   0.00011   0.00000   0.00481   0.00481  -1.12752
   D14        3.08907  -0.00003   0.00000   0.00297   0.00297   3.09205
   D15       -1.14517  -0.00001   0.00000   0.00310   0.00310  -1.14207
   D16        1.02384   0.00004   0.00000   0.00369   0.00369   1.02753
   D17       -1.17602  -0.00004   0.00000   0.00265   0.00265  -1.17337
   D18        0.87291  -0.00002   0.00000   0.00278   0.00278   0.87569
   D19        3.04193   0.00002   0.00000   0.00337   0.00337   3.04530
   D20        1.08063  -0.00005   0.00000   0.00075   0.00075   1.08138
   D21       -3.11485  -0.00004   0.00000   0.00083   0.00083  -3.11402
   D22       -1.01395  -0.00003   0.00000   0.00093   0.00093  -1.01301
   D23        3.12522   0.00000   0.00000   0.00082   0.00082   3.12604
   D24       -1.07027   0.00001   0.00000   0.00090   0.00090  -1.06937
   D25        1.03064   0.00001   0.00000   0.00100   0.00100   1.03164
   D26       -1.09623   0.00003   0.00000   0.00071   0.00071  -1.09552
   D27        0.99147   0.00004   0.00000   0.00079   0.00079   0.99226
   D28        3.09238   0.00005   0.00000   0.00089   0.00089   3.09327
   D29        3.09640  -0.00006   0.00000  -0.00371  -0.00371   3.09269
   D30       -1.10124  -0.00004   0.00000  -0.00347  -0.00347  -1.10471
   D31        0.99128  -0.00009   0.00000  -0.00437  -0.00437   0.98692
   D32        1.03716   0.00001   0.00000  -0.00300  -0.00300   1.03416
   D33        3.12271   0.00003   0.00000  -0.00277  -0.00277   3.11994
   D34       -1.06796  -0.00002   0.00000  -0.00366  -0.00366  -1.07161
   D35       -1.02276   0.00002   0.00000  -0.00298  -0.00298  -1.02575
   D36        1.06279   0.00004   0.00000  -0.00275  -0.00275   1.06004
   D37       -3.12788  -0.00001   0.00000  -0.00364  -0.00364  -3.13152
         Item               Value     Threshold  Converged?
 Maximum Force            0.001703     0.000450     NO 
 RMS     Force            0.000196     0.000300     YES
 Maximum Displacement     0.017073     0.001800     NO 
 RMS     Displacement     0.005470     0.001200     NO 
 Predicted change in Energy=-4.552580D-06
 GradGradGradGradGradGradGradGradGradGradGradGradGradGradGradGradGradGrad

 Leave Link  103 at Wed Apr  2 18:22:51 2014, MaxMem= 4026531840 cpu:       1.4
 (Enter /usr/caen/gaussian-09revc/g09/l202.exe)
                          Input orientation:                          
 ---------------------------------------------------------------------
 Center     Atomic      Atomic             Coordinates (Angstroms)
 Number     Number       Type             X           Y           Z
 ---------------------------------------------------------------------
      1          6           0        1.600080   -0.327455   -0.415806
      2          1           0        1.667668   -0.401486   -1.501201
      3          6           0        0.295504   -0.769262    0.184516
      4          1           0        0.340605   -0.681576    1.276828
      5          1           0        0.150417   -1.834905   -0.038432
      6          6           0       -0.937756    0.001823   -0.341579
      7          1           0       -0.923141   -0.063628   -1.438115
      8          6           0       -2.234146   -0.654437    0.150677
      9          1           0       -2.292554   -0.630522    1.244366
     10          1           0       -3.113302   -0.133073   -0.238711
     11          1           0       -2.297792   -1.700462   -0.163552
     12          6           0       -0.889479    1.485309    0.044937
     13          1           0       -1.741389    2.027925   -0.374967
     14          1           0       -0.924286    1.602773    1.133830
     15          1           0        0.026042    1.963692   -0.310438
     16          6           0        2.649651    0.130404    0.260734
     17          1           0        2.631746    0.223515    1.342711
     18          1           0        3.566037    0.424435   -0.238948
 ---------------------------------------------------------------------
                    Distance matrix (angstroms):
                    1          2          3          4          5
     1  C    0.000000
     2  H    1.090014   0.000000
     3  C    1.502498   2.204480   0.000000
     4  H    2.139320   3.091438   1.096753   0.000000
     5  H    2.125169   2.548810   1.098340   1.759616   0.000000
     6  C    2.560185   2.880211   1.546699   2.172667   2.156291
     7  H    2.735208   2.613506   2.148476   3.057749   2.499813
     8  C    3.889615   4.244624   2.532481   2.810390   2.667472
     9  H    4.242714   4.824309   2.800103   2.633854   3.010684
    10  H    4.720712   4.952131   3.493397   3.811455   3.686219
    11  H    4.140312   4.381953   2.777313   3.173950   2.455088
    12  C    3.113889   3.534054   2.550835   2.779578   3.480253
    13  H    4.088386   4.334987   3.505169   3.795329   4.314354
    14  H    3.535474   4.204601   2.831189   2.615080   3.787719
    15  H    2.781735   3.115592   2.790453   3.100936   3.810354
    16  C    1.330015   2.086051   2.521351   2.650180   3.193448
    17  H    2.111939   3.067231   2.790170   2.464317   3.507370
    18  H    2.112251   2.424713   3.507224   3.731521   4.100157
                    6          7          8          9         10
     6  C    0.000000
     7  H    1.098585   0.000000
     8  C    1.534151   2.142906   0.000000
     9  H    2.179578   3.064697   1.095509   0.000000
    10  H    2.182151   2.498039   1.093782   1.766522   0.000000
    11  H    2.186130   2.488654   1.094056   1.768342   1.768450
    12  C    1.533772   2.144711   2.529391   2.807844   2.764960
    13  H    2.179916   2.484836   2.777441   3.161228   2.563323
    14  H    2.177166   3.064604   2.788784   2.621446   3.112687
    15  H    2.186048   2.506517   3.489365   3.810938   3.775850
    16  C    3.639890   3.960880   4.947682   5.096266   5.790552
    17  H    3.953141   4.522462   5.086123   4.998779   5.969391
    18  H    4.524741   4.672143   5.912520   6.134839   6.702566
                   11         12         13         14         15
    11  H    0.000000
    12  C    3.489405   0.000000
    13  H    3.775599   1.093847   0.000000
    14  H    3.805401   1.095763   1.767734   0.000000
    15  H    4.341405   1.092392   1.769774   1.766153   0.000000
    16  C    5.292379   3.795758   4.825550   3.962725   3.251232
    17  H    5.501896   3.959214   5.032954   3.819863   3.542713
    18  H    6.237416   4.588864   5.546030   4.841074   3.860827
                   16         17         18
    16  C    0.000000
    17  H    1.086124   0.000000
    18  H    1.084389   1.847949   0.000000
 Stoichiometry    C6H12
 Framework group  C1[X(C6H12)]
 Deg. of freedom    48
 Full point group                 C1      NOp   1
 RotChk:  IX=0 Diff= 3.45D-03
 Largest Abelian subgroup         C1      NOp   1
 Largest concise Abelian subgroup C1      NOp   1
                         Standard orientation:                         
 ---------------------------------------------------------------------
 Center     Atomic      Atomic             Coordinates (Angstroms)
 Number     Number       Type             X           Y           Z
 ---------------------------------------------------------------------
      1          6           0        1.599830   -0.330845   -0.414428
      2          1           0        1.667775   -0.406762   -1.499670
      3          6           0        0.294207   -0.769376    0.186021
      4          1           0        0.338970   -0.679991    1.278209
      5          1           0        0.147342   -1.835123   -0.035259
      6          6           0       -0.937455    0.003024   -0.341886
      7          1           0       -0.922462   -0.064238   -1.438308
      8          6           0       -2.235221   -0.650149    0.150849
      9          1           0       -2.294080   -0.624351    1.244471
     10          1           0       -3.113282   -0.127871   -0.239785
     11          1           0       -2.300569   -1.696570   -0.161707
     12          6           0       -0.886738    1.487050    0.042238
     13          1           0       -1.737500    2.030482   -0.378935
     14          1           0       -0.921828    1.606346    1.130922
     15          1           0        0.029785    1.963239   -0.313501
     16          6           0        2.649901    0.126264    0.261841
     17          1           0        2.631674    0.221167    1.343658
     18          1           0        3.567029    0.417866   -0.237903
 ---------------------------------------------------------------------
 Rotational constants (GHZ):      6.7887183      1.9451071      1.6724630
 Leave Link  202 at Wed Apr  2 18:22:51 2014, MaxMem= 4026531840 cpu:       0.0
 (Enter /usr/caen/gaussian-09revc/g09/l301.exe)
 Standard basis: 6-311G(2d,d,p) (5D, 7F)
 Ernie: Thresh=  0.10000D-02 Tol=  0.10000D-05 Strict=F.
 There are   180 symmetry adapted basis functions of A   symmetry.
 Integral buffers will be    131072 words long.
 Raffenetti 2 integral format.
 Two-electron integral symmetry is turned on.
   180 basis functions,   288 primitive gaussians,   186 cartesian basis functions
    24 alpha electrons       24 beta electrons
       nuclear repulsion energy       237.3333651611 Hartrees.
 IExCor=  402 DFT=T Ex+Corr=B3LYP ExCW=0 ScaHFX=  0.200000
 ScaDFX=  0.800000  0.720000  1.000000  0.810000 ScalE2=  1.000000  1.000000
 IRadAn=      0 IRanWt=     -1 IRanGd=            0 ICorTp=0
 NAtoms=   18 NActive=   18 NUniq=   18 SFac= 1.00D+00 NAtFMM=   60 NAOKFM=F Big=F
 Leave Link  301 at Wed Apr  2 18:22:51 2014, MaxMem= 4026531840 cpu:       0.3
 (Enter /usr/caen/gaussian-09revc/g09/l302.exe)
 NPDir=0 NMtPBC=     1 NCelOv=     1 NCel=       1 NClECP=     1 NCelD=      1
         NCelK=      1 NCelE2=     1 NClLst=     1 CellRange=     0.0.
 One-electron integrals computed using PRISM.
 NBasis=   180 RedAO= T  NBF=   180
 NBsUse=   180 1.00D-06 NBFU=   180
 Precomputing XC quadrature grid using
 IXCGrd= 2 IRadAn=           0 IRanWt=          -1 IRanGd=           0 AccXCQ= 0.00D+00.
 NRdTot=    1136 NPtTot=      144248 NUsed=      152447 NTot=      152479
 NSgBfM=   186   186   186   186   186 NAtAll=    18    18.
 Leave Link  302 at Wed Apr  2 18:22:52 2014, MaxMem= 4026531840 cpu:       1.6
 (Enter /usr/caen/gaussian-09revc/g09/l303.exe)
 DipDrv:  MaxL=1.
 Leave Link  303 at Wed Apr  2 18:22:52 2014, MaxMem= 4026531840 cpu:       0.2
 (Enter /usr/caen/gaussian-09revc/g09/l401.exe)
 Initial guess read from the read-write file.
 B after Tr=     0.000000    0.000000    0.000000
         Rot=    1.000000    0.000000    0.000000    0.000000 Ang=   0.00 deg.
 Guess basis will be translated and rotated to current coordinates.
 Initial guess orbital symmetries:
       Occupied  (A) (A) (A) (A) (A) (A) (A) (A) (A) (A) (A) (A)
                 (A) (A) (A) (A) (A) (A) (A) (A) (A) (A) (A) (A)
       Virtual   (A) (A) (A) (A) (A) (A) (A) (A) (A) (A) (A) (A)
                 (A) (A) (A) (A) (A) (A) (A) (A) (A) (A) (A) (A)
                 (A) (A) (A) (A) (A) (A) (A) (A) (A) (A) (A) (A)
                 (A) (A) (A) (A) (A) (A) (A) (A) (A) (A) (A) (A)
                 (A) (A) (A) (A) (A) (A) (A) (A) (A) (A) (A) (A)
                 (A) (A) (A) (A) (A) (A) (A) (A) (A) (A) (A) (A)
                 (A) (A) (A) (A) (A) (A) (A) (A) (A) (A) (A) (A)
                 (A) (A) (A) (A) (A) (A) (A) (A) (A) (A) (A) (A)
                 (A) (A) (A) (A) (A) (A) (A) (A) (A) (A) (A) (A)
                 (A) (A) (A) (A) (A) (A) (A) (A) (A) (A) (A) (A)
                 (A) (A) (A) (A) (A) (A) (A) (A) (A) (A) (A) (A)
                 (A) (A) (A) (A) (A) (A) (A) (A) (A) (A) (A) (A)
                 (A) (A) (A) (A) (A) (A) (A) (A) (A) (A) (A) (A)
 The electronic state of the initial guess is 1-A.
 Leave Link  401 at Wed Apr  2 18:22:52 2014, MaxMem= 4026531840 cpu:       1.8
 (Enter /usr/caen/gaussian-09revc/g09/l502.exe)
 Closed shell SCF:
 Requested convergence on RMS density matrix=1.00D-08 within 128 cycles.
 Requested convergence on MAX density matrix=1.00D-06.
 Requested convergence on             energy=1.00D-06.
 No special actions if energy rises.
 Using DIIS extrapolation, IDIIS=  1040.
 Integral symmetry usage will be decided dynamically.
       152272 words used for storage of precomputed grid.
 Keep R1 ints in memory in canonical form, NReq=154778762.
 IEnd=      277104 IEndB=      277104 NGot=  4026531840 MDV=  3875073995
 LenX=  3875073995 LenY=  3875038958
 Symmetry not used in FoFDir.
 MinBra= 0 MaxBra= 2 Meth= 1.
 IRaf=       0 NMat=   1 IRICut=       1 DoRegI=T DoRafI=F ISym2E= 0 JSym2E=0.

 Cycle   1  Pass 1  IDiag  1:
 E= -235.917007109720    
 DIIS: error= 3.05D-04 at cycle   1 NSaved=   1.
 NSaved= 1 IEnMin= 1 EnMin= -235.917007109720     IErMin= 1 ErrMin= 3.05D-04
 ErrMax= 3.05D-04 EMaxC= 1.00D-01 BMatC= 2.38D-05 BMatP= 2.38D-05
 IDIUse=3 WtCom= 9.97D-01 WtEn= 3.05D-03
 Coeff-Com:  0.100D+01
 Coeff-En:   0.100D+01
 Coeff:      0.100D+01
 Gap=     0.271 Goal=   None    Shift=    0.000
 RMSDP=2.98D-05 MaxDP=4.78D-04              OVMax= 2.13D-03

 Cycle   2  Pass 1  IDiag  1:
 E= -235.917050155943     Delta-E=       -0.000043046223 Rises=F Damp=F
 DIIS: error= 5.50D-05 at cycle   2 NSaved=   2.
 NSaved= 2 IEnMin= 2 EnMin= -235.917050155943     IErMin= 2 ErrMin= 5.50D-05
 ErrMax= 5.50D-05 EMaxC= 1.00D-01 BMatC= 3.50D-07 BMatP= 2.38D-05
 IDIUse=1 WtCom= 1.00D+00 WtEn= 0.00D+00
 Coeff-Com: -0.601D-01 0.106D+01
 Coeff:     -0.601D-01 0.106D+01
 Gap=     0.270 Goal=   None    Shift=    0.000
 RMSDP=5.24D-06 MaxDP=1.54D-04 DE=-4.30D-05 OVMax= 3.57D-04

 Cycle   3  Pass 1  IDiag  1:
 E= -235.917050635461     Delta-E=       -0.000000479518 Rises=F Damp=F
 DIIS: error= 3.36D-05 at cycle   3 NSaved=   3.
 NSaved= 3 IEnMin= 3 EnMin= -235.917050635461     IErMin= 3 ErrMin= 3.36D-05
 ErrMax= 3.36D-05 EMaxC= 1.00D-01 BMatC= 2.40D-07 BMatP= 3.50D-07
 IDIUse=1 WtCom= 1.00D+00 WtEn= 0.00D+00
 Coeff-Com: -0.392D-01 0.516D+00 0.523D+00
 Coeff:     -0.392D-01 0.516D+00 0.523D+00
 Gap=     0.270 Goal=   None    Shift=    0.000
 RMSDP=2.30D-06 MaxDP=9.23D-05 DE=-4.80D-07 OVMax= 1.33D-04

 Cycle   4  Pass 1  IDiag  1:
 E= -235.917050876835     Delta-E=       -0.000000241374 Rises=F Damp=F
 DIIS: error= 3.93D-06 at cycle   4 NSaved=   4.
 NSaved= 4 IEnMin= 4 EnMin= -235.917050876835     IErMin= 4 ErrMin= 3.93D-06
 ErrMax= 3.93D-06 EMaxC= 1.00D-01 BMatC= 4.60D-09 BMatP= 2.40D-07
 IDIUse=1 WtCom= 1.00D+00 WtEn= 0.00D+00
 Coeff-Com: -0.285D-02 0.170D-01 0.117D+00 0.869D+00
 Coeff:     -0.285D-02 0.170D-01 0.117D+00 0.869D+00
 Gap=     0.270 Goal=   None    Shift=    0.000
 RMSDP=4.13D-07 MaxDP=1.38D-05 DE=-2.41D-07 OVMax= 2.36D-05

 Cycle   5  Pass 1  IDiag  1:
 E= -235.917050881701     Delta-E=       -0.000000004866 Rises=F Damp=F
 DIIS: error= 2.06D-06 at cycle   5 NSaved=   5.
 NSaved= 5 IEnMin= 5 EnMin= -235.917050881701     IErMin= 5 ErrMin= 2.06D-06
 ErrMax= 2.06D-06 EMaxC= 1.00D-01 BMatC= 8.14D-10 BMatP= 4.60D-09
 IDIUse=1 WtCom= 1.00D+00 WtEn= 0.00D+00
 Coeff-Com:  0.577D-03-0.179D-01 0.262D-01 0.395D+00 0.596D+00
 Coeff:      0.577D-03-0.179D-01 0.262D-01 0.395D+00 0.596D+00
 Gap=     0.270 Goal=   None    Shift=    0.000
 RMSDP=1.50D-07 MaxDP=4.66D-06 DE=-4.87D-09 OVMax= 1.13D-05

 Cycle   6  Pass 1  IDiag  1:
 E= -235.917050882411     Delta-E=       -0.000000000709 Rises=F Damp=F
 DIIS: error= 1.08D-06 at cycle   6 NSaved=   6.
 NSaved= 6 IEnMin= 6 EnMin= -235.917050882411     IErMin= 6 ErrMin= 1.08D-06
 ErrMax= 1.08D-06 EMaxC= 1.00D-01 BMatC= 1.24D-10 BMatP= 8.14D-10
 IDIUse=1 WtCom= 1.00D+00 WtEn= 0.00D+00
 Coeff-Com:  0.609D-03-0.113D-01-0.139D-02 0.961D-01 0.316D+00 0.600D+00
 Coeff:      0.609D-03-0.113D-01-0.139D-02 0.961D-01 0.316D+00 0.600D+00
 Gap=     0.270 Goal=   None    Shift=    0.000
 RMSDP=5.25D-08 MaxDP=1.79D-06 DE=-7.09D-10 OVMax= 6.75D-06

 Cycle   7  Pass 1  IDiag  1:
 E= -235.917050882524     Delta-E=       -0.000000000114 Rises=F Damp=F
 DIIS: error= 3.29D-07 at cycle   7 NSaved=   7.
 NSaved= 7 IEnMin= 7 EnMin= -235.917050882524     IErMin= 7 ErrMin= 3.29D-07
 ErrMax= 3.29D-07 EMaxC= 1.00D-01 BMatC= 1.34D-11 BMatP= 1.24D-10
 IDIUse=1 WtCom= 1.00D+00 WtEn= 0.00D+00
 Coeff-Com:  0.313D-03-0.535D-02-0.230D-02 0.320D-01 0.145D+00 0.345D+00
 Coeff-Com:  0.485D+00
 Coeff:      0.313D-03-0.535D-02-0.230D-02 0.320D-01 0.145D+00 0.345D+00
 Coeff:      0.485D+00
 Gap=     0.270 Goal=   None    Shift=    0.000
 RMSDP=1.89D-08 MaxDP=4.71D-07 DE=-1.14D-10 OVMax= 2.29D-06

 Cycle   8  Pass 1  IDiag  1:
 E= -235.917050882539     Delta-E=       -0.000000000014 Rises=F Damp=F
 DIIS: error= 7.82D-08 at cycle   8 NSaved=   8.
 NSaved= 8 IEnMin= 8 EnMin= -235.917050882539     IErMin= 8 ErrMin= 7.82D-08
 ErrMax= 7.82D-08 EMaxC= 1.00D-01 BMatC= 1.09D-12 BMatP= 1.34D-11
 IDIUse=1 WtCom= 1.00D+00 WtEn= 0.00D+00
 Coeff-Com:  0.238D-04-0.194D-03-0.902D-03-0.525D-02 0.652D-02 0.498D-01
 Coeff-Com:  0.241D+00 0.709D+00
 Coeff:      0.238D-04-0.194D-03-0.902D-03-0.525D-02 0.652D-02 0.498D-01
 Coeff:      0.241D+00 0.709D+00
 Gap=     0.270 Goal=   None    Shift=    0.000
 RMSDP=4.92D-09 MaxDP=1.33D-07 DE=-1.44D-11 OVMax= 4.13D-07

 SCF Done:  E(RB3LYP) =  -235.917050883     A.U. after    8 cycles
             Convg  =    0.4917D-08             -V/T =  2.0051
 KE= 2.347108985846D+02 PE=-1.020411190218D+03 EE= 3.124498755896D+02
 Leave Link  502 at Wed Apr  2 18:23:01 2014, MaxMem= 4026531840 cpu:      65.8
 (Enter /usr/caen/gaussian-09revc/g09/l701.exe)
 Compute integral first derivatives.
 ... and contract with generalized density number  0.
 Leave Link  701 at Wed Apr  2 18:23:01 2014, MaxMem= 4026531840 cpu:       1.1
 (Enter /usr/caen/gaussian-09revc/g09/l702.exe)
 L702 exits ... SP integral derivatives will be done elsewhere.
 Leave Link  702 at Wed Apr  2 18:23:02 2014, MaxMem= 4026531840 cpu:       0.1
 (Enter /usr/caen/gaussian-09revc/g09/l703.exe)
 Compute integral first derivatives, UseDBF=F ICtDFT=           0.
 Integral derivatives from FoFDir, PRISM(SPDF).
 Calling FoFJK, ICntrl=      2127 FMM=F ISym2X=0 I1Cent= 0 IOpClX= 0 NMat=1 NMatS=1 NMatT=0.
 FoFCou: FMM=F IPFlag=           0 FMFlag=      100000 FMFlg1=         800
         NFxFlg=           0 DoJE=F BraDBF=F KetDBF=F FulRan=T
         Omega=  0.000000  0.000000  1.000000  0.000000  0.000000 ICntrl=    2127 IOpCl=  0
         NMat0=    1 NMatS0=    1 NMatT0=    0 NMatD0=    1 NMtDS0=    0 NMtDT0=    0
         I1Cent=           0 NGrid=           0.
 Symmetry not used in FoFCou.
 Leave Link  703 at Wed Apr  2 18:23:05 2014, MaxMem= 4026531840 cpu:      28.3
 (Enter /usr/caen/gaussian-09revc/g09/l716.exe)
 Dipole        =-1.10645435D-01-4.55142882D-02-6.28693998D-02
 ***** Axes restored to original set *****
 -------------------------------------------------------------------
 Center     Atomic                   Forces (Hartrees/Bohr)
 Number     Number              X              Y              Z
 -------------------------------------------------------------------
      1        6          -0.000004297    0.000000468   -0.000004370
      2        1           0.000001989    0.000007042   -0.000000229
      3        6           0.000000581    0.000000195   -0.000000414
      4        1           0.000001531   -0.000001684   -0.000002698
      5        1           0.000003724    0.000001299   -0.000004327
      6        6           0.000004292   -0.000003783   -0.000002978
      7        1           0.000001495    0.000003253   -0.000000773
      8        6           0.000002231   -0.000004715   -0.000003157
      9        1          -0.000000101   -0.000005129   -0.000001673
     10        1          -0.000000472   -0.000003841   -0.000002454
     11        1           0.000001072   -0.000002486   -0.000005987
     12        6          -0.000005000    0.000001706    0.000005496
     13        1          -0.000003785   -0.000002651    0.000004354
     14        1          -0.000002313   -0.000006202    0.000002806
     15        1          -0.000004638    0.000002658    0.000005578
     16        6           0.000005075    0.000005852    0.000005404
     17        1          -0.000000732    0.000000906    0.000002230
     18        1          -0.000000652    0.000007111    0.000003191
 -------------------------------------------------------------------
 Cartesian Forces:  Max     0.000007111 RMS     0.000003576
 Leave Link  716 at Wed Apr  2 18:23:05 2014, MaxMem= 4026531840 cpu:       0.1
 (Enter /usr/caen/gaussian-09revc/g09/l103.exe)

 GradGradGradGradGradGradGradGradGradGradGradGradGradGradGradGradGradGrad
 Berny optimization.
 Using GEDIIS/GDIIS optimizer.
 Internal  Forces:  Max     0.000006928 RMS     0.000001688
 Search for a local minimum.
 Step number   2 out of a maximum of   94
 All quantities printed in internal units (Hartrees-Bohrs-Radians)
 RMS Force = .16877D-05 SwitMx=.10000D-02 MixMth= 2
 Mixed Optimization -- En-DIIS/RFO-DIIS
 Swaping is turned off.
 Update second derivatives using D2CorX and points    1    2
 DE= -3.83D-06 DEPred=-4.55D-06 R= 8.41D-01
 SS=  1.41D+00  RLast= 2.58D-02 DXNew= 5.0454D-01 7.7527D-02
 Trust test= 8.41D-01 RLast= 2.58D-02 DXMaxT set to 3.00D-01
[...]
 6216,-0.0636280228,-1.4381149755\C,0,-2.2341456245,-0.6544365691,0.150
 6768278\H,0,-2.2925544744,-0.630521752,1.2443657601\H,0,-3.1133024014,
 -0.133072624,-0.2387109803\H,0,-2.2977917884,-1.7004616472,-0.16355234
 49\C,0,-0.8894794399,1.4853092069,0.0449372403\H,0,-1.7413890015,2.027
 9253137,-0.3749672379\H,0,-0.924286173,1.6027725217,1.1338303799\H,0,0
 .0260416577,1.9636917634,-0.3104382197\C,0,2.6496507072,0.1304038261,0
 .2607338163\H,0,2.6317462515,0.2235145227,1.3427110646\H,0,3.566036892
 9,0.4244350968,-0.2389482396\\Version=EM64L-G09RevC.01\State=1-A\HF/Cb
 sB3=-234.2522166\E2(CBS)/CbsB3=-1.1131936\CBS-Int/CbsB3=0.034964\OIii/
 CbsB3=9.1327163\MP2/CbsB4=-235.068525\MP4(SDQ)/CbsB4=-235.1435528\MP4(
 SDQ)/6-31+G(d')=-235.0445357\QCISD(T)/6-31+G(d')=-235.0749299\CBSQB3=-
 235.3261239\FreqCoord=3.0237132891,-0.6187994782,-0.785759878,3.151435
 1998,-0.7586982694,-2.8368583578,0.5584222198,-1.4536944602,0.34868526
 36,0.6436493995,-1.2879915039,2.4128555193,0.284247391,-3.4674684722,-
 0.0726256223,-1.7721019618,0.003444572,-0.6454902036,-1.7444829569,-0.
 1202395375,-2.7176434513,-4.2219233713,-1.2367058869,0.2847379392,-4.3
 323001013,-1.191513432,2.3515104957,-5.8832889076,-0.2514708152,-0.451
 0983777,-4.3421971905,-3.2134068127,-0.3090691402,-1.6808725422,2.8068
 276238,0.0849190772,-3.2907483037,3.8322234609,-0.7085853885,-1.746647
 7354,3.0288011193,2.1426288992,0.0492116011,3.7108396422,-0.5866432163
 ,5.0071141843,0.2464275181,0.4927155064,4.9732796665,0.4223812346,2.53
 73561877,6.7388331074,0.8020660941,-0.4515467329\PG=C01 [X(C6H12)]\NIm
 ag=0\\0.65808688,0.19796510,0.23730498,0.11568601,0.08900416,0.6695323
 7,-0.05527176,-0.00358618,0.02050711,0.05586601,-0.00396709,-0.0444303
 4,-0.01800627,0.00986368,0.03182886,0.01634055,-0.01960381,-0.31497186
 ,-0.01820637,0.02206668,0.33901546,-0.16882491,-0.03393368,0.04546083,
 -0.00065943,-0.00099553,-0.00069549,0.44371296,-0.03583365,-0.08719267
 ,0.01539224,0.00214785,0.00319866,-0.00139553,0.03689114,0.51678517,0.
 05060644,0.01684759,-0.11505404,0.02658429,0.00973311,-0.01152405,-0.0
 0871019,0.03444129,0.56769146,-0.00041506,0.00293689,0.03073794,-0.004
 29890,-0.00222161,0.00207537,-0.04773284,-0.00182718,-0.01168862,0.055
 87997,-0.00018645,0.00041360,0.01092484,-0.00197599,0.00096798,0.00101
 449,-0.00164982,-0.05062338,-0.02444622,0.00106005,0.05084411,0.000260
 52,-0.00151352,-0.01551582,0.00203960,0.00075663,0.00018384,-0.0088795
 1,-0.02302637,-0.29331334,0.01086104,0.02399984,0.32235151,-0.00891070
 ,-0.03038693,-0.00759505,0.00076926,0.00092019,0.00025464,-0.04583876,
 -0.03527088,-0.00619681,-0.00073342,-0.00120800,-0.00035524,0.05994685
 ,-0.00482984,-0.00895817,-0.00255928,-0.00040014,0.00041989,0.00046093
 ,-0.03137465,-0.27515747,-0.05202519,-0.00012778,-0.00231079,-0.001185
 91,0.03569339,0.30348630,0.00126485,0.01378703,0.00377875,-0.00056228,
 -0.00045629,0.00031719,-0.00448651,-0.05062901,-0.06109370,-0.00435664
 ,-0.03091460,-0.00651942,0.00723367,0.05523339,0.06040602,-0.03302483,
 0.00932729,-0.00836660,0.00199450,-0.00026699,-0.00060565,-0.11955521,
 0.03582527,-0.02595966,-0.00275023,0.00181978,-0.00146234,0.00075801,-
 0.00050482,-0.00035860,0.45188386,-0.00463631,0.00827452,-0.00771246,-
 0.00038054,0.00024642,0.00030452,0.02845966,-0.09435165,0.01778067,-0.
 00207847,0.00040237,-0.00047001,0.02627027,-0.01944065,0.01265773,0.00
 729481,0.46285593,0.00589725,-0.01058780,0.00737432,0.00136750,-0.0000
 5126,-0.00007433,-0.01998029,0.01509639,-0.09253337,-0.02641324,0.0174
 9607,-0.01336378,0.00596812,-0.00427666,0.00177373,-0.00870659,0.01011
 513,0.57730729,0.00165212,-0.00041184,-0.00153602,-0.00039019,0.000002
 40,0.00062748,-0.00295508,-0.00056375,-0.02764514,-0.00399275,0.002789
 90,-0.00196927,0.00087350,-0.00021206,0.00063461,-0.04724153,0.0004765
 4,0.00247101,0.05710462,-0.00085749,0.00031106,-0.00016095,0.00013161,
 0.00013895,-0.00027013,0.00148583,0.00011848,0.01740083,0.00272690,-0.
 00114554,0.00129037,-0.00071087,0.00040121,0.00000110,0.00043888,-0.04
 828580,-0.01457735,-0.00037840,0.05774815,0.00146214,0.00006741,0.0001
 0451,-0.00094231,-0.00016913,0.00065277,-0.00214910,0.00026682,-0.0134
 3619,-0.00167833,0.00160712,0.00048442,0.00003649,0.00048510,0.0004267
 5,0.00287136,-0.01489337,-0.28964055,-0.00316293,0.01549992,0.31692272
 ,-0.00259009,0.00225997,-0.00297105,-0.00014075,-0.00003207,0.00018289
 ,-0.03293410,-0.00813815,0.00890449,0.00143662,-0.00075946,0.00066464,
 0.00104176,-0.00177275,0.00057922,-0.14768057,-0.03602854,0.02904429,-
 0.00300276,-0.00148872,0.00139652,0.49067930,0.00266902,-0.00238238,0.
 00237246,-0.00009205,-0.00004106,-0.00016555,0.01342443,0.00639296,-0.
 00644479,-0.00005307,0.00001665,-0.00006890,0.00163945,0.00071871,-0.0
 0022260,-0.03630917,-0.09484634,0.01427518,0.00019782,-0.00007146,0.00
 011891,-0.04032735,0.55088131,-0.00106955,0.00164811,-0.00191090,-0.00
 020603,-0.00001625,0.00041573,-0.01040292,-0.00464555,0.00457869,-0.00
 122313,-0.00027828,0.00035649,0.00051611,-0.00047527,0.00025078,0.0305
 2858,0.01507475,-0.09089699,0.03006079,0.01517066,-0.01131375,0.030999
 41,0.01521581,0.54557845,-0.00013877,-0.00010482,-0.00002230,0.0001424
 0,0.00005507,-0.00023355,0.00189965,0.00001122,0.00132694,-0.00032933,
 -0.00005471,-0.00067615,-0.00007757,0.00010429,-0.00002816,-0.00226591
 ,0.00091561,0.02966213,-0.00466177,-0.00269244,0.00192503,-0.04694258,
 0.00048117,0.00904586,0.05062716,0.00009080,-0.00012345,0.00004921,0.0
 0003096,-0.00000152,-0.00003327,0.00066044,0.00008426,-0.00031351,-0.0
 0003262,0.00032759,-0.00017939,-0.00006429,-0.00002573,-0.00021089,-0.
 00043321,-0.00040355,0.01486924,-0.00264455,-0.00068790,0.00107635,0.0
 0056306,-0.04770200,-0.00770649,0.00173512,0.04730617,0.00009938,-0.00
 000665,0.00049250,-0.00024691,-0.00003174,0.00005949,-0.00091942,-0.00
 002833,0.00044513,0.00075049,-0.00022092,0.00057443,0.00005615,0.00001
 389,-0.00008723,0.00116128,-0.00014959,-0.01249407,0.00223854,0.001191
 48,0.00091374,0.00960076,-0.00741607,-0.30024301,-0.01279105,0.0070524
 9,0.32865888,-0.00056330,0.00116668,-0.00146633,-0.00006623,-0.0000105
 7,0.00014393,-0.00399365,-0.00361080,0.00356380,0.00020569,-0.00014108
 ,-0.00010135,0.00039880,-0.00016958,0.00020037,-0.02181273,0.01386109,
 -0.01103422,0.00092844,0.00032575,0.00044812,-0.20988011,0.09933957,-0
 .07501382,0.00145380,-0.00137899,0.00028427,0.23063528,-0.00057688,0.0
 0083250,-0.00014254,0.00001999,-0.00000535,0.00001187,-0.00210464,-0.0
 0115382,0.00075519,0.00004225,-0.00010004,0.00005258,-0.00017066,0.000
 44466,0.00014964,-0.01186752,0.00583985,-0.00632421,0.00077352,0.00038
 424,-0.00032122,0.10050486,-0.10826112,0.04580663,-0.00193560,0.000039
 94,-0.00060579,-0.10855127,0.11506436,0.00054138,-0.00012864,0.0007764
 4,-0.00010169,-0.00004272,0.00001156,0.00171585,0.00079097,-0.00035703
 ,0.00042820,0.00000753,0.00038181,-0.00006050,0.00029238,-0.00020044,0
 .00959026,-0.00612305,0.00349250,-0.00032619,-0.00064962,0.00051979,-0
 .07570697,0.04566303,-0.08146305,-0.02611852,0.01645255,-0.01116978,0.
 08134355,-0.05131754,0.08473076,0.00019325,0.00026553,0.00029720,0.000
 01059,-0.00004102,-0.00002880,0.00130970,-0.00155087,-0.00046199,-0.00
 004823,0.00008070,0.00002396,-0.00038635,0.00066651,0.00007870,-0.0014
 6920,-0.02653178,-0.00988504,0.00112484,0.00067475,-0.00001554,-0.0473
 9887,-0.01000558,-0.00326361,-0.00094508,0.00102012,-0.00006382,0.0017
 2951,0.02437903,0.00893322,0.05051533,-0.00015491,0.00046762,0.0001854
 0,-0.00000053,-0.00006124,0.00000193,0.00118680,0.00029509,-0.00012131
 ,0.00003872,0.00002389,0.00006464,-0.00062836,0.00094565,-0.00011907,0
 .00068633,-0.01343970,-0.00427614,0.00010469,0.00037012,0.00059064,-0.
 01149046,-0.28132132,-0.07276508,0.00024881,0.00015033,-0.00026766,-0.
 00072065,-0.01424615,-0.00458820,0.01402187,0.30711740,-0.00018906,0.0
 0018446,-0.00002695,0.00003637,0.00000231,-0.00003286,-0.00035472,-0.0
 0018951,-0.00008940,0.00001632,-0.00013737,0.00000919,-0.00023193,0.00
 000447,0.00026414,0.00028834,0.01163812,0.00249466,-0.00068565,0.00012
 845,0.00046521,-0.00384189,-0.07313244,-0.06983900,-0.00111054,-0.0316
 1573,-0.00869146,0.00137164,0.01218367,0.00327089,0.00227365,0.0796112
 5,0.07163972,0.00075788,0.00208740,-0.00017178,-0.00007985,0.00007720,
 0.00023248,-0.00037944,0.02776283,0.00675734,0.00098066,-0.00063145,0.
 00062669,-0.00464053,0.00354098,-0.00153948,-0.07857717,-0.00269064,-0
 .00036473,-0.00013077,0.00044785,-0.00000859,-0.00321355,-0.03105584,-
 0.00753557,0.00098307,0.00055449,-0.00053532,0.00087498,-0.00065792,-0
 .00026747,-0.00506753,-0.00361079,0.00186313,0.57435339,0.00010002,-0.
 00001880,0.00011521,0.00006466,0.00004307,0.00001700,0.00624266,-0.022
 12942,-0.00257256,-0.00138763,0.00114485,-0.00077251,0.00197209,-0.000
 04631,0.00044496,-0.00498122,-0.17069954,-0.02660396,-0.00016821,-0.00
 545567,-0.00191325,-0.00670658,-0.02107196,-0.00321311,0.00142628,0.00
 097691,-0.00061874,0.00156956,0.00112470,-0.00026816,-0.00130032,-0.00
 002754,0.00070533,-0.00078315,0.46720598,0.00028864,0.00020459,-0.0005
 8625,-0.00011798,-0.00000132,0.00008638,0.00036704,0.01141532,0.003152
 27,-0.00010395,0.00138811,0.00071875,-0.00247522,0.00245702,-0.0003222
 7,-0.00068772,-0.02915515,-0.08751027,-0.00112724,-0.03407267,-0.00884
 268,0.00018123,0.01071102,0.00332970,0.00024808,0.00137460,0.00061974,
 -0.00053998,-0.00042634,0.00003753,0.00223989,0.00214959,-0.00038052,-
 0.00099095,-0.02937741,0.55041320,-0.00001418,0.00015593,-0.00037986,0
 .00001298,-0.00003915,0.00002559,0.00071477,-0.00042589,0.00059407,0.0
 0000983,-0.00015316,0.00002198,0.00004217,0.00005826,-0.00010650,0.000
 18788,-0.00149840,0.00117706,0.00013839,0.00041229,0.00045550,0.000693
 78,-0.00070253,0.00022222,-0.00002595,-0.00002313,0.00003632,0.0003585
 2,0.00001171,-0.00013515,0.00020380,0.00010295,0.00011399,-0.20558269,
 0.09835960,-0.07920054,0.22211083,-0.00112772,-0.00017986,0.00024779,0
 .00009271,-0.00003008,-0.00008009,-0.00166927,-0.00585607,-0.00272084,
 -0.00028768,0.00021759,-0.00001145,0.00173640,-0.00123476,0.00045322,0
 .02530324,-0.01550690,0.01375200,-0.00003962,0.00130942,-0.00036040,0.
 00154068,0.00119918,0.00050040,-0.00008283,-0.00006047,-0.00002337,-0.
 00114670,0.00001747,-0.00013032,-0.00012981,0.00043436,-0.00031172,0.0
 9711787,-0.10680349,0.04881053,-0.10805332,0.11800765,-0.00011288,-0.0
 0006407,0.00014960,-0.00001214,-0.00001019,0.00002223,-0.00011685,-0.0
 0164705,-0.00013493,0.00020905,-0.00026259,0.00041667,0.00029088,-0.00
 027640,0.00053053,0.00791572,-0.00491359,0.00270387,0.00043828,0.00052
 283,0.00054843,-0.00004034,0.00033998,-0.00009471,-0.00015640,0.000057
 12,-0.00004882,0.00015136,0.00018988,0.00025248,0.00023613,-0.00003086
 ,-0.00007013,-0.07924694,0.04960547,-0.08671900,0.08761107,-0.05264301
 ,0.09021717,-0.00008258,-0.00015055,-0.00001234,0.00006350,-0.00004555
 ,-0.00009197,0.00025152,0.00003333,0.00121969,0.00013304,0.00012759,-0
 .00021161,-0.00003095,-0.00005572,-0.00015342,-0.00099904,0.00005389,-
 0.00101695,0.00065380,-0.00024333,-0.00005188,0.00019197,0.00004825,-0
 .00110863,0.00021276,-0.00017221,0.00017934,-0.00001056,0.00000105,-0.
 00011139,-0.00006967,0.00013537,0.00017753,-0.04753034,0.00090433,0.00
 845798,0.00125036,-0.00314259,-0.02594439,0.04599216,0.00009738,-0.000
 01301,0.00005270,-0.00012835,-0.00003773,0.00008708,-0.00082977,0.0015
 8420,-0.00124267,0.00037840,0.00000076,0.00103290,-0.00025534,0.000305
 58,0.00038268,0.00104142,-0.00429134,-0.03385434,-0.00022592,-0.006360
 59,-0.00170982,0.00091159,0.00168686,-0.00095624,-0.00038677,0.0000203
 8,0.00097509,-0.00008554,-0.00006266,0.00013615,0.00025837,0.00027130,
 0.00034184,0.00086205,-0.04884189,-0.02244569,-0.00172583,0.00097371,0
 .01570297,-0.00077865,0.05393766,0.00011570,-0.00013710,0.00011735,-0.
 00012043,0.00001855,0.00008461,-0.00037805,0.00065524,0.00050809,0.000
 69107,-0.00049267,0.00056215,0.00004496,-0.00003352,0.00030626,0.00030
 520,-0.00150212,-0.01006601,-0.00004521,-0.00199015,0.00118076,0.00029
 062,0.00066840,0.00066697,-0.00070017,-0.00051599,0.00057237,0.0000342
 4,-0.00002031,-0.00006736,-0.00004237,-0.00003584,0.00039522,0.0081927
 3,-0.02283196,-0.29790979,0.00067254,-0.00078022,-0.01189948,-0.009017
 67,0.02754732,0.32575128,-0.00024101,0.00069909,0.00010397,0.00001561,
 -0.00001951,-0.00004741,0.00000182,0.00019110,-0.00027333,-0.00003028,
 -0.00005476,0.00001404,0.00006312,-0.00015129,0.00003653,0.00006132,0.
 00005256,-0.00061508,0.00015795,-0.00035677,-0.00034578,0.00062826,-0.
 00040452,-0.00076355,0.00001051,0.00011487,0.00003910,0.00039906,0.000
 18341,0.00008566,0.00008274,-0.00006689,0.00027025,-0.23251812,-0.0949
 1436,0.07361465,-0.02023270,-0.01043283,0.00878210,0.00002576,0.000777
 59,-0.00010672,0.25196318,-0.00018286,-0.00028739,-0.00020894,0.000151
 39,-0.00012437,-0.00011838,-0.00081711,0.00103903,0.00038161,0.0001239
 7,-0.00010531,0.00001458,-0.00012157,0.00025639,-0.00018840,-0.0274446
 2,-0.01298956,0.01231203,0.00021756,0.00127279,-0.00028954,0.00151236,
 -0.00623730,-0.00273605,0.00027515,0.00011974,0.00006284,-0.00001666,0
 .00022156,-0.00022055,-0.00186452,-0.00103059,0.00060369,-0.09279897,-
 0.09475864,0.03666578,0.01326170,0.00712207,-0.00653600,0.00319397,0.0
 0076518,-0.00051499,0.10391389,0.10420059,0.00050220,-0.00005825,0.000
 37787,0.00003778,-0.00007006,-0.00012515,0.00029475,0.00056489,0.00009
 730,0.00008057,0.00004363,-0.00006695,-0.00013772,0.00002419,-0.000069
 09,-0.00885315,-0.00373472,0.00230388,-0.00038107,0.00058241,0.0004111
 7,0.00007676,-0.00154188,-0.00005618,-0.00023360,-0.00031669,0.0004042
 8,0.00030675,-0.00001075,-0.00009687,-0.00025898,-0.00040480,0.0006212
 7,0.07295481,0.03747501,-0.07659334,-0.01134226,-0.00678719,0.00417445
 ,0.02784261,0.01393827,-0.01020640,-0.08076108,-0.03936423,0.07922351,
 -0.37674513,-0.13861150,-0.17895729,0.00379508,-0.00085399,0.00271079,
 -0.02675038,-0.01399834,-0.01353187,0.00139034,0.00072808,-0.00158212,
 -0.00220748,-0.00027075,0.00109582,0.00054101,-0.00295831,0.00227848,-
 0.00024450,0.00008767,-0.00035442,-0.00070058,0.00093593,-0.00065585,0
 .00006520,-0.00000582,0.00007939,-0.00054465,-0.00005995,0.00015533,0.
 00014868,0.00009398,-0.00000081,-0.00014212,-0.00033240,-0.00013205,0.
 00012496,0.00024614,-0.00004731,0.00000262,0.00003568,0.00001553,-0.00
 038111,0.00055595,-0.00003445,0.70516593,-0.13811334,-0.10876000,-0.08
 391163,-0.00361489,0.00493822,-0.00109179,-0.01398875,0.00208705,-0.00
 484750,0.00077917,-0.00010551,-0.00037471,-0.00021324,0.00019127,0.000
 19826,0.00125471,-0.00269779,0.00174592,-0.00005304,0.00005177,-0.0001
 5130,-0.00028770,0.00072124,-0.00045166,0.00003215,-0.00003378,0.00003
 447,-0.00029780,-0.00005992,0.00006263,0.00007712,0.00013054,0.0000119
 4,-0.00030972,-0.00055149,0.00038807,0.00032386,0.00043128,-0.00002262
 ,0.00003137,0.00003814,-0.00004442,0.00045187,0.00060182,-0.00048979,0
 .22998081,0.19874137,-0.17700817,-0.08287752,-0.22906772,-0.02765661,-
 0.01266876,-0.01554576,0.00872853,0.00330552,0.01147170,0.00094029,0.0
 0061530,0.00145723,0.00293087,0.00196850,-0.00032592,0.00249908,0.0012
 7263,-0.00157172,0.00013150,-0.00000341,0.00054181,0.00083575,-0.00055
 469,0.00072389,-0.00012429,-0.00003485,-0.00002554,0.00040829,0.000037
 76,-0.00012770,-0.00010149,-0.00003247,-0.00002889,0.00003791,-0.00009
 465,0.00065104,0.00017965,0.00001085,-0.00013099,-0.00002165,0.0000082
 2,-0.00014725,-0.00005865,0.00011702,-0.00023779,0.06713964,0.07867156
 ,0.67848507,0.00408185,-0.00311837,-0.02594577,-0.00169966,-0.00530108
 ,-0.00209001,0.00045940,0.00317039,-0.00206787,-0.00002319,-0.00000948
 ,0.00082204,0.00049910,0.00025435,0.00018210,-0.00032642,-0.00023520,0
 .00005449,0.00002659,-0.00002093,0.00016253,-0.00006215,0.00007044,-0.
 00004265,-0.00003388,-0.00000414,0.00002909,-0.00001869,-0.00003796,0.
 00001985,-0.00000136,0.00000727,-0.00000569,0.00001491,-0.00009470,0.0
 0001148,0.00005048,0.00001853,0.00004152,-0.00009171,0.00005231,0.0000
 5487,-0.00000332,0.00001352,-0.00011316,-0.05448637,-0.00613218,0.0113
 4063,0.04949891,-0.00066237,0.00452077,-0.01139773,-0.00525590,0.00964
 560,-0.00184984,0.00383571,-0.00718320,-0.00001400,-0.00019470,0.00013
 814,0.00026588,-0.00128000,-0.00040083,-0.00010663,0.00045137,0.000941
 65,-0.00023287,0.00013725,-0.00009244,0.00020197,0.00020234,-0.0002237
 9,0.00020651,-0.00003919,-0.00000243,-0.00000297,0.00012003,0.00007371
 ,-0.00002609,0.00000298,-0.00000951,0.00000352,0.00003856,0.00016877,-
 0.00007905,-0.00007175,-0.00008088,-0.00001169,0.00009702,0.00001120,-
 0.00002964,-0.00007456,-0.00006968,0.00017402,-0.00638769,-0.03944697,
 -0.02269458,0.00918667,0.02944146,0.00212184,-0.00114223,-0.01567356,-
 0.00224794,-0.00187345,0.00014311,0.00143978,0.00140813,0.00105134,-0.
 00102706,-0.00029134,0.00078997,0.00015359,0.00008703,0.00018658,-0.00
 006825,-0.00013308,0.00029285,0.00019630,-0.00002849,0.00005742,-0.000
 08249,0.00010349,-0.00001243,-0.00001495,-0.00000631,0.00001456,-0.000
 04588,-0.00002175,-0.00000197,0.00001614,0.00001428,-0.00000639,-0.000
 00529,-0.00008158,-0.00004785,0.00004332,0.00004974,0.00004471,-0.0000
 9474,-0.00000328,0.00011005,0.00001251,-0.00000659,-0.00014391,0.00733
 262,-0.02432842,-0.32668059,-0.00584669,0.02796074,0.34915183,-0.01794
 967,-0.00656001,0.01463134,-0.00006315,0.00287560,-0.00059448,0.001273
 98,-0.00481361,-0.00302157,0.00031807,0.00021827,-0.00009693,-0.001566
 81,-0.00044841,0.00028570,0.00027628,-0.00034621,0.00009580,-0.0000408
 9,0.00001740,-0.00004878,-0.00012558,0.00014405,-0.00008765,0.00002629
 ,-0.00001092,0.00000242,-0.00009416,0.00004659,0.00001457,0.00006783,0
 .00004578,0.00000905,-0.00010278,0.00002937,-0.00003334,-0.00004322,0.
 00005681,0.00000115,0.00003737,0.00000137,-0.00000685,-0.00000278,0.00
 002683,0.00001923,-0.24903149,-0.06992042,0.10979875,0.00211552,-0.000
 10577,-0.00188282,0.26490519,-0.00979341,0.00022103,0.00575580,0.00293
 172,-0.00669596,0.00064387,-0.00482345,0.01206279,-0.00259170,0.000124
 39,-0.00010695,0.00012536,0.00207834,0.00040507,-0.00046051,-0.0016355
 6,-0.00160790,0.00112263,-0.00000231,-0.00000679,-0.00010622,-0.000463
 09,0.00054184,-0.00037889,0.00001148,0.00001552,0.00004160,-0.00025303
 ,-0.00015393,0.00008964,-0.00002308,-0.00007022,-0.00003231,0.00004925
 ,-0.00025952,-0.00000699,0.00000686,0.00003978,-0.00000017,-0.00003758
 ,0.00001224,0.00003944,0.00009111,0.00000367,-0.00002407,-0.06918548,-
 0.05627723,0.03295358,0.00218056,0.00256844,-0.00170691,0.07874327,0.0
 4930812,-0.01680725,-0.00562375,0.01010338,-0.00015195,0.00082016,0.00
 128164,-0.00093374,-0.00177546,-0.00145994,-0.00029937,-0.00005293,0.0
 0049286,-0.00043303,-0.00019467,0.00037734,-0.00009126,-0.00005641,0.0
 0040801,0.00008020,-0.00003529,0.00000368,-0.00011384,0.00007864,-0.00
 007066,0.00000163,0.00000155,0.00000478,-0.00005473,0.00000324,0.00001
 045,0.00002275,0.00002373,0.00000529,0.00000105,-0.00001510,-0.0000966
 4,0.00001100,0.00002408,0.00003794,-0.00004052,0.00000680,0.00004119,0
 .00001280,0.00002612,-0.00001805,0.11448858,0.03460098,-0.11944087,0.0
 2339328,0.00763245,-0.00927570,-0.11908559,-0.03546415,0.11759530\\0.0
 0000429,-0.00000048,0.00000436,-0.00000199,-0.00000704,0.00000024,-0.0
 0000058,-0.00000016,0.00000038,-0.00000152,0.00000168,0.00000273,-0.00
 000372,-0.00000133,0.00000432,-0.00000432,0.00000382,0.00000291,-0.000
 00149,-0.00000325,0.00000083,-0.00000225,0.00000475,0.00000312,0.00000
 010,0.00000513,0.00000169,0.00000051,0.00000381,0.00000248,-0.00000108
 ,0.00000247,0.00000599,0.00000499,-0.00000172,-0.00000554,0.00000381,0
 .00000264,-0.00000434,0.00000231,0.00000621,-0.00000279,0.00000462,-0.
 00000266,-0.00000557,-0.00000507,-0.00000586,-0.00000540,0.00000073,-0
 .00000091,-0.00000222,0.00000066,-0.00000711,-0.00000320\\\@
 Job cpu time:  0 days  0 hours 20 minutes 17.1 seconds.
 File lengths (MBytes):  RWF=   6876 Int=      0 D2E=      0 Chk=      7 Scr=      1
 Normal termination of Gaussian 09 at Wed Apr  2 18:36:15 2014.
