 Entering Gaussian System, Link 0=g09
 Initial command:
 /usr/caen/gaussian-09revc/g09/l1.exe /scratch/avioli_flux/hetanjin/scratch/Gau-20237.inp -scrdir=/scratch/avioli_flux/hetanjin/scratch/
 Entering Link 1 = /usr/caen/gaussian-09revc/g09/l1.exe PID=     20238.
  
 Copyright (c) 1988,1990,1992,1993,1995,1998,2003,2009,2011,
            Gaussian, Inc.  All Rights Reserved.
  
 This is part of the Gaussian(R) 09 program.  It is based on
 the Gaussian(R) 03 system (copyright 2003, Gaussian, Inc.),
 the Gaussian(R) 98 system (copyright 1998, Gaussian, Inc.),
 the Gaussian(R) 94 system (copyright 1995, Gaussian, Inc.),
 the Gaussian 92(TM) system (copyright 1992, Gaussian, Inc.),
 the Gaussian 90(TM) system (copyright 1990, Gaussian, Inc.),
 the Gaussian 88(TM) system (copyright 1988, Gaussian, Inc.),
 the Gaussian 86(TM) system (copyright 1986, Carnegie Mellon
 University), and the Gaussian 82(TM) system (copyright 1983,
 Carnegie Mellon University). Gaussian is a federally registered
 trademark of Gaussian, Inc.
  
 This software contains proprietary and confidential information,
 including trade secrets, belonging to Gaussian, Inc.
  
 This software is provided under written license and may be
 used, copied, transmitted, or stored only in accord with that
 written license.
  
 The following legend is applicable only to US Government
 contracts under FAR:
  
                    RESTRICTED RIGHTS LEGEND
  
 Use, reproduction and disclosure by the US Government is
 subject to restrictions as set forth in subparagraphs (a)
 and (c) of the Commercial Computer Software - Restricted
 Rights clause in FAR 52.227-19.
  
 Gaussian, Inc.
 340 Quinnipiac St., Bldg. 40, Wallingford CT 06492
  
  
 ---------------------------------------------------------------
 Warning -- This program may not be used in any manner that
 competes with the business of Gaussian, Inc. or will provide
 assistance to any competitor of Gaussian, Inc.  The licensee
 of this program is prohibited from giving any competitor of
 Gaussian, Inc. access to this program.  By using this program,
 the user acknowledges that Gaussian, Inc. is engaged in the
 business of creating and licensing software in the field of
 computational chemistry and represents and warrants to the
 licensee that it is not a competitor of Gaussian, Inc. and that
 it will not use this program in any manner prohibited above.
 ---------------------------------------------------------------
  

 Cite this work as:
 Gaussian 09, Revision C.01,
 M. J. Frisch, G. W. Trucks, H. B. Schlegel, G. E. Scuseria, 
 M. A. Robb, J. R. Cheeseman, G. Scalmani, V. Barone, B. Mennucci, 
 G. A. Petersson, H. Nakatsuji, M. Caricato, X. Li, H. P. Hratchian, 
 A. F. Izmaylov, J. Bloino, G. Zheng, J. L. Sonnenberg, M. Hada, 
 M. Ehara, K. Toyota, R. Fukuda, J. Hasegawa, M. Ishida, T. Nakajima, 
 Y. Honda, O. Kitao, H. Nakai, T. Vreven, J. A. Montgomery, Jr., 
 J. E. Peralta, F. Ogliaro, M. Bearpark, J. J. Heyd, E. Brothers, 
 K. N. Kudin, V. N. Staroverov, T. Keith, R. Kobayashi, J. Normand, 
 K. Raghavachari, A. Rendell, J. C. Burant, S. S. Iyengar, J. Tomasi, 
 M. Cossi, N. Rega, J. M. Millam, M. Klene, J. E. Knox, J. B. Cross, 
 V. Bakken, C. Adamo, J. Jaramillo, R. Gomperts, R. E. Stratmann, 
 O. Yazyev, A. J. Austin, R. Cammi, C. Pomelli, J. W. Ochterski, 
 R. L. Martin, K. Morokuma, V. G. Zakrzewski, G. A. Voth, 
 P. Salvador, J. J. Dannenberg, S. Dapprich, A. D. Daniels, 
 O. Farkas, J. B. Foresman, J. V. Ortiz, J. Cioslowski, 
 and D. J. Fox, Gaussian, Inc., Wallingford CT, 2010.
 
 ******************************************
 Gaussian 09:  EM64L-G09RevC.01 23-Sep-2011
                 9-Feb-2014 
 ******************************************
 %mem=30GB
 %nprocshared=8
 Will use up to    8 processors via shared memory.
 %chk=C9H18_1_26.chk
 -------------------------------------------------
 #p B3LYP/6-311++G(d,p) guess=mix stable=(opt,xqc)
 -------------------------------------------------
 1/38=1/1;
 2/12=2,17=6,18=5,40=1/2;
 3/5=4,6=6,7=1111,11=2,16=1,25=1,30=1,74=-5/1,2,3;
 4/13=-1/1;
 5/5=2,38=5/2;
 6/7=2,8=2,9=2,10=2,28=1/1;
 8/6=1,10=90,11=11/1;
 9/8=-3,42=1,46=1/14;
 5/5=2,8=3,13=1,17=40,38=5/2,8(-2);
 6/7=2,8=2,9=2,10=2,28=1/1;
 99/5=1,9=1/99;
 Leave Link    1 at Sun Feb  9 03:45:57 2014, MaxMem= 4026531840 cpu:       0.5
 (Enter /usr/caen/gaussian-09revc/g09/l101.exe)
 ---------------------------------------
 C9H18_1_26 using cbs-qb3 to cal. energy
 ---------------------------------------
 Charge =  0 Multiplicity = 1
 Symbolic Z-Matrix:
 C                     3.74629  -0.84282   0.22605 
 H                     3.61049  -1.88689  -0.06317 
 H                     4.05544  -0.81682   1.27793 
 H                     4.58181  -0.43377  -0.35483 
 C                     1.38271  -0.60174  -0.48284 
 H                     1.4335   -1.66682  -0.70988 
 C                     0.04412   0.02694  -0.75949 
 H                    -0.21491  -0.14636  -1.81353 
 H                     0.08811   1.10998  -0.63088 
 C                    -1.07654  -0.56554   0.11767 
 H                    -0.87641  -0.32029   1.1688 
 H                    -1.03011  -1.65941   0.04868 
 C                    -2.5026   -0.11293  -0.24762 
 H                    -2.66043  -0.34354  -1.31055 
 C                    -3.54062  -0.90305   0.5618 
 H                    -3.42698  -0.71145   1.6346 
 H                    -4.56042  -0.62234   0.28174 
 H                    -3.43419  -1.98043   0.40361 
 C                    -2.70792   1.39691  -0.05762 
 H                    -3.73232   1.68705  -0.30956 
 H                    -2.52927   1.68431   0.98495 
 H                    -2.03643   1.9867   -0.68649 
 C                     2.61708   1.42051   0.39363 
 H                     3.40121   1.90745  -0.19835 
 H                     1.6951    1.98505   0.25756 
 H                     2.91733   1.51493   1.44382 
 C                     2.49058  -0.03284   0.011 
 
 NAtoms=     27 NQM=        0 NQMF=       0 NMMI=     27 NMMIF=      0
                NMic=       0 NMicF=      0.
                    Isotopes and Nuclear Properties:
 (Nuclear quadrupole moments (NQMom) in fm**2, nuclear magnetic moments (NMagM)
  in nuclear magnetons)

  Atom         1           2           3           4           5           6           7           8           9          10
 IAtWgt=          12           1           1           1          12           1          12           1           1          12
 AtmWgt=  12.0000000   1.0078250   1.0078250   1.0078250  12.0000000   1.0078250  12.0000000   1.0078250   1.0078250  12.0000000
 NucSpn=           0           1           1           1           0           1           0           1           1           0
 AtZEff=   0.0000000   0.0000000   0.0000000   0.0000000   0.0000000   0.0000000   0.0000000   0.0000000   0.0000000   0.0000000
 NQMom=    0.0000000   0.0000000   0.0000000   0.0000000   0.0000000   0.0000000   0.0000000   0.0000000   0.0000000   0.0000000
 NMagM=    0.0000000   2.7928460   2.7928460   2.7928460   0.0000000   2.7928460   0.0000000   2.7928460   2.7928460   0.0000000

  Atom        11          12          13          14          15          16          17          18          19          20
 IAtWgt=           1           1          12           1          12           1           1           1          12           1
 AtmWgt=   1.0078250   1.0078250  12.0000000   1.0078250  12.0000000   1.0078250   1.0078250   1.0078250  12.0000000   1.0078250
 NucSpn=           1           1           0           1           0           1           1           1           0           1
 AtZEff=   0.0000000   0.0000000   0.0000000   0.0000000   0.0000000   0.0000000   0.0000000   0.0000000   0.0000000   0.0000000
 NQMom=    0.0000000   0.0000000   0.0000000   0.0000000   0.0000000   0.0000000   0.0000000   0.0000000   0.0000000   0.0000000
 NMagM=    2.7928460   2.7928460   0.0000000   2.7928460   0.0000000   2.7928460   2.7928460   2.7928460   0.0000000   2.7928460

  Atom        21          22          23          24          25          26          27
 IAtWgt=           1           1          12           1           1           1          12
 AtmWgt=   1.0078250   1.0078250  12.0000000   1.0078250   1.0078250   1.0078250  12.0000000
 NucSpn=           1           1           0           1           1           1           0
 AtZEff=   0.0000000   0.0000000   0.0000000   0.0000000   0.0000000   0.0000000   0.0000000
 NQMom=    0.0000000   0.0000000   0.0000000   0.0000000   0.0000000   0.0000000   0.0000000
 NMagM=    2.7928460   2.7928460   0.0000000   2.7928460   2.7928460   2.7928460   0.0000000
 Leave Link  101 at Sun Feb  9 03:45:57 2014, MaxMem= 4026531840 cpu:       0.6
 (Enter /usr/caen/gaussian-09revc/g09/l202.exe)
                          Input orientation:                          
 ---------------------------------------------------------------------
 Center     Atomic      Atomic             Coordinates (Angstroms)
 Number     Number       Type             X           Y           Z
 ---------------------------------------------------------------------
      1          6           0        3.746285   -0.842817    0.226049
      2          1           0        3.610489   -1.886888   -0.063173
      3          1           0        4.055443   -0.816815    1.277926
      4          1           0        4.581805   -0.433770   -0.354830
      5          6           0        1.382707   -0.601743   -0.482836
      6          1           0        1.433495   -1.666816   -0.709878
      7          6           0        0.044117    0.026938   -0.759485
      8          1           0       -0.214910   -0.146358   -1.813527
      9          1           0        0.088108    1.109983   -0.630875
     10          6           0       -1.076543   -0.565542    0.117670
     11          1           0       -0.876408   -0.320294    1.168803
     12          1           0       -1.030112   -1.659407    0.048676
     13          6           0       -2.502603   -0.112925   -0.247617
     14          1           0       -2.660427   -0.343542   -1.310545
     15          6           0       -3.540619   -0.903051    0.561803
     16          1           0       -3.426983   -0.711445    1.634604
     17          1           0       -4.560424   -0.622341    0.281739
     18          1           0       -3.434189   -1.980430    0.403606
     19          6           0       -2.707917    1.396906   -0.057619
     20          1           0       -3.732323    1.687053   -0.309562
     21          1           0       -2.529272    1.684311    0.984951
     22          1           0       -2.036432    1.986698   -0.686493
     23          6           0        2.617080    1.420514    0.393630
     24          1           0        3.401214    1.907450   -0.198345
     25          1           0        1.695099    1.985045    0.257561
     26          1           0        2.917326    1.514933    1.443821
     27          6           0        2.490577   -0.032843    0.010995
 ---------------------------------------------------------------------
                    Distance matrix (angstroms):
                    1          2          3          4          5
     1  C    0.000000
     2  H    1.091867   0.000000
     3  H    1.096677   1.772452   0.000000
     4  H    1.096738   1.772024   1.757746   0.000000
     5  C    2.479342   2.605902   3.207812   3.206061   0.000000
     6  H    2.627533   2.281658   3.398305   3.399753   1.090187
     7  C    3.928587   4.106895   4.577521   4.578931   1.504526
     8  H    4.509544   4.552676   5.314368   5.021840   2.128496
     9  H    4.234384   4.659473   4.805811   4.759484   2.151257
    10  C    4.832008   4.873082   5.267505   5.679571   2.531764
    11  H    4.746694   4.909606   4.957983   5.668018   2.812601
    12  H    4.848943   4.647519   5.299423   5.758352   2.687537
    13  C    6.309176   6.367956   6.769838   7.092480   3.922997
    14  H    6.607296   6.577404   7.212980   7.305577   4.135058
    15  C    7.294884   7.245473   7.630231   8.187442   5.041944
    16  H    7.311433   7.334175   7.491663   8.256854   5.256301
    17  H    8.309821   8.275377   8.675447   9.166304   5.992145
    18  H    7.272200   7.060745   7.629746   8.198996   5.088128
    19  C    6.837657   7.120786   7.240668   7.521952   4.572594
    20  H    7.913071   8.170107   8.332993   8.580482   5.606438
    21  H    6.807711   7.179742   7.049818   7.539807   4.762775
    22  H    6.502208   6.876112   6.987816   7.054766   4.293252
    23  C    2.534927   3.483452   2.802946   2.803338   2.526142
    24  H    2.804131   3.802508   3.166861   2.626708   3.232856
    25  H    3.493588   4.331680   3.802997   3.815594   2.708736
    26  H    2.780131   3.784692   2.599977   3.130987   3.247673
    27  C    1.509672   2.167299   2.160679   2.160510   1.339736
                    6          7          8          9         10
     6  H    0.000000
     7  C    2.191263   0.000000
     8  H    2.499414   1.099150   0.000000
     9  H    3.086571   1.091541   1.751821   0.000000
    10  C    2.863203   1.541529   2.155841   2.173503   0.000000
    11  H    3.267754   2.164770   3.059759   2.492955   1.097762
    12  H    2.577755   2.156583   2.534102   3.062960   1.097022
    13  C    4.256892   2.601414   2.772495   2.890359   1.540112
    14  H    4.344198   2.784866   2.504481   3.182630   2.144241
    15  C    5.190599   3.932050   4.156335   4.317690   2.526428
    16  H    5.480290   4.280818   4.746193   4.561344   2.801240
    17  H    6.164519   4.765240   4.847700   5.044072   3.488205
    18  H    5.003254   4.181019   4.317784   4.798685   2.764446
    19  C    5.192603   3.153271   3.417596   2.868572   2.557989
    20  H    6.172063   4.149688   4.242110   3.877105   3.508544
    21  H    5.459489   3.523106   4.066829   3.129125   2.815038
    22  H    5.038760   2.859138   3.022925   2.298998   2.842885
    23  C    3.485715   3.145134   3.917499   2.746223   4.202788
    24  H    4.112051   3.888612   4.461311   3.435070   5.125023
    25  H    3.786880   2.755777   3.532764   2.034078   3.769226
    26  H    4.118701   3.914590   4.814676   3.531688   4.694469
    27  C    2.075319   2.565615   3.265184   2.736769   3.608253
                   11         12         13         14         15
    11  H    0.000000
    12  H    1.752579   0.000000
    13  C    2.166508   2.155835   0.000000
    14  H    3.054575   2.497381   1.099049   0.000000
    15  C    2.793935   2.671707   1.535232   2.143239   0.000000
    16  H    2.622099   3.026349   2.180702   3.065430   1.095686
    17  H    3.801327   3.686859   2.185029   2.494611   1.094183
    18  H    3.143855   2.451248   2.186211   2.493276   1.094120
    19  C    2.794157   3.488177   1.535527   2.145050   2.523267
    20  H    3.790944   4.316141   2.180818   2.504844   2.739465
    21  H    2.604650   3.782135   2.179448   3.065729   2.810039
    22  H    3.179621   3.853211   2.195073   2.491752   3.488763
    23  C    3.979418   4.786117   5.382730   5.819638   6.583654
    24  H    5.012982   5.693868   6.240144   6.561055   7.527668
    25  H    3.571778   4.555484   4.719892   5.181880   5.987187
    26  H    4.223282   5.254059   5.906481   6.492441   6.951953
    27  C    3.572077   3.878451   5.000514   5.326898   6.118495
                   16         17         18         19         20
    16  H    0.000000
    17  H    1.767165   0.000000
    18  H    1.767974   1.768520   0.000000
    19  C    2.797466   2.761214   3.485197   0.000000
    20  H    3.102548   2.523626   3.748056   1.094106   0.000000
    21  H    2.639618   3.152892   3.819315   1.096115   1.767230
    22  H    3.821138   3.757006   4.345129   1.092808   1.762927
    23  C    6.528090   7.463400   6.941497   5.344135   6.393781
    24  H    7.539402   8.367676   7.886741   6.132042   7.137807
    25  H    5.950045   6.777213   6.485053   4.453290   5.465102
    26  H    6.726322   7.863531   7.324026   5.823368   6.879085
    27  C    6.173664   7.080779   6.249007   5.391960   6.464154
                   21         22         23         24         25
    21  H    0.000000
    22  H    1.768631   0.000000
    23  C    5.186925   4.810655   0.000000
    24  H    6.051499   5.460088   1.096543   0.000000
    25  H    4.297074   3.849099   1.089614   1.767682   0.000000
    26  H    5.468517   5.412995   1.096341   1.756396   1.766934
    27  C    5.394079   5.005881   1.508197   2.153560   2.182992
                   26         27
    26  H    0.000000
    27  C    2.151910   0.000000
 Stoichiometry    C9H18
 Framework group  C1[X(C9H18)]
 Deg. of freedom    75
 Full point group                 C1      NOp   1
 Largest Abelian subgroup         C1      NOp   1
 Largest concise Abelian subgroup C1      NOp   1
                         Standard orientation:                         
 ---------------------------------------------------------------------
 Center     Atomic      Atomic             Coordinates (Angstroms)
 Number     Number       Type             X           Y           Z
 ---------------------------------------------------------------------
      1          6           0        3.746285   -0.842817    0.226049
      2          1           0        3.610489   -1.886888   -0.063173
      3          1           0        4.055443   -0.816815    1.277926
      4          1           0        4.581805   -0.433770   -0.354830
      5          6           0        1.382707   -0.601743   -0.482836
      6          1           0        1.433495   -1.666816   -0.709878
      7          6           0        0.044117    0.026938   -0.759485
      8          1           0       -0.214910   -0.146358   -1.813527
      9          1           0        0.088108    1.109983   -0.630875
     10          6           0       -1.076543   -0.565542    0.117670
     11          1           0       -0.876408   -0.320294    1.168803
     12          1           0       -1.030112   -1.659407    0.048676
     13          6           0       -2.502603   -0.112925   -0.247617
     14          1           0       -2.660427   -0.343542   -1.310545
     15          6           0       -3.540619   -0.903051    0.561803
     16          1           0       -3.426983   -0.711445    1.634604
     17          1           0       -4.560424   -0.622341    0.281739
     18          1           0       -3.434189   -1.980430    0.403606
     19          6           0       -2.707917    1.396906   -0.057619
     20          1           0       -3.732323    1.687053   -0.309562
     21          1           0       -2.529272    1.684311    0.984951
     22          1           0       -2.036432    1.986698   -0.686493
     23          6           0        2.617080    1.420514    0.393630
     24          1           0        3.401214    1.907450   -0.198345
     25          1           0        1.695099    1.985045    0.257561
     26          1           0        2.917326    1.514933    1.443821
     27          6           0        2.490577   -0.032843    0.010995
 ---------------------------------------------------------------------
 Rotational constants (GHZ):      3.5337144      0.5858775      0.5375241
 Leave Link  202 at Sun Feb  9 03:45:57 2014, MaxMem= 4026531840 cpu:       0.3
 (Enter /usr/caen/gaussian-09revc/g09/l301.exe)
 Standard basis: 6-311++G(d,p) (5D, 7F)
 Ernie: Thresh=  0.10000D-02 Tol=  0.10000D-05 Strict=F.
 There are   324 symmetry adapted basis functions of A   symmetry.
 Integral buffers will be    131072 words long.
 Raffenetti 2 integral format.
 Two-electron integral symmetry is turned on.
   324 basis functions,   486 primitive gaussians,   333 cartesian basis functions
    36 alpha electrons       36 beta electrons
       nuclear repulsion energy       449.3269900122 Hartrees.
 IExCor=  402 DFT=T Ex+Corr=B3LYP ExCW=0 ScaHFX=  0.200000
 ScaDFX=  0.800000  0.720000  1.000000  0.810000 ScalE2=  1.000000  1.000000
 IRadAn=      0 IRanWt=     -1 IRanGd=            0 ICorTp=0
 NAtoms=   27 NActive=   27 NUniq=   27 SFac= 1.00D+00 NAtFMM=   60 NAOKFM=F Big=F
 Leave Link  301 at Sun Feb  9 03:45:57 2014, MaxMem= 4026531840 cpu:       0.5
 (Enter /usr/caen/gaussian-09revc/g09/l302.exe)
 NPDir=0 NMtPBC=     1 NCelOv=     1 NCel=       1 NClECP=     1 NCelD=      1
         NCelK=      1 NCelE2=     1 NClLst=     1 CellRange=     0.0.
 One-electron integrals computed using PRISM.
 NBasis=   324 RedAO= T  NBF=   324
 NBsUse=   324 1.00D-06 NBFU=   324
 Precomputing XC quadrature grid using
 IXCGrd= 2 IRadAn=           0 IRanWt=          -1 IRanGd=           0 AccXCQ= 0.00D+00.
 NRdTot=    1763 NPtTot=      224256 NUsed=      236961 NTot=      236993
 NSgBfM=   333   333   333   333   333 NAtAll=    27    27.
 Leave Link  302 at Sun Feb  9 03:45:59 2014, MaxMem= 4026531840 cpu:       7.6
 (Enter /usr/caen/gaussian-09revc/g09/l303.exe)
 DipDrv:  MaxL=1.
 Leave Link  303 at Sun Feb  9 03:45:59 2014, MaxMem= 4026531840 cpu:       1.4
 (Enter /usr/caen/gaussian-09revc/g09/l401.exe)
 Harris functional with IExCor=  402 diagonalized for initial guess.
 ExpMin= 3.60D-02 ExpMax= 4.56D+03 ExpMxC= 6.82D+02 IAcc=3 IRadAn=         5 AccDes= 0.00D+00
 HarFok:  IExCor=  402 AccDes= 0.00D+00 IRadAn=         5 IDoV= 1
 ScaDFX=  1.000000  1.000000  1.000000  1.000000
 FoFCou: FMM=F IPFlag=           0 FMFlag=      100000 FMFlg1=           0
         NFxFlg=           0 DoJE=T BraDBF=F KetDBF=T FulRan=T
         Omega=  0.000000  0.000000  1.000000  0.000000  0.000000 ICntrl=     500 IOpCl=  0
         NMat0=    1 NMatS0=    1 NMatT0=    0 NMatD0=    1 NMtDS0=    0 NMtDT0=    0
         I1Cent=           4 NGrid=           0.
 Petite list used in FoFCou.
 Harris En= -354.000990180578    
 Mixing orbitals, IMix= 1 IMixAn=  0 NRI=1 NE=   36 Coef=  7.07106781D-01  7.07106781D-01
 Initial guess orbital symmetries:
       Occupied  (A) (A) (A) (A) (A) (A) (A) (A) (A) (A) (A) (A)
                 (A) (A) (A) (A) (A) (A) (A) (A) (A) (A) (A) (A)
                 (A) (A) (A) (A) (A) (A) (A) (A) (A) (A) (A) (A)
       Virtual   (A) (A) (A) (A) (A) (A) (A) (A) (A) (A) (A) (A)
                 (A) (A) (A) (A) (A) (A) (A) (A) (A) (A) (A) (A)
                 (A) (A) (A) (A) (A) (A) (A) (A) (A) (A) (A) (A)
                 (A) (A) (A) (A) (A) (A) (A) (A) (A) (A) (A) (A)
                 (A) (A) (A) (A) (A) (A) (A) (A) (A) (A) (A) (A)
                 (A) (A) (A) (A) (A) (A) (A) (A) (A) (A) (A) (A)
                 (A) (A) (A) (A) (A) (A) (A) (A) (A) (A) (A) (A)
                 (A) (A) (A) (A) (A) (A) (A) (A) (A) (A) (A) (A)
                 (A) (A) (A) (A) (A) (A) (A) (A) (A) (A) (A) (A)
                 (A) (A) (A) (A) (A) (A) (A) (A) (A) (A) (A) (A)
                 (A) (A) (A) (A) (A) (A) (A) (A) (A) (A) (A) (A)
                 (A) (A) (A) (A) (A) (A) (A) (A) (A) (A) (A) (A)
                 (A) (A) (A) (A) (A) (A) (A) (A) (A) (A) (A) (A)
                 (A) (A) (A) (A) (A) (A) (A) (A) (A) (A) (A) (A)
                 (A) (A) (A) (A) (A) (A) (A) (A) (A) (A) (A) (A)
                 (A) (A) (A) (A) (A) (A) (A) (A) (A) (A) (A) (A)
                 (A) (A) (A) (A) (A) (A) (A) (A) (A) (A) (A) (A)
                 (A) (A) (A) (A) (A) (A) (A) (A) (A) (A) (A) (A)
                 (A) (A) (A) (A) (A) (A) (A) (A) (A) (A) (A) (A)
                 (A) (A) (A) (A) (A) (A) (A) (A) (A) (A) (A) (A)
                 (A) (A) (A) (A) (A) (A) (A) (A) (A) (A) (A) (A)
                 (A) (A) (A) (A) (A) (A) (A) (A) (A) (A) (A) (A)
                 (A) (A) (A) (A) (A) (A) (A) (A) (A) (A) (A) (A)
                 (A) (A) (A) (A) (A) (A) (A) (A) (A) (A) (A) (A)
 The electronic state of the initial guess is 1-A.
 Leave Link  401 at Sun Feb  9 03:46:04 2014, MaxMem= 4026531840 cpu:      32.9
 (Enter /usr/caen/gaussian-09revc/g09/l502.exe)
 Closed shell SCF:
 Requested convergence on RMS density matrix=1.00D-08 within 128 cycles.
 Requested convergence on MAX density matrix=1.00D-06.
 Requested convergence on             energy=1.00D-06.
 No special actions if energy rises.
 Using DIIS extrapolation, IDIIS=  1040.
 Integral symmetry usage will be decided dynamically.
       236705 words used for storage of precomputed grid.
 Keep R1 ints in memory in canonical form, NReq=1565541867.
 IEnd=      592702 IEndB=      592702 NGot=  4026531840 MDV=  2479747507
 LenX=  2479747507 LenY=  2479636177
 Symmetry not used in FoFDir.
 MinBra= 0 MaxBra= 2 Meth= 1.
 IRaf=       0 NMat=   1 IRICut=       1 DoRegI=T DoRafI=F ISym2E= 0 JSym2E=0.

 Cycle   1  Pass 1  IDiag  1:
 E= -353.165963444959    
 DIIS: error= 3.91D-02 at cycle   1 NSaved=   1.
 NSaved= 1 IEnMin= 1 EnMin= -353.165963444959     IErMin= 1 ErrMin= 3.91D-02
 ErrMax= 3.91D-02 EMaxC= 1.00D-01 BMatC= 4.70D-01 BMatP= 4.70D-01
 IDIUse=3 WtCom= 6.09D-01 WtEn= 3.91D-01
 Coeff-Com:  0.100D+01
 Coeff-En:   0.100D+01
 Coeff:      0.100D+01
 Gap=    -0.244 Goal=   None    Shift=    0.000
 GapD=   -0.244 DampG=0.250 DampE=0.500 DampFc=0.2500 IDamp=-1.
 Damping current iteration by 2.50D-01
 RMSDP=2.02D-02 MaxDP=2.14D+00              OVMax= 8.57D-01

 Cycle   2  Pass 1  IDiag  1:
 E= -353.411916828162     Delta-E=       -0.245953383203 Rises=F Damp=T
 DIIS: error= 1.68D-02 at cycle   2 NSaved=   2.
 NSaved= 2 IEnMin= 2 EnMin= -353.411916828162     IErMin= 2 ErrMin= 1.68D-02
 ErrMax= 1.68D-02 EMaxC= 1.00D-01 BMatC= 9.38D-02 BMatP= 4.70D-01
 IDIUse=3 WtCom= 8.32D-01 WtEn= 1.68D-01
 Coeff-Com: -0.519D+00 0.152D+01
 Coeff-En:   0.000D+00 0.100D+01
 Coeff:     -0.432D+00 0.143D+01
 Gap=     0.292 Goal=   None    Shift=    0.000
 RMSDP=1.00D-02 MaxDP=1.28D+00 DE=-2.46D-01 OVMax= 4.31D-01

 Cycle   3  Pass 1  IDiag  1:
 E= -353.878540748285     Delta-E=       -0.466623920122 Rises=F Damp=F
 DIIS: error= 8.46D-03 at cycle   3 NSaved=   3.
 NSaved= 3 IEnMin= 3 EnMin= -353.878540748285     IErMin= 3 ErrMin= 8.46D-03
 ErrMax= 8.46D-03 EMaxC= 1.00D-01 BMatC= 1.77D-02 BMatP= 9.38D-02
 IDIUse=3 WtCom= 9.15D-01 WtEn= 8.46D-02
 Coeff-Com: -0.102D+00 0.440D+00 0.662D+00
 Coeff-En:   0.000D+00 0.000D+00 0.100D+01
 Coeff:     -0.934D-01 0.403D+00 0.690D+00
 Gap=     0.221 Goal=   None    Shift=    0.000
 RMSDP=1.98D-03 MaxDP=1.31D-01 DE=-4.67D-01 OVMax= 9.87D-02

 Cycle   4  Pass 1  IDiag  1:
 E= -353.886323440616     Delta-E=       -0.007782692331 Rises=F Damp=F
 DIIS: error= 6.70D-03 at cycle   4 NSaved=   4.
 NSaved= 4 IEnMin= 4 EnMin= -353.886323440616     IErMin= 4 ErrMin= 6.70D-03
 ErrMax= 6.70D-03 EMaxC= 1.00D-01 BMatC= 1.10D-02 BMatP= 1.77D-02
 IDIUse=3 WtCom= 9.33D-01 WtEn= 6.70D-02
 Coeff-Com:  0.800D-01-0.602D-01 0.445D+00 0.536D+00
 Coeff-En:   0.000D+00 0.000D+00 0.369D+00 0.631D+00
 Coeff:      0.746D-01-0.562D-01 0.440D+00 0.542D+00
 Gap=     0.223 Goal=   None    Shift=    0.000
 RMSDP=1.18D-03 MaxDP=8.78D-02 DE=-7.78D-03 OVMax= 4.33D-02

 Cycle   5  Pass 1  IDiag  1:
 E= -353.897443106920     Delta-E=       -0.011119666304 Rises=F Damp=F
 DIIS: error= 6.60D-04 at cycle   5 NSaved=   5.
 NSaved= 5 IEnMin= 5 EnMin= -353.897443106920     IErMin= 5 ErrMin= 6.60D-04
 ErrMax= 6.60D-04 EMaxC= 1.00D-01 BMatC= 1.62D-04 BMatP= 1.10D-02
 IDIUse=3 WtCom= 9.93D-01 WtEn= 6.60D-03
 Coeff-Com:  0.363D-01-0.439D-01 0.109D+00 0.115D+00 0.784D+00
 Coeff-En:   0.000D+00 0.000D+00 0.000D+00 0.000D+00 0.100D+01
 Coeff:      0.361D-01-0.436D-01 0.109D+00 0.114D+00 0.785D+00
 Gap=     0.225 Goal=   None    Shift=    0.000
 RMSDP=2.92D-04 MaxDP=1.89D-02 DE=-1.11D-02 OVMax= 5.10D-03

 Cycle   6  Pass 1  IDiag  1:
 E= -353.897544844612     Delta-E=       -0.000101737692 Rises=F Damp=F
 DIIS: error= 4.57D-04 at cycle   6 NSaved=   6.
 NSaved= 6 IEnMin= 6 EnMin= -353.897544844612     IErMin= 6 ErrMin= 4.57D-04
 ErrMax= 4.57D-04 EMaxC= 1.00D-01 BMatC= 7.34D-05 BMatP= 1.62D-04
 IDIUse=3 WtCom= 9.95D-01 WtEn= 4.57D-03
 Coeff-Com:  0.147D-01-0.212D-01 0.164D-01-0.158D-01 0.377D+00 0.629D+00
 Coeff-En:   0.000D+00 0.000D+00 0.000D+00 0.000D+00 0.977D-01 0.902D+00
 Coeff:      0.146D-01-0.211D-01 0.163D-01-0.158D-01 0.376D+00 0.630D+00
 Gap=     0.226 Goal=   None    Shift=    0.000
 RMSDP=7.65D-05 MaxDP=5.36D-03 DE=-1.02D-04 OVMax= 2.19D-03

 Cycle   7  Pass 1  IDiag  1:
 E= -353.897609805249     Delta-E=       -0.000064960636 Rises=F Damp=F
 DIIS: error= 9.67D-05 at cycle   7 NSaved=   7.
 NSaved= 7 IEnMin= 7 EnMin= -353.897609805249     IErMin= 7 ErrMin= 9.67D-05
 ErrMax= 9.67D-05 EMaxC= 1.00D-01 BMatC= 4.33D-06 BMatP= 7.34D-05
 IDIUse=1 WtCom= 1.00D+00 WtEn= 0.00D+00
 Coeff-Com:  0.238D-02-0.314D-02-0.120D-02-0.237D-01 0.541D-01 0.202D+00
 Coeff-Com:  0.769D+00
 Coeff:      0.238D-02-0.314D-02-0.120D-02-0.237D-01 0.541D-01 0.202D+00
 Coeff:      0.769D+00
 Gap=     0.226 Goal=   None    Shift=    0.000
 RMSDP=1.88D-05 MaxDP=8.42D-04 DE=-6.50D-05 OVMax= 3.96D-04

 Cycle   8  Pass 1  IDiag  1:
 E= -353.897613709298     Delta-E=       -0.000003904050 Rises=F Damp=F
 DIIS: error= 3.02D-05 at cycle   8 NSaved=   8.
 NSaved= 8 IEnMin= 8 EnMin= -353.897613709298     IErMin= 8 ErrMin= 3.02D-05
 ErrMax= 3.02D-05 EMaxC= 1.00D-01 BMatC= 3.33D-07 BMatP= 4.33D-06
 IDIUse=1 WtCom= 1.00D+00 WtEn= 0.00D+00
 Coeff-Com:  0.362D-03-0.300D-03-0.805D-03-0.101D-01 0.233D-02 0.424D-01
 Coeff-Com:  0.335D+00 0.631D+00
 Coeff:      0.362D-03-0.300D-03-0.805D-03-0.101D-01 0.233D-02 0.424D-01
 Coeff:      0.335D+00 0.631D+00
 Gap=     0.226 Goal=   None    Shift=    0.000
 RMSDP=8.94D-06 MaxDP=5.39D-04 DE=-3.90D-06 OVMax= 1.40D-04

 Cycle   9  Pass 1  IDiag  1:
 E= -353.897614044749     Delta-E=       -0.000000335451 Rises=F Damp=F
 DIIS: error= 7.18D-06 at cycle   9 NSaved=   9.
 NSaved= 9 IEnMin= 9 EnMin= -353.897614044749     IErMin= 9 ErrMin= 7.18D-06
 ErrMax= 7.18D-06 EMaxC= 1.00D-01 BMatC= 1.73D-08 BMatP= 3.33D-07
 IDIUse=1 WtCom= 1.00D+00 WtEn= 0.00D+00
 Coeff-Com:  0.848D-04-0.825D-04-0.165D-03-0.267D-02-0.169D-02 0.224D-02
 Coeff-Com:  0.807D-01 0.241D+00 0.680D+00
 Coeff:      0.848D-04-0.825D-04-0.165D-03-0.267D-02-0.169D-02 0.224D-02
 Coeff:      0.807D-01 0.241D+00 0.680D+00
 Gap=     0.226 Goal=   None    Shift=    0.000
 RMSDP=2.69D-06 MaxDP=2.17D-04 DE=-3.35D-07 OVMax= 3.80D-05

 Cycle  10  Pass 1  IDiag  1:
 E= -353.897614059918     Delta-E=       -0.000000015169 Rises=F Damp=F
 DIIS: error= 2.26D-06 at cycle  10 NSaved=  10.
 NSaved=10 IEnMin=10 EnMin= -353.897614059918     IErMin=10 ErrMin= 2.26D-06
 ErrMax= 2.26D-06 EMaxC= 1.00D-01 BMatC= 1.85D-09 BMatP= 1.73D-08
 IDIUse=1 WtCom= 1.00D+00 WtEn= 0.00D+00
 Coeff-Com:  0.204D-04-0.177D-04 0.499D-04-0.365D-03-0.629D-03-0.282D-02
 Coeff-Com:  0.726D-02 0.544D-01 0.332D+00 0.610D+00
 Coeff:      0.204D-04-0.177D-04 0.499D-04-0.365D-03-0.629D-03-0.282D-02
 Coeff:      0.726D-02 0.544D-01 0.332D+00 0.610D+00
 Gap=     0.226 Goal=   None    Shift=    0.000
 RMSDP=8.50D-07 MaxDP=7.50D-05 DE=-1.52D-08 OVMax= 8.96D-06

 Cycle  11  Pass 1  IDiag  1:
 E= -353.897614061854     Delta-E=       -0.000000001936 Rises=F Damp=F
 DIIS: error= 3.43D-07 at cycle  11 NSaved=  11.
 NSaved=11 IEnMin=11 EnMin= -353.897614061854     IErMin=11 ErrMin= 3.43D-07
 ErrMax= 3.43D-07 EMaxC= 1.00D-01 BMatC= 4.57D-11 BMatP= 1.85D-09
 IDIUse=1 WtCom= 1.00D+00 WtEn= 0.00D+00
 Coeff-Com:  0.146D-05 0.335D-06 0.259D-04 0.502D-04-0.167D-03-0.120D-02
 Coeff-Com: -0.297D-02 0.160D-02 0.601D-01 0.181D+00 0.762D+00
 Coeff:      0.146D-05 0.335D-06 0.259D-04 0.502D-04-0.167D-03-0.120D-02
 Coeff:     -0.297D-02 0.160D-02 0.601D-01 0.181D+00 0.762D+00
 Gap=     0.226 Goal=   None    Shift=    0.000
 RMSDP=1.22D-07 MaxDP=1.01D-05 DE=-1.94D-09 OVMax= 2.62D-06

 Cycle  12  Pass 1  IDiag  1:
 E= -353.897614061897     Delta-E=       -0.000000000042 Rises=F Damp=F
 DIIS: error= 9.22D-08 at cycle  12 NSaved=  12.
 NSaved=12 IEnMin=12 EnMin= -353.897614061897     IErMin=12 ErrMin= 9.22D-08
 ErrMax= 9.22D-08 EMaxC= 1.00D-01 BMatC= 3.76D-12 BMatP= 4.57D-11
 IDIUse=1 WtCom= 1.00D+00 WtEn= 0.00D+00
 Coeff-Com: -0.534D-06 0.149D-05 0.650D-05 0.310D-04-0.517D-04-0.376D-03
 Coeff-Com: -0.148D-02-0.144D-02 0.124D-01 0.522D-01 0.338D+00 0.601D+00
 Coeff:     -0.534D-06 0.149D-05 0.650D-05 0.310D-04-0.517D-04-0.376D-03
 Coeff:     -0.148D-02-0.144D-02 0.124D-01 0.522D-01 0.338D+00 0.601D+00
 Gap=     0.226 Goal=   None    Shift=    0.000
 RMSDP=3.65D-08 MaxDP=2.40D-06 DE=-4.23D-11 OVMax= 5.82D-07

 Cycle  13  Pass 1  IDiag  1:
 E= -353.897614061903     Delta-E=       -0.000000000006 Rises=F Damp=F
 DIIS: error= 2.46D-08 at cycle  13 NSaved=  13.
 NSaved=13 IEnMin=13 EnMin= -353.897614061903     IErMin=13 ErrMin= 2.46D-08
 ErrMax= 2.46D-08 EMaxC= 1.00D-01 BMatC= 2.53D-13 BMatP= 3.76D-12
 IDIUse=1 WtCom= 1.00D+00 WtEn= 0.00D+00
 Coeff-Com: -0.967D-07 0.383D-06 0.180D-05 0.111D-04-0.509D-05-0.717D-04
 Coeff-Com: -0.446D-03-0.749D-03 0.139D-02 0.107D-01 0.991D-01 0.261D+00
 Coeff-Com:  0.629D+00
 Coeff:     -0.967D-07 0.383D-06 0.180D-05 0.111D-04-0.509D-05-0.717D-04
 Coeff:     -0.446D-03-0.749D-03 0.139D-02 0.107D-01 0.991D-01 0.261D+00
 Coeff:      0.629D+00
 Gap=     0.226 Goal=   None    Shift=    0.000
 RMSDP=6.91D-09 MaxDP=3.59D-07 DE=-6.25D-12 OVMax= 1.17D-07

 SCF Done:  E(RB3LYP) =  -353.897614062     A.U. after   13 cycles
             Convg  =    0.6908D-08             -V/T =  2.0053
 KE= 3.520372568687D+02 PE=-1.717301429396D+03 EE= 5.620395684533D+02
 Leave Link  502 at Sun Feb  9 03:48:36 2014, MaxMem= 4026531840 cpu:    1061.3
 (Enter /usr/caen/gaussian-09revc/g09/l601.exe)
 Copying SCF densities to generalized density rwf, IOpCl= 0 IROHF=0.

 **********************************************************************

            Population analysis using the SCF density.

 **********************************************************************

 Orbital symmetries:
       Occupied  (A) (A) (A) (A) (A) (A) (A) (A) (A) (A) (A) (A)
                 (A) (A) (A) (A) (A) (A) (A) (A) (A) (A) (A) (A)
                 (A) (A) (A) (A) (A) (A) (A) (A) (A) (A) (A) (A)
       Virtual   (A) (A) (A) (A) (A) (A) (A) (A) (A) (A) (A) (A)
                 (A) (A) (A) (A) (A) (A) (A) (A) (A) (A) (A) (A)
                 (A) (A) (A) (A) (A) (A) (A) (A) (A) (A) (A) (A)
                 (A) (A) (A) (A) (A) (A) (A) (A) (A) (A) (A) (A)
                 (A) (A) (A) (A) (A) (A) (A) (A) (A) (A) (A) (A)
                 (A) (A) (A) (A) (A) (A) (A) (A) (A) (A) (A) (A)
                 (A) (A) (A) (A) (A) (A) (A) (A) (A) (A) (A) (A)
                 (A) (A) (A) (A) (A) (A) (A) (A) (A) (A) (A) (A)
                 (A) (A) (A) (A) (A) (A) (A) (A) (A) (A) (A) (A)
                 (A) (A) (A) (A) (A) (A) (A) (A) (A) (A) (A) (A)
                 (A) (A) (A) (A) (A) (A) (A) (A) (A) (A) (A) (A)
                 (A) (A) (A) (A) (A) (A) (A) (A) (A) (A) (A) (A)
                 (A) (A) (A) (A) (A) (A) (A) (A) (A) (A) (A) (A)
                 (A) (A) (A) (A) (A) (A) (A) (A) (A) (A) (A) (A)
                 (A) (A) (A) (A) (A) (A) (A) (A) (A) (A) (A) (A)
                 (A) (A) (A) (A) (A) (A) (A) (A) (A) (A) (A) (A)
                 (A) (A) (A) (A) (A) (A) (A) (A) (A) (A) (A) (A)
                 (A) (A) (A) (A) (A) (A) (A) (A) (A) (A) (A) (A)
                 (A) (A) (A) (A) (A) (A) (A) (A) (A) (A) (A) (A)
                 (A) (A) (A) (A) (A) (A) (A) (A) (A) (A) (A) (A)
                 (A) (A) (A) (A) (A) (A) (A) (A) (A) (A) (A) (A)
                 (A) (A) (A) (A) (A) (A) (A) (A) (A) (A) (A) (A)
                 (A) (A) (A) (A) (A) (A) (A) (A) (A) (A) (A) (A)
                 (A) (A) (A) (A) (A) (A) (A) (A) (A) (A) (A) (A)
 The electronic state is 1-A.
 Alpha  occ. eigenvalues --  -10.17450 -10.17248 -10.16544 -10.16300 -10.16208
 Alpha  occ. eigenvalues --  -10.16127 -10.15840 -10.15590 -10.15558  -0.82158
 Alpha  occ. eigenvalues --   -0.80284  -0.74801  -0.69256  -0.68340  -0.67386
 Alpha  occ. eigenvalues --   -0.61250  -0.55835  -0.51717  -0.47610  -0.45247
 Alpha  occ. eigenvalues --   -0.44909  -0.43567  -0.42873  -0.41834  -0.39763
 Alpha  occ. eigenvalues --   -0.38551  -0.38447  -0.37035  -0.36849  -0.36462
 Alpha  occ. eigenvalues --   -0.35256  -0.33619  -0.32483  -0.32043  -0.31481
 Alpha  occ. eigenvalues --   -0.23558
 Alpha virt. eigenvalues --   -0.01003  -0.00132   0.00663   0.00876   0.01306
 Alpha virt. eigenvalues --    0.02082   0.02405   0.03600   0.03721   0.04076
 Alpha virt. eigenvalues --    0.04498   0.04822   0.05235   0.05723   0.06407
 Alpha virt. eigenvalues --    0.07014   0.07630   0.08001   0.08523   0.08899
 Alpha virt. eigenvalues --    0.09463   0.09972   0.10261   0.10631   0.11259
 Alpha virt. eigenvalues --    0.11587   0.12068   0.12326   0.13063   0.13236
 Alpha virt. eigenvalues --    0.13684   0.14003   0.14464   0.14494   0.14788
 Alpha virt. eigenvalues --    0.14958   0.15274   0.15423   0.16055   0.16324
 Alpha virt. eigenvalues --    0.16641   0.16962   0.17235   0.17963   0.18372
 Alpha virt. eigenvalues --    0.18685   0.19192   0.19305   0.19617   0.19820
 Alpha virt. eigenvalues --    0.20570   0.21289   0.21576   0.22138   0.22605
 Alpha virt. eigenvalues --    0.23018   0.23362   0.23608   0.24595   0.25344
 Alpha virt. eigenvalues --    0.26230   0.26408   0.26920   0.27299   0.28272
 Alpha virt. eigenvalues --    0.28707   0.29122   0.29725   0.30092   0.30965
 Alpha virt. eigenvalues --    0.31213   0.32622   0.33440   0.34065   0.34758
 Alpha virt. eigenvalues --    0.35056   0.35953   0.38046   0.39738   0.40634
 Alpha virt. eigenvalues --    0.43632   0.44079   0.45187   0.46425   0.47843
 Alpha virt. eigenvalues --    0.49309   0.49823   0.51670   0.52604   0.53356
 Alpha virt. eigenvalues --    0.54851   0.55937   0.56541   0.57644   0.58869
 Alpha virt. eigenvalues --    0.59937   0.61400   0.63130   0.63636   0.64011
 Alpha virt. eigenvalues --    0.64428   0.65420   0.66470   0.67049   0.67240
 Alpha virt. eigenvalues --    0.67462   0.67902   0.68239   0.68984   0.69341
 Alpha virt. eigenvalues --    0.70143   0.71276   0.72020   0.73516   0.74133
 Alpha virt. eigenvalues --    0.75457   0.76189   0.76996   0.77874   0.78320
 Alpha virt. eigenvalues --    0.79158   0.80127   0.80370   0.83324   0.84497
 Alpha virt. eigenvalues --    0.87490   0.89685   0.90586   0.94240   0.97700
 Alpha virt. eigenvalues --    0.99126   1.00260   1.01179   1.03648   1.04177
 Alpha virt. eigenvalues --    1.05750   1.11431   1.11640   1.14836   1.16179
 Alpha virt. eigenvalues --    1.19371   1.20376   1.25698   1.31182   1.36233
 Alpha virt. eigenvalues --    1.37552   1.40560   1.41847   1.44855   1.45588
 Alpha virt. eigenvalues --    1.46364   1.46736   1.46895   1.47914   1.48177
 Alpha virt. eigenvalues --    1.50232   1.51226   1.54454   1.56504   1.57289
 Alpha virt. eigenvalues --    1.58975   1.59507   1.59834   1.60778   1.61408
 Alpha virt. eigenvalues --    1.62416   1.63024   1.64409   1.65428   1.66568
 Alpha virt. eigenvalues --    1.67548   1.68015   1.69516   1.70270   1.72873
 Alpha virt. eigenvalues --    1.73375   1.74453   1.75024   1.76500   1.77562
 Alpha virt. eigenvalues --    1.79853   1.80648   1.82124   1.83291   1.85711
 Alpha virt. eigenvalues --    1.87220   1.89667   1.91864   1.96285   1.97480
 Alpha virt. eigenvalues --    1.98038   2.01203   2.04585   2.06435   2.07465
 Alpha virt. eigenvalues --    2.08751   2.10199   2.12589   2.12930   2.15083
 Alpha virt. eigenvalues --    2.15511   2.18615   2.20980   2.23968   2.25752
 Alpha virt. eigenvalues --    2.28392   2.30514   2.32035   2.34538   2.37836
 Alpha virt. eigenvalues --    2.39192   2.42471   2.44345   2.45780   2.47213
 Alpha virt. eigenvalues --    2.47263   2.49622   2.49978   2.50633   2.51880
 Alpha virt. eigenvalues --    2.52129   2.53013   2.53984   2.54205   2.54629
 Alpha virt. eigenvalues --    2.56973   2.58413   2.60195   2.60883   2.61819
 Alpha virt. eigenvalues --    2.62570   2.63924   2.64601   2.67176   2.67792
 Alpha virt. eigenvalues --    2.71694   2.74146   2.74982   2.75756   2.77001
 Alpha virt. eigenvalues --    2.80525   2.81041   2.84107   2.85385   2.87510
 Alpha virt. eigenvalues --    2.89406   2.92074   2.94659   2.96564   2.98382
 Alpha virt. eigenvalues --    3.00285   3.02883   3.06201   3.07758   3.11847
 Alpha virt. eigenvalues --    3.16445   3.17139   3.21704   3.33905   3.41375
 Alpha virt. eigenvalues --    3.50624   3.68771   3.76229   3.78434   3.78936
 Alpha virt. eigenvalues --    3.80001   3.81726   3.82782   3.83321   3.84660
 Alpha virt. eigenvalues --    3.86715   3.89211   3.99921   4.07039   4.18049
 Alpha virt. eigenvalues --    4.27524   4.30252   4.34601   4.46710  23.69686
 Alpha virt. eigenvalues --   23.83754  23.89907  23.92439  23.95649  23.98045
 Alpha virt. eigenvalues --   23.98519  23.99549  24.26689
          Condensed to atoms (all electrons):
              1          2          3          4          5          6
     1  C    5.822519   0.394305   0.382569   0.372641   0.552892  -0.011879
     2  H    0.394305   0.551229  -0.021481  -0.018276   0.012653  -0.005065
     3  H    0.382569  -0.021481   0.603327  -0.071768  -0.114763   0.000607
     4  H    0.372641  -0.018276  -0.071768   0.602122  -0.019533   0.001205
     5  C    0.552892   0.012653  -0.114763  -0.019533   8.496009   0.418527
     6  H   -0.011879  -0.005065   0.000607   0.001205   0.418527   0.598729
     7  C   -0.020289   0.015034   0.017484  -0.011730  -0.650208   0.011823
     8  H   -0.003939  -0.000665  -0.001019   0.002098   0.030324  -0.014974
     9  H   -0.011557  -0.001061  -0.001703   0.000206   0.030629   0.028286
    10  C   -0.022171   0.006986   0.001047  -0.004177   0.115140  -0.003412
    11  H    0.000004  -0.000378  -0.000593   0.000362   0.058607   0.000023
    12  H    0.000708   0.000993  -0.000212   0.000082  -0.061419  -0.000112
    13  C    0.010716   0.000450  -0.000093  -0.000305  -0.328389  -0.015084
    14  H    0.000292   0.000025  -0.000039   0.000019   0.004710  -0.002551
    15  C   -0.004195  -0.000024  -0.000079   0.000017  -0.028682   0.003219
    16  H    0.000164   0.000041  -0.000029   0.000013   0.000386  -0.000831
    17  H   -0.000051  -0.000009  -0.000005   0.000000  -0.000550   0.000242
    18  H   -0.000150  -0.000023   0.000023  -0.000009  -0.004519   0.000443
    19  C    0.004860   0.000115   0.000243  -0.000192   0.016697   0.000234
    20  H    0.000189   0.000001   0.000004  -0.000002   0.000108   0.000171
    21  H   -0.000244  -0.000019   0.000000  -0.000007  -0.014255  -0.000297
    22  H   -0.000074   0.000065   0.000057   0.000005  -0.008209   0.000493
    23  C   -0.444994  -0.012764   0.030796   0.021808  -0.599804   0.009110
    24  H    0.008973  -0.001213  -0.005211   0.014737   0.061452  -0.000571
    25  H    0.002886  -0.001192   0.000901  -0.001446  -0.097155  -0.005989
    26  H    0.021615  -0.000746   0.013122  -0.005126  -0.041349  -0.000868
    27  C   -0.459105  -0.069049   0.024763  -0.017928  -1.977962  -0.168194
              7          8          9         10         11         12
     1  C   -0.020289  -0.003939  -0.011557  -0.022171   0.000004   0.000708
     2  H    0.015034  -0.000665  -0.001061   0.006986  -0.000378   0.000993
     3  H    0.017484  -0.001019  -0.001703   0.001047  -0.000593  -0.000212
     4  H   -0.011730   0.002098   0.000206  -0.004177   0.000362   0.000082
     5  C   -0.650208   0.030324   0.030629   0.115140   0.058607  -0.061419
     6  H    0.011823  -0.014974   0.028286  -0.003412   0.000023  -0.000112
     7  C    6.981157   0.529493   0.465902  -1.087252  -0.032666  -0.135134
     8  H    0.529493   0.625319  -0.053850  -0.143273   0.015167  -0.006464
     9  H    0.465902  -0.053850   0.762180  -0.144596   0.000690   0.001608
    10  C   -1.087252  -0.143273  -0.144596   7.551242   0.377590   0.494947
    11  H   -0.032666   0.015167   0.000690   0.377590   0.578589  -0.050327
    12  H   -0.135134  -0.006464   0.001608   0.494947  -0.050327   0.614542
    13  C    0.622950   0.003638   0.070374  -1.267549   0.017397  -0.069641
    14  H    0.002268   0.016575   0.008591  -0.157220   0.021355  -0.014031
    15  C   -0.153757  -0.003667   0.015255   0.257940  -0.017385   0.028109
    16  H    0.001366   0.001389  -0.000627  -0.076790   0.005693   0.001940
    17  H   -0.005770  -0.000268   0.000980   0.039093  -0.002963   0.001179
    18  H    0.007562  -0.001316   0.000242  -0.023002   0.000280   0.004671
    19  C   -0.023092  -0.031327  -0.023584   0.213901  -0.067657   0.015376
    20  H    0.000778  -0.002224  -0.000125   0.043439  -0.003771  -0.001963
    21  H    0.033438   0.003867   0.013635  -0.123119   0.011346  -0.002034
    22  H    0.010744  -0.005378  -0.006214  -0.011731  -0.002285   0.003620
    23  C   -0.360051  -0.020462  -0.050807   0.197413  -0.011090  -0.000557
    24  H    0.003336   0.002388   0.007259  -0.015214   0.000260   0.000064
    25  H   -0.051392  -0.003600  -0.014231   0.052957  -0.004092   0.002187
    26  H    0.016481  -0.000648  -0.005203  -0.002685  -0.000363  -0.000325
    27  C    0.072456  -0.092433  -0.172494   0.383864  -0.042954   0.057694
             13         14         15         16         17         18
     1  C    0.010716   0.000292  -0.004195   0.000164  -0.000051  -0.000150
     2  H    0.000450   0.000025  -0.000024   0.000041  -0.000009  -0.000023
     3  H   -0.000093  -0.000039  -0.000079  -0.000029  -0.000005   0.000023
     4  H   -0.000305   0.000019   0.000017   0.000013   0.000000  -0.000009
     5  C   -0.328389   0.004710  -0.028682   0.000386  -0.000550  -0.004519
     6  H   -0.015084  -0.002551   0.003219  -0.000831   0.000242   0.000443
     7  C    0.622950   0.002268  -0.153757   0.001366  -0.005770   0.007562
     8  H    0.003638   0.016575  -0.003667   0.001389  -0.000268  -0.001316
     9  H    0.070374   0.008591   0.015255  -0.000627   0.000980   0.000242
    10  C   -1.267549  -0.157220   0.257940  -0.076790   0.039093  -0.023002
    11  H    0.017397   0.021355  -0.017385   0.005693  -0.002963   0.000280
    12  H   -0.069641  -0.014031   0.028109   0.001940   0.001179   0.004671
    13  C    6.321530   0.579471  -0.142365   0.073808  -0.082111  -0.035489
    14  H    0.579471   0.616381  -0.066303   0.015353  -0.013104  -0.012235
    15  C   -0.142365  -0.066303   5.653890   0.381208   0.407141   0.398767
    16  H    0.073808   0.015353   0.381208   0.562187  -0.036332  -0.045065
    17  H   -0.082111  -0.013104   0.407141  -0.036332   0.573615  -0.020788
    18  H   -0.035489  -0.012235   0.398767  -0.045065  -0.020788   0.580530
    19  C   -0.074541  -0.122315  -0.129510  -0.031572  -0.007980   0.023128
    20  H   -0.097223  -0.005607   0.001336   0.002785   0.000922   0.000500
    21  H    0.105485   0.014027  -0.013969   0.009450   0.001640  -0.002103
    22  H   -0.061631  -0.017068   0.011557  -0.004486   0.000908  -0.002087
    23  C   -0.043411  -0.001596   0.004673  -0.000309   0.000182   0.000130
    24  H    0.001324   0.000123  -0.000154  -0.000006  -0.000004   0.000000
    25  H   -0.011368  -0.000440  -0.000713   0.000320  -0.000114  -0.000002
    26  H   -0.000694  -0.000137   0.000177  -0.000011   0.000008   0.000014
    27  C   -0.004848  -0.001654  -0.009275   0.003142  -0.001046   0.000160
             19         20         21         22         23         24
     1  C    0.004860   0.000189  -0.000244  -0.000074  -0.444994   0.008973
     2  H    0.000115   0.000001  -0.000019   0.000065  -0.012764  -0.001213
     3  H    0.000243   0.000004   0.000000   0.000057   0.030796  -0.005211
     4  H   -0.000192  -0.000002  -0.000007   0.000005   0.021808   0.014737
     5  C    0.016697   0.000108  -0.014255  -0.008209  -0.599804   0.061452
     6  H    0.000234   0.000171  -0.000297   0.000493   0.009110  -0.000571
     7  C   -0.023092   0.000778   0.033438   0.010744  -0.360051   0.003336
     8  H   -0.031327  -0.002224   0.003867  -0.005378  -0.020462   0.002388
     9  H   -0.023584  -0.000125   0.013635  -0.006214  -0.050807   0.007259
    10  C    0.213901   0.043439  -0.123119  -0.011731   0.197413  -0.015214
    11  H   -0.067657  -0.003771   0.011346  -0.002285  -0.011090   0.000260
    12  H    0.015376  -0.001963  -0.002034   0.003620  -0.000557   0.000064
    13  C   -0.074541  -0.097223   0.105485  -0.061631  -0.043411   0.001324
    14  H   -0.122315  -0.005607   0.014027  -0.017068  -0.001596   0.000123
    15  C   -0.129510   0.001336  -0.013969   0.011557   0.004673  -0.000154
    16  H   -0.031572   0.002785   0.009450  -0.004486  -0.000309  -0.000006
    17  H   -0.007980   0.000922   0.001640   0.000908   0.000182  -0.000004
    18  H    0.023128   0.000500  -0.002103  -0.002087   0.000130   0.000000
    19  C    5.631711   0.413000   0.343070   0.427829   0.009210  -0.001308
    20  H    0.413000   0.569362  -0.033548  -0.024432  -0.000085  -0.000059
    21  H    0.343070  -0.033548   0.571640  -0.049710  -0.004002   0.000338
    22  H    0.427829  -0.024432  -0.049710   0.580117   0.003748  -0.000433
    23  C    0.009210  -0.000085  -0.004002   0.003748   6.171453   0.352904
    24  H   -0.001308  -0.000059   0.000338  -0.000433   0.352904   0.600204
    25  H    0.008296   0.000069  -0.002415  -0.000988   0.426868  -0.035716
    26  H    0.000793   0.000082  -0.000286   0.000394   0.403882  -0.063859
    27  C    0.045782  -0.000420  -0.002706   0.007551   0.581064  -0.067311
             25         26         27
     1  C    0.002886   0.021615  -0.459105
     2  H   -0.001192  -0.000746  -0.069049
     3  H    0.000901   0.013122   0.024763
     4  H   -0.001446  -0.005126  -0.017928
     5  C   -0.097155  -0.041349  -1.977962
     6  H   -0.005989  -0.000868  -0.168194
     7  C   -0.051392   0.016481   0.072456
     8  H   -0.003600  -0.000648  -0.092433
     9  H   -0.014231  -0.005203  -0.172494
    10  C    0.052957  -0.002685   0.383864
    11  H   -0.004092  -0.000363  -0.042954
    12  H    0.002187  -0.000325   0.057694
    13  C   -0.011368  -0.000694  -0.004848
    14  H   -0.000440  -0.000137  -0.001654
    15  C   -0.000713   0.000177  -0.009275
    16  H    0.000320  -0.000011   0.003142
    17  H   -0.000114   0.000008  -0.001046
    18  H   -0.000002   0.000014   0.000160
    19  C    0.008296   0.000793   0.045782
    20  H    0.000069   0.000082  -0.000420
    21  H   -0.002415  -0.000286  -0.002706
    22  H   -0.000988   0.000394   0.007551
    23  C    0.426868   0.403882   0.581064
    24  H   -0.035716  -0.063859  -0.067311
    25  H    0.582834  -0.016982   0.042276
    26  H   -0.016982   0.594789  -0.053278
    27  C    0.042276  -0.053278   7.552360
 Mulliken atomic charges:
              1
     1  C   -0.596687
     2  H    0.150066
     3  H    0.142055
     4  H    0.135182
     5  C    0.148664
     6  H    0.156716
     7  C   -0.260932
     8  H    0.155247
     9  H    0.080215
    10  C   -0.653367
    11  H    0.149160
    12  H    0.114502
    13  C    0.427597
    14  H    0.135110
    15  C   -0.593211
    16  H    0.136813
    17  H    0.145186
    18  H    0.130337
    19  C   -0.641170
    20  H    0.136716
    21  H    0.140779
    22  H    0.147638
    23  C   -0.663306
    24  H    0.137696
    25  H    0.128243
    26  H    0.141205
    27  C    0.369545
 Sum of Mulliken atomic charges =   0.00000
 Mulliken charges with hydrogens summed into heavy atoms:
              1
     1  C   -0.169383
     5  C    0.305380
     7  C   -0.025470
    10  C   -0.389705
    13  C    0.562707
    15  C   -0.180875
    19  C   -0.216037
    23  C   -0.256162
    27  C    0.369545
 Sum of Mulliken charges with hydrogens summed into heavy atoms =   0.00000
 Electronic spatial extent (au):  <R**2>=           2235.5820
 Charge=              0.0000 electrons
 Dipole moment (field-independent basis, Debye):
    X=              0.0805    Y=              0.1728    Z=              0.0050  Tot=              0.1907
 Quadrupole moment (field-independent basis, Debye-Ang):
   XX=            -60.1252   YY=            -60.6274   ZZ=            -61.7322
   XY=              0.5238   XZ=              1.3220   YZ=              0.7071
 Traceless Quadrupole moment (field-independent basis, Debye-Ang):
   XX=              0.7030   YY=              0.2009   ZZ=             -0.9039
   XY=              0.5238   XZ=              1.3220   YZ=              0.7071
 Octapole moment (field-independent basis, Debye-Ang**2):
  XXX=              7.3574  YYY=             -3.2555  ZZZ=              2.2017  XYY=              2.6438
  XXY=              2.8442  XXZ=             -0.5217  XZZ=             -0.9416  YZZ=              0.9880
  YYZ=             -2.1642  XYZ=             -0.3411
 Hexadecapole moment (field-independent basis, Debye-Ang**3):
 XXXX=          -2547.5361 YYYY=           -436.4560 ZZZZ=           -186.5517 XXXY=              1.0302
 XXXZ=             14.5312 YYYX=              1.2664 YYYZ=              1.5921 ZZZX=              7.9031
 ZZZY=              2.5143 XXYY=           -506.5570 XXZZ=           -462.6704 YYZZ=           -106.7936
 XXYZ=              0.1826 YYXZ=             -0.8536 ZZXY=              0.9933
 N-N= 4.493269900122D+02 E-N=-1.717301428416D+03  KE= 3.520372568687D+02
 No NMR shielding tensors so no spin-rotation constants.
 Leave Link  601 at Sun Feb  9 03:48:37 2014, MaxMem= 4026531840 cpu:       3.0
 (Enter /usr/caen/gaussian-09revc/g09/l801.exe)
 Range of M.O.s used for correlation:     1   324
 NBasis=   324 NAE=    36 NBE=    36 NFC=     0 NFV=     0
 NROrb=    324 NOA=    36 NOB=    36 NVA=   288 NVB=   288

 **** Warning!!: The largest alpha MO coefficient is  0.16174977D+03

 Leave Link  801 at Sun Feb  9 03:48:37 2014, MaxMem= 4026531840 cpu:       0.1
 (Enter /usr/caen/gaussian-09revc/g09/l914.exe)
 RHF ground state
 Doing stability rather than CIS.
 MDV=  4026531840 DFT=T DoStab=T Mixed=T DoRPA=F DoScal=F NonHer=F
 Keep R1 and R2 ints in memory in canonical form, NReq=3294295389.
 Symmetry not used in FoFDir.
 MinBra= 0 MaxBra= 2 Meth= 1.
 IRaf=       0 NMat=   1 IRICut=       1 DoRegI=T DoRafI=F ISym2E= 0 JSym2E=0.
 Making orbital integer symmetry assigments:
 Orbital symmetries:
       Occupied  (A) (A) (A) (A) (A) (A) (A) (A) (A) (A) (A) (A)
                 (A) (A) (A) (A) (A) (A) (A) (A) (A) (A) (A) (A)
                 (A) (A) (A) (A) (A) (A) (A) (A) (A) (A) (A) (A)
       Virtual   (A) (A) (A) (A) (A) (A) (A) (A) (A) (A) (A) (A)
                 (A) (A) (A) (A) (A) (A) (A) (A) (A) (A) (A) (A)
                 (A) (A) (A) (A) (A) (A) (A) (A) (A) (A) (A) (A)
                 (A) (A) (A) (A) (A) (A) (A) (A) (A) (A) (A) (A)
                 (A) (A) (A) (A) (A) (A) (A) (A) (A) (A) (A) (A)
                 (A) (A) (A) (A) (A) (A) (A) (A) (A) (A) (A) (A)
                 (A) (A) (A) (A) (A) (A) (A) (A) (A) (A) (A) (A)
                 (A) (A) (A) (A) (A) (A) (A) (A) (A) (A) (A) (A)
                 (A) (A) (A) (A) (A) (A) (A) (A) (A) (A) (A) (A)
                 (A) (A) (A) (A) (A) (A) (A) (A) (A) (A) (A) (A)
                 (A) (A) (A) (A) (A) (A) (A) (A) (A) (A) (A) (A)
                 (A) (A) (A) (A) (A) (A) (A) (A) (A) (A) (A) (A)
                 (A) (A) (A) (A) (A) (A) (A) (A) (A) (A) (A) (A)
                 (A) (A) (A) (A) (A) (A) (A) (A) (A) (A) (A) (A)
                 (A) (A) (A) (A) (A) (A) (A) (A) (A) (A) (A) (A)
                 (A) (A) (A) (A) (A) (A) (A) (A) (A) (A) (A) (A)
                 (A) (A) (A) (A) (A) (A) (A) (A) (A) (A) (A) (A)
                 (A) (A) (A) (A) (A) (A) (A) (A) (A) (A) (A) (A)
                 (A) (A) (A) (A) (A) (A) (A) (A) (A) (A) (A) (A)
                 (A) (A) (A) (A) (A) (A) (A) (A) (A) (A) (A) (A)
                 (A) (A) (A) (A) (A) (A) (A) (A) (A) (A) (A) (A)
                 (A) (A) (A) (A) (A) (A) (A) (A) (A) (A) (A) (A)
                 (A) (A) (A) (A) (A) (A) (A) (A) (A) (A) (A) (A)
                 (A) (A) (A) (A) (A) (A) (A) (A) (A) (A) (A) (A)
    24 initial guesses have been made.
 Convergence on wavefunction:    0.001000000000000
 Davidson Disk Diagonalization:  ConvIn= 1.00D-03 SkipCon=T Conv= 1.00D-03.
 Max sub-space:   200 roots to seek:    24 dimension of matrix:  20736
 Iteration     1 Dimension    24 NMult    24
 CISAX:  IP=  8 NPass=   1 NMax=    24.
 CISAX will form    24 AO SS matrices at one time.
 NMat=    24 NSing=    12.
 New state      1 was old state     10
 Excitation Energies [eV] at current iteration:
 Root      1 :     3.641931135017145
 Root      2 :     5.378276893753442
 Root      3 :     5.441473324383248
 Root      4 :     5.812000712574834
 Root      5 :     5.832581213825563
 Root      6 :     5.907827157700051
 Root      7 :     5.927044082450217
 Root      8 :     6.061157918288506
 Root      9 :     6.074966518403892
 Root     10 :     6.341755728386544
 Root     11 :     6.367684058176446
 Root     12 :     6.484045125548874
 Root     13 :     6.489756367471272
 Root     14 :     6.590123990273332
 Root     15 :     6.639641986136229
 Root     16 :     6.756194163818636
 Root     17 :     6.790820419136207
 Root     18 :     6.914132995323397
 Root     19 :     6.926532881305659
 Root     20 :     7.007186598779079
 Root     21 :     7.027036110131316
 Root     22 :     7.047747537569840
 Root     23 :     7.097208289118204
 Root     24 :    12.255865521937870
 Iteration     2 Dimension    48 NMult    48
 CISAX:  IP=  8 NPass=   1 NMax=    24.
 CISAX will form    24 AO SS matrices at one time.
 NMat=    24 NSing=    12.
 Root      1 not converged, maximum delta is    0.083157195540758
 Excitation Energies [eV] at current iteration:
 Root      1 :     2.861131465953187   Change is   -0.780799669063959
 Root      2 :     5.317060973733400   Change is   -0.061215920020041
 Root      3 :     5.417840913900166   Change is   -0.023632410483082
 Root      4 :     5.779515761113613   Change is   -0.032484951461221
 Root      5 :     5.816338182108526   Change is   -0.016243031717036
 Root      6 :     5.863981777771379
 Iteration     3 Dimension    54 NMult    54
 CISAX:  IP=  1 NPass=   1 NMax=     6.
 CISAX will form     6 AO SS matrices at one time.
 NMat=     6 NSing=     3.
 Root      1 not converged, maximum delta is    0.004952667048955
 Excitation Energies [eV] at current iteration:
 Root      1 :     2.847431750714868   Change is   -0.013699715238318
 Root      2 :     5.315305916042805   Change is   -0.001755057690596
 Root      3 :     5.413225157003226   Change is   -0.004615756896939
 Root      4 :     5.777771771560717   Change is   -0.001743989552896
 Root      5 :     5.813777729141075   Change is   -0.002560452967452
 Root      6 :     5.863828184879821   Change is   -0.000153592891557
 Iteration     4 Dimension    60 NMult    60
 CISAX:  IP=  1 NPass=   1 NMax=     6.
 CISAX will form     6 AO SS matrices at one time.
 NMat=     6 NSing=     3.
 Root      1 has converged.
 Excitation Energies [eV] at current iteration:
 Root      1 :     2.846973719927632   Change is   -0.000458030787236
 Root      2 :     5.315221313731834   Change is   -0.000084602310971
 Root      3 :     5.412918883796222   Change is   -0.000306273207005
 Root      4 :     5.777663010342575   Change is   -0.000108761218142
 Root      5 :     5.813442104623293   Change is   -0.000335624517781
 Root      6 :     5.863821775509601   Change is   -0.000006409370220
 Convergence achieved on expansion vectors.
 ***********************************************************************
 Stability analysis using <AA,BB:AA,BB> singles matrix:
 ***********************************************************************

 Eigenvectors of the stability matrix:
 
 Eigenvector   1:      Triplet-A    Eigenvalue= 0.1046244  <S**2>=2.000
      36 -> 38        -0.11900
      36 -> 40        -0.34229
      36 -> 41         0.42416
      36 -> 44         0.16913
      36 -> 45        -0.11334
      36 -> 46         0.14892
      36 -> 48        -0.21901
 SavETr:  write IOETrn=   770 NScale= 10 NData=  16 NLR=1 LETran=      28.
 The wavefunction is stable under the perturbations considered.
 Leave Link  914 at Sun Feb  9 03:53:28 2014, MaxMem= 4026531840 cpu:    2308.8
 (Enter /usr/caen/gaussian-09revc/g09/l502.exe)
 The wavefunction is already stable.
 Leave Link  502 at Sun Feb  9 03:53:29 2014, MaxMem= 4026531840 cpu:       0.1
 (Enter /usr/caen/gaussian-09revc/g09/l508.exe)
 The wavefunction is already stable.
 Leave Link  508 at Sun Feb  9 03:53:29 2014, MaxMem= 4026531840 cpu:       0.0
 (Enter /usr/caen/gaussian-09revc/g09/l601.exe)
 Copying SCF densities to generalized density rwf, IOpCl= 0 IROHF=0.

 **********************************************************************

            Population analysis using the SCF density.

 **********************************************************************

 Orbital symmetries:
       Occupied  (A) (A) (A) (A) (A) (A) (A) (A) (A) (A) (A) (A)
                 (A) (A) (A) (A) (A) (A) (A) (A) (A) (A) (A) (A)
                 (A) (A) (A) (A) (A) (A) (A) (A) (A) (A) (A) (A)
       Virtual   (A) (A) (A) (A) (A) (A) (A) (A) (A) (A) (A) (A)
                 (A) (A) (A) (A) (A) (A) (A) (A) (A) (A) (A) (A)
                 (A) (A) (A) (A) (A) (A) (A) (A) (A) (A) (A) (A)
                 (A) (A) (A) (A) (A) (A) (A) (A) (A) (A) (A) (A)
                 (A) (A) (A) (A) (A) (A) (A) (A) (A) (A) (A) (A)
                 (A) (A) (A) (A) (A) (A) (A) (A) (A) (A) (A) (A)
                 (A) (A) (A) (A) (A) (A) (A) (A) (A) (A) (A) (A)
                 (A) (A) (A) (A) (A) (A) (A) (A) (A) (A) (A) (A)
                 (A) (A) (A) (A) (A) (A) (A) (A) (A) (A) (A) (A)
                 (A) (A) (A) (A) (A) (A) (A) (A) (A) (A) (A) (A)
                 (A) (A) (A) (A) (A) (A) (A) (A) (A) (A) (A) (A)
                 (A) (A) (A) (A) (A) (A) (A) (A) (A) (A) (A) (A)
                 (A) (A) (A) (A) (A) (A) (A) (A) (A) (A) (A) (A)
                 (A) (A) (A) (A) (A) (A) (A) (A) (A) (A) (A) (A)
                 (A) (A) (A) (A) (A) (A) (A) (A) (A) (A) (A) (A)
                 (A) (A) (A) (A) (A) (A) (A) (A) (A) (A) (A) (A)
                 (A) (A) (A) (A) (A) (A) (A) (A) (A) (A) (A) (A)
                 (A) (A) (A) (A) (A) (A) (A) (A) (A) (A) (A) (A)
                 (A) (A) (A) (A) (A) (A) (A) (A) (A) (A) (A) (A)
                 (A) (A) (A) (A) (A) (A) (A) (A) (A) (A) (A) (A)
                 (A) (A) (A) (A) (A) (A) (A) (A) (A) (A) (A) (A)
                 (A) (A) (A) (A) (A) (A) (A) (A) (A) (A) (A) (A)
                 (A) (A) (A) (A) (A) (A) (A) (A) (A) (A) (A) (A)
                 (A) (A) (A) (A) (A) (A) (A) (A) (A) (A) (A) (A)
 The electronic state is 1-A.
 Alpha  occ. eigenvalues --  -10.17450 -10.17248 -10.16544 -10.16300 -10.16208
 Alpha  occ. eigenvalues --  -10.16127 -10.15840 -10.15590 -10.15558  -0.82158
 Alpha  occ. eigenvalues --   -0.80284  -0.74801  -0.69256  -0.68340  -0.67386
 Alpha  occ. eigenvalues --   -0.61250  -0.55835  -0.51717  -0.47610  -0.45247
 Alpha  occ. eigenvalues --   -0.44909  -0.43567  -0.42873  -0.41834  -0.39763
 Alpha  occ. eigenvalues --   -0.38551  -0.38447  -0.37035  -0.36849  -0.36462
 Alpha  occ. eigenvalues --   -0.35256  -0.33619  -0.32483  -0.32043  -0.31481
 Alpha  occ. eigenvalues --   -0.23558
 Alpha virt. eigenvalues --   -0.01003  -0.00132   0.00663   0.00876   0.01306
 Alpha virt. eigenvalues --    0.02082   0.02405   0.03600   0.03721   0.04076
 Alpha virt. eigenvalues --    0.04498   0.04822   0.05235   0.05723   0.06407
 Alpha virt. eigenvalues --    0.07014   0.07630   0.08001   0.08523   0.08899
 Alpha virt. eigenvalues --    0.09463   0.09972   0.10261   0.10631   0.11259
 Alpha virt. eigenvalues --    0.11587   0.12068   0.12326   0.13063   0.13236
 Alpha virt. eigenvalues --    0.13684   0.14003   0.14464   0.14494   0.14788
 Alpha virt. eigenvalues --    0.14958   0.15274   0.15423   0.16055   0.16324
 Alpha virt. eigenvalues --    0.16641   0.16962   0.17235   0.17963   0.18372
 Alpha virt. eigenvalues --    0.18685   0.19192   0.19305   0.19617   0.19820
 Alpha virt. eigenvalues --    0.20570   0.21289   0.21576   0.22138   0.22605
 Alpha virt. eigenvalues --    0.23018   0.23362   0.23608   0.24595   0.25344
 Alpha virt. eigenvalues --    0.26230   0.26408   0.26920   0.27299   0.28272
 Alpha virt. eigenvalues --    0.28707   0.29122   0.29725   0.30092   0.30965
 Alpha virt. eigenvalues --    0.31213   0.32622   0.33440   0.34065   0.34758
 Alpha virt. eigenvalues --    0.35056   0.35953   0.38046   0.39738   0.40634
 Alpha virt. eigenvalues --    0.43632   0.44079   0.45187   0.46425   0.47843
 Alpha virt. eigenvalues --    0.49309   0.49823   0.51670   0.52604   0.53356
 Alpha virt. eigenvalues --    0.54851   0.55937   0.56541   0.57644   0.58869
 Alpha virt. eigenvalues --    0.59937   0.61400   0.63130   0.63636   0.64011
 Alpha virt. eigenvalues --    0.64428   0.65420   0.66470   0.67049   0.67240
 Alpha virt. eigenvalues --    0.67462   0.67902   0.68239   0.68984   0.69341
 Alpha virt. eigenvalues --    0.70143   0.71276   0.72020   0.73516   0.74133
 Alpha virt. eigenvalues --    0.75457   0.76189   0.76996   0.77874   0.78320
 Alpha virt. eigenvalues --    0.79158   0.80127   0.80370   0.83324   0.84497
 Alpha virt. eigenvalues --    0.87490   0.89685   0.90586   0.94240   0.97700
 Alpha virt. eigenvalues --    0.99126   1.00260   1.01179   1.03648   1.04177
 Alpha virt. eigenvalues --    1.05750   1.11431   1.11640   1.14836   1.16179
 Alpha virt. eigenvalues --    1.19371   1.20376   1.25698   1.31182   1.36233
 Alpha virt. eigenvalues --    1.37552   1.40560   1.41847   1.44855   1.45588
 Alpha virt. eigenvalues --    1.46364   1.46736   1.46895   1.47914   1.48177
 Alpha virt. eigenvalues --    1.50232   1.51226   1.54454   1.56504   1.57289
 Alpha virt. eigenvalues --    1.58975   1.59507   1.59834   1.60778   1.61408
 Alpha virt. eigenvalues --    1.62416   1.63024   1.64409   1.65428   1.66568
 Alpha virt. eigenvalues --    1.67548   1.68015   1.69516   1.70270   1.72873
 Alpha virt. eigenvalues --    1.73375   1.74453   1.75024   1.76500   1.77562
 Alpha virt. eigenvalues --    1.79853   1.80648   1.82124   1.83291   1.85711
 Alpha virt. eigenvalues --    1.87220   1.89667   1.91864   1.96285   1.97480
 Alpha virt. eigenvalues --    1.98038   2.01203   2.04585   2.06435   2.07465
 Alpha virt. eigenvalues --    2.08751   2.10199   2.12589   2.12930   2.15083
 Alpha virt. eigenvalues --    2.15511   2.18615   2.20980   2.23968   2.25752
 Alpha virt. eigenvalues --    2.28392   2.30514   2.32035   2.34538   2.37836
 Alpha virt. eigenvalues --    2.39192   2.42471   2.44345   2.45780   2.47213
 Alpha virt. eigenvalues --    2.47263   2.49622   2.49978   2.50633   2.51880
 Alpha virt. eigenvalues --    2.52129   2.53013   2.53984   2.54205   2.54629
 Alpha virt. eigenvalues --    2.56973   2.58413   2.60195   2.60883   2.61819
 Alpha virt. eigenvalues --    2.62570   2.63924   2.64601   2.67176   2.67792
 Alpha virt. eigenvalues --    2.71694   2.74146   2.74982   2.75756   2.77001
 Alpha virt. eigenvalues --    2.80525   2.81041   2.84107   2.85385   2.87510
 Alpha virt. eigenvalues --    2.89406   2.92074   2.94659   2.96564   2.98382
 Alpha virt. eigenvalues --    3.00285   3.02883   3.06201   3.07758   3.11847
 Alpha virt. eigenvalues --    3.16445   3.17139   3.21704   3.33905   3.41375
 Alpha virt. eigenvalues --    3.50624   3.68771   3.76229   3.78434   3.78936
 Alpha virt. eigenvalues --    3.80001   3.81726   3.82782   3.83321   3.84660
 Alpha virt. eigenvalues --    3.86715   3.89211   3.99921   4.07039   4.18049
 Alpha virt. eigenvalues --    4.27524   4.30252   4.34601   4.46710  23.69686
 Alpha virt. eigenvalues --   23.83754  23.89907  23.92439  23.95649  23.98045
 Alpha virt. eigenvalues --   23.98519  23.99549  24.26689
          Condensed to atoms (all electrons):
              1          2          3          4          5          6
     1  C    5.822519   0.394305   0.382569   0.372641   0.552892  -0.011879
     2  H    0.394305   0.551229  -0.021481  -0.018276   0.012653  -0.005065
     3  H    0.382569  -0.021481   0.603327  -0.071768  -0.114763   0.000607
     4  H    0.372641  -0.018276  -0.071768   0.602122  -0.019533   0.001205
     5  C    0.552892   0.012653  -0.114763  -0.019533   8.496009   0.418527
     6  H   -0.011879  -0.005065   0.000607   0.001205   0.418527   0.598729
     7  C   -0.020289   0.015034   0.017484  -0.011730  -0.650208   0.011823
     8  H   -0.003939  -0.000665  -0.001019   0.002098   0.030324  -0.014974
     9  H   -0.011557  -0.001061  -0.001703   0.000206   0.030629   0.028286
    10  C   -0.022171   0.006986   0.001047  -0.004177   0.115140  -0.003412
    11  H    0.000004  -0.000378  -0.000593   0.000362   0.058607   0.000023
    12  H    0.000708   0.000993  -0.000212   0.000082  -0.061419  -0.000112
    13  C    0.010716   0.000450  -0.000093  -0.000305  -0.328389  -0.015084
    14  H    0.000292   0.000025  -0.000039   0.000019   0.004710  -0.002551
    15  C   -0.004195  -0.000024  -0.000079   0.000017  -0.028682   0.003219
    16  H    0.000164   0.000041  -0.000029   0.000013   0.000386  -0.000831
    17  H   -0.000051  -0.000009  -0.000005   0.000000  -0.000550   0.000242
    18  H   -0.000150  -0.000023   0.000023  -0.000009  -0.004519   0.000443
    19  C    0.004860   0.000115   0.000243  -0.000192   0.016697   0.000234
    20  H    0.000189   0.000001   0.000004  -0.000002   0.000108   0.000171
    21  H   -0.000244  -0.000019   0.000000  -0.000007  -0.014255  -0.000297
    22  H   -0.000074   0.000065   0.000057   0.000005  -0.008209   0.000493
    23  C   -0.444994  -0.012764   0.030796   0.021808  -0.599804   0.009110
    24  H    0.008973  -0.001213  -0.005211   0.014737   0.061452  -0.000571
    25  H    0.002886  -0.001192   0.000901  -0.001446  -0.097155  -0.005989
    26  H    0.021615  -0.000746   0.013122  -0.005126  -0.041349  -0.000868
    27  C   -0.459105  -0.069049   0.024763  -0.017928  -1.977962  -0.168194
              7          8          9         10         11         12
     1  C   -0.020289  -0.003939  -0.011557  -0.022171   0.000004   0.000708
     2  H    0.015034  -0.000665  -0.001061   0.006986  -0.000378   0.000993
     3  H    0.017484  -0.001019  -0.001703   0.001047  -0.000593  -0.000212
     4  H   -0.011730   0.002098   0.000206  -0.004177   0.000362   0.000082
     5  C   -0.650208   0.030324   0.030629   0.115140   0.058607  -0.061419
     6  H    0.011823  -0.014974   0.028286  -0.003412   0.000023  -0.000112
     7  C    6.981157   0.529493   0.465902  -1.087252  -0.032666  -0.135134
     8  H    0.529493   0.625319  -0.053850  -0.143273   0.015167  -0.006464
     9  H    0.465902  -0.053850   0.762180  -0.144596   0.000690   0.001608
    10  C   -1.087252  -0.143273  -0.144596   7.551242   0.377590   0.494947
    11  H   -0.032666   0.015167   0.000690   0.377590   0.578589  -0.050327
    12  H   -0.135134  -0.006464   0.001608   0.494947  -0.050327   0.614542
    13  C    0.622950   0.003638   0.070374  -1.267549   0.017397  -0.069641
    14  H    0.002268   0.016575   0.008591  -0.157220   0.021355  -0.014031
    15  C   -0.153757  -0.003667   0.015255   0.257940  -0.017385   0.028109
    16  H    0.001366   0.001389  -0.000627  -0.076790   0.005693   0.001940
    17  H   -0.005770  -0.000268   0.000980   0.039093  -0.002963   0.001179
    18  H    0.007562  -0.001316   0.000242  -0.023002   0.000280   0.004671
    19  C   -0.023092  -0.031327  -0.023584   0.213901  -0.067657   0.015376
    20  H    0.000778  -0.002224  -0.000125   0.043439  -0.003771  -0.001963
    21  H    0.033438   0.003867   0.013635  -0.123119   0.011346  -0.002034
    22  H    0.010744  -0.005378  -0.006214  -0.011731  -0.002285   0.003620
    23  C   -0.360051  -0.020462  -0.050807   0.197413  -0.011090  -0.000557
    24  H    0.003336   0.002388   0.007259  -0.015214   0.000260   0.000064
    25  H   -0.051392  -0.003600  -0.014231   0.052957  -0.004092   0.002187
    26  H    0.016481  -0.000648  -0.005203  -0.002685  -0.000363  -0.000325
    27  C    0.072456  -0.092433  -0.172494   0.383864  -0.042954   0.057694
             13         14         15         16         17         18
     1  C    0.010716   0.000292  -0.004195   0.000164  -0.000051  -0.000150
     2  H    0.000450   0.000025  -0.000024   0.000041  -0.000009  -0.000023
     3  H   -0.000093  -0.000039  -0.000079  -0.000029  -0.000005   0.000023
     4  H   -0.000305   0.000019   0.000017   0.000013   0.000000  -0.000009
     5  C   -0.328389   0.004710  -0.028682   0.000386  -0.000550  -0.004519
     6  H   -0.015084  -0.002551   0.003219  -0.000831   0.000242   0.000443
     7  C    0.622950   0.002268  -0.153757   0.001366  -0.005770   0.007562
     8  H    0.003638   0.016575  -0.003667   0.001389  -0.000268  -0.001316
     9  H    0.070374   0.008591   0.015255  -0.000627   0.000980   0.000242
    10  C   -1.267549  -0.157220   0.257940  -0.076790   0.039093  -0.023002
    11  H    0.017397   0.021355  -0.017385   0.005693  -0.002963   0.000280
    12  H   -0.069641  -0.014031   0.028109   0.001940   0.001179   0.004671
    13  C    6.321530   0.579471  -0.142365   0.073808  -0.082111  -0.035489
    14  H    0.579471   0.616381  -0.066303   0.015353  -0.013104  -0.012235
    15  C   -0.142365  -0.066303   5.653890   0.381208   0.407141   0.398767
    16  H    0.073808   0.015353   0.381208   0.562187  -0.036332  -0.045065
    17  H   -0.082111  -0.013104   0.407141  -0.036332   0.573615  -0.020788
    18  H   -0.035489  -0.012235   0.398767  -0.045065  -0.020788   0.580530
    19  C   -0.074541  -0.122315  -0.129510  -0.031572  -0.007980   0.023128
    20  H   -0.097223  -0.005607   0.001336   0.002785   0.000922   0.000500
    21  H    0.105485   0.014027  -0.013969   0.009450   0.001640  -0.002103
    22  H   -0.061631  -0.017068   0.011557  -0.004486   0.000908  -0.002087
    23  C   -0.043411  -0.001596   0.004673  -0.000309   0.000182   0.000130
    24  H    0.001324   0.000123  -0.000154  -0.000006  -0.000004   0.000000
    25  H   -0.011368  -0.000440  -0.000713   0.000320  -0.000114  -0.000002
    26  H   -0.000694  -0.000137   0.000177  -0.000011   0.000008   0.000014
    27  C   -0.004848  -0.001654  -0.009275   0.003142  -0.001046   0.000160
             19         20         21         22         23         24
     1  C    0.004860   0.000189  -0.000244  -0.000074  -0.444994   0.008973
     2  H    0.000115   0.000001  -0.000019   0.000065  -0.012764  -0.001213
     3  H    0.000243   0.000004   0.000000   0.000057   0.030796  -0.005211
     4  H   -0.000192  -0.000002  -0.000007   0.000005   0.021808   0.014737
     5  C    0.016697   0.000108  -0.014255  -0.008209  -0.599804   0.061452
     6  H    0.000234   0.000171  -0.000297   0.000493   0.009110  -0.000571
     7  C   -0.023092   0.000778   0.033438   0.010744  -0.360051   0.003336
     8  H   -0.031327  -0.002224   0.003867  -0.005378  -0.020462   0.002388
     9  H   -0.023584  -0.000125   0.013635  -0.006214  -0.050807   0.007259
    10  C    0.213901   0.043439  -0.123119  -0.011731   0.197413  -0.015214
    11  H   -0.067657  -0.003771   0.011346  -0.002285  -0.011090   0.000260
    12  H    0.015376  -0.001963  -0.002034   0.003620  -0.000557   0.000064
    13  C   -0.074541  -0.097223   0.105485  -0.061631  -0.043411   0.001324
    14  H   -0.122315  -0.005607   0.014027  -0.017068  -0.001596   0.000123
    15  C   -0.129510   0.001336  -0.013969   0.011557   0.004673  -0.000154
    16  H   -0.031572   0.002785   0.009450  -0.004486  -0.000309  -0.000006
    17  H   -0.007980   0.000922   0.001640   0.000908   0.000182  -0.000004
    18  H    0.023128   0.000500  -0.002103  -0.002087   0.000130   0.000000
    19  C    5.631711   0.413000   0.343070   0.427829   0.009210  -0.001308
    20  H    0.413000   0.569362  -0.033548  -0.024432  -0.000085  -0.000059
    21  H    0.343070  -0.033548   0.571640  -0.049710  -0.004002   0.000338
    22  H    0.427829  -0.024432  -0.049710   0.580117   0.003748  -0.000433
    23  C    0.009210  -0.000085  -0.004002   0.003748   6.171453   0.352904
    24  H   -0.001308  -0.000059   0.000338  -0.000433   0.352904   0.600204
    25  H    0.008296   0.000069  -0.002415  -0.000988   0.426868  -0.035716
    26  H    0.000793   0.000082  -0.000286   0.000394   0.403882  -0.063859
    27  C    0.045782  -0.000420  -0.002706   0.007551   0.581064  -0.067311
             25         26         27
     1  C    0.002886   0.021615  -0.459105
     2  H   -0.001192  -0.000746  -0.069049
     3  H    0.000901   0.013122   0.024763
     4  H   -0.001446  -0.005126  -0.017928
     5  C   -0.097155  -0.041349  -1.977962
     6  H   -0.005989  -0.000868  -0.168194
     7  C   -0.051392   0.016481   0.072456
     8  H   -0.003600  -0.000648  -0.092433
     9  H   -0.014231  -0.005203  -0.172494
    10  C    0.052957  -0.002685   0.383864
    11  H   -0.004092  -0.000363  -0.042954
    12  H    0.002187  -0.000325   0.057694
    13  C   -0.011368  -0.000694  -0.004848
    14  H   -0.000440  -0.000137  -0.001654
    15  C   -0.000713   0.000177  -0.009275
    16  H    0.000320  -0.000011   0.003142
    17  H   -0.000114   0.000008  -0.001046
    18  H   -0.000002   0.000014   0.000160
    19  C    0.008296   0.000793   0.045782
    20  H    0.000069   0.000082  -0.000420
    21  H   -0.002415  -0.000286  -0.002706
    22  H   -0.000988   0.000394   0.007551
    23  C    0.426868   0.403882   0.581064
    24  H   -0.035716  -0.063859  -0.067311
    25  H    0.582834  -0.016982   0.042276
    26  H   -0.016982   0.594789  -0.053278
    27  C    0.042276  -0.053278   7.552360
 Mulliken atomic charges:
              1
     1  C   -0.596687
     2  H    0.150066
     3  H    0.142055
     4  H    0.135182
     5  C    0.148664
     6  H    0.156716
     7  C   -0.260932
     8  H    0.155247
     9  H    0.080215
    10  C   -0.653367
    11  H    0.149160
    12  H    0.114502
    13  C    0.427597
    14  H    0.135110
    15  C   -0.593211
    16  H    0.136813
    17  H    0.145186
    18  H    0.130337
    19  C   -0.641170
    20  H    0.136716
    21  H    0.140779
    22  H    0.147638
    23  C   -0.663306
    24  H    0.137696
    25  H    0.128243
    26  H    0.141205
    27  C    0.369545
 Sum of Mulliken atomic charges =   0.00000
 Mulliken charges with hydrogens summed into heavy atoms:
              1
     1  C   -0.169383
     5  C    0.305380
     7  C   -0.025470
    10  C   -0.389705
    13  C    0.562707
    15  C   -0.180875
    19  C   -0.216037
    23  C   -0.256162
    27  C    0.369545
 Sum of Mulliken charges with hydrogens summed into heavy atoms =   0.00000
 Electronic spatial extent (au):  <R**2>=           2235.5820
 Charge=              0.0000 electrons
 Dipole moment (field-independent basis, Debye):
    X=              0.0805    Y=              0.1728    Z=              0.0050  Tot=              0.1907
 Quadrupole moment (field-independent basis, Debye-Ang):
   XX=            -60.1252   YY=            -60.6274   ZZ=            -61.7322
   XY=              0.5238   XZ=              1.3220   YZ=              0.7071
 Traceless Quadrupole moment (field-independent basis, Debye-Ang):
   XX=              0.7030   YY=              0.2009   ZZ=             -0.9039
   XY=              0.5238   XZ=              1.3220   YZ=              0.7071
 Octapole moment (field-independent basis, Debye-Ang**2):
  XXX=              7.3574  YYY=             -3.2555  ZZZ=              2.2017  XYY=              2.6438
  XXY=              2.8442  XXZ=             -0.5217  XZZ=             -0.9416  YZZ=              0.9880
  YYZ=             -2.1642  XYZ=             -0.3411
 Hexadecapole moment (field-independent basis, Debye-Ang**3):
 XXXX=          -2547.5361 YYYY=           -436.4560 ZZZZ=           -186.5517 XXXY=              1.0302
 XXXZ=             14.5312 YYYX=              1.2664 YYYZ=              1.5921 ZZZX=              7.9031
 ZZZY=              2.5143 XXYY=           -506.5570 XXZZ=           -462.6704 YYZZ=           -106.7936
 XXYZ=              0.1826 YYXZ=             -0.8536 ZZXY=              0.9933
[...]
 2550,0.00019705,0.00004913,0.00001958,-0.00004615,0.00019662,0.0004047
 8,-0.00001184,-0.00123457,-0.00676116,-0.00145360,-0.00021805,0.000084
 71,0.00010088,0.00202871,-0.00077058,0.00038055,0.03140706,-0.00850442
 ,0.00909623,-0.00032609,0.00123774,-0.00037664,0.00159565,0.00150454,0
 .00006886,-0.00013839,-0.00007717,0.00003959,-0.00108797,-0.00016514,0
 .00008458,-0.00017292,0.00041491,-0.00031783,0.05986983,-0.06215788,0.
 01488675,-0.06745456,0.06939386,0.00000772,0.00001135,-0.00000362,-0.0
 0000270,0.00000366,0.00000034,0.00000527,-0.00000235,0.00000224,0.0000
 0515,-0.00000063,0.00000128,-0.00009827,-0.00013903,-0.00001030,0.0000
 6766,-0.00001426,0.00001077,0.00017994,0.00011363,0.00018053,-0.000044
 87,0.00002847,0.00000835,-0.00014201,-0.00020085,-0.00012690,-0.000010
 31,-0.00047807,0.00018895,0.00035933,-0.00018166,0.00038834,0.00008304
 ,0.00001398,0.00045940,0.00504949,-0.00147824,-0.00000767,0.00036293,0
 .00040980,0.00023547,-0.00047039,0.00029680,-0.00006865,-0.00015416,0.
 00002910,-0.00004819,0.00016297,0.00023688,0.00024881,0.00020152,-0.00
 008234,-0.00012309,-0.05678385,0.01536537,-0.06121928,0.06234829,-0.01
 632033,0.06182323,-0.00001161,-0.00000858,0.00000049,0.00000185,-0.000
 00858,-0.00000109,0.00000276,-0.00000015,0.00000483,0.00000682,0.00000
 191,-0.00000169,-0.00000036,-0.00001482,-0.00006162,0.00001160,-0.0000
 0193,0.00000900,-0.00012755,-0.00000601,-0.00000208,0.00007220,-0.0001
 0369,-0.00012942,-0.00001194,-0.00009058,0.00013642,0.00063720,0.00014
 229,0.00140717,0.00009882,0.00005493,-0.00019971,0.00002590,-0.0001502
 6,-0.00012483,-0.00044539,0.00148925,0.00458682,0.00055509,0.00108851,
 0.00032824,-0.00009521,-0.00024721,-0.00070416,0.00019439,-0.00025389,
 0.00010204,-0.00000500,-0.00002494,-0.00014796,-0.00008845,0.00005498,
 0.00020673,-0.05466152,-0.01101675,-0.04054387,-0.00434342,-0.00807731
 ,-0.02970244,0.05442661,0.00000013,-0.00000240,0.00000132,0.00000097,-
 0.00000080,-0.00000151,0.00000440,0.00000074,0.00000127,-0.00000102,-0
 .00000130,0.00000160,0.00005115,0.00004410,-0.00000012,-0.00000928,0.0
 0000275,-0.00000672,0.00012919,0.00000475,0.00005802,-0.00015372,-0.00
 006356,0.00014320,0.00004259,0.00002281,-0.00000836,-0.00126303,0.0016
 1150,-0.00095112,0.00051338,0.00007638,0.00073883,-0.00024413,0.000332
 24,0.00040121,-0.00547377,-0.01008251,-0.03265862,0.00093345,-0.006592
 70,-0.00059836,0.00044267,0.00165710,-0.00133318,-0.00023668,-0.000175
 03,0.00091535,-0.00003160,-0.00008450,0.00010382,0.00022600,0.00034542
 ,0.00036873,-0.01080072,-0.06252037,-0.05962203,0.00054170,0.00127537,
 0.00808031,0.01104052,0.06995305,0.00002169,0.00004511,0.00000946,-0.0
 0000815,0.00001228,-0.00000102,0.00001788,-0.00001009,0.00001386,0.000
 01542,-0.00000791,-0.00000297,-0.00005162,0.00007576,0.00003081,0.0000
 1326,-0.00000199,-0.00000129,0.00021933,-0.00015999,0.00000761,-0.0000
 8532,0.00011801,0.00015404,0.00005560,-0.00001000,-0.00025229,-0.00035
 628,0.00054301,0.00052336,0.00064999,-0.00034160,0.00027769,0.00013644
 ,0.00002298,0.00031248,-0.00045343,-0.00208954,-0.00569775,0.00025477,
 -0.00099360,0.00152696,0.00017129,0.00055710,0.00081573,-0.00041787,-0
 .00042026,0.00048307,0.00004202,-0.00000179,-0.00004320,0.00001269,-0.
 00008495,0.00028929,-0.04050639,-0.05981716,-0.27703457,-0.00097955,-0
 .00105618,-0.00658917,0.04504159,0.06811020,0.30256162,-0.00000386,0.0
 0001231,0.00001775,-0.00000257,-0.00000452,-0.00000034,0.00001115,-0.0
 0000613,0.00000812,0.00001601,-0.00000044,-0.00000344,0.00002881,0.000
 14568,-0.00008564,-0.00001120,0.00000774,0.00001292,-0.00086687,0.0004
 7732,0.00002915,-0.00002262,-0.00004602,0.00003214,-0.00120768,0.00119
 085,0.00000464,0.00015937,-0.00043587,-0.00037830,-0.00003360,0.000046
 26,-0.00001374,0.00012708,-0.00012518,0.00010874,0.00286116,0.00262981
 ,-0.00403764,0.00015190,-0.00060811,-0.00022966,0.00023875,0.00032188,
 -0.00032752,-0.00008806,0.00005649,0.00009032,0.00049625,0.00023696,0.
 00001256,0.00038066,0.00010588,0.00019844,-0.14660356,-0.08498450,0.09
 453428,-0.01850676,-0.01590057,0.01856767,0.00380246,0.00427066,-0.003
 83869,0.15905193,-0.00002911,-0.00004727,0.00002655,0.00000725,0.00000
 587,0.00000701,-0.00002087,0.00000201,-0.00002117,-0.00003819,0.000007
 90,-0.00000007,0.00035298,0.00035500,-0.00009377,-0.00021441,0.0001126
 3,-0.00002388,-0.00018292,-0.00049667,-0.00005898,0.00009146,-0.000210
 65,-0.00017919,0.00106903,0.00043806,0.00020354,-0.00093839,0.00100938
 ,0.00031998,0.00011016,-0.00003702,-0.00004456,-0.00007795,0.00010824,
 -0.00016557,-0.02086254,-0.01490710,0.01994999,-0.00021713,0.00129249,
 -0.00049836,0.00246793,-0.00641669,-0.00218985,0.00023422,0.00016072,0
 .00007057,0.00002360,0.00022546,-0.00025676,-0.00142571,-0.00127284,0.
 00119935,-0.08375177,-0.11866906,0.07925658,0.00463333,0.00417783,-0.0
 0568371,0.00611344,0.00419338,-0.00440056,0.09264174,0.12988374,-0.000
 01107,-0.00002409,-0.00001243,0.00000478,-0.00001460,-0.00000267,0.000
 00794,0.00000392,0.00000636,0.00000674,0.00000565,0.00000243,-0.000213
 21,-0.00039247,-0.00010206,0.00013274,-0.00009440,0.00002378,0.0007081
 5,0.00060616,0.00044210,-0.00002034,-0.00015105,-0.00018894,-0.0002669
 0,-0.00052886,0.00013550,0.00046214,0.00051939,-0.00015134,0.00006402,
 0.00003199,0.00000478,-0.00016896,-0.00001997,-0.00000618,-0.00444676,
 -0.00313761,0.00234282,-0.00041641,0.00047951,0.00066183,-0.00010631,-
 0.00068961,0.00062824,-0.00012777,-0.00032472,0.00045591,0.00019860,-0
 .00004176,-0.00010736,0.00009174,-0.00020351,0.00047735,0.09401704,0.0
 8029526,-0.13647813,-0.00495426,-0.00521875,0.00465389,0.01980132,0.01
 624890,-0.01736791,-0.10469027,-0.08741667,0.14458508,0.00195057,0.028
 53097,0.00648254,-0.00444432,0.00430885,-0.00074855,0.00056664,-0.0000
 3445,0.00021742,0.00076419,0.00010052,0.00011112,0.00218496,-0.0282455
 4,-0.00816983,-0.00238810,-0.00096242,-0.00488865,0.00045342,-0.000781
 34,0.00153996,0.00009892,0.00001117,0.00014733,-0.00174783,-0.00099906
 ,-0.00084760,-0.00044025,0.00019091,-0.00010118,-0.00007010,-0.0000449
 3,0.00006949,0.00013251,0.00021180,-0.00008112,-0.00000932,-0.00011850
 ,0.00011144,0.00001253,0.00001823,0.00000565,-0.00006242,0.00007067,-0
 .00002130,0.00000150,-0.00000663,0.00000771,-0.00003537,-0.00001549,0.
 00001138,0.00001887,0.00002660,-0.00000977,-0.00006837,-0.00007347,0.0
 0003663,0.00002971,0.00005843,0.00000546,-0.00003030,-0.00000857,0.000
 06442,-0.00001217,0.00002334,-0.00010741,0.57029634,0.00352734,-0.0230
 4478,-0.00515499,0.00197939,-0.00052936,0.00027285,-0.00130813,0.00065
 543,-0.00038608,-0.00128052,0.00084332,-0.00018199,-0.00837960,-0.0162
 1624,-0.00815795,0.00022643,0.00216077,-0.00229678,0.00083986,0.000783
 26,0.00118837,0.00055430,-0.00047922,0.00003398,0.00000315,-0.00039979
 ,0.00019126,0.00016124,-0.00053941,0.00024575,-0.00010610,0.00006935,-
 0.00003069,-0.00015277,-0.00008705,0.00009216,0.00001499,0.00013942,-0
 .00005275,0.00001442,-0.00001680,-0.00001171,0.00005277,-0.00005024,0.
 00001120,-0.00000408,0.00000624,-0.00000196,0.00002025,0.00000929,-0.0
 0000846,-0.00001024,-0.00000910,0.00000369,0.00002213,0.00005474,-0.00
 000633,-0.00002449,-0.00003793,-0.00000656,0.00002330,-0.00000795,-0.0
 0003876,0.00002673,-0.00003694,0.00005476,-0.03197578,0.48541419,0.000
 58037,0.00289748,0.00349741,-0.00121411,0.00099838,0.00068570,-0.00008
 064,0.00054635,0.00028099,-0.00022984,-0.00019462,0.00006284,-0.003937
 89,-0.01431547,0.00228193,-0.00459608,-0.00258524,0.00963956,0.0022383
 9,0.00122103,-0.00493702,-0.00077901,-0.00023081,-0.00026013,-0.000465
 54,-0.00056576,-0.00047890,0.00050680,-0.00068857,0.00031507,-0.000043
 85,-0.00006922,0.00012378,-0.00003375,0.00019581,0.00006943,0.00013564
 ,0.00023642,-0.00014374,0.00001998,0.00001610,0.00001492,0.00007850,-0
 .00003645,0.00005716,-0.00000620,-0.00001000,-0.00000277,0.00001956,0.
 00002016,-0.00002065,0.00000606,0.00001456,0.00000274,-0.00003123,0.00
 002581,-0.00003695,0.00000053,0.00002190,0.00002005,-0.00002646,-0.000
 00678,0.00003986,-0.00000273,-0.00001252,-0.00003198,0.00786667,-0.018
 23207,0.51901058,0.00022945,0.00062180,-0.00031099,0.00009424,-0.00007
 279,-0.00022471,0.00006824,0.00009653,0.00007454,0.00044603,-0.0000791
 9,0.00018816,0.00136353,-0.00018646,0.00073235,-0.00008018,-0.00020883
 ,-0.00017816,-0.00031173,0.00003610,0.00015650,-0.00001559,0.00001324,
 -0.00006425,0.00020686,-0.00025554,0.00013431,0.00010087,-0.00011984,-
 0.00013521,0.00003338,0.00004717,-0.00005702,-0.00003142,-0.00006351,0
 .00002221,0.00004986,-0.00003486,0.00004243,-0.00001372,-0.00000402,-0
 .00001984,-0.00003060,0.00002829,-0.00001730,0.00000829,0.00000006,0.0
 0000014,-0.00003201,-0.00000022,0.00000493,0.00000861,-0.00000211,-0.0
 0000024,-0.00003944,0.00000747,0.00001500,-0.00004147,-0.00000162,-0.0
 0000832,0.00002804,-0.00000272,-0.00002697,0.00002697,-0.00002373,0.00
 003095,-0.17455396,-0.07563296,0.09991312,0.18859621,-0.00094516,0.001
 17795,0.00007102,0.00009062,0.00048154,-0.00040352,0.00003873,0.000015
 90,-0.00001901,0.00106664,-0.00025266,-0.00027226,0.00260682,-0.003281
 84,-0.00000518,0.00003645,0.00004512,-0.00253811,-0.00007425,-0.000642
 14,0.00091634,-0.00014710,0.00013658,-0.00000943,-0.00015030,0.0002748
 5,0.00003551,-0.00017239,0.00037576,-0.00020301,0.00000511,-0.00002668
 ,0.00004365,0.00005641,0.00003740,-0.00002268,0.00000417,-0.00012196,0
 .00011902,-0.00000164,0.00001067,-0.00000199,-0.00006007,0.00005003,-0
 .00004216,0.00000471,-0.00000215,0.00001102,-0.00004208,-0.00001114,0.
 00001305,0.00001207,0.00000330,-0.00000178,-0.00002387,-0.00002817,-0.
 00003075,-0.00001575,0.00002579,0.00000815,-0.00000678,0.00000146,0.00
 002921,0.00000477,-0.00001078,-0.00001276,-0.07785404,-0.09372614,0.06
 244478,0.08807520,0.10422556,-0.00016716,0.00029100,0.00014431,-0.0002
 3077,0.00005015,0.00003269,0.00019309,0.00004299,-0.00016736,-0.000024
 31,0.00021603,0.00016015,-0.00022133,-0.00123451,-0.00037861,0.0000420
 5,0.00002739,-0.00096214,-0.00006976,-0.00013666,0.00033690,0.00005570
 ,-0.00000484,0.00000324,0.00004155,0.00001701,0.00005243,-0.00006902,-
 0.00003594,-0.00009940,0.00000202,0.00001626,0.00001372,0.00001130,-0.
 00000095,0.00001063,-0.00002348,-0.00000451,0.00001624,0.00000642,-0.0
 0000244,0.00000726,-0.00000307,-0.00000503,-0.00000499,-0.00000377,0.0
 0000102,0.00000282,0.00000725,-0.00000162,0.00000335,-0.00000245,0.000
 00244,0.00000015,0.00000499,-0.00000679,-0.00001339,0.00001016,-0.0000
 0056,0.00000554,-0.00000671,0.00000372,0.00000549,-0.00000301,0.000004
 71,-0.00000037,0.09905770,0.06111899,-0.11839242,-0.10942878,-0.065480
 76,0.12887672,0.00088561,-0.00025998,-0.00003447,0.00010399,-0.0001423
 9,-0.00017918,-0.00003803,-0.00016036,0.00000413,0.00029481,-0.0002098
 2,-0.00015691,-0.00093548,0.00037296,-0.00026237,0.00016788,0.00013046
 ,0.00012420,-0.00114169,-0.00143654,-0.00073394,0.00013271,-0.00006619
 ,-0.00001272,-0.00136646,-0.00167924,-0.00111691,0.00011739,-0.0000809
 5,-0.00000862,0.00006426,0.00003468,0.00004791,-0.00003549,-0.00003062
 ,0.00008684,0.00000446,0.00001646,-0.00004942,0.00000268,0.00000074,0.
 00000166,0.00001857,-0.00001480,0.00001044,-0.00000203,0.00000314,-0.0
 0000176,0.00001217,0.00000309,-0.00000293,-0.00000465,-0.00000576,-0.0
 0000026,0.00003168,-0.00001109,0.00002861,0.00001791,0.00000334,-0.000
 00516,-0.00001235,-0.00000025,-0.00000325,-0.00000429,0.00001309,-0.00
 002005,-0.24186663,0.11623783,-0.02842254,-0.01873383,0.01095448,-0.00
 396723,0.26438520,-0.00237680,-0.00558209,-0.00233160,0.00159553,-0.00
 111429,0.00011580,-0.00032254,0.00024988,0.00007064,-0.00002815,0.0002
 5315,-0.00018452,0.00081430,0.00098972,0.00072556,0.00005845,0.0002173
 3,0.00012007,-0.00011193,-0.00102170,0.00004058,0.00000403,0.00058723,
 0.00012733,-0.00167960,0.00091549,-0.00084391,-0.00032212,0.00043572,0
 .00003883,0.00001165,-0.00007918,0.00005505,0.00021361,0.00014944,-0.0
 0008526,-0.00011370,-0.00000458,0.00002832,0.00001598,-0.00000342,0.00
 000912,0.00001009,-0.00001871,0.00000479,-0.00000633,-0.00000161,-0.00
 000431,0.00002713,-0.00000431,-0.00000085,-0.00000473,0.00000735,0.000
 00139,0.00002207,-0.00004497,-0.00000245,0.00005250,0.00001120,0.00000
 667,-0.00002580,0.00001360,0.00002286,-0.00002934,0.00005771,-0.000033
 52,0.11378737,-0.11629417,0.01624144,-0.01218354,0.00757113,-0.0031798
 0,-0.12540603,0.12537320,-0.00057533,-0.00154830,0.00024861,0.00020999
 ,-0.00043758,0.00057987,0.00030792,-0.00024280,0.00037693,-0.00047517,
 0.00012392,0.00002952,-0.00000411,0.00031717,-0.00011756,0.00005704,0.
 00011476,0.00003788,-0.00036399,-0.00092448,-0.00038579,0.00000153,0.0
 0015390,-0.00001284,-0.00135329,-0.00047691,-0.00002343,-0.00000975,0.
 00018037,0.00026342,0.00002323,0.00002500,-0.00011700,0.00007195,0.000
 01410,-0.00008186,-0.00000500,0.00002818,-0.00007030,-0.00002510,-0.00
 001660,-0.00002115,0.00002087,-0.00000690,0.00001758,0.00000430,0.0000
 0280,-0.00001395,0.00000911,0.00000208,-0.00000593,-0.00000291,-0.0000
 0661,-0.00000138,-0.00003217,-0.00002041,0.00011644,0.00000217,-0.0000
 1057,-0.00003332,0.00003930,0.00000527,-0.00007002,-0.00000333,0.00002
 864,0.00000921,-0.02910415,0.01699300,-0.05117895,0.01547945,-0.010151
 50,0.00233172,0.03376408,-0.01714789,0.05071163,0.00006414,0.00050460,
 0.00056051,-0.00011368,-0.00013551,0.00005879,0.00032072,0.00018085,-0
 .00003318,0.00006997,0.00007486,0.00016626,0.00070965,0.00005021,-0.00
 010868,-0.00016747,-0.00028586,0.00008074,-0.00005176,0.00011979,-0.00
 055545,-0.00014997,-0.00040548,-0.00003658,0.00040407,-0.00028763,0.00
 014422,0.00006620,-0.00006298,-0.00019039,-0.00007148,0.00000016,0.000
 12671,-0.00008124,0.00000403,0.00007061,0.00002129,0.00000122,0.000069
 52,0.00002606,0.00000430,0.00002263,-0.00001256,0.00000104,-0.00002269
 ,-0.00000536,0.00000094,0.00001582,-0.00000873,-0.00000238,0.00000628,
 0.00000068,0.00000123,0.00000134,0.00001051,0.00001734,-0.00008115,-0.
 00001419,0.00000037,0.00001842,-0.00001212,0.00000366,0.00002836,0.000
 00766,-0.00002929,0.00002171,-0.06379323,-0.00109719,-0.06652345,0.006
 33635,0.00181904,0.02325894,-0.00679657,-0.00247161,-0.02702193,0.0662
 7490,-0.00081950,0.00113912,-0.00031899,-0.00025885,0.00032289,0.00038
 954,0.00059258,-0.00032273,0.00058099,0.00006603,-0.00006076,0.0001228
 0,0.00191615,-0.00370449,-0.00022655,-0.00149038,-0.00100517,0.0018669
 0,0.00055898,-0.00034314,-0.00067235,-0.00016844,0.00020586,-0.0000273
 3,-0.00016536,0.00035379,-0.00008264,-0.00009356,0.00016916,-0.0001663
 6,-0.00002881,-0.00000178,0.00006988,0.00010211,0.00007740,-0.00003781
 ,0.00001048,-0.00002597,0.00010151,0.00001204,0.00000032,0.00000043,-0
 .00003411,0.00002939,-0.00002355,0.00000033,0.00000082,0.00000726,-0.0
 0002384,-0.00000549,0.00000841,0.00000800,0.00000231,-0.00000277,-0.00
 003992,-0.00001822,-0.00000183,-0.00000979,0.00001903,0.00000286,-0.00
 000032,0.00000547,0.00000896,0.00000046,-0.00000613,-0.00000724,-0.002
 17463,-0.04572169,-0.01749819,0.00451874,0.00053608,0.01379358,0.00287
 771,0.00059892,0.01575720,0.00543813,0.05220116,-0.00031290,0.00056832
 ,0.00041945,0.00002699,-0.00001983,0.00043999,0.00052732,-0.00044663,0
 .00037450,0.00002580,0.00006095,-0.00016285,0.00194259,-0.00057213,0.0
 0022748,-0.00029510,-0.00027984,0.00023482,0.00012392,-0.00006971,-0.0
 0008570,-0.00007115,-0.00001748,-0.00001029,0.00007136,-0.00002433,-0.
 00000444,-0.00009007,0.00015623,-0.00023585,0.00001856,0.00000828,0.00
 007341,0.00001627,0.00000504,0.00001979,0.00003492,-0.00006762,0.00008
 816,0.00000105,0.00001045,0.00000752,-0.00004245,0.00003237,-0.0000362
 1,0.00000380,0.00000001,0.00001500,-0.00003512,-0.00000631,0.00000974,
 0.00000779,-0.00000114,-0.00000045,-0.00001555,0.00000233,-0.00004878,
 -0.00002672,0.00001348,0.00000779,0.,-0.00000063,0.00002370,0.00000962
 ,-0.00002792,0.00001056,-0.06641114,-0.01573732,-0.27792340,-0.0045672
 3,-0.00039037,-0.01851689,-0.00065463,0.00045722,-0.00257783,0.0740130
 2,0.01966003,0.30430901,-0.16128393,0.05634219,-0.01521800,0.00425608,
 -0.00355304,0.00109183,-0.01178680,0.00364385,-0.00412426,-0.02516618,
 0.01289407,-0.00580526,-0.37793897,-0.14344478,-0.14026044,0.00126079,
 0.00162491,-0.00072609,-0.02453915,-0.00916568,-0.01110541,-0.00104765
 ,0.00085559,0.00051745,0.00122023,-0.00124108,0.00018944,0.00079477,0.
 00176015,-0.00279381,-0.00024984,0.00003862,0.00050894,-0.00020953,-0.
 00045104,0.00005573,-0.00016010,-0.00050983,0.00077448,0.00013782,-0.0
 0004170,0.00009314,-0.00023235,0.00012531,-0.00003170,-0.00001779,0.00
 000353,0.00000640,-0.00000370,-0.00004899,0.00004629,-0.00001470,-0.00
 002446,-0.00000695,0.00010405,-0.00001362,0.00003253,0.00003495,-0.000
 03162,-0.00000237,-0.00001851,0.00002503,-0.00001719,0.00000308,0.0000
 3043,0.00000184,-0.08698779,-0.00373228,-0.00497230,-0.00371298,-0.025
 28179,-0.00847030,0.00469818,0.02846949,0.00898530,-0.00303385,-0.0107
 9423,-0.00430095,0.68389385,0.05235063,-0.12093796,0.00570005,0.026239
 30,-0.01731487,0.00478149,-0.00098875,0.00073451,-0.00050608,-0.010621
 84,0.00777170,-0.00275384,-0.13523233,-0.18191386,-0.07533116,-0.02614
 867,-0.01614704,-0.01366240,0.00834222,0.01283902,0.00416239,0.0035461
 5,-0.00130407,0.00173500,-0.00024203,-0.00088851,0.00004973,0.00234460
 ,-0.00212351,0.00155322,-0.00017241,0.00013395,-0.00017828,0.00012559,
 0.00036673,-0.00007459,0.00070877,0.00091152,-0.00079265,-0.00010343,-
 0.00006356,-0.00006039,0.00036686,-0.00032492,0.00014623,-0.00000172,0
 .00001805,-0.00005505,0.00021858,0.00007853,-0.00007696,-0.00003116,0.
 00001676,0.00001329,-0.00006445,0.00015588,0.00004983,0.00005400,-0.00
 005687,-0.00001900,0.00002849,-0.00000899,-0.00011110,-0.00003488,0.00
 008072,0.00006606,-0.00404401,-0.19293921,-0.03043452,-0.00457265,-0.0
 1686547,-0.00549089,-0.00114395,-0.01326203,-0.00275586,-0.00344385,-0
 .00444616,-0.00331346,0.09252094,0.54548967,-0.01630551,0.00667538,-0.
 07601429,0.00825828,-0.00488261,-0.00020126,-0.02867091,0.01701283,-0.
 00222047,0.01190437,-0.01108524,0.00419560,-0.13851425,-0.07802896,-0.
 11672023,-0.00732012,-0.00445317,0.00101283,-0.00794437,-0.00048069,0.
 00014993,-0.00031898,0.00016693,0.00028428,0.00055810,-0.00074044,-0.0
 0007135,0.00256013,0.00027352,-0.00057044,-0.00062847,-0.00001029,0.00
 043908,-0.00013497,-0.00023423,-0.00003607,0.00027576,0.00002679,0.000
 21834,0.00013265,-0.00002101,0.00004162,0.00002153,-0.00001674,0.00002
 037,-0.00002086,0.00000905,0.00000038,0.00007783,-0.00000462,-0.000005
 49,-0.00001668,-0.00000511,-0.00000565,0.00006072,0.00003686,0.0000007
 1,0.00004318,-0.00004510,-0.00000481,-0.00001190,0.00000568,-0.0000148
 4,-0.00001205,0.00000663,0.00000951,-0.00524420,-0.02990161,-0.0826951
 1,-0.00175506,0.01589353,0.00653221,0.00156448,0.00574845,-0.00001150,
 -0.00409037,-0.03330474,-0.00665822,0.18553165,0.11735892,0.27232488\\
 0.00000072,0.00000147,-0.00000233,0.00000127,0.00000305,-0.00000253,0.
 00000118,0.00000287,-0.00000129,0.00000029,0.00000394,-0.00000183,0.00
 000368,0.00000394,0.00000144,0.00000047,0.00000146,-0.00000109,0.00000
 058,-0.00000021,-0.00000066,-0.00000009,0.00000120,0.00000045,-0.00000
 055,0.00000094,-0.00000033,-0.00000201,-0.00000302,-0.00000238,0.00000
 078,-0.00000054,0.00000154,0.00000187,-0.00000087,-0.00000074,0.000001
 47,-0.00000245,0.00000194,-0.00000047,-0.00000034,0.00000040,0.0000014
 7,-0.00000389,0.00000029,0.00000012,-0.00000238,0.00000114,0.00000042,
 -0.00000380,0.00000014,0.00000174,-0.00000235,0.00000003,0.00000024,-0
 .00000425,0.00000188,-0.00000158,-0.00000279,0.00000238,-0.00000199,-0
 .00000017,0.00000029,-0.00000159,-0.00000064,0.00000219,-0.00000006,0.
 00000314,0.00000134,-0.00000153,0.00000258,0.00000023,-0.00000082,0.,0
 .00000107,-0.00000078,0.00000099,-0.00000091,-0.00000485,0.00000214,-0
 .00000266\\\@
 Job cpu time:  0 days  2 hours 34 minutes 32.6 seconds.
 File lengths (MBytes):  RWF=  30909 Int=      0 D2E=      0 Chk=     22 Scr=      1
 Normal termination of Gaussian 09 at Sun Feb  9 05:56:55 2014.
