 Entering Gaussian System, Link 0=g09
 Initial command:
 /usr/caen/gaussian-09revc/g09/l1.exe /scratch/avioli_flux/hetanjin/scratch/Gau-118209.inp -scrdir=/scratch/avioli_flux/hetanjin/scratch/
 Entering Link 1 = /usr/caen/gaussian-09revc/g09/l1.exe PID=    118211.
  
 Copyright (c) 1988,1990,1992,1993,1995,1998,2003,2009,2011,
            Gaussian, Inc.  All Rights Reserved.
  
 This is part of the Gaussian(R) 09 program.  It is based on
 the Gaussian(R) 03 system (copyright 2003, Gaussian, Inc.),
 the Gaussian(R) 98 system (copyright 1998, Gaussian, Inc.),
 the Gaussian(R) 94 system (copyright 1995, Gaussian, Inc.),
 the Gaussian 92(TM) system (copyright 1992, Gaussian, Inc.),
 the Gaussian 90(TM) system (copyright 1990, Gaussian, Inc.),
 the Gaussian 88(TM) system (copyright 1988, Gaussian, Inc.),
 the Gaussian 86(TM) system (copyright 1986, Carnegie Mellon
 University), and the Gaussian 82(TM) system (copyright 1983,
 Carnegie Mellon University). Gaussian is a federally registered
 trademark of Gaussian, Inc.
  
 This software contains proprietary and confidential information,
 including trade secrets, belonging to Gaussian, Inc.
  
 This software is provided under written license and may be
 used, copied, transmitted, or stored only in accord with that
 written license.
  
 The following legend is applicable only to US Government
 contracts under FAR:
  
                    RESTRICTED RIGHTS LEGEND
  
 Use, reproduction and disclosure by the US Government is
 subject to restrictions as set forth in subparagraphs (a)
 and (c) of the Commercial Computer Software - Restricted
 Rights clause in FAR 52.227-19.
  
 Gaussian, Inc.
 340 Quinnipiac St., Bldg. 40, Wallingford CT 06492
  
  
 ---------------------------------------------------------------
 Warning -- This program may not be used in any manner that
 competes with the business of Gaussian, Inc. or will provide
 assistance to any competitor of Gaussian, Inc.  The licensee
 of this program is prohibited from giving any competitor of
 Gaussian, Inc. access to this program.  By using this program,
 the user acknowledges that Gaussian, Inc. is engaged in the
 business of creating and licensing software in the field of
 computational chemistry and represents and warrants to the
 licensee that it is not a competitor of Gaussian, Inc. and that
 it will not use this program in any manner prohibited above.
 ---------------------------------------------------------------
  

 Cite this work as:
 Gaussian 09, Revision C.01,
 M. J. Frisch, G. W. Trucks, H. B. Schlegel, G. E. Scuseria, 
 M. A. Robb, J. R. Cheeseman, G. Scalmani, V. Barone, B. Mennucci, 
 G. A. Petersson, H. Nakatsuji, M. Caricato, X. Li, H. P. Hratchian, 
 A. F. Izmaylov, J. Bloino, G. Zheng, J. L. Sonnenberg, M. Hada, 
 M. Ehara, K. Toyota, R. Fukuda, J. Hasegawa, M. Ishida, T. Nakajima, 
 Y. Honda, O. Kitao, H. Nakai, T. Vreven, J. A. Montgomery, Jr., 
 J. E. Peralta, F. Ogliaro, M. Bearpark, J. J. Heyd, E. Brothers, 
 K. N. Kudin, V. N. Staroverov, T. Keith, R. Kobayashi, J. Normand, 
 K. Raghavachari, A. Rendell, J. C. Burant, S. S. Iyengar, J. Tomasi, 
 M. Cossi, N. Rega, J. M. Millam, M. Klene, J. E. Knox, J. B. Cross, 
 V. Bakken, C. Adamo, J. Jaramillo, R. Gomperts, R. E. Stratmann, 
 O. Yazyev, A. J. Austin, R. Cammi, C. Pomelli, J. W. Ochterski, 
 R. L. Martin, K. Morokuma, V. G. Zakrzewski, G. A. Voth, 
 P. Salvador, J. J. Dannenberg, S. Dapprich, A. D. Daniels, 
 O. Farkas, J. B. Foresman, J. V. Ortiz, J. Cioslowski, 
 and D. J. Fox, Gaussian, Inc., Wallingford CT, 2010.
 
 ******************************************
 Gaussian 09:  EM64L-G09RevC.01 23-Sep-2011
                 3-Apr-2014 
 ******************************************
 %mem=30GB
 %nprocshared=8
 Will use up to    8 processors via shared memory.
 %chk=C9H18O_27_26.chk
 --------------------------
 #p cbs-qb3 opt=calcfc freq
 --------------------------
 1/10=4,14=-1,18=20,19=15,26=3,38=1/1,3;
 2/9=110,12=2,17=6,18=5,40=1/2;
 3/5=4,6=6,7=700,11=2,16=1,25=1,30=1,71=2,74=-5/1,2,3;
 4//1;
 5/5=2,38=5/2;
 8/6=4,10=90,11=11/1;
 11/6=1,8=1,9=11,15=111,16=1/1,2,10;
 10/6=1,7=6,13=1/2;
 6/7=2,8=2,9=2,10=2,28=1/1;
 7/10=1,18=20,25=1/1,2,3,16;
 1/10=4,14=-1,18=20,19=15/3(2);
 2/9=110/2;
 99//99;
 2/9=110/2;
 3/5=4,6=6,7=700,11=2,16=1,25=1,30=1,71=1,74=-5/1,2,3;
 4/5=5,16=3/1;
 5/5=2,38=5/2;
 7//1,2,3,16;
 1/14=-1,18=20,19=15/3(-5);
 2/9=110/2;
 6/7=2,8=2,9=2,10=2,19=2,28=1/1;
 99/9=1/99;
 Leave Link    1 at Thu Apr  3 22:45:37 2014, MaxMem= 4026531840 cpu:       0.9
 (Enter /usr/caen/gaussian-09revc/g09/l101.exe)
 -----------------------------------------
 C9H18O_27_26 using cbs-qb3 to cal. energy
 -----------------------------------------
 Charge =  0 Multiplicity = 1
 Symbolic Z-Matrix:
 6                     0.03346  -0.00731  -0.08883 
 6                    -0.11765   0.12634   1.43471 
 6                     1.18736   0.19964   2.24467 
 6                     1.998     1.48574   2.0083 
 6                     0.98669   1.03435  -0.69032 
 1                     0.92583   0.14758   3.30684 
 1                    -0.711     1.0259    1.65213 
 1                    -0.71183  -0.72047   1.79738 
 1                     0.48667  -0.98313  -0.3044 
 1                     0.68097   2.04979  -0.40388 
 1                     0.937     0.98118  -1.78253 
 1                     1.80442  -0.68142   2.03958 
 6                    -1.33569   0.05678  -0.77922 
 1                    -1.2489   -0.11391  -1.85624 
 1                    -2.01584  -0.69842  -0.37586 
 1                    -1.80751   1.03491  -0.63325 
 6                     2.9261    1.47514   0.76791 
 8                     2.34275   0.77456  -0.3488 
 1                     1.30207   2.33051   1.94145 
 1                     2.62773   1.69275   2.8799 
 6                     3.27408   2.91187   0.35077 
 1                     3.96903   2.90129  -0.49214 
 1                     2.37982   3.4644    0.04982 
 1                     3.73825   3.45809   1.17732 
 6                     4.20895   0.68746   1.05212 
 1                     4.81555   1.18933   1.81039 
 1                     3.97849  -0.32172   1.40011 
 1                     4.79526   0.60026   0.13502 
 
 NAtoms=     28 NQM=        0 NQMF=       0 NMMI=     28 NMMIF=      0
                NMic=       0 NMicF=      0.
                    Isotopes and Nuclear Properties:
 (Nuclear quadrupole moments (NQMom) in fm**2, nuclear magnetic moments (NMagM)
  in nuclear magnetons)

  Atom         1           2           3           4           5           6           7           8           9          10
 IAtWgt=          12          12          12          12          12           1           1           1           1           1
 AtmWgt=  12.0000000  12.0000000  12.0000000  12.0000000  12.0000000   1.0078250   1.0078250   1.0078250   1.0078250   1.0078250
 NucSpn=           0           0           0           0           0           1           1           1           1           1
 AtZEff=   0.0000000   0.0000000   0.0000000   0.0000000   0.0000000   0.0000000   0.0000000   0.0000000   0.0000000   0.0000000
 NQMom=    0.0000000   0.0000000   0.0000000   0.0000000   0.0000000   0.0000000   0.0000000   0.0000000   0.0000000   0.0000000
 NMagM=    0.0000000   0.0000000   0.0000000   0.0000000   0.0000000   2.7928460   2.7928460   2.7928460   2.7928460   2.7928460

  Atom        11          12          13          14          15          16          17          18          19          20
 IAtWgt=           1           1          12           1           1           1          12          16           1           1
 AtmWgt=   1.0078250   1.0078250  12.0000000   1.0078250   1.0078250   1.0078250  12.0000000  15.9949146   1.0078250   1.0078250
 NucSpn=           1           1           0           1           1           1           0           0           1           1
 AtZEff=   0.0000000   0.0000000   0.0000000   0.0000000   0.0000000   0.0000000   0.0000000   0.0000000   0.0000000   0.0000000
 NQMom=    0.0000000   0.0000000   0.0000000   0.0000000   0.0000000   0.0000000   0.0000000   0.0000000   0.0000000   0.0000000
 NMagM=    2.7928460   2.7928460   0.0000000   2.7928460   2.7928460   2.7928460   0.0000000   0.0000000   2.7928460   2.7928460

  Atom        21          22          23          24          25          26          27          28
 IAtWgt=          12           1           1           1          12           1           1           1
 AtmWgt=  12.0000000   1.0078250   1.0078250   1.0078250  12.0000000   1.0078250   1.0078250   1.0078250
 NucSpn=           0           1           1           1           0           1           1           1
 AtZEff=   0.0000000   0.0000000   0.0000000   0.0000000   0.0000000   0.0000000   0.0000000   0.0000000
 NQMom=    0.0000000   0.0000000   0.0000000   0.0000000   0.0000000   0.0000000   0.0000000   0.0000000
 NMagM=    0.0000000   2.7928460   2.7928460   2.7928460   0.0000000   2.7928460   2.7928460   2.7928460
 Leave Link  101 at Thu Apr  3 22:45:38 2014, MaxMem= 4026531840 cpu:       3.8
 (Enter /usr/caen/gaussian-09revc/g09/l103.exe)

 GradGradGradGradGradGradGradGradGradGradGradGradGradGradGradGradGradGrad
 Berny optimization.
 Initialization pass.
                           ----------------------------
                           !    Initial Parameters    !
                           ! (Angstroms and Degrees)  !
 --------------------------                            --------------------------
 ! Name  Definition              Value          Derivative Info.                !
 --------------------------------------------------------------------------------
 ! R1    R(1,2)                  1.5368         calculate D2E/DX2 analytically  !
 ! R2    R(1,5)                  1.5348         calculate D2E/DX2 analytically  !
 ! R3    R(1,9)                  1.0973         calculate D2E/DX2 analytically  !
 ! R4    R(1,13)                 1.5347         calculate D2E/DX2 analytically  !
 ! R5    R(2,3)                  1.5377         calculate D2E/DX2 analytically  !
 ! R6    R(2,7)                  1.0993         calculate D2E/DX2 analytically  !
 ! R7    R(2,8)                  1.0962         calculate D2E/DX2 analytically  !
 ! R8    R(3,4)                  1.5385         calculate D2E/DX2 analytically  !
 ! R9    R(3,6)                  1.0951         calculate D2E/DX2 analytically  !
 ! R10   R(3,12)                 1.095          calculate D2E/DX2 analytically  !
 ! R11   R(4,17)                 1.5492         calculate D2E/DX2 analytically  !
 ! R12   R(4,19)                 1.0965         calculate D2E/DX2 analytically  !
 ! R13   R(4,20)                 1.095          calculate D2E/DX2 analytically  !
 ! R14   R(5,10)                 1.0985         calculate D2E/DX2 analytically  !
 ! R15   R(5,11)                 1.0946         calculate D2E/DX2 analytically  !
 ! R16   R(5,18)                 1.4223         calculate D2E/DX2 analytically  !
 ! R17   R(13,14)                1.0939         calculate D2E/DX2 analytically  !
 ! R18   R(13,15)                1.0934         calculate D2E/DX2 analytically  !
 ! R19   R(13,16)                1.0957         calculate D2E/DX2 analytically  !
 ! R20   R(17,18)                1.4416         calculate D2E/DX2 analytically  !
 ! R21   R(17,21)                1.536          calculate D2E/DX2 analytically  !
 ! R22   R(17,25)                1.532          calculate D2E/DX2 analytically  !
 ! R23   R(21,22)                1.0925         calculate D2E/DX2 analytically  !
 ! R24   R(21,23)                1.0934         calculate D2E/DX2 analytically  !
 ! R25   R(21,24)                1.0941         calculate D2E/DX2 analytically  !
 ! R26   R(25,26)                1.0931         calculate D2E/DX2 analytically  !
 ! R27   R(25,27)                1.0921         calculate D2E/DX2 analytically  !
 ! R28   R(25,28)                1.092          calculate D2E/DX2 analytically  !
 ! A1    A(2,1,5)              112.9895         calculate D2E/DX2 analytically  !
 ! A2    A(2,1,9)              108.2225         calculate D2E/DX2 analytically  !
 ! A3    A(2,1,13)             110.7695         calculate D2E/DX2 analytically  !
 ! A4    A(5,1,9)              105.667          calculate D2E/DX2 analytically  !
 ! A5    A(5,1,13)             110.4535         calculate D2E/DX2 analytically  !
 ! A6    A(9,1,13)             108.4953         calculate D2E/DX2 analytically  !
 ! A7    A(1,2,3)              116.2879         calculate D2E/DX2 analytically  !
 ! A8    A(1,2,7)              108.6806         calculate D2E/DX2 analytically  !
 ! A9    A(1,2,8)              108.3058         calculate D2E/DX2 analytically  !
 ! A10   A(3,2,7)              108.3535         calculate D2E/DX2 analytically  !
 ! A11   A(3,2,8)              108.8189         calculate D2E/DX2 analytically  !
 ! A12   A(7,2,8)              105.9103         calculate D2E/DX2 analytically  !
 ! A13   A(2,3,4)              113.9595         calculate D2E/DX2 analytically  !
 ! A14   A(2,3,6)              107.8153         calculate D2E/DX2 analytically  !
 ! A15   A(2,3,12)             109.9522         calculate D2E/DX2 analytically  !
 ! A16   A(4,3,6)              108.3352         calculate D2E/DX2 analytically  !
 ! A17   A(4,3,12)             110.2976         calculate D2E/DX2 analytically  !
 ! A18   A(6,3,12)             106.1398         calculate D2E/DX2 analytically  !
 ! A19   A(3,4,17)             115.6546         calculate D2E/DX2 analytically  !
 ! A20   A(3,4,19)             108.6002         calculate D2E/DX2 analytically  !
 ! A21   A(3,4,20)             109.8003         calculate D2E/DX2 analytically  !
 ! A22   A(17,4,19)            109.6741         calculate D2E/DX2 analytically  !
 ! A23   A(17,4,20)            107.1016         calculate D2E/DX2 analytically  !
 ! A24   A(19,4,20)            105.5369         calculate D2E/DX2 analytically  !
 ! A25   A(1,5,10)             110.6311         calculate D2E/DX2 analytically  !
 ! A26   A(1,5,11)             109.2614         calculate D2E/DX2 analytically  !
 ! A27   A(1,5,18)             111.9675         calculate D2E/DX2 analytically  !
 ! A28   A(10,5,11)            107.0051         calculate D2E/DX2 analytically  !
 ! A29   A(10,5,18)            111.8134         calculate D2E/DX2 analytically  !
 ! A30   A(11,5,18)            105.9022         calculate D2E/DX2 analytically  !
 ! A31   A(1,13,14)            111.445          calculate D2E/DX2 analytically  !
 ! A32   A(1,13,15)            111.1085         calculate D2E/DX2 analytically  !
 ! A33   A(1,13,16)            111.1918         calculate D2E/DX2 analytically  !
 ! A34   A(14,13,15)           107.7447         calculate D2E/DX2 analytically  !
 ! A35   A(14,13,16)           107.7346         calculate D2E/DX2 analytically  !
 ! A36   A(15,13,16)           107.4305         calculate D2E/DX2 analytically  !
 ! A37   A(4,17,18)            112.4033         calculate D2E/DX2 analytically  !
 ! A38   A(4,17,21)            110.2892         calculate D2E/DX2 analytically  !
 ! A39   A(4,17,25)            110.8942         calculate D2E/DX2 analytically  !
 ! A40   A(18,17,21)           109.6259         calculate D2E/DX2 analytically  !
 ! A41   A(18,17,25)           103.456          calculate D2E/DX2 analytically  !
 ! A42   A(21,17,25)           109.9749         calculate D2E/DX2 analytically  !
 ! A43   A(5,18,17)            118.8845         calculate D2E/DX2 analytically  !
 ! A44   A(17,21,22)           110.1563         calculate D2E/DX2 analytically  !
 ! A45   A(17,21,23)           111.231          calculate D2E/DX2 analytically  !
 ! A46   A(17,21,24)           110.9739         calculate D2E/DX2 analytically  !
 ! A47   A(22,21,23)           108.227          calculate D2E/DX2 analytically  !
 ! A48   A(22,21,24)           108.5319         calculate D2E/DX2 analytically  !
 ! A49   A(23,21,24)           107.616          calculate D2E/DX2 analytically  !
 ! A50   A(17,25,26)           110.936          calculate D2E/DX2 analytically  !
 ! A51   A(17,25,27)           110.9488         calculate D2E/DX2 analytically  !
 ! A52   A(17,25,28)           109.5637         calculate D2E/DX2 analytically  !
 ! A53   A(26,25,27)           108.6836         calculate D2E/DX2 analytically  !
 ! A54   A(26,25,28)           108.7424         calculate D2E/DX2 analytically  !
 ! A55   A(27,25,28)           107.8866         calculate D2E/DX2 analytically  !
 ! D1    D(5,1,2,3)            -50.4094         calculate D2E/DX2 analytically  !
 ! D2    D(5,1,2,7)             72.1208         calculate D2E/DX2 analytically  !
 ! D3    D(5,1,2,8)           -173.2555         calculate D2E/DX2 analytically  !
 ! D4    D(9,1,2,3)             66.2385         calculate D2E/DX2 analytically  !
 ! D5    D(9,1,2,7)           -171.2313         calculate D2E/DX2 analytically  !
 ! D6    D(9,1,2,8)            -56.6076         calculate D2E/DX2 analytically  !
 ! D7    D(13,1,2,3)          -174.9424         calculate D2E/DX2 analytically  !
 ! D8    D(13,1,2,7)           -52.4122         calculate D2E/DX2 analytically  !
 ! D9    D(13,1,2,8)            62.2115         calculate D2E/DX2 analytically  !
 ! D10   D(2,1,5,10)           -54.2065         calculate D2E/DX2 analytically  !
 ! D11   D(2,1,5,11)          -171.7608         calculate D2E/DX2 analytically  !
 ! D12   D(2,1,5,18)            71.2438         calculate D2E/DX2 analytically  !
 ! D13   D(9,1,5,10)          -172.3567         calculate D2E/DX2 analytically  !
 ! D14   D(9,1,5,11)            70.089          calculate D2E/DX2 analytically  !
 ! D15   D(9,1,5,18)           -46.9063         calculate D2E/DX2 analytically  !
 ! D16   D(13,1,5,10)           70.4986         calculate D2E/DX2 analytically  !
 ! D17   D(13,1,5,11)          -47.0556         calculate D2E/DX2 analytically  !
 ! D18   D(13,1,5,18)         -164.051          calculate D2E/DX2 analytically  !
 ! D19   D(2,1,13,14)         -175.6397         calculate D2E/DX2 analytically  !
 ! D20   D(2,1,13,15)          -55.4652         calculate D2E/DX2 analytically  !
 ! D21   D(2,1,13,16)           64.1421         calculate D2E/DX2 analytically  !
 ! D22   D(5,1,13,14)           58.3975         calculate D2E/DX2 analytically  !
 ! D23   D(5,1,13,15)          178.5719         calculate D2E/DX2 analytically  !
 ! D24   D(5,1,13,16)          -61.8208         calculate D2E/DX2 analytically  !
 ! D25   D(9,1,13,14)          -56.9857         calculate D2E/DX2 analytically  !
 ! D26   D(9,1,13,15)           63.1888         calculate D2E/DX2 analytically  !
 ! D27   D(9,1,13,16)         -177.2039         calculate D2E/DX2 analytically  !
 ! D28   D(1,2,3,4)             67.672          calculate D2E/DX2 analytically  !
 ! D29   D(1,2,3,6)           -172.0376         calculate D2E/DX2 analytically  !
 ! D30   D(1,2,3,12)           -56.742          calculate D2E/DX2 analytically  !
 ! D31   D(7,2,3,4)            -55.0294         calculate D2E/DX2 analytically  !
 ! D32   D(7,2,3,6)             65.261          calculate D2E/DX2 analytically  !
 ! D33   D(7,2,3,12)          -179.4434         calculate D2E/DX2 analytically  !
 ! D34   D(8,2,3,4)           -169.7501         calculate D2E/DX2 analytically  !
 ! D35   D(8,2,3,6)            -49.4598         calculate D2E/DX2 analytically  !
 ! D36   D(8,2,3,12)            65.8359         calculate D2E/DX2 analytically  !
 ! D37   D(2,3,4,17)           -83.7661         calculate D2E/DX2 analytically  !
 ! D38   D(2,3,4,19)            39.9934         calculate D2E/DX2 analytically  !
 ! D39   D(2,3,4,20)           154.9256         calculate D2E/DX2 analytically  !
 ! D40   D(6,3,4,17)           156.2358         calculate D2E/DX2 analytically  !
 ! D41   D(6,3,4,19)           -80.0047         calculate D2E/DX2 analytically  !
 ! D42   D(6,3,4,20)            34.9274         calculate D2E/DX2 analytically  !
 ! D43   D(12,3,4,17)           40.4624         calculate D2E/DX2 analytically  !
 ! D44   D(12,3,4,19)          164.222          calculate D2E/DX2 analytically  !
 ! D45   D(12,3,4,20)          -80.8459         calculate D2E/DX2 analytically  !
 ! D46   D(3,4,17,18)           37.0136         calculate D2E/DX2 analytically  !
 ! D47   D(3,4,17,21)          159.679          calculate D2E/DX2 analytically  !
 ! D48   D(3,4,17,25)          -78.2499         calculate D2E/DX2 analytically  !
 ! D49   D(19,4,17,18)         -86.1824         calculate D2E/DX2 analytically  !
 ! D50   D(19,4,17,21)          36.483          calculate D2E/DX2 analytically  !
 ! D51   D(19,4,17,25)         158.554          calculate D2E/DX2 analytically  !
 ! D52   D(20,4,17,18)         159.7616         calculate D2E/DX2 analytically  !
 ! D53   D(20,4,17,21)         -77.573          calculate D2E/DX2 analytically  !
 ! D54   D(20,4,17,25)          44.498          calculate D2E/DX2 analytically  !
 ! D55   D(1,5,18,17)          -96.8525         calculate D2E/DX2 analytically  !
 ! D56   D(10,5,18,17)          27.9452         calculate D2E/DX2 analytically  !
 ! D57   D(11,5,18,17)         144.1496         calculate D2E/DX2 analytically  !
 ! D58   D(4,17,18,5)           45.8095         calculate D2E/DX2 analytically  !
 ! D59   D(21,17,18,5)         -77.2289         calculate D2E/DX2 analytically  !
 ! D60   D(25,17,18,5)         165.4978         calculate D2E/DX2 analytically  !
 ! D61   D(4,17,21,22)         177.1214         calculate D2E/DX2 analytically  !
 ! D62   D(4,17,21,23)         -62.8752         calculate D2E/DX2 analytically  !
 ! D63   D(4,17,21,24)          56.9027         calculate D2E/DX2 analytically  !
 ! D64   D(18,17,21,22)        -58.5993         calculate D2E/DX2 analytically  !
 ! D65   D(18,17,21,23)         61.4042         calculate D2E/DX2 analytically  !
 ! D66   D(18,17,21,24)       -178.818          calculate D2E/DX2 analytically  !
 ! D67   D(25,17,21,22)         54.5093         calculate D2E/DX2 analytically  !
 ! D68   D(25,17,21,23)        174.5128         calculate D2E/DX2 analytically  !
 ! D69   D(25,17,21,24)        -65.7094         calculate D2E/DX2 analytically  !
 ! D70   D(4,17,25,26)         -66.0973         calculate D2E/DX2 analytically  !
 ! D71   D(4,17,25,27)          54.8152         calculate D2E/DX2 analytically  !
 ! D72   D(4,17,25,28)         173.8323         calculate D2E/DX2 analytically  !
 ! D73   D(18,17,25,26)        173.1852         calculate D2E/DX2 analytically  !
 ! D74   D(18,17,25,27)        -65.9022         calculate D2E/DX2 analytically  !
 ! D75   D(18,17,25,28)         53.1149         calculate D2E/DX2 analytically  !
 ! D76   D(21,17,25,26)         56.157          calculate D2E/DX2 analytically  !
 ! D77   D(21,17,25,27)        177.0696         calculate D2E/DX2 analytically  !
 ! D78   D(21,17,25,28)        -63.9134         calculate D2E/DX2 analytically  !
 --------------------------------------------------------------------------------
 Trust Radius=3.00D-01 FncErr=1.00D-07 GrdErr=1.00D-06
 Number of steps in this run=    168 maximum allowed number of steps=    168.
 GradGradGradGradGradGradGradGradGradGradGradGradGradGradGradGradGradGrad

 Leave Link  103 at Thu Apr  3 22:45:39 2014, MaxMem= 4026531840 cpu:       0.2
 (Enter /usr/caen/gaussian-09revc/g09/l202.exe)
                          Input orientation:                          
 ---------------------------------------------------------------------
 Center     Atomic      Atomic             Coordinates (Angstroms)
 Number     Number       Type             X           Y           Z
 ---------------------------------------------------------------------
      1          6           0        0.033457   -0.007314   -0.088827
      2          6           0       -0.117653    0.126339    1.434713
      3          6           0        1.187357    0.199640    2.244672
      4          6           0        1.997997    1.485736    2.008297
      5          6           0        0.986694    1.034354   -0.690320
      6          1           0        0.925832    0.147583    3.306844
      7          1           0       -0.710995    1.025898    1.652131
      8          1           0       -0.711829   -0.720466    1.797375
      9          1           0        0.486667   -0.983127   -0.304404
     10          1           0        0.680970    2.049786   -0.403878
     11          1           0        0.936999    0.981184   -1.782528
     12          1           0        1.804421   -0.681417    2.039578
     13          6           0       -1.335692    0.056780   -0.779217
     14          1           0       -1.248900   -0.113908   -1.856241
     15          1           0       -2.015843   -0.698419   -0.375859
     16          1           0       -1.807507    1.034913   -0.633246
     17          6           0        2.926099    1.475137    0.767907
     18          8           0        2.342748    0.774561   -0.348796
     19          1           0        1.302070    2.330507    1.941450
     20          1           0        2.627725    1.692745    2.879896
     21          6           0        3.274075    2.911867    0.350772
     22          1           0        3.969032    2.901290   -0.492138
     23          1           0        2.379815    3.464395    0.049819
     24          1           0        3.738247    3.458092    1.177315
     25          6           0        4.208953    0.687456    1.052117
     26          1           0        4.815547    1.189332    1.810394
     27          1           0        3.978493   -0.321724    1.400109
     28          1           0        4.795256    0.600263    0.135019
 ---------------------------------------------------------------------
                    Distance matrix (angstroms):
                    1          2          3          4          5
     1  C    0.000000
     2  C    1.536838   0.000000
     3  C    2.611424   1.537679   0.000000
     4  C    3.238293   2.579328   1.538523   0.000000
     5  C    1.534773   2.561218   3.057972   2.917021   0.000000
     6  H    3.514386   2.143405   1.095132   2.150910   4.094800
     7  H    2.157005   1.099332   2.153497   2.770730   2.892974
     8  H    2.149836   1.096197   2.157215   3.500710   3.486115
     9  H    1.097308   2.149569   2.896151   3.705130   2.114045
    10  H    2.179493   2.778104   3.270212   2.805584   1.098462
    11  H    2.159199   3.491947   4.109967   3.968708   1.094630
    12  H    2.849708   2.170875   1.095031   2.176006   3.326393
    13  C    1.534704   2.527834   3.940824   4.574454   2.521315
    14  H    2.186219   3.488240   4.780287   5.294890   2.770516
    15  H    2.181661   2.749822   4.234877   5.154187   3.480893
    16  H    2.184440   2.820916   4.236662   4.654337   2.794784
    17  C    3.361403   3.395337   2.613609   1.549210   2.466173
    18  O    2.451884   3.107196   2.896815   2.486063   1.422327
    19  H    3.346164   2.670347   2.155388   1.096550   2.950540
    20  H    4.293454   3.475526   2.169685   1.095032   3.984081
    21  C    4.383659   4.520831   3.911192   2.531722   3.137043
    22  H    4.910335   5.302273   4.746236   3.484386   3.524070
    23  H    4.192539   4.392937   4.110713   2.810073   2.897187
    24  H    5.228539   5.102430   4.273617   2.758476   4.115047
    25  C    4.383974   4.379583   3.284843   2.537687   3.679589
    26  H    5.282744   5.060391   3.785743   2.840002   4.575774
    27  H    4.228368   4.120724   2.962355   2.749394   3.893546
    28  H    4.805620   5.103967   4.198579   3.481076   3.921067
                    6          7          8          9         10
     6  H    0.000000
     7  H    2.487713   0.000000
     8  H    2.390385   1.752394   0.000000
     9  H    3.809525   3.049361   2.433692   0.000000
    10  H    4.177055   2.685719   3.802591   3.040758   0.000000
    11  H    5.157201   3.809825   4.293012   2.499233   1.762991
    12  H    1.750749   3.064695   2.528181   2.705874   3.833026
    13  C    4.671042   2.690890   2.762633   2.151243   2.860049
    14  H    5.608501   3.727891   3.742361   2.485142   3.242735
    15  H    4.788682   2.964564   2.534538   2.519667   3.850483
    16  H    4.876762   2.534831   3.192144   3.073086   2.697238
    17  C    3.494234   3.769897   4.372070   3.625430   2.596903
    18  O    3.970448   3.659539   4.021392   2.556653   2.095409
    19  H    2.602117   2.416224   3.658549   4.085207   2.442362
    20  H    2.338001   3.619274   4.260054   4.678054   3.834124
    21  C    4.679089   4.596868   5.583362   4.834240   2.834938
    22  H    5.592516   5.478835   6.345821   5.220230   3.397676
    23  H    4.870680   4.250503   5.488650   4.846642   2.256775
    24  H    4.837772   5.092816   6.135796   5.700236   3.718930
    25  C    4.019221   4.967942   5.172209   4.299583   4.052472
    26  H    4.295869   5.531223   5.848024   5.284993   4.768449
    27  H    3.629687   4.885785   4.723975   3.941531   4.444332
    28  H    5.023727   5.727268   5.902181   4.611307   4.395324
                   11         12         13         14         15
    11  H    0.000000
    12  H    4.257365   0.000000
    13  C    2.650713   4.283789   0.000000
    14  H    2.445979   4.982192   1.093914   0.000000
    15  H    3.676827   4.519850   1.093448   1.766744   0.000000
    16  H    2.975911   4.809969   1.095747   1.768488   1.764679
    17  C    3.271884   2.743362   4.750599   5.180910   5.518635
    18  O    2.018517   2.848508   3.772452   3.995210   4.600839
    19  H    3.977683   3.055106   4.419237   5.187010   5.054984
    20  H    5.010297   2.649643   5.636858   6.381474   6.154700
    21  C    3.706809   4.233632   5.538804   5.872267   6.445571
    22  H    3.813809   4.891924   6.026089   6.178917   6.984995
    23  H    3.406692   4.634434   5.109220   5.441038   6.068940
    24  H    4.768934   4.649593   6.414187   6.843485   7.266257
    25  C    4.339029   2.937800   5.873212   6.236096   6.535124
    26  H    5.291082   3.552338   6.769527   7.205565   7.416953
    27  H    4.591017   2.294535   5.756152   6.162194   6.263228
    28  H    4.325302   3.770297   6.222518   6.403669   6.952600
                   16         17         18         19         20
    16  H    0.000000
    17  C    4.956214   0.000000
    18  O    4.168130   1.441572   0.000000
    19  H    4.239940   2.178608   2.957906   0.000000
    20  H    5.696156   2.144033   3.368787   1.744930   0.000000
    21  C    5.505790   1.535995   2.434100   2.599431   2.881058
    22  H    6.072205   2.170100   2.681105   3.655247   3.824957
    23  H    4.889031   2.184313   2.719462   2.454690   3.348065
    24  H    6.317065   2.181584   3.387886   2.791112   2.692302
    25  C    6.257713   1.531970   2.335137   3.455503   2.617568
    26  H    7.061166   2.176804   3.308908   3.696482   2.486730
    27  H    6.281146   2.176217   2.633661   3.806655   2.841202
    28  H    6.661504   2.158634   2.505844   4.296427   3.664158
                   21         22         23         24         25
    21  C    0.000000
    22  H    1.092508   0.000000
    23  H    1.093417   1.770993   0.000000
    24  H    1.094071   1.774926   1.765396   0.000000
    25  C    2.512745   2.709861   3.473001   2.813123   0.000000
    26  H    2.733818   2.991495   3.769393   2.590104   1.093078
    27  H    3.471804   3.737447   4.325939   3.793991   1.092087
    28  H    2.775618   2.524024   3.747648   3.220378   1.091981
                   26         27         28
    26  H    0.000000
    27  H    1.775467   0.000000
    28  H    1.776034   1.765677   0.000000
 Stoichiometry    C9H18O
 Framework group  C1[X(C9H18O)]
 Deg. of freedom    78
 Full point group                 C1      NOp   1
 Largest Abelian subgroup         C1      NOp   1
 Largest concise Abelian subgroup C1      NOp   1
                         Standard orientation:                         
 ---------------------------------------------------------------------
 Center     Atomic      Atomic             Coordinates (Angstroms)
 Number     Number       Type             X           Y           Z
 ---------------------------------------------------------------------
      1          6           0        1.839190   -0.192636   -0.373621
      2          6           0        1.600297    1.206838    0.214830
      3          6           0        0.207795    1.815516   -0.019494
      4          6           0       -0.925472    1.087440    0.723920
      5          6           0        0.739465   -1.195817    0.000222
      6          1           0        0.234019    2.854650    0.325219
      7          1           0        1.783878    1.169361    1.298077
      8          1           0        2.356708    1.886306   -0.194819
      9          1           0        1.809496   -0.114468   -1.467738
     10          1           0        0.605442   -1.235007    1.089772
     11          1           0        1.040251   -2.197911   -0.321572
     12          1           0       -0.006512    1.856098   -1.092582
     13          6           0        3.216809   -0.728596    0.038968
     14          1           0        3.430314   -1.690633   -0.435951
     15          1           0        4.011216   -0.033055   -0.245231
     16          1           0        3.277793   -0.871026    1.123706
     17          6           0       -1.499899   -0.162803    0.011894
     18          8           0       -0.482846   -0.920792   -0.673077
     19          1           0       -0.567607    0.811475    1.723018
     20          1           0       -1.761079    1.775088    0.891237
     21          6           0       -2.223619   -1.065587    1.022088
     22          1           0       -2.671475   -1.920312    0.509795
     23          1           0       -1.532876   -1.444737    1.780164
     24          1           0       -3.015550   -0.516902    1.540530
     25          6           0       -2.460492    0.241073   -1.111083
     26          1           0       -3.352300    0.726628   -0.706440
     27          1           0       -1.976823    0.925432   -1.811348
     28          1           0       -2.766572   -0.647221   -1.667564
 ---------------------------------------------------------------------
 Rotational constants (GHZ):      2.2046787      0.9349497      0.7956458
 Leave Link  202 at Thu Apr  3 22:45:39 2014, MaxMem= 4026531840 cpu:       0.4
 (Enter /usr/caen/gaussian-09revc/g09/l301.exe)
 Standard basis: 6-311G(2d,d,p) (5D, 7F)
 Ernie: Thresh=  0.10000D-02 Tol=  0.10000D-05 Strict=F.
 There are   288 symmetry adapted basis functions of A   symmetry.
 Integral buffers will be    131072 words long.
 Raffenetti 2 integral format.
 Two-electron integral symmetry is turned on.
   288 basis functions,   464 primitive gaussians,   298 cartesian basis functions
    40 alpha electrons       40 beta electrons
       nuclear repulsion energy       602.0024783226 Hartrees.
 IExCor=  402 DFT=T Ex+Corr=B3LYP ExCW=0 ScaHFX=  0.200000
 ScaDFX=  0.800000  0.720000  1.000000  0.810000 ScalE2=  1.000000  1.000000
 IRadAn=      0 IRanWt=     -1 IRanGd=            0 ICorTp=0
 NAtoms=   28 NActive=   28 NUniq=   28 SFac= 1.00D+00 NAtFMM=   60 NAOKFM=F Big=F
 Leave Link  301 at Thu Apr  3 22:45:39 2014, MaxMem= 4026531840 cpu:       0.8
 (Enter /usr/caen/gaussian-09revc/g09/l302.exe)
 NPDir=0 NMtPBC=     1 NCelOv=     1 NCel=       1 NClECP=     1 NCelD=      1
         NCelK=      1 NCelE2=     1 NClLst=     1 CellRange=     0.0.
 One-electron integrals computed using PRISM.
 NBasis=   288 RedAO= T  NBF=   288
 NBsUse=   288 1.00D-06 NBFU=   288
 Precomputing XC quadrature grid using
 IXCGrd= 2 IRadAn=           0 IRanWt=          -1 IRanGd=           0 AccXCQ= 0.00D+00.
 NRdTot=    1775 NPtTot=      225732 NUsed=      238534 NTot=      238566
 NSgBfM=   298   298   298   298   298 NAtAll=    28    28.
 Leave Link  302 at Thu Apr  3 22:45:40 2014, MaxMem= 4026531840 cpu:       6.3
 (Enter /usr/caen/gaussian-09revc/g09/l303.exe)
 DipDrv:  MaxL=1.
 Leave Link  303 at Thu Apr  3 22:45:40 2014, MaxMem= 4026531840 cpu:       1.5
 (Enter /usr/caen/gaussian-09revc/g09/l401.exe)
 Harris functional with IExCor=  402 diagonalized for initial guess.
 ExpMin= 1.03D-01 ExpMax= 8.59D+03 ExpMxC= 1.30D+03 IAcc=1 IRadAn=         1 AccDes= 0.00D+00
 HarFok:  IExCor=  402 AccDes= 0.00D+00 IRadAn=         1 IDoV= 1
 ScaDFX=  1.000000  1.000000  1.000000  1.000000
 FoFCou: FMM=F IPFlag=           0 FMFlag=      100000 FMFlg1=           0
         NFxFlg=           0 DoJE=T BraDBF=F KetDBF=T FulRan=T
         Omega=  0.000000  0.000000  1.000000  0.000000  0.000000 ICntrl=     500 IOpCl=  0
         NMat0=    1 NMatS0=    1 NMatT0=    0 NMatD0=    1 NMtDS0=    0 NMtDT0=    0
         I1Cent=           4 NGrid=           0.
 Petite list used in FoFCou.
 Harris En= -429.215251615205    
 Initial guess orbital symmetries:
       Occupied  (A) (A) (A) (A) (A) (A) (A) (A) (A) (A) (A) (A)
                 (A) (A) (A) (A) (A) (A) (A) (A) (A) (A) (A) (A)
                 (A) (A) (A) (A) (A) (A) (A) (A) (A) (A) (A) (A)
                 (A) (A) (A) (A)
       Virtual   (A) (A) (A) (A) (A) (A) (A) (A) (A) (A) (A) (A)
                 (A) (A) (A) (A) (A) (A) (A) (A) (A) (A) (A) (A)
                 (A) (A) (A) (A) (A) (A) (A) (A) (A) (A) (A) (A)
                 (A) (A) (A) (A) (A) (A) (A) (A) (A) (A) (A) (A)
                 (A) (A) (A) (A) (A) (A) (A) (A) (A) (A) (A) (A)
                 (A) (A) (A) (A) (A) (A) (A) (A) (A) (A) (A) (A)
                 (A) (A) (A) (A) (A) (A) (A) (A) (A) (A) (A) (A)
                 (A) (A) (A) (A) (A) (A) (A) (A) (A) (A) (A) (A)
                 (A) (A) (A) (A) (A) (A) (A) (A) (A) (A) (A) (A)
                 (A) (A) (A) (A) (A) (A) (A) (A) (A) (A) (A) (A)
                 (A) (A) (A) (A) (A) (A) (A) (A) (A) (A) (A) (A)
                 (A) (A) (A) (A) (A) (A) (A) (A) (A) (A) (A) (A)
                 (A) (A) (A) (A) (A) (A) (A) (A) (A) (A) (A) (A)
                 (A) (A) (A) (A) (A) (A) (A) (A) (A) (A) (A) (A)
                 (A) (A) (A) (A) (A) (A) (A) (A) (A) (A) (A) (A)
                 (A) (A) (A) (A) (A) (A) (A) (A) (A) (A) (A) (A)
                 (A) (A) (A) (A) (A) (A) (A) (A) (A) (A) (A) (A)
                 (A) (A) (A) (A) (A) (A) (A) (A) (A) (A) (A) (A)
                 (A) (A) (A) (A) (A) (A) (A) (A) (A) (A) (A) (A)
                 (A) (A) (A) (A) (A) (A) (A) (A) (A) (A) (A) (A)
                 (A) (A) (A) (A) (A) (A) (A) (A)
 The electronic state of the initial guess is 1-A.
 Leave Link  401 at Thu Apr  3 22:45:42 2014, MaxMem= 4026531840 cpu:      10.7
 (Enter /usr/caen/gaussian-09revc/g09/l502.exe)
 Closed shell SCF:
 Requested convergence on RMS density matrix=1.00D-08 within 128 cycles.
 Requested convergence on MAX density matrix=1.00D-06.
 Requested convergence on             energy=1.00D-06.
 No special actions if energy rises.
 Using DIIS extrapolation, IDIIS=  1040.
 Integral symmetry usage will be decided dynamically.
       238269 words used for storage of precomputed grid.
 Keep R1 ints in memory in canonical form, NReq=1006310855.
 IEnd=      527465 IEndB=      527465 NGot=  4026531840 MDV=  3033692014
 LenX=  3033692014 LenY=  3033602769
 Symmetry not used in FoFDir.
 MinBra= 0 MaxBra= 2 Meth= 1.
 IRaf=       0 NMat=   1 IRICut=       1 DoRegI=T DoRafI=F ISym2E= 0 JSym2E=0.
 Integral accuracy reduced to 1.0D-05 until final iterations.

 Cycle   1  Pass 0  IDiag  1:
 E= -428.777925863267    
 DIIS: error= 2.61D-02 at cycle   1 NSaved=   1.
 NSaved= 1 IEnMin= 1 EnMin= -428.777925863267     IErMin= 1 ErrMin= 2.61D-02
 ErrMax= 2.61D-02 EMaxC= 1.00D-01 BMatC= 3.71D-01 BMatP= 3.71D-01
 IDIUse=3 WtCom= 7.39D-01 WtEn= 2.61D-01
 Coeff-Com:  0.100D+01
 Coeff-En:   0.100D+01
 Coeff:      0.100D+01
 Gap=     0.229 Goal=   None    Shift=    0.000
 GapD=    0.229 DampG=1.000 DampE=0.500 DampFc=0.5000 IDamp=-1.
 Damping current iteration by 5.00D-01
 RMSDP=3.86D-03 MaxDP=1.23D-01              OVMax= 1.83D-01

 Cycle   2  Pass 0  IDiag  1:
 E= -428.933474671076     Delta-E=       -0.155548807809 Rises=F Damp=T
 DIIS: error= 5.33D-03 at cycle   2 NSaved=   2.
 NSaved= 2 IEnMin= 2 EnMin= -428.933474671076     IErMin= 2 ErrMin= 5.33D-03
 ErrMax= 5.33D-03 EMaxC= 1.00D-01 BMatC= 1.87D-02 BMatP= 3.71D-01
 IDIUse=3 WtCom= 9.47D-01 WtEn= 5.33D-02
 Coeff-Com:  0.690D-01 0.931D+00
 Coeff-En:   0.154D+00 0.846D+00
 Coeff:      0.735D-01 0.926D+00
 Gap=     0.303 Goal=   None    Shift=    0.000
 RMSDP=8.27D-04 MaxDP=2.57D-02 DE=-1.56D-01 OVMax= 1.06D-01

 Cycle   3  Pass 0  IDiag  1:
 E= -429.136735441802     Delta-E=       -0.203260770725 Rises=F Damp=F
 DIIS: error= 3.83D-03 at cycle   3 NSaved=   3.
 NSaved= 3 IEnMin= 3 EnMin= -429.136735441802     IErMin= 3 ErrMin= 3.83D-03
 ErrMax= 3.83D-03 EMaxC= 1.00D-01 BMatC= 6.01D-03 BMatP= 1.87D-02
 IDIUse=3 WtCom= 9.62D-01 WtEn= 3.83D-02
 Coeff-Com: -0.165D-01 0.326D+00 0.691D+00
 Coeff-En:   0.000D+00 0.000D+00 0.100D+01
 Coeff:     -0.159D-01 0.313D+00 0.703D+00
 Gap=     0.278 Goal=   None    Shift=    0.000
 RMSDP=4.11D-04 MaxDP=1.06D-02 DE=-2.03D-01 OVMax= 1.84D-02

 Cycle   4  Pass 0  IDiag  1:
 E= -429.140657932036     Delta-E=       -0.003922490234 Rises=F Damp=F
 DIIS: error= 2.19D-03 at cycle   4 NSaved=   4.
 NSaved= 4 IEnMin= 4 EnMin= -429.140657932036     IErMin= 4 ErrMin= 2.19D-03
 ErrMax= 2.19D-03 EMaxC= 1.00D-01 BMatC= 1.96D-03 BMatP= 6.01D-03
 IDIUse=3 WtCom= 9.78D-01 WtEn= 2.19D-02
 Coeff-Com: -0.158D-01 0.910D-01 0.394D+00 0.531D+00
 Coeff-En:   0.000D+00 0.000D+00 0.211D+00 0.789D+00
 Coeff:     -0.155D-01 0.890D-01 0.390D+00 0.537D+00
 Gap=     0.287 Goal=   None    Shift=    0.000
 RMSDP=1.52D-04 MaxDP=5.26D-03 DE=-3.92D-03 OVMax= 9.29D-03

 Cycle   5  Pass 0  IDiag  1:
 E= -429.142226099098     Delta-E=       -0.001568167062 Rises=F Damp=F
 DIIS: error= 5.26D-04 at cycle   5 NSaved=   5.
 NSaved= 5 IEnMin= 5 EnMin= -429.142226099098     IErMin= 5 ErrMin= 5.26D-04
 ErrMax= 5.26D-04 EMaxC= 1.00D-01 BMatC= 1.01D-04 BMatP= 1.96D-03
 IDIUse=3 WtCom= 9.95D-01 WtEn= 5.26D-03
 Coeff-Com: -0.611D-02 0.173D-01 0.133D+00 0.259D+00 0.596D+00
 Coeff-En:   0.000D+00 0.000D+00 0.000D+00 0.000D+00 0.100D+01
 Coeff:     -0.608D-02 0.172D-01 0.132D+00 0.258D+00 0.599D+00
 Gap=     0.285 Goal=   None    Shift=    0.000
 RMSDP=3.77D-05 MaxDP=1.55D-03 DE=-1.57D-03 OVMax= 2.29D-03

 Cycle   6  Pass 0  IDiag  1:
 E= -429.142289694931     Delta-E=       -0.000063595832 Rises=F Damp=F
 DIIS: error= 2.28D-04 at cycle   6 NSaved=   6.
 NSaved= 6 IEnMin= 6 EnMin= -429.142289694931     IErMin= 6 ErrMin= 2.28D-04
 ErrMax= 2.28D-04 EMaxC= 1.00D-01 BMatC= 1.32D-05 BMatP= 1.01D-04
 IDIUse=3 WtCom= 9.98D-01 WtEn= 2.28D-03
 Coeff-Com: -0.208D-02 0.309D-02 0.473D-01 0.110D+00 0.349D+00 0.493D+00
 Coeff-En:   0.000D+00 0.000D+00 0.000D+00 0.000D+00 0.364D-01 0.964D+00
 Coeff:     -0.208D-02 0.308D-02 0.472D-01 0.110D+00 0.348D+00 0.494D+00
 Gap=     0.285 Goal=   None    Shift=    0.000
 RMSDP=1.00D-05 MaxDP=3.82D-04 DE=-6.36D-05 OVMax= 5.93D-04

 Cycle   7  Pass 0  IDiag  1:
 E= -429.142299655529     Delta-E=       -0.000009960599 Rises=F Damp=F
 DIIS: error= 2.02D-05 at cycle   7 NSaved=   7.
 NSaved= 7 IEnMin= 7 EnMin= -429.142299655529     IErMin= 7 ErrMin= 2.02D-05
 ErrMax= 2.02D-05 EMaxC= 1.00D-01 BMatC= 2.42D-07 BMatP= 1.32D-05
 IDIUse=1 WtCom= 1.00D+00 WtEn= 0.00D+00
 Coeff-Com: -0.243D-03-0.206D-03 0.804D-02 0.218D-01 0.847D-01 0.181D+00
 Coeff-Com:  0.705D+00
 Coeff:     -0.243D-03-0.206D-03 0.804D-02 0.218D-01 0.847D-01 0.181D+00
 Coeff:      0.705D+00
 Gap=     0.285 Goal=   None    Shift=    0.000
 RMSDP=1.73D-06 MaxDP=5.10D-05 DE=-9.96D-06 OVMax= 8.31D-05

 Initial convergence to 1.0D-05 achieved.  Increase integral accuracy.
 Cycle   8  Pass 1  IDiag  1:
 E= -429.142502832057     Delta-E=       -0.000203176528 Rises=F Damp=F
 DIIS: error= 3.01D-05 at cycle   1 NSaved=   1.
 NSaved= 1 IEnMin= 1 EnMin= -429.142502832057     IErMin= 1 ErrMin= 3.01D-05
 ErrMax= 3.01D-05 EMaxC= 1.00D-01 BMatC= 3.59D-07 BMatP= 3.59D-07
 IDIUse=1 WtCom= 1.00D+00 WtEn= 0.00D+00
 Coeff-Com:  0.100D+01
 Coeff:      0.100D+01
 Gap=     0.285 Goal=   None    Shift=    0.000
 RMSDP=1.73D-06 MaxDP=5.10D-05 DE=-2.03D-04 OVMax= 2.09D-04

 Cycle   9  Pass 1  IDiag  1:
 E= -429.142503301367     Delta-E=       -0.000000469310 Rises=F Damp=F
 DIIS: error= 5.33D-06 at cycle   2 NSaved=   2.
 NSaved= 2 IEnMin= 2 EnMin= -429.142503301367     IErMin= 2 ErrMin= 5.33D-06
 ErrMax= 5.33D-06 EMaxC= 1.00D-01 BMatC= 1.70D-08 BMatP= 3.59D-07
 IDIUse=1 WtCom= 1.00D+00 WtEn= 0.00D+00
 Coeff-Com:  0.430D-01 0.957D+00
 Coeff:      0.430D-01 0.957D+00
 Gap=     0.285 Goal=   None    Shift=    0.000
 RMSDP=8.87D-07 MaxDP=3.14D-05 DE=-4.69D-07 OVMax= 3.59D-05

 Cycle  10  Pass 1  IDiag  1:
 E= -429.142503305763     Delta-E=       -0.000000004396 Rises=F Damp=F
 DIIS: error= 5.31D-06 at cycle   3 NSaved=   3.
 NSaved= 3 IEnMin= 3 EnMin= -429.142503305763     IErMin= 3 ErrMin= 5.31D-06
 ErrMax= 5.31D-06 EMaxC= 1.00D-01 BMatC= 1.35D-08 BMatP= 1.70D-08
 IDIUse=1 WtCom= 1.00D+00 WtEn= 0.00D+00
 Coeff-Com: -0.211D-01 0.475D+00 0.546D+00
 Coeff:     -0.211D-01 0.475D+00 0.546D+00
 Gap=     0.285 Goal=   None    Shift=    0.000
 RMSDP=3.32D-07 MaxDP=1.71D-05 DE=-4.40D-09 OVMax= 1.79D-05

 Cycle  11  Pass 1  IDiag  1:
 E= -429.142503318281     Delta-E=       -0.000000012519 Rises=F Damp=F
 DIIS: error= 9.12D-07 at cycle   4 NSaved=   4.
 NSaved= 4 IEnMin= 4 EnMin= -429.142503318281     IErMin= 4 ErrMin= 9.12D-07
 ErrMax= 9.12D-07 EMaxC= 1.00D-01 BMatC= 5.20D-10 BMatP= 1.35D-08
 IDIUse=1 WtCom= 1.00D+00 WtEn= 0.00D+00
 Coeff-Com: -0.107D-01 0.190D+00 0.261D+00 0.560D+00
 Coeff:     -0.107D-01 0.190D+00 0.261D+00 0.560D+00
 Gap=     0.285 Goal=   None    Shift=    0.000
 RMSDP=8.82D-08 MaxDP=2.51D-06 DE=-1.25D-08 OVMax= 3.84D-06

 Cycle  12  Pass 1  IDiag  1:
 E= -429.142503318771     Delta-E=       -0.000000000490 Rises=F Damp=F
 DIIS: error= 1.49D-07 at cycle   5 NSaved=   5.
 NSaved= 5 IEnMin= 5 EnMin= -429.142503318771     IErMin= 5 ErrMin= 1.49D-07
 ErrMax= 1.49D-07 EMaxC= 1.00D-01 BMatC= 1.09D-11 BMatP= 5.20D-10
 IDIUse=1 WtCom= 1.00D+00 WtEn= 0.00D+00
 Coeff-Com: -0.170D-02 0.226D-01 0.362D-01 0.153D+00 0.790D+00
 Coeff:     -0.170D-02 0.226D-01 0.362D-01 0.153D+00 0.790D+00
 Gap=     0.285 Goal=   None    Shift=    0.000
 RMSDP=1.47D-08 MaxDP=7.04D-07 DE=-4.90D-10 OVMax= 7.39D-07

 Cycle  13  Pass 1  IDiag  1:
 E= -429.142503318787     Delta-E=       -0.000000000016 Rises=F Damp=F
 DIIS: error= 6.61D-08 at cycle   6 NSaved=   6.
 NSaved= 6 IEnMin= 6 EnMin= -429.142503318787     IErMin= 6 ErrMin= 6.61D-08
 ErrMax= 6.61D-08 EMaxC= 1.00D-01 BMatC= 2.78D-12 BMatP= 1.09D-11
 IDIUse=1 WtCom= 1.00D+00 WtEn= 0.00D+00
 Coeff-Com: -0.313D-03 0.139D-02 0.428D-02 0.471D-01 0.404D+00 0.544D+00
 Coeff:     -0.313D-03 0.139D-02 0.428D-02 0.471D-01 0.404D+00 0.544D+00
 Gap=     0.285 Goal=   None    Shift=    0.000
 RMSDP=5.36D-09 MaxDP=3.11D-07 DE=-1.57D-11 OVMax= 3.03D-07

 SCF Done:  E(RB3LYP) =  -429.142503319     A.U. after   13 cycles
             Convg  =    0.5361D-08             -V/T =  2.0047
 KE= 4.271470187213D+02 PE=-2.201204218440D+03 EE= 7.429122180775D+02
 Leave Link  502 at Thu Apr  3 22:46:18 2014, MaxMem= 4026531840 cpu:     287.4
 (Enter /usr/caen/gaussian-09revc/g09/l801.exe)
 Range of M.O.s used for correlation:     1   288
 NBasis=   288 NAE=    40 NBE=    40 NFC=     0 NFV=     0
 NROrb=    288 NOA=    40 NOB=    40 NVA=   248 NVB=   248
 Leave Link  801 at Thu Apr  3 22:46:19 2014, MaxMem= 4026531840 cpu:       0.2
 (Enter /usr/caen/gaussian-09revc/g09/l1101.exe)
 Using compressed storage, NAtomX=    28.
 Will process  29 centers per pass.
 Leave Link 1101 at Thu Apr  3 22:46:20 2014, MaxMem= 4026531840 cpu:       3.4
 (Enter /usr/caen/gaussian-09revc/g09/l1102.exe)
 Symmetrizing basis deriv contribution to polar:
 IMax=3 JMax=2 DiffMx= 0.00D+00
 Leave Link 1102 at Thu Apr  3 22:46:20 2014, MaxMem= 4026531840 cpu:       0.4
 (Enter /usr/caen/gaussian-09revc/g09/l1110.exe)
 Forming Gx(P) for the SCF density, NAtomX=    28.
 Integral derivatives from FoFDir/FoFCou, PRISM(SPDF).
 Do as many integral derivatives as possible in FoFDir.
 G2DrvN: MDV=    4026531512.
 G2DrvN: will do    29 centers at a time, making    1 passes doing MaxLOS=2.
 Calling FoFCou, ICntrl=  3107 FMM=F I1Cent=   0 AccDes= 0.00D+00.
 FoFCou: FMM=F IPFlag=           0 FMFlag=      100000 FMFlg1=           0
         NFxFlg=           0 DoJE=F BraDBF=F KetDBF=F FulRan=T
         Omega=  0.000000  0.000000  1.000000  0.000000  0.000000 ICntrl=    3107 IOpCl=  0
         NMat0=    1 NMatS0=    1 NMatT0=    0 NMatD0=    1 NMtDS0=    0 NMtDT0=    0
         I1Cent=           0 NGrid=           0.
 Symmetry not used in FoFCou.
 FoFDir/FoFCou used for L=0 through L=2.
 End of G2Drv Frequency-dependent properties file   721 does not exist.
 End of G2Drv Frequency-dependent properties file   722 does not exist.
 Leave Link 1110 at Thu Apr  3 22:47:56 2014, MaxMem= 4026531840 cpu:     766.2
 (Enter /usr/caen/gaussian-09revc/g09/l1002.exe)
 Minotr:  Closed shell wavefunction.
          IDoAtm=1111111111111111111111111111
          Direct CPHF calculation.
          Differentiating once with respect to nuclear coordinates.
          Requested convergence is 1.0D-06 RMS, and 1.0D-05 maximum.
          Secondary convergence is 1.0D-12 RMS, and 1.0D-12 maximum.
          NewPWx=T KeepS1=F KeepF1=F KeepIn=T MapXYZ=F SortEE=F KeepMc=T.
          MDV=    4026531556 using IRadAn=       2.
 Generate precomputed XC quadrature information.
          Keep R1 ints in memory in canonical form, NReq=993246417.
 Symmetry not used in FoFDir.
 MinBra= 0 MaxBra= 2 Meth= 1.
 IRaf=       0 NMat=   1 IRICut=       1 DoRegI=T DoRafI=F ISym2E= 0 JSym2E=0.
          Solving linear equations simultaneously, MaxMat=       0.
          There are    87 degrees of freedom in the 1st order CPHF.  IDoFFX=5.
     81 vectors produced by pass  0 Test12= 1.14D-10 1.15D-07 XBig12= 9.04D-02 5.83D-02.
 AX will form    81 AO Fock derivatives at one time.
     81 vectors produced by pass  1 Test12= 1.14D-10 1.15D-07 XBig12= 1.31D-02 1.70D-02.
     81 vectors produced by pass  2 Test12= 1.14D-10 1.15D-07 XBig12= 7.55D-05 1.03D-03.
     81 vectors produced by pass  3 Test12= 1.14D-10 1.15D-07 XBig12= 1.68D-07 4.39D-05.
     30 vectors produced by pass  4 Test12= 1.14D-10 1.15D-07 XBig12= 1.85D-10 1.32D-06.
 Inverted reduced A of dimension   354 with in-core refinement.
 End of Minotr Frequency-dependent properties file   721 does not exist.
 End of Minotr Frequency-dependent properties file   722 does not exist.
 Leave Link 1002 at Thu Apr  3 22:49:20 2014, MaxMem= 4026531840 cpu:     675.7
 (Enter /usr/caen/gaussian-09revc/g09/l601.exe)
 Copying SCF densities to generalized density rwf, IOpCl= 0 IROHF=0.

 **********************************************************************

            Population analysis using the SCF density.

 **********************************************************************

 Orbital symmetries:
       Occupied  (A) (A) (A) (A) (A) (A) (A) (A) (A) (A) (A) (A)
                 (A) (A) (A) (A) (A) (A) (A) (A) (A) (A) (A) (A)
                 (A) (A) (A) (A) (A) (A) (A) (A) (A) (A) (A) (A)
                 (A) (A) (A) (A)
       Virtual   (A) (A) (A) (A) (A) (A) (A) (A) (A) (A) (A) (A)
                 (A) (A) (A) (A) (A) (A) (A) (A) (A) (A) (A) (A)
                 (A) (A) (A) (A) (A) (A) (A) (A) (A) (A) (A) (A)
                 (A) (A) (A) (A) (A) (A) (A) (A) (A) (A) (A) (A)
                 (A) (A) (A) (A) (A) (A) (A) (A) (A) (A) (A) (A)
                 (A) (A) (A) (A) (A) (A) (A) (A) (A) (A) (A) (A)
                 (A) (A) (A) (A) (A) (A) (A) (A) (A) (A) (A) (A)
                 (A) (A) (A) (A) (A) (A) (A) (A) (A) (A) (A) (A)
                 (A) (A) (A) (A) (A) (A) (A) (A) (A) (A) (A) (A)
                 (A) (A) (A) (A) (A) (A) (A) (A) (A) (A) (A) (A)
                 (A) (A) (A) (A) (A) (A) (A) (A) (A) (A) (A) (A)
                 (A) (A) (A) (A) (A) (A) (A) (A) (A) (A) (A) (A)
                 (A) (A) (A) (A) (A) (A) (A) (A) (A) (A) (A) (A)
                 (A) (A) (A) (A) (A) (A) (A) (A) (A) (A) (A) (A)
                 (A) (A) (A) (A) (A) (A) (A) (A) (A) (A) (A) (A)
                 (A) (A) (A) (A) (A) (A) (A) (A) (A) (A) (A) (A)
                 (A) (A) (A) (A) (A) (A) (A) (A) (A) (A) (A) (A)
                 (A) (A) (A) (A) (A) (A) (A) (A) (A) (A) (A) (A)
                 (A) (A) (A) (A) (A) (A) (A) (A) (A) (A) (A) (A)
                 (A) (A) (A) (A) (A) (A) (A) (A) (A) (A) (A) (A)
                 (A) (A) (A) (A) (A) (A) (A) (A)
 The electronic state is 1-A.
 Alpha  occ. eigenvalues --  -19.10581 -10.22518 -10.20718 -10.16827 -10.16444
 Alpha  occ. eigenvalues --  -10.16418 -10.16279 -10.15889 -10.15537 -10.15243
 Alpha  occ. eigenvalues --   -1.02146  -0.81157  -0.80580  -0.74290  -0.69246
 Alpha  occ. eigenvalues --   -0.68008  -0.66852  -0.61238  -0.56235  -0.54355
 Alpha  occ. eigenvalues --   -0.49218  -0.47880  -0.45308  -0.44821  -0.43917
 Alpha  occ. eigenvalues --   -0.41942  -0.40272  -0.39974  -0.39496  -0.38535
 Alpha  occ. eigenvalues --   -0.37199  -0.37043  -0.36234  -0.34874  -0.34094
 Alpha  occ. eigenvalues --   -0.32508  -0.31914  -0.30830  -0.29210  -0.24695
 Alpha virt. eigenvalues --    0.03851   0.04972   0.05610   0.06711   0.08152
 Alpha virt. eigenvalues --    0.09020   0.09677   0.09982   0.11008   0.11503
 Alpha virt. eigenvalues --    0.12095   0.12689   0.14093   0.15045   0.15158
 Alpha virt. eigenvalues --    0.15542   0.16165   0.16383   0.18177   0.18865
 Alpha virt. eigenvalues --    0.19725   0.21425   0.22696   0.23160   0.23720
 Alpha virt. eigenvalues --    0.24416   0.26197   0.27872   0.29534   0.30921
 Alpha virt. eigenvalues --    0.32042   0.33491   0.34976   0.36433   0.37190
 Alpha virt. eigenvalues --    0.38268   0.39798   0.41286   0.42449   0.44577
 Alpha virt. eigenvalues --    0.45054   0.47866   0.49604   0.50245   0.51849
 Alpha virt. eigenvalues --    0.53143   0.54514   0.54811   0.55375   0.56699
 Alpha virt. eigenvalues --    0.57420   0.58031   0.58463   0.58688   0.59304
 Alpha virt. eigenvalues --    0.59475   0.60478   0.60863   0.61044   0.61546
 Alpha virt. eigenvalues --    0.62052   0.62389   0.62617   0.63201   0.64165
 Alpha virt. eigenvalues --    0.65522   0.65783   0.66448   0.67920   0.68515
 Alpha virt. eigenvalues --    0.70486   0.72208   0.77678   0.82792   0.85684
 Alpha virt. eigenvalues --    0.88499   0.91263   0.92730   0.95685   0.97096
 Alpha virt. eigenvalues --    1.00577   1.03051   1.05539   1.08231   1.13264
 Alpha virt. eigenvalues --    1.14541   1.16536   1.17063   1.19309   1.21661
 Alpha virt. eigenvalues --    1.25946   1.26976   1.29940   1.32967   1.35155
 Alpha virt. eigenvalues --    1.37983   1.39428   1.40351   1.43367   1.43889
 Alpha virt. eigenvalues --    1.44564   1.45043   1.45787   1.46489   1.48163
 Alpha virt. eigenvalues --    1.48561   1.50570   1.51351   1.52131   1.52363
 Alpha virt. eigenvalues --    1.52787   1.54477   1.56402   1.56785   1.57812
 Alpha virt. eigenvalues --    1.59956   1.60457   1.60875   1.61429   1.63301
 Alpha virt. eigenvalues --    1.64007   1.66080   1.66938   1.67296   1.68772
 Alpha virt. eigenvalues --    1.69842   1.70969   1.71522   1.74894   1.75031
 Alpha virt. eigenvalues --    1.75670   1.77520   1.78601   1.80798   1.81774
 Alpha virt. eigenvalues --    1.83632   1.84327   1.86366   1.87001   1.88038
 Alpha virt. eigenvalues --    1.91721   1.92277   1.93245   1.96579   1.99805
 Alpha virt. eigenvalues --    2.02722   2.04791   2.05172   2.07239   2.10409
 Alpha virt. eigenvalues --    2.11930   2.13985   2.15723   2.16685   2.17763
 Alpha virt. eigenvalues --    2.18177   2.21568   2.23420   2.26471   2.26957
 Alpha virt. eigenvalues --    2.29590   2.32316   2.34571   2.34820   2.37189
 Alpha virt. eigenvalues --    2.38662   2.40040   2.41817   2.43631   2.45284
 Alpha virt. eigenvalues --    2.45954   2.46859   2.47901   2.48606   2.49079
 Alpha virt. eigenvalues --    2.50573   2.51863   2.53078   2.53339   2.55188
 Alpha virt. eigenvalues --    2.55440   2.57554   2.57674   2.59585   2.61607
 Alpha virt. eigenvalues --    2.61858   2.63718   2.66230   2.67544   2.68903
 Alpha virt. eigenvalues --    2.70371   2.73256   2.74416   2.77683   2.78694
 Alpha virt. eigenvalues --    2.81206   2.82247   2.84259   2.87068   2.87951
 Alpha virt. eigenvalues --    2.91340   2.92600   2.95165   2.96691   3.00163
 Alpha virt. eigenvalues --    3.04275   3.08645   3.11748   3.17592   3.19998
 Alpha virt. eigenvalues --    3.21840   3.25222   3.27573   3.37554   3.47391
 Alpha virt. eigenvalues --    3.55597   3.72362   3.76020   3.77722   3.79287
 Alpha virt. eigenvalues --    3.80267   3.81001   3.81310   3.83282   3.86144
 Alpha virt. eigenvalues --    3.90034   3.96315   4.03534   4.09240   4.13131
 Alpha virt. eigenvalues --    4.21743   4.27430   4.32691   4.36678   4.40451
 Alpha virt. eigenvalues --    5.10721   5.24472   5.73803  23.70861  23.80631
 Alpha virt. eigenvalues --   23.82955  23.89314  23.90725  23.91714  23.95088
 Alpha virt. eigenvalues --   23.95101  23.96351  49.97183
          Condensed to atoms (all electrons):
              1          2          3          4          5          6
     1  C    5.116764   0.356189  -0.056357   0.002499   0.366054   0.008331
     2  C    0.356189   4.976576   0.361511  -0.057874  -0.052243  -0.036527
     3  C   -0.056357   0.361511   4.928538   0.335076  -0.011548   0.407653
     4  C    0.002499  -0.057874   0.335076   5.137771   0.001098  -0.035011
     5  C    0.366054  -0.052243  -0.011548   0.001098   4.787526  -0.000486
     6  H    0.008331  -0.036527   0.407653  -0.035011  -0.000486   0.602171
     7  H   -0.046527   0.406418  -0.046393  -0.008650  -0.007142  -0.005968
     8  H   -0.034593   0.405727  -0.033091   0.008633   0.008521  -0.008240
     9  H    0.399259  -0.049466  -0.002078  -0.001077  -0.048734  -0.000137
    10  H   -0.058335  -0.015434   0.003761  -0.007330   0.383816   0.000004
    11  H   -0.040002   0.007774   0.000151  -0.000739   0.401508   0.000059
    12  H   -0.006007  -0.034689   0.398990  -0.039528  -0.001808  -0.033870
    13  C    0.342252  -0.067030   0.009106  -0.000923  -0.056027  -0.000342
    14  H   -0.034606   0.008741  -0.000401  -0.000016  -0.005472   0.000027
    15  H   -0.028852  -0.004128  -0.000093   0.000059   0.007425  -0.000036
    16  H   -0.036733  -0.007642  -0.000034  -0.000030  -0.006426  -0.000004
    17  C   -0.004758   0.001291  -0.055480   0.316871  -0.063159   0.007654
    18  O   -0.045800  -0.006071   0.014809  -0.063828   0.267141   0.000291
    19  H   -0.000993  -0.006635  -0.050097   0.409664  -0.000798  -0.001559
    20  H   -0.000383   0.006003  -0.024258   0.387221  -0.000002  -0.010832
    21  C    0.000534  -0.000846   0.008951  -0.092336  -0.016681  -0.000268
    22  H    0.000128   0.000015  -0.000547   0.010416   0.000086   0.000026
    23  H   -0.000044   0.000180  -0.000182  -0.009406  -0.000458  -0.000028
    24  H    0.000013   0.000067  -0.000152   0.002457   0.000944  -0.000049
    25  C   -0.000635   0.000863  -0.010052  -0.069651   0.007627  -0.000445
    26  H    0.000020  -0.000088   0.000914  -0.005789  -0.000561   0.000033
    27  H    0.000020  -0.000217   0.000946  -0.008310  -0.000780  -0.000221
    28  H    0.000042  -0.000024  -0.000251   0.010406  -0.000006   0.000037
              7          8          9         10         11         12
     1  C   -0.046527  -0.034593   0.399259  -0.058335  -0.040002  -0.006007
     2  C    0.406418   0.405727  -0.049466  -0.015434   0.007774  -0.034689
     3  C   -0.046393  -0.033091  -0.002078   0.003761   0.000151   0.398990
     4  C   -0.008650   0.008633  -0.001077  -0.007330  -0.000739  -0.039528
     5  C   -0.007142   0.008521  -0.048734   0.383816   0.401508  -0.001808
     6  H   -0.005968  -0.008240  -0.000137   0.000004   0.000059  -0.033870
     7  H    0.618184  -0.033544   0.009639   0.004153  -0.000419   0.009274
     8  H   -0.033544   0.597200  -0.008535  -0.000275  -0.000513  -0.004116
     9  H    0.009639  -0.008535   0.609155   0.013223  -0.008032   0.003855
    10  H    0.004153  -0.000275   0.013223   0.661555  -0.039358   0.000232
    11  H   -0.000419  -0.000513  -0.008032  -0.039358   0.590121  -0.000099
    12  H    0.009274  -0.004116   0.003855   0.000232  -0.000099   0.592264
    13  C   -0.006588  -0.006959  -0.034238   0.003781  -0.003366   0.000133
    14  H   -0.000053  -0.000235  -0.006939  -0.000949   0.006685   0.000011
    15  H   -0.000694   0.004695  -0.007111  -0.000747  -0.000183  -0.000030
    16  H    0.005692  -0.000566   0.009138   0.005036  -0.000956   0.000020
    17  C   -0.000132  -0.000623  -0.000881  -0.006520   0.007487  -0.007340
    18  O   -0.000231  -0.000592   0.007548  -0.033787  -0.025392   0.001136
    19  H    0.006339   0.000310  -0.000103  -0.001764  -0.000087   0.008622
    20  H    0.000091  -0.000505  -0.000050  -0.000250   0.000046  -0.000096
    21  C   -0.000143   0.000015   0.000122   0.002220  -0.000097   0.000312
    22  H    0.000008  -0.000001   0.000016   0.000281  -0.000205  -0.000012
    23  H   -0.000030  -0.000001  -0.000044   0.000804  -0.000095   0.000010
    24  H    0.000021   0.000002  -0.000011  -0.001205  -0.000021  -0.000010
    25  C   -0.000002   0.000016  -0.000085   0.000147  -0.000448   0.000402
    26  H    0.000004  -0.000002   0.000031   0.000117   0.000040   0.000113
    27  H   -0.000014   0.000000   0.000236   0.000194   0.000006   0.003218
    28  H    0.000004  -0.000001   0.000113   0.000201  -0.000150  -0.000440
             13         14         15         16         17         18
     1  C    0.342252  -0.034606  -0.028852  -0.036733  -0.004758  -0.045800
     2  C   -0.067030   0.008741  -0.004128  -0.007642   0.001291  -0.006071
     3  C    0.009106  -0.000401  -0.000093  -0.000034  -0.055480   0.014809
     4  C   -0.000923  -0.000016   0.000059  -0.000030   0.316871  -0.063828
     5  C   -0.056027  -0.005472   0.007425  -0.006426  -0.063159   0.267141
     6  H   -0.000342   0.000027  -0.000036  -0.000004   0.007654   0.000291
     7  H   -0.006588  -0.000053  -0.000694   0.005692  -0.000132  -0.000231
     8  H   -0.006959  -0.000235   0.004695  -0.000566  -0.000623  -0.000592
     9  H   -0.034238  -0.006939  -0.007111   0.009138  -0.000881   0.007548
    10  H    0.003781  -0.000949  -0.000747   0.005036  -0.006520  -0.033787
    11  H   -0.003366   0.006685  -0.000183  -0.000956   0.007487  -0.025392
    12  H    0.000133   0.000011  -0.000030   0.000020  -0.007340   0.001136
    13  C    4.889429   0.402765   0.399660   0.400966   0.000069   0.004389
    14  H    0.402765   0.583852  -0.028211  -0.031212   0.000054   0.000046
    15  H    0.399660  -0.028211   0.582762  -0.031001  -0.000022  -0.000231
    16  H    0.400966  -0.031212  -0.031001   0.594971   0.000021  -0.000053
    17  C    0.000069   0.000054  -0.000022   0.000021   5.066039   0.246544
    18  O    0.004389   0.000046  -0.000231  -0.000053   0.246544   8.108304
    19  H   -0.000096   0.000021  -0.000007  -0.000043  -0.042439   0.000566
    20  H    0.000039   0.000000  -0.000001  -0.000003  -0.023923   0.004230
    21  C    0.000014  -0.000002   0.000000  -0.000009   0.378670  -0.046413
    22  H   -0.000009  -0.000002   0.000000   0.000001  -0.034067   0.003783
    23  H    0.000015   0.000005  -0.000001  -0.000017  -0.026054  -0.002755
    24  H   -0.000004   0.000000   0.000000   0.000000  -0.033002   0.005022
    25  C    0.000012   0.000001  -0.000001   0.000000   0.369010  -0.054984
    26  H    0.000000   0.000000   0.000000   0.000000  -0.034595   0.004788
    27  H    0.000012   0.000001  -0.000001   0.000000  -0.032355   0.002706
    28  H   -0.000003  -0.000001   0.000000   0.000000  -0.031323   0.005561
             19         20         21         22         23         24
     1  C   -0.000993  -0.000383   0.000534   0.000128  -0.000044   0.000013
     2  C   -0.006635   0.006003  -0.000846   0.000015   0.000180   0.000067
     3  C   -0.050097  -0.024258   0.008951  -0.000547  -0.000182  -0.000152
     4  C    0.409664   0.387221  -0.092336   0.010416  -0.009406   0.002457
     5  C   -0.000798  -0.000002  -0.016681   0.000086  -0.000458   0.000944
     6  H   -0.001559  -0.010832  -0.000268   0.000026  -0.000028  -0.000049
     7  H    0.006339   0.000091  -0.000143   0.000008  -0.000030   0.000021
     8  H    0.000310  -0.000505   0.000015  -0.000001  -0.000001   0.000002
     9  H   -0.000103  -0.000050   0.000122   0.000016  -0.000044  -0.000011
    10  H   -0.001764  -0.000250   0.002220   0.000281   0.000804  -0.001205
    11  H   -0.000087   0.000046  -0.000097  -0.000205  -0.000095  -0.000021
    12  H    0.008622  -0.000096   0.000312  -0.000012   0.000010  -0.000010
    13  C   -0.000096   0.000039   0.000014  -0.000009   0.000015  -0.000004
    14  H    0.000021   0.000000  -0.000002  -0.000002   0.000005   0.000000
    15  H   -0.000007  -0.000001   0.000000   0.000000  -0.000001   0.000000
    16  H   -0.000043  -0.000003  -0.000009   0.000001  -0.000017   0.000000
    17  C   -0.042439  -0.023923   0.378670  -0.034067  -0.026054  -0.033002
    18  O    0.000566   0.004230  -0.046413   0.003783  -0.002755   0.005022
    19  H    0.598784  -0.030288  -0.007263   0.000213   0.004229  -0.000195
    20  H   -0.030288   0.585241   0.000364  -0.000663   0.000182   0.000383
    21  C   -0.007263   0.000364   4.876003   0.398839   0.397131   0.388961
    22  H    0.000213  -0.000663   0.398839   0.570698  -0.028437  -0.025778
    23  H    0.004229   0.000182   0.397131  -0.028437   0.588592  -0.029596
    24  H   -0.000195   0.000383   0.388961  -0.025778  -0.029596   0.598747
    25  C    0.008343  -0.008570  -0.063826  -0.008404   0.008683  -0.005623
    26  H   -0.000184   0.001707  -0.001162  -0.000048   0.000032   0.000017
    27  H   -0.000066   0.000559   0.009174  -0.000108  -0.000575  -0.000400
    28  H   -0.000595  -0.000074  -0.008987   0.004693  -0.000203   0.000367
             25         26         27         28
     1  C   -0.000635   0.000020   0.000020   0.000042
     2  C    0.000863  -0.000088  -0.000217  -0.000024
     3  C   -0.010052   0.000914   0.000946  -0.000251
     4  C   -0.069651  -0.005789  -0.008310   0.010406
     5  C    0.007627  -0.000561  -0.000780  -0.000006
     6  H   -0.000445   0.000033  -0.000221   0.000037
     7  H   -0.000002   0.000004  -0.000014   0.000004
     8  H    0.000016  -0.000002   0.000000  -0.000001
     9  H   -0.000085   0.000031   0.000236   0.000113
    10  H    0.000147   0.000117   0.000194   0.000201
    11  H   -0.000448   0.000040   0.000006  -0.000150
    12  H    0.000402   0.000113   0.003218  -0.000440
    13  C    0.000012   0.000000   0.000012  -0.000003
    14  H    0.000001   0.000000   0.000001  -0.000001
    15  H   -0.000001   0.000000  -0.000001   0.000000
    16  H    0.000000   0.000000   0.000000   0.000000
    17  C    0.369010  -0.034595  -0.032355  -0.031323
    18  O   -0.054984   0.004788   0.002706   0.005561
    19  H    0.008343  -0.000184  -0.000066  -0.000595
    20  H   -0.008570   0.001707   0.000559  -0.000074
    21  C   -0.063826  -0.001162   0.009174  -0.008987
    22  H   -0.008404  -0.000048  -0.000108   0.004693
    23  H    0.008683   0.000032  -0.000575  -0.000203
    24  H   -0.005623   0.000017  -0.000400   0.000367
    25  C    4.870617   0.392511   0.401954   0.394924
    26  H    0.392511   0.600388  -0.027917  -0.025814
    27  H    0.401954  -0.027917   0.577410  -0.026912
    28  H    0.394924  -0.025814  -0.026912   0.565159
 Mulliken atomic charges:
              1
     1  C   -0.197481
     2  C   -0.192442
     3  C   -0.179392
     4  C   -0.221672
     5  C    0.040583
     6  H    0.107734
     7  H    0.096704
     8  H    0.107273
     9  H    0.115187
    10  H    0.086427
    11  H    0.106287
    12  H    0.109455
    13  C   -0.277059
    14  H    0.105889
    15  H    0.106749
    16  H    0.098884
    17  C    0.002964
    18  O   -0.396727
    19  H    0.106119
    20  H    0.113832
    21  C   -0.223277
    22  H    0.109075
    23  H    0.098063
    24  H    0.099045
    25  C   -0.232385
    26  H    0.095445
    27  H    0.101440
    28  H    0.113277
 Sum of Mulliken atomic charges =   0.00000
 Mulliken charges with hydrogens summed into heavy atoms:
              1
     1  C   -0.082294
     2  C    0.011535
     3  C    0.037797
     4  C   -0.001721
     5  C    0.233297
    13  C    0.034463
    17  C    0.002964
    18  O   -0.396727
    21  C    0.082907
    25  C    0.077778
 Sum of Mulliken charges with hydrogens summed into heavy atoms =   0.00000
 APT atomic charges:
              1
     1  C   -0.346218
     2  C   -0.803326
     3  C   -0.772903
     4  C   -0.684665
     5  C   -0.524036
     6  H    0.520711
     7  H    0.306306
     8  H    0.515383
     9  H    0.321879
    10  H    0.230407
    11  H    0.472662
    12  H    0.265952
    13  C   -1.315316
    14  H    0.445924
    15  H    0.533804
    16  H    0.301614
    17  C   -0.072864
    18  O   -0.263213
    19  H    0.269429
    20  H    0.485513
    21  C   -1.103256
    22  H    0.453732
    23  H    0.222897
    24  H    0.477753
    25  C   -1.096483
    26  H    0.497125
    27  H    0.235089
    28  H    0.426099
 Sum of APT charges=   0.00000
 APT Atomic charges with hydrogens summed into heavy atoms:
              1
     1  C   -0.024339
     2  C    0.018363
     3  C    0.013759
     4  C    0.070277
     5  C    0.179033
     6  H    0.000000
     7  H    0.000000
     8  H    0.000000
     9  H    0.000000
    10  H    0.000000
    11  H    0.000000
    12  H    0.000000
    13  C   -0.033974
    14  H    0.000000
    15  H    0.000000
    16  H    0.000000
    17  C   -0.072864
    18  O   -0.263213
    19  H    0.000000
    20  H    0.000000
    21  C    0.051126
    22  H    0.000000
    23  H    0.000000
    24  H    0.000000
    25  C    0.061830
    26  H    0.000000
    27  H    0.000000
    28  H    0.000000
 Sum of APT charges=   0.00000
 Electronic spatial extent (au):  <R**2>=           1682.4166
 Charge=              0.0000 electrons
 Dipole moment (field-independent basis, Debye):
    X=              0.2067    Y=              0.5996    Z=              0.9592  Tot=              1.1499
 Quadrupole moment (field-independent basis, Debye-Ang):
   XX=            -64.2102   YY=            -65.6061   ZZ=            -66.5599
   XY=             -1.1856   XZ=             -0.9927   YZ=             -1.0095
 Traceless Quadrupole moment (field-independent basis, Debye-Ang):
   XX=              1.2486   YY=             -0.1474   ZZ=             -1.1012
   XY=             -1.1856   XZ=             -0.9927   YZ=             -1.0095
 Octapole moment (field-independent basis, Debye-Ang**2):
  XXX=             -7.1983  YYY=             -4.4286  ZZZ=             -2.4435  XYY=              0.8608
  XXY=             -0.1318  XXZ=             -2.8019  XZZ=              0.8894  YZZ=             -0.4291
  YYZ=             -1.3576  XYZ=             -0.4942
 Hexadecapole moment (field-independent basis, Debye-Ang**3):
 XXXX=          -1511.8519 YYYY=           -556.2033 ZZZZ=           -294.9280 XXXY=              6.0376
 XXXZ=             -9.1740 YYYX=             -1.6586 YYYZ=              7.6936 ZZZX=              3.1330
 ZZZY=             -0.0479 XXYY=           -340.6427 XXZZ=           -302.5701 YYZZ=           -144.3261
 XXYZ=              6.0546 YYXZ=             -2.2485 ZZXY=             -0.8846
 N-N= 6.020024783226D+02 E-N=-2.201204249315D+03  KE= 4.271470187213D+02
  Exact polarizability:   0.000   0.000   0.000   0.000   0.000   0.000
 Approx polarizability: 148.012  -2.385 141.970   0.103   0.404 143.964
 No NMR shielding tensors so no spin-rotation constants.
 Leave Link  601 at Thu Apr  3 22:49:21 2014, MaxMem= 4026531840 cpu:       2.1
 (Enter /usr/caen/gaussian-09revc/g09/l701.exe)
 Compute integral second derivatives.
 ... and contract with generalized density number  0.
 Leave Link  701 at Thu Apr  3 22:49:22 2014, MaxMem= 4026531840 cpu:       5.2
 (Enter /usr/caen/gaussian-09revc/g09/l702.exe)
 L702 exits ... SP integral derivatives will be done elsewhere.
 Leave Link  702 at Thu Apr  3 22:49:22 2014, MaxMem= 4026531840 cpu:       0.2
 (Enter /usr/caen/gaussian-09revc/g09/l703.exe)
 Compute integral second derivatives, UseDBF=F ICtDFT=           0.
 Integral derivatives from FoFDir, PRISM(SPDF).
 Calling FoFJK, ICntrl=    100147 FMM=F ISym2X=0 I1Cent= 0 IOpClX= 0 NMat=1 NMatS=1 NMatT=0.
 FoFCou: FMM=F IPFlag=           0 FMFlag=      100000 FMFlg1=         800
         NFxFlg=           0 DoJE=F BraDBF=F KetDBF=F FulRan=T
         Omega=  0.000000  0.000000  1.000000  0.000000  0.000000 ICntrl=  100147 IOpCl=  0
         NMat0=    1 NMatS0=    1 NMatT0=    0 NMatD0=    1 NMtDS0=    0 NMtDT0=    0
         I1Cent=           0 NGrid=           0.
 Symmetry not used in FoFCou.
 Leave Link  703 at Thu Apr  3 22:51:09 2014, MaxMem= 4026531840 cpu:     855.0
 (Enter /usr/caen/gaussian-09revc/g09/l716.exe)
 Dipole        = 8.13162537D-02 2.35889416D-01 3.77392315D-01
 Polarizability= 0.00000000D+00 0.00000000D+00 0.00000000D+00
                 0.00000000D+00 0.00000000D+00 0.00000000D+00
 ***** Axes restored to original set *****
 -------------------------------------------------------------------
 Center     Atomic                   Forces (Hartrees/Bohr)
 Number     Number              X              Y              Z
 -------------------------------------------------------------------
      1        6           0.000009348   -0.000027153    0.000005234
      2        6          -0.000019598    0.000010010   -0.000018451
      3        6          -0.000008434    0.000008929   -0.000008948
      4        6           0.000054369   -0.000009588    0.000002932
      5        6          -0.000029463   -0.000009349   -0.000011949
      6        1          -0.000009174    0.000020127   -0.000004988
      7        1          -0.000009232    0.000002162   -0.000025873
      8        1          -0.000010801    0.000005721   -0.000016225
      9        1           0.000005232   -0.000001077    0.000002022
     10        1           0.000015844   -0.000009385   -0.000013422
     11        1           0.000017075   -0.000015275   -0.000002644
     12        1          -0.000021066   -0.000000942    0.000015560
     13        6           0.000007085   -0.000001741   -0.000016363
     14        1           0.000018973   -0.000010769   -0.000011583
     15        1           0.000010301   -0.000002275   -0.000018599
     16        1           0.000010864   -0.000007726   -0.000024594
     17        6          -0.000012950    0.000001634    0.000029700
     18        8           0.000013345    0.000022868    0.000035991
     19        1          -0.000018448    0.000015793   -0.000026057
     20        1          -0.000016797    0.000006024    0.000000090
     21        6           0.000002294    0.000001795    0.000002404
     22        1           0.000006219   -0.000006098    0.000010805
     23        1           0.000006793   -0.000004103   -0.000004173
     24        1          -0.000004190    0.000000252    0.000002794
     25        6          -0.000001323    0.000003847    0.000021019
     26        1          -0.000009772    0.000003101    0.000022720
     27        1          -0.000006256    0.000004018    0.000023959
     28        1          -0.000000239   -0.000000800    0.000028640
 -------------------------------------------------------------------
 Cartesian Forces:  Max     0.000054369 RMS     0.000015106
 Leave Link  716 at Thu Apr  3 22:51:10 2014, MaxMem= 4026531840 cpu:       7.9
 (Enter /usr/caen/gaussian-09revc/g09/l103.exe)

 GradGradGradGradGradGradGradGradGradGradGradGradGradGradGradGradGradGrad
 Berny optimization.
 Red2BG is reusing G-inverse.
 Internal  Forces:  Max     0.000050560 RMS     0.000007740
 Search for a local minimum.
 Step number   1 out of a maximum of  168
 All quantities printed in internal units (Hartrees-Bohrs-Radians)
 RMS Force = .77398D-05 SwitMx=.10000D-02 MixMth= 2
 Mixed Optimization -- En-DIIS/RFO-DIIS
 Second derivative matrix not updated -- analytic derivatives used.
 ITU=  0
     Eigenvalues ---    0.00222   0.00230   0.00310   0.00349   0.00421
     Eigenvalues ---    0.00464   0.01008   0.02023   0.02343   0.03585
     Eigenvalues ---    0.03772   0.03802   0.03889   0.04051   0.04306
     Eigenvalues ---    0.04411   0.04457   0.04495   0.04517   0.04569
     Eigenvalues ---    0.04623   0.04830   0.04854   0.05340   0.05725
     Eigenvalues ---    0.06173   0.06907   0.07315   0.07445   0.07926
     Eigenvalues ---    0.08395   0.08594   0.09793   0.10251   0.11047
     Eigenvalues ---    0.11843   0.11977   0.12083   0.12388   0.12747
     Eigenvalues ---    0.14037   0.14179   0.14527   0.14626   0.14967
     Eigenvalues ---    0.16000   0.17598   0.18886   0.19523   0.20832
     Eigenvalues ---    0.24470   0.24718   0.25472   0.26301   0.26511
     Eigenvalues ---    0.27260   0.27602   0.28954   0.30814   0.31748
     Eigenvalues ---    0.32042   0.32327   0.32394   0.32487   0.32775
     Eigenvalues ---    0.32809   0.33076   0.33158   0.33162   0.33292
     Eigenvalues ---    0.33386   0.33532   0.33655   0.33790   0.34019
     Eigenvalues ---    0.34183   0.34432   0.34842
 RFO step:  Lambda=-7.96973720D-08 EMin= 2.22029029D-03
 Linear search not attempted -- first point.
 Iteration  1 RMS(Cart)=  0.00030249 RMS(Int)=  0.00000004
 Iteration  2 RMS(Cart)=  0.00000006 RMS(Int)=  0.00000001
 Variable       Old X    -DE/DX   Delta X   Delta X   Delta X     New X
                                 (Linear)    (Quad)   (Total)
    R1        2.90420  -0.00002   0.00000  -0.00009  -0.00009   2.90411
    R2        2.90030   0.00000   0.00000  -0.00003  -0.00003   2.90027
    R3        2.07361   0.00000   0.00000  -0.00002  -0.00002   2.07359
    R4        2.90017   0.00000   0.00000   0.00000   0.00000   2.90017
    R5        2.90579   0.00003   0.00000   0.00005   0.00005   2.90585
    R6        2.07744   0.00000   0.00000  -0.00001  -0.00001   2.07742
    R7        2.07151   0.00000   0.00000   0.00000   0.00000   2.07151
    R8        2.90739   0.00001   0.00000   0.00004   0.00004   2.90742
    R9        2.06950  -0.00001   0.00000  -0.00002  -0.00002   2.06948
   R10        2.06931   0.00000   0.00000   0.00000   0.00000   2.06931
   R11        2.92758  -0.00005   0.00000  -0.00019  -0.00019   2.92740
   R12        2.07218   0.00001   0.00000   0.00006   0.00006   2.07223
   R13        2.06931   0.00000   0.00000  -0.00002  -0.00002   2.06929
   R14        2.07579  -0.00001   0.00000  -0.00001  -0.00001   2.07578
   R15        2.06855   0.00000   0.00000  -0.00001  -0.00001   2.06854
   R16        2.68781   0.00002   0.00000   0.00006   0.00006   2.68787
   R17        2.06720   0.00000   0.00000  -0.00001  -0.00001   2.06719
   R18        2.06632   0.00000   0.00000  -0.00001  -0.00001   2.06631
   R19        2.07066   0.00000   0.00000  -0.00001  -0.00001   2.07065
   R20        2.72418  -0.00001   0.00000  -0.00004  -0.00004   2.72413
   R21        2.90261   0.00000   0.00000   0.00001   0.00001   2.90262
   R22        2.89500  -0.00001   0.00000  -0.00001  -0.00001   2.89500
   R23        2.06454   0.00000   0.00000  -0.00001  -0.00001   2.06453
   R24        2.06626   0.00000   0.00000   0.00000   0.00000   2.06625
   R25        2.06749   0.00000   0.00000  -0.00001  -0.00001   2.06749
   R26        2.06562   0.00000   0.00000  -0.00001  -0.00001   2.06561
   R27        2.06375   0.00000   0.00000   0.00000   0.00000   2.06375
   R28        2.06355   0.00000   0.00000  -0.00002  -0.00002   2.06353
    A1        1.97204  -0.00001   0.00000  -0.00012  -0.00012   1.97192
[...]
 0.00047312,0.00013891,-0.00015871,-0.00017126,-0.00018001,-0.00031347,
 0.00000861,0.00008856,-0.00026954,-0.00020090,0.00039591,0.00007740,0.
 00000517,0.00005752,-0.00018852,-0.00003941,-0.00006167,-0.00003034,0.
 00003458,-0.00002504,0.00948192,0.03751858,-0.08507835,-0.01602109,-0.
 03520773,-0.00523418,-0.00043651,0.00093304,0.00109773,-0.00067379,0.0
 0010931,0.00005783,0.00387594,0.03047784,0.56727855,0.00009373,-0.0000
 6392,-0.00006394,0.00005937,0.00008775,0.00005338,0.00036722,0.0001740
 8,0.00061681,-0.00015721,-0.00163451,-0.00010949,-0.00087536,0.0002116
 9,0.00008374,-0.00013017,-0.00021145,0.00000642,0.00002249,0.00000400,
 -0.00001920,-0.00001858,-0.00002405,-0.00003944,-0.00001034,-0.0000488
 5,0.00001056,0.00020831,-0.00015208,0.00012929,-0.00005748,-0.00017108
 ,-0.00009373,-0.00003272,-0.00014177,0.00002088,0.00002192,0.00002181,
 -0.00003255,-0.00001667,-0.00001173,-0.00002977,0.00001322,0.00000428,
 0.00000416,0.00000642,-0.00000406,0.00000942,-0.00595780,0.00033581,0.
 00630410,0.00077278,0.00083783,-0.00087316,0.00042207,-0.00026005,-0.0
 0032866,0.00006225,-0.00007869,0.00035930,-0.15346774,0.00455290,0.128
 49317,0.16380752,0.00007296,0.00002846,0.00015329,0.00011529,-0.000075
 79,0.00013316,-0.00070476,0.00058559,0.00175091,-0.00113701,-0.0058828
 1,0.00011556,-0.00033652,-0.00007623,-0.00028973,-0.00040682,-0.000499
 93,0.00011866,-0.00001451,0.00001427,-0.00001016,-0.00006086,-0.000003
 48,-0.00007426,-0.00000265,-0.00000726,-0.00001183,0.00004845,0.000027
 10,0.00005442,-0.00001321,0.00004106,0.00001736,0.00009735,0.00004199,
 -0.00005199,0.00005328,0.00003410,-0.00008238,-0.00002306,-0.00000032,
 -0.00002155,0.00003659,0.00001195,0.00001423,-0.00000265,-0.00000396,0
 .00000436,-0.02001969,-0.00069503,0.02576877,0.00194621,0.00267267,-0.
 00007625,-0.00023287,-0.00000626,-0.00018853,0.00013944,-0.00001452,0.
 00018108,0.00555483,-0.04623526,-0.00649044,-0.00466935,0.05050761,-0.
 00000187,-0.00005863,-0.00013904,-0.00001739,0.00015281,-0.00010097,0.
 00012597,-0.00057589,-0.00044883,0.00045612,0.00281266,0.00093095,-0.0
 0020215,0.00001807,-0.00001214,0.00014062,0.00023538,-0.00003135,-0.00
 001158,-0.00001619,0.00000860,0.00008447,0.00001919,0.00006064,0.00000
 578,0.00000575,0.00000942,0.00002955,-0.00000565,-0.00002545,0.0000272
 2,0.00001239,0.00004139,0.00000225,0.00013872,0.00000657,-0.00002372,-
 0.00000441,0.00004518,0.00001243,-0.00000069,0.00002710,-0.00000952,-0
 .00000101,-0.00000896,-0.00000074,-0.00000148,-0.00000618,0.00543281,-
 0.00109828,-0.00951973,-0.00073130,-0.00029238,0.00174342,-0.00020155,
 -0.00011396,0.00015342,-0.00015687,-0.00019659,0.00022381,0.12884487,-
 0.00389914,-0.20296402,-0.14248896,0.00334758,0.21876728,0.00026215,-0
 .00025727,0.00002176,-0.00003945,0.00000167,-0.00001131,0.00013743,-0.
 00000405,-0.00015094,0.00084028,-0.00013098,0.00005837,-0.00093119,-0.
 00060085,-0.00008193,0.00004963,0.00004945,-0.00001999,0.00001488,-0.0
 0000622,0.00000306,0.00001575,0.00000506,0.00001767,-0.00007596,-0.000
 11269,0.00005506,-0.00044038,-0.00100058,-0.00041920,0.00007045,0.0002
 3816,0.00009034,0.00001010,-0.00009193,0.00002887,0.00005388,0.0000545
 9,-0.00001614,-0.00000081,0.00000623,0.00000697,0.00001330,-0.00000631
 ,0.00000698,0.00000642,-0.00000287,-0.00000796,0.00557472,-0.00366665,
 0.00294683,0.00066414,0.00124656,0.00022722,0.00039493,-0.00011098,-0.
 00027652,0.00000646,-0.00013907,0.00012188,-0.22359526,0.10610801,-0.0
 5831351,-0.01618315,0.00895191,-0.00637236,0.24350282,-0.00040085,0.00
 019162,0.00020280,0.00004309,-0.00000831,0.00011389,-0.00019550,0.0000
 7931,-0.00009408,0.00107563,0.00046483,-0.00175815,0.00044300,-0.00124
 687,-0.00051474,-0.00003172,0.00000967,-0.00002512,-0.00005953,-0.0000
 0303,-0.00000555,-0.00000093,0.00002620,-0.00006259,0.00014858,0.00017
 530,-0.00008010,-0.00127999,0.00003242,-0.00004177,-0.00019653,0.00022
 393,0.00001006,0.00008174,0.00018209,-0.00003475,-0.00001978,0.0000062
 9,-0.00005522,-0.00001469,-0.00000895,-0.00000466,0.00003696,0.0000267
 5,-0.00000543,-0.00003270,-0.00001056,0.00000923,0.02755599,-0.0155693
 1,0.00935818,-0.00032378,0.00309126,-0.00035721,-0.00063715,0.00053600
 ,0.00051152,-0.00003596,0.00015096,-0.00024482,0.10492776,-0.10923935,
 0.03482614,0.00012256,-0.00085210,-0.00026233,-0.11548112,0.11963973,0
 .00000811,-0.00007900,-0.00000042,-0.00001573,0.00011074,0.00003565,0.
 00034173,-0.00020650,0.00001583,-0.00153239,0.00050992,0.00015426,-0.0
 0038620,-0.00028515,0.00018045,-0.00000427,0.00000666,-0.00000133,0.00
 004984,-0.00001647,-0.00001018,0.00000964,-0.00001881,-0.00002132,-0.0
 0001839,-0.00001972,0.00000125,-0.00014457,-0.00030049,0.00020817,0.00
 005095,-0.00012346,-0.00006076,-0.00008843,-0.00015071,0.00002701,0.00
 001143,0.00003343,-0.00002260,-0.00000721,-0.00001192,-0.00001468,0.00
 001423,0.00000459,-0.00000025,0.00000309,-0.00000796,0.00001022,-0.007
 94193,0.00303442,-0.00433767,0.00059703,-0.00038559,0.00011759,0.00063
 426,-0.00000735,-0.00033750,0.00007984,0.00011771,0.00011902,-0.057549
 97,0.03556556,-0.06611397,0.02069190,-0.01277240,0.00810331,0.06470224
 ,-0.04004044,0.06806937,0.00010075,-0.00013071,-0.00009370,-0.00002251
 ,0.00004891,-0.00012157,-0.00006356,0.00010113,0.00012839,0.00053974,0
 .00013194,-0.00007993,0.00098413,-0.00004397,0.00025826,-0.00000962,-0
 .00000842,0.00001858,-0.00001504,0.00000806,0.00000761,0.00002885,-0.0
 0000332,0.00006365,-0.00008136,-0.00002840,0.00005433,0.00039244,0.000
 17614,-0.00002951,-0.00003023,-0.00002965,-0.00004169,0.00004680,0.000
 12736,-0.00003706,-0.00001030,-0.00001512,0.00008337,0.00001838,0.0000
 0866,0.00001344,-0.00003933,-0.00002231,-0.00000353,0.00000476,0.00001
 523,-0.00001262,-0.00471122,-0.00111832,-0.00574747,-0.00040334,-0.002
 43420,-0.00030707,-0.00039301,0.00003439,-0.00013617,0.00009084,-0.000
 28365,0.00047384,-0.09297160,-0.05508817,-0.08266886,0.01005945,0.0111
 8209,0.01537237,-0.01140078,-0.01395351,-0.02002225,0.09775376,-0.0005
 0024,0.00024431,-0.00024543,0.00004135,0.00010099,-0.00016246,0.000225
 05,-0.00010498,0.00009306,0.00056037,0.00096847,-0.00043180,0.00277616
 ,-0.00106511,0.00078529,-0.00000491,0.00003567,0.00001797,-0.00001129,
 0.00000760,0.00002458,0.00004180,0.00000103,0.00007821,0.00008378,0.00
 014894,-0.00002252,-0.00033100,0.00050012,0.00017542,-0.00014352,-0.00
 005773,-0.00011001,-0.00000446,0.00007377,-0.00004905,-0.00011776,-0.0
 0011487,0.00017845,0.00003016,0.00000198,0.00001128,-0.00009288,-0.000
 01738,-0.00002394,-0.00002108,0.00001612,-0.00000627,-0.01117067,-0.00
 932553,-0.02434559,-0.00448102,-0.00848793,-0.00127354,-0.00011084,0.0
 0010523,0.00013873,-0.00016065,-0.00007937,0.00088295,-0.05424401,-0.1
 0924569,-0.09509586,0.00047978,-0.00083940,0.00012799,0.00636297,0.008
 53635,0.01298927,0.06037381,0.11766981,0.00002634,-0.00001423,0.000001
 64,0.00000209,0.00000517,-0.00005417,-0.00017132,-0.00010821,0.0003605
 3,0.00013307,0.00011231,-0.00026005,0.00018294,0.00030416,0.00009581,-
 0.00004817,-0.00005372,0.00003366,0.00000038,0.00001023,0.00000448,0.0
 0000106,-0.00001253,0.00001971,-0.00002115,-0.00003136,0.00001692,0.00
 010113,-0.00008100,-0.00010015,0.00004401,0.00002224,0.00000909,0.0000
 2284,0.00002571,-0.00001232,0.00000836,-0.00002950,0.00003288,0.000007
 89,0.00000882,0.00000122,-0.00002417,-0.00001144,-0.00000055,0.0000065
 2,0.00000850,-0.00000360,0.00386838,0.00361210,0.00520744,0.00063864,0
 .00198943,0.00216469,-0.00008208,-0.00014878,-0.00001785,0.00033404,0.
 00028430,0.00010909,-0.08330215,-0.09688676,-0.19702889,-0.01156546,-0
 .01138445,-0.01750861,-0.00281629,-0.00361220,-0.00661585,0.09260061,0
 .10602008,0.21304791,-0.00011547,0.00021203,-0.00009978,-0.00018015,0.
 00020083,0.00006955,-0.00009042,0.00022682,-0.00100056,-0.02186668,0.0
 1333250,0.00428277,0.00059829,-0.00056589,-0.00197477,0.00028299,0.000
 17203,-0.00003513,-0.00000458,-0.00009388,-0.00004992,0.00000451,-0.00
 006744,0.00002556,-0.00001870,-0.00004341,-0.00002362,0.00002517,0.000
 07953,0.00011462,-0.00053994,0.00002414,-0.00026770,-0.00046638,0.0000
 0051,0.00027276,-0.00003190,-0.00012127,0.00007540,0.00002537,0.000013
 82,0.00000487,-0.00005992,-0.00001275,0.00000217,0.00001412,0.00000934
 ,0.00001017,-0.14227620,0.04492447,-0.01111490,-0.02885045,0.00417384,
 -0.01781176,-0.00148478,-0.00088174,0.00182816,0.00014206,-0.00013574,
 -0.00186497,0.00552493,0.00297322,0.00102338,0.00033847,-0.00117322,0.
 00028501,0.00053418,-0.00320761,0.00091238,-0.00023584,-0.00022866,-0.
 00022920,0.49460379,-0.00021053,0.00050403,-0.00022559,-0.00001024,-0.
 00057246,-0.00019511,-0.00022864,0.00086210,0.00038712,0.00339845,-0.0
 0010305,-0.00351277,-0.00036859,-0.00092690,-0.00331406,-0.00013532,-0
 .00017013,0.00003647,0.00020683,-0.00004384,0.00011284,-0.00008553,-0.
 00000287,0.00003827,0.00001127,-0.00009631,-0.00006058,-0.00036318,0.0
 0020142,0.00008951,-0.00106240,0.00007302,-0.00043283,-0.00067975,-0.0
 0049349,-0.00004524,-0.00012099,-0.00026535,0.00020625,0.00005550,0.00
 002864,0.00004995,-0.00013876,-0.00003162,-0.00001163,0.00002998,0.000
 01209,-0.00000278,0.04955649,-0.10757389,0.01550621,-0.01853839,0.0079
 0018,-0.00766823,-0.00054014,0.00065584,0.00054728,0.00054798,0.000372
 11,-0.00016078,0.02795796,-0.02404813,0.00965580,0.00080376,0.00151741
 ,-0.00085548,-0.00074489,-0.00575077,0.00143449,0.00052570,0.00089931,
 -0.00020117,0.05111692,0.54909738,-0.00019491,0.00025186,-0.00052828,0
 .00009371,-0.00021458,-0.00017621,-0.00020080,-0.00101629,0.00007653,0
 .02288294,-0.01455654,0.00306617,0.00011809,-0.00136979,-0.00393650,0.
 00007372,0.00015576,0.00001004,-0.00015172,0.00016268,0.00003563,0.000
 04142,0.00011110,0.00014872,-0.00001436,-0.00000033,0.00009222,-0.0000
 6724,0.00032336,-0.00006136,-0.00130138,0.00016138,-0.00042799,0.00029
 405,0.00028901,-0.00018175,-0.00012669,-0.00023492,0.00028564,0.000063
 35,0.00002991,0.00006365,-0.00015438,-0.00004572,-0.00000824,0.0000116
 5,0.00003402,-0.00002511,-0.00476362,0.00968175,-0.07429298,-0.0381521
 1,0.00754288,-0.01673633,0.00465013,-0.00013757,-0.00389346,0.00117087
 ,-0.00036857,0.00093057,-0.00839111,0.00967902,-0.00138246,-0.00070189
 ,0.00028689,0.00011355,0.00001614,0.00169970,-0.00034403,0.00005672,-0
 .00074860,-0.00018440,-0.01269080,0.01148737,0.57953410,-0.00004269,0.
 00011889,-0.00016924,0.00003772,0.00009610,-0.00005190,0.00002944,-0.0
 0017554,0.00012562,0.00045120,-0.00064070,-0.00122447,0.00128311,-0.00
 026649,-0.00131475,-0.00008322,0.00001754,0.00006736,-0.00004473,0.000
 02003,-0.00000114,0.00002625,0.00000939,0.00007280,0.00001951,0.000002
 13,0.00001989,-0.00019526,0.00015699,0.00001458,-0.00059792,0.00004871
 ,-0.00021242,0.00004013,0.00016850,-0.00011823,-0.00004450,-0.00010165
 ,0.00012983,0.00003128,0.00001484,0.00001975,-0.00007459,-0.00002271,-
 0.00000248,0.00000195,0.00001698,-0.00000832,-0.01101016,-0.01546229,-
 0.01645972,-0.00729858,0.00239967,-0.00234801,0.00035545,0.00008887,0.
 00031377,-0.00032416,0.00029238,0.00099531,0.00079130,-0.00102117,-0.0
 0001642,0.00003848,0.00015177,0.00005634,0.00013205,-0.00010272,0.0003
 8677,0.00035155,0.00069576,0.00019161,-0.12634386,-0.06437052,-0.09840
 293,0.13591898,0.00011583,-0.00018470,0.00008507,0.00000042,0.00010711
 ,0.00005489,-0.00001730,-0.00038717,0.00007569,-0.00038636,0.00011437,
 -0.00002229,0.00041514,0.00065504,0.00079240,-0.00012288,0.00007826,0.
 00004896,-0.00003983,0.00002659,-0.00001961,0.00001116,-0.00000419,-0.
 00000485,0.00000495,0.00004586,0.00002238,-0.00013484,0.00000659,-0.00
 006117,0.00022114,0.00000087,0.00010190,0.00000753,0.00022671,-0.00009
 704,0.00003235,0.00007491,-0.00002799,-0.00000796,-0.00000506,-0.00001
 161,0.00002622,0.00000146,0.00000071,-0.00001463,0.00000414,-0.0000016
 7,0.00711498,0.00681062,0.01103995,0.00379370,-0.00035190,0.00140952,-
 0.00011057,0.00004317,0.00014322,0.00016432,0.00021793,0.00016408,0.00
 004446,0.00007587,0.00015948,-0.00009256,-0.00003206,0.00009633,-0.000
 15303,0.00032072,-0.00007519,0.00037695,-0.00027498,0.00023384,-0.0669
 8891,-0.10468244,-0.08529952,0.07162516,0.11109679,-0.00013633,0.00012
 748,-0.00012168,0.00002957,0.00002387,-0.00011394,0.00021172,0.0000437
 2,0.00007279,0.00051603,0.00014741,-0.00014917,0.00070706,-0.00013535,
 0.00025981,-0.00000143,-0.00000996,0.00001030,-0.00000259,-0.00000081,
 0.00000550,0.00000973,-0.00000601,0.00004629,0.00002767,0.00001238,0.0
 0000121,-0.00025152,0.00012175,-0.00002679,-0.00010668,0.00003248,-0.0
 0003540,-0.00001508,-0.00002153,-0.00000175,-0.00004083,-0.00009231,0.
 00008906,0.00001694,0.00000533,0.00000683,-0.00005464,-0.00001478,-0.0
 0001261,0.00000213,0.00001290,-0.00000145,0.00008884,-0.00392472,-0.00
 528096,-0.00313742,0.00075313,-0.00019681,-0.00005129,0.00008418,0.000
 17497,0.00038289,0.00001389,0.00056990,0.00013355,-0.00039263,-0.00001
 788,-0.00012877,-0.00003129,-0.00016785,0.00028208,0.00013683,0.000164
 42,0.00000342,0.00057449,0.00047006,-0.10027036,-0.08325971,-0.1723360
 0,0.11073832,0.09333580,0.18541929,0.00004365,0.00000267,-0.00006668,-
 0.00009628,-0.00010492,-0.00010696,-0.00097432,0.00072681,0.00023183,0
 .00118742,-0.00034746,-0.00008752,-0.00013886,-0.00001785,0.00014601,0
 .00024417,-0.00023349,-0.00008145,0.00008166,-0.00001601,0.00004831,0.
 00001633,0.00002039,0.00000819,-0.00003094,-0.00003564,-0.00000516,0.0
 0013632,-0.00003156,0.00000078,0.00005987,-0.00001236,0.00005887,-0.00
 098178,-0.00033850,0.00038757,-0.00001713,-0.00000466,0.00001366,0.000
 01062,-0.00000142,0.00002561,0.00000457,0.00000109,-0.00000654,0.00001
 210,-0.00000566,-0.00000089,0.00663935,0.02683295,-0.00958308,0.001860
 31,-0.00047255,0.00161582,0.00026801,-0.00015829,-0.00020310,0.0000196
 9,-0.00008770,0.00018900,-0.00472987,0.00185769,-0.00107706,-0.0000215
 8,-0.00001906,-0.00024897,0.00027768,0.00171821,-0.00051448,-0.0000414
 2,0.00001782,0.00021423,-0.06014856,-0.05641515,0.01933679,-0.00434346
 ,-0.01530598,0.00681491,0.06488785,-0.00001403,-0.00007462,0.00010573,
 -0.00002698,0.00038260,0.00020133,-0.00021237,-0.00024285,-0.00039156,
 -0.00078255,0.00013182,0.00074915,0.00001634,0.00005834,-0.00002208,0.
 00002855,0.00015062,0.00001753,-0.00020016,0.00001060,-0.00011027,0.00
 001637,-0.00000279,-0.00000466,0.00001285,0.00005100,0.00000045,-0.000
 13861,0.00008656,-0.00001077,0.00002090,0.00001388,-0.00001583,0.00006
 498,0.00090063,0.00018295,0.00004730,0.00004013,-0.00005945,-0.0000201
 8,-0.00000628,-0.00003220,0.00002629,0.00001008,0.00000738,-0.00001876
 ,0.00000410,0.00000781,-0.00479298,-0.01771335,0.00431088,-0.00042321,
 0.00192448,-0.00073402,-0.00013300,0.00008106,-0.00010131,0.00005769,-
 0.00015293,-0.00024799,0.00445441,-0.00069283,0.00071486,-0.00007721,0
 .00027605,-0.00010825,-0.00022551,-0.00118965,0.00044659,-0.00007216,0
 .00035714,-0.00010948,-0.05366397,-0.26906510,0.07719398,-0.00269354,-
 0.01215868,0.00459319,0.05836984,0.29371651,-0.00004066,0.00012037,0.0
 0004957,0.00000179,-0.00000207,0.00001712,0.00033371,0.00001329,0.0000
 8498,0.00020441,-0.00042743,0.00000559,-0.00018529,-0.00009937,-0.0000
 9777,0.00002877,-0.00008948,-0.00004470,0.00001805,-0.00001670,-0.0000
 0752,-0.00002763,-0.00000840,-0.00001467,-0.00002459,-0.00008480,-0.00
 000944,0.00014222,-0.00008255,0.00002208,0.00000719,0.00001915,-0.0000
 0327,0.00035702,-0.00010766,0.00023921,0.00000415,-0.00002958,-0.00003
 675,-0.00000650,0.00000563,-0.00000691,0.00000512,0.00000554,0.0000033
 6,0.00001889,-0.00001388,0.00000556,0.00152057,0.00475110,-0.00304397,
 0.00027243,-0.00015520,0.00044490,-0.00011632,0.00005355,-0.00008552,-
 0.00014093,-0.00012404,-0.00004888,-0.00108815,0.00017731,-0.00011161,
 -0.00018445,-0.00033660,0.00031171,-0.00001089,0.00043908,0.00047988,0
 .00011312,0.00030853,0.00017153,0.01873780,0.07705237,-0.07382213,-0.0
 0424498,-0.02159009,0.00825949,-0.02142699,-0.08570213,0.07529326,0.00
 010672,-0.00005082,0.00017546,0.00001011,0.00007374,0.00014987,0.00020
 439,0.00053360,0.00003552,-0.00390202,0.00321175,-0.00244221,-0.000200
 29,-0.00007172,-0.00038954,-0.00006310,-0.00011388,0.00000743,0.000020
 74,-0.00004173,-0.00004806,-0.00003459,-0.00004801,-0.00006895,-0.0000
 1887,-0.00003553,-0.00002224,0.00027470,-0.00014337,0.00007330,0.00000
 308,-0.00001965,-0.00001314,0.00018102,-0.00004238,-0.00003942,0.00005
 787,0.00007179,-0.00010281,-0.00003102,-0.00000907,-0.00003614,0.00005
 009,0.00001720,0.00001659,0.00000190,-0.00001184,0.00000928,-0.0170927
 8,0.00215366,0.02481646,0.00270770,-0.00009619,0.00064828,-0.00123301,
 0.00005162,0.00130102,0.00029282,-0.00000277,-0.00016960,0.00051291,-0
 .00160702,0.00044650,0.00063510,0.00046610,-0.00040883,0.00010571,-0.0
 0017944,-0.00026761,0.00005770,-0.00006581,-0.00012415,-0.11938007,0.0
 0980215,0.11650436,0.01089472,-0.00057944,-0.01576793,-0.00422539,0.00
 037971,0.00573213,0.13006385,-0.00005611,0.00002841,0.00000237,-0.0000
 2857,0.00023447,0.00002283,0.00010541,-0.00038501,-0.00013592,0.002472
 33,-0.00181765,0.00092526,-0.00013116,-0.00010376,-0.00000005,0.000028
 31,0.00008876,-0.00000790,-0.00012461,-0.00000707,-0.00006311,0.000033
 76,0.00002506,0.00003166,-0.00000846,-0.00001628,0.00000963,0.00001558
 ,-0.00000027,-0.00003311,-0.00001556,0.00003030,-0.00000265,0.00015607
 ,0.00040366,0.00004822,-0.00000625,-0.00001663,-0.00000071,-0.00000329
 ,0.00000138,-0.00000355,-0.00000508,0.00000053,-0.00000171,0.00000338,
 -0.00000242,-0.00000146,0.00935439,-0.00248186,-0.01544045,-0.00182637
 ,0.00006399,-0.00021882,0.00085342,0.00019276,-0.00065160,0.00000806,-
 0.00001021,0.00032260,0.00026143,0.00067465,-0.00129002,0.00000512,-0.
 00053383,0.00052346,-0.00028963,0.00018544,0.00024777,0.00012157,-0.00
 005387,0.00004794,0.00972450,-0.04829719,-0.01509824,0.00893362,-0.001
 82583,-0.01212973,-0.01593922,0.00310348,0.02592407,-0.01364265,0.0505
 1899,0.00000986,-0.00001370,-0.00005445,-0.00000041,0.00002823,-0.0000
 4783,-0.00005950,-0.00007501,0.00010680,-0.00097003,0.00005692,0.00025
 702,-0.00012341,0.00009604,0.00031187,0.00000501,-0.00000799,-0.000001
 62,0.00002076,-0.00001112,0.00002268,0.00004130,0.00002009,0.00002344,
 -0.00000581,0.00000523,0.00000677,-0.00003074,-0.00000755,-0.00003646,
 0.00010265,-0.00001379,0.00005022,-0.00005359,-0.00010177,-0.00001949,
 -0.00001018,0.00000839,0.00001760,0.00000662,-0.00000245,0.00002077,0.
 00000463,0.00000116,-0.00000786,-0.00000007,-0.00000190,-0.00000267,-0
 .00346166,0.00064303,0.00324116,-0.00052613,0.00044716,0.00096056,0.00
 004447,0.00004758,0.00030642,-0.00007256,0.00022708,0.00048869,-0.0002
 9646,-0.00010201,0.00026887,-0.00012368,-0.00012441,0.00038678,-0.0000
 8842,-0.00010823,0.00019414,0.00005371,0.00010877,0.00003978,0.1197888
 7,-0.01665797,-0.23601960,0.01144305,-0.00055319,-0.01708762,0.0043173
 1,-0.00088182,-0.00805511,-0.13001559,0.01697323,0.25462914\\-0.000009
 35,0.00002719,-0.00000523,0.00001954,-0.00000998,0.00001845,0.00000842
 ,-0.00000889,0.00000896,-0.00005438,0.00000963,-0.00000297,0.00002932,
 0.00000941,0.00001192,0.00000917,-0.00002013,0.00000501,0.00000925,-0.
 00000218,0.00002587,0.00001080,-0.00000573,0.00001623,-0.00000521,0.00
 000103,-0.00000203,-0.00001582,0.00000935,0.00001342,-0.00001706,0.000
 01527,0.00000265,0.00002111,0.00000088,-0.00001558,-0.00000710,0.00000
 177,0.00001635,-0.00001897,0.00001077,0.00001160,-0.00001029,0.0000022
 8,0.00001860,-0.00001085,0.00000769,0.00002459,0.00001300,-0.00000155,
 -0.00002964,-0.00001330,-0.00002291,-0.00003600,0.00001845,-0.00001581
 ,0.00002606,0.00001681,-0.00000603,-0.00000008,-0.00000235,-0.00000179
 ,-0.00000241,-0.00000621,0.00000609,-0.00001082,-0.00000677,0.00000409
 ,0.00000418,0.00000419,-0.00000026,-0.00000279,0.00000132,-0.00000386,
 -0.00002102,0.00000977,-0.00000309,-0.00002271,0.00000625,-0.00000404,
 -0.00002395,0.00000025,0.00000080,-0.00002866\\\@
 Job cpu time:  0 days  4 hours  6 minutes 11.9 seconds.
 File lengths (MBytes):  RWF=  54389 Int=      0 D2E=      0 Chk=     15 Scr=      1
 Normal termination of Gaussian 09 at Fri Apr  4 01:22:00 2014.
