 Entering Gaussian System, Link 0=g09
 Initial command:
 /usr/caen/gaussian-09revc/g09/l1.exe /scratch/avioli_flux/hetanjin/scratch/Gau-66703.inp -scrdir=/scratch/avioli_flux/hetanjin/scratch/
 Entering Link 1 = /usr/caen/gaussian-09revc/g09/l1.exe PID=     66704.
  
 Copyright (c) 1988,1990,1992,1993,1995,1998,2003,2009,2011,
            Gaussian, Inc.  All Rights Reserved.
  
 This is part of the Gaussian(R) 09 program.  It is based on
 the Gaussian(R) 03 system (copyright 2003, Gaussian, Inc.),
 the Gaussian(R) 98 system (copyright 1998, Gaussian, Inc.),
 the Gaussian(R) 94 system (copyright 1995, Gaussian, Inc.),
 the Gaussian 92(TM) system (copyright 1992, Gaussian, Inc.),
 the Gaussian 90(TM) system (copyright 1990, Gaussian, Inc.),
 the Gaussian 88(TM) system (copyright 1988, Gaussian, Inc.),
 the Gaussian 86(TM) system (copyright 1986, Carnegie Mellon
 University), and the Gaussian 82(TM) system (copyright 1983,
 Carnegie Mellon University). Gaussian is a federally registered
 trademark of Gaussian, Inc.
  
 This software contains proprietary and confidential information,
 including trade secrets, belonging to Gaussian, Inc.
  
 This software is provided under written license and may be
 used, copied, transmitted, or stored only in accord with that
 written license.
  
 The following legend is applicable only to US Government
 contracts under FAR:
  
                    RESTRICTED RIGHTS LEGEND
  
 Use, reproduction and disclosure by the US Government is
 subject to restrictions as set forth in subparagraphs (a)
 and (c) of the Commercial Computer Software - Restricted
 Rights clause in FAR 52.227-19.
  
 Gaussian, Inc.
 340 Quinnipiac St., Bldg. 40, Wallingford CT 06492
  
  
 ---------------------------------------------------------------
 Warning -- This program may not be used in any manner that
 competes with the business of Gaussian, Inc. or will provide
 assistance to any competitor of Gaussian, Inc.  The licensee
 of this program is prohibited from giving any competitor of
 Gaussian, Inc. access to this program.  By using this program,
 the user acknowledges that Gaussian, Inc. is engaged in the
 business of creating and licensing software in the field of
 computational chemistry and represents and warrants to the
 licensee that it is not a competitor of Gaussian, Inc. and that
 it will not use this program in any manner prohibited above.
 ---------------------------------------------------------------
  

 Cite this work as:
 Gaussian 09, Revision C.01,
 M. J. Frisch, G. W. Trucks, H. B. Schlegel, G. E. Scuseria, 
 M. A. Robb, J. R. Cheeseman, G. Scalmani, V. Barone, B. Mennucci, 
 G. A. Petersson, H. Nakatsuji, M. Caricato, X. Li, H. P. Hratchian, 
 A. F. Izmaylov, J. Bloino, G. Zheng, J. L. Sonnenberg, M. Hada, 
 M. Ehara, K. Toyota, R. Fukuda, J. Hasegawa, M. Ishida, T. Nakajima, 
 Y. Honda, O. Kitao, H. Nakai, T. Vreven, J. A. Montgomery, Jr., 
 J. E. Peralta, F. Ogliaro, M. Bearpark, J. J. Heyd, E. Brothers, 
 K. N. Kudin, V. N. Staroverov, T. Keith, R. Kobayashi, J. Normand, 
 K. Raghavachari, A. Rendell, J. C. Burant, S. S. Iyengar, J. Tomasi, 
 M. Cossi, N. Rega, J. M. Millam, M. Klene, J. E. Knox, J. B. Cross, 
 V. Bakken, C. Adamo, J. Jaramillo, R. Gomperts, R. E. Stratmann, 
 O. Yazyev, A. J. Austin, R. Cammi, C. Pomelli, J. W. Ochterski, 
 R. L. Martin, K. Morokuma, V. G. Zakrzewski, G. A. Voth, 
 P. Salvador, J. J. Dannenberg, S. Dapprich, A. D. Daniels, 
 O. Farkas, J. B. Foresman, J. V. Ortiz, J. Cioslowski, 
 and D. J. Fox, Gaussian, Inc., Wallingford CT, 2010.
 
 ******************************************
 Gaussian 09:  EM64L-G09RevC.01 23-Sep-2011
                 9-Feb-2014 
 ******************************************
 %mem=30GB
 %nprocshared=8
 Will use up to    8 processors via shared memory.
 %chk=C9H18OOH_3_26_d.chk
 --------------------------------------------------
 #p UB3LYP/6-311++G(d,p) guess=mix stable=(opt,xqc)
 --------------------------------------------------
 1/38=1/1;
 2/12=2,17=6,18=5,40=1/2;
 3/5=4,6=6,7=1111,11=2,16=1,25=1,30=1,74=-5,116=2/1,2,3;
 4/13=-1/1;
 5/5=2,38=5/2;
 6/7=2,8=2,9=2,10=2,28=1/1;
 8/6=1,10=90,11=11/1;
 9/8=-3,42=1,46=1/14;
 5/5=2,8=3,13=1,17=40,38=5/2,8(-2);
 6/7=2,8=2,9=2,10=2,28=1/1;
 99/5=1,9=1/99;
 Leave Link    1 at Sun Feb  9 05:57:35 2014, MaxMem= 4026531840 cpu:       0.5
 (Enter /usr/caen/gaussian-09revc/g09/l101.exe)
 --------------------------------------------
 C9H18OOH_3_26_d using cbs-qb3 to cal. energy
 --------------------------------------------
 Charge =  0 Multiplicity = 2
 Symbolic Z-Matrix:
 C                    -3.51749  -0.41383  -0.08059 
 H                    -3.77018   0.49013  -0.64054 
 H                    -3.66553  -0.21748   0.98593 
 H                    -4.23168  -1.18677  -0.37857 
 C                    -2.08454  -0.87579  -0.37439 
 H                    -1.98895  -0.99906  -1.46103 
 C                     0.34175  -0.14758  -0.47736 
 H                     0.42027  -0.7508   -1.37867 
 C                     1.54918   0.5807    0.00606 
 H                     1.47329   0.74819   1.09039 
 H                     1.55091   1.59115  -0.4347 
 C                     2.89236  -0.10273  -0.31945 
 H                     2.90844  -0.29615  -1.40082 
 C                     4.06846   0.82581   0.00887 
 H                     4.09042   1.06497   1.07784 
 H                     5.02419   0.3581   -0.24511 
 H                     3.99923   1.76862  -0.54155 
 C                    -1.80732  -2.23233   0.29288 
 H                    -1.90486  -2.15658   1.38138 
 H                    -2.52089  -2.98551  -0.05262 
 H                    -0.80133  -2.59765   0.07307 
 C                     3.03645  -1.44762   0.40573 
 H                     3.97458  -1.94224   0.13733 
 H                     3.03513  -1.30379   1.49209 
 H                     2.21646  -2.12815   0.16065 
 C                    -1.01775   0.14967   0.05484 
 H                    -0.99145   0.23174   1.14867 
 O                    -1.32639   1.50154  -0.42594 
 O                    -2.00923   2.24487   0.62937 
 H                    -2.89968   2.32212   0.25918 
 
 NAtoms=     30 NQM=        0 NQMF=       0 NMMI=     30 NMMIF=      0
                NMic=       0 NMicF=      0.
                    Isotopes and Nuclear Properties:
 (Nuclear quadrupole moments (NQMom) in fm**2, nuclear magnetic moments (NMagM)
  in nuclear magnetons)

  Atom         1           2           3           4           5           6           7           8           9          10
 IAtWgt=          12           1           1           1          12           1          12           1          12           1
 AtmWgt=  12.0000000   1.0078250   1.0078250   1.0078250  12.0000000   1.0078250  12.0000000   1.0078250  12.0000000   1.0078250
 NucSpn=           0           1           1           1           0           1           0           1           0           1
 AtZEff=   0.0000000   0.0000000   0.0000000   0.0000000   0.0000000   0.0000000   0.0000000   0.0000000   0.0000000   0.0000000
 NQMom=    0.0000000   0.0000000   0.0000000   0.0000000   0.0000000   0.0000000   0.0000000   0.0000000   0.0000000   0.0000000
 NMagM=    0.0000000   2.7928460   2.7928460   2.7928460   0.0000000   2.7928460   0.0000000   2.7928460   0.0000000   2.7928460

  Atom        11          12          13          14          15          16          17          18          19          20
 IAtWgt=           1          12           1          12           1           1           1          12           1           1
 AtmWgt=   1.0078250  12.0000000   1.0078250  12.0000000   1.0078250   1.0078250   1.0078250  12.0000000   1.0078250   1.0078250
 NucSpn=           1           0           1           0           1           1           1           0           1           1
 AtZEff=   0.0000000   0.0000000   0.0000000   0.0000000   0.0000000   0.0000000   0.0000000   0.0000000   0.0000000   0.0000000
 NQMom=    0.0000000   0.0000000   0.0000000   0.0000000   0.0000000   0.0000000   0.0000000   0.0000000   0.0000000   0.0000000
 NMagM=    2.7928460   0.0000000   2.7928460   0.0000000   2.7928460   2.7928460   2.7928460   0.0000000   2.7928460   2.7928460

  Atom        21          22          23          24          25          26          27          28          29          30
 IAtWgt=           1          12           1           1           1          12           1          16          16           1
 AtmWgt=   1.0078250  12.0000000   1.0078250   1.0078250   1.0078250  12.0000000   1.0078250  15.9949146  15.9949146   1.0078250
 NucSpn=           1           0           1           1           1           0           1           0           0           1
 AtZEff=   0.0000000   0.0000000   0.0000000   0.0000000   0.0000000   0.0000000   0.0000000   0.0000000   0.0000000   0.0000000
 NQMom=    0.0000000   0.0000000   0.0000000   0.0000000   0.0000000   0.0000000   0.0000000   0.0000000   0.0000000   0.0000000
 NMagM=    2.7928460   0.0000000   2.7928460   2.7928460   2.7928460   0.0000000   2.7928460   0.0000000   0.0000000   2.7928460
 Leave Link  101 at Sun Feb  9 05:57:36 2014, MaxMem= 4026531840 cpu:       0.6
 (Enter /usr/caen/gaussian-09revc/g09/l202.exe)
                          Input orientation:                          
 ---------------------------------------------------------------------
 Center     Atomic      Atomic             Coordinates (Angstroms)
 Number     Number       Type             X           Y           Z
 ---------------------------------------------------------------------
      1          6           0       -3.517494   -0.413825   -0.080591
      2          1           0       -3.770183    0.490129   -0.640536
      3          1           0       -3.665533   -0.217478    0.985929
      4          1           0       -4.231676   -1.186770   -0.378574
      5          6           0       -2.084541   -0.875789   -0.374385
      6          1           0       -1.988952   -0.999057   -1.461029
      7          6           0        0.341748   -0.147576   -0.477362
      8          1           0        0.420267   -0.750797   -1.378666
      9          6           0        1.549181    0.580703    0.006057
     10          1           0        1.473290    0.748188    1.090391
     11          1           0        1.550912    1.591146   -0.434704
     12          6           0        2.892356   -0.102732   -0.319454
     13          1           0        2.908435   -0.296154   -1.400820
     14          6           0        4.068461    0.825813    0.008871
     15          1           0        4.090421    1.064971    1.077843
     16          1           0        5.024185    0.358101   -0.245105
     17          1           0        3.999233    1.768615   -0.541551
     18          6           0       -1.807317   -2.232326    0.292880
     19          1           0       -1.904864   -2.156580    1.381376
     20          1           0       -2.520889   -2.985508   -0.052615
     21          1           0       -0.801330   -2.597651    0.073074
     22          6           0        3.036448   -1.447621    0.405734
     23          1           0        3.974583   -1.942242    0.137331
     24          1           0        3.035133   -1.303792    1.492088
     25          1           0        2.216462   -2.128154    0.160654
     26          6           0       -1.017748    0.149669    0.054843
     27          1           0       -0.991445    0.231736    1.148670
     28          8           0       -1.326387    1.501541   -0.425935
     29          8           0       -2.009230    2.244869    0.629374
     30          1           0       -2.899681    2.322115    0.259175
 ---------------------------------------------------------------------
                    Distance matrix (angstroms):
                    1          2          3          4          5
     1  C    0.000000
     2  H    1.092942   0.000000
     3  H    1.094501   1.776808   0.000000
     4  H    1.093752   1.758860   1.766894   0.000000
     5  C    1.533975   2.185854   2.187090   2.169543   0.000000
     6  H    2.141155   2.462452   3.067473   2.497350   1.097783
     7  C    3.888710   4.164285   4.266662   4.691044   2.535306
     8  H    4.159869   4.432223   4.750737   4.778162   2.701530
     9  C    5.164086   5.359283   5.365676   6.057244   3.933197
    10  H    5.256367   5.527813   5.229811   6.200690   4.176246
    11  H    5.462055   5.437707   5.700931   6.415473   4.393851
    12  C    6.421839   6.696567   6.687533   7.206280   5.036878
    13  H    6.561205   6.767585   6.994270   7.267694   5.130239
    14  C    7.687094   7.872659   7.864971   8.549437   6.395449
    15  H    7.836401   8.066744   7.861803   8.743500   6.633677
    16  H    8.578066   8.804244   8.795336   9.384850   7.216175
    17  H    7.840709   7.874525   8.063895   8.746927   6.635746
    18  C    2.524110   3.483658   2.827171   2.724253   1.536974
    19  H    2.788390   3.817409   2.648858   3.074412   2.180689
    20  H    2.758180   3.739845   3.170296   2.503697   2.178268
    21  H    3.488589   4.342547   3.834343   3.736555   2.193549
    22  C    6.652774   7.154005   6.838598   7.314972   5.211536
    23  H    7.649495   8.154931   7.878217   8.257093   6.173505
    24  H    6.797226   7.353813   6.806996   7.504637   5.466074
    25  H    5.989606   6.583102   6.239361   6.538766   4.511464
    26  C    2.566047   2.859259   2.830633   3.507599   1.540730
    27  H    2.882491   3.315028   2.716436   3.852756   2.177422
    28  O    2.930672   2.653516   3.228001   3.958530   2.495827
    29  O    3.138083   2.791548   2.988917   4.210864   3.278980
    30  H    2.825332   2.218880   2.750315   3.806995   3.360423
                    6          7          8          9         10
     6  H    0.000000
     7  C    2.669229   0.000000
     8  H    2.423376   1.087377   0.000000
     9  C    4.143232   1.490630   2.228182   0.000000
    10  H    4.642169   2.130875   3.074420   1.099814   0.000000
    11  H    4.504790   2.118266   2.766608   1.102392   1.744282
    12  C    5.092520   2.555885   2.766431   1.541804   2.173816
    13  H    4.947939   2.731800   2.529461   2.143771   3.058827
    14  C    6.494845   3.882306   4.209546   2.531177   2.812583
    15  H    6.903974   4.235739   4.775090   2.800204   2.636263
    16  H    7.245995   4.715386   4.869361   3.491173   3.813735
    17  H    6.660616   4.129540   4.456141   2.777366   3.175672
    18  C    2.151776   3.091591   3.154540   4.388790   4.503540
    19  H    3.070211   3.540942   3.873021   4.616779   4.464782
    20  H    2.492504   4.053265   3.924633   5.411726   5.585733
    21  H    2.513846   2.759071   2.647776   3.953647   4.171746
    22  C    5.379652   3.119517   3.242538   2.546724   2.780970
    23  H    6.245647   4.098312   4.043631   3.502151   3.795155
    24  H    5.835683   3.531273   3.922315   2.822705   2.609854
    25  H    4.646528   2.800769   2.737323   2.794114   3.112886
    26  C    2.135574   1.489908   2.221188   2.603324   2.763305
    27  H    3.052933   2.136647   3.057079   2.807512   2.518936
    28  O    2.786288   2.346254   3.005249   3.050156   3.271846
    29  O    3.859178   3.532104   4.348413   3.977469   3.818447
    30  H    3.849508   4.141102   4.811171   4.784241   4.721339
                   11         12         13         14         15
    11  H    0.000000
    12  C    2.163788   0.000000
    13  H    2.517568   1.098646   0.000000
    14  C    2.668435   1.534020   2.142825   0.000000
    15  H    3.002293   2.179754   3.064885   1.095619   0.000000
    16  H    3.690525   2.182336   2.498024   1.093923   1.766854
    17  H    2.457069   2.185508   2.488263   1.093907   1.768012
    18  C    5.140624   5.195869   5.371750   6.630056   6.802327
    19  H    5.411653   5.488573   5.862563   6.816088   6.812780
    20  H    6.137696   6.138796   6.207080   7.612456   7.835415
    21  H    4.830828   4.474597   4.607777   5.953074   6.193027
    22  C    3.485292   1.534727   2.146136   2.528053   2.806369
    23  H    4.322758   2.182582   2.492426   2.772624   3.152985
    24  H    3.781019   2.178214   3.065991   2.793370   2.626075
    25  H    3.824997   2.188532   2.504646   3.489822   3.814316
    26  C    2.985888   3.936079   4.211012   5.131160   5.289395
    27  H    3.289171   4.165473   4.689097   5.220605   5.150210
    28  O    2.878707   4.514734   4.702747   5.454361   5.638595
    29  O    3.772827   5.516978   5.895924   6.271927   6.228886
    30  H    4.563284   6.305742   6.583702   7.131380   7.149276
                   16         17         18         19         20
    16  H    0.000000
    17  H    1.768603   0.000000
    18  C    7.325924   7.100692   0.000000
    19  H    7.548562   7.345963   1.095480   0.000000
    20  H    8.254993   8.084104   1.093542   1.767184   0.000000
    21  H    6.540209   6.518240   1.092606   1.767480   1.767233
    22  C    2.763209   3.488335   4.908213   5.086361   5.784391
    23  H    2.557245   3.772525   5.791262   6.013442   6.581462
    24  H    3.120265   3.808525   5.074406   5.014287   6.006967
    25  H    3.772189   4.342370   4.027298   4.298406   4.819028
    26  C    6.052963   5.305353   2.520710   2.804541   3.478551
    27  H    6.176276   5.488689   2.733062   2.567594   3.759381
    28  O    6.455224   5.333566   3.832721   4.121026   4.658306
    29  O    7.334408   6.139993   4.494360   4.466447   5.299410
    30  H    8.179199   6.967248   4.683730   4.723103   5.330249
                   21         22         23         24         25
    21  H    0.000000
    22  C    4.020171   0.000000
    23  H    4.821103   1.093978   0.000000
    24  H    4.290235   1.095835   1.767923   0.000000
    25  H    3.055350   1.093420   1.768077   1.767063   0.000000
    26  C    2.755891   4.371609   5.413526   4.539170   3.957245
    27  H    3.032900   4.426750   5.514564   4.323091   4.103160
    28  O    4.162700   5.331375   6.346432   5.529156   5.105933
    29  O    5.021802   6.256466   7.319838   6.227589   6.099139
    30  H    5.351804   7.033492   8.090432   7.063235   6.781557
                   26         27         28         29         30
    26  C    0.000000
    27  H    1.097217   0.000000
    28  O    1.467639   2.050359   0.000000
    29  O    2.388092   2.314791   1.460304   0.000000
    30  H    2.881483   2.966859   1.902097   0.967428   0.000000
 Stoichiometry    C9H19O2(2)
 Framework group  C1[X(C9H19O2)]
 Deg. of freedom    84
 Full point group                 C1      NOp   1
 Largest Abelian subgroup         C1      NOp   1
 Largest concise Abelian subgroup C1      NOp   1
                         Standard orientation:                         
 ---------------------------------------------------------------------
 Center     Atomic      Atomic             Coordinates (Angstroms)
 Number     Number       Type             X           Y           Z
 ---------------------------------------------------------------------
      1          6           0        3.517494    0.413825   -0.080591
      2          1           0        3.770183   -0.490129   -0.640536
      3          1           0        3.665533    0.217478    0.985929
      4          1           0        4.231676    1.186770   -0.378574
      5          6           0        2.084541    0.875789   -0.374385
      6          1           0        1.988952    0.999057   -1.461029
      7          6           0       -0.341748    0.147576   -0.477362
      8          1           0       -0.420267    0.750797   -1.378666
      9          6           0       -1.549181   -0.580703    0.006057
     10          1           0       -1.473290   -0.748188    1.090391
     11          1           0       -1.550912   -1.591146   -0.434704
     12          6           0       -2.892356    0.102732   -0.319454
     13          1           0       -2.908435    0.296154   -1.400820
     14          6           0       -4.068461   -0.825813    0.008871
     15          1           0       -4.090421   -1.064971    1.077843
     16          1           0       -5.024185   -0.358101   -0.245105
     17          1           0       -3.999233   -1.768615   -0.541551
     18          6           0        1.807317    2.232326    0.292880
     19          1           0        1.904864    2.156580    1.381376
     20          1           0        2.520889    2.985508   -0.052615
     21          1           0        0.801330    2.597651    0.073074
     22          6           0       -3.036448    1.447621    0.405734
     23          1           0       -3.974583    1.942242    0.137331
     24          1           0       -3.035133    1.303792    1.492088
     25          1           0       -2.216462    2.128154    0.160654
     26          6           0        1.017748   -0.149669    0.054843
     27          1           0        0.991445   -0.231736    1.148670
     28          8           0        1.326387   -1.501541   -0.425935
     29          8           0        2.009230   -2.244869    0.629374
     30          1           0        2.899681   -2.322115    0.259175
 ---------------------------------------------------------------------
 Rotational constants (GHZ):      1.6503468      0.5100454      0.4112458
 Leave Link  202 at Sun Feb  9 05:57:36 2014, MaxMem= 4026531840 cpu:       0.6
 (Enter /usr/caen/gaussian-09revc/g09/l301.exe)
 Standard basis: 6-311++G(d,p) (5D, 7F)
 Ernie: Thresh=  0.10000D-02 Tol=  0.10000D-05 Strict=F.
 There are   375 symmetry adapted basis functions of A   symmetry.
 Integral buffers will be    131072 words long.
 Raffenetti 2 integral format.
 Two-electron integral symmetry is turned on.
   375 basis functions,   567 primitive gaussians,   386 cartesian basis functions
    45 alpha electrons       44 beta electrons
       nuclear repulsion energy       658.0156029735 Hartrees.
 IExCor=  402 DFT=T Ex+Corr=B3LYP ExCW=0 ScaHFX=  0.200000
 ScaDFX=  0.800000  0.720000  1.000000  0.810000 ScalE2=  1.000000  1.000000
 IRadAn=      0 IRanWt=     -1 IRanGd=            0 ICorTp=0
 NAtoms=   30 NActive=   30 NUniq=   30 SFac= 1.00D+00 NAtFMM=   60 NAOKFM=F Big=F
 Leave Link  301 at Sun Feb  9 05:57:36 2014, MaxMem= 4026531840 cpu:       0.8
 (Enter /usr/caen/gaussian-09revc/g09/l302.exe)
 NPDir=0 NMtPBC=     1 NCelOv=     1 NCel=       1 NClECP=     1 NCelD=      1
         NCelK=      1 NCelE2=     1 NClLst=     1 CellRange=     0.0.
 One-electron integrals computed using PRISM.
 NBasis=   375 RedAO= T  NBF=   375
 NBsUse=   375 1.00D-06 NBFU=   375
 Precomputing XC quadrature grid using
 IXCGrd= 2 IRadAn=           0 IRanWt=          -1 IRanGd=           0 AccXCQ= 0.00D+00.
 NRdTot=    1960 NPtTot=      249830 NUsed=      263953 NTot=      263985
 NSgBfM=   386   386   386   386   386 NAtAll=    30    30.
 Leave Link  302 at Sun Feb  9 05:57:37 2014, MaxMem= 4026531840 cpu:       5.8
 (Enter /usr/caen/gaussian-09revc/g09/l303.exe)
 DipDrv:  MaxL=1.
 Leave Link  303 at Sun Feb  9 05:57:38 2014, MaxMem= 4026531840 cpu:       1.4
 (Enter /usr/caen/gaussian-09revc/g09/l401.exe)
 Harris functional with IExCor=  402 diagonalized for initial guess.
 ExpMin= 3.60D-02 ExpMax= 8.59D+03 ExpMxC= 1.30D+03 IAcc=3 IRadAn=         5 AccDes= 0.00D+00
 HarFok:  IExCor=  402 AccDes= 0.00D+00 IRadAn=         5 IDoV= 1
 ScaDFX=  1.000000  1.000000  1.000000  1.000000
 FoFCou: FMM=F IPFlag=           0 FMFlag=      100000 FMFlg1=           0
         NFxFlg=           0 DoJE=T BraDBF=F KetDBF=T FulRan=T
         Omega=  0.000000  0.000000  1.000000  0.000000  0.000000 ICntrl=     500 IOpCl=  0
         NMat0=    1 NMatS0=    1 NMatT0=    0 NMatD0=    1 NMtDS0=    0 NMtDT0=    0
         I1Cent=           4 NGrid=           0.
 Petite list used in FoFCou.
 Harris En= -504.914796004252    
 Mixing orbitals, IMix= 1 IMixAn=  0 NRI=1 NE=   45 Coef=  7.07106781D-01  7.07106781D-01
 Mixing orbitals, IMix= 1 IMixAn=  0 NRI=1 NE=   44 Coef= -7.07106781D-01  7.07106781D-01
 Initial guess orbital symmetries:
 Alpha Orbitals:
       Occupied  (A) (A) (A) (A) (A) (A) (A) (A) (A) (A) (A) (A)
                 (A) (A) (A) (A) (A) (A) (A) (A) (A) (A) (A) (A)
                 (A) (A) (A) (A) (A) (A) (A) (A) (A) (A) (A) (A)
                 (A) (A) (A) (A) (A) (A) (A) (A) (A)
       Virtual   (A) (A) (A) (A) (A) (A) (A) (A) (A) (A) (A) (A)
                 (A) (A) (A) (A) (A) (A) (A) (A) (A) (A) (A) (A)
                 (A) (A) (A) (A) (A) (A) (A) (A) (A) (A) (A) (A)
                 (A) (A) (A) (A) (A) (A) (A) (A) (A) (A) (A) (A)
                 (A) (A) (A) (A) (A) (A) (A) (A) (A) (A) (A) (A)
                 (A) (A) (A) (A) (A) (A) (A) (A) (A) (A) (A) (A)
                 (A) (A) (A) (A) (A) (A) (A) (A) (A) (A) (A) (A)
                 (A) (A) (A) (A) (A) (A) (A) (A) (A) (A) (A) (A)
                 (A) (A) (A) (A) (A) (A) (A) (A) (A) (A) (A) (A)
                 (A) (A) (A) (A) (A) (A) (A) (A) (A) (A) (A) (A)
                 (A) (A) (A) (A) (A) (A) (A) (A) (A) (A) (A) (A)
                 (A) (A) (A) (A) (A) (A) (A) (A) (A) (A) (A) (A)
                 (A) (A) (A) (A) (A) (A) (A) (A) (A) (A) (A) (A)
                 (A) (A) (A) (A) (A) (A) (A) (A) (A) (A) (A) (A)
                 (A) (A) (A) (A) (A) (A) (A) (A) (A) (A) (A) (A)
                 (A) (A) (A) (A) (A) (A) (A) (A) (A) (A) (A) (A)
                 (A) (A) (A) (A) (A) (A) (A) (A) (A) (A) (A) (A)
                 (A) (A) (A) (A) (A) (A) (A) (A) (A) (A) (A) (A)
                 (A) (A) (A) (A) (A) (A) (A) (A) (A) (A) (A) (A)
                 (A) (A) (A) (A) (A) (A) (A) (A) (A) (A) (A) (A)
                 (A) (A) (A) (A) (A) (A) (A) (A) (A) (A) (A) (A)
                 (A) (A) (A) (A) (A) (A) (A) (A) (A) (A) (A) (A)
                 (A) (A) (A) (A) (A) (A) (A) (A) (A) (A) (A) (A)
                 (A) (A) (A) (A) (A) (A) (A) (A) (A) (A) (A) (A)
                 (A) (A) (A) (A) (A) (A) (A) (A) (A) (A) (A) (A)
                 (A) (A) (A) (A) (A) (A) (A) (A) (A) (A) (A) (A)
                 (A) (A) (A) (A) (A) (A) (A) (A) (A) (A) (A) (A)
                 (A) (A) (A) (A) (A) (A)
 Beta  Orbitals:
       Occupied  (A) (A) (A) (A) (A) (A) (A) (A) (A) (A) (A) (A)
                 (A) (A) (A) (A) (A) (A) (A) (A) (A) (A) (A) (A)
                 (A) (A) (A) (A) (A) (A) (A) (A) (A) (A) (A) (A)
                 (A) (A) (A) (A) (A) (A) (A) (A)
       Virtual   (A) (A) (A) (A) (A) (A) (A) (A) (A) (A) (A) (A)
                 (A) (A) (A) (A) (A) (A) (A) (A) (A) (A) (A) (A)
                 (A) (A) (A) (A) (A) (A) (A) (A) (A) (A) (A) (A)
                 (A) (A) (A) (A) (A) (A) (A) (A) (A) (A) (A) (A)
                 (A) (A) (A) (A) (A) (A) (A) (A) (A) (A) (A) (A)
                 (A) (A) (A) (A) (A) (A) (A) (A) (A) (A) (A) (A)
                 (A) (A) (A) (A) (A) (A) (A) (A) (A) (A) (A) (A)
                 (A) (A) (A) (A) (A) (A) (A) (A) (A) (A) (A) (A)
                 (A) (A) (A) (A) (A) (A) (A) (A) (A) (A) (A) (A)
                 (A) (A) (A) (A) (A) (A) (A) (A) (A) (A) (A) (A)
                 (A) (A) (A) (A) (A) (A) (A) (A) (A) (A) (A) (A)
                 (A) (A) (A) (A) (A) (A) (A) (A) (A) (A) (A) (A)
                 (A) (A) (A) (A) (A) (A) (A) (A) (A) (A) (A) (A)
                 (A) (A) (A) (A) (A) (A) (A) (A) (A) (A) (A) (A)
                 (A) (A) (A) (A) (A) (A) (A) (A) (A) (A) (A) (A)
                 (A) (A) (A) (A) (A) (A) (A) (A) (A) (A) (A) (A)
                 (A) (A) (A) (A) (A) (A) (A) (A) (A) (A) (A) (A)
                 (A) (A) (A) (A) (A) (A) (A) (A) (A) (A) (A) (A)
                 (A) (A) (A) (A) (A) (A) (A) (A) (A) (A) (A) (A)
                 (A) (A) (A) (A) (A) (A) (A) (A) (A) (A) (A) (A)
                 (A) (A) (A) (A) (A) (A) (A) (A) (A) (A) (A) (A)
                 (A) (A) (A) (A) (A) (A) (A) (A) (A) (A) (A) (A)
                 (A) (A) (A) (A) (A) (A) (A) (A) (A) (A) (A) (A)
                 (A) (A) (A) (A) (A) (A) (A) (A) (A) (A) (A) (A)
                 (A) (A) (A) (A) (A) (A) (A) (A) (A) (A) (A) (A)
                 (A) (A) (A) (A) (A) (A) (A) (A) (A) (A) (A) (A)
                 (A) (A) (A) (A) (A) (A) (A) (A) (A) (A) (A) (A)
                 (A) (A) (A) (A) (A) (A) (A)
 The electronic state of the initial guess is 2-A.
 Initial guess <Sx>= 0.0000 <Sy>= 0.0000 <Sz>= 0.5000 <S**2>= 1.0000 S= 0.6180
 Leave Link  401 at Sun Feb  9 05:57:42 2014, MaxMem= 4026531840 cpu:      31.6
 (Enter /usr/caen/gaussian-09revc/g09/l502.exe)
 UHF open shell SCF:
 Requested convergence on RMS density matrix=1.00D-08 within 128 cycles.
 Requested convergence on MAX density matrix=1.00D-06.
 Requested convergence on             energy=1.00D-06.
 No special actions if energy rises.
 Using DIIS extrapolation, IDIIS=  1040.
 Integral symmetry usage will be decided dynamically.
       263670 words used for storage of precomputed grid.
 IEnd=      734804 IEndB=      734804 NGot=  4026531840 MDV=  4025963059
 LenX=  4025963059 LenY=  4025813622
 Fock matrices will be formed incrementally for  20 cycles.

 Cycle   1  Pass 1  IDiag  1:
 FoFCou: FMM=F IPFlag=           0 FMFlag=      100000 FMFlg1=           0
         NFxFlg=           0 DoJE=F BraDBF=F KetDBF=F FulRan=T
         Omega=  0.000000  0.000000  1.000000  0.000000  0.000000 ICntrl=       0 IOpCl=  1
         NMat0=    1 NMatS0=    1 NMatT0=    0 NMatD0=    1 NMtDS0=    0 NMtDT0=    0
         I1Cent=           0 NGrid=           0.
 Symmetry not used in FoFCou.
 E= -504.355344621339    
 DIIS: error= 3.10D-02 at cycle   1 NSaved=   1.
 NSaved= 1 IEnMin= 1 EnMin= -504.355344621339     IErMin= 1 ErrMin= 3.10D-02
 ErrMax= 3.10D-02 EMaxC= 1.00D-01 BMatC= 1.61D+00 BMatP= 1.61D+00
 IDIUse=3 WtCom= 6.90D-01 WtEn= 3.10D-01
 Coeff-Com:  0.100D+01
 Coeff-En:   0.100D+01
 Coeff:      0.100D+01
 Gap=     0.072 Goal=   None    Shift=    0.000
 Gap=     0.030 Goal=   None    Shift=    0.000
 GapD=    0.030 DampG=0.250 DampE=0.500 DampFc=0.2500 IDamp=-1.
 Damping current iteration by 2.50D-01
 RMSDP=1.67D-02 MaxDP=2.05D+00              OVMax= 4.94D-01

 Cycle   2  Pass 1  IDiag  1:
 RMSU=  2.59D-03    CP:  9.21D-01
 E= -504.507390144895     Delta-E=       -0.152045523556 Rises=F Damp=T
 DIIS: error= 1.42D-02 at cycle   2 NSaved=   2.
 NSaved= 2 IEnMin= 2 EnMin= -504.507390144895     IErMin= 2 ErrMin= 1.42D-02
 ErrMax= 1.42D-02 EMaxC= 1.00D-01 BMatC= 3.77D-01 BMatP= 1.61D+00
 IDIUse=3 WtCom= 8.58D-01 WtEn= 1.42D-01
 Coeff-Com: -0.697D+00 0.170D+01
 Coeff-En:   0.000D+00 0.100D+01
 Coeff:     -0.598D+00 0.160D+01
 Gap=     0.145 Goal=   None    Shift=    0.000
 Gap=     0.121 Goal=   None    Shift=    0.000
 RMSDP=9.73D-03 MaxDP=1.47D+00 DE=-1.52D-01 OVMax= 1.81D-01

 Cycle   3  Pass 1  IDiag  1:
 RMSU=  7.24D-03    CP:  7.98D-01  1.35D+00
 E= -504.808396831130     Delta-E=       -0.301006686235 Rises=F Damp=F
 DIIS: error= 9.46D-03 at cycle   3 NSaved=   3.
 NSaved= 3 IEnMin= 3 EnMin= -504.808396831130     IErMin= 3 ErrMin= 9.46D-03
 ErrMax= 9.46D-03 EMaxC= 1.00D-01 BMatC= 1.44D-01 BMatP= 3.77D-01
 IDIUse=3 WtCom= 9.05D-01 WtEn= 9.46D-02
 Coeff-Com: -0.384D+00 0.903D+00 0.481D+00
 Coeff-En:   0.000D+00 0.000D+00 0.100D+01
 Coeff:     -0.347D+00 0.817D+00 0.530D+00
 Gap=     0.154 Goal=   None    Shift=    0.000
 Gap=     0.136 Goal=   None    Shift=    0.000
 RMSDP=6.57D-03 MaxDP=1.30D+00 DE=-3.01D-01 OVMax= 1.66D-01

 Cycle   4  Pass 1  IDiag  1:
 RMSU=  2.71D-03    CP:  6.98D-01  1.12D+00  6.13D-01
 E= -504.837023496021     Delta-E=       -0.028626664891 Rises=F Damp=F
 DIIS: error= 7.22D-03 at cycle   4 NSaved=   4.
 NSaved= 4 IEnMin= 4 EnMin= -504.837023496021     IErMin= 4 ErrMin= 7.22D-03
 ErrMax= 7.22D-03 EMaxC= 1.00D-01 BMatC= 6.47D-02 BMatP= 1.44D-01
 IDIUse=3 WtCom= 9.28D-01 WtEn= 7.22D-02
 Coeff-Com: -0.386D-01 0.113D+00 0.387D+00 0.539D+00
 Coeff-En:   0.000D+00 0.000D+00 0.174D+00 0.826D+00
 Coeff:     -0.358D-01 0.105D+00 0.372D+00 0.559D+00
 Gap=     0.189 Goal=   None    Shift=    0.000
 Gap=     0.164 Goal=   None    Shift=    0.000
 RMSDP=2.06D-03 MaxDP=3.72D-01 DE=-2.86D-02 OVMax= 7.35D-02

 Cycle   5  Pass 1  IDiag  1:
 RMSU=  1.17D-03    CP:  6.66D-01  9.93D-01  7.14D-01  9.34D-01
 E= -504.852261924810     Delta-E=       -0.015238428789 Rises=F Damp=F
 DIIS: error= 9.50D-04 at cycle   5 NSaved=   5.
 NSaved= 5 IEnMin= 5 EnMin= -504.852261924810     IErMin= 5 ErrMin= 9.50D-04
 ErrMax= 9.50D-04 EMaxC= 1.00D-01 BMatC= 2.51D-03 BMatP= 6.47D-02
 IDIUse=3 WtCom= 9.90D-01 WtEn= 9.50D-03
 Coeff-Com:  0.241D-01-0.468D-01 0.174D-01 0.114D+00 0.892D+00
 Coeff-En:   0.000D+00 0.000D+00 0.000D+00 0.000D+00 0.100D+01
 Coeff:      0.238D-01-0.464D-01 0.173D-01 0.113D+00 0.893D+00
 Gap=     0.192 Goal=   None    Shift=    0.000
 Gap=     0.187 Goal=   None    Shift=    0.000
 RMSDP=9.12D-04 MaxDP=1.62D-01 DE=-1.52D-02 OVMax= 4.42D-02

 Cycle   6  Pass 1  IDiag  1:
 RMSU=  4.69D-04    CP:  6.74D-01  9.30D-01  7.49D-01  1.02D+00  1.02D+00
 E= -504.853751060317     Delta-E=       -0.001489135508 Rises=F Damp=F
 DIIS: error= 7.39D-04 at cycle   6 NSaved=   6.
 NSaved= 6 IEnMin= 6 EnMin= -504.853751060317     IErMin= 6 ErrMin= 7.39D-04
 ErrMax= 7.39D-04 EMaxC= 1.00D-01 BMatC= 1.07D-03 BMatP= 2.51D-03
 IDIUse=3 WtCom= 9.93D-01 WtEn= 7.39D-03
 Coeff-Com:  0.799D-02-0.195D-01-0.878D-01-0.963D-01 0.445D+00 0.750D+00
 Coeff-En:   0.000D+00 0.000D+00 0.000D+00 0.000D+00 0.000D+00 0.100D+01
 Coeff:      0.794D-02-0.193D-01-0.871D-01-0.956D-01 0.442D+00 0.752D+00
 Gap=     0.199 Goal=   None    Shift=    0.000
 Gap=     0.189 Goal=   None    Shift=    0.000
 RMSDP=4.84D-04 MaxDP=5.61D-02 DE=-1.49D-03 OVMax= 1.99D-02

 Cycle   7  Pass 1  IDiag  1:
 RMSU=  2.03D-04    CP:  6.69D-01  8.89D-01  7.35D-01  1.06D+00  1.15D+00
                    CP:  1.12D+00
 E= -504.854120788759     Delta-E=       -0.000369728442 Rises=F Damp=F
 DIIS: error= 1.96D-04 at cycle   7 NSaved=   7.
 NSaved= 7 IEnMin= 7 EnMin= -504.854120788759     IErMin= 7 ErrMin= 1.96D-04
 ErrMax= 1.96D-04 EMaxC= 1.00D-01 BMatC= 1.26D-04 BMatP= 1.07D-03
 IDIUse=3 WtCom= 9.98D-01 WtEn= 1.96D-03
 Coeff-Com: -0.318D-02 0.618D-02-0.211D-01-0.313D-01 0.347D-01 0.283D+00
 Coeff-Com:  0.731D+00
 Coeff-En:   0.000D+00 0.000D+00 0.000D+00 0.000D+00 0.000D+00 0.000D+00
 Coeff-En:   0.100D+01
 Coeff:     -0.317D-02 0.617D-02-0.211D-01-0.312D-01 0.346D-01 0.283D+00
 Coeff:      0.732D+00
 Gap=     0.197 Goal=   None    Shift=    0.000
 Gap=     0.189 Goal=   None    Shift=    0.000
 RMSDP=1.16D-04 MaxDP=2.02D-02 DE=-3.70D-04 OVMax= 2.51D-03

 Cycle   8  Pass 1  IDiag  1:
 RMSU=  5.99D-05    CP:  6.67D-01  8.94D-01  7.31D-01  1.06D+00  1.15D+00
                    CP:  1.08D+00  9.37D-01
 E= -504.854152947035     Delta-E=       -0.000032158276 Rises=F Damp=F
 DIIS: error= 9.81D-05 at cycle   8 NSaved=   8.
 NSaved= 8 IEnMin= 8 EnMin= -504.854152947035     IErMin= 8 ErrMin= 9.81D-05
 ErrMax= 9.81D-05 EMaxC= 1.00D-01 BMatC= 2.46D-05 BMatP= 1.26D-04
 IDIUse=1 WtCom= 1.00D+00 WtEn= 0.00D+00
 Coeff-Com: -0.291D-02 0.631D-02 0.276D-02-0.520D-03-0.388D-01 0.329D-01
 Coeff-Com:  0.335D+00 0.665D+00
 Coeff:     -0.291D-02 0.631D-02 0.276D-02-0.520D-03-0.388D-01 0.329D-01
 Coeff:      0.335D+00 0.665D+00
 Gap=     0.197 Goal=   None    Shift=    0.000
 Gap=     0.189 Goal=   None    Shift=    0.000
 RMSDP=9.22D-05 MaxDP=1.97D-02 DE=-3.22D-05 OVMax= 1.36D-03

 Cycle   9  Pass 1  IDiag  1:
 RMSU=  2.65D-05    CP:  6.69D-01  8.98D-01  7.36D-01  1.06D+00  1.14D+00
                    CP:  1.11D+00  9.31D-01  8.06D-01
 E= -504.854159809426     Delta-E=       -0.000006862391 Rises=F Damp=F
 DIIS: error= 4.41D-05 at cycle   9 NSaved=   9.
 NSaved= 9 IEnMin= 9 EnMin= -504.854159809426     IErMin= 9 ErrMin= 4.41D-05
 ErrMax= 4.41D-05 EMaxC= 1.00D-01 BMatC= 5.37D-06 BMatP= 2.46D-05
 IDIUse=1 WtCom= 1.00D+00 WtEn= 0.00D+00
 Coeff-Com: -0.628D-05 0.225D-03 0.513D-02 0.477D-02-0.252D-01-0.472D-01
 Coeff-Com:  0.225D-02 0.318D+00 0.742D+00
 Coeff:     -0.628D-05 0.225D-03 0.513D-02 0.477D-02-0.252D-01-0.472D-01
 Coeff:      0.225D-02 0.318D+00 0.742D+00
 Gap=     0.197 Goal=   None    Shift=    0.000
 Gap=     0.189 Goal=   None    Shift=    0.000
 RMSDP=2.02D-05 MaxDP=4.54D-03 DE=-6.86D-06 OVMax= 1.13D-03

 Cycle  10  Pass 1  IDiag  1:
 RMSU=  1.10D-05    CP:  6.69D-01  8.96D-01  7.36D-01  1.06D+00  1.14D+00
                    CP:  1.12D+00  9.37D-01  8.53D-01  1.02D+00
 E= -504.854161909186     Delta-E=       -0.000002099760 Rises=F Damp=F
 DIIS: error= 1.46D-05 at cycle  10 NSaved=  10.
 NSaved=10 IEnMin=10 EnMin= -504.854161909186     IErMin=10 ErrMin= 1.46D-05
 ErrMax= 1.46D-05 EMaxC= 1.00D-01 BMatC= 6.02D-07 BMatP= 5.37D-06
 IDIUse=1 WtCom= 1.00D+00 WtEn= 0.00D+00
 Coeff-Com:  0.369D-03-0.678D-03 0.135D-02 0.134D-02-0.330D-02-0.223D-01
 Coeff-Com: -0.495D-01 0.974D-02 0.261D+00 0.802D+00
 Coeff:      0.369D-03-0.678D-03 0.135D-02 0.134D-02-0.330D-02-0.223D-01
 Coeff:     -0.495D-01 0.974D-02 0.261D+00 0.802D+00
 Gap=     0.197 Goal=   None    Shift=    0.000
 Gap=     0.189 Goal=   None    Shift=    0.000
 RMSDP=1.40D-05 MaxDP=3.14D-03 DE=-2.10D-06 OVMax= 5.57D-04

 Cycle  11  Pass 1  IDiag  1:
 RMSU=  6.33D-06    CP:  6.69D-01  8.96D-01  7.35D-01  1.06D+00  1.14D+00
                    CP:  1.11D+00  9.53D-01  9.16D-01  1.04D+00  1.02D+00
 E= -504.854162279146     Delta-E=       -0.000000369960 Rises=F Damp=F
 DIIS: error= 6.73D-06 at cycle  11 NSaved=  11.
 NSaved=11 IEnMin=11 EnMin= -504.854162279146     IErMin=11 ErrMin= 6.73D-06
 ErrMax= 6.73D-06 EMaxC= 1.00D-01 BMatC= 9.10D-08 BMatP= 6.02D-07
 IDIUse=1 WtCom= 1.00D+00 WtEn= 0.00D+00
 Coeff-Com:  0.394D-04-0.956D-04-0.657D-03-0.661D-03 0.393D-02 0.436D-02
 Coeff-Com: -0.979D-02-0.600D-01-0.936D-01 0.196D+00 0.960D+00
 Coeff:      0.394D-04-0.956D-04-0.657D-03-0.661D-03 0.393D-02 0.436D-02
 Coeff:     -0.979D-02-0.600D-01-0.936D-01 0.196D+00 0.960D+00
 Gap=     0.197 Goal=   None    Shift=    0.000
 Gap=     0.189 Goal=   None    Shift=    0.000
 RMSDP=5.47D-06 MaxDP=9.39D-04 DE=-3.70D-07 OVMax= 3.21D-04

 Cycle  12  Pass 1  IDiag  1:
 RMSU=  2.07D-06    CP:  6.69D-01  8.95D-01  7.35D-01  1.06D+00  1.14D+00
                    CP:  1.12D+00  9.56D-01  9.23D-01  1.08D+00  1.25D+00
                    CP:  1.02D+00
 E= -504.854162359141     Delta-E=       -0.000000079995 Rises=F Damp=F
 DIIS: error= 2.33D-06 at cycle  12 NSaved=  12.
 NSaved=12 IEnMin=12 EnMin= -504.854162359141     IErMin=12 ErrMin= 2.33D-06
 ErrMax= 2.33D-06 EMaxC= 1.00D-01 BMatC= 1.98D-08 BMatP= 9.10D-08
 IDIUse=1 WtCom= 1.00D+00 WtEn= 0.00D+00
 Coeff-Com: -0.342D-04 0.418D-04-0.455D-03-0.389D-03 0.220D-02 0.490D-02
 Coeff-Com:  0.191D-02-0.248D-01-0.715D-01-0.326D-01 0.364D+00 0.757D+00
 Coeff:     -0.342D-04 0.418D-04-0.455D-03-0.389D-03 0.220D-02 0.490D-02
 Coeff:      0.191D-02-0.248D-01-0.715D-01-0.326D-01 0.364D+00 0.757D+00
 Gap=     0.197 Goal=   None    Shift=    0.000
 Gap=     0.189 Goal=   None    Shift=    0.000
 RMSDP=1.68D-06 MaxDP=2.42D-04 DE=-8.00D-08 OVMax= 1.03D-04

 Cycle  13  Pass 1  IDiag  1:
 RMSU=  5.65D-07    CP:  6.69D-01  8.95D-01  7.36D-01  1.06D+00  1.14D+00
                    CP:  1.12D+00  9.54D-01  9.29D-01  1.09D+00  1.31D+00
                    CP:  1.12D+00  1.09D+00
 E= -504.854162370529     Delta-E=       -0.000000011388 Rises=F Damp=F
 DIIS: error= 1.13D-06 at cycle  13 NSaved=  13.
 NSaved=13 IEnMin=13 EnMin= -504.854162370529     IErMin=13 ErrMin= 1.13D-06
 ErrMax= 1.13D-06 EMaxC= 1.00D-01 BMatC= 4.46D-09 BMatP= 1.98D-08
 IDIUse=1 WtCom= 1.00D+00 WtEn= 0.00D+00
 Coeff-Com: -0.265D-04 0.391D-04-0.373D-04 0.165D-04-0.765D-05 0.111D-02
 Coeff-Com:  0.317D-02 0.453D-02-0.700D-02-0.679D-01-0.857D-01 0.325D+00
 Coeff-Com:  0.827D+00
 Coeff:     -0.265D-04 0.391D-04-0.373D-04 0.165D-04-0.765D-05 0.111D-02
 Coeff:      0.317D-02 0.453D-02-0.700D-02-0.679D-01-0.857D-01 0.325D+00
 Coeff:      0.827D+00
 Gap=     0.197 Goal=   None    Shift=    0.000
 Gap=     0.189 Goal=   None    Shift=    0.000
 RMSDP=1.04D-06 MaxDP=1.99D-04 DE=-1.14D-08 OVMax= 5.48D-05

 Cycle  14  Pass 1  IDiag  1:
 RMSU=  3.79D-07    CP:  6.69D-01  8.96D-01  7.35D-01  1.06D+00  1.14D+00
                    CP:  1.12D+00  9.55D-01  9.33D-01  1.09D+00  1.33D+00
                    CP:  1.17D+00  1.16D+00  8.47D-01
 E= -504.854162373135     Delta-E=       -0.000000002606 Rises=F Damp=F
 DIIS: error= 2.88D-07 at cycle  14 NSaved=  14.
 NSaved=14 IEnMin=14 EnMin= -504.854162373135     IErMin=14 ErrMin= 2.88D-07
 ErrMax= 2.88D-07 EMaxC= 1.00D-01 BMatC= 2.95D-10 BMatP= 4.46D-09
 IDIUse=1 WtCom= 1.00D+00 WtEn= 0.00D+00
 Coeff-Com: -0.420D-06 0.232D-05 0.466D-04 0.473D-04-0.255D-03-0.329D-03
 Coeff-Com:  0.531D-03 0.402D-02 0.704D-02-0.125D-01-0.633D-01-0.217D-01
 Coeff-Com:  0.196D+00 0.891D+00
 Coeff:     -0.420D-06 0.232D-05 0.466D-04 0.473D-04-0.255D-03-0.329D-03
 Coeff:      0.531D-03 0.402D-02 0.704D-02-0.125D-01-0.633D-01-0.217D-01
 Coeff:      0.196D+00 0.891D+00
 Gap=     0.197 Goal=   None    Shift=    0.000
 Gap=     0.189 Goal=   None    Shift=    0.000
 RMSDP=3.37D-07 MaxDP=7.90D-05 DE=-2.61D-09 OVMax= 1.46D-05

 Cycle  15  Pass 1  IDiag  1:
 RMSU=  9.21D-08    CP:  6.69D-01  8.96D-01  7.35D-01  1.06D+00  1.14D+00
                    CP:  1.12D+00  9.56D-01  9.34D-01  1.09D+00  1.33D+00
                    CP:  1.17D+00  1.21D+00  9.85D-01  8.24D-01
 E= -504.854162373313     Delta-E=       -0.000000000178 Rises=F Damp=F
 DIIS: error= 1.41D-07 at cycle  15 NSaved=  15.
 NSaved=15 IEnMin=15 EnMin= -504.854162373313     IErMin=15 ErrMin= 1.41D-07
 ErrMax= 1.41D-07 EMaxC= 1.00D-01 BMatC= 5.48D-11 BMatP= 2.95D-10
 IDIUse=1 WtCom= 1.00D+00 WtEn= 0.00D+00
 Coeff-Com:  0.185D-05-0.142D-05 0.196D-04 0.108D-04-0.103D-03-0.216D-03
 Coeff-Com: -0.131D-04 0.104D-02 0.300D-02 0.133D-02-0.144D-01-0.362D-01
 Coeff-Com: -0.464D-02 0.319D+00 0.732D+00
 Coeff:      0.185D-05-0.142D-05 0.196D-04 0.108D-04-0.103D-03-0.216D-03
 Coeff:     -0.131D-04 0.104D-02 0.300D-02 0.133D-02-0.144D-01-0.362D-01
 Coeff:     -0.464D-02 0.319D+00 0.732D+00
 Gap=     0.197 Goal=   None    Shift=    0.000
 Gap=     0.189 Goal=   None    Shift=    0.000
 RMSDP=1.22D-07 MaxDP=2.00D-05 DE=-1.78D-10 OVMax= 3.09D-06

 Cycle  16  Pass 1  IDiag  1:
 RMSU=  3.02D-08    CP:  6.69D-01  8.96D-01  7.35D-01  1.06D+00  1.14D+00
                    CP:  1.12D+00  9.56D-01  9.34D-01  1.09D+00  1.33D+00
                    CP:  1.17D+00  1.21D+00  9.73D-01  8.95D-01  8.56D-01
 E= -504.854162373334     Delta-E=       -0.000000000021 Rises=F Damp=F
 DIIS: error= 6.06D-08 at cycle  16 NSaved=  16.
 NSaved=16 IEnMin=16 EnMin= -504.854162373334     IErMin=16 ErrMin= 6.06D-08
 ErrMax= 6.06D-08 EMaxC= 1.00D-01 BMatC= 1.45D-11 BMatP= 5.48D-11
 IDIUse=1 WtCom= 1.00D+00 WtEn= 0.00D+00
 Coeff-Com:  0.664D-06-0.677D-06-0.234D-05-0.740D-05 0.116D-04-0.228D-04
 Coeff-Com: -0.115D-03-0.448D-03-0.264D-03 0.355D-02 0.794D-02-0.114D-01
 Coeff-Com: -0.477D-01-0.583D-01 0.350D+00 0.757D+00
 Coeff:      0.664D-06-0.677D-06-0.234D-05-0.740D-05 0.116D-04-0.228D-04
 Coeff:     -0.115D-03-0.448D-03-0.264D-03 0.355D-02 0.794D-02-0.114D-01
 Coeff:     -0.477D-01-0.583D-01 0.350D+00 0.757D+00
 Gap=     0.197 Goal=   None    Shift=    0.000
 Gap=     0.189 Goal=   None    Shift=    0.000
 RMSDP=2.92D-08 MaxDP=2.26D-06 DE=-2.07D-11 OVMax= 1.23D-06

 Cycle  17  Pass 1  IDiag  1:
 RMSU=  1.44D-08    CP:  6.69D-01  8.96D-01  7.35D-01  1.06D+00  1.14D+00
                    CP:  1.12D+00  9.56D-01  9.34D-01  1.09D+00  1.33D+00
                    CP:  1.17D+00  1.21D+00  9.76D-01  9.04D-01  9.28D-01
                    CP:  1.02D+00
 E= -504.854162373338     Delta-E=       -0.000000000004 Rises=F Damp=F
 DIIS: error= 1.91D-08 at cycle  17 NSaved=  17.
 NSaved=17 IEnMin=17 EnMin= -504.854162373338     IErMin=17 ErrMin= 1.91D-08
 ErrMax= 1.91D-08 EMaxC= 1.00D-01 BMatC= 9.76D-13 BMatP= 1.45D-11
 IDIUse=1 WtCom= 1.00D+00 WtEn= 0.00D+00
 Coeff-Com: -0.299D-06 0.346D-06-0.216D-05-0.194D-05 0.132D-04 0.160D-04
 Coeff-Com: -0.328D-04-0.210D-03-0.396D-03 0.738D-03 0.349D-02 0.172D-02
 Coeff-Com: -0.109D-01-0.544D-01-0.849D-02 0.182D+00 0.887D+00
 Coeff:     -0.299D-06 0.346D-06-0.216D-05-0.194D-05 0.132D-04 0.160D-04
 Coeff:     -0.328D-04-0.210D-03-0.396D-03 0.738D-03 0.349D-02 0.172D-02
 Coeff:     -0.109D-01-0.544D-01-0.849D-02 0.182D+00 0.887D+00
 Gap=     0.197 Goal=   None    Shift=    0.000
 Gap=     0.189 Goal=   None    Shift=    0.000
 RMSDP=1.50D-08 MaxDP=2.82D-06 DE=-4.09D-12 OVMax= 3.46D-07

 Cycle  18  Pass 1  IDiag  1:
 RMSU=  5.90D-09    CP:  6.69D-01  8.96D-01  7.35D-01  1.06D+00  1.14D+00
                    CP:  1.12D+00  9.56D-01  9.34D-01  1.09D+00  1.33D+00
                    CP:  1.17D+00  1.21D+00  9.75D-01  8.95D-01  9.51D-01
                    CP:  1.05D+00  8.19D-01
 E= -504.854162373340     Delta-E=       -0.000000000003 Rises=F Damp=F
 DIIS: error= 8.57D-09 at cycle  18 NSaved=  18.
 NSaved=18 IEnMin=18 EnMin= -504.854162373340     IErMin=18 ErrMin= 8.57D-09
 ErrMax= 8.57D-09 EMaxC= 1.00D-01 BMatC= 1.55D-13 BMatP= 9.76D-13
 IDIUse=1 WtCom= 1.00D+00 WtEn= 0.00D+00
 Coeff-Com: -0.240D-06 0.280D-06-0.580D-06 0.227D-06 0.428D-05 0.943D-05
 Coeff-Com:  0.230D-05-0.215D-04-0.101D-03-0.214D-03 0.202D-03 0.198D-02
 Coeff-Com:  0.260D-02-0.105D-01-0.454D-01-0.367D-01 0.248D+00 0.840D+00
 Coeff:     -0.240D-06 0.280D-06-0.580D-06 0.227D-06 0.428D-05 0.943D-05
 Coeff:      0.230D-05-0.215D-04-0.101D-03-0.214D-03 0.202D-03 0.198D-02
 Coeff:      0.260D-02-0.105D-01-0.454D-01-0.367D-01 0.248D+00 0.840D+00
 Gap=     0.197 Goal=   None    Shift=    0.000
 Gap=     0.189 Goal=   None    Shift=    0.000
 RMSDP=4.90D-09 MaxDP=7.54D-07 DE=-2.50D-12 OVMax= 1.20D-07

 SCF Done:  E(UB3LYP) =  -504.854162373     A.U. after   18 cycles
             Convg  =    0.4897D-08             -V/T =  2.0045
 <Sx>= 0.0000 <Sy>= 0.0000 <Sz>= 0.5000 <S**2>= 0.7542 S= 0.5021
 <L.S>= 0.000000000000E+00
 KE= 5.026002052145D+02 PE=-2.492091489618D+03 EE= 8.266215190568D+02
 Annihilation of the first spin contaminant:
 S**2 before annihilation     0.7542,   after     0.7500
 Leave Link  502 at Sun Feb  9 06:02:18 2014, MaxMem= 4026531840 cpu:    2197.8
 (Enter /usr/caen/gaussian-09revc/g09/l601.exe)
 Copying SCF densities to generalized density rwf, IOpCl= 1 IROHF=0.

 **********************************************************************

            Population analysis using the SCF density.

 **********************************************************************

 Orbital symmetries:
 Alpha Orbitals:
       Occupied  (A) (A) (A) (A) (A) (A) (A) (A) (A) (A) (A) (A)
                 (A) (A) (A) (A) (A) (A) (A) (A) (A) (A) (A) (A)
                 (A) (A) (A) (A) (A) (A) (A) (A) (A) (A) (A) (A)
                 (A) (A) (A) (A) (A) (A) (A) (A) (A)
       Virtual   (A) (A) (A) (A) (A) (A) (A) (A) (A) (A) (A) (A)
                 (A) (A) (A) (A) (A) (A) (A) (A) (A) (A) (A) (A)
                 (A) (A) (A) (A) (A) (A) (A) (A) (A) (A) (A) (A)
                 (A) (A) (A) (A) (A) (A) (A) (A) (A) (A) (A) (A)
                 (A) (A) (A) (A) (A) (A) (A) (A) (A) (A) (A) (A)
                 (A) (A) (A) (A) (A) (A) (A) (A) (A) (A) (A) (A)
                 (A) (A) (A) (A) (A) (A) (A) (A) (A) (A) (A) (A)
                 (A) (A) (A) (A) (A) (A) (A) (A) (A) (A) (A) (A)
                 (A) (A) (A) (A) (A) (A) (A) (A) (A) (A) (A) (A)
                 (A) (A) (A) (A) (A) (A) (A) (A) (A) (A) (A) (A)
                 (A) (A) (A) (A) (A) (A) (A) (A) (A) (A) (A) (A)
                 (A) (A) (A) (A) (A) (A) (A) (A) (A) (A) (A) (A)
                 (A) (A) (A) (A) (A) (A) (A) (A) (A) (A) (A) (A)
                 (A) (A) (A) (A) (A) (A) (A) (A) (A) (A) (A) (A)
                 (A) (A) (A) (A) (A) (A) (A) (A) (A) (A) (A) (A)
                 (A) (A) (A) (A) (A) (A) (A) (A) (A) (A) (A) (A)
                 (A) (A) (A) (A) (A) (A) (A) (A) (A) (A) (A) (A)
                 (A) (A) (A) (A) (A) (A) (A) (A) (A) (A) (A) (A)
                 (A) (A) (A) (A) (A) (A) (A) (A) (A) (A) (A) (A)
                 (A) (A) (A) (A) (A) (A) (A) (A) (A) (A) (A) (A)
                 (A) (A) (A) (A) (A) (A) (A) (A) (A) (A) (A) (A)
                 (A) (A) (A) (A) (A) (A) (A) (A) (A) (A) (A) (A)
                 (A) (A) (A) (A) (A) (A) (A) (A) (A) (A) (A) (A)
                 (A) (A) (A) (A) (A) (A) (A) (A) (A) (A) (A) (A)
                 (A) (A) (A) (A) (A) (A) (A) (A) (A) (A) (A) (A)
                 (A) (A) (A) (A) (A) (A) (A) (A) (A) (A) (A) (A)
                 (A) (A) (A) (A) (A) (A) (A) (A) (A) (A) (A) (A)
                 (A) (A) (A) (A) (A) (A)
 Beta  Orbitals:
       Occupied  (A) (A) (A) (A) (A) (A) (A) (A) (A) (A) (A) (A)
                 (A) (A) (A) (A) (A) (A) (A) (A) (A) (A) (A) (A)
                 (A) (A) (A) (A) (A) (A) (A) (A) (A) (A) (A) (A)
                 (A) (A) (A) (A) (A) (A) (A) (A)
       Virtual   (A) (A) (A) (A) (A) (A) (A) (A) (A) (A) (A) (A)
                 (A) (A) (A) (A) (A) (A) (A) (A) (A) (A) (A) (A)
                 (A) (A) (A) (A) (A) (A) (A) (A) (A) (A) (A) (A)
                 (A) (A) (A) (A) (A) (A) (A) (A) (A) (A) (A) (A)
                 (A) (A) (A) (A) (A) (A) (A) (A) (A) (A) (A) (A)
                 (A) (A) (A) (A) (A) (A) (A) (A) (A) (A) (A) (A)
                 (A) (A) (A) (A) (A) (A) (A) (A) (A) (A) (A) (A)
                 (A) (A) (A) (A) (A) (A) (A) (A) (A) (A) (A) (A)
                 (A) (A) (A) (A) (A) (A) (A) (A) (A) (A) (A) (A)
                 (A) (A) (A) (A) (A) (A) (A) (A) (A) (A) (A) (A)
                 (A) (A) (A) (A) (A) (A) (A) (A) (A) (A) (A) (A)
                 (A) (A) (A) (A) (A) (A) (A) (A) (A) (A) (A) (A)
                 (A) (A) (A) (A) (A) (A) (A) (A) (A) (A) (A) (A)
                 (A) (A) (A) (A) (A) (A) (A) (A) (A) (A) (A) (A)
                 (A) (A) (A) (A) (A) (A) (A) (A) (A) (A) (A) (A)
                 (A) (A) (A) (A) (A) (A) (A) (A) (A) (A) (A) (A)
                 (A) (A) (A) (A) (A) (A) (A) (A) (A) (A) (A) (A)
                 (A) (A) (A) (A) (A) (A) (A) (A) (A) (A) (A) (A)
                 (A) (A) (A) (A) (A) (A) (A) (A) (A) (A) (A) (A)
                 (A) (A) (A) (A) (A) (A) (A) (A) (A) (A) (A) (A)
                 (A) (A) (A) (A) (A) (A) (A) (A) (A) (A) (A) (A)
                 (A) (A) (A) (A) (A) (A) (A) (A) (A) (A) (A) (A)
                 (A) (A) (A) (A) (A) (A) (A) (A) (A) (A) (A) (A)
                 (A) (A) (A) (A) (A) (A) (A) (A) (A) (A) (A) (A)
                 (A) (A) (A) (A) (A) (A) (A) (A) (A) (A) (A) (A)
                 (A) (A) (A) (A) (A) (A) (A) (A) (A) (A) (A) (A)
                 (A) (A) (A) (A) (A) (A) (A) (A) (A) (A) (A) (A)
                 (A) (A) (A) (A) (A) (A) (A)
 The electronic state is 2-A.
 Alpha  occ. eigenvalues --  -19.17628 -19.17509 -10.22648 -10.18740 -10.18288
 Alpha  occ. eigenvalues --  -10.17769 -10.17022 -10.16591 -10.16550 -10.15827
 Alpha  occ. eigenvalues --  -10.15804  -1.11308  -0.91848  -0.82047  -0.80623
 Alpha  occ. eigenvalues --   -0.75253  -0.69347  -0.68613  -0.67792  -0.60235
 Alpha  occ. eigenvalues --   -0.57433  -0.56294  -0.53652  -0.48387  -0.47229
 Alpha  occ. eigenvalues --   -0.45914  -0.45441  -0.44517  -0.43352  -0.42019
 Alpha  occ. eigenvalues --   -0.40426  -0.39394  -0.38972  -0.38760  -0.37746
 Alpha  occ. eigenvalues --   -0.36980  -0.36051  -0.35118  -0.33912  -0.33683
 Alpha  occ. eigenvalues --   -0.32977  -0.32568  -0.30792  -0.26706  -0.20953
 Alpha virt. eigenvalues --   -0.01265  -0.00889   0.00023   0.00491   0.01000
 Alpha virt. eigenvalues --    0.01865   0.02293   0.02396   0.03323   0.03954
 Alpha virt. eigenvalues --    0.04301   0.04775   0.04827   0.05540   0.06134
 Alpha virt. eigenvalues --    0.06809   0.07047   0.07896   0.08283   0.08390
 Alpha virt. eigenvalues --    0.08749   0.08990   0.10092   0.10202   0.10714
 Alpha virt. eigenvalues --    0.11101   0.11385   0.11931   0.12260   0.12714
 Alpha virt. eigenvalues --    0.12989   0.13212   0.13609   0.14053   0.14151
 Alpha virt. eigenvalues --    0.14372   0.14590   0.15015   0.15147   0.15270
 Alpha virt. eigenvalues --    0.15737   0.15895   0.16509   0.16964   0.17454
 Alpha virt. eigenvalues --    0.17748   0.17840   0.17945   0.18361   0.18900
 Alpha virt. eigenvalues --    0.19442   0.19730   0.20219   0.20569   0.21148
 Alpha virt. eigenvalues --    0.21449   0.21736   0.22186   0.22783   0.22979
 Alpha virt. eigenvalues --    0.23542   0.23952   0.24389   0.24963   0.25710
 Alpha virt. eigenvalues --    0.26290   0.26740   0.27201   0.27447   0.28399
 Alpha virt. eigenvalues --    0.28636   0.28997   0.29549   0.30029   0.30699
 Alpha virt. eigenvalues --    0.31058   0.31912   0.32834   0.33491   0.33813
 Alpha virt. eigenvalues --    0.34870   0.35169   0.35684   0.36793   0.37145
 Alpha virt. eigenvalues --    0.37836   0.38693   0.40110   0.40340   0.41594
 Alpha virt. eigenvalues --    0.41865   0.42988   0.44399   0.45773   0.47568
 Alpha virt. eigenvalues --    0.49274   0.50802   0.51081   0.51713   0.52345
 Alpha virt. eigenvalues --    0.54071   0.54464   0.55264   0.56542   0.56789
 Alpha virt. eigenvalues --    0.57592   0.58852   0.60364   0.61512   0.61991
 Alpha virt. eigenvalues --    0.63824   0.64802   0.65262   0.66110   0.66163
 Alpha virt. eigenvalues --    0.66587   0.67377   0.67825   0.68702   0.69323
 Alpha virt. eigenvalues --    0.70269   0.71096   0.72144   0.72707   0.73482
 Alpha virt. eigenvalues --    0.74202   0.74889   0.75655   0.76482   0.77285
 Alpha virt. eigenvalues --    0.78172   0.79105   0.79678   0.80229   0.81578
 Alpha virt. eigenvalues --    0.82156   0.83402   0.87548   0.88881   0.92281
 Alpha virt. eigenvalues --    0.93962   0.95950   0.97713   0.99549   1.01146
 Alpha virt. eigenvalues --    1.02373   1.04226   1.05016   1.06518   1.09473
 Alpha virt. eigenvalues --    1.09936   1.14440   1.16080   1.16226   1.17240
 Alpha virt. eigenvalues --    1.19437   1.19652   1.24163   1.25413   1.26759
 Alpha virt. eigenvalues --    1.28253   1.29847   1.35566   1.39404   1.40997
 Alpha virt. eigenvalues --    1.42620   1.44406   1.44939   1.46181   1.46371
 Alpha virt. eigenvalues --    1.46997   1.48398   1.49163   1.50626   1.51235
 Alpha virt. eigenvalues --    1.53015   1.54364   1.56546   1.57467   1.57697
 Alpha virt. eigenvalues --    1.58639   1.59205   1.59827   1.60828   1.61142
 Alpha virt. eigenvalues --    1.62191   1.62883   1.63745   1.64279   1.65124
 Alpha virt. eigenvalues --    1.65774   1.67097   1.67980   1.70696   1.71270
 Alpha virt. eigenvalues --    1.72812   1.73347   1.74633   1.76439   1.77906
 Alpha virt. eigenvalues --    1.78798   1.79243   1.80989   1.82186   1.83149
 Alpha virt. eigenvalues --    1.83579   1.84396   1.87424   1.89841   1.91688
 Alpha virt. eigenvalues --    1.95841   1.98175   1.99465   2.02583   2.03033
 Alpha virt. eigenvalues --    2.04028   2.05190   2.05784   2.07911   2.10891
 Alpha virt. eigenvalues --    2.12024   2.13341   2.13502   2.15327   2.17245
 Alpha virt. eigenvalues --    2.18613   2.20578   2.24910   2.27187   2.29454
 Alpha virt. eigenvalues --    2.33007   2.33903   2.34780   2.36818   2.39394
 Alpha virt. eigenvalues --    2.39864   2.44618   2.46576   2.47181   2.49348
 Alpha virt. eigenvalues --    2.49714   2.50392   2.50868   2.51785   2.52801
 Alpha virt. eigenvalues --    2.53169   2.54268   2.55093   2.55864   2.56787
 Alpha virt. eigenvalues --    2.57650   2.59112   2.60373   2.61378   2.62100
 Alpha virt. eigenvalues --    2.64513   2.65331   2.67757   2.69556   2.69785
 Alpha virt. eigenvalues --    2.71767   2.72089   2.73315   2.75592   2.76118
 Alpha virt. eigenvalues --    2.76610   2.79255   2.79994   2.81650   2.82011
 Alpha virt. eigenvalues --    2.85021   2.87318   2.89023   2.93199   2.93771
 Alpha virt. eigenvalues --    2.96219   2.96735   2.98979   3.01987   3.04933
 Alpha virt. eigenvalues --    3.05484   3.08041   3.10398   3.12449   3.15567
 Alpha virt. eigenvalues --    3.17505   3.19012   3.21429   3.27336   3.33275
 Alpha virt. eigenvalues --    3.39192   3.50324   3.54498   3.71343   3.77449
 Alpha virt. eigenvalues --    3.78001   3.78465   3.79939   3.81076   3.82921
 Alpha virt. eigenvalues --    3.83398   3.83678   3.85635   3.88441   3.93514
 Alpha virt. eigenvalues --    3.98220   4.02433   4.07828   4.19222   4.28405
 Alpha virt. eigenvalues --    4.30325   4.31458   4.42247   4.89994   5.03998
 Alpha virt. eigenvalues --    5.12971   5.35982   5.50403   5.66934  23.79483
 Alpha virt. eigenvalues --   23.83119  23.83563  23.87245  23.93807  23.97565
 Alpha virt. eigenvalues --   23.97911  23.98398  23.98971  49.86651  49.90874
  Beta  occ. eigenvalues --  -19.17454 -19.17440 -10.22727 -10.18284 -10.17745
  Beta  occ. eigenvalues --  -10.17396 -10.17094 -10.16591 -10.16533 -10.15819
  Beta  occ. eigenvalues --  -10.15805  -1.11014  -0.91444  -0.81556  -0.80559
  Beta  occ. eigenvalues --   -0.73931  -0.69306  -0.68584  -0.67603  -0.59402
  Beta  occ. eigenvalues --   -0.56773  -0.56075  -0.53295  -0.48100  -0.46883
  Beta  occ. eigenvalues --   -0.45667  -0.45127  -0.44168  -0.43145  -0.41847
  Beta  occ. eigenvalues --   -0.40334  -0.39190  -0.38863  -0.38650  -0.37473
  Beta  occ. eigenvalues --   -0.36506  -0.35862  -0.35075  -0.33800  -0.33386
  Beta  occ. eigenvalues --   -0.32845  -0.32417  -0.30444  -0.26506
  Beta virt. eigenvalues --   -0.07617  -0.01184  -0.00774   0.00084   0.00518
  Beta virt. eigenvalues --    0.01425   0.02036   0.02297   0.02452   0.03348
  Beta virt. eigenvalues --    0.03997   0.04319   0.04798   0.04888   0.05587
  Beta virt. eigenvalues --    0.06158   0.06851   0.07080   0.07983   0.08389
  Beta virt. eigenvalues --    0.08444   0.08811   0.09123   0.10134   0.10242
  Beta virt. eigenvalues --    0.10733   0.11157   0.11466   0.11952   0.12329
  Beta virt. eigenvalues --    0.12811   0.13054   0.13266   0.13644   0.14075
  Beta virt. eigenvalues --    0.14165   0.14454   0.14644   0.15068   0.15165
  Beta virt. eigenvalues --    0.15311   0.15813   0.16110   0.16575   0.17085
  Beta virt. eigenvalues --    0.17589   0.17891   0.17919   0.18062   0.18447
  Beta virt. eigenvalues --    0.18963   0.19546   0.19913   0.20261   0.20660
  Beta virt. eigenvalues --    0.21186   0.21584   0.21990   0.22319   0.22889
  Beta virt. eigenvalues --    0.23096   0.23638   0.24144   0.24471   0.25062
  Beta virt. eigenvalues --    0.25852   0.26427   0.26783   0.27356   0.27538
  Beta virt. eigenvalues --    0.28461   0.28869   0.29216   0.29675   0.30625
  Beta virt. eigenvalues --    0.30979   0.31233   0.32000   0.32970   0.33632
  Beta virt. eigenvalues --    0.33930   0.34980   0.35261   0.35867   0.36875
  Beta virt. eigenvalues --    0.37267   0.38020   0.38908   0.40181   0.40403
  Beta virt. eigenvalues --    0.41636   0.41919   0.43239   0.44467   0.45798
  Beta virt. eigenvalues --    0.47725   0.49320   0.50984   0.51403   0.51820
  Beta virt. eigenvalues --    0.52515   0.54189   0.54658   0.55433   0.56622
  Beta virt. eigenvalues --    0.57108   0.57642   0.59108   0.60564   0.62098
  Beta virt. eigenvalues --    0.62507   0.64128   0.65237   0.65386   0.66136
  Beta virt. eigenvalues --    0.66600   0.67200   0.67484   0.68119   0.68811
  Beta virt. eigenvalues --    0.69412   0.70387   0.71268   0.72315   0.72901
  Beta virt. eigenvalues --    0.73713   0.74345   0.75224   0.75754   0.76748
  Beta virt. eigenvalues --    0.77360   0.78249   0.79502   0.80071   0.80561
  Beta virt. eigenvalues --    0.81680   0.82337   0.83784   0.87745   0.89102
  Beta virt. eigenvalues --    0.92863   0.95334   0.96393   0.98618   0.99719
  Beta virt. eigenvalues --    1.01256   1.02455   1.04401   1.05470   1.06684
  Beta virt. eigenvalues --    1.09582   1.10046   1.14624   1.16314   1.16448
  Beta virt. eigenvalues --    1.17379   1.19562   1.19732   1.24361   1.25615
  Beta virt. eigenvalues --    1.27092   1.28431   1.30202   1.35737   1.40292
  Beta virt. eigenvalues --    1.41569   1.42668   1.44510   1.45179   1.46214
  Beta virt. eigenvalues --    1.46504   1.47021   1.48450   1.49467   1.51004
  Beta virt. eigenvalues --    1.51597   1.53136   1.54913   1.56783   1.57652
  Beta virt. eigenvalues --    1.57873   1.58801   1.59307   1.60191   1.60933
  Beta virt. eigenvalues --    1.61248   1.62485   1.63278   1.63786   1.64635
  Beta virt. eigenvalues --    1.65521   1.66100   1.67810   1.68229   1.70936
  Beta virt. eigenvalues --    1.71468   1.72948   1.73942   1.74879   1.76595
  Beta virt. eigenvalues --    1.78218   1.79199   1.79421   1.81038   1.82288
  Beta virt. eigenvalues --    1.83356   1.83686   1.84946   1.87616   1.90500
  Beta virt. eigenvalues --    1.92248   1.96063   1.98403   2.00182   2.02818
  Beta virt. eigenvalues --    2.03626   2.04693   2.05612   2.05937   2.08004
  Beta virt. eigenvalues --    2.11085   2.12230   2.13510   2.13798   2.15452
  Beta virt. eigenvalues --    2.17515   2.18709   2.21029   2.25301   2.27555
  Beta virt. eigenvalues --    2.29993   2.33256   2.34099   2.35050   2.37090
  Beta virt. eigenvalues --    2.39486   2.40225   2.44877   2.46623   2.47235
  Beta virt. eigenvalues --    2.49390   2.49823   2.50514   2.50979   2.51890
  Beta virt. eigenvalues --    2.52945   2.53309   2.54406   2.55195   2.55975
  Beta virt. eigenvalues --    2.56845   2.57815   2.59251   2.60526   2.61469
  Beta virt. eigenvalues --    2.62167   2.64715   2.65496   2.67966   2.69676
  Beta virt. eigenvalues --    2.70195   2.71869   2.72404   2.73461   2.75742
  Beta virt. eigenvalues --    2.76311   2.76705   2.79467   2.80299   2.81946
  Beta virt. eigenvalues --    2.82395   2.85789   2.87418   2.89165   2.93279
  Beta virt. eigenvalues --    2.95073   2.96424   2.97320   2.99178   3.02486
  Beta virt. eigenvalues --    3.05656   3.05907   3.09001   3.10631   3.12795
  Beta virt. eigenvalues --    3.15784   3.17686   3.19293   3.21603   3.27506
  Beta virt. eigenvalues --    3.33622   3.39701   3.50424   3.54940   3.71495
  Beta virt. eigenvalues --    3.77650   3.78012   3.78507   3.79956   3.81172
  Beta virt. eigenvalues --    3.82948   3.83413   3.83715   3.85756   3.88562
  Beta virt. eigenvalues --    3.93884   3.98495   4.02520   4.08566   4.19813
  Beta virt. eigenvalues --    4.28463   4.30345   4.31633   4.42967   4.90140
  Beta virt. eigenvalues --    5.04086   5.13154   5.36291   5.50561   5.67104
  Beta virt. eigenvalues --   23.79796  23.83219  23.83648  23.88195  23.93764
  Beta virt. eigenvalues --   23.97572  23.97938  23.98404  23.98983  49.86725
  Beta virt. eigenvalues --   49.91055
          Condensed to atoms (all electrons):
              1          2          3          4          5          6
     1  C    6.000389   0.318684   0.355149   0.444299  -0.467969  -0.029148
     2  H    0.318684   0.612169  -0.037473  -0.034287  -0.008089  -0.008294
     3  H    0.355149  -0.037473   0.553832  -0.047601   0.082160   0.012198
     4  H    0.444299  -0.034287  -0.047601   0.600258  -0.163374  -0.016760
     5  C   -0.467969  -0.008089   0.082160  -0.163374   9.025632   0.561144
     6  H   -0.029148  -0.008294   0.012198  -0.016760   0.561144   0.571721
     7  C   -0.295058   0.068149  -0.039912   0.008184   0.371798  -0.193451
     8  H    0.006413   0.002724   0.001704   0.000014  -0.120737   0.001749
     9  C   -0.083414  -0.007642  -0.001756   0.001173  -0.311513   0.033258
    10  H    0.002708   0.000304   0.000142   0.000135  -0.073507  -0.002273
    11  H    0.002038   0.000651  -0.001049   0.000446   0.030419  -0.001101
    12  C    0.012597  -0.001722  -0.002810   0.002127  -0.079124  -0.006082
    13  H   -0.000389  -0.000228   0.000078  -0.000098  -0.002736   0.000142
    14  C   -0.000155  -0.000167  -0.000224   0.000089  -0.015493  -0.000218
    15  H   -0.000068  -0.000017  -0.000004   0.000005   0.000929   0.000040
    16  H    0.000012  -0.000008  -0.000011   0.000005  -0.000466   0.000050
    17  H   -0.000218   0.000026   0.000036  -0.000024   0.000215  -0.000087
    18  C   -0.281154   0.032486  -0.044150   0.015345  -0.264034  -0.144571
    19  H   -0.000721  -0.000382   0.011559  -0.000432   0.039332   0.010522
    20  H   -0.009523  -0.000091   0.004394  -0.002127  -0.007126  -0.006205
    21  H    0.009174  -0.002802  -0.006287   0.005334  -0.121141  -0.019755
    22  C    0.000750  -0.000071   0.000695  -0.000278   0.028616   0.002852
    23  H    0.000149  -0.000054   0.000015   0.000016   0.002147   0.000284
    24  H   -0.000074   0.000074   0.000015  -0.000039  -0.003742  -0.000737
    25  H    0.000700   0.000157  -0.000074  -0.000025   0.011234   0.002221
    26  C    0.538168  -0.072040  -0.000073   0.034604  -2.769657   0.058131
    27  H    0.052309  -0.001159   0.007473  -0.001463  -0.078377   0.019021
    28  O    0.021130   0.026465  -0.003223  -0.000941  -0.236454  -0.021496
    29  O    0.040902  -0.017580  -0.016441   0.010755  -0.020962  -0.002016
    30  H    0.020973   0.000250  -0.003005   0.000809  -0.019119   0.002102
              7          8          9         10         11         12
     1  C   -0.295058   0.006413  -0.083414   0.002708   0.002038   0.012597
     2  H    0.068149   0.002724  -0.007642   0.000304   0.000651  -0.001722
     3  H   -0.039912   0.001704  -0.001756   0.000142  -0.001049  -0.002810
     4  H    0.008184   0.000014   0.001173   0.000135   0.000446   0.002127
     5  C    0.371798  -0.120737  -0.311513  -0.073507   0.030419  -0.079124
     6  H   -0.193451   0.001749   0.033258  -0.002273  -0.001101  -0.006082
     7  C   12.008584   0.324156  -2.708244  -0.184225   0.156436  -0.066145
     8  H    0.324156   0.538403  -0.036399   0.016807   0.001338  -0.030108
     9  C   -2.708244  -0.036399  10.006746   0.503316   0.327415  -1.087219
    10  H   -0.184225   0.016807   0.503316   0.584672  -0.060075  -0.000146
    11  H    0.156436   0.001338   0.327415  -0.060075   0.601933  -0.107865
    12  C   -0.066145  -0.030108  -1.087219  -0.000146  -0.107865   6.572943
    13  H   -0.091541   0.005048  -0.088051   0.016114  -0.019249   0.555485
    14  C   -0.325468  -0.005373   0.456849   0.022388  -0.000135  -0.128897
    15  H   -0.009197   0.000738  -0.072724   0.003213  -0.001277   0.072563
    16  H   -0.007836  -0.000308   0.043158  -0.002134   0.000204  -0.064343
    17  H    0.009016   0.000786  -0.017282   0.004160   0.000958  -0.040113
    18  C    0.905309  -0.018604   0.141638   0.001209   0.003790   0.011133
    19  H   -0.002185   0.003392  -0.001800  -0.001318   0.000215  -0.003576
    20  H    0.003255  -0.005148  -0.003305  -0.000467   0.000260  -0.002243
    21  H    0.086571  -0.003641  -0.008864   0.003226  -0.000820   0.015449
    22  C    0.159279  -0.021523  -0.070343  -0.059261   0.015055   0.061393
    23  H   -0.015559  -0.004132   0.040362  -0.005808  -0.002203  -0.078778
    24  H    0.030514   0.004075  -0.083015   0.008659  -0.000297   0.041453
    25  H    0.070768  -0.005258  -0.038146   0.000087   0.004310  -0.076332
    26  C   -4.478767   0.123652   0.295518   0.055114  -0.155244  -0.102784
    27  H   -0.397541   0.017003  -0.074211   0.014067  -0.005557  -0.018251
    28  O   -0.091909  -0.000094  -0.119977  -0.010287   0.024199   0.017339
    29  O    0.025418  -0.002086   0.103115   0.000616  -0.006769   0.006475
    30  H   -0.012305  -0.000127   0.009791   0.000105   0.000690  -0.000065
             13         14         15         16         17         18
     1  C   -0.000389  -0.000155  -0.000068   0.000012  -0.000218  -0.281154
     2  H   -0.000228  -0.000167  -0.000017  -0.000008   0.000026   0.032486
     3  H    0.000078  -0.000224  -0.000004  -0.000011   0.000036  -0.044150
     4  H   -0.000098   0.000089   0.000005   0.000005  -0.000024   0.015345
     5  C   -0.002736  -0.015493   0.000929  -0.000466   0.000215  -0.264034
     6  H    0.000142  -0.000218   0.000040   0.000050  -0.000087  -0.144571
     7  C   -0.091541  -0.325468  -0.009197  -0.007836   0.009016   0.905309
     8  H    0.005048  -0.005373   0.000738  -0.000308   0.000786  -0.018604
     9  C   -0.088051   0.456849  -0.072724   0.043158  -0.017282   0.141638
    10  H    0.016114   0.022388   0.003213  -0.002134   0.004160   0.001209
    11  H   -0.019249  -0.000135  -0.001277   0.000204   0.000958   0.003790
    12  C    0.555485  -0.128897   0.072563  -0.064343  -0.040113   0.011133
    13  H    0.615084  -0.039421   0.014875  -0.010439  -0.010918  -0.001267
    14  C   -0.039421   5.739399   0.390255   0.390246   0.396562   0.005833
    15  H    0.014875   0.390255   0.560623  -0.032708  -0.043371  -0.000004
    16  H   -0.010439   0.390246  -0.032708   0.565717  -0.023925   0.000067
    17  H   -0.010918   0.396562  -0.043371  -0.023925   0.576239  -0.000055
    18  C   -0.001267   0.005833  -0.000004   0.000067  -0.000055   5.993176
    19  H   -0.000756  -0.000045  -0.000022   0.000003   0.000058   0.377575
    20  H    0.000274  -0.000213  -0.000002  -0.000002  -0.000002   0.381353
    21  H    0.002979   0.001516   0.000077  -0.000130  -0.000001   0.451179
    22  C   -0.102220  -0.190630  -0.026358  -0.011320   0.015840  -0.014656
    23  H   -0.002740  -0.006764   0.004153   0.000990   0.000575  -0.000644
    24  H    0.011311  -0.007409   0.009128   0.000243  -0.001500   0.000576
    25  H   -0.019890   0.011220  -0.005843   0.002935  -0.002763   0.003994
    26  C    0.032093  -0.063575  -0.002260  -0.000455   0.001329  -0.799398
    27  H    0.000491  -0.001860   0.000976  -0.000152  -0.000711  -0.123641
    28  O   -0.001218  -0.000329   0.000003   0.000069  -0.000912   0.053254
    29  O    0.000456   0.001175   0.000106   0.000073   0.000053   0.012372
    30  H    0.000057   0.000182  -0.000001   0.000002   0.000009  -0.002101
             19         20         21         22         23         24
     1  C   -0.000721  -0.009523   0.009174   0.000750   0.000149  -0.000074
     2  H   -0.000382  -0.000091  -0.002802  -0.000071  -0.000054   0.000074
     3  H    0.011559   0.004394  -0.006287   0.000695   0.000015   0.000015
     4  H   -0.000432  -0.002127   0.005334  -0.000278   0.000016  -0.000039
     5  C    0.039332  -0.007126  -0.121141   0.028616   0.002147  -0.003742
     6  H    0.010522  -0.006205  -0.019755   0.002852   0.000284  -0.000737
     7  C   -0.002185   0.003255   0.086571   0.159279  -0.015559   0.030514
     8  H    0.003392  -0.005148  -0.003641  -0.021523  -0.004132   0.004075
     9  C   -0.001800  -0.003305  -0.008864  -0.070343   0.040362  -0.083015
    10  H   -0.001318  -0.000467   0.003226  -0.059261  -0.005808   0.008659
    11  H    0.000215   0.000260  -0.000820   0.015055  -0.002203  -0.000297
    12  C   -0.003576  -0.002243   0.015449   0.061393  -0.078778   0.041453
    13  H   -0.000756   0.000274   0.002979  -0.102220  -0.002740   0.011311
    14  C   -0.000045  -0.000213   0.001516  -0.190630  -0.006764  -0.007409
    15  H   -0.000022  -0.000002   0.000077  -0.026358   0.004153   0.009128
    16  H    0.000003  -0.000002  -0.000130  -0.011320   0.000990   0.000243
    17  H    0.000058  -0.000002  -0.000001   0.015840   0.000575  -0.001500
    18  C    0.377575   0.381353   0.451179  -0.014656  -0.000644   0.000576
    19  H    0.557080  -0.034528  -0.050034   0.001249  -0.000039  -0.001030
    20  H   -0.034528   0.566027  -0.020644   0.000533   0.000079   0.000144
    21  H   -0.050034  -0.020644   0.583248  -0.004533  -0.000480   0.003856
    22  C    0.001249   0.000533  -0.004533   5.552153   0.413829   0.377497
    23  H   -0.000039   0.000079  -0.000480   0.413829   0.566253  -0.031458
    24  H   -0.001030   0.000144   0.003856   0.377497  -0.031458   0.562216
    25  H    0.003872  -0.000874  -0.007859   0.418444  -0.027510  -0.051670
    26  C   -0.058071   0.003162  -0.066024   0.108075   0.006598  -0.008677
    27  H    0.006030  -0.008578  -0.002401  -0.004791  -0.000059  -0.000818
    28  O   -0.001049  -0.002305   0.002101  -0.000053   0.000044   0.000013
    29  O    0.000415  -0.000344   0.000078  -0.000126   0.000020  -0.000059
    30  H    0.000711  -0.000365  -0.000020  -0.000118  -0.000007   0.000024
             25         26         27         28         29         30
     1  C    0.000700   0.538168   0.052309   0.021130   0.040902   0.020973
     2  H    0.000157  -0.072040  -0.001159   0.026465  -0.017580   0.000250
     3  H   -0.000074  -0.000073   0.007473  -0.003223  -0.016441  -0.003005
     4  H   -0.000025   0.034604  -0.001463  -0.000941   0.010755   0.000809
     5  C    0.011234  -2.769657  -0.078377  -0.236454  -0.020962  -0.019119
     6  H    0.002221   0.058131   0.019021  -0.021496  -0.002016   0.002102
     7  C    0.070768  -4.478767  -0.397541  -0.091909   0.025418  -0.012305
     8  H   -0.005258   0.123652   0.017003  -0.000094  -0.002086  -0.000127
     9  C   -0.038146   0.295518  -0.074211  -0.119977   0.103115   0.009791
    10  H    0.000087   0.055114   0.014067  -0.010287   0.000616   0.000105
    11  H    0.004310  -0.155244  -0.005557   0.024199  -0.006769   0.000690
    12  C   -0.076332  -0.102784  -0.018251   0.017339   0.006475  -0.000065
    13  H   -0.019890   0.032093   0.000491  -0.001218   0.000456   0.000057
    14  C    0.011220  -0.063575  -0.001860  -0.000329   0.001175   0.000182
    15  H   -0.005843  -0.002260   0.000976   0.000003   0.000106  -0.000001
    16  H    0.002935  -0.000455  -0.000152   0.000069   0.000073   0.000002
    17  H   -0.002763   0.001329  -0.000711  -0.000912   0.000053   0.000009
    18  C    0.003994  -0.799398  -0.123641   0.053254   0.012372  -0.002101
    19  H    0.003872  -0.058071   0.006030  -0.001049   0.000415   0.000711
    20  H   -0.000874   0.003162  -0.008578  -0.002305  -0.000344  -0.000365
    21  H   -0.007859  -0.066024  -0.002401   0.002101   0.000078  -0.000020
    22  C    0.418444   0.108075  -0.004791  -0.000053  -0.000126  -0.000118
    23  H   -0.027510   0.006598  -0.000059   0.000044   0.000020  -0.000007
    24  H   -0.051670  -0.008677  -0.000818   0.000013  -0.000059   0.000024
    25  H    0.601082  -0.032122   0.001224   0.000933  -0.000199   0.000037
    26  C   -0.032122  13.137154   0.855128   0.324212  -0.041190   0.006137
    27  H    0.001224   0.855128   0.600675  -0.036309  -0.045784  -0.005998
    28  O    0.000933   0.324212  -0.036309   8.084890   0.012513  -0.029081
    29  O   -0.000199  -0.041190  -0.045784   0.012513   7.895839   0.222967
    30  H    0.000037   0.006137  -0.005998  -0.029081   0.222967   0.567646
 Mulliken atomic charges:
              1
     1  C   -0.658654
     2  H    0.129966
     3  H    0.174641
     4  H    0.143852
     5  C    0.609995
     6  H    0.176756
     7  C    0.691907
     8  H    0.205532
     9  C   -1.148433
    10  H    0.162459
    11  H    0.191283
    12  C    0.527645
    13  H    0.136675
    14  C   -0.629339
    15  H    0.136175
    16  H    0.150463
    17  H    0.136020
    18  C   -0.696010
    19  H    0.143974
    20  H    0.144610
    21  H    0.150646
    22  C   -0.649982
    23  H    0.140723
    24  H    0.140726
    25  H    0.135346
    26  C   -0.928738
    27  H    0.233264
    28  O   -0.011527
    29  O   -0.179792
    30  H    0.239816
 Sum of Mulliken atomic charges =   0.00000
 Mulliken charges with hydrogens summed into heavy atoms:
              1
     1  C   -0.210194
     5  C    0.786751
     7  C    0.897439
     9  C   -0.794691
    12  C    0.664320
    14  C   -0.206682
    18  C   -0.256779
    22  C   -0.233187
    26  C   -0.695474
    28  O   -0.011527
    29  O    0.060024
 Sum of Mulliken charges with hydrogens summed into heavy atoms =   0.00000
          Atomic-Atomic Spin Densities.
              1          2          3          4          5          6
     1  C   -0.004064  -0.000309  -0.000237   0.000224   0.027317  -0.001492
     2  H   -0.000309   0.000274   0.000140  -0.000136  -0.004110   0.000199
     3  H   -0.000237   0.000140  -0.000093   0.000070  -0.001340   0.000031
     4  H    0.000224  -0.000136   0.000070   0.000081   0.000407  -0.000062
     5  C    0.027317  -0.004110  -0.001340   0.000407   0.268788  -0.016657
     6  H   -0.001492   0.000199   0.000031  -0.000062  -0.016657  -0.000984
     7  C    0.037092  -0.001249  -0.001638   0.000247   0.381641  -0.023093
     8  H   -0.001411   0.000105   0.000114   0.000009  -0.021242   0.000782
     9  C   -0.008316   0.000490   0.000633  -0.000241  -0.133457   0.007435
    10  H   -0.000021   0.000051   0.000152  -0.000019  -0.019377   0.000491
    11  H    0.000377  -0.000090  -0.000200   0.000061   0.038120  -0.001292
    12  C    0.000885  -0.000014   0.000173  -0.000004  -0.020631   0.000568
    13  H   -0.000034   0.000008   0.000020  -0.000009  -0.005338   0.000214
    14  C   -0.000024   0.000012   0.000001  -0.000002  -0.000683   0.000079
    15  H   -0.000012  -0.000001   0.000000   0.000000  -0.000123   0.000008
    16  H    0.000001   0.000000   0.000001   0.000000  -0.000227   0.000008
    17  H    0.000010   0.000001   0.000001  -0.000001  -0.000193   0.000001
    18  C    0.007194  -0.000207  -0.000373   0.000005   0.047725  -0.002185
    19  H    0.000792  -0.000045  -0.000044   0.000083   0.002217  -0.000163
    20  H    0.001079  -0.000099  -0.000232   0.000029   0.015256  -0.001656
    21  H   -0.000456   0.000090   0.000038  -0.000064  -0.006833   0.000647
    22  C   -0.000156   0.000008  -0.000033   0.000011   0.004968  -0.000016
    23  H   -0.000015   0.000001   0.000001   0.000000  -0.000210   0.000017
    24  H   -0.000029  -0.000001  -0.000003  -0.000004   0.000332  -0.000036
    25  H    0.000166  -0.000010  -0.000022   0.000017   0.003638  -0.000176
    26  C   -0.055695   0.005370   0.002989  -0.000480  -0.621355   0.038514
    27  H   -0.007782   0.000256   0.000638  -0.000231  -0.060305   0.002316
    28  O    0.003321  -0.000583  -0.000821   0.000180   0.106369  -0.004295
    29  O   -0.000347   0.000200   0.000130  -0.000095  -0.015740   0.000415
    30  H    0.000550  -0.000088  -0.000060   0.000065   0.004358  -0.000165
              7          8          9         10         11         12
     1  C    0.037092  -0.001411  -0.008316  -0.000021   0.000377   0.000885
     2  H   -0.001249   0.000105   0.000490   0.000051  -0.000090  -0.000014
     3  H   -0.001638   0.000114   0.000633   0.000152  -0.000200   0.000173
     4  H    0.000247   0.000009  -0.000241  -0.000019   0.000061  -0.000004
     5  C    0.381641  -0.021242  -0.133457  -0.019377   0.038120  -0.020631
     6  H   -0.023093   0.000782   0.007435   0.000491  -0.001292   0.000568
     7  C    2.460973  -0.051537  -0.501313  -0.122899   0.144536  -0.218626
     8  H   -0.051537  -0.045775   0.021430   0.003335  -0.009323   0.010072
     9  C   -0.501313   0.021430   0.105142   0.053282  -0.064898   0.074799
    10  H   -0.122899   0.003335   0.053282   0.043074  -0.034486   0.035421
    11  H    0.144536  -0.009323  -0.064898  -0.034486   0.154946  -0.056375
    12  C   -0.218626   0.010072   0.074799   0.035421  -0.056375   0.099000
    13  H   -0.031511   0.001779   0.010347   0.003476  -0.009972   0.010714
    14  C    0.006608   0.000362  -0.001206  -0.000562  -0.004087  -0.003083
    15  H   -0.001224   0.000049   0.000394   0.000097   0.000058  -0.000385
    16  H   -0.003353   0.000144   0.001411   0.000311  -0.001195   0.001267
    17  H   -0.000439   0.000047   0.000413  -0.000064   0.000579  -0.001203
    18  C    0.112201  -0.002703  -0.029687  -0.003814   0.005133  -0.005918
    19  H    0.000653  -0.000039  -0.000548  -0.000171   0.000084  -0.000371
    20  H    0.027498  -0.001419  -0.005673  -0.000452   0.000568  -0.000552
    21  H   -0.010125   0.000732   0.003079   0.000354  -0.000344   0.000746
    22  C    0.050216  -0.001873  -0.023038  -0.007997   0.013524  -0.028863
    23  H   -0.001839   0.000111   0.000961   0.000427  -0.000447   0.001547
    24  H    0.006716  -0.000353  -0.002140  -0.000995   0.000809  -0.004233
    25  H    0.017064  -0.000683  -0.005468  -0.001674   0.001937  -0.004339
    26  C   -1.227094   0.049774   0.426554   0.069256  -0.126341   0.106060
[...]
 8815,-0.00025778,0.00019401,-0.00028171,0.00046491,0.00361300,0.029979
 85,0.00070398,-0.00493427,0.00325191,0.00060503,0.00184178,0.00080740,
 -0.00019563,-0.00023824,-0.00069428,-0.00009152,-0.00010632,-0.0000860
 3,0.00020228,0.00023609,-0.00032415,0.00003863,-0.00001684,-0.00001205
 ,-0.00003599,0.00001606,0.00002354,-0.00000238,-0.00000375,0.00000842,
 0.00000764,0.00001192,-0.00004215,-0.00033376,-0.05302833,-0.04104308,
 -0.00114297,-0.00300509,-0.01347882,-0.00029985,0.05743997,-0.00000501
 ,-0.00001668,-0.00000367,0.00000394,-0.00000151,0.00000129,-0.00000577
 ,0.00000564,0.00000757,-0.00000876,-0.00000019,-0.00000136,-0.00001466
 ,0.00002806,0.00000957,0.00001638,-0.00000328,0.00002799,-0.00020980,-
 0.00001630,-0.00006982,0.00014481,0.00007612,0.00009226,0.00072872,-0.
 00087359,0.00065384,-0.00072133,0.00050907,0.00055800,0.00001383,0.000
 01964,0.00039277,-0.00037000,-0.00188308,-0.01846319,-0.00045395,0.003
 55651,-0.00012813,-0.00034523,-0.00104699,0.00067188,0.00062286,0.0008
 2283,0.00056703,-0.00000836,0.00002685,-0.00003928,-0.00002720,0.00008
 189,0.00045501,0.00003051,-0.00000279,-0.00002140,-0.00004095,0.000009
 43,0.00003380,0.00000441,-0.00000615,0.00001389,0.00000282,0.00000536,
 -0.00004419,-0.00201351,-0.04053534,-0.29370784,-0.00003601,-0.0014118
 9,-0.00756712,0.00275542,0.04187211,0.32271416,0.00000655,0.00002046,0
 .00000617,-0.00000702,0.00000278,-0.00000451,-0.00000368,-0.00000332,0
 .00000159,0.00001411,0.00000142,0.00000069,0.00001319,-0.00001537,-0.0
 0003297,-0.00000161,0.00000101,0.00000650,-0.00037690,0.00021800,-0.00
 039662,-0.00002931,0.00031415,-0.00007169,0.00036064,0.00008043,0.0003
 5187,0.00000707,-0.00004864,0.00002500,0.00013803,-0.00020788,0.000002
 34,0.00317123,0.00340447,0.00165524,0.00018073,-0.00042945,0.00045555,
 0.00052491,0.00048353,0.00025071,-0.00005873,0.00007355,-0.00006731,0.
 00043743,0.00019773,-0.00015915,0.00033037,-0.00001645,-0.00019882,-0.
 00000289,0.00003423,0.00000789,0.00000450,-0.00000631,-0.00000187,0.00
 002859,0.00000310,-0.00000277,-0.00008703,-0.00008317,-0.00000863,-0.1
 9274383,-0.12206093,-0.04188791,-0.02019607,-0.01741445,-0.00670484,0.
 00016705,0.00115245,-0.00001057,0.20808164,0.00000490,-0.00000369,-0.0
 0001549,-0.00000644,0.00002451,-0.00000067,0.00000072,0.00000596,0.000
 00637,-0.00001819,-0.00001290,-0.00000257,0.00005625,-0.00000521,0.000
 04124,0.00001682,0.00000148,0.00000467,-0.00000941,0.00004418,-0.00064
 834,0.00026011,-0.00002469,0.00052652,-0.00094089,0.00134389,-0.000486
 11,0.00013673,-0.00015566,-0.00000260,-0.00006182,0.00010740,0.0001531
 7,-0.02167452,-0.01736660,-0.00797811,0.00010853,0.00112917,0.00023440
 ,0.00234275,-0.00455599,0.00405029,0.00028501,0.00027244,-0.00003081,-
 0.00006348,0.00026814,0.00010322,-0.00155833,-0.00124332,-0.00021942,0
 .00008951,-0.00009886,-0.00005178,0.00000458,0.00001076,0.00000656,-0.
 00008239,0.00000267,-0.00000614,-0.00000311,0.00016725,0.00004181,-0.1
 2075149,-0.14800134,-0.03509355,0.01055660,0.00969718,0.00392381,-0.00
 329554,-0.00357421,-0.00125456,0.13422756,0.16178349,0.00000556,0.0000
 2960,-0.00002348,-0.00001392,0.00001488,-0.00000168,0.00000620,-0.0000
 0742,-0.00000216,0.00000641,-0.00000338,0.00000352,-0.00003612,-0.0000
 3881,0.00004592,-0.00001697,0.00001788,-0.00003579,-0.00012493,0.00040
 548,0.00014319,-0.00022797,0.00012036,-0.00020469,-0.00006589,-0.00084
 901,0.00039150,-0.00011217,-0.00005704,-0.00006586,0.00014919,-0.00009
 577,-0.00011855,0.01383513,0.01014542,0.00333082,0.00048495,-0.0006754
 2,0.00051226,-0.00086455,0.00269184,-0.00142259,0.00010283,0.00038302,
 0.00032238,-0.00028426,-0.00012791,-0.00012068,0.00058206,0.00089366,0
 .00055860,0.00004675,-0.00003399,-0.00006058,0.00007136,-0.00001985,-0
 .00004117,-0.00004676,0.00002179,-0.00001854,-0.00002853,0.00003129,0.
 00017930,-0.04211262,-0.03570827,-0.05923303,0.00671516,0.00636026,0.0
 0117812,-0.02484802,-0.01991253,-0.00616631,0.04673736,0.03660416,0.06
 097599,-0.02824751,-0.02022767,-0.00910021,0.00050805,-0.00019720,-0.0
 0037736,0.00184904,-0.00035966,-0.00039978,-0.00407457,0.00263208,0.00
 076685,-0.12315758,-0.03319907,-0.02409996,-0.00089242,-0.00077380,-0.
 00051196,-0.18986389,0.01052506,0.04863910,0.00018849,-0.00014152,-0.0
 0281472,-0.02319480,0.00750849,0.00662736,0.00195688,0.00088599,0.0014
 6591,0.00167237,0.00105404,0.00054293,-0.00177924,-0.00313736,-0.00032
 654,-0.00008852,0.00000172,0.00020026,-0.00048010,0.00063148,0.0003551
 2,-0.00000368,0.00001953,-0.00000426,-0.00010407,-0.00020739,-0.000115
 20,-0.00000776,0.00001010,0.00001933,0.00674027,-0.00088767,0.00454184
 ,0.00004778,0.00050078,-0.00076621,-0.00026526,0.00369320,-0.00157664,
 -0.00049408,0.00181457,0.00034714,0.00024158,-0.00056487,-0.00017569,0
 .00030327,0.00001295,0.00002647,0.00001689,0.00011421,0.00006438,0.000
 01902,0.00062948,-0.00006868,0.47238232,0.00199872,0.01005699,0.004573
 43,0.00188110,-0.00119696,0.00144963,0.00042678,0.00065173,-0.00083905
 ,0.00468202,-0.00166267,-0.00009071,-0.03540241,-0.09674427,-0.0266140
 1,-0.00389840,-0.00434870,-0.00175516,0.00445113,-0.06093509,-0.028067
 82,0.01323581,0.00078312,-0.00519444,-0.01339939,0.00802579,0.00879259
 ,-0.00032378,0.00055036,-0.00077169,-0.00130008,-0.00223976,0.00026934
 ,-0.00106864,-0.00358265,-0.00161858,0.00004061,-0.00004343,0.00015036
 ,-0.00106275,0.00089628,0.00042207,0.00006190,0.00003221,-0.00009078,-
 0.00049334,-0.00024210,-0.00008636,-0.00001338,-0.00005824,0.00007878,
 -0.01695963,-0.02776158,-0.00497908,0.00004405,0.00162070,-0.00144180,
 0.00087130,-0.00235803,0.00146150,-0.00064227,0.00032046,-0.00045983,0
 .00037765,0.00003847,0.00018161,-0.00016167,-0.00000006,0.00001493,0.0
 0003831,0.00000855,-0.00001955,-0.00000908,-0.00014181,-0.00014735,0.0
 3026204,0.34963396,0.00417994,0.00581248,0.00242778,-0.00084509,-0.000
 18226,-0.00025384,0.00124177,0.00059458,0.00055587,0.00277292,-0.00002
 112,0.00030380,-0.02154908,-0.02435589,-0.09614289,-0.02474947,-0.0243
 2326,-0.01367592,0.04454217,-0.02434492,-0.09497092,0.02209915,-0.0080
 2485,-0.00409953,-0.00707415,0.00375220,0.00534352,-0.00152635,0.00011
 475,0.00018472,-0.00074330,-0.00054401,0.00029042,-0.00183736,-0.00230
 703,-0.00129158,0.00010395,0.00003173,0.00038252,-0.00089564,0.0005601
 7,0.00053889,0.00007143,0.00004894,-0.00004872,-0.00039654,-0.00015797
 ,-0.00007726,0.00010296,0.00006248,-0.00001664,0.01001687,0.00866079,0
 .00384985,0.00118950,0.00199720,0.00015325,0.00005056,0.00349484,-0.00
 134657,-0.00025398,-0.00028306,0.00035450,-0.00016503,0.00003389,0.000
 28623,-0.00008660,0.00005692,-0.00011174,-0.00006485,-0.00002922,-0.00
 011011,0.00003790,-0.00000485,-0.00003575,-0.03125770,0.05369459,0.577
 83488,0.00162754,0.00004919,-0.00089806,-0.00006743,0.00007386,-0.0000
 2049,-0.00040546,0.00012544,0.00063111,0.00009678,0.00009627,0.0003364
 2,-0.00090476,-0.00373596,-0.02421540,-0.00290744,-0.00303963,-0.00158
 568,-0.00230532,0.00552506,0.02838460,-0.00342933,0.00016560,0.0017593
 5,0.00158587,0.00013366,0.00114339,-0.00030290,-0.00022583,-0.00100213
 ,-0.00014138,-0.00001659,-0.00020666,-0.00006434,0.00029925,-0.0001353
 9,0.00009764,-0.00009107,-0.00023246,0.00004185,-0.00002343,-0.0000606
 5,-0.00004267,-0.00002449,-0.00002681,0.00001429,0.00000330,0.00000713
 ,0.00000644,0.00000082,-0.00000180,0.00078035,0.00139145,-0.00025028,0
 .00015881,-0.00010117,0.00056257,-0.00004525,0.00028901,0.00014706,0.0
 0001829,-0.00015154,0.00018081,0.00004484,0.00000949,0.00006262,-0.000
 00117,0.00000179,-0.00002949,-0.00006561,-0.00000702,-0.00006736,-0.00
 001328,-0.00006093,0.00005707,-0.04845834,-0.00747785,0.00040007,0.053
 81615,0.00077844,0.00018746,0.00027038,-0.00010178,0.00000565,0.000021
 90,-0.00032421,0.00017271,0.00041504,0.00008842,0.00003921,0.00015445,
 -0.00168307,-0.00193071,-0.01990666,-0.00282682,-0.00220936,-0.0012231
 3,0.00316055,-0.00087823,-0.00831047,0.00076567,0.00021356,-0.00081480
 ,-0.00053211,0.00022606,0.00034276,0.00012092,0.00016774,0.00021997,0.
 00015981,0.00010025,0.00018271,-0.00010383,-0.00006896,0.00004748,-0.0
 0004793,-0.00000885,0.00003386,-0.00000576,-0.00001485,0.00002755,0.00
 000457,0.00000984,0.00000409,0.00001596,-0.00000263,-0.00000995,-0.000
 00598,-0.00000400,0.00000146,0.00034675,0.00127436,-0.00139822,-0.0002
 2686,-0.00027769,0.00071181,0.00014210,0.00024036,0.00026778,0.0001196
 1,-0.00002041,-0.00006960,0.00000474,0.00000105,-0.00003064,0.00000150
 ,-0.00001978,0.00002018,0.00003923,0.00001816,0.00003743,0.00002517,0.
 00000852,-0.00005806,-0.00453139,-0.04000377,-0.02652103,0.00034678,0.
 06172372,0.00030678,0.00016377,0.00039648,0.00009019,-0.00004915,0.000
 05497,-0.00067960,0.00016857,0.00018915,-0.00010176,0.00001468,0.00017
 886,-0.00029592,-0.00217802,-0.01054629,-0.00115681,-0.00089731,0.0004
 0639,0.00453274,-0.00487950,-0.00947656,0.00098528,0.00134523,-0.00084
 633,-0.00068880,-0.00043946,0.00040688,0.00065986,0.00054009,0.0005908
 4,-0.00005917,0.00006651,0.00006282,0.00001301,0.00001347,0.00046070,-
 0.00022169,0.00005503,0.00007072,0.00004448,-0.00000594,0.00000979,0.0
 0002522,0.00000499,0.00001409,0.00000781,0.00001212,-0.00000365,-0.000
 00571,-0.00000774,0.00000036,0.00043552,0.00061638,0.00065647,-0.00017
 771,-0.00066510,0.00058388,-0.00003958,-0.00001656,0.00040539,-0.00000
 887,-0.00008810,-0.00008905,-0.00000914,-0.00004239,-0.00007645,0.0000
 0140,0.00000078,0.00002943,0.00004454,0.00002009,0.00005574,0.00000586
 ,0.00004090,-0.00004771,-0.00697031,-0.01671112,-0.28877820,0.00404425
 ,0.01462199,0.31965927,0.00054322,0.00016729,0.00027502,0.00032018,-0.
 00087249,0.00023107,-0.00035934,-0.00037172,0.00052975,0.00046938,-0.0
 0037239,0.00048054,0.00702581,-0.01513532,0.00790730,0.00027959,0.0002
 9030,0.00015621,-0.01382940,0.02417157,0.00160371,-0.00081541,0.000196
 10,0.00005392,-0.00107099,-0.00125888,-0.00006199,0.00022312,-0.000101
 04,0.00015240,-0.00039958,0.00136501,-0.00085532,0.00065976,0.00080963
 ,-0.00007115,-0.00008742,0.00005246,0.00006278,0.00013997,-0.00008855,
 -0.00004945,0.00001786,-0.00001786,0.00002030,0.00000347,0.00005461,0.
 00001257,0.00003029,0.00001239,-0.00003031,-0.00254814,-0.00313281,-0.
 00238899,-0.00009330,0.00021296,0.00003085,0.00024915,-0.00131230,0.00
 045658,0.00007017,-0.00012202,0.00000668,-0.00036603,0.00004072,0.0000
 5501,-0.00003830,0.00010807,-0.00004571,0.00001215,-0.00001259,0.00000
 508,0.00004298,0.00002524,0.00003222,-0.04620187,0.01309086,-0.0052375
 0,-0.00033097,0.00606883,-0.00257929,0.14072683,0.00223149,0.00040007,
 0.00011348,-0.00079614,0.00000696,-0.00007469,-0.00028752,-0.00012693,
 0.00052611,0.00023291,0.00022525,-0.00011676,0.00299603,-0.03690563,0.
 01486081,0.00093811,0.00148294,-0.00072108,0.02598671,-0.01685408,-0.0
 0557189,-0.00032715,0.00002859,0.00054294,-0.00212960,0.00203867,-0.00
 051378,0.00014783,-0.00035698,0.00036052,0.00132647,0.00056994,-0.0000
 1873,0.00000474,-0.00008751,-0.00048036,-0.00004850,0.00002351,0.00006
 845,-0.00006730,0.00014120,0.00007607,0.00002063,-0.00001787,0.0000022
 9,-0.00006277,-0.00003209,0.00000325,0.00004507,0.00001880,-0.00002949
 ,-0.00612834,-0.00233481,-0.00457011,-0.00006388,0.00024916,0.00011027
 ,0.00086992,-0.00231981,0.00113541,0.00051064,-0.00005009,-0.00009449,
 -0.00019798,-0.00012247,0.00007364,0.00001812,0.00010293,-0.00003995,-
 0.00000118,-0.00000371,-0.00002390,0.00004210,0.00010685,0.00002993,-0
 .02242715,-0.11297162,0.06290710,0.00641179,-0.02101743,0.01206439,-0.
 07225449,0.26194458,-0.00126842,0.00063601,-0.00033621,0.00096386,-0.0
 0108341,0.00062526,0.00013214,-0.00009194,-0.00017652,0.00022997,-0.00
 063342,0.00007685,0.00156324,-0.00033157,0.00445959,0.00099761,0.00072
 338,0.00120499,0.00092031,-0.00959374,0.00359255,0.00078918,0.00068181
 ,-0.00118407,0.00057832,-0.00010044,0.00073635,0.00019997,-0.00000117,
 0.00005112,-0.00022824,-0.00039748,-0.00003255,0.00025872,-0.00004652,
 -0.00006407,-0.00006838,0.00003898,0.00005680,-0.00002063,0.00008181,0
 .00002475,0.00001969,0.00000141,-0.00000305,-0.00005527,-0.00000710,0.
 00000276,-0.00000524,-0.00003024,0.00001117,0.00016597,-0.00015688,0.0
 0076183,-0.00024874,-0.00056658,0.00040772,-0.00003927,0.00031503,0.00
 037903,0.00004564,-0.00008144,-0.00011255,0.00001387,0.00004471,0.0000
 0829,-0.00006152,0.00000756,0.00001868,0.00003706,0.00000443,0.0000306
 2,-0.00001073,-0.00008116,-0.00004496,0.01846673,0.02075701,-0.0956831
 2,-0.00775913,0.03995949,-0.01746474,-0.08451347,-0.01613333,0.2401493
 1,-0.00200682,-0.00028519,-0.00085356,-0.00008197,-0.00205078,0.001048
 52,0.00029542,0.00041486,-0.00097649,0.00070792,-0.00093921,-0.0002390
 7,-0.00061687,-0.00108110,0.00020676,0.00024983,0.00020306,-0.00011352
 ,-0.00139772,0.01050361,-0.00166444,-0.00097724,0.00001849,0.00046946,
 0.00100171,-0.00061737,0.00072508,-0.00046947,0.00018096,-0.00033629,-
 0.00033914,-0.00033099,0.00016217,0.00026619,-0.00030005,-0.00044335,0
 .00007042,0.00000639,-0.00002223,-0.00012649,0.00018623,0.00006254,0.0
 0000557,-0.00001460,-0.00004813,-0.00016018,-0.00001466,-0.00000448,0.
 00005047,-0.00000889,0.00000620,-0.00006011,0.00010841,0.00020007,-0.0
 0006920,-0.00003955,-0.00005798,0.00019186,0.00015724,0.00003501,0.000
 23960,-0.00041234,0.00000461,-0.00009328,0.00012489,0.00015103,-0.0001
 6228,0.00005153,-0.00002397,-0.00000926,-0.00004410,-0.00006013,-0.000
 00071,-0.00023596,0.00001827,-0.01616577,0.00928138,0.01001647,0.00109
 607,-0.00166718,0.00125232,-0.07205125,0.05974623,0.06881836,0.5074722
 6,-0.00214593,-0.00150133,0.00048553,-0.00058529,-0.00060661,0.0001075
 0,0.00018473,-0.00005551,-0.00144289,0.00012860,-0.00065199,-0.0007263
 0,0.00123882,-0.00008288,0.00069355,0.00020668,0.00003155,-0.00003524,
 0.00219973,-0.00893607,-0.00056184,0.00122382,-0.00037587,-0.00009185,
 -0.00064956,-0.00012543,-0.00033323,0.00024257,-0.00003352,0.00015389,
 0.00069287,0.00064940,-0.00012874,-0.00001821,0.00035828,0.00032522,-0
 .00006040,-0.00001002,0.00002607,0.00012230,-0.00019263,-0.00004008,0.
 00000120,0.00000456,0.00004115,0.00011819,0.00004022,0.00000591,-0.000
 01121,0.00004908,-0.00003396,-0.00012042,0.00022931,0.00004658,-0.0000
 1766,-0.00007055,0.00006056,-0.00017071,0.00001658,0.00007416,0.000023
 70,0.00016185,-0.00003664,-0.00005407,-0.00009124,-0.00008694,0.000118
 64,-0.00000051,-0.00000079,0.00000631,0.00002835,0.00003928,0.00001928
 ,0.00022005,-0.00000103,0.02000799,-0.01688546,-0.02937751,0.00009658,
 0.00198586,-0.00342672,0.02957371,-0.06788605,-0.03944840,-0.08026169,
 0.10417820,0.00016815,0.00056376,-0.00083020,-0.00059521,-0.00049755,-
 0.00026300,-0.00041916,-0.00021556,0.00064477,-0.00002190,0.00010373,0
 .00035320,0.00195906,-0.00131113,0.00035172,0.00008671,0.00044618,0.00
 023913,-0.00039801,-0.00149648,0.00196962,-0.00015990,-0.00000122,0.00
 037674,-0.00059603,-0.00024233,-0.00018514,0.00015859,-0.00000670,0.00
 008256,-0.00006910,0.00037116,-0.00025561,-0.00006436,0.00014892,0.000
 21789,-0.00003138,0.00001054,0.00001642,0.00004981,-0.00008021,-0.0000
 5928,-0.00000062,0.00000231,0.00003059,0.00006139,0.00001452,0.0000021
 8,-0.00001560,0.00000163,-0.00000365,-0.00042525,-0.00022343,-0.000118
 37,0.00005412,-0.00007085,0.00006124,-0.00016089,-0.00016536,0.0000402
 6,-0.00008957,0.00017475,0.00000056,-0.00000021,-0.00004897,-0.0000674
 6,0.00006023,-0.00001008,0.00000901,0.00000765,0.00001371,0.00003168,0
 .00001193,0.00009917,0.00000151,-0.00596308,-0.00451650,0.00562791,-0.
 00099963,0.00150541,0.00302786,0.04423696,-0.05118380,-0.13754179,0.13
 697658,0.07515070,0.24909055,-0.00027345,-0.00109046,0.00067976,0.0002
 5663,0.00015718,-0.00103658,0.00013721,-0.00026311,0.00000020,-0.00026
 984,0.00001849,-0.00013133,0.00120556,0.00014931,0.00003143,-0.0001295
 4,0.00007472,0.00000893,0.00001362,0.00019670,0.00025736,-0.00001265,0
 .00009673,-0.00008789,0.00000186,0.00002808,-0.00006758,-0.00001291,-0
 .00000674,-0.00001029,-0.00001672,0.00000698,0.00001202,-0.00004960,0.
 00002163,0.00004513,0.00000561,-0.00000121,-0.00000252,0.00001106,-0.0
 0001785,-0.00001258,-0.00000462,0.00000312,0.00000614,0.00002413,-0.00
 000281,-0.00000097,-0.00001331,-0.00000309,0.00000364,-0.00048314,-0.0
 0010828,-0.00001771,0.00005641,0.00000519,0.00001389,-0.00003422,-0.00
 014861,0.00001939,-0.00003967,0.00011608,-0.00003842,0.00002470,-0.000
 00638,-0.00001581,0.00002226,-0.00001400,0.00000150,-0.00000511,0.0000
 0363,0.00000540,-0.00000698,0.00001771,0.00000087,-0.00244647,0.001469
 02,-0.00014301,0.00010076,-0.00013214,0.00054510,-0.01262190,0.0032631
 8,0.00007839,-0.41685955,0.02788943,-0.17382130,0.43141988,0.00105516,
 -0.00112864,0.00104483,-0.00122326,0.00006865,-0.00217254,-0.00043035,
 -0.00095355,0.00074232,-0.00039355,0.00119200,0.00002543,0.00102308,-0
 .00012203,-0.00041271,-0.00023817,0.00004248,0.00013730,-0.00005938,-0
 .00180510,0.00007330,0.00020847,0.00005010,-0.00018057,-0.00017793,0.0
 0019047,-0.00002909,0.00004990,-0.00002082,0.00005118,0.00001732,-0.00
 002951,-0.00000404,-0.00001849,-0.00002527,-0.00000180,-0.00001181,0.0
 0000520,0.00000745,-0.00000804,0.00002096,0.00000171,0.00000339,0.0000
 0178,-0.00000274,-0.00000795,-0.00000431,-0.00000042,-0.00000291,-0.00
 001680,0.00001009,-0.00036096,-0.00001728,0.00009046,0.00004953,-0.000
 00749,-0.00000796,-0.00000836,-0.00006721,0.00000035,-0.00018724,0.000
 26167,-0.00006142,0.00002714,0.00000565,0.00000055,-0.00000640,-0.0000
 0233,0.00000630,0.00000940,0.00000214,0.00000557,-0.00000637,-0.000009
 66,-0.00001374,0.00635103,-0.00144239,-0.00134567,-0.00006384,0.000082
 17,-0.00034188,0.01881271,-0.00625234,0.00553316,0.00732036,-0.0104476
 2,-0.01853632,-0.03172248,0.02042910,0.00046665,-0.00147837,0.00158058
 ,-0.00091209,-0.00001397,-0.00047993,0.00010437,0.00066432,-0.00080643
 ,-0.00011348,0.00017205,-0.00060765,-0.00009317,0.00033498,0.00002583,
 0.00017659,-0.00010766,-0.00006788,0.00023955,-0.00148415,0.00045812,0
 .00011389,0.00004268,-0.00008880,-0.00009426,0.00020303,-0.00027729,0.
 00008654,-0.00006468,0.00011445,0.00006940,-0.00001393,-0.00001589,-0.
 00003448,0.00003908,0.00011809,-0.00001940,0.00000170,0.00000116,0.000
 02226,-0.00003679,-0.00001059,0.00000347,-0.00000086,0.00000780,0.0000
 2290,0.00000709,0.00000477,-0.00000658,0.00000768,-0.00000525,-0.00013
 858,-0.00004580,0.00001038,-0.00001826,0.00001733,-0.00003719,-0.00001
 656,-0.00004084,-0.00000126,-0.00003726,0.00009095,-0.00003038,0.00002
 011,-0.00002508,-0.00002677,0.00002423,-0.00000853,0.00000503,0.000001
 28,0.00000443,0.00000533,0.00000180,0.00003988,0.00000041,0.00246487,0
 .00155798,-0.00149134,-0.00022501,-0.00050318,0.00006887,0.03952421,-0
 .01330233,0.00004594,-0.21530983,-0.00143793,-0.12285089,0.17367685,0.
 01538093,0.12435077\\-0.00000016,0.00000251,0.00000041,0.00000057,0.00
 000226,0.00000011,0.00000025,0.00000319,0.00000090,-0.00000093,0.00000
 299,0.00000177,-0.00000038,0.00000133,0.00000128,-0.00000077,0.0000004
 1,0.00000100,-0.00000066,-0.00000040,-0.00000052,-0.00000003,-0.000001
 30,0.00000024,0.00000084,-0.00000117,-0.00000087,0.00000085,-0.0000001
 1,-0.00000106,0.00000105,-0.00000134,-0.00000168,0.,-0.00000249,-0.000
 00022,-0.00000035,-0.00000303,-0.00000063,0.00000079,-0.00000275,-0.00
 000183,0.00000116,-0.00000205,-0.00000188,0.00000042,-0.00000376,-0.00
 000153,0.00000141,-0.00000313,-0.00000236,-0.00000140,0.00000175,0.000
 00206,-0.00000112,0.00000254,0.00000191,-0.00000196,0.00000185,0.00000
 268,-0.00000178,0.00000072,0.00000209,-0.00000083,-0.00000161,0.000000
 19,-0.00000112,-0.00000274,0.00000045,-0.00000042,-0.00000118,0.000000
 28,-0.00000130,-0.00000123,0.00000082,0.00000028,0.00000045,0.00000025
 ,0.00000087,0.00000172,-0.00000023,0.00000166,0.00000090,-0.00000151,0
 .00000112,0.00000293,-0.00000073,0.00000193,0.00000276,-0.00000136\\\@
 Job cpu time:  0 days  8 hours 17 minutes 58.0 seconds.
 File lengths (MBytes):  RWF=  72556 Int=      0 D2E=      0 Chk=     32 Scr=      1
 Normal termination of Gaussian 09 at Sun Feb  9 18:27:11 2014.
