 Entering Gaussian System, Link 0=g09
 Initial command:
 /usr/caen/gaussian-09revc/g09/l1.exe /scratch/avioli_flux/hetanjin/scratch/Gau-108855.inp -scrdir=/scratch/avioli_flux/hetanjin/scratch/
 Entering Link 1 = /usr/caen/gaussian-09revc/g09/l1.exe PID=    108877.
  
 Copyright (c) 1988,1990,1992,1993,1995,1998,2003,2009,2011,
            Gaussian, Inc.  All Rights Reserved.
  
 This is part of the Gaussian(R) 09 program.  It is based on
 the Gaussian(R) 03 system (copyright 2003, Gaussian, Inc.),
 the Gaussian(R) 98 system (copyright 1998, Gaussian, Inc.),
 the Gaussian(R) 94 system (copyright 1995, Gaussian, Inc.),
 the Gaussian 92(TM) system (copyright 1992, Gaussian, Inc.),
 the Gaussian 90(TM) system (copyright 1990, Gaussian, Inc.),
 the Gaussian 88(TM) system (copyright 1988, Gaussian, Inc.),
 the Gaussian 86(TM) system (copyright 1986, Carnegie Mellon
 University), and the Gaussian 82(TM) system (copyright 1983,
 Carnegie Mellon University). Gaussian is a federally registered
 trademark of Gaussian, Inc.
  
 This software contains proprietary and confidential information,
 including trade secrets, belonging to Gaussian, Inc.
  
 This software is provided under written license and may be
 used, copied, transmitted, or stored only in accord with that
 written license.
  
 The following legend is applicable only to US Government
 contracts under FAR:
  
                    RESTRICTED RIGHTS LEGEND
  
 Use, reproduction and disclosure by the US Government is
 subject to restrictions as set forth in subparagraphs (a)
 and (c) of the Commercial Computer Software - Restricted
 Rights clause in FAR 52.227-19.
  
 Gaussian, Inc.
 340 Quinnipiac St., Bldg. 40, Wallingford CT 06492
  
  
 ---------------------------------------------------------------
 Warning -- This program may not be used in any manner that
 competes with the business of Gaussian, Inc. or will provide
 assistance to any competitor of Gaussian, Inc.  The licensee
 of this program is prohibited from giving any competitor of
 Gaussian, Inc. access to this program.  By using this program,
 the user acknowledges that Gaussian, Inc. is engaged in the
 business of creating and licensing software in the field of
 computational chemistry and represents and warrants to the
 licensee that it is not a competitor of Gaussian, Inc. and that
 it will not use this program in any manner prohibited above.
 ---------------------------------------------------------------
  

 Cite this work as:
 Gaussian 09, Revision C.01,
 M. J. Frisch, G. W. Trucks, H. B. Schlegel, G. E. Scuseria, 
 M. A. Robb, J. R. Cheeseman, G. Scalmani, V. Barone, B. Mennucci, 
 G. A. Petersson, H. Nakatsuji, M. Caricato, X. Li, H. P. Hratchian, 
 A. F. Izmaylov, J. Bloino, G. Zheng, J. L. Sonnenberg, M. Hada, 
 M. Ehara, K. Toyota, R. Fukuda, J. Hasegawa, M. Ishida, T. Nakajima, 
 Y. Honda, O. Kitao, H. Nakai, T. Vreven, J. A. Montgomery, Jr., 
 J. E. Peralta, F. Ogliaro, M. Bearpark, J. J. Heyd, E. Brothers, 
 K. N. Kudin, V. N. Staroverov, T. Keith, R. Kobayashi, J. Normand, 
 K. Raghavachari, A. Rendell, J. C. Burant, S. S. Iyengar, J. Tomasi, 
 M. Cossi, N. Rega, J. M. Millam, M. Klene, J. E. Knox, J. B. Cross, 
 V. Bakken, C. Adamo, J. Jaramillo, R. Gomperts, R. E. Stratmann, 
 O. Yazyev, A. J. Austin, R. Cammi, C. Pomelli, J. W. Ochterski, 
 R. L. Martin, K. Morokuma, V. G. Zakrzewski, G. A. Voth, 
 P. Salvador, J. J. Dannenberg, S. Dapprich, A. D. Daniels, 
 O. Farkas, J. B. Foresman, J. V. Ortiz, J. Cioslowski, 
 and D. J. Fox, Gaussian, Inc., Wallingford CT, 2010.
 
 ******************************************
 Gaussian 09:  EM64L-G09RevC.01 23-Sep-2011
                 4-Feb-2014 
 ******************************************
 %mem=30GB
 %nprocshared=8
 Will use up to    8 processors via shared memory.
 %chk=C9H19O2_3_26.chk
 ----------------------------------------
 # cbs-qb3 opt=(calcfc,modredundant) freq
 ----------------------------------------
 1/10=4,14=-1,18=120,19=15,26=3,38=1/1,3;
 2/9=110,12=2,17=6,18=5,40=1/2;
 3/5=4,6=6,7=700,11=2,16=1,25=1,30=1,71=2,74=-5/1,2,3;
 4//1;
 5/5=2,38=5/2;
 8/6=4,10=90,11=11/1;
 11/6=1,8=1,9=11,15=111,16=1/1,2,10;
 10/6=1,7=6,13=1/2;
 6/7=2,8=2,9=2,10=2,28=1/1;
 7/10=1,18=20,25=1/1,2,3,16;
 1/10=4,14=-1,18=20,19=15/3(2);
 2/9=110/2;
 99//99;
 2/9=110/2;
 3/5=4,6=6,7=700,11=2,16=1,25=1,30=1,71=1,74=-5/1,2,3;
 4/5=5,16=3/1;
 5/5=2,38=5/2;
 7//1,2,3,16;
 1/14=-1,18=20,19=15/3(-5);
 2/9=110/2;
 6/7=2,8=2,9=2,10=2,19=2,28=1/1;
 99/9=1/99;
 -----------------------------------------
 C9H19O2_3_26 using CBS-QB3 to cal. energy
 -----------------------------------------
 Charge =  0 Multiplicity = 2
 Symbolic Z-Matrix:
 6                    -3.62564  -0.03649  -0.05738 
 1                    -3.68464  -1.03527   0.37679 
 1                    -3.71444  -0.13625  -1.14425 
 1                    -4.48718   0.53628   0.29608 
 6                    -2.32176   0.67979   0.32469 
 1                    -2.27834   0.75881   1.41834 
 6                     0.26313   0.4398    0.32028 
 1                     0.28132   0.47628   1.4166 
 1                     0.32484   1.47329  -0.02801 
 6                     1.46517  -0.35958  -0.19952 
 1                     1.47113  -0.33243  -1.2976 
 1                     1.34091  -1.41015   0.07965 
 6                     2.83218   0.12505   0.32026 
 1                     2.78924   0.11994   1.41824 
 6                     3.93939  -0.84828  -0.10799 
 1                     4.02929  -0.88153  -1.19942 
 1                     4.91031  -0.54596   0.29515 
 1                     3.73299  -1.86461   0.23969 
 6                    -2.30294   2.10011  -0.26513 
 1                    -2.26154   2.07011  -1.35928 
 1                    -3.21684   2.63078   0.01376 
 1                    -1.45886   2.69393   0.09048 
 6                     3.16668   1.55375  -0.13317 
 1                     4.15082   1.85902   0.23403 
 1                     3.18705   1.61906  -1.22705 
 1                     2.4421    2.28609   0.23227 
 6                    -1.08665  -0.12301  -0.12161 
 1                    -1.11182  -0.30061  -1.20053 
 8                    -1.19205  -1.46604   0.49192 
 8                    -1.36092  -2.4344   -0.3841 
 
 The following ModRedundant input section has been read:

 GradGradGradGradGradGradGradGradGradGradGradGradGradGradGradGradGradGrad
 Berny optimization.
 Initialization pass.
                           ----------------------------
                           !    Initial Parameters    !
                           ! (Angstroms and Degrees)  !
 --------------------------                            --------------------------
 ! Name  Definition              Value          Derivative Info.                !
 --------------------------------------------------------------------------------
 ! R1    R(1,2)                  1.0907         calculate D2E/DX2 analytically  !
 ! R2    R(1,3)                  1.0951         calculate D2E/DX2 analytically  !
 ! R3    R(1,4)                  1.0933         calculate D2E/DX2 analytically  !
 ! R4    R(1,5)                  1.5359         calculate D2E/DX2 analytically  !
 ! R5    R(5,6)                  1.0974         calculate D2E/DX2 analytically  !
 ! R6    R(5,19)                 1.538          calculate D2E/DX2 analytically  !
 ! R7    R(5,27)                 1.5392         calculate D2E/DX2 analytically  !
 ! R8    R(7,8)                  1.0971         calculate D2E/DX2 analytically  !
 ! R9    R(7,9)                  1.0923         calculate D2E/DX2 analytically  !
 ! R10   R(7,10)                 1.5343         calculate D2E/DX2 analytically  !
 ! R11   R(7,27)                 1.5277         calculate D2E/DX2 analytically  !
 ! R12   R(10,11)                1.0984         calculate D2E/DX2 analytically  !
 ! R13   R(10,12)                1.0941         calculate D2E/DX2 analytically  !
 ! R14   R(10,13)                1.5407         calculate D2E/DX2 analytically  !
 ! R15   R(13,14)                1.0988         calculate D2E/DX2 analytically  !
 ! R16   R(13,15)                1.5351         calculate D2E/DX2 analytically  !
 ! R17   R(13,23)                1.5358         calculate D2E/DX2 analytically  !
 ! R18   R(15,16)                1.0956         calculate D2E/DX2 analytically  !
 ! R19   R(15,17)                1.0939         calculate D2E/DX2 analytically  !
 ! R20   R(15,18)                1.0938         calculate D2E/DX2 analytically  !
 ! R21   R(19,20)                1.0953         calculate D2E/DX2 analytically  !
 ! R22   R(19,21)                1.093          calculate D2E/DX2 analytically  !
 ! R23   R(19,22)                1.0916         calculate D2E/DX2 analytically  !
 ! R24   R(23,24)                1.0939         calculate D2E/DX2 analytically  !
 ! R25   R(23,25)                1.096          calculate D2E/DX2 analytically  !
 ! R26   R(23,26)                1.0931         calculate D2E/DX2 analytically  !
 ! R27   R(27,28)                1.0937         calculate D2E/DX2 analytically  !
 ! R28   R(27,29)                1.4803         calculate D2E/DX2 analytically  !
 ! R29   R(29,30)                1.3167         calculate D2E/DX2 analytically  !
 ! A1    A(2,1,3)              107.8958         calculate D2E/DX2 analytically  !
 ! A2    A(2,1,4)              107.9652         calculate D2E/DX2 analytically  !
 ! A3    A(2,1,5)              111.96           calculate D2E/DX2 analytically  !
 ! A4    A(3,1,4)              107.7407         calculate D2E/DX2 analytically  !
 ! A5    A(3,1,5)              110.9908         calculate D2E/DX2 analytically  !
 ! A6    A(4,1,5)              110.1352         calculate D2E/DX2 analytically  !
 ! A7    A(1,5,6)              108.3658         calculate D2E/DX2 analytically  !
 ! A8    A(1,5,19)             110.2214         calculate D2E/DX2 analytically  !
 ! A9    A(1,5,27)             111.4596         calculate D2E/DX2 analytically  !
 ! A10   A(6,5,19)             108.373          calculate D2E/DX2 analytically  !
 ! A11   A(6,5,27)             107.144          calculate D2E/DX2 analytically  !
 ! A12   A(19,5,27)            111.1392         calculate D2E/DX2 analytically  !
 ! A13   A(8,7,9)              106.6317         calculate D2E/DX2 analytically  !
 ! A14   A(8,7,10)             110.053          calculate D2E/DX2 analytically  !
 ! A15   A(8,7,27)             108.4178         calculate D2E/DX2 analytically  !
 ! A16   A(9,7,10)             109.9172         calculate D2E/DX2 analytically  !
 ! A17   A(9,7,27)             107.8323         calculate D2E/DX2 analytically  !
 ! A18   A(10,7,27)            113.7199         calculate D2E/DX2 analytically  !
 ! A19   A(7,10,11)            109.2718         calculate D2E/DX2 analytically  !
 ! A20   A(7,10,12)            108.9567         calculate D2E/DX2 analytically  !
 ! A21   A(7,10,13)            114.642          calculate D2E/DX2 analytically  !
 ! A22   A(11,10,12)           106.226          calculate D2E/DX2 analytically  !
 ! A23   A(11,10,13)           108.9453         calculate D2E/DX2 analytically  !
 ! A24   A(12,10,13)           108.4645         calculate D2E/DX2 analytically  !
 ! A25   A(10,13,14)           107.5158         calculate D2E/DX2 analytically  !
 ! A26   A(10,13,15)           110.2665         calculate D2E/DX2 analytically  !
 ! A27   A(10,13,23)           112.722          calculate D2E/DX2 analytically  !
 ! A28   A(14,13,15)           107.6967         calculate D2E/DX2 analytically  !
 ! A29   A(14,13,23)           107.9295         calculate D2E/DX2 analytically  !
 ! A30   A(15,13,23)           110.5101         calculate D2E/DX2 analytically  !
 ! A31   A(13,15,16)           110.8738         calculate D2E/DX2 analytically  !
 ! A32   A(13,15,17)           111.2307         calculate D2E/DX2 analytically  !
 ! A33   A(13,15,18)           111.368          calculate D2E/DX2 analytically  !
 ! A34   A(16,15,17)           107.6187         calculate D2E/DX2 analytically  !
 ! A35   A(16,15,18)           107.6935         calculate D2E/DX2 analytically  !
 ! A36   A(17,15,18)           107.887          calculate D2E/DX2 analytically  !
 ! A37   A(5,19,20)            110.9924         calculate D2E/DX2 analytically  !
 ! A38   A(5,19,21)            109.8941         calculate D2E/DX2 analytically  !
 ! A39   A(5,19,22)            112.7621         calculate D2E/DX2 analytically  !
 ! A40   A(20,19,21)           107.4447         calculate D2E/DX2 analytically  !
 ! A41   A(20,19,22)           108.1244         calculate D2E/DX2 analytically  !
 ! A42   A(21,19,22)           107.4162         calculate D2E/DX2 analytically  !
 ! A43   A(13,23,24)           110.8828         calculate D2E/DX2 analytically  !
 ! A44   A(13,23,25)           110.7409         calculate D2E/DX2 analytically  !
 ! A45   A(13,23,26)           112.3441         calculate D2E/DX2 analytically  !
 ! A46   A(24,23,25)           107.5585         calculate D2E/DX2 analytically  !
 ! A47   A(24,23,26)           107.288          calculate D2E/DX2 analytically  !
 ! A48   A(25,23,26)           107.8221         calculate D2E/DX2 analytically  !
 ! A49   A(5,27,7)             115.6559         calculate D2E/DX2 analytically  !
 ! A50   A(5,27,28)            110.6248         calculate D2E/DX2 analytically  !
 ! A51   A(5,27,29)            107.2112         calculate D2E/DX2 analytically  !
 ! A52   A(7,27,28)            111.4373         calculate D2E/DX2 analytically  !
 ! A53   A(7,27,29)            106.097          calculate D2E/DX2 analytically  !
 ! A54   A(28,27,29)           105.0635         calculate D2E/DX2 analytically  !
 ! A55   A(27,29,30)           113.6183         calculate D2E/DX2 analytically  !
 ! D1    D(2,1,5,6)            -59.5202         calculate D2E/DX2 analytically  !
 ! D2    D(2,1,5,19)          -177.9593         calculate D2E/DX2 analytically  !
 ! D3    D(2,1,5,27)            58.1405         calculate D2E/DX2 analytically  !
 ! D4    D(3,1,5,6)            179.8438         calculate D2E/DX2 analytically  !
 ! D5    D(3,1,5,19)            61.4048         calculate D2E/DX2 analytically  !
 ! D6    D(3,1,5,27)           -62.4955         calculate D2E/DX2 analytically  !
 ! D7    D(4,1,5,6)             60.6157         calculate D2E/DX2 analytically  !
 ! D8    D(4,1,5,19)           -57.8234         calculate D2E/DX2 analytically  !
 ! D9    D(4,1,5,27)           178.2764         calculate D2E/DX2 analytically  !
 ! D10   D(1,5,19,20)          -66.2397         calculate D2E/DX2 analytically  !
 ! D11   D(1,5,19,21)           52.4675         calculate D2E/DX2 analytically  !
 ! D12   D(1,5,19,22)          172.2711         calculate D2E/DX2 analytically  !
 ! D13   D(6,5,19,20)          175.3257         calculate D2E/DX2 analytically  !
 ! D14   D(6,5,19,21)          -65.9672         calculate D2E/DX2 analytically  !
 ! D15   D(6,5,19,22)           53.8365         calculate D2E/DX2 analytically  !
 ! D16   D(27,5,19,20)          57.8458         calculate D2E/DX2 analytically  !
 ! D17   D(27,5,19,21)         176.5529         calculate D2E/DX2 analytically  !
 ! D18   D(27,5,19,22)         -63.6434         calculate D2E/DX2 analytically  !
 ! D19   D(1,5,27,7)          -174.7383         calculate D2E/DX2 analytically  !
 ! D20   D(1,5,27,28)           57.3824         calculate D2E/DX2 analytically  !
 ! D21   D(1,5,27,29)          -56.6524         calculate D2E/DX2 analytically  !
 ! D22   D(6,5,27,7)           -56.3427         calculate D2E/DX2 analytically  !
 ! D23   D(6,5,27,28)          175.778          calculate D2E/DX2 analytically  !
 ! D24   D(6,5,27,29)           61.7433         calculate D2E/DX2 analytically  !
 ! D25   D(19,5,27,7)           61.8822         calculate D2E/DX2 analytically  !
 ! D26   D(19,5,27,28)         -65.9971         calculate D2E/DX2 analytically  !
 ! D27   D(19,5,27,29)         179.9681         calculate D2E/DX2 analytically  !
 ! D28   D(8,7,10,11)         -176.3187         calculate D2E/DX2 analytically  !
 ! D29   D(8,7,10,12)           68.0178         calculate D2E/DX2 analytically  !
 ! D30   D(8,7,10,13)          -53.7174         calculate D2E/DX2 analytically  !
 ! D31   D(9,7,10,11)          -59.168          calculate D2E/DX2 analytically  !
 ! D32   D(9,7,10,12)         -174.8315         calculate D2E/DX2 analytically  !
 ! D33   D(9,7,10,13)           63.4333         calculate D2E/DX2 analytically  !
 ! D34   D(27,7,10,11)          61.8277         calculate D2E/DX2 analytically  !
 ! D35   D(27,7,10,12)         -53.8358         calculate D2E/DX2 analytically  !
 ! D36   D(27,7,10,13)        -175.571          calculate D2E/DX2 analytically  !
 ! D37   D(8,7,27,5)            59.7705         calculate D2E/DX2 analytically  !
 ! D38   D(8,7,27,28)         -172.7547         calculate D2E/DX2 analytically  !
 ! D39   D(8,7,27,29)          -58.932          calculate D2E/DX2 analytically  !
 ! D40   D(9,7,27,5)           -55.318          calculate D2E/DX2 analytically  !
 ! D41   D(9,7,27,28)           72.1568         calculate D2E/DX2 analytically  !
 ! D42   D(9,7,27,29)         -174.0205         calculate D2E/DX2 analytically  !
 ! D43   D(10,7,27,5)         -177.4735         calculate D2E/DX2 analytically  !
 ! D44   D(10,7,27,28)         -49.9986         calculate D2E/DX2 analytically  !
 ! D45   D(10,7,27,29)          63.824          calculate D2E/DX2 analytically  !
 ! D46   D(7,10,13,14)          55.3997         calculate D2E/DX2 analytically  !
 ! D47   D(7,10,13,15)         172.5502         calculate D2E/DX2 analytically  !
 ! D48   D(7,10,13,23)         -63.4254         calculate D2E/DX2 analytically  !
 ! D49   D(11,10,13,14)        178.1772         calculate D2E/DX2 analytically  !
 ! D50   D(11,10,13,15)        -64.6723         calculate D2E/DX2 analytically  !
 ! D51   D(11,10,13,23)         59.3522         calculate D2E/DX2 analytically  !
 ! D52   D(12,10,13,14)        -66.6036         calculate D2E/DX2 analytically  !
 ! D53   D(12,10,13,15)         50.5468         calculate D2E/DX2 analytically  !
 ! D54   D(12,10,13,23)        174.5713         calculate D2E/DX2 analytically  !
 ! D55   D(10,13,15,16)         63.1245         calculate D2E/DX2 analytically  !
 ! D56   D(10,13,15,17)       -177.1613         calculate D2E/DX2 analytically  !
 ! D57   D(10,13,15,18)        -56.7752         calculate D2E/DX2 analytically  !
 ! D58   D(14,13,15,16)       -179.8373         calculate D2E/DX2 analytically  !
 ! D59   D(14,13,15,17)        -60.123          calculate D2E/DX2 analytically  !
 ! D60   D(14,13,15,18)         60.2631         calculate D2E/DX2 analytically  !
 ! D61   D(23,13,15,16)        -62.1678         calculate D2E/DX2 analytically  !
 ! D62   D(23,13,15,17)         57.5464         calculate D2E/DX2 analytically  !
 ! D63   D(23,13,15,18)        177.9325         calculate D2E/DX2 analytically  !
 ! D64   D(10,13,23,24)       -178.7885         calculate D2E/DX2 analytically  !
 ! D65   D(10,13,23,25)        -59.465          calculate D2E/DX2 analytically  !
 ! D66   D(10,13,23,26)         61.1649         calculate D2E/DX2 analytically  !
 ! D67   D(14,13,23,24)         62.6278         calculate D2E/DX2 analytically  !
 ! D68   D(14,13,23,25)       -178.0486         calculate D2E/DX2 analytically  !
 ! D69   D(14,13,23,26)        -57.4187         calculate D2E/DX2 analytically  !
 ! D70   D(15,13,23,24)        -54.8985         calculate D2E/DX2 analytically  !
 ! D71   D(15,13,23,25)         64.425          calculate D2E/DX2 analytically  !
 ! D72   D(15,13,23,26)       -174.9451         calculate D2E/DX2 analytically  !
 ! D73   D(5,27,29,30)         113.9321         calculate D2E/DX2 analytically  !
 ! D74   D(7,27,29,30)        -121.9326         calculate D2E/DX2 analytically  !
 ! D75   D(28,27,29,30)         -3.7944         calculate D2E/DX2 analytically  !
 --------------------------------------------------------------------------------
 Trust Radius=3.00D-01 FncErr=1.00D-07 GrdErr=1.00D-06
 Number of steps in this run=    169 maximum allowed number of steps=    180.
 GradGradGradGradGradGradGradGradGradGradGradGradGradGradGradGradGradGrad

                          Input orientation:                          
 ---------------------------------------------------------------------
 Center     Atomic      Atomic             Coordinates (Angstroms)
 Number     Number       Type             X           Y           Z
 ---------------------------------------------------------------------
      1          6           0       -3.625641   -0.036486   -0.057376
      2          1           0       -3.684644   -1.035269    0.376792
      3          1           0       -3.714444   -0.136252   -1.144254
      4          1           0       -4.487180    0.536283    0.296077
      5          6           0       -2.321762    0.679787    0.324685
      6          1           0       -2.278337    0.758812    1.418337
      7          6           0        0.263133    0.439795    0.320277
      8          1           0        0.281321    0.476278    1.416600
      9          1           0        0.324835    1.473293   -0.028006
     10          6           0        1.465169   -0.359579   -0.199522
     11          1           0        1.471130   -0.332428   -1.297604
     12          1           0        1.340914   -1.410153    0.079649
     13          6           0        2.832182    0.125048    0.320255
     14          1           0        2.789243    0.119939    1.418239
     15          6           0        3.939390   -0.848284   -0.107988
     16          1           0        4.029289   -0.881534   -1.199415
     17          1           0        4.910314   -0.545962    0.295151
     18          1           0        3.732990   -1.864611    0.239686
     19          6           0       -2.302939    2.100107   -0.265128
     20          1           0       -2.261536    2.070115   -1.359276
     21          1           0       -3.216838    2.630778    0.013760
     22          1           0       -1.458862    2.693934    0.090476
     23          6           0        3.166681    1.553751   -0.133172
     24          1           0        4.150820    1.859020    0.234025
     25          1           0        3.187053    1.619058   -1.227049
     26          1           0        2.442099    2.286093    0.232271
     27          6           0       -1.086647   -0.123009   -0.121607
     28          1           0       -1.111818   -0.300609   -1.200527
     29          8           0       -1.192046   -1.466041    0.491919
     30          8           0       -1.360921   -2.434405   -0.384103
 ---------------------------------------------------------------------
                    Distance matrix (angstroms):
                    1          2          3          4          5
     1  C    0.000000
     2  H    1.090665   0.000000
     3  H    1.095054   1.767116   0.000000
     4  H    1.093272   1.766453   1.767478   0.000000
     5  C    1.535942   2.191251   2.182490   2.170356   0.000000
     6  H    2.150687   2.506241   3.070898   2.487564   1.097363
     7  C    3.935991   4.214730   4.277593   4.751354   2.596016
     8  H    4.207123   4.369766   4.785322   4.898752   2.830148
     9  H    4.229250   4.746859   4.489145   4.913095   2.785412
    10  C    5.103033   5.225827   5.269799   6.039755   3.961808
    11  H    5.253839   5.466223   5.191549   6.228638   4.247638
    12  H    5.154843   5.048273   5.355129   6.148344   4.224108
    13  C    6.470871   6.619558   6.713522   7.330945   5.183714
    14  H    6.584273   6.658103   6.994995   7.374207   5.256583
    15  C    7.608631   7.641719   7.756417   8.549116   6.459430
    16  H    7.785648   7.874822   7.779710   8.762245   6.715389
    17  H    8.558409   8.609262   8.753639   9.459606   7.335275
    18  H    7.588131   7.465112   7.769607   8.563800   6.568197
    19  C    2.521454   3.485936   2.786846   2.744341   1.538032
    20  H    2.827277   3.831785   2.650515   3.169594   2.184574
    21  H    2.699348   3.713561   3.040570   2.465843   2.168917
    22  H    3.488837   4.352360   3.823893   3.724035   2.203687
    23  C    6.976406   7.341917   7.157393   7.733116   5.576419
    24  H    8.009445   8.354148   8.230622   8.738909   6.579751
    25  H    7.107866   7.539097   7.121701   7.898491   5.799754
    26  H    6.503517   6.970603   6.757633   7.147084   5.028233
    27  C    2.541280   2.798251   2.819805   3.488947   1.539210
    28  H    2.774142   3.105977   2.608418   3.785932   2.179773
    29  O    2.875367   2.532166   3.287536   3.860772   2.430803
    30  O    3.314472   2.817132   3.376153   4.365905   3.335234
                    6          7          8          9         10
     6  H    0.000000
     7  C    2.786858   0.000000
     8  H    2.575204   1.097081   0.000000
     9  H    3.062498   1.092349   1.755796   0.000000
    10  C    4.228724   1.534301   2.170715   2.165456   0.000000
    11  H    4.756642   2.161741   3.071897   2.487268   1.098434
    12  H    4.426677   2.154489   2.543383   3.059128   1.094112
    13  C    5.265439   2.588258   2.798612   2.868072   1.540700
    14  H    5.107693   2.772915   2.533111   3.161724   2.144822
    15  C    6.600951   3.918855   4.178553   4.296641   2.523684
    16  H    7.023497   4.270750   4.768066   4.543169   2.801238
    17  H    7.391934   4.750646   4.871365   5.020801   3.485465
    18  H    6.663904   4.166136   4.333464   4.777948   2.756998
    19  C    2.152610   3.111922   3.484742   2.711885   4.500333
    20  H    3.071633   3.442789   4.088022   2.969477   4.597475
    21  H    2.521483   4.123658   4.341307   3.726253   5.559579
    22  H    2.485850   2.845912   3.115259   2.164619   4.237688
    23  C    5.717283   3.142786   3.447904   2.844929   2.561323
    24  H    6.629262   4.139535   4.275919   3.854297   3.510394
    25  H    6.132583   3.512006   4.091223   3.106645   2.817038
    26  H    5.101162   2.857351   3.057291   2.282804   2.853142
    27  C    2.137560   1.527716   2.143959   2.132891   2.563942
    28  H    3.056401   2.179801   3.064921   2.566224   2.765204
    29  O    2.643530   2.404000   2.607383   3.348273   2.960260
    30  O    3.779825   3.375608   3.796257   4.270677   3.510806
                   11         12         13         14         15
    11  H    0.000000
    12  H    1.753646   0.000000
    13  C    2.163149   2.153744   0.000000
    14  H    3.052517   2.496129   1.098835   0.000000
    15  C    2.788118   2.665142   1.535147   2.142350   0.000000
    16  H    2.618270   3.023707   2.180750   3.064763   1.095628
    17  H    3.796110   3.678843   2.183922   2.490721   1.093898
    18  H    3.134782   2.440117   2.185564   2.493609   1.093800
    19  C    4.607258   5.071337   5.532901   5.717089   6.905387
    20  H    4.439461   5.211566   5.705267   6.085076   6.966653
    21  H    5.698887   6.091516   6.554637   6.659571   7.958033
    22  H    4.435142   4.968138   5.006499   5.141478   6.459707
    23  C    2.790782   3.487613   1.535799   2.145962   2.523388
    24  H    3.785376   4.313571   2.180115   2.506124   2.737000
    25  H    2.599551   3.780451   2.179942   3.066457   2.811776
    26  H    3.184329   3.859810   2.197731   2.493843   3.490269
    27  C    2.822950   2.755049   3.951455   4.177640   5.078116
    28  H    2.584967   2.980911   4.248423   4.717316   5.196950
    29  O    3.402937   2.566900   4.330756   4.384525   5.203186
    30  O    3.643255   2.926443   4.962765   5.195861   5.539433
                   16         17         18         19         20
    16  H    0.000000
    17  H    1.767071   0.000000
    18  H    1.767836   1.768616   0.000000
    19  C    7.061175   7.703675   7.239217   0.000000
    20  H    6.950703   7.811301   7.346638   1.095342   0.000000
    21  H    8.143371   8.730490   8.280077   1.092978   1.764135
    22  H    6.675896   7.148792   6.910711   1.091582   1.770654
    23  C    2.794920   2.762700   3.484957   5.498423   5.588873
    24  H    3.095183   2.522797   3.747004   6.477521   6.610709
    25  H    2.638766   3.158169   3.819072   5.594346   5.468826
    26  H    3.821355   3.757203   4.346815   4.774660   4.970297
    27  C    5.282976   6.026286   5.137374   2.538151   2.778845
    28  H    5.173824   6.209938   5.290792   2.838517   2.639580
    29  O    5.519474   6.174468   4.947571   3.811117   4.132207
    30  O    5.668378   6.584527   5.163498   4.632856   4.696038
                   21         22         23         24         25
    21  H    0.000000
    22  H    1.760782   0.000000
    23  C    6.475407   4.769244   0.000000
    24  H    7.411242   5.673290   1.093870   0.000000
    25  H    6.600985   4.947298   1.096014   1.766682   0.000000
    26  H    5.673634   3.924785   1.093111   1.761284   1.769041
    27  C    3.484161   2.849332   4.571920   5.611236   4.745662
    28  H    3.807707   3.279393   4.783665   5.866626   4.708091
    29  O    4.594817   4.187808   5.339324   6.298314   5.625762
    30  O    5.409141   5.151182   6.038836   7.013905   6.150219
                   26         27         28         29         30
    26  H    0.000000
    27  C    4.287313   0.000000
    28  H    4.623231   1.093729   0.000000
    29  O    5.230003   1.480290   2.056463   0.000000
    30  O    6.093109   2.342367   2.298192   1.316686   0.000000
 Stoichiometry    C9H19O2(2)
 Framework group  C1[X(C9H19O2)]
 Deg. of freedom    84
 Full point group                 C1      NOp   1
 Largest Abelian subgroup         C1      NOp   1
 Largest concise Abelian subgroup C1      NOp   1
                         Standard orientation:                         
 ---------------------------------------------------------------------
 Center     Atomic      Atomic             Coordinates (Angstroms)
 Number     Number       Type             X           Y           Z
 ---------------------------------------------------------------------
      1          6           0       -3.625641    0.036486    0.057376
      2          1           0       -3.684644    1.035269   -0.376792
      3          1           0       -3.714444    0.136252    1.144254
      4          1           0       -4.487180   -0.536283   -0.296077
      5          6           0       -2.321762   -0.679787   -0.324685
      6          1           0       -2.278337   -0.758812   -1.418337
      7          6           0        0.263133   -0.439795   -0.320277
      8          1           0        0.281321   -0.476278   -1.416600
      9          1           0        0.324835   -1.473293    0.028006
     10          6           0        1.465169    0.359579    0.199522
     11          1           0        1.471130    0.332428    1.297604
     12          1           0        1.340914    1.410153   -0.079649
     13          6           0        2.832182   -0.125048   -0.320255
     14          1           0        2.789243   -0.119939   -1.418239
     15          6           0        3.939390    0.848284    0.107988
     16          1           0        4.029289    0.881534    1.199415
     17          1           0        4.910314    0.545962   -0.295151
     18          1           0        3.732990    1.864611   -0.239686
     19          6           0       -2.302939   -2.100107    0.265128
     20          1           0       -2.261536   -2.070115    1.359276
     21          1           0       -3.216838   -2.630778   -0.013760
     22          1           0       -1.458862   -2.693934   -0.090476
     23          6           0        3.166681   -1.553751    0.133172
     24          1           0        4.150820   -1.859020   -0.234025
     25          1           0        3.187053   -1.619058    1.227049
     26          1           0        2.442099   -2.286093   -0.232271
     27          6           0       -1.086647    0.123009    0.121607
     28          1           0       -1.111818    0.300609    1.200527
     29          8           0       -1.192046    1.466041   -0.491919
     30          8           0       -1.360921    2.434405    0.384103
 ---------------------------------------------------------------------
 Rotational constants (GHZ):      1.6983265      0.5145906      0.4128074
 Standard basis: 6-311G(2d,d,p) (5D, 7F)
 There are   312 symmetry adapted basis functions of A   symmetry.
 Integral buffers will be    131072 words long.
 Raffenetti 2 integral format.
 Two-electron integral symmetry is turned on.
   312 basis functions,   504 primitive gaussians,   323 cartesian basis functions
    45 alpha electrons       44 beta electrons
       nuclear repulsion energy       661.9424286011 Hartrees.
 NAtoms=   30 NActive=   30 NUniq=   30 SFac= 1.00D+00 NAtFMM=   60 NAOKFM=F Big=F
 One-electron integrals computed using PRISM.
 NBasis=   312 RedAO= T  NBF=   312
 NBsUse=   312 1.00D-06 NBFU=   312
 Harris functional with IExCor=  402 diagonalized for initial guess.
 ExpMin= 1.03D-01 ExpMax= 8.59D+03 ExpMxC= 1.30D+03 IAcc=1 IRadAn=         1 AccDes= 0.00D+00
 HarFok:  IExCor=  402 AccDes= 0.00D+00 IRadAn=         1 IDoV= 1
 ScaDFX=  1.000000  1.000000  1.000000  1.000000
 FoFCou: FMM=F IPFlag=           0 FMFlag=      100000 FMFlg1=           0
         NFxFlg=           0 DoJE=T BraDBF=F KetDBF=T FulRan=T
         Omega=  0.000000  0.000000  1.000000  0.000000  0.000000 ICntrl=     500 IOpCl=  0
         NMat0=    1 NMatS0=    1 NMatT0=    0 NMatD0=    1 NMtDS0=    0 NMtDT0=    0
         I1Cent=           4 NGrid=           0.
 Petite list used in FoFCou.
 Initial guess orbital symmetries:
 Alpha Orbitals:
       Occupied  (A) (A) (A) (A) (A) (A) (A) (A) (A) (A) (A) (A)
                 (A) (A) (A) (A) (A) (A) (A) (A) (A) (A) (A) (A)
                 (A) (A) (A) (A) (A) (A) (A) (A) (A) (A) (A) (A)
                 (A) (A) (A) (A) (A) (A) (A) (A) (A)
       Virtual   (A) (A) (A) (A) (A) (A) (A) (A) (A) (A) (A) (A)
                 (A) (A) (A) (A) (A) (A) (A) (A) (A) (A) (A) (A)
                 (A) (A) (A) (A) (A) (A) (A) (A) (A) (A) (A) (A)
                 (A) (A) (A) (A) (A) (A) (A) (A) (A) (A) (A) (A)
                 (A) (A) (A) (A) (A) (A) (A) (A) (A) (A) (A) (A)
                 (A) (A) (A) (A) (A) (A) (A) (A) (A) (A) (A) (A)
                 (A) (A) (A) (A) (A) (A) (A) (A) (A) (A) (A) (A)
                 (A) (A) (A) (A) (A) (A) (A) (A) (A) (A) (A) (A)
                 (A) (A) (A) (A) (A) (A) (A) (A) (A) (A) (A) (A)
                 (A) (A) (A) (A) (A) (A) (A) (A) (A) (A) (A) (A)
                 (A) (A) (A) (A) (A) (A) (A) (A) (A) (A) (A) (A)
                 (A) (A) (A) (A) (A) (A) (A) (A) (A) (A) (A) (A)
                 (A) (A) (A) (A) (A) (A) (A) (A) (A) (A) (A) (A)
                 (A) (A) (A) (A) (A) (A) (A) (A) (A) (A) (A) (A)
                 (A) (A) (A) (A) (A) (A) (A) (A) (A) (A) (A) (A)
                 (A) (A) (A) (A) (A) (A) (A) (A) (A) (A) (A) (A)
                 (A) (A) (A) (A) (A) (A) (A) (A) (A) (A) (A) (A)
                 (A) (A) (A) (A) (A) (A) (A) (A) (A) (A) (A) (A)
                 (A) (A) (A) (A) (A) (A) (A) (A) (A) (A) (A) (A)
                 (A) (A) (A) (A) (A) (A) (A) (A) (A) (A) (A) (A)
                 (A) (A) (A) (A) (A) (A) (A) (A) (A) (A) (A) (A)
                 (A) (A) (A) (A) (A) (A) (A) (A) (A) (A) (A) (A)
                 (A) (A) (A)
 Beta  Orbitals:
       Occupied  (A) (A) (A) (A) (A) (A) (A) (A) (A) (A) (A) (A)
                 (A) (A) (A) (A) (A) (A) (A) (A) (A) (A) (A) (A)
                 (A) (A) (A) (A) (A) (A) (A) (A) (A) (A) (A) (A)
                 (A) (A) (A) (A) (A) (A) (A) (A)
       Virtual   (A) (A) (A) (A) (A) (A) (A) (A) (A) (A) (A) (A)
                 (A) (A) (A) (A) (A) (A) (A) (A) (A) (A) (A) (A)
                 (A) (A) (A) (A) (A) (A) (A) (A) (A) (A) (A) (A)
                 (A) (A) (A) (A) (A) (A) (A) (A) (A) (A) (A) (A)
                 (A) (A) (A) (A) (A) (A) (A) (A) (A) (A) (A) (A)
                 (A) (A) (A) (A) (A) (A) (A) (A) (A) (A) (A) (A)
                 (A) (A) (A) (A) (A) (A) (A) (A) (A) (A) (A) (A)
                 (A) (A) (A) (A) (A) (A) (A) (A) (A) (A) (A) (A)
                 (A) (A) (A) (A) (A) (A) (A) (A) (A) (A) (A) (A)
                 (A) (A) (A) (A) (A) (A) (A) (A) (A) (A) (A) (A)
                 (A) (A) (A) (A) (A) (A) (A) (A) (A) (A) (A) (A)
                 (A) (A) (A) (A) (A) (A) (A) (A) (A) (A) (A) (A)
                 (A) (A) (A) (A) (A) (A) (A) (A) (A) (A) (A) (A)
                 (A) (A) (A) (A) (A) (A) (A) (A) (A) (A) (A) (A)
                 (A) (A) (A) (A) (A) (A) (A) (A) (A) (A) (A) (A)
                 (A) (A) (A) (A) (A) (A) (A) (A) (A) (A) (A) (A)
                 (A) (A) (A) (A) (A) (A) (A) (A) (A) (A) (A) (A)
                 (A) (A) (A) (A) (A) (A) (A) (A) (A) (A) (A) (A)
                 (A) (A) (A) (A) (A) (A) (A) (A) (A) (A) (A) (A)
                 (A) (A) (A) (A) (A) (A) (A) (A) (A) (A) (A) (A)
                 (A) (A) (A) (A) (A) (A) (A) (A) (A) (A) (A) (A)
                 (A) (A) (A) (A) (A) (A) (A) (A) (A) (A) (A) (A)
                 (A) (A) (A) (A)
 The electronic state of the initial guess is 2-A.
 Initial guess <Sx>= 0.0000 <Sy>= 0.0000 <Sz>= 0.5000 <S**2>= 0.7500 S= 0.5000
 Requested convergence on RMS density matrix=1.00D-08 within 128 cycles.
 Requested convergence on MAX density matrix=1.00D-06.
 Requested convergence on             energy=1.00D-06.
 No special actions if energy rises.
 Keep R1 and R2 ints in memory in canonical form, NReq=2755661780.
 Integral accuracy reduced to 1.0D-05 until final iterations.
 Initial convergence to 1.0D-05 achieved.  Increase integral accuracy.
 SCF Done:  E(UB3LYP) =  -504.875047318     A.U. after   19 cycles
             Convg  =    0.4297D-08             -V/T =  2.0043
 <Sx>= 0.0000 <Sy>= 0.0000 <Sz>= 0.5000 <S**2>= 0.7538 S= 0.5019
 <L.S>= 0.000000000000E+00
 Annihilation of the first spin contaminant:
 S**2 before annihilation     0.7538,   after     0.7500
 Range of M.O.s used for correlation:     1   312
 NBasis=   312 NAE=    45 NBE=    44 NFC=     0 NFV=     0
 NROrb=    312 NOA=    45 NOB=    44 NVA=   267 NVB=   268
 Symmetrizing basis deriv contribution to polar:
 IMax=3 JMax=2 DiffMx= 0.00D+00
 G2DrvN: will do    31 centers at a time, making    1 passes doing MaxLOS=2.
 Calling FoFCou, ICntrl=  3107 FMM=F I1Cent=   0 AccDes= 0.00D+00.
 FoFDir/FoFCou used for L=0 through L=2.
 End of G2Drv Frequency-dependent properties file   721 does not exist.
 End of G2Drv Frequency-dependent properties file   722 does not exist.
          IDoAtm=111111111111111111111111111111
          Differentiating once with respect to nuclear coordinates.
          Keep R1 and R2 ints in memory in canonical form, NReq=2738891885.
          There are    93 degrees of freedom in the 1st order CPHF.  IDoFFX=5.
     87 vectors produced by pass  0 Test12= 2.56D-10 1.08D-07 XBig12= 2.58D-01 1.48D-01.
 AX will form    87 AO Fock derivatives at one time.
     87 vectors produced by pass  1 Test12= 2.56D-10 1.08D-07 XBig12= 9.87D-03 1.61D-02.
     87 vectors produced by pass  2 Test12= 2.56D-10 1.08D-07 XBig12= 6.06D-05 1.53D-03.
     87 vectors produced by pass  3 Test12= 2.56D-10 1.08D-07 XBig12= 3.12D-07 8.77D-05.
     58 vectors produced by pass  4 Test12= 2.56D-10 1.08D-07 XBig12= 9.07D-10 2.31D-06.
      7 vectors produced by pass  5 Test12= 2.56D-10 1.08D-07 XBig12= 8.01D-12 2.00D-07.
 Inverted reduced A of dimension   413 with in-core refinement.
 End of Minotr Frequency-dependent properties file   721 does not exist.
 End of Minotr Frequency-dependent properties file   722 does not exist.

 **********************************************************************

            Population analysis using the SCF density.

 **********************************************************************

 Orbital symmetries:
 Alpha Orbitals:
       Occupied  (A) (A) (A) (A) (A) (A) (A) (A) (A) (A) (A) (A)
                 (A) (A) (A) (A) (A) (A) (A) (A) (A) (A) (A) (A)
                 (A) (A) (A) (A) (A) (A) (A) (A) (A) (A) (A) (A)
                 (A) (A) (A) (A) (A) (A) (A) (A) (A)
       Virtual   (A) (A) (A) (A) (A) (A) (A) (A) (A) (A) (A) (A)
                 (A) (A) (A) (A) (A) (A) (A) (A) (A) (A) (A) (A)
                 (A) (A) (A) (A) (A) (A) (A) (A) (A) (A) (A) (A)
                 (A) (A) (A) (A) (A) (A) (A) (A) (A) (A) (A) (A)
                 (A) (A) (A) (A) (A) (A) (A) (A) (A) (A) (A) (A)
                 (A) (A) (A) (A) (A) (A) (A) (A) (A) (A) (A) (A)
                 (A) (A) (A) (A) (A) (A) (A) (A) (A) (A) (A) (A)
                 (A) (A) (A) (A) (A) (A) (A) (A) (A) (A) (A) (A)
                 (A) (A) (A) (A) (A) (A) (A) (A) (A) (A) (A) (A)
                 (A) (A) (A) (A) (A) (A) (A) (A) (A) (A) (A) (A)
                 (A) (A) (A) (A) (A) (A) (A) (A) (A) (A) (A) (A)
                 (A) (A) (A) (A) (A) (A) (A) (A) (A) (A) (A) (A)
                 (A) (A) (A) (A) (A) (A) (A) (A) (A) (A) (A) (A)
                 (A) (A) (A) (A) (A) (A) (A) (A) (A) (A) (A) (A)
                 (A) (A) (A) (A) (A) (A) (A) (A) (A) (A) (A) (A)
                 (A) (A) (A) (A) (A) (A) (A) (A) (A) (A) (A) (A)
                 (A) (A) (A) (A) (A) (A) (A) (A) (A) (A) (A) (A)
                 (A) (A) (A) (A) (A) (A) (A) (A) (A) (A) (A) (A)
                 (A) (A) (A) (A) (A) (A) (A) (A) (A) (A) (A) (A)
                 (A) (A) (A) (A) (A) (A) (A) (A) (A) (A) (A) (A)
                 (A) (A) (A) (A) (A) (A) (A) (A) (A) (A) (A) (A)
                 (A) (A) (A) (A) (A) (A) (A) (A) (A) (A) (A) (A)
                 (A) (A) (A)
 Beta  Orbitals:
       Occupied  (A) (A) (A) (A) (A) (A) (A) (A) (A) (A) (A) (A)
                 (A) (A) (A) (A) (A) (A) (A) (A) (A) (A) (A) (A)
                 (A) (A) (A) (A) (A) (A) (A) (A) (A) (A) (A) (A)
                 (A) (A) (A) (A) (A) (A) (A) (A)
       Virtual   (A) (A) (A) (A) (A) (A) (A) (A) (A) (A) (A) (A)
                 (A) (A) (A) (A) (A) (A) (A) (A) (A) (A) (A) (A)
                 (A) (A) (A) (A) (A) (A) (A) (A) (A) (A) (A) (A)
                 (A) (A) (A) (A) (A) (A) (A) (A) (A) (A) (A) (A)
                 (A) (A) (A) (A) (A) (A) (A) (A) (A) (A) (A) (A)
                 (A) (A) (A) (A) (A) (A) (A) (A) (A) (A) (A) (A)
                 (A) (A) (A) (A) (A) (A) (A) (A) (A) (A) (A) (A)
                 (A) (A) (A) (A) (A) (A) (A) (A) (A) (A) (A) (A)
                 (A) (A) (A) (A) (A) (A) (A) (A) (A) (A) (A) (A)
                 (A) (A) (A) (A) (A) (A) (A) (A) (A) (A) (A) (A)
                 (A) (A) (A) (A) (A) (A) (A) (A) (A) (A) (A) (A)
                 (A) (A) (A) (A) (A) (A) (A) (A) (A) (A) (A) (A)
                 (A) (A) (A) (A) (A) (A) (A) (A) (A) (A) (A) (A)
                 (A) (A) (A) (A) (A) (A) (A) (A) (A) (A) (A) (A)
                 (A) (A) (A) (A) (A) (A) (A) (A) (A) (A) (A) (A)
                 (A) (A) (A) (A) (A) (A) (A) (A) (A) (A) (A) (A)
                 (A) (A) (A) (A) (A) (A) (A) (A) (A) (A) (A) (A)
                 (A) (A) (A) (A) (A) (A) (A) (A) (A) (A) (A) (A)
                 (A) (A) (A) (A) (A) (A) (A) (A) (A) (A) (A) (A)
                 (A) (A) (A) (A) (A) (A) (A) (A) (A) (A) (A) (A)
                 (A) (A) (A) (A) (A) (A) (A) (A) (A) (A) (A) (A)
                 (A) (A) (A) (A) (A) (A) (A) (A) (A) (A) (A) (A)
                 (A) (A) (A) (A)
 The electronic state is 2-A.
 Alpha  occ. eigenvalues --  -19.22850 -19.17773 -10.23612 -10.19156 -10.18022
 Alpha  occ. eigenvalues --  -10.17797 -10.17259 -10.16862 -10.16275 -10.16103
 Alpha  occ. eigenvalues --  -10.15823  -1.18527  -0.88824  -0.81722  -0.80361
 Alpha  occ. eigenvalues --   -0.75598  -0.69492  -0.68808  -0.67684  -0.61830
 Alpha  occ. eigenvalues --   -0.58591  -0.56361  -0.52612  -0.50616  -0.47725
 Alpha  occ. eigenvalues --   -0.47116  -0.45769  -0.44698  -0.43953  -0.42804
 Alpha  occ. eigenvalues --   -0.41152  -0.40397  -0.39527  -0.39038  -0.38716
 Alpha  occ. eigenvalues --   -0.37342  -0.36124  -0.35357  -0.35239  -0.34160
 Alpha  occ. eigenvalues --   -0.32929  -0.32809  -0.32194  -0.27150  -0.27046
 Alpha virt. eigenvalues --    0.03291   0.04326   0.05036   0.06213   0.07381
 Alpha virt. eigenvalues --    0.07574   0.07964   0.09278   0.09758   0.10291
 Alpha virt. eigenvalues --    0.11205   0.11587   0.12219   0.13615   0.13976
 Alpha virt. eigenvalues --    0.14301   0.14608   0.14863   0.15558   0.16550
 Alpha virt. eigenvalues --    0.17514   0.18235   0.20089   0.20920   0.22446
 Alpha virt. eigenvalues --    0.22957   0.23236   0.24382   0.25514   0.27793
 Alpha virt. eigenvalues --    0.29033   0.29627   0.30482   0.32715   0.34551
 Alpha virt. eigenvalues --    0.35373   0.36375   0.38361   0.39232   0.40144
 Alpha virt. eigenvalues --    0.42849   0.43325   0.44922   0.48077   0.48321
 Alpha virt. eigenvalues --    0.50136   0.52030   0.53224   0.54796   0.55185
 Alpha virt. eigenvalues --    0.55928   0.56839   0.57183   0.57424   0.57830
 Alpha virt. eigenvalues --    0.58129   0.58511   0.58795   0.59215   0.59503
 Alpha virt. eigenvalues --    0.60044   0.60342   0.60568   0.61444   0.62350
 Alpha virt. eigenvalues --    0.62628   0.63307   0.63958   0.64592   0.65319
 Alpha virt. eigenvalues --    0.66239   0.66767   0.69024   0.70649   0.74803
 Alpha virt. eigenvalues --    0.78467   0.78932   0.82172   0.83911   0.85190
 Alpha virt. eigenvalues --    0.88549   0.89641   0.91477   0.95121   0.96566
 Alpha virt. eigenvalues --    0.98720   1.00743   1.00800   1.02965   1.06031
 Alpha virt. eigenvalues --    1.08147   1.10176   1.11353   1.12682   1.17131
 Alpha virt. eigenvalues --    1.18995   1.19298   1.22899   1.26213   1.27127
 Alpha virt. eigenvalues --    1.28488   1.30872   1.36031   1.37573   1.38591
 Alpha virt. eigenvalues --    1.39578   1.41001   1.41808   1.43459   1.45305
 Alpha virt. eigenvalues --    1.45934   1.46926   1.48348   1.49072   1.49299
 Alpha virt. eigenvalues --    1.50312   1.51106   1.51818   1.52390   1.52574
 Alpha virt. eigenvalues --    1.53780   1.55281   1.56112   1.57440   1.58054
 Alpha virt. eigenvalues --    1.59487   1.60010   1.61205   1.62361   1.64753
 Alpha virt. eigenvalues --    1.65492   1.66777   1.67736   1.69920   1.71071
 Alpha virt. eigenvalues --    1.71573   1.73187   1.74180   1.75477   1.76436
 Alpha virt. eigenvalues --    1.77770   1.78569   1.78723   1.79446   1.81997
 Alpha virt. eigenvalues --    1.86010   1.89938   1.91273   1.92662   1.95387
 Alpha virt. eigenvalues --    1.97250   1.97780   1.98266   2.02217   2.03450
 Alpha virt. eigenvalues --    2.05053   2.06987   2.08632   2.09030   2.10031
 Alpha virt. eigenvalues --    2.13958   2.15061   2.16301   2.17575   2.21286
 Alpha virt. eigenvalues --    2.22214   2.25610   2.27311   2.29386   2.31383
 Alpha virt. eigenvalues --    2.32312   2.34815   2.35682   2.36685   2.37433
 Alpha virt. eigenvalues --    2.40731   2.41228   2.41876   2.43662   2.44618
 Alpha virt. eigenvalues --    2.46231   2.47078   2.48013   2.48763   2.49663
 Alpha virt. eigenvalues --    2.50583   2.51125   2.51887   2.52675   2.53897
 Alpha virt. eigenvalues --    2.55072   2.55906   2.57593   2.58879   2.59433
 Alpha virt. eigenvalues --    2.61218   2.63177   2.63641   2.64921   2.65061
 Alpha virt. eigenvalues --    2.66500   2.67382   2.69618   2.71569   2.72960
 Alpha virt. eigenvalues --    2.74704   2.76431   2.77028   2.79366   2.80260
 Alpha virt. eigenvalues --    2.81520   2.83278   2.86392   2.87806   2.89709
 Alpha virt. eigenvalues --    2.91467   2.92074   2.94951   3.00949   3.01372
 Alpha virt. eigenvalues --    3.06964   3.09243   3.10411   3.11483   3.16484
 Alpha virt. eigenvalues --    3.30508   3.32844   3.33780   3.45644   3.48881
 Alpha virt. eigenvalues --    3.76370   3.76778   3.77230   3.77709   3.78017
 Alpha virt. eigenvalues --    3.79858   3.80423   3.80924   3.81255   3.83382
 Alpha virt. eigenvalues --    3.84517   3.85136   3.96573   3.98328   4.06179
 Alpha virt. eigenvalues --    4.18819   4.26483   4.28937   4.29207   4.38472
 Alpha virt. eigenvalues --    4.72620   4.74270   4.80109   4.94227   5.19614
 Alpha virt. eigenvalues --    5.93581  23.74545  23.80247  23.81533  23.87319
 Alpha virt. eigenvalues --   23.87804  23.92195  23.93289  23.93743  23.94166
 Alpha virt. eigenvalues --   49.69641  49.78979
  Beta  occ. eigenvalues --  -19.21813 -19.15849 -10.23643 -10.19131 -10.18001
  Beta  occ. eigenvalues --  -10.17796 -10.17254 -10.16864 -10.16278 -10.16103
  Beta  occ. eigenvalues --  -10.15823  -1.15793  -0.86847  -0.81526  -0.79288
  Beta  occ. eigenvalues --   -0.75095  -0.69465  -0.68804  -0.67180  -0.61653
  Beta  occ. eigenvalues --   -0.58397  -0.56342  -0.51386  -0.48203  -0.47090
  Beta  occ. eigenvalues --   -0.46933  -0.45348  -0.43980  -0.43403  -0.41286
  Beta  occ. eigenvalues --   -0.40736  -0.39748  -0.39056  -0.38656  -0.38524
  Beta  occ. eigenvalues --   -0.36758  -0.35691  -0.35278  -0.34873  -0.34078
  Beta  occ. eigenvalues --   -0.32892  -0.32797  -0.31682  -0.25451
  Beta virt. eigenvalues --   -0.10184   0.03329   0.04352   0.05048   0.06287
  Beta virt. eigenvalues --    0.07604   0.07754   0.08071   0.09294   0.09823
  Beta virt. eigenvalues --    0.10407   0.11231   0.11787   0.12501   0.13803
  Beta virt. eigenvalues --    0.14021   0.14436   0.14662   0.15076   0.15611
  Beta virt. eigenvalues --    0.16950   0.17576   0.18306   0.20179   0.20998
  Beta virt. eigenvalues --    0.22617   0.22983   0.23364   0.24519   0.25532
  Beta virt. eigenvalues --    0.27839   0.29053   0.29704   0.30548   0.32751
  Beta virt. eigenvalues --    0.34602   0.35412   0.36484   0.38402   0.39277
  Beta virt. eigenvalues --    0.40242   0.42884   0.43387   0.44954   0.48165
  Beta virt. eigenvalues --    0.48376   0.50158   0.52092   0.53267   0.54913
  Beta virt. eigenvalues --    0.55224   0.55956   0.56846   0.57198   0.57502
  Beta virt. eigenvalues --    0.57908   0.58142   0.58539   0.58827   0.59232
  Beta virt. eigenvalues --    0.59570   0.60057   0.60427   0.60614   0.61557
  Beta virt. eigenvalues --    0.62410   0.62694   0.63315   0.64015   0.64654
  Beta virt. eigenvalues --    0.65387   0.66254   0.66862   0.69088   0.70745
  Beta virt. eigenvalues --    0.75169   0.79112   0.79565   0.82311   0.84937
  Beta virt. eigenvalues --    0.87909   0.89123   0.89880   0.92503   0.95256
  Beta virt. eigenvalues --    0.96657   0.98771   1.01158   1.01280   1.03060
  Beta virt. eigenvalues --    1.06199   1.08265   1.10326   1.11776   1.12869
  Beta virt. eigenvalues --    1.17240   1.19065   1.19395   1.23014   1.26349
  Beta virt. eigenvalues --    1.27322   1.28988   1.31253   1.36066   1.37599
  Beta virt. eigenvalues --    1.38720   1.39599   1.41088   1.41950   1.43660
  Beta virt. eigenvalues --    1.45328   1.45937   1.46961   1.48438   1.49090
  Beta virt. eigenvalues --    1.49332   1.50407   1.51239   1.51858   1.52417
  Beta virt. eigenvalues --    1.52598   1.53855   1.55369   1.56146   1.57483
  Beta virt. eigenvalues --    1.58166   1.59518   1.60053   1.61229   1.62378
  Beta virt. eigenvalues --    1.64782   1.65568   1.66821   1.67766   1.69974
  Beta virt. eigenvalues --    1.71098   1.71635   1.73213   1.74232   1.75511
  Beta virt. eigenvalues --    1.76451   1.77794   1.78583   1.78756   1.79460
  Beta virt. eigenvalues --    1.82025   1.86052   1.89958   1.91337   1.92690
  Beta virt. eigenvalues --    1.95431   1.97283   1.97831   1.98297   2.02279
  Beta virt. eigenvalues --    2.03469   2.05105   2.07025   2.08699   2.09066
  Beta virt. eigenvalues --    2.10036   2.13985   2.15137   2.16323   2.17616
  Beta virt. eigenvalues --    2.21323   2.22280   2.25637   2.27338   2.29416
  Beta virt. eigenvalues --    2.31469   2.32466   2.34868   2.35796   2.37020
  Beta virt. eigenvalues --    2.37892   2.41233   2.41736   2.41959   2.43678
  Beta virt. eigenvalues --    2.44868   2.46322   2.47400   2.48126   2.48942
  Beta virt. eigenvalues --    2.49737   2.50636   2.51178   2.51902   2.52797
  Beta virt. eigenvalues --    2.54056   2.55163   2.55995   2.57783   2.59186
  Beta virt. eigenvalues --    2.59610   2.61378   2.63349   2.63729   2.65087
  Beta virt. eigenvalues --    2.65133   2.66969   2.68159   2.69693   2.71933
  Beta virt. eigenvalues --    2.73686   2.75668   2.76744   2.77563   2.79849
  Beta virt. eigenvalues --    2.82562   2.83577   2.84914   2.87847   2.87965
  Beta virt. eigenvalues --    2.90624   2.91762   2.92363   2.95479   3.01217
  Beta virt. eigenvalues --    3.01794   3.07879   3.09884   3.10962   3.12173
  Beta virt. eigenvalues --    3.16696   3.33010   3.34254   3.35119   3.45758
  Beta virt. eigenvalues --    3.49084   3.76680   3.77071   3.77660   3.77737
  Beta virt. eigenvalues --    3.78163   3.80014   3.80466   3.81115   3.81377
  Beta virt. eigenvalues --    3.83757   3.84545   3.85549   3.96602   3.98426
  Beta virt. eigenvalues --    4.06275   4.18873   4.26561   4.28965   4.29251
  Beta virt. eigenvalues --    4.38549   4.73751   4.81033   4.82094   4.99274
  Beta virt. eigenvalues --    5.20575   5.94987  23.74515  23.80270  23.81534
  Beta virt. eigenvalues --   23.87322  23.87819  23.92201  23.93290  23.93743
  Beta virt. eigenvalues --   23.94166  49.71494  49.80086
          Condensed to atoms (all electrons):
              1          2          3          4          5          6
     1  C    4.871545   0.404327   0.402755   0.402148   0.363494  -0.041170
     2  H    0.404327   0.549751  -0.027813  -0.025619  -0.032334  -0.004444
     3  H    0.402755  -0.027813   0.584522  -0.030203  -0.038954   0.008752
     4  H    0.402148  -0.025619  -0.030203   0.581490  -0.032047  -0.006786
     5  C    0.363494  -0.032334  -0.038954  -0.032047   5.067561   0.405702
     6  H   -0.041170  -0.004444   0.008752  -0.006786   0.405702   0.595623
     7  C    0.008717   0.000365   0.000074  -0.000323  -0.067953  -0.007124
     8  H   -0.000153   0.000060   0.000015   0.000000  -0.004677   0.005697
     9  H   -0.000041   0.000008  -0.000005  -0.000012  -0.004934  -0.000101
    10  C   -0.000317  -0.000058  -0.000013   0.000014   0.007528  -0.000242
    11  H   -0.000004  -0.000004  -0.000012   0.000000   0.000129   0.000004
    12  H   -0.000052   0.000021  -0.000004   0.000000   0.000442   0.000041
    13  C    0.000004   0.000000   0.000000   0.000000  -0.000200  -0.000005
    14  H    0.000000   0.000000   0.000000   0.000000   0.000010  -0.000025
    15  C    0.000000   0.000000   0.000000   0.000000   0.000003   0.000000
    16  H    0.000000   0.000000   0.000000   0.000000   0.000000   0.000000
    17  H    0.000000   0.000000   0.000000   0.000000   0.000000   0.000000
    18  H    0.000000   0.000000   0.000000   0.000000   0.000000   0.000000
    19  C   -0.064229   0.008050  -0.005444  -0.006892   0.350260  -0.038674
    20  H   -0.004485  -0.000192   0.004705  -0.000725  -0.039818   0.009090
    21  H   -0.006951   0.000045  -0.000671   0.004192  -0.030073  -0.005917
    22  H    0.007573  -0.000472  -0.000096   0.000091  -0.030002  -0.006249
    23  C    0.000000   0.000000   0.000000   0.000000   0.000005   0.000001
    24  H    0.000000   0.000000   0.000000   0.000000  -0.000001   0.000000
    25  H    0.000000   0.000000   0.000000   0.000000   0.000002  -0.000001
    26  H    0.000000   0.000000   0.000000   0.000000   0.000024   0.000006
    27  C   -0.068295  -0.006986  -0.006238   0.008344   0.352693  -0.044332
    28  H   -0.006804   0.000714   0.004364  -0.000165  -0.037203   0.008771
    29  O   -0.003820   0.006484  -0.000325   0.000028  -0.040158   0.000595
    30  O    0.003636   0.002702   0.000939   0.000088  -0.002332  -0.000244
              7          8          9         10         11         12
     1  C    0.008717  -0.000153  -0.000041  -0.000317  -0.000004  -0.000052
     2  H    0.000365   0.000060   0.000008  -0.000058  -0.000004   0.000021
     3  H    0.000074   0.000015  -0.000005  -0.000013  -0.000012  -0.000004
     4  H   -0.000323   0.000000  -0.000012   0.000014   0.000000   0.000000
     5  C   -0.067953  -0.004677  -0.004934   0.007528   0.000129   0.000442
     6  H   -0.007124   0.005697  -0.000101  -0.000242   0.000004   0.000041
     7  C    4.979270   0.398496   0.400255   0.347103  -0.043524  -0.042648
     8  H    0.398496   0.578648  -0.029301  -0.040181   0.008661  -0.004557
     9  H    0.400255  -0.029301   0.576535  -0.032035  -0.007233   0.008188
    10  C    0.347103  -0.040181  -0.032035   4.976548   0.400560   0.413049
    11  H   -0.043524   0.008661  -0.007233   0.400560   0.603646  -0.032513
    12  H   -0.042648  -0.004557   0.008188   0.413049  -0.032513   0.568101
    13  C   -0.050231  -0.003806  -0.006037   0.368159  -0.038718  -0.037319
    14  H   -0.007638   0.005551  -0.000363  -0.047809   0.009851  -0.005659
    15  C    0.007672   0.000036  -0.000033  -0.067181  -0.004394  -0.005780
    16  H   -0.000027   0.000023   0.000009  -0.007279   0.004729  -0.000603
    17  H   -0.000414  -0.000009   0.000018   0.008642  -0.000273   0.000154
    18  H    0.000126  -0.000008  -0.000010  -0.005174  -0.000594   0.003968
    19  C   -0.004626  -0.000269  -0.000143  -0.000155  -0.000056   0.000004
    20  H   -0.001637   0.000088   0.000927  -0.000082  -0.000004   0.000001
    21  H    0.000123  -0.000109   0.000175   0.000015  -0.000006   0.000006
    22  H    0.001044   0.000394   0.000490   0.000007   0.000061  -0.000023
    23  C   -0.006032  -0.001017   0.002762  -0.067969  -0.008891   0.007702
    24  H    0.000007  -0.000096  -0.000153   0.008193  -0.000197  -0.000372
    25  H   -0.000891   0.000115   0.000635  -0.006217   0.005696  -0.000057
    26  H    0.001624   0.000456   0.000472  -0.005732  -0.000244  -0.000198
    27  C    0.345605  -0.039547  -0.033434  -0.054291  -0.003247  -0.007957
    28  H   -0.033023   0.008978  -0.004020  -0.008199   0.004219   0.001096
    29  O   -0.050761   0.001425   0.003505   0.000059  -0.000122   0.008279
    30  O    0.001563  -0.000205  -0.000480   0.001723   0.000201   0.003134
             13         14         15         16         17         18
     1  C    0.000004   0.000000   0.000000   0.000000   0.000000   0.000000
     2  H    0.000000   0.000000   0.000000   0.000000   0.000000   0.000000
     3  H    0.000000   0.000000   0.000000   0.000000   0.000000   0.000000
     4  H    0.000000   0.000000   0.000000   0.000000   0.000000   0.000000
     5  C   -0.000200   0.000010   0.000003   0.000000   0.000000   0.000000
     6  H   -0.000005  -0.000025   0.000000   0.000000   0.000000   0.000000
     7  C   -0.050231  -0.007638   0.007672  -0.000027  -0.000414   0.000126
     8  H   -0.003806   0.005551   0.000036   0.000023  -0.000009  -0.000008
     9  H   -0.006037  -0.000363  -0.000033   0.000009   0.000018  -0.000010
    10  C    0.368159  -0.047809  -0.067181  -0.007279   0.008642  -0.005174
    11  H   -0.038718   0.009851  -0.004394   0.004729  -0.000273  -0.000594
    12  H   -0.037319  -0.005659  -0.005780  -0.000603   0.000154   0.003968
    13  C    5.033648   0.409683   0.379222  -0.038175  -0.032506  -0.032602
    14  H    0.409683   0.618961  -0.040286   0.009486  -0.006958  -0.006174
    15  C    0.379222  -0.040286   4.858895   0.402784   0.401956   0.402779
    16  H   -0.038175   0.009486   0.402784   0.593172  -0.031277  -0.030490
    17  H   -0.032506  -0.006958   0.401956  -0.031277   0.585755  -0.027398
    18  H   -0.032602  -0.006174   0.402779  -0.030490  -0.027398   0.580314
    19  C    0.000010  -0.000001   0.000000   0.000000   0.000000   0.000000
    20  H   -0.000002  -0.000001   0.000000   0.000000   0.000000   0.000000
    21  H   -0.000001   0.000000   0.000000   0.000000   0.000000   0.000000
    22  H    0.000028   0.000009   0.000000   0.000000   0.000000   0.000000
    23  C    0.357302  -0.047350  -0.066025  -0.006448  -0.005274   0.008542
    24  H   -0.031612  -0.006172  -0.006183  -0.000649   0.004055   0.000047
    25  H   -0.040150   0.009623  -0.004756   0.004968  -0.000670  -0.000202
    26  H   -0.032139  -0.005941   0.007893  -0.000126  -0.000003  -0.000517
    27  C    0.005836  -0.000042  -0.000255  -0.000011   0.000012  -0.000015
    28  H    0.000054  -0.000019  -0.000013  -0.000007   0.000001  -0.000010
    29  O   -0.000306   0.000020   0.000003   0.000002   0.000000  -0.000037
    30  O    0.000036   0.000002   0.000000   0.000000   0.000000  -0.000016
             19         20         21         22         23         24
     1  C   -0.064229  -0.004485  -0.006951   0.007573   0.000000   0.000000
     2  H    0.008050  -0.000192   0.000045  -0.000472   0.000000   0.000000
     3  H   -0.005444   0.004705  -0.000671  -0.000096   0.000000   0.000000
     4  H   -0.006892  -0.000725   0.004192   0.000091   0.000000   0.000000
     5  C    0.350260  -0.039818  -0.030073  -0.030002   0.000005  -0.000001
     6  H   -0.038674   0.009090  -0.005917  -0.006249   0.000001   0.000000
     7  C   -0.004626  -0.001637   0.000123   0.001044  -0.006032   0.000007
     8  H   -0.000269   0.000088  -0.000109   0.000394  -0.001017  -0.000096
     9  H   -0.000143   0.000927   0.000175   0.000490   0.002762  -0.000153
    10  C   -0.000155  -0.000082   0.000015   0.000007  -0.067969   0.008193
    11  H   -0.000056  -0.000004  -0.000006   0.000061  -0.008891  -0.000197
    12  H    0.000004   0.000001   0.000006  -0.000023   0.007702  -0.000372
    13  C    0.000010  -0.000002  -0.000001   0.000028   0.357302  -0.031612
    14  H   -0.000001  -0.000001   0.000000   0.000009  -0.047350  -0.006172
    15  C    0.000000   0.000000   0.000000   0.000000  -0.066025  -0.006183
    16  H    0.000000   0.000000   0.000000   0.000000  -0.006448  -0.000649
    17  H    0.000000   0.000000   0.000000   0.000000  -0.005274   0.004055
    18  H    0.000000   0.000000   0.000000   0.000000   0.008542   0.000047
    19  C    4.897121   0.400181   0.402842   0.402485  -0.000018   0.000000
    20  H    0.400181   0.586706  -0.029536  -0.030546  -0.000001   0.000000
    21  H    0.402842  -0.029536   0.570281  -0.026180   0.000000   0.000000
    22  H    0.402485  -0.030546  -0.026180   0.576623  -0.000008  -0.000002
    23  C   -0.000018  -0.000001   0.000000  -0.000008   4.896103   0.403576
    24  H    0.000000   0.000000   0.000000  -0.000002   0.403576   0.580733
    25  H   -0.000001   0.000002   0.000000  -0.000006   0.400168  -0.030302
    26  H   -0.000010  -0.000005  -0.000003   0.000133   0.402403  -0.028142
    27  C   -0.062264  -0.004985   0.007614  -0.006021  -0.000068   0.000015
    28  H   -0.001156   0.003679   0.000000  -0.000491  -0.000042   0.000000
    29  O    0.002764  -0.000011  -0.000147  -0.000035  -0.000006   0.000000
    30  O   -0.000162  -0.000135   0.000012   0.000000  -0.000001   0.000000
             25         26         27         28         29         30
     1  C    0.000000   0.000000  -0.068295  -0.006804  -0.003820   0.003636
     2  H    0.000000   0.000000  -0.006986   0.000714   0.006484   0.002702
     3  H    0.000000   0.000000  -0.006238   0.004364  -0.000325   0.000939
     4  H    0.000000   0.000000   0.008344  -0.000165   0.000028   0.000088
     5  C    0.000002   0.000024   0.352693  -0.037203  -0.040158  -0.002332
     6  H   -0.000001   0.000006  -0.044332   0.008771   0.000595  -0.000244
     7  C   -0.000891   0.001624   0.345605  -0.033023  -0.050761   0.001563
     8  H    0.000115   0.000456  -0.039547   0.008978   0.001425  -0.000205
     9  H    0.000635   0.000472  -0.033434  -0.004020   0.003505  -0.000480
    10  C   -0.006217  -0.005732  -0.054291  -0.008199   0.000059   0.001723
    11  H    0.005696  -0.000244  -0.003247   0.004219  -0.000122   0.000201
    12  H   -0.000057  -0.000198  -0.007957   0.001096   0.008279   0.003134
    13  C   -0.040150  -0.032139   0.005836   0.000054  -0.000306   0.000036
    14  H    0.009623  -0.005941  -0.000042  -0.000019   0.000020   0.000002
    15  C   -0.004756   0.007893  -0.000255  -0.000013   0.000003   0.000000
    16  H    0.004968  -0.000126  -0.000011  -0.000007   0.000002   0.000000
    17  H   -0.000670  -0.000003   0.000012   0.000001   0.000000   0.000000
    18  H   -0.000202  -0.000517  -0.000015  -0.000010  -0.000037  -0.000016
    19  C   -0.000001  -0.000010  -0.062264  -0.001156   0.002764  -0.000162
    20  H    0.000002  -0.000005  -0.004985   0.003679  -0.000011  -0.000135
    21  H    0.000000  -0.000003   0.007614   0.000000  -0.000147   0.000012
    22  H   -0.000006   0.000133  -0.006021  -0.000491  -0.000035   0.000000
    23  C    0.400168   0.402403  -0.000068  -0.000042  -0.000006  -0.000001
    24  H   -0.030302  -0.028142   0.000015   0.000000   0.000000   0.000000
    25  H    0.593050  -0.031489  -0.000078  -0.000008   0.000002   0.000000
    26  H   -0.031489   0.589428   0.000005   0.000019  -0.000004   0.000000
    27  C   -0.000078   0.000005   5.104622   0.385105   0.161348  -0.068165
    28  H   -0.000008   0.000019   0.385105   0.554337  -0.030129   0.017924
    29  O    0.000002  -0.000004   0.161348  -0.030129   8.034998   0.052107
    30  O    0.000000   0.000000  -0.068165   0.017924   0.052107   8.151448
 Mulliken atomic charges:
              1
     1  C   -0.267877
     2  H    0.125392
     3  H    0.103653
     4  H    0.106376
     5  C   -0.187169
     6  H    0.121031
     7  C   -0.175191
     8  H    0.115294
     9  H    0.124354
    10  C   -0.188668
    11  H    0.102278
    12  H    0.123555
    13  C   -0.210174
    14  H    0.111242
    15  C   -0.266339
    16  H    0.099919
    17  H    0.104189
    18  H    0.107471
    19  C   -0.279618
    20  H    0.106785
    21  H    0.114287
    22  H    0.111189
    23  C   -0.269416
    24  H    0.107254
    25  H    0.100567
    26  H    0.102091
    27  C    0.035030
    28  H    0.132028
    29  O   -0.145758
    30  O   -0.163774
 Sum of Mulliken atomic charges =   0.00000
 Mulliken charges with hydrogens summed into heavy atoms:
              1
     1  C    0.067544
     5  C   -0.066138
     7  C    0.064457
    10  C    0.037165
    13  C   -0.098932
    15  C    0.045240
    19  C    0.052643
    23  C    0.040496
    27  C    0.167058
    29  O   -0.145758
    30  O   -0.163774
 Sum of Mulliken charges with hydrogens summed into heavy atoms =   0.00000
          Atomic-Atomic Spin Densities.
              1          2          3          4          5          6
     1  C   -0.003435   0.000216   0.000147  -0.000056   0.003010   0.000094
     2  H    0.000216  -0.000537  -0.000028  -0.000053   0.001553  -0.000032
     3  H    0.000147  -0.000028   0.000436  -0.000049   0.000049  -0.000007
     4  H   -0.000056  -0.000053  -0.000049   0.000866   0.000129  -0.000054
     5  C    0.003010   0.001553   0.000049   0.000129  -0.002284  -0.000018
     6  H    0.000094  -0.000032  -0.000007  -0.000054  -0.000018  -0.000510
     7  C   -0.000479  -0.000163  -0.000036  -0.000019   0.001412   0.000255
     8  H   -0.000004  -0.000004   0.000000   0.000002   0.000188  -0.000040
     9  H    0.000041   0.000010   0.000009   0.000009   0.001229  -0.000099
    10  C    0.000018   0.000010   0.000001   0.000000  -0.000413  -0.000005
    11  H    0.000001   0.000000   0.000000   0.000000  -0.000013   0.000000
    12  H    0.000013   0.000012   0.000001   0.000000  -0.000198  -0.000001
    13  C    0.000000   0.000000   0.000000   0.000000  -0.000016   0.000005
    14  H    0.000000   0.000000   0.000000   0.000000   0.000000  -0.000001
    15  C    0.000000   0.000000   0.000000   0.000000   0.000000   0.000000
    16  H    0.000000   0.000000   0.000000   0.000000   0.000000   0.000000
    17  H    0.000000   0.000000   0.000000   0.000000   0.000000   0.000000
    18  H    0.000000   0.000000   0.000000   0.000000   0.000000   0.000000
    19  C   -0.000103  -0.000198   0.000000  -0.000563  -0.005093   0.000244
    20  H    0.000067   0.000000   0.000013  -0.000014  -0.000216   0.000005
    21  H   -0.000087   0.000054   0.000019   0.000222   0.001031  -0.000114
    22  H   -0.000002  -0.000002  -0.000002  -0.000006  -0.000231   0.000024
    23  C    0.000000   0.000000   0.000000   0.000000   0.000004   0.000000
    24  H    0.000000   0.000000   0.000000   0.000000   0.000000   0.000000
    25  H    0.000000   0.000000   0.000000   0.000000   0.000000   0.000000
    26  H    0.000000   0.000000   0.000000   0.000000  -0.000002   0.000001
    27  C    0.000802  -0.000106   0.000090   0.000114   0.006369   0.000098
    28  H   -0.000104  -0.000042  -0.000044  -0.000010   0.000001  -0.000048
    29  O   -0.003394  -0.002264  -0.000180  -0.000193   0.005518   0.000208
    30  O    0.001040  -0.000183   0.000136   0.000052   0.000154  -0.000079
              7          8          9         10         11         12
     1  C   -0.000479  -0.000004   0.000041   0.000018   0.000001   0.000013
     2  H   -0.000163  -0.000004   0.000010   0.000010   0.000000   0.000012
     3  H   -0.000036   0.000000   0.000009   0.000001   0.000000   0.000001
     4  H   -0.000019   0.000002   0.000009   0.000000   0.000000   0.000000
     5  C    0.001412   0.000188   0.001229  -0.000413  -0.000013  -0.000198
     6  H    0.000255  -0.000040  -0.000099  -0.000005   0.000000  -0.000001
     7  C   -0.005926   0.000255  -0.001369   0.003157   0.000033   0.002296
     8  H    0.000255  -0.000381   0.000023   0.000026   0.000002  -0.000015
     9  H   -0.001369   0.000023   0.004871   0.000107   0.000109  -0.000184
    10  C    0.003157   0.000026   0.000107  -0.002921   0.000152   0.000147
    11  H    0.000033   0.000002   0.000109   0.000152   0.000480  -0.000128
    12  H    0.002296  -0.000015  -0.000184   0.000147  -0.000128  -0.001223
    13  C   -0.000489  -0.000008  -0.000779  -0.000783  -0.000276   0.000143
    14  H    0.000105   0.000020   0.000052   0.000160   0.000002  -0.000101
    15  C    0.000026   0.000004   0.000014   0.000143   0.000010  -0.000103
    16  H    0.000006   0.000000   0.000003   0.000030   0.000004  -0.000023
    17  H   -0.000001   0.000000  -0.000002  -0.000013   0.000000   0.000004
    18  H   -0.000031   0.000000   0.000002  -0.000138   0.000008   0.000173
    19  C    0.001189  -0.000085  -0.001131   0.000040   0.000002   0.000015
    20  H    0.000091   0.000003  -0.000087  -0.000002   0.000000   0.000000
    21  H   -0.000059   0.000004   0.000113  -0.000002   0.000000  -0.000001
    22  H    0.000067   0.000001  -0.000136  -0.000001   0.000000   0.000001
    23  C   -0.000023  -0.000004   0.000184   0.000112   0.000037   0.000128
    24  H    0.000007   0.000001   0.000013   0.000016   0.000001  -0.000005
    25  H    0.000010   0.000002   0.000032   0.000023   0.000006  -0.000013
    26  H   -0.000021  -0.000002  -0.000118  -0.000034  -0.000002   0.000006
    27  C    0.005387   0.000355  -0.000837   0.000149  -0.000043  -0.000292
    28  H    0.000115  -0.000145  -0.000009   0.000131  -0.000037  -0.000016
    29  O    0.003569  -0.000175   0.000511  -0.001970  -0.000010  -0.002812
    30  O    0.000447  -0.000051  -0.000070   0.000538   0.000007  -0.000210
             13         14         15         16         17         18
     1  C    0.000000   0.000000   0.000000   0.000000   0.000000   0.000000
     2  H    0.000000   0.000000   0.000000   0.000000   0.000000   0.000000
     3  H    0.000000   0.000000   0.000000   0.000000   0.000000   0.000000
     4  H    0.000000   0.000000   0.000000   0.000000   0.000000   0.000000
     5  C   -0.000016   0.000000   0.000000   0.000000   0.000000   0.000000
     6  H    0.000005  -0.000001   0.000000   0.000000   0.000000   0.000000
     7  C   -0.000489   0.000105   0.000026   0.000006  -0.000001  -0.000031
     8  H   -0.000008   0.000020   0.000004   0.000000   0.000000   0.000000
     9  H   -0.000779   0.000052   0.000014   0.000003  -0.000002   0.000002
    10  C   -0.000783   0.000160   0.000143   0.000030  -0.000013  -0.000138
    11  H   -0.000276   0.000002   0.000010   0.000004   0.000000   0.000008
    12  H    0.000143  -0.000101  -0.000103  -0.000023   0.000004   0.000173
    13  C    0.002571  -0.000416  -0.000178  -0.000049   0.000022   0.000032
    14  H   -0.000416   0.000117   0.000025   0.000003  -0.000013   0.000027
    15  C   -0.000178   0.000025  -0.000033  -0.000004   0.000031   0.000089
    16  H   -0.000049   0.000003  -0.000004   0.000005  -0.000008   0.000018
    17  H    0.000022  -0.000013   0.000031  -0.000008   0.000013  -0.000012
    18  H    0.000032   0.000027   0.000089   0.000018  -0.000012  -0.000163
    19  C    0.000008   0.000000   0.000000   0.000000   0.000000   0.000000
    20  H    0.000001   0.000000   0.000000   0.000000   0.000000   0.000000
    21  H    0.000000   0.000000   0.000000   0.000000   0.000000   0.000000
    22  H    0.000003   0.000000   0.000000   0.000000   0.000000   0.000000
    23  C    0.000187   0.000092  -0.000012   0.000016  -0.000002  -0.000035
    24  H   -0.000065   0.000010   0.000003   0.000002  -0.000009   0.000003
    25  H   -0.000096   0.000004   0.000007   0.000002  -0.000003   0.000003
    26  H    0.000109  -0.000012  -0.000003  -0.000001   0.000001  -0.000001
    27  C    0.000180  -0.000019  -0.000003  -0.000001   0.000000   0.000003
    28  H    0.000031   0.000001   0.000000   0.000000   0.000000   0.000001
    29  O   -0.000202   0.000013   0.000003   0.000000   0.000000   0.000013
    30  O    0.000035  -0.000003  -0.000002  -0.000001   0.000000   0.000002
             19         20         21         22         23         24
     1  C   -0.000103   0.000067  -0.000087  -0.000002   0.000000   0.000000
     2  H   -0.000198   0.000000   0.000054  -0.000002   0.000000   0.000000
     3  H    0.000000   0.000013   0.000019  -0.000002   0.000000   0.000000
     4  H   -0.000563  -0.000014   0.000222  -0.000006   0.000000   0.000000
     5  C   -0.005093  -0.000216   0.001031  -0.000231   0.000004   0.000000
     6  H    0.000244   0.000005  -0.000114   0.000024   0.000000   0.000000
     7  C    0.001189   0.000091  -0.000059   0.000067  -0.000023   0.000007
     8  H   -0.000085   0.000003   0.000004   0.000001  -0.000004   0.000001
     9  H   -0.001131  -0.000087   0.000113  -0.000136   0.000184   0.000013
    10  C    0.000040  -0.000002  -0.000002  -0.000001   0.000112   0.000016
    11  H    0.000002   0.000000   0.000000   0.000000   0.000037   0.000001
    12  H    0.000015   0.000000  -0.000001   0.000001   0.000128  -0.000005
    13  C    0.000008   0.000001   0.000000   0.000003   0.000187  -0.000065
    14  H    0.000000   0.000000   0.000000   0.000000   0.000092   0.000010
    15  C    0.000000   0.000000   0.000000   0.000000  -0.000012   0.000003
    16  H    0.000000   0.000000   0.000000   0.000000   0.000016   0.000002
    17  H    0.000000   0.000000   0.000000   0.000000  -0.000002  -0.000009
    18  H    0.000000   0.000000   0.000000   0.000000  -0.000035   0.000003
    19  C    0.011518   0.000322  -0.001985   0.000296  -0.000002   0.000000
    20  H    0.000322  -0.000314  -0.000038   0.000007   0.000000   0.000000
    21  H   -0.001985  -0.000038   0.001787  -0.000087   0.000000   0.000000
    22  H    0.000296   0.000007  -0.000087  -0.000099  -0.000001   0.000000
    23  C   -0.000002   0.000000   0.000000  -0.000001  -0.000606   0.000030
    24  H    0.000000   0.000000   0.000000   0.000000   0.000030   0.000004
    25  H    0.000000   0.000000   0.000000   0.000000   0.000059   0.000007
    26  H    0.000002   0.000000   0.000000   0.000001   0.000000  -0.000019
    27  C   -0.002654  -0.000149   0.000181  -0.000017   0.000002  -0.000001
    28  H    0.000129   0.000169  -0.000051   0.000016  -0.000001   0.000000
    29  O    0.000591   0.000016  -0.000027   0.000007   0.000005   0.000000
    30  O   -0.000082   0.000005   0.000004  -0.000001   0.000000   0.000000
             25         26         27         28         29         30
     1  C    0.000000   0.000000   0.000802  -0.000104  -0.003394   0.001040
     2  H    0.000000   0.000000  -0.000106  -0.000042  -0.002264  -0.000183
     3  H    0.000000   0.000000   0.000090  -0.000044  -0.000180   0.000136
     4  H    0.000000   0.000000   0.000114  -0.000010  -0.000193   0.000052
     5  C    0.000000  -0.000002   0.006369   0.000001   0.005518   0.000154
     6  H    0.000000   0.000001   0.000098  -0.000048   0.000208  -0.000079
     7  C    0.000010  -0.000021   0.005387   0.000115   0.003569   0.000447
     8  H    0.000002  -0.000002   0.000355  -0.000145  -0.000175  -0.000051
     9  H    0.000032  -0.000118  -0.000837  -0.000009   0.000511  -0.000070
    10  C    0.000023  -0.000034   0.000149   0.000131  -0.001970   0.000538
    11  H    0.000006  -0.000002  -0.000043  -0.000037  -0.000010   0.000007
    12  H   -0.000013   0.000006  -0.000292  -0.000016  -0.002812  -0.000210
    13  C   -0.000096   0.000109   0.000180   0.000031  -0.000202   0.000035
    14  H    0.000004  -0.000012  -0.000019   0.000001   0.000013  -0.000003
    15  C    0.000007  -0.000003  -0.000003   0.000000   0.000003  -0.000002
    16  H    0.000002  -0.000001  -0.000001   0.000000   0.000000  -0.000001
    17  H   -0.000003   0.000001   0.000000   0.000000   0.000000   0.000000
    18  H    0.000003  -0.000001   0.000003   0.000001   0.000013   0.000002
    19  C    0.000000   0.000002  -0.002654   0.000129   0.000591  -0.000082
    20  H    0.000000   0.000000  -0.000149   0.000169   0.000016   0.000005
    21  H    0.000000   0.000000   0.000181  -0.000051  -0.000027   0.000004
    22  H    0.000000   0.000001  -0.000017   0.000016   0.000007  -0.000001
    23  C    0.000059   0.000000   0.000002  -0.000001   0.000005   0.000000
    24  H    0.000007  -0.000019  -0.000001   0.000000   0.000000   0.000000
    25  H   -0.000002  -0.000010  -0.000005  -0.000001   0.000001   0.000000
    26  H   -0.000010   0.000047   0.000007   0.000002  -0.000001   0.000000
    27  C   -0.000005   0.000007  -0.015750   0.001856  -0.018253   0.002570
    28  H   -0.000001   0.000002   0.001856  -0.002485   0.000729  -0.002249
    29  O    0.000001  -0.000001  -0.018253   0.000729   0.467166  -0.135902
    30  O    0.000000   0.000000   0.002570  -0.002249  -0.135902   0.821596
 Mulliken atomic spin densities:
              1
     1  C   -0.002215
     2  H   -0.001758
     3  H    0.000554
     4  H    0.000377
     5  C    0.012163
     6  H   -0.000075
     7  C    0.009812
     8  H   -0.000031
     9  H    0.002511
    10  C   -0.001322
    11  H    0.000344
    12  H   -0.002384
    13  C   -0.000031
    14  H    0.000066
    15  C    0.000019
    16  H    0.000002
    17  H    0.000007
    18  H   -0.000005
    19  C    0.002458
    20  H   -0.000122
    21  H    0.000961
    22  H   -0.000164
    23  C    0.000169
    24  H   -0.000002
    25  H    0.000025
    26  H   -0.000051
    27  C   -0.019967
    28  H   -0.002062
    29  O    0.312968
    30  O    0.687754
 Sum of Mulliken atomic spin densities =   1.00000
 APT atomic charges:
              1
     1  C   -1.317652
     2  H    0.314564
     3  H    0.316414
     4  H    0.676731
     5  C   -0.399332
     6  H    0.334367
     7  C   -0.522601
     8  H    0.303909
     9  H    0.327578
    10  C   -0.475214
    11  H    0.279329
    12  H    0.290858
    13  C   -0.406595
    14  H    0.310108
    15  C   -1.341267
    16  H    0.322816
    17  H    0.724585
    18  H    0.269317
    19  C   -1.116821
    20  H    0.276177
    21  H    0.695900
    22  H    0.168338
    23  C   -1.146855
    24  H    0.732561
    25  H    0.295065
    26  H    0.111536
    27  C   -0.022931
    28  H    0.275015
    29  O   -0.052108
    30  O   -0.223791
 Sum of APT charges=   0.00000
 APT Atomic charges with hydrogens summed into heavy atoms:
              1
     1  C   -0.009943
     2  H    0.000000
     3  H    0.000000
     4  H    0.000000
     5  C   -0.064965
     6  H    0.000000
     7  C    0.108886
     8  H    0.000000
     9  H    0.000000
    10  C    0.094972
[...]
 93,0.00029934,0.00011484,0.00001941,-0.00188898,-0.00060254,-0.0005439
 2,-0.02829120,-0.00839865,-0.01246697,0.00036390,0.00116269,0.00025336
 ,-0.00148867,0.00140448,-0.00063007,0.00008964,-0.00010376,-0.00003725
 ,0.00087995,-0.00040520,0.00022273,0.00017092,0.00044986,0.00022636,-0
 .00003357,-0.00002300,-0.00000002,-0.00000208,-0.00000186,-0.00000683,
 0.00000322,0.00001484,-0.00000333,-0.00000425,0.00001160,0.00001326,-0
 .05786441,-0.06205799,-0.02283228,0.06581208,0.06918900,0.00000199,-0.
 00000211,-0.00000333,-0.00000113,-0.00000175,0.00000123,0.00000113,0.0
 0000116,0.00000031,0.00000016,0.00000089,0.00000115,-0.00000186,0.0000
 0444,0.00000375,0.00000024,-0.00000286,0.00000194,0.00003794,0.0000883
 5,0.00016330,-0.00003717,-0.00004216,0.00001812,-0.00003770,0.00001473
 ,-0.00016345,0.00015205,0.00157147,-0.00022001,0.00025472,0.00025156,0
 .00041844,0.00031453,0.00016406,0.00054703,0.00964848,0.00273990,0.002
 78889,0.00025585,-0.00061589,0.00039836,-0.00005223,-0.00036888,0.0000
 5796,-0.00018927,-0.00003432,-0.00008407,0.00003051,-0.00017915,0.0002
 6851,0.00024185,-0.00004166,-0.00011017,-0.00000432,-0.00000104,-0.000
 01386,0.00001169,0.00000274,0.00001026,-0.00000300,-0.00000129,0.00000
 804,-0.00000210,-0.00000143,-0.00000875,-0.08202015,-0.02353038,-0.078
 70962,0.08994433,0.02414255,0.08135303,0.00000083,-0.00000075,-0.00000
 491,-0.00000087,0.00000458,0.00000050,-0.00000392,-0.00000121,-0.00000
 166,0.00000531,-0.00000282,0.00000013,-0.00000300,-0.00000197,0.000003
 91,0.00000843,0.00000409,-0.00001155,-0.00013713,0.00000542,-0.0000314
 2,0.00014284,0.00007371,-0.00014419,-0.00007432,0.00012260,0.00016887,
 0.00056907,0.00036862,0.00145644,0.00011315,-0.00012543,-0.00037528,0.
 00006598,0.00011141,-0.00021688,-0.00147851,-0.00115628,0.00815124,0.0
 0027454,-0.00168684,0.00048974,0.00000022,0.00033175,-0.00083908,0.000
 29638,0.00012268,-0.00001408,0.00002105,-0.00000681,-0.00013897,-0.000
 13081,-0.00000700,0.00011171,0.00001332,-0.00000101,0.00000771,-0.0000
 2353,-0.00000683,-0.00002010,0.00001408,0.00000207,-0.00000943,-0.0000
 0393,0.00001192,0.00002928,-0.04741265,0.00044343,0.00384725,0.0014338
 9,0.00226752,-0.02991318,0.04662859,-0.00000005,-0.00000292,0.00000337
 ,-0.00000172,-0.00000029,0.00000121,0.,0.00000243,0.00000054,0.0000014
 0,-0.00000096,-0.00000118,-0.00001171,-0.00000202,-0.00000589,0.000001
 09,-0.00000708,0.00000408,-0.00006820,0.00002690,-0.00008982,0.0001367
 4,-0.00011731,-0.00004491,-0.00003385,0.00000263,-0.00004557,0.0010823
 5,0.00167443,0.00090720,-0.00027350,0.00002426,-0.00079616,0.00034110,
 0.00020111,-0.00031270,-0.00077861,-0.00346140,0.03258587,-0.00148241,
 -0.00588092,0.00180486,-0.00054379,0.00175220,0.00108513,0.00029858,-0
 .00007850,-0.00085306,0.00005196,-0.00011327,-0.00007395,-0.00013136,0
 .00028099,-0.00040372,-0.00000436,-0.00000946,-0.00000392,0.00000892,0
 .00000987,0.00000963,0.00000120,-0.00000141,0.00000178,-0.00000192,0.0
 0000635,-0.00001733,0.00022661,-0.04779958,0.01576221,0.00090201,-0.00
 038542,-0.00800987,0.00147566,0.05243937,0.00001124,-0.00002182,-0.000
 00684,-0.00000645,-0.00000333,0.00000109,0.00000256,0.00000503,0.00000
 767,0.00001129,0.00000155,-0.00000080,0.00000561,0.00004213,-0.0000011
 3,-0.00000782,-0.00000904,0.00001738,0.00019964,0.00015484,0.00005337,
 -0.00014486,-0.00005455,0.00011744,0.00010477,-0.00003375,-0.00023061,
 -0.00059017,-0.00073236,0.00064474,0.00067776,0.00036302,0.00054219,0.
 00001494,0.00000522,0.00037230,0.00065336,0.00151837,-0.01131099,0.000
 41776,0.00217164,0.00112041,0.00009538,-0.00069366,0.00058379,-0.00049
 114,0.00059788,0.00050047,0.00005286,0.00000127,-0.00003279,-0.0000269
 7,0.00008208,0.00037291,-0.00000682,-0.00000081,-0.00002332,0.00002121
 ,0.00001225,0.00002921,-0.00000047,-0.00000797,0.00000988,0.00000061,0
 .00000452,-0.00002960,0.00377656,0.01601624,-0.29888392,0.00032926,0.0
 0032830,-0.01062753,-0.00490417,-0.02016682,0.32735962,0.00001528,-0.0
 0002224,-0.00000897,-0.00000729,0.00000017,0.00000295,-0.00000322,0.00
 000223,-0.00000091,0.00001663,-0.00000045,-0.00000015,0.00002076,0.000
 04359,0.00003189,-0.00000112,0.00000021,-0.00000487,-0.00112398,-0.000
 39326,-0.00015305,-0.00000803,0.00003508,0.00006334,-0.00150122,-0.001
 00830,-0.00000479,0.00032282,0.00060182,-0.00040871,-0.00006983,-0.000
 07992,-0.00002474,0.00014351,0.00010803,0.00012549,0.00582506,-0.00539
 117,-0.00395580,0.00033734,0.00069988,-0.00039823,0.00006872,-0.000885
 01,-0.00007971,-0.00008686,-0.00010426,0.00000177,0.00042033,-0.000236
 21,0.00017417,0.00042530,-0.00022248,0.00015091,0.00001537,-0.00002315
 ,-0.00001222,-0.00000456,0.00000405,-0.00000092,0.00002210,-0.00000007
 ,0.00000354,-0.00001171,0.00002765,0.00000692,-0.16220742,0.11367177,0
 .06186994,-0.01936571,0.01911327,0.01137071,-0.00027207,-0.00115506,-0
 .00023289,0.17697386,-0.00000119,-0.00001421,-0.00001288,-0.00000098,0
 .00001309,0.00000234,0.00000032,0.00000320,0.00000656,0.00001891,-0.00
 000524,-0.00000203,-0.00006047,-0.00000806,0.00001854,-0.00000875,-0.0
 0000971,0.00000850,0.00022533,-0.00042023,0.00025524,-0.00009738,-0.00
 014430,0.00014873,-0.00077546,0.00052798,-0.00039833,0.00112497,0.0005
 1818,-0.00032948,-0.00011866,-0.00002442,0.00003029,0.00001947,0.00011
 269,0.00014805,0.02162847,-0.01789833,-0.01213589,0.00004190,0.0012636
 5,0.00038975,-0.00330211,-0.00548247,0.00290561,-0.00023327,0.00023614
 ,-0.00007475,-0.00002069,0.00027650,0.00017361,0.00149320,-0.00141994,
 -0.00057250,-0.00002691,-0.00004464,-0.00003927,-0.00000668,0.00000899
 ,0.00000590,0.00004373,0.00000378,0.00000099,-0.00000976,0.00006758,0.
 00001364,0.11244422,-0.15805816,-0.06001611,-0.00521772,0.00562209,0.0
 0378535,-0.00233001,0.00137827,0.00042074,-0.12459461,0.17294940,-0.00
 000384,0.00001266,-0.00001845,0.00000527,0.00001124,0.00000163,-0.0000
 0217,-0.00000362,-0.00000010,0.00000382,-0.00000399,0.00000225,-0.0000
 0124,-0.00001996,0.00003940,0.00000554,0.00000718,-0.00001579,0.000420
 46,-0.00041168,0.00054735,0.00006644,0.00012293,-0.00019023,-0.0003047
 9,0.00027704,0.00005618,0.00032072,-0.00065939,0.00002005,0.00006289,-
 0.00001999,0.00001661,-0.00014695,0.00002534,-0.00004319,-0.00810492,0
 .00650397,0.00265309,-0.00050539,-0.00048324,0.00054849,0.00052537,0.0
 0176642,-0.00013149,-0.00015932,0.00035906,0.00038912,0.00030047,-0.00
 008730,-0.00007812,-0.00020620,0.00054504,0.00060026,-0.00002724,-0.00
 002692,-0.00003519,-0.00002399,-0.00000889,-0.00002067,0.00003050,0.00
 001123,-0.00000393,-0.00001177,0.00002840,0.00006278,0.06162106,-0.060
 71658,-0.08029391,-0.00770634,0.00857756,0.00392662,0.02242261,-0.0213
 3460,-0.01060462,-0.06849335,0.06530477,0.08275426,-0.03253350,0.01367
 386,0.00801405,0.00056040,0.00054630,0.00027582,0.00179428,0.00060979,
 0.00092468,-0.00352604,-0.00281413,-0.00098807,-0.13031969,0.02892128,
 0.02395135,-0.00179917,0.00181176,0.00150140,-0.15229919,-0.02733630,-
 0.02996896,-0.00316985,-0.00253145,-0.00200674,-0.00077622,-0.00118679
 ,-0.00079969,-0.03148593,-0.00794542,-0.00640448,0.00178299,-0.0006057
 1,-0.00101059,0.00113769,-0.00103582,-0.00028675,-0.00149167,0.0031288
 6,0.00192602,-0.00008467,0.00006090,-0.00016754,-0.00067491,-0.0005441
 4,-0.00053146,-0.00000007,-0.00001976,0.00001692,-0.00017506,0.0002818
 5,0.00012921,-0.00002003,0.00002879,-0.00002675,0.00119444,0.00627329,
 -0.00244659,0.00040228,-0.00061885,0.00087496,0.00032236,-0.00257703,0
 .00067698,-0.00020039,-0.00169517,-0.00048272,0.00042003,0.00069551,0.
 00028727,0.00027872,-0.00012903,-0.00006594,-0.00004710,-0.00005614,-0
 .00003508,0.00004141,-0.00054493,-0.00015561,0.44811209,-0.00740321,0.
 01089757,0.00593688,-0.00172550,-0.00113390,0.00104960,-0.00038002,0.0
 0044177,-0.00041443,-0.00420521,-0.00268258,-0.00065838,0.02946607,-0.
 08552725,-0.02012501,0.00384294,-0.00374643,-0.00220212,-0.02787133,-0
 .08142259,-0.01663645,-0.00037246,-0.00214064,-0.00084851,-0.02572546,
 -0.01319811,-0.00966994,0.01225025,0.01118328,0.00859087,0.00019342,0.
 00019821,-0.00020901,0.00143799,-0.00142990,0.00060725,0.00285553,-0.0
 0420409,-0.00220448,-0.00032376,-0.00002294,-0.00006291,0.00132579,0.0
 0097596,0.00051435,0.00000420,0.00000942,-0.00008752,0.00056344,-0.000
 34267,-0.00011304,-0.00002207,-0.00009239,0.00009172,0.02289122,-0.022
 71667,-0.00568555,-0.00006765,0.00167232,-0.00114684,-0.00079989,-0.00
 341558,0.00170403,0.00011622,0.00022952,-0.00053601,-0.00030593,-0.000
 38781,-0.00011449,0.00003723,0.00008448,0.00003487,-0.00003066,0.00005
 218,-0.00002525,-0.00013036,0.00015559,0.00008335,0.00529905,0.3727674
 6,-0.00607344,0.00490150,0.00280748,0.00086212,0.00013341,-0.00002913,
 -0.00180451,0.00051478,0.00021641,-0.00260614,-0.00047751,-0.00028868,
 0.02633780,-0.01815730,-0.09534806,0.02952046,-0.01940374,-0.01325920,
 -0.03033511,-0.01163336,-0.09709705,-0.03297942,-0.01465429,-0.0124100
 6,0.01207390,0.00550356,0.00225218,0.00924813,0.00655562,0.00388134,0.
 00183211,0.00026111,-0.00012919,-0.00057999,0.00006061,0.00044773,0.00
 124820,-0.00164167,-0.00219041,-0.00001052,-0.00008687,0.00049941,0.00
 073401,0.00025222,0.00081848,-0.00008369,0.00010515,-0.00003074,0.0002
 9824,-0.00022266,-0.00008783,-0.00004119,-0.00000623,-0.00000558,-0.01
 190196,0.00669015,0.00333655,-0.00132651,0.00171966,0.00002101,-0.0006
 5612,0.00355375,-0.00127444,0.00050135,-0.00051035,0.00007137,0.000090
 31,0.00001396,0.00039640,0.00013370,-0.00002178,-0.00004360,-0.0000202
 5,-0.00000316,-0.00003806,-0.00000741,-0.00013179,-0.00020480,0.017051
 23,0.07486247,0.61106007,0.00175126,0.00009621,0.00123015,-0.00005207,
 -0.00010972,-0.00003985,-0.00039753,-0.00013022,-0.00075219,0.00026929
 ,-0.00002145,-0.00031461,-0.00119303,0.00579188,0.02625332,-0.00376972
 ,0.00279363,0.00151501,-0.00195181,-0.00396279,-0.02853996,-0.00466479
 ,-0.00235342,-0.00148942,0.00077910,-0.00000127,0.00065406,0.00202206,
 -0.00019989,-0.00140399,-0.00043442,-0.00000353,0.00079660,-0.00008070
 ,0.00018401,0.00002449,-0.00013611,-0.00007914,-0.00002388,0.00012611,
 0.00003002,0.00029907,0.00001000,0.00002485,0.00009342,-0.00005260,0.0
 0002272,0.00002693,0.00002321,-0.00001181,0.00000034,-0.00000301,0.000
 00313,-0.00000872,0.00073231,-0.00122410,0.00029548,0.00017095,0.00014
 765,-0.00061975,0.00001114,-0.00022816,-0.00021800,-0.00001228,0.00004
 602,-0.00008591,0.00008839,-0.00006289,-0.00001924,-0.00001109,0.00004
 228,0.00001878,-0.00003945,-0.00001596,0.00004106,-0.00000134,0.000096
 12,-0.00001094,-0.05050953,-0.00058667,-0.00639669,0.05636174,-0.00093
 247,0.00028910,0.00052756,0.00012196,0.00005196,0.00003519,0.00024818,
 0.00027297,0.00044530,-0.00016784,-0.00004063,0.00015269,0.00057919,-0
 .00222841,-0.01716752,0.00281851,-0.00144566,-0.00076966,-0.00048978,-
 0.00014841,-0.01322660,-0.00236026,-0.00046165,-0.00051749,0.00043031,
 0.00027260,0.00035926,0.00089251,0.00015522,0.00043208,-0.00026389,0.0
 0022850,0.00035924,-0.00012202,0.00010343,0.00008455,-0.00006106,-0.00
 011101,-0.00003083,0.00010023,-0.00000950,0.00010464,0.00000801,-0.000
 00469,0.00005403,-0.00001794,0.00001419,0.00000829,-0.00000205,-0.0000
 0559,-0.00000836,0.00000253,0.00000364,-0.00000036,-0.00038519,0.00112
 873,-0.00111498,0.00005893,-0.00019144,0.00066303,-0.00003225,0.000086
 31,0.00027678,0.00002977,0.00000332,0.00001692,0.00003722,-0.00001390,
 -0.00002585,-0.00000937,0.00000665,0.00001144,-0.00002634,0.00000086,0
 .00003223,0.00000471,0.00004546,-0.00002020,-0.00104178,-0.05436591,-0
 .05907886,0.00078579,0.06748714,-0.00057047,0.00027127,0.00056144,-0.0
 0005379,-0.00004592,-0.00001355,0.00065810,0.00019818,0.00031193,-0.00
 001076,0.00003225,0.00027559,0.00061419,-0.00255782,-0.00867326,0.0009
 0122,-0.00057411,0.00061719,-0.00109377,-0.00201847,-0.00633517,-0.000
 50524,-0.00066422,0.00070094,-0.00046799,-0.00043190,0.00002991,0.0009
 6228,0.00012336,0.00059051,-0.00066711,0.00021546,0.00043526,-0.000044
 63,0.00004752,-0.00007136,-0.00010244,-0.00001844,0.00033965,0.0002138
 9,0.00002269,0.00004799,-0.00003606,0.00000971,-0.00000075,-0.00001606
 ,-0.00000284,0.00000135,0.00000320,0.00000373,-0.00000117,0.00000161,-
 0.00000660,-0.00000429,-0.00014565,0.00014368,0.00048169,0.00015586,-0
 .00058829,0.00043306,0.00003101,-0.00005955,0.00029452,0.00000930,0.00
 004189,0.00000992,0.00003166,-0.00003612,-0.00002793,0.00000166,0.0000
 1648,0.00000928,-0.00002739,0.00000205,0.00002246,-0.00000380,0.000038
 54,-0.00000699,-0.00505853,-0.04367840,-0.29585570,0.00607447,0.046654
 01,0.32400118,-0.00182417,0.00036192,0.00025511,-0.00140240,0.00240095
 ,-0.00042494,-0.00010282,0.00031979,-0.00065816,0.00034394,0.00054772,
 -0.00060066,0.00281387,0.02018889,-0.00991012,0.00048281,-0.00069795,-
 0.00017083,-0.00416712,-0.02821069,0.01094257,0.00112106,0.00086975,0.
 00047974,-0.00422627,-0.00145153,-0.00171401,-0.00078812,0.00033974,0.
 00015078,-0.00024551,-0.00058768,0.00055464,-0.00118641,-0.00197043,0.
 00020092,0.00064849,-0.00071627,0.00052567,0.00002151,0.00003387,-0.00
 001123,0.00005911,0.00000261,-0.00007955,-0.00000258,-0.00001339,0.000
 04405,-0.00007013,-0.00001644,0.00000323,0.00003224,-0.00001071,0.0000
 0085,-0.00352964,0.00145210,0.00204038,-0.00006831,-0.00018130,0.00005
 971,0.00024119,0.00130566,-0.00036264,0.00014392,0.00033285,0.00011632
 ,-0.00042394,-0.00015790,-0.00027518,-0.00017802,-0.00008462,0.0000376
 2,0.00002986,0.00002444,0.00003023,0.00000512,0.00019507,0.00006628,-0
 .04439874,-0.00055181,-0.00332862,0.00114888,-0.00189657,-0.00036192,0
 .06783575,-0.00239307,0.00052743,0.00005335,0.00024019,0.00015569,-0.0
 0025713,0.00018603,-0.00040876,0.00049969,-0.00049725,0.00005142,-0.00
 008794,0.00939755,-0.03497802,0.01091047,-0.00121025,0.00154916,0.0003
 8103,-0.01498099,-0.02992376,0.00723039,0.00125290,0.00127235,0.000748
 64,-0.00275527,0.00002601,-0.00060699,0.00252981,0.00001356,-0.0000124
 7,-0.00009105,-0.00018410,0.00011325,0.00009137,0.00062767,-0.00010028
 ,0.00014097,-0.00008543,-0.00034033,0.00002450,-0.00000724,0.00004061,
 0.00004426,0.00002685,0.00003269,-0.00001452,-0.00001513,0.00002269,-0
 .00000492,-0.00001533,-0.00000006,-0.00000339,0.00003226,-0.00002746,0
 .00410243,-0.00024086,-0.00228200,-0.00005002,0.00015401,0.00002082,-0
 .00029607,-0.00143240,0.00052594,-0.00009837,-0.00000283,-0.00004667,-
 0.00003025,-0.00018888,-0.00009965,-0.00010130,0.00008308,0.00002035,0
 .00003353,-0.00000046,-0.00000106,-0.00004297,0.00022119,0.00009685,0.
 00287920,-0.06742853,0.05388367,-0.00144311,-0.01756231,0.00811592,0.0
 6136348,0.37599430,0.00047608,0.00082900,-0.00005303,-0.00072140,-0.00
 063733,0.00027178,0.00022527,-0.00024581,0.00023103,0.00020753,-0.0004
 0225,0.00022748,-0.00395876,-0.00342703,0.00457395,-0.00058017,-0.0003
 0650,0.00098964,0.00177343,-0.00686117,0.00592567,0.00055854,-0.001007
 57,0.00096510,-0.00243017,-0.00198156,0.00049133,-0.00005956,0.0008538
 4,-0.00014595,-0.00018527,-0.00009134,0.00014835,0.00047785,-0.0003549
 6,0.00013096,0.00006882,-0.00019816,0.00033720,0.00003893,0.00002581,-
 0.00000612,-0.00001389,-0.00001362,-0.00009170,-0.00000829,-0.00001244
 ,0.00003657,-0.00004394,0.00000743,0.00001048,0.00003619,-0.00001145,-
 0.00000284,0.00115464,-0.00068220,-0.00005938,0.00013918,-0.00049277,0
 .00061935,0.00009357,-0.00013583,0.00060088,-0.00012933,0.00016527,0.0
 0002185,-0.00010639,-0.00004182,-0.00014046,-0.00005767,-0.00003257,0.
 00001634,-0.00000633,0.00000220,0.00003903,0.00000251,0.00006018,0.000
 02860,-0.00668966,0.02081702,-0.12706999,0.00197984,0.03905641,-0.0220
 4807,0.05949529,0.09932506,0.35237213,-0.00062103,0.00030867,0.0002351
 3,-0.00048872,0.00064491,-0.00052576,0.00006408,-0.00019963,0.00035710
 ,0.00010633,0.00043155,0.00021473,-0.00165639,0.00098213,-0.00082958,0
 .00033915,-0.00016976,-0.00006807,-0.00027916,-0.00257074,0.00120847,0
 .00026595,0.00013058,0.00006252,-0.00068776,-0.00037965,0.00003282,0.0
 0027678,-0.00013807,0.00003093,0.00001332,0.00019961,-0.00018071,-0.00
 060425,0.00004142,0.00031028,0.00002325,-0.00002107,-0.00014443,-0.000
 03703,-0.00002222,-0.00004396,0.00001131,0.00001919,0.00000466,0.00002
 072,0.00001514,-0.00001629,-0.00001555,-0.00002017,-0.00001292,0.00001
 091,-0.00001054,0.00002524,-0.00004060,0.00026938,-0.00027254,-0.00004
 982,0.00000275,-0.00001610,0.00004263,-0.00003186,-0.00001598,0.000041
 50,0.00007365,0.00003478,-0.00000744,0.00000938,-0.00002617,-0.0000228
 5,0.00000918,0.00000547,0.00000973,0.00000661,0.00000073,0.00001074,0.
 00001785,0.00001263,-0.00253494,-0.00978135,-0.00177999,-0.00018499,0.
 00169095,-0.00049285,-0.01231358,-0.05827341,-0.05173683,0.01830771,0.
 00014173,-0.00024409,0.00042976,0.00145615,0.00039600,0.00018318,0.000
 03689,0.00036471,-0.00047223,-0.00000204,0.00013885,-0.00034027,-0.003
 95931,-0.00310946,0.00157677,0.00016193,-0.00036081,-0.00022387,0.0032
 4232,-0.00683686,0.00182579,-0.00021263,-0.00020715,-0.00013601,-0.002
 02270,-0.00032447,-0.00072133,0.00060678,-0.00060965,0.00016615,-0.000
 04784,0.00023381,-0.00014978,-0.00101467,0.00082447,0.00016340,-0.0001
 2787,0.00037731,-0.00006686,-0.00000898,-0.00003914,-0.00003820,-0.000
 08239,-0.00007040,-0.00000819,0.00000937,0.00000986,-0.00002141,-0.000
 01481,0.00002501,0.00000346,-0.00004291,0.00005929,0.00000007,0.001327
 43,0.00018282,-0.00079910,-0.00003224,0.00006251,0.00006735,0.00011068
 ,-0.00044894,0.00028311,-0.00008674,0.00016497,-0.00001980,0.00019266,
 -0.00008378,-0.00000975,-0.00002873,0.00009853,-0.00000110,0.00000498,
 0.00000916,-0.00000687,-0.00002292,0.00012593,0.00006332,-0.01352797,-
 0.05440980,-0.03298206,0.00036985,0.00643905,-0.00525405,-0.05319153,-
 0.22826096,-0.14420583,0.06676552,0.28549322,-0.00025774,-0.00010372,0
 .00014394,0.00059997,0.00038244,0.00000400,0.00005461,0.00010040,-0.00
 008884,-0.00002884,0.00025690,-0.00011156,-0.00121175,0.00103637,0.000
 69295,-0.00028528,0.00035844,0.00013973,0.00188450,0.00132605,0.000531
 99,0.00046338,0.00058586,0.00020544,-0.00006021,0.00026351,-0.00013723
 ,0.00032169,-0.00043740,0.00023579,-0.00005986,0.00005214,-0.00004075,
 -0.00034643,0.00051220,-0.00012182,-0.00017040,0.00025552,-0.00019979,
 0.00001678,0.00000609,0.00004081,-0.00001014,0.00002723,0.00001978,-0.
 00000673,-0.00000189,-0.00000563,0.00003559,0.00000437,0.00000195,-0.0
 0002545,0.00000275,-0.00000485,0.00017380,0.00005265,0.00003495,0.0000
 3955,-0.00004896,-0.00009712,0.00005991,-0.00008614,-0.00006096,-0.000
 00060,0.00006470,-0.00001996,0.00016324,-0.00000587,0.00007333,0.00003
 802,0.00006020,-0.00000818,-0.00001054,-0.00000747,-0.00000377,-0.0000
 1360,-0.00000430,0.00000079,0.00149525,-0.00987406,0.01955407,0.000620
 12,0.00268705,0.00387437,-0.05710553,-0.17815938,-0.21842016,0.0536267
 0,0.18069435,0.19376673\\0.00000103,-0.00000260,0.00000201,0.00000172,
 -0.00000262,0.00000246,-0.00000053,-0.00000194,0.00000206,0.00000015,-
 0.00000288,0.00000268,0.00000021,-0.00000074,0.00000196,0.00000048,-0.
 00000137,0.00000152,0.00000003,0.00000042,0.00000032,0.00000100,0.0000
 0004,0.00000004,-0.00000056,0.00000015,-0.00000006,-0.00000026,0.00000
 073,-0.00000084,-0.00000047,0.00000084,-0.00000089,0.00000092,0.000000
 66,-0.00000055,0.00000036,0.00000120,-0.00000149,0.00000098,0.00000123
 ,-0.00000159,0.00000054,0.00000205,-0.00000229,0.00000001,0.00000223,-
 0.00000237,0.00000068,0.00000253,-0.00000281,0.00000135,0.00000192,-0.
 00000216,-0.00000128,-0.00000120,0.00000152,-0.00000176,-0.00000149,0.
 00000153,-0.00000126,-0.00000180,0.00000207,-0.00000131,-0.00000085,0.
 00000106,-0.00000063,0.00000156,-0.00000173,-0.00000066,0.00000212,-0.
 00000235,-0.00000156,0.00000162,-0.00000177,-0.00000079,0.00000122,-0.
 00000119,0.00000062,0.00000019,0.00000062,-0.00000043,-0.00000139,0.00
 000135,0.00000139,-0.00000060,-0.00000045,0.00000005,-0.00000124,0.000
 00134\\\@
 Job cpu time:  0 days  7 hours 35 minutes 21.8 seconds.
 File lengths (MBytes):  RWF=  72859 Int=      0 D2E=      0 Chk=     26 Scr=      1
 Normal termination of Gaussian 09 at Wed Feb  5 07:23:20 2014.
