 Entering Gaussian System, Link 0=g09
 Initial command:
 /usr/caen/gaussian-09revc/g09/l1.exe /scratch/avioli_flux/hetanjin/scratch/Gau-9322.inp -scrdir=/scratch/avioli_flux/hetanjin/scratch/
 Entering Link 1 = /usr/caen/gaussian-09revc/g09/l1.exe PID=      9323.
  
 Copyright (c) 1988,1990,1992,1993,1995,1998,2003,2009,2011,
            Gaussian, Inc.  All Rights Reserved.
  
 This is part of the Gaussian(R) 09 program.  It is based on
 the Gaussian(R) 03 system (copyright 2003, Gaussian, Inc.),
 the Gaussian(R) 98 system (copyright 1998, Gaussian, Inc.),
 the Gaussian(R) 94 system (copyright 1995, Gaussian, Inc.),
 the Gaussian 92(TM) system (copyright 1992, Gaussian, Inc.),
 the Gaussian 90(TM) system (copyright 1990, Gaussian, Inc.),
 the Gaussian 88(TM) system (copyright 1988, Gaussian, Inc.),
 the Gaussian 86(TM) system (copyright 1986, Carnegie Mellon
 University), and the Gaussian 82(TM) system (copyright 1983,
 Carnegie Mellon University). Gaussian is a federally registered
 trademark of Gaussian, Inc.
  
 This software contains proprietary and confidential information,
 including trade secrets, belonging to Gaussian, Inc.
  
 This software is provided under written license and may be
 used, copied, transmitted, or stored only in accord with that
 written license.
  
 The following legend is applicable only to US Government
 contracts under FAR:
  
                    RESTRICTED RIGHTS LEGEND
  
 Use, reproduction and disclosure by the US Government is
 subject to restrictions as set forth in subparagraphs (a)
 and (c) of the Commercial Computer Software - Restricted
 Rights clause in FAR 52.227-19.
  
 Gaussian, Inc.
 340 Quinnipiac St., Bldg. 40, Wallingford CT 06492
  
  
 ---------------------------------------------------------------
 Warning -- This program may not be used in any manner that
 competes with the business of Gaussian, Inc. or will provide
 assistance to any competitor of Gaussian, Inc.  The licensee
 of this program is prohibited from giving any competitor of
 Gaussian, Inc. access to this program.  By using this program,
 the user acknowledges that Gaussian, Inc. is engaged in the
 business of creating and licensing software in the field of
 computational chemistry and represents and warrants to the
 licensee that it is not a competitor of Gaussian, Inc. and that
 it will not use this program in any manner prohibited above.
 ---------------------------------------------------------------
  

 Cite this work as:
 Gaussian 09, Revision C.01,
 M. J. Frisch, G. W. Trucks, H. B. Schlegel, G. E. Scuseria, 
 M. A. Robb, J. R. Cheeseman, G. Scalmani, V. Barone, B. Mennucci, 
 G. A. Petersson, H. Nakatsuji, M. Caricato, X. Li, H. P. Hratchian, 
 A. F. Izmaylov, J. Bloino, G. Zheng, J. L. Sonnenberg, M. Hada, 
 M. Ehara, K. Toyota, R. Fukuda, J. Hasegawa, M. Ishida, T. Nakajima, 
 Y. Honda, O. Kitao, H. Nakai, T. Vreven, J. A. Montgomery, Jr., 
 J. E. Peralta, F. Ogliaro, M. Bearpark, J. J. Heyd, E. Brothers, 
 K. N. Kudin, V. N. Staroverov, T. Keith, R. Kobayashi, J. Normand, 
 K. Raghavachari, A. Rendell, J. C. Burant, S. S. Iyengar, J. Tomasi, 
 M. Cossi, N. Rega, J. M. Millam, M. Klene, J. E. Knox, J. B. Cross, 
 V. Bakken, C. Adamo, J. Jaramillo, R. Gomperts, R. E. Stratmann, 
 O. Yazyev, A. J. Austin, R. Cammi, C. Pomelli, J. W. Ochterski, 
 R. L. Martin, K. Morokuma, V. G. Zakrzewski, G. A. Voth, 
 P. Salvador, J. J. Dannenberg, S. Dapprich, A. D. Daniels, 
 O. Farkas, J. B. Foresman, J. V. Ortiz, J. Cioslowski, 
 and D. J. Fox, Gaussian, Inc., Wallingford CT, 2010.
 
 ******************************************
 Gaussian 09:  EM64L-G09RevC.01 23-Sep-2011
                20-Feb-2014 
 ******************************************
 %mem=30GB
 %nprocshared=8
 Will use up to    8 processors via shared memory.
 %chk=C9H18OOH_2_26_c.chk
 --------------------------
 #p cbs-qb3 opt=calcfc freq
 --------------------------
 1/10=4,14=-1,18=20,19=15,26=3,38=1/1,3;
 2/9=110,12=2,17=6,18=5,40=1/2;
 3/5=4,6=6,7=700,11=2,16=1,25=1,30=1,71=2,74=-5/1,2,3;
 4//1;
 5/5=2,38=5/2;
 8/6=4,10=90,11=11/1;
 11/6=1,8=1,9=11,15=111,16=1/1,2,10;
 10/6=1,7=6,13=1/2;
 6/7=2,8=2,9=2,10=2,28=1/1;
 7/10=1,18=20,25=1/1,2,3,16;
 1/10=4,14=-1,18=20,19=15/3(2);
 2/9=110/2;
 99//99;
 2/9=110/2;
 3/5=4,6=6,7=700,11=2,16=1,25=1,30=1,71=1,74=-5/1,2,3;
 4/5=5,16=3/1;
 5/5=2,38=5/2;
 7//1,2,3,16;
 1/14=-1,18=20,19=15/3(-5);
 2/9=110/2;
 6/7=2,8=2,9=2,10=2,19=2,28=1/1;
 99/9=1/99;
 Leave Link    1 at Thu Feb 20 17:36:51 2014, MaxMem= 4026531840 cpu:       0.4
 (Enter /usr/caen/gaussian-09revc/g09/l101.exe)
 --------------------------------------------
 C9H18OOH_2_26_c using cbs-qb3 to cal. energy
 --------------------------------------------
 Charge =  0 Multiplicity = 2
 Symbolic Z-Matrix:
 C                     3.24048  -0.10515   1.10516 
 H                     2.94802  -1.01582   1.63057 
 H                     3.37782   0.68656   1.84645 
 H                     4.19597  -0.27564   0.60269 
 C                     0.83783   0.5222    0.74686 
 H                     0.799     0.52988   1.83222 
 C                    -0.43014   0.71723  -0.01493 
 H                    -0.2531    0.53467  -1.0797 
 H                    -0.75552   1.76534   0.07428 
 C                    -1.56799  -0.20394   0.47394 
 H                    -1.75349  -0.01548   1.54027 
 H                    -1.21874  -1.23854   0.39865 
 C                    -2.89398  -0.06471  -0.29755 
 H                    -2.67155  -0.19815  -1.36522 
 C                    -3.87017  -1.17478   0.11778 
 H                    -4.1193   -1.09709   1.18209 
 H                    -4.80563  -1.11283  -0.44653 
 H                    -3.44035  -2.16626  -0.05166 
 C                     2.61865   1.52303  -0.73156 
 H                     2.77531   2.37269  -0.06378 
 H                     3.55538   1.30838  -1.25268 
 H                     1.86305   1.79443  -1.47044 
 C                    -3.54234   1.31558  -0.11823 
 H                    -4.4866    1.37742  -0.66753 
 H                    -3.76065   1.50725   0.93868 
 H                    -2.90139   2.12396  -0.47861 
 C                     2.16769   0.30125   0.09176 
 O                     2.05942  -0.70928  -0.96258 
 O                     1.56587  -1.95503  -0.38552 
 H                     2.28929  -2.55049  -0.62426 
 
 NAtoms=     30 NQM=        0 NQMF=       0 NMMI=     30 NMMIF=      0
                NMic=       0 NMicF=      0.
                    Isotopes and Nuclear Properties:
 (Nuclear quadrupole moments (NQMom) in fm**2, nuclear magnetic moments (NMagM)
  in nuclear magnetons)

  Atom         1           2           3           4           5           6           7           8           9          10
 IAtWgt=          12           1           1           1          12           1          12           1           1          12
 AtmWgt=  12.0000000   1.0078250   1.0078250   1.0078250  12.0000000   1.0078250  12.0000000   1.0078250   1.0078250  12.0000000
 NucSpn=           0           1           1           1           0           1           0           1           1           0
 AtZEff=   0.0000000   0.0000000   0.0000000   0.0000000   0.0000000   0.0000000   0.0000000   0.0000000   0.0000000   0.0000000
 NQMom=    0.0000000   0.0000000   0.0000000   0.0000000   0.0000000   0.0000000   0.0000000   0.0000000   0.0000000   0.0000000
 NMagM=    0.0000000   2.7928460   2.7928460   2.7928460   0.0000000   2.7928460   0.0000000   2.7928460   2.7928460   0.0000000

  Atom        11          12          13          14          15          16          17          18          19          20
 IAtWgt=           1           1          12           1          12           1           1           1          12           1
 AtmWgt=   1.0078250   1.0078250  12.0000000   1.0078250  12.0000000   1.0078250   1.0078250   1.0078250  12.0000000   1.0078250
 NucSpn=           1           1           0           1           0           1           1           1           0           1
 AtZEff=   0.0000000   0.0000000   0.0000000   0.0000000   0.0000000   0.0000000   0.0000000   0.0000000   0.0000000   0.0000000
 NQMom=    0.0000000   0.0000000   0.0000000   0.0000000   0.0000000   0.0000000   0.0000000   0.0000000   0.0000000   0.0000000
 NMagM=    2.7928460   2.7928460   0.0000000   2.7928460   0.0000000   2.7928460   2.7928460   2.7928460   0.0000000   2.7928460

  Atom        21          22          23          24          25          26          27          28          29          30
 IAtWgt=           1           1          12           1           1           1          12          16          16           1
 AtmWgt=   1.0078250   1.0078250  12.0000000   1.0078250   1.0078250   1.0078250  12.0000000  15.9949146  15.9949146   1.0078250
 NucSpn=           1           1           0           1           1           1           0           0           0           1
 AtZEff=   0.0000000   0.0000000   0.0000000   0.0000000   0.0000000   0.0000000   0.0000000   0.0000000   0.0000000   0.0000000
 NQMom=    0.0000000   0.0000000   0.0000000   0.0000000   0.0000000   0.0000000   0.0000000   0.0000000   0.0000000   0.0000000
 NMagM=    2.7928460   2.7928460   0.0000000   2.7928460   2.7928460   2.7928460   0.0000000   0.0000000   0.0000000   2.7928460
 Leave Link  101 at Thu Feb 20 17:36:51 2014, MaxMem= 4026531840 cpu:       1.7
 (Enter /usr/caen/gaussian-09revc/g09/l103.exe)

 GradGradGradGradGradGradGradGradGradGradGradGradGradGradGradGradGradGrad
 Berny optimization.
 Initialization pass.
                           ----------------------------
                           !    Initial Parameters    !
                           ! (Angstroms and Degrees)  !
 --------------------------                            --------------------------
 ! Name  Definition              Value          Derivative Info.                !
 --------------------------------------------------------------------------------
 ! R1    R(1,2)                  1.0913         calculate D2E/DX2 analytically  !
 ! R2    R(1,3)                  1.0932         calculate D2E/DX2 analytically  !
 ! R3    R(1,4)                  1.0929         calculate D2E/DX2 analytically  !
 ! R4    R(1,27)                 1.5307         calculate D2E/DX2 analytically  !
 ! R5    R(5,6)                  1.0861         calculate D2E/DX2 analytically  !
 ! R6    R(5,7)                  1.492          calculate D2E/DX2 analytically  !
 ! R7    R(5,27)                 1.4988         calculate D2E/DX2 analytically  !
 ! R8    R(7,8)                  1.0947         calculate D2E/DX2 analytically  !
 ! R9    R(7,9)                  1.1011         calculate D2E/DX2 analytically  !
 ! R10   R(7,10)                 1.5434         calculate D2E/DX2 analytically  !
 ! R11   R(10,11)                1.0986         calculate D2E/DX2 analytically  !
 ! R12   R(10,12)                1.0945         calculate D2E/DX2 analytically  !
 ! R13   R(10,13)                1.5404         calculate D2E/DX2 analytically  !
 ! R14   R(13,14)                1.0987         calculate D2E/DX2 analytically  !
 ! R15   R(13,15)                1.5355         calculate D2E/DX2 analytically  !
 ! R16   R(13,23)                1.5355         calculate D2E/DX2 analytically  !
 ! R17   R(15,16)                1.0958         calculate D2E/DX2 analytically  !
 ! R18   R(15,17)                1.0942         calculate D2E/DX2 analytically  !
 ! R19   R(15,18)                1.0938         calculate D2E/DX2 analytically  !
 ! R20   R(19,20)                1.092          calculate D2E/DX2 analytically  !
 ! R21   R(19,21)                1.0932         calculate D2E/DX2 analytically  !
 ! R22   R(19,22)                1.0911         calculate D2E/DX2 analytically  !
 ! R23   R(19,27)                1.5408         calculate D2E/DX2 analytically  !
 ! R24   R(23,24)                1.0942         calculate D2E/DX2 analytically  !
 ! R25   R(23,25)                1.0961         calculate D2E/DX2 analytically  !
 ! R26   R(23,26)                1.0928         calculate D2E/DX2 analytically  !
 ! R27   R(27,28)                1.4644         calculate D2E/DX2 analytically  !
 ! R28   R(28,29)                1.4589         calculate D2E/DX2 analytically  !
 ! R29   R(29,30)                0.9669         calculate D2E/DX2 analytically  !
 ! A1    A(2,1,3)              108.1515         calculate D2E/DX2 analytically  !
 ! A2    A(2,1,4)              108.9936         calculate D2E/DX2 analytically  !
 ! A3    A(2,1,27)             110.6393         calculate D2E/DX2 analytically  !
 ! A4    A(3,1,4)              108.3534         calculate D2E/DX2 analytically  !
 ! A5    A(3,1,27)             110.1629         calculate D2E/DX2 analytically  !
 ! A6    A(4,1,27)             110.4729         calculate D2E/DX2 analytically  !
 ! A7    A(6,5,7)              118.6154         calculate D2E/DX2 analytically  !
 ! A8    A(6,5,27)             118.0051         calculate D2E/DX2 analytically  !
 ! A9    A(7,5,27)             123.3765         calculate D2E/DX2 analytically  !
 ! A10   A(5,7,8)              109.7168         calculate D2E/DX2 analytically  !
 ! A11   A(5,7,9)              109.5236         calculate D2E/DX2 analytically  !
 ! A12   A(5,7,10)             112.7541         calculate D2E/DX2 analytically  !
 ! A13   A(8,7,9)              106.5788         calculate D2E/DX2 analytically  !
 ! A14   A(8,7,10)             109.1336         calculate D2E/DX2 analytically  !
 ! A15   A(9,7,10)             108.9414         calculate D2E/DX2 analytically  !
 ! A16   A(7,10,11)            109.2396         calculate D2E/DX2 analytically  !
 ! A17   A(7,10,12)            107.8856         calculate D2E/DX2 analytically  !
 ! A18   A(7,10,13)            114.9622         calculate D2E/DX2 analytically  !
 ! A19   A(11,10,12)           106.4265         calculate D2E/DX2 analytically  !
 ! A20   A(11,10,13)           108.9813         calculate D2E/DX2 analytically  !
 ! A21   A(12,10,13)           109.0054         calculate D2E/DX2 analytically  !
 ! A22   A(10,13,14)           107.5438         calculate D2E/DX2 analytically  !
 ! A23   A(10,13,15)           110.2703         calculate D2E/DX2 analytically  !
 ! A24   A(10,13,23)           112.7202         calculate D2E/DX2 analytically  !
 ! A25   A(14,13,15)           107.6831         calculate D2E/DX2 analytically  !
 ! A26   A(14,13,23)           107.9472         calculate D2E/DX2 analytically  !
 ! A27   A(15,13,23)           110.4775         calculate D2E/DX2 analytically  !
 ! A28   A(13,15,16)           110.8542         calculate D2E/DX2 analytically  !
 ! A29   A(13,15,17)           111.2896         calculate D2E/DX2 analytically  !
 ! A30   A(13,15,18)           111.3201         calculate D2E/DX2 analytically  !
 ! A31   A(16,15,17)           107.6083         calculate D2E/DX2 analytically  !
 ! A32   A(16,15,18)           107.7002         calculate D2E/DX2 analytically  !
 ! A33   A(17,15,18)           107.8997         calculate D2E/DX2 analytically  !
 ! A34   A(20,19,21)           108.7458         calculate D2E/DX2 analytically  !
 ! A35   A(20,19,22)           108.6588         calculate D2E/DX2 analytically  !
 ! A36   A(20,19,27)           109.4036         calculate D2E/DX2 analytically  !
 ! A37   A(21,19,22)           108.6275         calculate D2E/DX2 analytically  !
 ! A38   A(21,19,27)           110.4758         calculate D2E/DX2 analytically  !
 ! A39   A(22,19,27)           110.8794         calculate D2E/DX2 analytically  !
 ! A40   A(13,23,24)           110.8895         calculate D2E/DX2 analytically  !
 ! A41   A(13,23,25)           110.7263         calculate D2E/DX2 analytically  !
 ! A42   A(13,23,26)           112.2595         calculate D2E/DX2 analytically  !
 ! A43   A(24,23,25)           107.5965         calculate D2E/DX2 analytically  !
 ! A44   A(24,23,26)           107.3857         calculate D2E/DX2 analytically  !
 ! A45   A(25,23,26)           107.7857         calculate D2E/DX2 analytically  !
 ! A46   A(1,27,5)             111.8154         calculate D2E/DX2 analytically  !
 ! A47   A(1,27,19)            111.0492         calculate D2E/DX2 analytically  !
 ! A48   A(1,27,28)            110.1979         calculate D2E/DX2 analytically  !
 ! A49   A(5,27,19)            112.1075         calculate D2E/DX2 analytically  !
 ! A50   A(5,27,28)            110.537          calculate D2E/DX2 analytically  !
 ! A51   A(19,27,28)           100.6091         calculate D2E/DX2 analytically  !
 ! A52   A(27,28,29)           109.2359         calculate D2E/DX2 analytically  !
 ! A53   A(28,29,30)           100.0833         calculate D2E/DX2 analytically  !
 ! D1    D(2,1,27,5)            58.3268         calculate D2E/DX2 analytically  !
 ! D2    D(2,1,27,19)         -175.629          calculate D2E/DX2 analytically  !
 ! D3    D(2,1,27,28)          -65.0329         calculate D2E/DX2 analytically  !
 ! D4    D(3,1,27,5)           -61.2069         calculate D2E/DX2 analytically  !
 ! D5    D(3,1,27,19)           64.8373         calculate D2E/DX2 analytically  !
 ! D6    D(3,1,27,28)          175.4334         calculate D2E/DX2 analytically  !
 ! D7    D(4,1,27,5)           179.1142         calculate D2E/DX2 analytically  !
 ! D8    D(4,1,27,19)          -54.8416         calculate D2E/DX2 analytically  !
 ! D9    D(4,1,27,28)           55.7546         calculate D2E/DX2 analytically  !
 ! D10   D(6,5,7,8)           -171.5339         calculate D2E/DX2 analytically  !
 ! D11   D(6,5,7,9)             71.8077         calculate D2E/DX2 analytically  !
 ! D12   D(6,5,7,10)           -49.6714         calculate D2E/DX2 analytically  !
 ! D13   D(27,5,7,8)             7.8248         calculate D2E/DX2 analytically  !
 ! D14   D(27,5,7,9)          -108.8336         calculate D2E/DX2 analytically  !
 ! D15   D(27,5,7,10)          129.6874         calculate D2E/DX2 analytically  !
 ! D16   D(6,5,27,1)             9.1849         calculate D2E/DX2 analytically  !
 ! D17   D(6,5,27,19)         -116.2779         calculate D2E/DX2 analytically  !
 ! D18   D(6,5,27,28)          132.3527         calculate D2E/DX2 analytically  !
 ! D19   D(7,5,27,1)          -170.1775         calculate D2E/DX2 analytically  !
 ! D20   D(7,5,27,19)           64.3597         calculate D2E/DX2 analytically  !
 ! D21   D(7,5,27,28)          -47.0097         calculate D2E/DX2 analytically  !
 ! D22   D(5,7,10,11)           58.3319         calculate D2E/DX2 analytically  !
 ! D23   D(5,7,10,12)          -56.9679         calculate D2E/DX2 analytically  !
 ! D24   D(5,7,10,13)         -178.8166         calculate D2E/DX2 analytically  !
 ! D25   D(8,7,10,11)         -179.4767         calculate D2E/DX2 analytically  !
 ! D26   D(8,7,10,12)           65.2234         calculate D2E/DX2 analytically  !
 ! D27   D(8,7,10,13)          -56.6253         calculate D2E/DX2 analytically  !
 ! D28   D(9,7,10,11)          -63.4767         calculate D2E/DX2 analytically  !
 ! D29   D(9,7,10,12)         -178.7765         calculate D2E/DX2 analytically  !
 ! D30   D(9,7,10,13)           59.3748         calculate D2E/DX2 analytically  !
 ! D31   D(7,10,13,14)          53.699          calculate D2E/DX2 analytically  !
 ! D32   D(7,10,13,15)         170.8514         calculate D2E/DX2 analytically  !
 ! D33   D(7,10,13,23)         -65.1652         calculate D2E/DX2 analytically  !
 ! D34   D(11,10,13,14)        176.6887         calculate D2E/DX2 analytically  !
 ! D35   D(11,10,13,15)        -66.1589         calculate D2E/DX2 analytically  !
 ! D36   D(11,10,13,23)         57.8245         calculate D2E/DX2 analytically  !
 ! D37   D(12,10,13,14)        -67.5413         calculate D2E/DX2 analytically  !
 ! D38   D(12,10,13,15)         49.6111         calculate D2E/DX2 analytically  !
 ! D39   D(12,10,13,23)        173.5945         calculate D2E/DX2 analytically  !
 ! D40   D(10,13,15,16)         62.2875         calculate D2E/DX2 analytically  !
 ! D41   D(10,13,15,17)       -177.9854         calculate D2E/DX2 analytically  !
 ! D42   D(10,13,15,18)        -57.5757         calculate D2E/DX2 analytically  !
 ! D43   D(14,13,15,16)        179.3535         calculate D2E/DX2 analytically  !
 ! D44   D(14,13,15,17)        -60.9194         calculate D2E/DX2 analytically  !
 ! D45   D(14,13,15,18)         59.4904         calculate D2E/DX2 analytically  !
 ! D46   D(23,13,15,16)        -62.9818         calculate D2E/DX2 analytically  !
 ! D47   D(23,13,15,17)         56.7453         calculate D2E/DX2 analytically  !
 ! D48   D(23,13,15,18)        177.155          calculate D2E/DX2 analytically  !
 ! D49   D(10,13,23,24)       -179.2888         calculate D2E/DX2 analytically  !
 ! D50   D(10,13,23,25)        -59.9228         calculate D2E/DX2 analytically  !
 ! D51   D(10,13,23,26)         60.5927         calculate D2E/DX2 analytically  !
 ! D52   D(14,13,23,24)         62.0824         calculate D2E/DX2 analytically  !
 ! D53   D(14,13,23,25)       -178.5517         calculate D2E/DX2 analytically  !
 ! D54   D(14,13,23,26)        -58.0361         calculate D2E/DX2 analytically  !
 ! D55   D(15,13,23,24)        -55.4198         calculate D2E/DX2 analytically  !
 ! D56   D(15,13,23,25)         63.9462         calculate D2E/DX2 analytically  !
 ! D57   D(15,13,23,26)       -175.5383         calculate D2E/DX2 analytically  !
 ! D58   D(20,19,27,1)         -61.6382         calculate D2E/DX2 analytically  !
 ! D59   D(20,19,27,5)          64.2437         calculate D2E/DX2 analytically  !
 ! D60   D(20,19,27,28)       -178.2837         calculate D2E/DX2 analytically  !
 ! D61   D(21,19,27,1)          58.0463         calculate D2E/DX2 analytically  !
 ! D62   D(21,19,27,5)        -176.0719         calculate D2E/DX2 analytically  !
 ! D63   D(21,19,27,28)        -58.5993         calculate D2E/DX2 analytically  !
 ! D64   D(22,19,27,1)         178.5341         calculate D2E/DX2 analytically  !
 ! D65   D(22,19,27,5)         -55.5841         calculate D2E/DX2 analytically  !
 ! D66   D(22,19,27,28)         61.8885         calculate D2E/DX2 analytically  !
 ! D67   D(1,27,28,29)          65.6595         calculate D2E/DX2 analytically  !
 ! D68   D(5,27,28,29)         -58.4419         calculate D2E/DX2 analytically  !
 ! D69   D(19,27,28,29)       -177.0651         calculate D2E/DX2 analytically  !
 ! D70   D(27,28,29,30)       -121.7917         calculate D2E/DX2 analytically  !
 --------------------------------------------------------------------------------
 Trust Radius=3.00D-01 FncErr=1.00D-07 GrdErr=1.00D-06
 Number of steps in this run=    162 maximum allowed number of steps=    180.
 GradGradGradGradGradGradGradGradGradGradGradGradGradGradGradGradGradGrad

 Leave Link  103 at Thu Feb 20 17:36:51 2014, MaxMem= 4026531840 cpu:       0.2
 (Enter /usr/caen/gaussian-09revc/g09/l202.exe)
                          Input orientation:                          
 ---------------------------------------------------------------------
 Center     Atomic      Atomic             Coordinates (Angstroms)
 Number     Number       Type             X           Y           Z
 ---------------------------------------------------------------------
      1          6           0        3.240478   -0.105149    1.105155
      2          1           0        2.948021   -1.015818    1.630567
      3          1           0        3.377818    0.686560    1.846446
      4          1           0        4.195969   -0.275641    0.602688
      5          6           0        0.837830    0.522199    0.746861
      6          1           0        0.798996    0.529875    1.832219
      7          6           0       -0.430141    0.717225   -0.014929
      8          1           0       -0.253095    0.534669   -1.079704
      9          1           0       -0.755520    1.765336    0.074280
     10          6           0       -1.567988   -0.203943    0.473938
     11          1           0       -1.753492   -0.015477    1.540270
     12          1           0       -1.218738   -1.238535    0.398654
     13          6           0       -2.893983   -0.064712   -0.297554
     14          1           0       -2.671549   -0.198148   -1.365224
     15          6           0       -3.870172   -1.174777    0.117776
     16          1           0       -4.119301   -1.097092    1.182087
     17          1           0       -4.805626   -1.112831   -0.446533
     18          1           0       -3.440354   -2.166263   -0.051664
     19          6           0        2.618652    1.523033   -0.731557
     20          1           0        2.775312    2.372686   -0.063779
     21          1           0        3.555381    1.308376   -1.252684
     22          1           0        1.863048    1.794431   -1.470435
     23          6           0       -3.542337    1.315581   -0.118226
     24          1           0       -4.486598    1.377416   -0.667533
     25          1           0       -3.760651    1.507253    0.938676
     26          1           0       -2.901394    2.123956   -0.478611
     27          6           0        2.167686    0.301246    0.091762
     28          8           0        2.059424   -0.709279   -0.962579
     29          8           0        1.565869   -1.955032   -0.385523
     30          1           0        2.289289   -2.550486   -0.624263
 ---------------------------------------------------------------------
                    Distance matrix (angstroms):
                    1          2          3          4          5
     1  C    0.000000
     2  H    1.091287   0.000000
     3  H    1.093242   1.769017   0.000000
     4  H    1.092934   1.778137   1.772607   0.000000
     5  C    2.508916   2.756690   2.772660   3.454625   0.000000
     6  H    2.625397   2.654833   2.583617   3.701355   1.086080
     7  C    3.924835   4.138004   4.238657   4.771596   1.492015
     8  H    4.169895   4.471770   4.665721   4.825061   2.127584
     9  H    4.530940   4.886007   4.624804   5.381640   2.129911
    10  C    4.850726   4.731941   5.209393   5.765841   2.527791
    11  H    5.013692   4.807604   5.188154   6.028502   2.762887
    12  H    4.654924   4.350758   5.189453   5.503440   2.729634
    13  C    6.292920   6.225051   6.670580   7.149989   3.919400
    14  H    6.408080   6.420507   6.905967   7.144332   4.158791
    15  C    7.258124   6.985811   7.680250   8.130573   5.043883
    16  H    7.426723   7.082004   7.734958   8.375810   5.233037
    17  H    8.256086   8.027627   8.687020   9.101124   5.995507
    18  H    7.086603   6.705577   7.630786   7.894052   5.115499
    19  C    2.532026   3.483372   2.814626   2.739227   2.521649
    20  H    2.778930   3.792439   2.618204   3.078324   2.799156
    21  H    2.767060   3.752852   3.165879   2.522274   3.464295
    22  H    3.484162   4.323295   3.810985   3.745071   2.754278
    23  C    7.037167   7.114664   7.221091   7.933038   4.534721
    24  H    8.065242   8.141400   8.285313   8.929335   5.575073
    25  H    7.186332   7.200756   7.242605   8.160846   4.706713
    26  H    6.723081   6.965807   6.848394   7.569665   4.248435
    27  C    1.530688   2.170599   2.166057   2.169741   1.498830
    28  O    2.456702   2.758256   3.402521   2.683827   2.435368
    29  O    2.906631   2.618604   3.904210   3.273277   2.819398
    30  H    3.142502   2.805957   4.215183   3.211815   3.664438
                    6          7          8          9         10
     6  H    0.000000
     7  C    2.226619   0.000000
     8  H    3.096161   1.094723   0.000000
     9  H    2.652024   1.101075   1.760299   0.000000
    10  C    2.825956   1.543450   2.165247   2.167462   0.000000
    11  H    2.626374   2.169505   3.068895   2.513239   1.098633
    12  H    3.041978   2.148938   2.502451   3.056637   1.094543
    13  C    4.304365   2.600350   2.818742   2.839077   1.540405
    14  H    4.774761   2.772204   2.543121   3.098162   2.144854
    15  C    5.257973   3.928243   4.176052   4.283365   2.523771
    16  H    5.221048   4.281880   4.767168   4.553653   2.794349
    17  H    6.269209   4.762379   4.882694   4.995843   3.486495
    18  H    5.365656   4.168601   4.302385   4.762527   2.762736
    19  C    3.297038   3.233886   3.056959   3.477516   4.686536
    20  H    3.300998   3.608028   3.685330   3.585346   5.078623
    21  H    4.209554   4.214959   3.890120   4.533598   5.614022
    22  H    3.693079   2.921915   2.493538   3.040377   4.421096
    23  C    4.823768   3.170877   3.514737   2.829432   2.560794
    24  H    5.908011   4.161320   4.336203   3.823835   3.510262
    25  H    4.748059   3.553281   4.162058   3.137610   2.819919
    26  H    4.644773   2.881143   3.146527   2.244788   2.846829
    27  C    2.225932   2.633083   2.699444   3.269403   3.789002
    28  O    3.306823   3.021736   2.628473   3.888792   3.934090
    29  O    3.417782   3.355943   3.160558   4.409241   3.691347
    30  H    4.212351   4.294709   4.023596   5.327771   4.646600
                   11         12         13         14         15
    11  H    0.000000
    12  H    1.756451   0.000000
    13  C    2.163502   2.160790   0.000000
    14  H    3.052555   2.510843   1.098727   0.000000
    15  C    2.801392   2.667032   1.535477   2.142380   0.000000
    16  H    2.625879   3.007830   2.180952   3.064780   1.095837
    17  H    3.803563   3.687263   2.185206   2.496983   1.094238
    18  H    3.163169   2.449294   2.185292   2.487967   1.093845
    19  C    5.161769   4.860987   5.753124   5.599127   7.078445
    20  H    5.365292   5.404368   6.175473   6.162081   7.535245
    21  H    6.143070   5.657374   6.662728   6.407569   7.948776
    22  H    5.041773   4.710603   5.240363   4.954191   6.648941
    23  C    2.778901   3.491387   1.535490   2.145845   2.522906
    24  H    3.779473   4.319591   2.180147   2.502714   2.740507
    25  H    2.590233   3.780515   2.179553   3.066348   2.806984
    26  H    3.157647   3.860994   2.196157   2.496213   3.489391
    27  C    4.192150   3.732690   5.089792   5.078425   6.215710
    28  O    4.613452   3.588790   5.039243   4.775509   6.045160
    29  O    4.299850   2.980325   4.844722   4.690647   5.514766
    30  H    5.239805   3.882503   5.757788   5.540075   6.354696
                   16         17         18         19         20
    16  H    0.000000
    17  H    1.767397   0.000000
    18  H    1.768117   1.769070   0.000000
    19  C    7.478442   7.883459   7.126339   0.000000
    20  H    7.818390   8.352601   7.696539   1.091962   0.000000
    21  H    8.403281   8.741771   7.902903   1.093212   1.776164
    22  H    7.154389   7.346548   6.769496   1.091116   1.773495
    23  C    2.800838   2.756967   3.483973   6.194917   6.405710
    24  H    3.111140   2.520308   3.745875   7.107030   7.354619
    25  H    2.640169   3.142549   3.818126   6.594349   6.668786
    26  H    3.823136   3.755518   4.344967   5.558417   5.697275
    27  C    6.532256   7.135577   6.128563   1.540775   2.164317
    28  O    6.551842   6.896236   5.761955   2.312861   3.289201
    29  O    5.959414   6.427206   5.021787   3.650346   4.505043
    30  H    6.815077   7.241288   5.770988   4.088221   4.978753
                   21         22         23         24         25
    21  H    0.000000
    22  H    1.774163   0.000000
    23  C    7.187812   5.592491   0.000000
    24  H    8.063535   6.413779   1.094162   0.000000
    25  H    7.639760   6.124727   1.096103   1.767417   0.000000
    26  H    6.553953   4.877726   1.092774   1.762352   1.768431
    27  C    2.178886   2.182399   5.803217   6.783374   6.108756
    28  O    2.528434   2.562234   6.016038   6.876900   6.511609
    29  O    3.919178   3.914565   6.071419   6.914991   6.489433
    30  H    4.109589   4.447021   7.015013   7.832173   7.450490
                   26         27         28         29         30
    26  H    0.000000
    27  C    5.416934   0.000000
    28  O    5.733338   1.464417   0.000000
    29  O    6.050062   2.383438   1.458935   0.000000
    30  H    6.986760   2.942763   1.886091   0.966902   0.000000
 Stoichiometry    C9H19O2(2)
 Framework group  C1[X(C9H19O2)]
 Deg. of freedom    84
 Full point group                 C1      NOp   1
 Largest Abelian subgroup         C1      NOp   1
 Largest concise Abelian subgroup C1      NOp   1
                         Standard orientation:                         
 ---------------------------------------------------------------------
 Center     Atomic      Atomic             Coordinates (Angstroms)
 Number     Number       Type             X           Y           Z
 ---------------------------------------------------------------------
      1          6           0       -3.240478    0.105149    1.105155
      2          1           0       -2.948021    1.015818    1.630567
      3          1           0       -3.377818   -0.686560    1.846446
      4          1           0       -4.195969    0.275641    0.602688
      5          6           0       -0.837830   -0.522199    0.746861
      6          1           0       -0.798996   -0.529875    1.832219
      7          6           0        0.430141   -0.717225   -0.014929
      8          1           0        0.253095   -0.534669   -1.079704
      9          1           0        0.755520   -1.765336    0.074280
     10          6           0        1.567988    0.203943    0.473938
     11          1           0        1.753492    0.015477    1.540270
     12          1           0        1.218738    1.238535    0.398654
     13          6           0        2.893983    0.064712   -0.297554
     14          1           0        2.671549    0.198148   -1.365224
     15          6           0        3.870172    1.174777    0.117776
     16          1           0        4.119301    1.097092    1.182087
     17          1           0        4.805626    1.112831   -0.446533
     18          1           0        3.440354    2.166263   -0.051664
     19          6           0       -2.618652   -1.523033   -0.731557
     20          1           0       -2.775312   -2.372686   -0.063779
     21          1           0       -3.555381   -1.308376   -1.252684
     22          1           0       -1.863048   -1.794431   -1.470435
     23          6           0        3.542337   -1.315581   -0.118226
     24          1           0        4.486598   -1.377416   -0.667533
     25          1           0        3.760651   -1.507253    0.938676
     26          1           0        2.901394   -2.123956   -0.478611
     27          6           0       -2.167686   -0.301246    0.091762
     28          8           0       -2.059424    0.709279   -0.962579
     29          8           0       -1.565869    1.955032   -0.385523
     30          1           0       -2.289289    2.550486   -0.624263
 ---------------------------------------------------------------------
 Rotational constants (GHZ):      1.9639389      0.4637350      0.4198841
 Leave Link  202 at Thu Feb 20 17:36:52 2014, MaxMem= 4026531840 cpu:       0.5
 (Enter /usr/caen/gaussian-09revc/g09/l301.exe)
 Standard basis: 6-311G(2d,d,p) (5D, 7F)
 Ernie: Thresh=  0.10000D-02 Tol=  0.10000D-05 Strict=F.
 There are   312 symmetry adapted basis functions of A   symmetry.
 Integral buffers will be    131072 words long.
 Raffenetti 2 integral format.
 Two-electron integral symmetry is turned on.
   312 basis functions,   504 primitive gaussians,   323 cartesian basis functions
    45 alpha electrons       44 beta electrons
       nuclear repulsion energy       661.1267550981 Hartrees.
 IExCor=  402 DFT=T Ex+Corr=B3LYP ExCW=0 ScaHFX=  0.200000
 ScaDFX=  0.800000  0.720000  1.000000  0.810000 ScalE2=  1.000000  1.000000
 IRadAn=      0 IRanWt=     -1 IRanGd=            0 ICorTp=0
 NAtoms=   30 NActive=   30 NUniq=   30 SFac= 1.00D+00 NAtFMM=   60 NAOKFM=F Big=F
 Leave Link  301 at Thu Feb 20 17:36:52 2014, MaxMem= 4026531840 cpu:       0.6
 (Enter /usr/caen/gaussian-09revc/g09/l302.exe)
 NPDir=0 NMtPBC=     1 NCelOv=     1 NCel=       1 NClECP=     1 NCelD=      1
         NCelK=      1 NCelE2=     1 NClLst=     1 CellRange=     0.0.
 One-electron integrals computed using PRISM.
 NBasis=   312 RedAO= T  NBF=   312
 NBsUse=   312 1.00D-06 NBFU=   312
 Precomputing XC quadrature grid using
 IXCGrd= 2 IRadAn=           0 IRanWt=          -1 IRanGd=           0 AccXCQ= 0.00D+00.
 NRdTot=    1914 NPtTot=      243114 NUsed=      256915 NTot=      256947
 NSgBfM=   323   323   323   323   323 NAtAll=    30    30.
 Leave Link  302 at Thu Feb 20 17:36:54 2014, MaxMem= 4026531840 cpu:       8.3
 (Enter /usr/caen/gaussian-09revc/g09/l303.exe)
 DipDrv:  MaxL=1.
 Leave Link  303 at Thu Feb 20 17:36:54 2014, MaxMem= 4026531840 cpu:       2.1
 (Enter /usr/caen/gaussian-09revc/g09/l401.exe)
 Harris functional with IExCor=  402 diagonalized for initial guess.
 ExpMin= 1.03D-01 ExpMax= 8.59D+03 ExpMxC= 1.30D+03 IAcc=1 IRadAn=         1 AccDes= 0.00D+00
 HarFok:  IExCor=  402 AccDes= 0.00D+00 IRadAn=         1 IDoV= 1
 ScaDFX=  1.000000  1.000000  1.000000  1.000000
 FoFCou: FMM=F IPFlag=           0 FMFlag=      100000 FMFlg1=           0
         NFxFlg=           0 DoJE=T BraDBF=F KetDBF=T FulRan=T
         Omega=  0.000000  0.000000  1.000000  0.000000  0.000000 ICntrl=     500 IOpCl=  0
         NMat0=    1 NMatS0=    1 NMatT0=    0 NMatD0=    1 NMtDS0=    0 NMtDT0=    0
         I1Cent=           4 NGrid=           0.
 Petite list used in FoFCou.
 Harris En= -504.922003234244    
 Initial guess orbital symmetries:
 Alpha Orbitals:
       Occupied  (A) (A) (A) (A) (A) (A) (A) (A) (A) (A) (A) (A)
                 (A) (A) (A) (A) (A) (A) (A) (A) (A) (A) (A) (A)
                 (A) (A) (A) (A) (A) (A) (A) (A) (A) (A) (A) (A)
                 (A) (A) (A) (A) (A) (A) (A) (A) (A)
       Virtual   (A) (A) (A) (A) (A) (A) (A) (A) (A) (A) (A) (A)
                 (A) (A) (A) (A) (A) (A) (A) (A) (A) (A) (A) (A)
                 (A) (A) (A) (A) (A) (A) (A) (A) (A) (A) (A) (A)
                 (A) (A) (A) (A) (A) (A) (A) (A) (A) (A) (A) (A)
                 (A) (A) (A) (A) (A) (A) (A) (A) (A) (A) (A) (A)
                 (A) (A) (A) (A) (A) (A) (A) (A) (A) (A) (A) (A)
                 (A) (A) (A) (A) (A) (A) (A) (A) (A) (A) (A) (A)
                 (A) (A) (A) (A) (A) (A) (A) (A) (A) (A) (A) (A)
                 (A) (A) (A) (A) (A) (A) (A) (A) (A) (A) (A) (A)
                 (A) (A) (A) (A) (A) (A) (A) (A) (A) (A) (A) (A)
                 (A) (A) (A) (A) (A) (A) (A) (A) (A) (A) (A) (A)
                 (A) (A) (A) (A) (A) (A) (A) (A) (A) (A) (A) (A)
                 (A) (A) (A) (A) (A) (A) (A) (A) (A) (A) (A) (A)
                 (A) (A) (A) (A) (A) (A) (A) (A) (A) (A) (A) (A)
                 (A) (A) (A) (A) (A) (A) (A) (A) (A) (A) (A) (A)
                 (A) (A) (A) (A) (A) (A) (A) (A) (A) (A) (A) (A)
                 (A) (A) (A) (A) (A) (A) (A) (A) (A) (A) (A) (A)
                 (A) (A) (A) (A) (A) (A) (A) (A) (A) (A) (A) (A)
                 (A) (A) (A) (A) (A) (A) (A) (A) (A) (A) (A) (A)
                 (A) (A) (A) (A) (A) (A) (A) (A) (A) (A) (A) (A)
                 (A) (A) (A) (A) (A) (A) (A) (A) (A) (A) (A) (A)
                 (A) (A) (A) (A) (A) (A) (A) (A) (A) (A) (A) (A)
                 (A) (A) (A)
 Beta  Orbitals:
       Occupied  (A) (A) (A) (A) (A) (A) (A) (A) (A) (A) (A) (A)
                 (A) (A) (A) (A) (A) (A) (A) (A) (A) (A) (A) (A)
                 (A) (A) (A) (A) (A) (A) (A) (A) (A) (A) (A) (A)
                 (A) (A) (A) (A) (A) (A) (A) (A)
       Virtual   (A) (A) (A) (A) (A) (A) (A) (A) (A) (A) (A) (A)
                 (A) (A) (A) (A) (A) (A) (A) (A) (A) (A) (A) (A)
                 (A) (A) (A) (A) (A) (A) (A) (A) (A) (A) (A) (A)
                 (A) (A) (A) (A) (A) (A) (A) (A) (A) (A) (A) (A)
                 (A) (A) (A) (A) (A) (A) (A) (A) (A) (A) (A) (A)
                 (A) (A) (A) (A) (A) (A) (A) (A) (A) (A) (A) (A)
                 (A) (A) (A) (A) (A) (A) (A) (A) (A) (A) (A) (A)
                 (A) (A) (A) (A) (A) (A) (A) (A) (A) (A) (A) (A)
                 (A) (A) (A) (A) (A) (A) (A) (A) (A) (A) (A) (A)
                 (A) (A) (A) (A) (A) (A) (A) (A) (A) (A) (A) (A)
                 (A) (A) (A) (A) (A) (A) (A) (A) (A) (A) (A) (A)
                 (A) (A) (A) (A) (A) (A) (A) (A) (A) (A) (A) (A)
                 (A) (A) (A) (A) (A) (A) (A) (A) (A) (A) (A) (A)
                 (A) (A) (A) (A) (A) (A) (A) (A) (A) (A) (A) (A)
                 (A) (A) (A) (A) (A) (A) (A) (A) (A) (A) (A) (A)
                 (A) (A) (A) (A) (A) (A) (A) (A) (A) (A) (A) (A)
                 (A) (A) (A) (A) (A) (A) (A) (A) (A) (A) (A) (A)
                 (A) (A) (A) (A) (A) (A) (A) (A) (A) (A) (A) (A)
                 (A) (A) (A) (A) (A) (A) (A) (A) (A) (A) (A) (A)
                 (A) (A) (A) (A) (A) (A) (A) (A) (A) (A) (A) (A)
                 (A) (A) (A) (A) (A) (A) (A) (A) (A) (A) (A) (A)
                 (A) (A) (A) (A) (A) (A) (A) (A) (A) (A) (A) (A)
                 (A) (A) (A) (A)
 The electronic state of the initial guess is 2-A.
 Initial guess <Sx>= 0.0000 <Sy>= 0.0000 <Sz>= 0.5000 <S**2>= 0.7500 S= 0.5000
 Leave Link  401 at Thu Feb 20 17:36:57 2014, MaxMem= 4026531840 cpu:      15.8
 (Enter /usr/caen/gaussian-09revc/g09/l502.exe)
 UHF open shell SCF:
 Requested convergence on RMS density matrix=1.00D-08 within 128 cycles.
 Requested convergence on MAX density matrix=1.00D-06.
 Requested convergence on             energy=1.00D-06.
 No special actions if energy rises.
 Using DIIS extrapolation, IDIIS=  1040.
 Integral symmetry usage will be decided dynamically.
       256632 words used for storage of precomputed grid.
 Keep R1 and R2 ints in memory in canonical form, NReq=2755661363.
 IEnd=      592790 IEndB=      592790 NGot=  4026531840 MDV=  1287997713
 LenX=  1287997713 LenY=  1287892943
 Symmetry not used in FoFDir.
 MinBra= 0 MaxBra= 2 Meth= 1.
 IRaf=       0 NMat=   1 IRICut=       1 DoRegI=T DoRafI=F ISym2E= 0 JSym2E=0.
 Integral accuracy reduced to 1.0D-05 until final iterations.

 Cycle   1  Pass 0  IDiag  1:
 E= -504.459659312967    
 DIIS: error= 3.40D-02 at cycle   1 NSaved=   1.
 NSaved= 1 IEnMin= 1 EnMin= -504.459659312967     IErMin= 1 ErrMin= 3.40D-02
 ErrMax= 3.40D-02 EMaxC= 1.00D-01 BMatC= 1.60D+00 BMatP= 1.60D+00
 IDIUse=3 WtCom= 6.60D-01 WtEn= 3.40D-01
 Coeff-Com:  0.100D+01
 Coeff-En:   0.100D+01
 Coeff:      0.100D+01
 Gap=     0.162 Goal=   None    Shift=    0.000
 Gap=     0.264 Goal=   None    Shift=    0.000
 GapD=    0.162 DampG=1.000 DampE=0.500 DampFc=0.5000 IDamp=-1.
 Damping current iteration by 5.00D-01
 RMSDP=3.32D-03 MaxDP=1.38D-01              OVMax= 1.93D-01

 Cycle   2  Pass 0  IDiag  1:
 E= -504.628462338008     Delta-E=       -0.168803025040 Rises=F Damp=T
 DIIS: error= 6.47D-03 at cycle   2 NSaved=   2.
 NSaved= 2 IEnMin= 2 EnMin= -504.628462338008     IErMin= 2 ErrMin= 6.47D-03
 ErrMax= 6.47D-03 EMaxC= 1.00D-01 BMatC= 8.23D-02 BMatP= 1.60D+00
 IDIUse=3 WtCom= 9.35D-01 WtEn= 6.47D-02
 Coeff-Com:  0.628D-01 0.937D+00
 Coeff-En:   0.142D+00 0.858D+00
 Coeff:      0.679D-01 0.932D+00
 Gap=     0.215 Goal=   None    Shift=    0.000
 Gap=     0.278 Goal=   None    Shift=    0.000
 RMSDP=6.76D-04 MaxDP=2.44D-02 DE=-1.69D-01 OVMax= 1.09D-01

 Cycle   3  Pass 0  IDiag  1:
 E= -504.841975804820     Delta-E=       -0.213513466812 Rises=F Damp=F
 DIIS: error= 4.55D-03 at cycle   3 NSaved=   3.
 NSaved= 3 IEnMin= 3 EnMin= -504.841975804820     IErMin= 3 ErrMin= 4.55D-03
 ErrMax= 4.55D-03 EMaxC= 1.00D-01 BMatC= 4.08D-02 BMatP= 8.23D-02
 IDIUse=3 WtCom= 9.55D-01 WtEn= 4.55D-02
 Coeff-Com: -0.127D-01 0.389D+00 0.624D+00
 Coeff-En:   0.000D+00 0.000D+00 0.100D+01
 Coeff:     -0.122D-01 0.371D+00 0.641D+00
 Gap=     0.205 Goal=   None    Shift=    0.000
 Gap=     0.213 Goal=   None    Shift=    0.000
 RMSDP=3.57D-04 MaxDP=1.82D-02 DE=-2.14D-01 OVMax= 2.56D-02

 Cycle   4  Pass 0  IDiag  1:
 E= -504.845096154251     Delta-E=       -0.003120349431 Rises=F Damp=F
 DIIS: error= 4.30D-03 at cycle   4 NSaved=   4.
 NSaved= 4 IEnMin= 4 EnMin= -504.845096154251     IErMin= 4 ErrMin= 4.30D-03
 ErrMax= 4.30D-03 EMaxC= 1.00D-01 BMatC= 2.72D-02 BMatP= 4.08D-02
 IDIUse=3 WtCom= 9.57D-01 WtEn= 4.30D-02
 Coeff-Com: -0.190D-01 0.114D+00 0.456D+00 0.449D+00
 Coeff-En:   0.000D+00 0.000D+00 0.394D+00 0.606D+00
 Coeff:     -0.182D-01 0.109D+00 0.453D+00 0.456D+00
 Gap=     0.205 Goal=   None    Shift=    0.000
 Gap=     0.208 Goal=   None    Shift=    0.000
 RMSDP=1.78D-04 MaxDP=7.94D-03 DE=-3.12D-03 OVMax= 1.42D-02

 Cycle   5  Pass 0  IDiag  1:
 E= -504.849708593866     Delta-E=       -0.004612439616 Rises=F Damp=F
 DIIS: error= 8.09D-04 at cycle   5 NSaved=   5.
 NSaved= 5 IEnMin= 5 EnMin= -504.849708593866     IErMin= 5 ErrMin= 8.09D-04
 ErrMax= 8.09D-04 EMaxC= 1.00D-01 BMatC= 1.00D-03 BMatP= 2.72D-02
 IDIUse=3 WtCom= 9.92D-01 WtEn= 8.09D-03
 Coeff-Com: -0.832D-02 0.253D-01 0.180D+00 0.238D+00 0.565D+00
 Coeff-En:   0.000D+00 0.000D+00 0.000D+00 0.000D+00 0.100D+01
 Coeff:     -0.825D-02 0.251D-01 0.179D+00 0.236D+00 0.568D+00
 Gap=     0.206 Goal=   None    Shift=    0.000
 Gap=     0.206 Goal=   None    Shift=    0.000
 RMSDP=4.51D-05 MaxDP=1.93D-03 DE=-4.61D-03 OVMax= 3.30D-03

 Cycle   6  Pass 0  IDiag  1:
 E= -504.849895908021     Delta-E=       -0.000187314154 Rises=F Damp=F
 DIIS: error= 2.28D-04 at cycle   6 NSaved=   6.
 NSaved= 6 IEnMin= 6 EnMin= -504.849895908021     IErMin= 6 ErrMin= 2.28D-04
 ErrMax= 2.28D-04 EMaxC= 1.00D-01 BMatC= 1.01D-04 BMatP= 1.00D-03
 IDIUse=3 WtCom= 9.98D-01 WtEn= 2.28D-03
 Coeff-Com: -0.180D-02-0.148D-02 0.374D-01 0.669D-01 0.292D+00 0.607D+00
 Coeff-En:   0.000D+00 0.000D+00 0.000D+00 0.000D+00 0.230D-01 0.977D+00
 Coeff:     -0.180D-02-0.148D-02 0.373D-01 0.668D-01 0.292D+00 0.608D+00
 Gap=     0.206 Goal=   None    Shift=    0.000
 Gap=     0.207 Goal=   None    Shift=    0.000
 RMSDP=1.38D-05 MaxDP=7.86D-04 DE=-1.87D-04 OVMax= 1.16D-03

 Cycle   7  Pass 0  IDiag  1:
 E= -504.849919556873     Delta-E=       -0.000023648852 Rises=F Damp=F
 DIIS: error= 3.09D-05 at cycle   7 NSaved=   7.
 NSaved= 7 IEnMin= 7 EnMin= -504.849919556873     IErMin= 7 ErrMin= 3.09D-05
 ErrMax= 3.09D-05 EMaxC= 1.00D-01 BMatC= 2.49D-06 BMatP= 1.01D-04
 IDIUse=1 WtCom= 1.00D+00 WtEn= 0.00D+00
 Coeff-Com:  0.634D-03-0.243D-02-0.122D-01-0.151D-01-0.254D-01 0.565D-01
 Coeff-Com:  0.998D+00
 Coeff:      0.634D-03-0.243D-02-0.122D-01-0.151D-01-0.254D-01 0.565D-01
 Coeff:      0.998D+00
 Gap=     0.206 Goal=   None    Shift=    0.000
 Gap=     0.207 Goal=   None    Shift=    0.000
 RMSDP=4.45D-06 MaxDP=3.12D-04 DE=-2.36D-05 OVMax= 3.92D-04

 Initial convergence to 1.0D-05 achieved.  Increase integral accuracy.
 Cycle   8  Pass 1  IDiag  1:
 E= -504.849978728333     Delta-E=       -0.000059171461 Rises=F Damp=F
 DIIS: error= 2.09D-05 at cycle   1 NSaved=   1.
 NSaved= 1 IEnMin= 1 EnMin= -504.849978728333     IErMin= 1 ErrMin= 2.09D-05
 ErrMax= 2.09D-05 EMaxC= 1.00D-01 BMatC= 1.21D-06 BMatP= 1.21D-06
 IDIUse=1 WtCom= 1.00D+00 WtEn= 0.00D+00
 Coeff-Com:  0.100D+01
 Coeff:      0.100D+01
 Gap=     0.206 Goal=   None    Shift=    0.000
 Gap=     0.207 Goal=   None    Shift=    0.000
 RMSDP=4.45D-06 MaxDP=3.12D-04 DE=-5.92D-05 OVMax= 1.60D-04

 Cycle   9  Pass 1  IDiag  1:
 E= -504.849978914324     Delta-E=       -0.000000185991 Rises=F Damp=F
 DIIS: error= 1.80D-05 at cycle   2 NSaved=   2.
 NSaved= 2 IEnMin= 2 EnMin= -504.849978914324     IErMin= 2 ErrMin= 1.80D-05
 ErrMax= 1.80D-05 EMaxC= 1.00D-01 BMatC= 8.56D-07 BMatP= 1.21D-06
 IDIUse=1 WtCom= 1.00D+00 WtEn= 0.00D+00
 Coeff-Com:  0.446D+00 0.554D+00
 Coeff:      0.446D+00 0.554D+00
 Gap=     0.206 Goal=   None    Shift=    0.000
 Gap=     0.207 Goal=   None    Shift=    0.000
 RMSDP=1.41D-06 MaxDP=7.59D-05 DE=-1.86D-07 OVMax= 8.73D-05

 Cycle  10  Pass 1  IDiag  1:
 E= -504.849979105387     Delta-E=       -0.000000191063 Rises=F Damp=F
 DIIS: error= 5.28D-06 at cycle   3 NSaved=   3.
 NSaved= 3 IEnMin= 3 EnMin= -504.849979105387     IErMin= 3 ErrMin= 5.28D-06
 ErrMax= 5.28D-06 EMaxC= 1.00D-01 BMatC= 6.72D-08 BMatP= 8.56D-07
 IDIUse=1 WtCom= 1.00D+00 WtEn= 0.00D+00
 Coeff-Com: -0.257D-01 0.187D+00 0.839D+00
 Coeff:     -0.257D-01 0.187D+00 0.839D+00
 Gap=     0.206 Goal=   None    Shift=    0.000
 Gap=     0.207 Goal=   None    Shift=    0.000
 RMSDP=4.67D-07 MaxDP=3.02D-05 DE=-1.91D-07 OVMax= 3.14D-05

 Cycle  11  Pass 1  IDiag  1:
 E= -504.849979122952     Delta-E=       -0.000000017565 Rises=F Damp=F
 DIIS: error= 2.77D-06 at cycle   4 NSaved=   4.
 NSaved= 4 IEnMin= 4 EnMin= -504.849979122952     IErMin= 4 ErrMin= 2.77D-06
 ErrMax= 2.77D-06 EMaxC= 1.00D-01 BMatC= 9.69D-09 BMatP= 6.72D-08
 IDIUse=1 WtCom= 1.00D+00 WtEn= 0.00D+00
 Coeff-Com: -0.421D-01 0.454D-01 0.369D+00 0.627D+00
 Coeff:     -0.421D-01 0.454D-01 0.369D+00 0.627D+00
 Gap=     0.206 Goal=   None    Shift=    0.000
 Gap=     0.207 Goal=   None    Shift=    0.000
 RMSDP=1.88D-07 MaxDP=1.08D-05 DE=-1.76D-08 OVMax= 1.28D-05

 Cycle  12  Pass 1  IDiag  1:
 E= -504.849979125252     Delta-E=       -0.000000002300 Rises=F Damp=F
 DIIS: error= 1.46D-06 at cycle   5 NSaved=   5.
 NSaved= 5 IEnMin= 5 EnMin= -504.849979125252     IErMin= 5 ErrMin= 1.46D-06
 ErrMax= 1.46D-06 EMaxC= 1.00D-01 BMatC= 3.12D-09 BMatP= 9.69D-09
 IDIUse=1 WtCom= 1.00D+00 WtEn= 0.00D+00
 Coeff-Com: -0.180D-01-0.125D-01 0.370D-01 0.359D+00 0.634D+00
 Coeff:     -0.180D-01-0.125D-01 0.370D-01 0.359D+00 0.634D+00
 Gap=     0.206 Goal=   None    Shift=    0.000
 Gap=     0.207 Goal=   None    Shift=    0.000
 RMSDP=9.07D-08 MaxDP=4.46D-06 DE=-2.30D-09 OVMax= 7.87D-06

 Cycle  13  Pass 1  IDiag  1:
 E= -504.849979125828     Delta-E=       -0.000000000575 Rises=F Damp=F
 DIIS: error= 9.32D-07 at cycle   6 NSaved=   6.
 NSaved= 6 IEnMin= 6 EnMin= -504.849979125828     IErMin= 6 ErrMin= 9.32D-07
 ErrMax= 9.32D-07 EMaxC= 1.00D-01 BMatC= 1.19D-09 BMatP= 3.12D-09
 IDIUse=1 WtCom= 1.00D+00 WtEn= 0.00D+00
 Coeff-Com:  0.246D-02-0.264D-01-0.111D+00 0.271D-01 0.458D+00 0.650D+00
 Coeff:      0.246D-02-0.264D-01-0.111D+00 0.271D-01 0.458D+00 0.650D+00
 Gap=     0.206 Goal=   None    Shift=    0.000
 Gap=     0.207 Goal=   None    Shift=    0.000
 RMSDP=5.41D-08 MaxDP=3.39D-06 DE=-5.75D-10 OVMax= 4.63D-06

 Cycle  14  Pass 1  IDiag  1:
 E= -504.849979126091     Delta-E=       -0.000000000263 Rises=F Damp=F
 DIIS: error= 2.06D-07 at cycle   7 NSaved=   7.
 NSaved= 7 IEnMin= 7 EnMin= -504.849979126091     IErMin= 7 ErrMin= 2.06D-07
 ErrMax= 2.06D-07 EMaxC= 1.00D-01 BMatC= 9.04D-11 BMatP= 1.19D-09
 IDIUse=1 WtCom= 1.00D+00 WtEn= 0.00D+00
 Coeff-Com:  0.271D-02-0.127D-01-0.599D-01-0.205D-01 0.173D+00 0.337D+00
 Coeff-Com:  0.580D+00
 Coeff:      0.271D-02-0.127D-01-0.599D-01-0.205D-01 0.173D+00 0.337D+00
 Coeff:      0.580D+00
 Gap=     0.206 Goal=   None    Shift=    0.000
 Gap=     0.207 Goal=   None    Shift=    0.000
 RMSDP=1.60D-08 MaxDP=8.68D-07 DE=-2.63D-10 OVMax= 1.09D-06

 Cycle  15  Pass 1  IDiag  1:
 E= -504.849979126121     Delta-E=       -0.000000000030 Rises=F Damp=F
 DIIS: error= 5.28D-08 at cycle   8 NSaved=   8.
 NSaved= 8 IEnMin= 8 EnMin= -504.849979126121     IErMin= 8 ErrMin= 5.28D-08
 ErrMax= 5.28D-08 EMaxC= 1.00D-01 BMatC= 5.78D-12 BMatP= 9.04D-11
 IDIUse=1 WtCom= 1.00D+00 WtEn= 0.00D+00
 Coeff-Com:  0.520D-03-0.543D-03-0.386D-02-0.971D-02-0.593D-02 0.197D-01
 Coeff-Com:  0.172D+00 0.828D+00
 Coeff:      0.520D-03-0.543D-03-0.386D-02-0.971D-02-0.593D-02 0.197D-01
 Coeff:      0.172D+00 0.828D+00
 Gap=     0.206 Goal=   None    Shift=    0.000
 Gap=     0.207 Goal=   None    Shift=    0.000
 RMSDP=6.11D-09 MaxDP=1.85D-07 DE=-2.96D-11 OVMax= 6.96D-07

 SCF Done:  E(UB3LYP) =  -504.849979126     A.U. after   15 cycles
             Convg  =    0.6107D-08             -V/T =  2.0043
 <Sx>= 0.0000 <Sy>= 0.0000 <Sz>= 0.5000 <S**2>= 0.7540 S= 0.5020
 <L.S>= 0.000000000000E+00
 KE= 5.027124094568D+02 PE=-2.499040369314D+03 EE= 8.303512256327D+02
 Annihilation of the first spin contaminant:
 S**2 before annihilation     0.7540,   after     0.7500
 Leave Link  502 at Thu Feb 20 17:39:18 2014, MaxMem= 4026531840 cpu:    1106.1
 (Enter /usr/caen/gaussian-09revc/g09/l801.exe)
 Range of M.O.s used for correlation:     1   312
 NBasis=   312 NAE=    45 NBE=    44 NFC=     0 NFV=     0
 NROrb=    312 NOA=    45 NOB=    44 NVA=   267 NVB=   268
 Leave Link  801 at Thu Feb 20 17:39:19 2014, MaxMem= 4026531840 cpu:       0.3
 (Enter /usr/caen/gaussian-09revc/g09/l1101.exe)
 Using compressed storage, NAtomX=    30.
 Will process  31 centers per pass.
 Leave Link 1101 at Thu Feb 20 17:39:20 2014, MaxMem= 4026531840 cpu:       4.9
 (Enter /usr/caen/gaussian-09revc/g09/l1102.exe)
 Symmetrizing basis deriv contribution to polar:
 IMax=3 JMax=2 DiffMx= 0.00D+00
 Leave Link 1102 at Thu Feb 20 17:39:21 2014, MaxMem= 4026531840 cpu:       1.3
 (Enter /usr/caen/gaussian-09revc/g09/l1110.exe)
 Forming Gx(P) for the SCF density, NAtomX=    30.
 Integral derivatives from FoFDir/FoFCou, PRISM(SPDF).
 Do as many integral derivatives as possible in FoFDir.
 G2DrvN: MDV=    4026531496.
 G2DrvN: will do    31 centers at a time, making    1 passes doing MaxLOS=2.
 Calling FoFCou, ICntrl=  3107 FMM=F I1Cent=   0 AccDes= 0.00D+00.
 FoFCou: FMM=F IPFlag=           0 FMFlag=      100000 FMFlg1=           0
         NFxFlg=           0 DoJE=F BraDBF=F KetDBF=F FulRan=T
         Omega=  0.000000  0.000000  1.000000  0.000000  0.000000 ICntrl=    3107 IOpCl=  1
         NMat0=    1 NMatS0=    1 NMatT0=    0 NMatD0=    1 NMtDS0=    0 NMtDT0=    0
         I1Cent=           0 NGrid=           0.
 Symmetry not used in FoFCou.
 FoFDir/FoFCou used for L=0 through L=2.
 End of G2Drv Frequency-dependent properties file   721 does not exist.
 End of G2Drv Frequency-dependent properties file   722 does not exist.
 Leave Link 1110 at Thu Feb 20 17:42:30 2014, MaxMem= 4026531840 cpu:    1487.2
 (Enter /usr/caen/gaussian-09revc/g09/l1002.exe)
 Minotr:  UHF open shell wavefunction.
          IDoAtm=111111111111111111111111111111
          Direct CPHF calculation.
          Differentiating once with respect to nuclear coordinates.
          Requested convergence is 1.0D-06 RMS, and 1.0D-05 maximum.
          Secondary convergence is 1.0D-12 RMS, and 1.0D-12 maximum.
          NewPWx=T KeepS1=F KeepF1=F KeepIn=T MapXYZ=F SortEE=F KeepMc=T.
          MDV=    4026531536 using IRadAn=       2.
 Generate precomputed XC quadrature information.
          Keep R1 and R2 ints in memory in canonical form, NReq=2738891885.
 Symmetry not used in FoFDir.
 MinBra= 0 MaxBra= 2 Meth= 1.
 IRaf=       0 NMat=   1 IRICut=       1 DoRegI=T DoRafI=F ISym2E= 0 JSym2E=0.
          Solving linear equations simultaneously, MaxMat=       0.
          There are    93 degrees of freedom in the 1st order CPHF.  IDoFFX=5.
     87 vectors produced by pass  0 Test12= 2.56D-10 1.08D-07 XBig12= 1.86D-01 1.02D-01.
 AX will form    87 AO Fock derivatives at one time.
     87 vectors produced by pass  1 Test12= 2.56D-10 1.08D-07 XBig12= 1.64D-02 1.35D-02.
     87 vectors produced by pass  2 Test12= 2.56D-10 1.08D-07 XBig12= 1.13D-04 1.60D-03.
     87 vectors produced by pass  3 Test12= 2.56D-10 1.08D-07 XBig12= 6.96D-07 1.15D-04.
     72 vectors produced by pass  4 Test12= 2.56D-10 1.08D-07 XBig12= 4.35D-09 4.77D-06.
     11 vectors produced by pass  5 Test12= 2.56D-10 1.08D-07 XBig12= 2.12D-11 4.02D-07.
 Inverted reduced A of dimension   431 with in-core refinement.
 End of Minotr Frequency-dependent properties file   721 does not exist.
 End of Minotr Frequency-dependent properties file   722 does not exist.
 Leave Link 1002 at Thu Feb 20 17:47:07 2014, MaxMem= 4026531840 cpu:    2203.8
 (Enter /usr/caen/gaussian-09revc/g09/l601.exe)
 Copying SCF densities to generalized density rwf, IOpCl= 1 IROHF=0.

 **********************************************************************

            Population analysis using the SCF density.

 **********************************************************************

 Orbital symmetries:
 Alpha Orbitals:
       Occupied  (A) (A) (A) (A) (A) (A) (A) (A) (A) (A) (A) (A)
                 (A) (A) (A) (A) (A) (A) (A) (A) (A) (A) (A) (A)
                 (A) (A) (A) (A) (A) (A) (A) (A) (A) (A) (A) (A)
                 (A) (A) (A) (A) (A) (A) (A) (A) (A)
       Virtual   (A) (A) (A) (A) (A) (A) (A) (A) (A) (A) (A) (A)
                 (A) (A) (A) (A) (A) (A) (A) (A) (A) (A) (A) (A)
                 (A) (A) (A) (A) (A) (A) (A) (A) (A) (A) (A) (A)
                 (A) (A) (A) (A) (A) (A) (A) (A) (A) (A) (A) (A)
                 (A) (A) (A) (A) (A) (A) (A) (A) (A) (A) (A) (A)
                 (A) (A) (A) (A) (A) (A) (A) (A) (A) (A) (A) (A)
                 (A) (A) (A) (A) (A) (A) (A) (A) (A) (A) (A) (A)
                 (A) (A) (A) (A) (A) (A) (A) (A) (A) (A) (A) (A)
                 (A) (A) (A) (A) (A) (A) (A) (A) (A) (A) (A) (A)
                 (A) (A) (A) (A) (A) (A) (A) (A) (A) (A) (A) (A)
                 (A) (A) (A) (A) (A) (A) (A) (A) (A) (A) (A) (A)
                 (A) (A) (A) (A) (A) (A) (A) (A) (A) (A) (A) (A)
                 (A) (A) (A) (A) (A) (A) (A) (A) (A) (A) (A) (A)
                 (A) (A) (A) (A) (A) (A) (A) (A) (A) (A) (A) (A)
                 (A) (A) (A) (A) (A) (A) (A) (A) (A) (A) (A) (A)
                 (A) (A) (A) (A) (A) (A) (A) (A) (A) (A) (A) (A)
                 (A) (A) (A) (A) (A) (A) (A) (A) (A) (A) (A) (A)
                 (A) (A) (A) (A) (A) (A) (A) (A) (A) (A) (A) (A)
                 (A) (A) (A) (A) (A) (A) (A) (A) (A) (A) (A) (A)
                 (A) (A) (A) (A) (A) (A) (A) (A) (A) (A) (A) (A)
                 (A) (A) (A) (A) (A) (A) (A) (A) (A) (A) (A) (A)
                 (A) (A) (A) (A) (A) (A) (A) (A) (A) (A) (A) (A)
                 (A) (A) (A)
 Beta  Orbitals:
       Occupied  (A) (A) (A) (A) (A) (A) (A) (A) (A) (A) (A) (A)
                 (A) (A) (A) (A) (A) (A) (A) (A) (A) (A) (A) (A)
                 (A) (A) (A) (A) (A) (A) (A) (A) (A) (A) (A) (A)
                 (A) (A) (A) (A) (A) (A) (A) (A)
       Virtual   (A) (A) (A) (A) (A) (A) (A) (A) (A) (A) (A) (A)
                 (A) (A) (A) (A) (A) (A) (A) (A) (A) (A) (A) (A)
                 (A) (A) (A) (A) (A) (A) (A) (A) (A) (A) (A) (A)
                 (A) (A) (A) (A) (A) (A) (A) (A) (A) (A) (A) (A)
                 (A) (A) (A) (A) (A) (A) (A) (A) (A) (A) (A) (A)
                 (A) (A) (A) (A) (A) (A) (A) (A) (A) (A) (A) (A)
                 (A) (A) (A) (A) (A) (A) (A) (A) (A) (A) (A) (A)
                 (A) (A) (A) (A) (A) (A) (A) (A) (A) (A) (A) (A)
                 (A) (A) (A) (A) (A) (A) (A) (A) (A) (A) (A) (A)
                 (A) (A) (A) (A) (A) (A) (A) (A) (A) (A) (A) (A)
                 (A) (A) (A) (A) (A) (A) (A) (A) (A) (A) (A) (A)
                 (A) (A) (A) (A) (A) (A) (A) (A) (A) (A) (A) (A)
                 (A) (A) (A) (A) (A) (A) (A) (A) (A) (A) (A) (A)
                 (A) (A) (A) (A) (A) (A) (A) (A) (A) (A) (A) (A)
                 (A) (A) (A) (A) (A) (A) (A) (A) (A) (A) (A) (A)
                 (A) (A) (A) (A) (A) (A) (A) (A) (A) (A) (A) (A)
                 (A) (A) (A) (A) (A) (A) (A) (A) (A) (A) (A) (A)
                 (A) (A) (A) (A) (A) (A) (A) (A) (A) (A) (A) (A)
                 (A) (A) (A) (A) (A) (A) (A) (A) (A) (A) (A) (A)
                 (A) (A) (A) (A) (A) (A) (A) (A) (A) (A) (A) (A)
                 (A) (A) (A) (A) (A) (A) (A) (A) (A) (A) (A) (A)
                 (A) (A) (A) (A) (A) (A) (A) (A) (A) (A) (A) (A)
                 (A) (A) (A) (A)
 The electronic state is 2-A.
 Alpha  occ. eigenvalues --  -19.16665 -19.16343 -10.23422 -10.17168 -10.16785
 Alpha  occ. eigenvalues --  -10.16573 -10.16254 -10.16140 -10.15708 -10.15222
 Alpha  occ. eigenvalues --  -10.15120  -1.10777  -0.91504  -0.81240  -0.78610
 Alpha  occ. eigenvalues --   -0.74886  -0.69734  -0.67968  -0.67191  -0.60583
 Alpha  occ. eigenvalues --   -0.55657  -0.55439  -0.51057  -0.47672  -0.46688
 Alpha  occ. eigenvalues --   -0.46233  -0.44455  -0.43423  -0.42498  -0.41353
 Alpha  occ. eigenvalues --   -0.40011  -0.39300  -0.38224  -0.38106  -0.37580
 Alpha  occ. eigenvalues --   -0.36283  -0.35710  -0.35020  -0.33707  -0.32429
 Alpha  occ. eigenvalues --   -0.31804  -0.31571  -0.30539  -0.25973  -0.19310
 Alpha virt. eigenvalues --    0.01306   0.04013   0.04933   0.06635   0.07063
 Alpha virt. eigenvalues --    0.08070   0.08840   0.09241   0.09944   0.10723
 Alpha virt. eigenvalues --    0.10900   0.11337   0.11907   0.13161   0.13799
 Alpha virt. eigenvalues --    0.15043   0.15322   0.15985   0.16653   0.17805
 Alpha virt. eigenvalues --    0.18179   0.19353   0.20619   0.21459   0.23277
 Alpha virt. eigenvalues --    0.23505   0.25824   0.26412   0.27600   0.28030
 Alpha virt. eigenvalues --    0.29825   0.30076   0.33560   0.33769   0.34504
 Alpha virt. eigenvalues --    0.36793   0.37953   0.38493   0.39654   0.41124
 Alpha virt. eigenvalues --    0.42182   0.43880   0.44459   0.46690   0.46934
 Alpha virt. eigenvalues --    0.50041   0.50959   0.51894   0.53490   0.55932
 Alpha virt. eigenvalues --    0.56604   0.57084   0.57515   0.58142   0.58419
 Alpha virt. eigenvalues --    0.58598   0.58889   0.59500   0.59816   0.60329
 Alpha virt. eigenvalues --    0.60660   0.61038   0.61078   0.61701   0.62916
 Alpha virt. eigenvalues --    0.62963   0.64103   0.64268   0.65517   0.66298
 Alpha virt. eigenvalues --    0.66865   0.68999   0.70750   0.71419   0.73575
 Alpha virt. eigenvalues --    0.76337   0.79887   0.84139   0.85658   0.85956
 Alpha virt. eigenvalues --    0.87904   0.89560   0.91604   0.94569   0.95849
 Alpha virt. eigenvalues --    0.99738   1.01266   1.02219   1.05321   1.06730
 Alpha virt. eigenvalues --    1.09152   1.13045   1.15579   1.17338   1.18516
 Alpha virt. eigenvalues --    1.19733   1.21120   1.23983   1.26549   1.29762
 Alpha virt. eigenvalues --    1.32669   1.33495   1.36887   1.38501   1.39525
 Alpha virt. eigenvalues --    1.40443   1.41696   1.42093   1.43222   1.45402
 Alpha virt. eigenvalues --    1.45809   1.46368   1.46787   1.47874   1.48367
 Alpha virt. eigenvalues --    1.49896   1.50322   1.51206   1.51379   1.53494
 Alpha virt. eigenvalues --    1.54341   1.54871   1.56729   1.58356   1.58934
 Alpha virt. eigenvalues --    1.59827   1.60317   1.61720   1.63519   1.64424
 Alpha virt. eigenvalues --    1.65077   1.66076   1.67829   1.69080   1.69383
 Alpha virt. eigenvalues --    1.73319   1.73844   1.74724   1.75305   1.76218
 Alpha virt. eigenvalues --    1.77747   1.79029   1.79437   1.80203   1.84815
 Alpha virt. eigenvalues --    1.85919   1.87870   1.89558   1.91312   1.92541
 Alpha virt. eigenvalues --    1.94414   1.95190   1.96344   1.98389   2.01414
 Alpha virt. eigenvalues --    2.02481   2.03575   2.07889   2.08735   2.09962
 Alpha virt. eigenvalues --    2.10475   2.12495   2.15856   2.17697   2.19125
 Alpha virt. eigenvalues --    2.23252   2.24880   2.27117   2.28111   2.30961
 Alpha virt. eigenvalues --    2.32351   2.34300   2.35038   2.35882   2.37072
 Alpha virt. eigenvalues --    2.38986   2.41648   2.43441   2.43649   2.45488
 Alpha virt. eigenvalues --    2.46171   2.46654   2.49156   2.49409   2.50593
 Alpha virt. eigenvalues --    2.51170   2.51333   2.51702   2.52102   2.53637
 Alpha virt. eigenvalues --    2.54276   2.55555   2.56688   2.57600   2.58941
 Alpha virt. eigenvalues --    2.60037   2.61488   2.62309   2.63785   2.64927
 Alpha virt. eigenvalues --    2.65166   2.66143   2.69769   2.72189   2.72727
 Alpha virt. eigenvalues --    2.75922   2.77312   2.78400   2.79913   2.83370
 Alpha virt. eigenvalues --    2.84283   2.84660   2.89004   2.90776   2.91564
 Alpha virt. eigenvalues --    2.93922   2.94293   2.99008   3.03914   3.05781
 Alpha virt. eigenvalues --    3.10890   3.12292   3.15665   3.17455   3.21798
 Alpha virt. eigenvalues --    3.23238   3.30553   3.37270   3.47035   3.53481
 Alpha virt. eigenvalues --    3.67169   3.77037   3.77707   3.77984   3.78359
 Alpha virt. eigenvalues --    3.79111   3.80412   3.81531   3.82109   3.82788
 Alpha virt. eigenvalues --    3.84802   3.86385   3.95191   3.98223   4.06419
 Alpha virt. eigenvalues --    4.17295   4.26010   4.29967   4.31181   4.38896
 Alpha virt. eigenvalues --    4.74423   4.84207   4.95132   5.20260   5.42659
 Alpha virt. eigenvalues --    5.65256  23.70007  23.82215  23.82684  23.88097
 Alpha virt. eigenvalues --   23.90552  23.92605  23.94119  23.94622  23.95299
 Alpha virt. eigenvalues --   49.78169  49.85438
  Beta  occ. eigenvalues --  -19.16542 -19.16339 -10.23508 -10.16775 -10.16486
  Beta  occ. eigenvalues --  -10.16330 -10.16124 -10.15773 -10.15627 -10.15219
  Beta  occ. eigenvalues --  -10.15117  -1.10634  -0.91294  -0.80907  -0.77861
  Beta  occ. eigenvalues --   -0.74481  -0.69583  -0.67957  -0.65995  -0.60137
  Beta  occ. eigenvalues --   -0.55418  -0.55091  -0.50528  -0.47230  -0.46396
  Beta  occ. eigenvalues --   -0.46090  -0.44312  -0.43260  -0.42354  -0.40988
  Beta  occ. eigenvalues --   -0.39745  -0.39132  -0.38094  -0.37868  -0.37478
  Beta  occ. eigenvalues --   -0.35937  -0.35537  -0.34767  -0.33513  -0.32100
  Beta  occ. eigenvalues --   -0.31727  -0.31375  -0.30195  -0.25823
  Beta virt. eigenvalues --   -0.05148   0.01391   0.04088   0.04979   0.06742
  Beta virt. eigenvalues --    0.07185   0.08228   0.08925   0.09288   0.10093
  Beta virt. eigenvalues --    0.10807   0.10968   0.11392   0.11954   0.13242
  Beta virt. eigenvalues --    0.13907   0.15139   0.15399   0.16145   0.16727
  Beta virt. eigenvalues --    0.17881   0.18608   0.19573   0.20780   0.21680
  Beta virt. eigenvalues --    0.23413   0.23590   0.26205   0.26698   0.28126
  Beta virt. eigenvalues --    0.28491   0.29989   0.30371   0.33823   0.33966
  Beta virt. eigenvalues --    0.34765   0.37119   0.38166   0.38758   0.40089
  Beta virt. eigenvalues --    0.41572   0.42494   0.44172   0.44872   0.47036
  Beta virt. eigenvalues --    0.47096   0.50944   0.51279   0.52506   0.54839
  Beta virt. eigenvalues --    0.56253   0.56730   0.57259   0.57973   0.58230
  Beta virt. eigenvalues --    0.58557   0.58763   0.59152   0.59831   0.60050
  Beta virt. eigenvalues --    0.60499   0.60777   0.61120   0.61350   0.61868
  Beta virt. eigenvalues --    0.63050   0.63088   0.64357   0.64525   0.65620
  Beta virt. eigenvalues --    0.66523   0.67410   0.69234   0.71049   0.71861
  Beta virt. eigenvalues --    0.73948   0.76552   0.80445   0.84718   0.85863
  Beta virt. eigenvalues --    0.86094   0.88002   0.89668   0.92047   0.94871
  Beta virt. eigenvalues --    0.96047   0.99843   1.01378   1.02408   1.05420
  Beta virt. eigenvalues --    1.07360   1.09247   1.13465   1.15807   1.17759
  Beta virt. eigenvalues --    1.18884   1.19958   1.21362   1.24292   1.27053
  Beta virt. eigenvalues --    1.29888   1.33095   1.34119   1.37056   1.38565
  Beta virt. eigenvalues --    1.39682   1.40539   1.42041   1.42259   1.43455
  Beta virt. eigenvalues --    1.45592   1.45951   1.46548   1.46871   1.48132
  Beta virt. eigenvalues --    1.48517   1.50203   1.50491   1.51387   1.51573
  Beta virt. eigenvalues --    1.53700   1.54440   1.54982   1.56926   1.58665
  Beta virt. eigenvalues --    1.59427   1.60190   1.60412   1.62251   1.63741
  Beta virt. eigenvalues --    1.64650   1.65327   1.67398   1.67935   1.69389
  Beta virt. eigenvalues --    1.69663   1.73495   1.73888   1.75022   1.75530
  Beta virt. eigenvalues --    1.76472   1.78755   1.79092   1.79715   1.80682
  Beta virt. eigenvalues --    1.85184   1.86061   1.88157   1.89722   1.91764
  Beta virt. eigenvalues --    1.92802   1.94717   1.95277   1.96738   1.98949
  Beta virt. eigenvalues --    2.01915   2.02688   2.03746   2.08518   2.09369
  Beta virt. eigenvalues --    2.10035   2.10669   2.12752   2.16036   2.17996
  Beta virt. eigenvalues --    2.19340   2.23438   2.25035   2.27367   2.28583
  Beta virt. eigenvalues --    2.31079   2.32507   2.34600   2.35281   2.35989
  Beta virt. eigenvalues --    2.37190   2.39317   2.41755   2.43533   2.43771
  Beta virt. eigenvalues --    2.45646   2.46209   2.46796   2.49270   2.49549
  Beta virt. eigenvalues --    2.50701   2.51207   2.51413   2.51828   2.52179
  Beta virt. eigenvalues --    2.53962   2.54486   2.55714   2.56840   2.57739
  Beta virt. eigenvalues --    2.59087   2.60342   2.61719   2.62461   2.63969
  Beta virt. eigenvalues --    2.65048   2.65368   2.66270   2.69899   2.72311
  Beta virt. eigenvalues --    2.72930   2.76039   2.77595   2.79290   2.80523
  Beta virt. eigenvalues --    2.83623   2.84578   2.85481   2.89074   2.91598
  Beta virt. eigenvalues --    2.92299   2.93999   2.94929   2.99973   3.04298
  Beta virt. eigenvalues --    3.06028   3.10923   3.12401   3.16513   3.17510
  Beta virt. eigenvalues --    3.21929   3.23384   3.30680   3.37599   3.47127
  Beta virt. eigenvalues --    3.54090   3.67260   3.77123   3.77775   3.78007
  Beta virt. eigenvalues --    3.78384   3.79191   3.80486   3.81550   3.82157
  Beta virt. eigenvalues --    3.82851   3.84908   3.86536   3.95733   3.98359
  Beta virt. eigenvalues --    4.07037   4.17585   4.26305   4.29980   4.31665
  Beta virt. eigenvalues --    4.39519   4.74480   4.84221   4.95293   5.20492
  Beta virt. eigenvalues --    5.42729   5.65341  23.70055  23.82413  23.83427
  Beta virt. eigenvalues --   23.88186  23.90782  23.92825  23.94145  23.94653
  Beta virt. eigenvalues --   23.95374  49.78177  49.85560
          Condensed to atoms (all electrons):
              1          2          3          4          5          6
     1  C    4.933236   0.404709   0.390438   0.394077  -0.092833  -0.004223
     2  H    0.404709   0.556245  -0.027417  -0.027697  -0.004803   0.000847
     3  H    0.390438  -0.027417   0.585045  -0.025046  -0.000343   0.000291
     4  H    0.394077  -0.027697  -0.025046   0.577305   0.010137   0.000054
     5  C   -0.092833  -0.004803  -0.000343   0.010137   5.396931   0.402352
     6  H   -0.004223   0.000847   0.000291   0.000054   0.402352   0.568435
     7  C    0.007259   0.000030  -0.000158  -0.000442   0.329435  -0.036501
     8  H    0.001409   0.000058  -0.000132  -0.000053  -0.047924   0.006745
     9  H   -0.000320   0.000011  -0.000048   0.000025  -0.039833  -0.001386
    10  C   -0.000354  -0.000038   0.000022   0.000017  -0.050945  -0.004467
    11  H    0.000005   0.000002   0.000001   0.000001  -0.004047   0.003906
    12  H   -0.000285   0.000037  -0.000008   0.000008  -0.001743  -0.000409
    13  C    0.000005   0.000002   0.000000   0.000000   0.006695   0.000014
    14  H   -0.000002   0.000000   0.000000   0.000000  -0.000005   0.000019
    15  C    0.000000   0.000000   0.000000   0.000000  -0.000294   0.000000
    16  H    0.000000   0.000000   0.000000   0.000000  -0.000004  -0.000006
    17  H    0.000000   0.000000   0.000000   0.000000   0.000017   0.000000
    18  H    0.000000   0.000000   0.000000   0.000000  -0.000050   0.000004
    19  C   -0.054064   0.008833  -0.004851  -0.007091  -0.079292   0.003732
    20  H   -0.002790  -0.000017   0.001055  -0.000234   0.000256   0.000424
    21  H   -0.009947  -0.000198   0.000410   0.004193   0.011378  -0.000473
    22  H    0.008609  -0.000434  -0.000168  -0.000106  -0.011482  -0.000046
    23  C    0.000000   0.000000   0.000000   0.000000  -0.000120  -0.000016
    24  H    0.000000   0.000000   0.000000   0.000000   0.000018  -0.000001
    25  H    0.000000   0.000000   0.000000   0.000000  -0.000062  -0.000008
    26  H    0.000000   0.000000   0.000000   0.000000  -0.000193   0.000019
    27  C    0.324657  -0.038303  -0.030812  -0.033073   0.353357  -0.039120
    28  O   -0.046358  -0.006845   0.004680   0.003869  -0.074141   0.002973
    29  O    0.005501   0.017403   0.000223  -0.000771  -0.001177  -0.000218
    30  H    0.003390  -0.000996  -0.000115   0.000194   0.000686  -0.000110
              7          8          9         10         11         12
     1  C    0.007259   0.001409  -0.000320  -0.000354   0.000005  -0.000285
     2  H    0.000030   0.000058   0.000011  -0.000038   0.000002   0.000037
     3  H   -0.000158  -0.000132  -0.000048   0.000022   0.000001  -0.000008
     4  H   -0.000442  -0.000053   0.000025   0.000017   0.000001   0.000008
     5  C    0.329435  -0.047924  -0.039833  -0.050945  -0.004047  -0.001743
     6  H   -0.036501   0.006745  -0.001386  -0.004467   0.003906  -0.000409
     7  C    4.895636   0.412789   0.396535   0.359349  -0.043281  -0.038344
     8  H    0.412789   0.568104  -0.034780  -0.037087   0.008429  -0.007205
     9  H    0.396535  -0.034780   0.605294  -0.040690  -0.007718   0.009084
    10  C    0.359349  -0.037087  -0.040690   4.983165   0.398507   0.407191
    11  H   -0.043281   0.008429  -0.007718   0.398507   0.618768  -0.034718
    12  H   -0.038344  -0.007205   0.009084   0.407191  -0.034718   0.571628
    13  C   -0.051964  -0.003285  -0.005621   0.365712  -0.039983  -0.035322
    14  H   -0.006367   0.005202  -0.000724  -0.047109   0.010297  -0.005819
    15  C    0.007575   0.000032  -0.000103  -0.065993  -0.004715  -0.006804
    16  H   -0.000065   0.000017   0.000012  -0.007009   0.004861  -0.000631
    17  H   -0.000416  -0.000008   0.000028   0.008498  -0.000326   0.000248
    18  H    0.000103   0.000019  -0.000008  -0.004810  -0.000579   0.004197
    19  C   -0.006424  -0.003629   0.001254   0.000191  -0.000027   0.000107
    20  H   -0.000509   0.000255   0.000013  -0.000024  -0.000004   0.000010
    21  H   -0.000203  -0.000287  -0.000036   0.000018   0.000000   0.000009
    22  H    0.003703   0.002823  -0.000426  -0.000045   0.000005  -0.000027
    23  C   -0.006176  -0.000634   0.001966  -0.066993  -0.009413   0.007750
    24  H    0.000008  -0.000076  -0.000078   0.008084  -0.000197  -0.000378
    25  H   -0.000599   0.000064   0.000378  -0.006399   0.005712  -0.000088
    26  H    0.001472   0.000375   0.001894  -0.005990  -0.000139  -0.000133
    27  C   -0.052715  -0.005198   0.001162   0.004020   0.000290  -0.001035
    28  O   -0.000886   0.013305  -0.000040  -0.000103  -0.000006  -0.001505
    29  O   -0.000385  -0.000669   0.000014  -0.001494  -0.000084   0.010137
    30  H   -0.000026   0.000088   0.000010   0.000023  -0.000005  -0.000381
             13         14         15         16         17         18
     1  C    0.000005  -0.000002   0.000000   0.000000   0.000000   0.000000
     2  H    0.000002   0.000000   0.000000   0.000000   0.000000   0.000000
     3  H    0.000000   0.000000   0.000000   0.000000   0.000000   0.000000
     4  H    0.000000   0.000000   0.000000   0.000000   0.000000   0.000000
     5  C    0.006695  -0.000005  -0.000294  -0.000004   0.000017  -0.000050
     6  H    0.000014   0.000019   0.000000  -0.000006   0.000000   0.000004
     7  C   -0.051964  -0.006367   0.007575  -0.000065  -0.000416   0.000103
     8  H   -0.003285   0.005202   0.000032   0.000017  -0.000008   0.000019
     9  H   -0.005621  -0.000724  -0.000103   0.000012   0.000028  -0.000008
    10  C    0.365712  -0.047109  -0.065993  -0.007009   0.008498  -0.004810
    11  H   -0.039983   0.010297  -0.004715   0.004861  -0.000326  -0.000579
    12  H   -0.035322  -0.005819  -0.006804  -0.000631   0.000248   0.004197
    13  C    5.036393   0.409166   0.376439  -0.038392  -0.032573  -0.033327
    14  H    0.409166   0.620388  -0.041159   0.009650  -0.006820  -0.006442
    15  C    0.376439  -0.041159   4.866675   0.401509   0.401077   0.402823
    16  H   -0.038392   0.009650   0.401509   0.598321  -0.031938  -0.031050
    17  H   -0.032573  -0.006820   0.401077  -0.031938   0.590958  -0.028192
    18  H   -0.033327  -0.006442   0.402823  -0.031050  -0.028192   0.584229
    19  C    0.000002  -0.000002   0.000000   0.000000   0.000000   0.000000
    20  H    0.000000   0.000000   0.000000   0.000000   0.000000   0.000000
    21  H   -0.000001   0.000001   0.000000   0.000000   0.000000   0.000000
    22  H    0.000013  -0.000013   0.000000   0.000000   0.000000   0.000000
    23  C    0.358456  -0.047800  -0.066151  -0.006394  -0.005409   0.008669
    24  H   -0.031978  -0.006316  -0.006534  -0.000624   0.004233   0.000022
    25  H   -0.039877   0.009690  -0.005021   0.005086  -0.000663  -0.000201
    26  H   -0.031701  -0.005857   0.007903  -0.000161   0.000029  -0.000528
    27  C   -0.000209   0.000041   0.000005   0.000000   0.000000   0.000001
    28  O   -0.000003  -0.000080   0.000000   0.000000   0.000000   0.000003
    29  O   -0.000042   0.000041   0.000000   0.000001   0.000000  -0.000042
    30  H    0.000003  -0.000004   0.000000   0.000000   0.000000   0.000003
             19         20         21         22         23         24
     1  C   -0.054064  -0.002790  -0.009947   0.008609   0.000000   0.000000
     2  H    0.008833  -0.000017  -0.000198  -0.000434   0.000000   0.000000
     3  H   -0.004851   0.001055   0.000410  -0.000168   0.000000   0.000000
     4  H   -0.007091  -0.000234   0.004193  -0.000106   0.000000   0.000000
     5  C   -0.079292   0.000256   0.011378  -0.011482  -0.000120   0.000018
     6  H    0.003732   0.000424  -0.000473  -0.000046  -0.000016  -0.000001
     7  C   -0.006424  -0.000509  -0.000203   0.003703  -0.006176   0.000008
     8  H   -0.003629   0.000255  -0.000287   0.002823  -0.000634  -0.000076
     9  H    0.001254   0.000013  -0.000036  -0.000426   0.001966  -0.000078
    10  C    0.000191  -0.000024   0.000018  -0.000045  -0.066993   0.008084
    11  H   -0.000027  -0.000004   0.000000   0.000005  -0.009413  -0.000197
    12  H    0.000107   0.000010   0.000009  -0.000027   0.007750  -0.000378
    13  C    0.000002   0.000000  -0.000001   0.000013   0.358456  -0.031978
    14  H   -0.000002   0.000000   0.000001  -0.000013  -0.047800  -0.006316
    15  C    0.000000   0.000000   0.000000   0.000000  -0.066151  -0.006534
    16  H    0.000000   0.000000   0.000000   0.000000  -0.006394  -0.000624
    17  H    0.000000   0.000000   0.000000   0.000000  -0.005409   0.004233
    18  H    0.000000   0.000000   0.000000   0.000000   0.008669   0.000022
    19  C    4.885465   0.398271   0.390372   0.400138  -0.000002   0.000000
    20  H    0.398271   0.575501  -0.025214  -0.024530   0.000000   0.000000
    21  H    0.390372  -0.025214   0.571945  -0.027197   0.000000   0.000000
    22  H    0.400138  -0.024530  -0.027197   0.555261   0.000003   0.000000
    23  C   -0.000002   0.000000   0.000000   0.000003   4.895164   0.402143
    24  H    0.000000   0.000000   0.000000   0.000000   0.402143   0.588112
    25  H    0.000000   0.000000   0.000000   0.000000   0.399589  -0.031210
    26  H    0.000000  -0.000003   0.000000   0.000006   0.402744  -0.028340
    27  C    0.349226  -0.035623  -0.031317  -0.026765   0.000002   0.000000
    28  O   -0.044067   0.004347   0.004514   0.001250   0.000001   0.000000
    29  O    0.006320  -0.000246  -0.000287  -0.000224  -0.000001   0.000000
    30  H   -0.000957   0.000045  -0.000077   0.000048   0.000000   0.000000
             25         26         27         28         29         30
     1  C    0.000000   0.000000   0.324657  -0.046358   0.005501   0.003390
     2  H    0.000000   0.000000  -0.038303  -0.006845   0.017403  -0.000996
     3  H    0.000000   0.000000  -0.030812   0.004680   0.000223  -0.000115
     4  H    0.000000   0.000000  -0.033073   0.003869  -0.000771   0.000194
     5  C   -0.000062  -0.000193   0.353357  -0.074141  -0.001177   0.000686
     6  H   -0.000008   0.000019  -0.039120   0.002973  -0.000218  -0.000110
     7  C   -0.000599   0.001472  -0.052715  -0.000886  -0.000385  -0.000026
     8  H    0.000064   0.000375  -0.005198   0.013305  -0.000669   0.000088
     9  H    0.000378   0.001894   0.001162  -0.000040   0.000014   0.000010
    10  C   -0.006399  -0.005990   0.004020  -0.000103  -0.001494   0.000023
    11  H    0.005712  -0.000139   0.000290  -0.000006  -0.000084  -0.000005
    12  H   -0.000088  -0.000133  -0.001035  -0.001505   0.010137  -0.000381
    13  C   -0.039877  -0.031701  -0.000209  -0.000003  -0.000042   0.000003
    14  H    0.009690  -0.005857   0.000041  -0.000080   0.000041  -0.000004
[...]
 00180951,-0.00025687,0.00000079,-0.00004465,0.00170276,-0.00006262,0.0
 0081736,0.02482823,-0.00127217,0.01609800,-0.00056650,0.00109142,-0.00
 024330,0.00121559,0.00151662,0.00075406,-0.00008420,-0.00007370,0.0000
 0339,-0.00064653,-0.00048184,-0.00032447,-0.00016839,0.00039546,-0.000
 22853,-0.00000292,0.00000481,0.00001922,0.00000722,0.00000607,-0.00000
 123,-0.00000234,0.00000058,-0.00000099,0.00000083,-0.00000348,-0.00000
 585,0.00439724,-0.04619914,0.00271567,-0.00753678,0.05089081,-0.000004
 00,-0.00000028,0.00000234,0.00000287,-0.00000161,0.00000005,0.00000286
 ,0.00000023,-0.00000057,-0.00000613,0.00000275,0.00000288,-0.00003607,
 -0.00004712,-0.00004296,0.00001658,-0.00000502,0.00001265,0.00009082,-
 0.00002974,0.00013664,-0.00003079,0.00000565,0.00000586,-0.00004012,-0
 .00003505,-0.00012992,0.00044430,-0.00070814,0.00031543,0.00028070,-0.
 00015488,0.00050185,0.00003487,-0.00004021,0.00048350,0.00602111,-0.00
 030549,0.00239113,0.00009540,0.00061117,0.00050982,-0.00012567,0.00007
 044,-0.00006392,-0.00015348,-0.00003609,-0.00008931,0.00011267,0.00031
 742,0.00027429,0.00028805,0.00006839,-0.00000559,-0.00000186,0.0000020
 0,0.00000317,0.00000072,0.00000013,-0.00000267,-0.00000568,0.00000020,
 0.00000401,0.00000207,0.00000383,-0.00000352,-0.11237289,0.00343722,-0
 .11260993,0.12378687,-0.00265895,0.11854882,0.00000085,0.00000262,-0.0
 0000247,-0.00000322,0.00000392,0.00000037,-0.00000524,-0.00000264,-0.0
 0000131,0.00000560,-0.00000136,-0.00000314,-0.00000587,0.00000010,0.00
 001243,-0.00004614,0.00001128,-0.00004117,-0.00023300,-0.00007536,-0.0
 0020839,0.00021247,-0.00003274,-0.00011037,-0.00007226,-0.00003122,0.0
 0017331,0.00083236,-0.00046986,0.00178804,-0.00015562,0.00007786,-0.00
 073857,0.00019839,-0.00012641,-0.00029493,-0.00458051,0.00214047,0.016
 21082,-0.00093705,0.00317628,0.00037367,0.00017717,-0.00086546,-0.0005
 8818,0.00042258,0.00010295,-0.00024378,0.00003728,0.00004850,-0.000147
 86,-0.00013019,-0.00007958,-0.00006710,0.00001598,-0.00000864,0.000001
 03,-0.00000489,-0.00000291,-0.00000019,0.00000545,0.00000231,-0.000006
 65,-0.00000204,0.00000134,0.00000039,-0.05675579,0.00443022,0.04833972
 ,0.00668525,-0.00289361,-0.02787712,0.05830244,0.00000098,0.00000805,0
 .00000215,-0.00000026,-0.00000060,-0.00000127,0.00000024,-0.00000051,0
 .00000064,-0.00000063,-0.00000087,-0.00000033,0.00003214,0.00004821,0.
 00002904,0.00000406,0.00000834,-0.00000594,-0.00000026,0.00000503,0.00
 001366,-0.00008365,-0.00013916,0.00003535,0.00001869,-0.00000146,0.000
 08097,-0.00121117,0.00125210,-0.00086096,0.00021519,0.00021377,0.00090
 121,-0.00036018,0.00009826,0.00019761,0.00606624,-0.00426747,-0.029523
 38,0.00292674,-0.00501390,-0.00087532,0.00032268,0.00169332,-0.0012735
 7,-0.00028596,-0.00028679,0.00075509,-0.00003353,-0.00006431,0.0000574
 7,-0.00003480,0.00032042,0.00041155,0.00000519,0.00000144,0.00000945,-
 0.00000047,-0.00000004,0.00000050,-0.00000238,0.00000011,-0.00000267,0
 .00000031,-0.00000419,-0.00000363,0.00449089,-0.04938757,-0.02494363,-
 0.00039177,-0.00099739,0.00044521,-0.00805687,0.05333757,0.00001567,-0
 .00000625,-0.00001022,-0.00000274,-0.00000487,-0.00000298,0.00000317,0
 .00000603,0.00000342,0.00000841,-0.00000368,0.00000285,-0.00000627,0.0
 0001271,-0.00007199,0.00004431,-0.00002032,0.00004362,0.00019233,-0.00
 005852,0.00011627,-0.00013529,0.00002860,0.00005772,0.00006220,-0.0000
 2761,-0.00018394,-0.00066912,0.00045585,0.00074220,0.00068908,-0.00015
 808,0.00061538,0.00002093,-0.00001047,0.00033571,0.00173074,-0.0011974
 8,-0.00707382,0.00041901,-0.00127145,0.00147365,-0.00014004,0.00051413
 ,0.00052376,-0.00035642,-0.00064827,0.00040986,0.00005718,0.00000688,-
 0.00008039,-0.00009416,-0.00009367,0.00035158,-0.00000674,-0.00000327,
 -0.00001548,0.00000426,0.00000376,0.00000567,0.00000779,0.00000029,-0.
 00000328,-0.00000259,-0.00000925,0.00000929,0.04838031,-0.02522062,-0.
 28717600,0.00334230,-0.00118389,-0.01532964,-0.05475957,0.02953357,0.3
 1391594,0.00002616,-0.00000435,-0.00002573,-0.00000558,0.00000239,-0.0
 0000282,-0.00000259,0.00000192,0.00000286,0.00001828,-0.00000776,0.000
 00304,0.00006997,0.00001904,-0.00003481,0.00003288,-0.00001365,0.00002
 784,-0.00123055,0.00036555,-0.00022245,-0.00000755,0.00000334,0.000084
 10,-0.00195251,0.00039354,-0.00035160,0.00076970,-0.00073269,-0.000312
 56,-0.00009793,0.00003261,-0.00004558,0.00015150,-0.00009525,0.0001979
 3,0.00984640,0.01205762,-0.00582875,0.00070628,-0.00083303,-0.00018291
 ,-0.00131331,0.00221829,0.00023778,-0.00011470,0.00006339,-0.00008744,
 0.00026986,0.00022319,0.00025341,0.00060436,0.00078796,-0.00002127,0.0
 0000644,-0.00001125,-0.00000896,0.00000143,0.00000107,0.00000599,0.000
 01433,0.00000258,-0.00000712,-0.00001030,-0.00000774,0.00001026,-0.127
 67357,-0.11295929,0.04412952,-0.01565507,-0.02131003,0.00946474,-0.003
 94079,-0.00361553,0.00118259,0.13948818,-0.00005148,0.00001078,0.00004
 375,0.00000316,0.00000517,-0.00000592,0.00000983,-0.00000108,0.0000051
 4,-0.00003281,0.00001127,-0.00000674,0.00005376,0.00039125,0.00009871,
 -0.00008077,-0.00000316,-0.00006011,-0.00019373,-0.00032524,-0.0002832
 2,0.00007669,-0.00003864,-0.00003592,0.00003055,0.00091457,0.00019959,
 -0.00105590,0.00006910,0.00009842,0.00012069,0.00001180,0.00000258,0.0
 0000630,0.00007918,-0.00008805,-0.01730558,-0.02022416,0.00917011,-0.0
 0014399,0.00100229,-0.00054572,0.00470429,-0.00446474,-0.00191254,0.00
 011944,0.00027047,0.00010737,0.00008374,0.00035535,-0.00014359,-0.0011
 0517,-0.00162159,0.00053924,-0.00002075,0.00003770,0.00006193,0.000010
 98,0.00001051,-0.00000931,-0.00003349,-0.00000777,0.00001658,0.0000126
 0,0.00000503,-0.00002958,-0.11172642,-0.20219951,0.06008445,0.00035457
 ,0.00077656,-0.00094496,0.00265547,0.00317935,-0.00064196,0.12344751,0
 .22178838,0.00002665,0.00000176,-0.00002235,-0.00000415,0.00000056,-0.
 00000057,-0.00000661,-0.00000044,-0.00000330,0.00001850,-0.00000678,0.
 00000260,0.00003357,-0.00018600,-0.00012015,-0.00000901,0.00002446,-0.
 00001641,-0.00003477,0.00056294,0.00035552,0.00007600,-0.00016178,-0.0
 0014418,-0.00034370,-0.00042013,0.00016753,0.00030241,0.00059975,-0.00
 002955,0.00003405,0.00006449,0.00000485,-0.00010230,-0.00007459,-0.000
 03547,-0.00440851,-0.00505316,0.00055399,-0.00057245,0.00016927,0.0003
 8203,0.00043472,-0.00103834,0.00024701,-0.00015579,-0.00038472,0.00037
 827,0.00033497,0.00016787,0.00000174,-0.00000607,-0.00034054,0.0005870
 9,0.00003474,-0.00002512,-0.00000867,-0.00001351,-0.00000613,-0.000000
 96,0.00001577,0.00000528,-0.00001550,-0.00000545,0.00000223,0.00001013
 ,0.04374060,0.06046530,-0.07070728,-0.00903446,-0.01383015,0.00508172,
 0.01822078,0.02501435,-0.00871057,-0.04852864,-0.06556815,0.07198355,-
 0.12514441,0.02806386,-0.03828434,0.00833919,-0.00342228,0.00773283,-0
 .00268550,0.00170780,-0.00065290,-0.02094019,0.00845121,-0.02001469,-0
 .17598290,0.02655053,0.04133752,0.00327104,0.00040778,-0.00508609,-0.0
 1770903,0.00497143,0.00694292,0.00015460,0.00027409,0.00135741,-0.0006
 9455,-0.00058010,0.00008013,-0.00117334,0.00056300,-0.00012160,0.00002
 148,-0.00001992,0.00006408,-0.00011898,-0.00019693,-0.00001213,-0.0002
 5894,-0.00000666,-0.00022239,0.00002577,-0.00002869,0.00003395,0.00011
 146,-0.00018687,0.00009987,-0.00002113,0.00000519,-0.00003768,0.000174
 37,0.00004955,0.00003867,-0.00005072,0.00000491,-0.00000674,-0.0839369
 3,-0.01122872,0.01215126,-0.00409868,-0.00434356,0.00395283,-0.0107876
 8,-0.02198271,0.01570914,0.00839489,0.01795216,-0.01244048,0.00020498,
 -0.00003183,0.00015174,0.00019814,-0.00002595,0.00003707,-0.00004968,-
 0.00000784,-0.00002806,-0.00006169,0.00010798,-0.00007543,0.48809893,0
 .02809084,-0.09000099,0.02268324,0.02031729,-0.00847337,0.01827805,-0.
 01701881,0.00613475,-0.01682013,0.00654126,-0.00409838,0.00610973,0.02
 996185,-0.05006672,-0.01404408,0.00261175,0.00467054,-0.00021865,0.003
 36989,0.00142432,0.00194057,-0.00053177,0.00033125,-0.00113000,0.00073
 900,-0.00142907,-0.00061150,-0.00147436,-0.00024610,-0.00046690,0.0001
 8127,-0.00003606,-0.00026756,-0.00049313,-0.00054913,0.00019299,-0.000
 41610,-0.00044175,0.00005396,-0.00004131,0.00004644,-0.00010822,-0.000
 18193,0.00013225,-0.00008848,0.00001598,-0.00000247,-0.00000725,-0.000
 10733,-0.00007280,-0.00000705,-0.00000254,-0.00009893,-0.00000732,-0.0
 2564472,-0.11051004,0.04598431,-0.00765403,-0.01768097,0.01417420,0.00
 315604,0.00545720,-0.00536167,-0.00280932,-0.00819195,0.00441041,0.000
 08322,0.00010126,-0.00005489,-0.00007075,-0.00005224,-0.00001051,0.000
 02576,-0.00001250,-0.00000435,-0.00000262,-0.00013948,0.00006983,-0.02
 985203,0.38538208,-0.04206563,0.02924197,-0.11236715,-0.01033314,0.004
 53725,-0.01116039,-0.01146024,0.00671480,-0.01301816,0.01239032,-0.006
 46370,0.00941263,0.03313902,-0.00505572,-0.10319196,0.02223193,-0.0047
 8534,-0.00798904,-0.01179937,-0.00013620,0.01478358,-0.00090485,0.0003
 0686,-0.00175676,-0.00262948,0.00100319,-0.00190621,-0.00268767,0.0027
 9027,-0.00345390,0.00020212,0.00002840,0.00005162,-0.00028992,-0.00047
 055,0.00032742,-0.00060285,-0.00134355,0.00116513,0.00002570,0.0000467
 3,-0.00017381,-0.00057914,0.00033613,-0.00042709,0.00002912,0.00000058
 ,0.00001331,-0.00023932,-0.00022257,0.00002339,0.00002953,-0.00011496,
 0.00000034,0.01625758,0.03257016,-0.10204347,-0.00764939,-0.01589139,0
 .01053246,0.00535199,0.01318229,-0.01022695,0.00861728,0.01634328,-0.0
 1373084,-0.00001632,-0.00001506,-0.00017170,-0.00017225,-0.00004372,-0
 .00000634,0.00001649,-0.00001076,0.00002639,0.00009016,-0.00019871,0.0
 0011322,-0.00689357,-0.05040638,0.46655120,-0.00338184,-0.02042318,-0.
 02152037,0.00089665,-0.00012293,0.00095793,-0.00320255,0.00125684,-0.0
 0492970,0.00269490,-0.00121695,0.00135274,0.00523133,0.01557740,0.0241
 3101,-0.00348122,0.00147980,0.00210121,-0.00009712,0.00195565,-0.00106
 463,-0.00046665,0.00005945,0.00162610,-0.00010965,0.00009616,0.0009172
 7,0.00045257,0.00024713,-0.00023116,-0.00005528,-0.00012236,0.00008933
 ,0.00006792,-0.00019310,0.00004023,0.00021464,-0.00008687,0.00014691,0
 .00000077,0.00001962,0.00001387,-0.00007073,0.00007018,-0.00007907,0.0
 0000539,-0.00000491,0.00003049,-0.00010538,-0.00002612,-0.00002109,0.0
 0003923,0.00001084,0.00001392,-0.00275309,-0.01760738,-0.00577305,-0.0
 0135534,-0.00140350,0.00074384,0.00039654,-0.00018593,-0.00110736,0.00
 028369,0.00063555,-0.00021798,-0.00003708,0.00000134,-0.00007894,-0.00
 010610,0.00000354,-0.00001882,0.00002184,0.00000594,0.00002864,0.00004
 131,-0.00007376,0.00004060,-0.05666445,0.00069388,-0.00310809,0.104757
 56,-0.00579547,0.00016098,-0.00614117,-0.00008542,-0.00088547,0.001002
 49,-0.00027129,0.00037079,0.00105540,-0.00066758,0.00071763,0.00032909
 ,0.00847374,-0.01449324,-0.02129838,0.00126185,-0.00238513,-0.00000867
 ,-0.00069627,0.00108763,-0.00103106,0.00065957,-0.00017980,0.00003013,
 -0.00007898,-0.00001064,-0.00000113,0.00004352,-0.00052259,0.00057738,
 -0.00004574,0.00000572,0.00002110,-0.00000336,0.00005535,0.00005724,-0
 .00007241,0.00025420,-0.00028099,0.00001620,-0.00000534,0.00004579,0.0
 0013787,-0.00012230,0.00010618,-0.00001031,0.00000011,-0.00001303,0.00
 009411,0.00005457,0.00000503,-0.00001732,0.00002645,0.00000236,-0.0150
 3625,-0.04051919,-0.00875554,-0.00084888,-0.00238773,0.00095782,0.0004
 7062,0.00003399,-0.00115519,0.00012766,0.00078849,-0.00156216,0.000050
 51,-0.00000805,0.00006199,0.00008723,-0.00000187,0.00001342,-0.0000182
 7,-0.00000236,-0.00000809,-0.00003127,0.00006206,-0.00004061,0.0008171
 8,-0.07155851,-0.04819711,0.06257490,0.31488123,-0.00986560,-0.0303996
 4,-0.02992386,0.00176193,0.00017197,0.00032438,-0.00504516,0.00348334,
 -0.00528372,0.00062244,-0.00004049,0.00211947,0.00830763,-0.02308847,-
 0.03043485,0.00346085,-0.00317892,-0.00076059,-0.00093499,0.00229340,-
 0.00095508,0.00071099,-0.00017367,0.00141650,-0.00021211,0.00002318,0.
 00063666,0.00047985,-0.00083263,0.00099056,-0.00030449,-0.00003283,0.0
 0018334,0.00018705,0.00024831,-0.00030781,0.00008208,0.00039362,-0.000
 36193,0.00004386,-0.00002878,0.00013801,0.00019046,-0.00014632,0.00012
 636,-0.00003477,0.00000713,0.00002246,0.00008095,0.00006544,-0.0000032
 2,-0.00001253,0.00006158,-0.00001946,0.00147517,0.01101185,0.01135702,
 0.00177348,0.00405110,-0.00223204,0.00007344,0.00023345,0.00097315,0.0
 0002972,0.00076857,0.00084435,0.00002148,-0.00001340,0.00003766,0.0000
 6471,0.00001103,0.00001291,-0.00003514,0.00000614,0.00002346,-0.000020
 21,0.00005440,-0.00004869,-0.00025778,-0.01271731,-0.13719216,-0.03630
 930,-0.00238750,0.27675434,-0.00046579,-0.00068614,-0.00068983,-0.0009
 9546,-0.00097354,0.00055006,0.00038077,-0.00051989,0.00096596,-0.00019
 404,-0.00002432,0.00006196,0.00066124,0.00205268,-0.00121913,0.0004079
 2,-0.00012870,-0.00018779,-0.00028112,-0.00010795,-0.00018852,0.000026
 66,0.00008778,0.00001145,0.00005050,0.00002125,0.00003913,-0.00038070,
 -0.00065428,0.00026747,-0.00009835,0.00021767,0.00007349,-0.00072462,0
 .00088112,-0.00006536,0.00008679,0.00024632,0.00005876,0.00001788,-0.0
 0003773,0.00003290,0.00007209,-0.00003820,0.00000412,-0.00000771,0.000
 01266,0.00002298,-0.00001441,0.00001386,-0.00000530,0.00000197,0.00003
 864,-0.00001985,0.00081299,-0.00009325,-0.00272249,0.00100705,-0.00055
 111,0.00063842,0.00052049,0.00053540,-0.00047450,0.00013499,-0.0004196
 9,0.00052017,-0.00009811,-0.00004085,-0.00004559,-0.00002338,0.0000414
 6,-0.00000635,-0.00000477,0.00000090,0.00001348,0.00001024,0.00002944,
 -0.00001456,-0.00916239,-0.00734725,-0.00150252,-0.05626336,-0.0243621
 1,0.03492952,0.39136350,0.00081421,0.00213840,0.00000781,-0.00086619,-
 0.00018182,-0.00122131,0.00052570,0.00028823,0.00063383,-0.00049477,-0
 .00037129,0.00013135,0.00019368,0.00007442,0.00033578,0.00019273,-0.00
 011165,0.00014444,0.00053883,0.00039827,-0.00056118,-0.00005622,-0.000
 45160,0.00026265,-0.00004616,0.00013062,0.00025171,0.00064326,-0.00021
 519,-0.00001411,0.00008204,-0.00006562,-0.00001614,-0.00009993,-0.0003
 0057,0.00005436,-0.00004892,0.00004918,-0.00028168,0.00000103,-0.00004
 618,0.00006060,0.00012915,-0.00016919,0.00004904,-0.00001058,0.0000121
 9,0.00000594,0.00003909,0.00006027,-0.00000848,-0.00001422,0.00009141,
 0.00000651,-0.00049231,-0.00628811,-0.01304133,-0.00111547,-0.00227196
 ,0.00260387,0.00012385,0.00100253,-0.00010116,0.00046701,0.00072237,-0
 .00006314,0.00006515,-0.00000932,0.00007263,0.00004445,-0.00001060,0.0
 0000929,-0.00002224,0.00001056,0.00000319,-0.00000861,0.00008004,-0.00
 002557,-0.01920677,-0.03461597,0.02325078,-0.05903409,-0.15574091,0.05
 233914,-0.17349760,0.40103047,-0.00132503,0.00048998,-0.00218065,-0.00
 081167,-0.00240704,0.00171681,-0.00021415,-0.00141846,0.00104019,-0.00
 008988,-0.00016454,0.00010846,0.00044744,-0.00158014,0.00175531,-0.000
 62902,0.00032614,0.00046094,0.00003002,0.00005241,-0.00030632,0.000045
 75,0.00008995,0.00005548,0.00005124,-0.00004424,0.00001426,0.00010167,
 0.00010073,0.00016357,-0.00005488,0.00003539,0.00004693,0.00018851,-0.
 00012076,-0.00009625,-0.00005076,-0.00008920,-0.00017504,0.00003406,-0
 .00002175,0.00009631,0.00003182,-0.00003184,0.00002536,-0.00002896,0.0
 0001610,0.00002917,0.00002802,0.00000176,0.00000630,0.00000229,0.00002
 064,-0.00003646,-0.00082670,-0.00362025,0.00012360,-0.00031736,-0.0003
 8931,0.00049825,-0.00056467,-0.00037488,-0.00009067,0.00013387,-0.0006
 5419,0.00012512,0.00005140,0.00001121,0.00006421,0.00002772,-0.0000181
 1,-0.00000200,-0.00001738,0.00001312,0.00001586,-0.00000828,-0.0000004
 1,-0.00001184,-0.00663602,-0.00999726,0.01746016,0.05070236,0.06139997
 ,-0.08548037,-0.10830791,-0.01349167,0.08249150,0.00038934,0.00021707,
 -0.00028896,-0.00002252,-0.00015592,-0.00053037,-0.00020635,0.00025712
 ,0.00007684,-0.00052879,-0.00022188,0.00004988,-0.00023677,0.00034289,
 -0.00018463,0.00016314,-0.00011861,-0.00010885,0.00002200,-0.00026032,
 0.00004301,-0.00007888,-0.00001669,-0.00001492,0.00002848,0.00004024,-
 0.00001720,0.00000321,-0.00050650,0.00002805,-0.00008035,0.00014239,0.
 00003020,0.00021615,0.00038104,-0.00008412,0.00007198,0.00015982,0.000
 13628,-0.00000389,-0.00000301,-0.00002787,-0.00001484,0.00004964,-0.00
 001455,0.00000573,-0.00000523,-0.00000163,-0.00002230,-0.00001032,-0.0
 0000015,0.00001405,-0.00000892,0.00000679,-0.00027030,-0.00108667,-0.0
 0141556,-0.00028879,-0.00044386,0.00022472,0.00000082,0.00009113,0.000
 05203,0.00001606,0.00019685,-0.00007475,-0.00008663,-0.00003721,-0.000
 05884,-0.00002738,0.00003514,-0.00000271,0.00000942,-0.00000487,-0.000
 00143,0.00000884,-0.00000317,0.00000204,0.00054635,-0.00214003,0.00455
 251,0.01304550,-0.02677406,-0.00126355,-0.32684085,0.25115388,0.068006
 50,0.31416759,0.00025521,0.00030819,0.00024712,-0.00012946,0.00002126,
 -0.00087282,0.00001543,0.00034626,0.00001190,-0.00024885,-0.00009108,-
 0.00003479,-0.00026064,0.00025933,0.00053253,-0.00012485,0.00002745,0.
 00007155,-0.00003999,-0.00011067,0.00009810,0.00000559,-0.00008533,0.0
 0003528,-0.00005171,0.00003407,0.00000831,-0.00004623,0.00016645,-0.00
 010351,-0.00002078,0.00002421,0.00003444,0.00035159,-0.00003909,-0.000
 14893,0.00006537,-0.00003334,0.00008182,0.00000568,0.00000511,-0.00000
 122,-0.00005302,0.00006418,-0.00002767,0.00000161,-0.00000284,0.000010
 24,-0.00003890,-0.00002216,-0.00000333,0.00002314,-0.00001428,-0.00000
 381,-0.00020969,-0.00070068,-0.00090066,-0.00035247,-0.00011152,0.0002
 4687,-0.00014492,-0.00006330,0.00008508,0.00001420,0.00017101,-0.00014
 146,-0.00003898,-0.00000618,-0.00002644,-0.00003897,0.00000887,-0.0000
 0928,0.00000808,0.00000257,0.00000708,0.00001307,-0.00003549,0.0000141
 3,0.00119418,-0.00540264,0.00300302,0.01581284,-0.02967607,-0.00218366
 ,0.20530342,-0.20523899,-0.02813335,-0.22126997,0.24019470,-0.00039711
 ,-0.00073513,0.00119046,0.00023054,-0.00022322,-0.00107684,0.00008599,
 0.00056076,-0.00015607,-0.00018044,-0.00003707,-0.00000983,-0.00023484
 ,-0.00047299,-0.00030955,0.00010364,-0.00000385,-0.00006395,-0.0001350
 7,0.00014986,-0.00004499,0.00008853,0.00001022,-0.00001608,-0.00002560
 ,0.00000368,0.00000589,-0.00002035,0.00022384,0.00010340,0.00001130,-0
 .00004873,-0.00004335,-0.00012463,-0.00013281,-0.00005064,-0.00001024,
 -0.00006343,0.00000922,0.00000069,0.00001550,-0.00003585,-0.00002345,0
 .00001611,0.00000382,0.00001563,-0.00001432,-0.00002456,-0.00000505,0.
 00000178,-0.00000224,-0.00000357,-0.00002069,0.00002327,-0.00035655,0.
 00045855,0.00022941,0.00014813,-0.00000309,-0.00003534,0.00006136,-0.0
 0005514,0.00007485,-0.00000015,0.00002689,-0.00004325,0.00002211,0.000
 01325,0.00000851,-0.00000076,-0.00001079,-0.00000071,0.00000628,-0.000
 00561,-0.00001434,-0.00000109,-0.00000738,0.00000624,0.00108049,-0.001
 56777,-0.00164495,-0.00847687,0.02521525,-0.00295685,0.07725983,-0.051
 39716,-0.01791821,-0.06911874,0.02810347,0.02279252\\-0.00000050,0.000
 00224,0.00000183,0.,0.00000149,0.00000083,-0.00000120,0.00000214,0.000
 00235,0.00000018,0.00000332,0.00000207,-0.00000025,0.00000111,0.000001
 42,-0.00000123,0.00000002,0.00000085,-0.00000018,0.00000007,-0.0000006
 0,0.00000023,0.00000015,0.00000045,-0.00000152,-0.00000068,0.00000046,
 0.00000048,-0.00000076,-0.00000077,-0.00000063,-0.00000197,-0.00000094
 ,0.00000137,-0.00000138,-0.00000099,0.00000033,-0.00000220,-0.00000154
 ,0.00000104,-0.00000122,-0.00000140,0.00000107,-0.00000281,-0.00000252
 ,0.00000055,-0.00000345,-0.00000274,0.00000144,-0.00000332,-0.00000303
 ,0.00000199,-0.00000227,-0.00000270,0.00000003,0.00000289,0.00000244,-
 0.00000228,0.00000275,0.00000274,-0.00000003,0.00000380,0.00000260,-0.
 00000022,0.00000222,0.00000186,-0.00000080,-0.00000259,-0.00000126,-0.
 00000052,-0.00000312,-0.00000182,-0.00000147,-0.00000317,-0.00000143,-
 0.00000132,-0.00000186,-0.00000064,-0.00000175,0.00000119,0.00000024,0
 .00000193,0.00000257,0.00000137,0.00000125,0.00000245,0.00000076,0.000
 00202,0.00000238,0.00000010\\\@
 Job cpu time:  0 days 11 hours 22 minutes 58.8 seconds.
 File lengths (MBytes):  RWF=  72776 Int=      0 D2E=      0 Chk=     26 Scr=      1
 Normal termination of Gaussian 09 at Fri Feb 21 08:37:27 2014.
