 Entering Gaussian System, Link 0=g09
 Initial command:
 /usr/caen/gaussian-09revc/g09/l1.exe /scratch/avioli_flux/hetanjin/scratch/Gau-26852.inp -scrdir=/scratch/avioli_flux/hetanjin/scratch/
 Entering Link 1 = /usr/caen/gaussian-09revc/g09/l1.exe PID=     27841.
  
 Copyright (c) 1988,1990,1992,1993,1995,1998,2003,2009,2011,
            Gaussian, Inc.  All Rights Reserved.
  
 This is part of the Gaussian(R) 09 program.  It is based on
 the Gaussian(R) 03 system (copyright 2003, Gaussian, Inc.),
 the Gaussian(R) 98 system (copyright 1998, Gaussian, Inc.),
 the Gaussian(R) 94 system (copyright 1995, Gaussian, Inc.),
 the Gaussian 92(TM) system (copyright 1992, Gaussian, Inc.),
 the Gaussian 90(TM) system (copyright 1990, Gaussian, Inc.),
 the Gaussian 88(TM) system (copyright 1988, Gaussian, Inc.),
 the Gaussian 86(TM) system (copyright 1986, Carnegie Mellon
 University), and the Gaussian 82(TM) system (copyright 1983,
 Carnegie Mellon University). Gaussian is a federally registered
 trademark of Gaussian, Inc.
  
 This software contains proprietary and confidential information,
 including trade secrets, belonging to Gaussian, Inc.
  
 This software is provided under written license and may be
 used, copied, transmitted, or stored only in accord with that
 written license.
  
 The following legend is applicable only to US Government
 contracts under FAR:
  
                    RESTRICTED RIGHTS LEGEND
  
 Use, reproduction and disclosure by the US Government is
 subject to restrictions as set forth in subparagraphs (a)
 and (c) of the Commercial Computer Software - Restricted
 Rights clause in FAR 52.227-19.
  
 Gaussian, Inc.
 340 Quinnipiac St., Bldg. 40, Wallingford CT 06492
  
  
 ---------------------------------------------------------------
 Warning -- This program may not be used in any manner that
 competes with the business of Gaussian, Inc. or will provide
 assistance to any competitor of Gaussian, Inc.  The licensee
 of this program is prohibited from giving any competitor of
 Gaussian, Inc. access to this program.  By using this program,
 the user acknowledges that Gaussian, Inc. is engaged in the
 business of creating and licensing software in the field of
 computational chemistry and represents and warrants to the
 licensee that it is not a competitor of Gaussian, Inc. and that
 it will not use this program in any manner prohibited above.
 ---------------------------------------------------------------
  

 Cite this work as:
 Gaussian 09, Revision C.01,
 M. J. Frisch, G. W. Trucks, H. B. Schlegel, G. E. Scuseria, 
 M. A. Robb, J. R. Cheeseman, G. Scalmani, V. Barone, B. Mennucci, 
 G. A. Petersson, H. Nakatsuji, M. Caricato, X. Li, H. P. Hratchian, 
 A. F. Izmaylov, J. Bloino, G. Zheng, J. L. Sonnenberg, M. Hada, 
 M. Ehara, K. Toyota, R. Fukuda, J. Hasegawa, M. Ishida, T. Nakajima, 
 Y. Honda, O. Kitao, H. Nakai, T. Vreven, J. A. Montgomery, Jr., 
 J. E. Peralta, F. Ogliaro, M. Bearpark, J. J. Heyd, E. Brothers, 
 K. N. Kudin, V. N. Staroverov, T. Keith, R. Kobayashi, J. Normand, 
 K. Raghavachari, A. Rendell, J. C. Burant, S. S. Iyengar, J. Tomasi, 
 M. Cossi, N. Rega, J. M. Millam, M. Klene, J. E. Knox, J. B. Cross, 
 V. Bakken, C. Adamo, J. Jaramillo, R. Gomperts, R. E. Stratmann, 
 O. Yazyev, A. J. Austin, R. Cammi, C. Pomelli, J. W. Ochterski, 
 R. L. Martin, K. Morokuma, V. G. Zakrzewski, G. A. Voth, 
 P. Salvador, J. J. Dannenberg, S. Dapprich, A. D. Daniels, 
 O. Farkas, J. B. Foresman, J. V. Ortiz, J. Cioslowski, 
 and D. J. Fox, Gaussian, Inc., Wallingford CT, 2010.
 
 ******************************************
 Gaussian 09:  EM64L-G09RevC.01 23-Sep-2011
                10-Feb-2014 
 ******************************************
 %mem=30GB
 %nprocshared=8
 Will use up to    8 processors via shared memory.
 %chk=C9H18OOH_2_26_g.chk
 --------------------------------------------------
 #p UB3LYP/6-311++G(d,p) guess=mix stable=(opt,xqc)
 --------------------------------------------------
 1/38=1/1;
 2/12=2,17=6,18=5,40=1/2;
 3/5=4,6=6,7=1111,11=2,16=1,25=1,30=1,74=-5,116=2/1,2,3;
 4/13=-1/1;
 5/5=2,38=5/2;
 6/7=2,8=2,9=2,10=2,28=1/1;
 8/6=1,10=90,11=11/1;
 9/8=-3,42=1,46=1/14;
 5/5=2,8=3,13=1,17=40,38=5/2,8(-2);
 6/7=2,8=2,9=2,10=2,28=1/1;
 99/5=1,9=1/99;
 Leave Link    1 at Mon Feb 10 16:51:04 2014, MaxMem= 4026531840 cpu:       0.6
 (Enter /usr/caen/gaussian-09revc/g09/l101.exe)
 --------------------------------------------
 C9H18OOH_2_26_a using cbs-qb3 to cal. energy
 --------------------------------------------
 Charge =  0 Multiplicity = 2
 Symbolic Z-Matrix:
 C                     3.22451   0.03931   1.14406 
 H                     3.19073  -1.00106   1.47235 
 H                     3.14609   0.67581   2.02941 
 H                     4.19188   0.22973   0.6713 
 C                     0.71913   0.01454   0.80938 
 H                     0.75433  -1.0248    1.15035 
 H                     0.61988   0.63176   1.71064 
 C                    -0.50699   0.20625  -0.0902 
 H                    -0.35113  -0.34114  -1.0256 
 H                    -0.61802   1.26167  -0.3582 
 C                    -1.79704  -0.2803    0.57832 
 H                    -1.96458   0.27095   1.51295 
 H                    -1.68242  -1.33564   0.85645 
 C                    -3.06909  -0.15271  -0.30727 
 H                    -2.86214  -0.69976  -1.23655 
 C                    -4.26671  -0.82291   0.39075 
 H                    -4.50372  -0.31075   1.32946 
 H                    -5.15876  -0.7936   -0.23999 
 H                    -4.04939  -1.86906   0.62591 
 C                     2.17064   1.7834   -0.34167 
 H                     1.98104   2.47642   0.4818 
 H                     3.16556   1.98758  -0.74341 
 H                     1.43838   1.97012  -1.128 
 C                    -3.37744   1.26776  -0.65566 
 H                    -3.90874   1.89904   0.04979 
 H                    -3.00264   1.73022  -1.56043 
 C                     2.08257   0.34159   0.16927 
 O                     2.26051  -0.41209  -1.06188 
 O                     2.17537  -1.83951  -0.77635 
 H                     3.04917  -2.12608  -1.07431 
 
 NAtoms=     30 NQM=        0 NQMF=       0 NMMI=     30 NMMIF=      0
                NMic=       0 NMicF=      0.
                    Isotopes and Nuclear Properties:
 (Nuclear quadrupole moments (NQMom) in fm**2, nuclear magnetic moments (NMagM)
  in nuclear magnetons)

  Atom         1           2           3           4           5           6           7           8           9          10
 IAtWgt=          12           1           1           1          12           1           1          12           1           1
 AtmWgt=  12.0000000   1.0078250   1.0078250   1.0078250  12.0000000   1.0078250   1.0078250  12.0000000   1.0078250   1.0078250
 NucSpn=           0           1           1           1           0           1           1           0           1           1
 AtZEff=   0.0000000   0.0000000   0.0000000   0.0000000   0.0000000   0.0000000   0.0000000   0.0000000   0.0000000   0.0000000
 NQMom=    0.0000000   0.0000000   0.0000000   0.0000000   0.0000000   0.0000000   0.0000000   0.0000000   0.0000000   0.0000000
 NMagM=    0.0000000   2.7928460   2.7928460   2.7928460   0.0000000   2.7928460   2.7928460   0.0000000   2.7928460   2.7928460

  Atom        11          12          13          14          15          16          17          18          19          20
 IAtWgt=          12           1           1          12           1          12           1           1           1          12
 AtmWgt=  12.0000000   1.0078250   1.0078250  12.0000000   1.0078250  12.0000000   1.0078250   1.0078250   1.0078250  12.0000000
 NucSpn=           0           1           1           0           1           0           1           1           1           0
 AtZEff=   0.0000000   0.0000000   0.0000000   0.0000000   0.0000000   0.0000000   0.0000000   0.0000000   0.0000000   0.0000000
 NQMom=    0.0000000   0.0000000   0.0000000   0.0000000   0.0000000   0.0000000   0.0000000   0.0000000   0.0000000   0.0000000
 NMagM=    0.0000000   2.7928460   2.7928460   0.0000000   2.7928460   0.0000000   2.7928460   2.7928460   2.7928460   0.0000000

  Atom        21          22          23          24          25          26          27          28          29          30
 IAtWgt=           1           1           1          12           1           1          12          16          16           1
 AtmWgt=   1.0078250   1.0078250   1.0078250  12.0000000   1.0078250   1.0078250  12.0000000  15.9949146  15.9949146   1.0078250
 NucSpn=           1           1           1           0           1           1           0           0           0           1
 AtZEff=   0.0000000   0.0000000   0.0000000   0.0000000   0.0000000   0.0000000   0.0000000   0.0000000   0.0000000   0.0000000
 NQMom=    0.0000000   0.0000000   0.0000000   0.0000000   0.0000000   0.0000000   0.0000000   0.0000000   0.0000000   0.0000000
 NMagM=    2.7928460   2.7928460   2.7928460   0.0000000   2.7928460   2.7928460   0.0000000   0.0000000   0.0000000   2.7928460
 Leave Link  101 at Mon Feb 10 16:51:04 2014, MaxMem= 4026531840 cpu:       0.5
 (Enter /usr/caen/gaussian-09revc/g09/l202.exe)
                          Input orientation:                          
 ---------------------------------------------------------------------
 Center     Atomic      Atomic             Coordinates (Angstroms)
 Number     Number       Type             X           Y           Z
 ---------------------------------------------------------------------
      1          6           0        3.224513    0.039305    1.144064
      2          1           0        3.190726   -1.001064    1.472351
      3          1           0        3.146085    0.675807    2.029414
      4          1           0        4.191875    0.229725    0.671302
      5          6           0        0.719128    0.014540    0.809384
      6          1           0        0.754328   -1.024795    1.150346
      7          1           0        0.619876    0.631761    1.710639
      8          6           0       -0.506986    0.206245   -0.090203
      9          1           0       -0.351129   -0.341139   -1.025603
     10          1           0       -0.618022    1.261671   -0.358201
     11          6           0       -1.797044   -0.280298    0.578319
     12          1           0       -1.964581    0.270952    1.512953
     13          1           0       -1.682419   -1.335640    0.856448
     14          6           0       -3.069091   -0.152711   -0.307267
     15          1           0       -2.862138   -0.699760   -1.236552
     16          6           0       -4.266707   -0.822913    0.390753
     17          1           0       -4.503717   -0.310754    1.329458
     18          1           0       -5.158760   -0.793603   -0.239990
     19          1           0       -4.049389   -1.869061    0.625909
     20          6           0        2.170645    1.783395   -0.341674
     21          1           0        1.981044    2.476418    0.481799
     22          1           0        3.165559    1.987580   -0.743409
     23          1           0        1.438376    1.970115   -1.128004
     24          6           0       -3.377444    1.267757   -0.655656
     25          1           0       -3.908742    1.899035    0.049787
     26          1           0       -3.002645    1.730219   -1.560428
     27          6           0        2.082572    0.341587    0.169274
     28          8           0        2.260510   -0.412094   -1.061881
     29          8           0        2.175365   -1.839510   -0.776354
     30          1           0        3.049169   -2.126083   -1.074314
 ---------------------------------------------------------------------
                    Distance matrix (angstroms):
                    1          2          3          4          5
     1  C    0.000000
     2  H    1.091458   0.000000
     3  H    1.093220   1.767543   0.000000
     4  H    1.093413   1.777307   1.771196   0.000000
     5  C    2.527761   2.753139   2.795687   3.482146   0.000000
     6  H    2.689640   2.457699   3.063545   3.690533   1.094400
     7  H    2.730594   3.054860   2.546623   3.741795   1.096847
     8  C    3.933875   4.191926   4.249493   4.760224   1.532763
     9  H    4.199691   4.384063   4.753716   4.883058   2.153865
    10  H    4.303028   4.793480   4.495825   5.025923   2.169461
    11  C    5.063423   5.118266   5.239689   6.011316   2.543903
    12  H    5.207344   5.310072   5.152625   6.213858   2.786225
    13  H    5.104035   4.923294   5.360617   6.082103   2.755473
    14  C    6.461632   6.562930   6.691407   7.336585   3.952908
    15  H    6.577300   6.638230   6.975490   7.366339   4.185874
    16  C    7.578211   7.537566   7.738272   8.528444   5.072980
    17  H    7.738375   7.726668   7.744851   8.737197   5.258745
    18  H    8.537482   8.525788   8.733831   9.450504   6.025267
    19  H    7.537904   7.340923   7.760221   8.504434   5.130338
    20  C    2.521885   3.476272   2.792900   2.743243   2.561383
    21  H    2.815019   3.812795   2.644737   3.157739   2.785783
    22  H    2.713265   3.720513   3.067519   2.478868   3.505578
    23  H    3.475717   4.319778   3.815861   3.721319   2.845183
    24  C    6.952260   7.267518   7.079296   7.754542   4.527560
    25  H    7.452474   7.799789   7.428714   8.294147   5.054255
    26  H    6.996497   7.417243   7.197613   7.680704   4.734042
    27  C    1.531541   2.174564   2.168613   2.171107   1.541324
    28  O    2.449338   2.763063   3.394684   2.673205   2.461607
    29  O    2.884209   2.605883   3.891202   3.231680   2.841248
    30  H    3.104972   2.787689   4.182476   3.146869   3.682347
                    6          7          8          9         10
     6  H    0.000000
     7  H    1.753905   0.000000
     8  C    2.155304   2.166544   0.000000
     9  H    2.534596   3.062092   1.094940   0.000000
    10  H    3.063819   2.491842   1.094567   1.756604   0.000000
    11  C    2.718637   2.820550   1.532284   2.160310   2.155187
    12  H    3.033630   2.616998   2.167690   3.069552   2.509176
    13  H    2.474012   3.146565   2.157591   2.510673   3.058486
    14  C    4.183742   4.277361   2.596218   2.817593   2.830337
    15  H    4.345314   4.752189   2.771588   2.545246   3.107212
    16  C    5.082178   5.266580   3.927593   4.191649   4.268410
    17  H    5.309329   5.223489   4.272772   4.774015   4.518776
    18  H    6.078741   6.263326   4.760371   4.892364   4.985622
    19  H    4.905458   5.406735   4.167533   4.328876   4.748077
    20  C    3.481093   2.818357   3.117747   3.367603   2.837099
    21  H    3.769652   2.601074   3.416309   3.955998   2.989374
    22  H    4.298226   3.786964   4.133693   4.227252   3.871797
    23  H    3.824694   3.243305   2.823597   2.924843   2.307220
    24  C    5.058555   4.688540   3.112246   3.447316   2.775415
    25  H    5.612863   4.987263   3.802247   4.339522   3.376614
    26  H    5.390106   5.002914   3.272976   3.406919   2.711331
    27  C    2.143300   2.144641   2.606042   2.795844   2.901378
    28  O    2.745530   3.386470   2.997588   2.612855   3.403322
    29  O    2.528889   3.835604   3.442517   2.947951   4.194662
    30  H    3.380568   4.611196   4.365142   3.840628   5.043608
                   11         12         13         14         15
    11  C    0.000000
    12  H    1.097946   0.000000
    13  H    1.097379   1.758338   0.000000
    14  C    1.555199   2.170860   2.162502   0.000000
    15  H    2.145724   3.050847   2.485303   1.098027   0.000000
    16  C    2.535517   2.784898   2.675501   1.539703   2.153161
    17  H    2.809131   2.611372   3.038725   2.182200   3.070914
    18  H    3.497749   3.795901   3.685231   2.186775   2.505277
    19  H    2.756717   3.116557   2.437259   2.185786   2.499118
    20  C    4.565936   4.777784   5.099998   5.586101   5.682937
    21  H    4.677900   4.636304   5.300293   5.747939   6.041295
    22  H    5.614059   5.861426   6.091488   6.606204   6.618015
    23  H    4.294629   4.630543   4.960386   5.049481   5.063046
    24  C    2.533147   2.773566   3.455032   1.494719   2.115208
    25  H    3.080277   2.927673   4.008783   2.245476   3.082821
    26  H    3.173309   3.557064   4.121138   2.262798   2.455491
    27  C    3.950377   4.264963   4.178571   5.197216   5.245084
    28  O    4.378512   4.994769   4.481028   5.389004   5.133691
    29  O    4.477311   5.180167   4.219292   5.528983   5.185292
    30  H    5.442784   6.130042   5.171128   6.474231   6.083113
                   16         17         18         19         20
    16  C    0.000000
    17  H    1.095284   0.000000
    18  H    1.092911   1.767878   0.000000
    19  H    1.094053   1.769100   1.771185   0.000000
    20  C    6.983466   7.192027   7.769906   7.277738   0.000000
    21  H    7.065994   7.109077   7.886116   7.434385   1.092857
    22  H    8.026442   8.270243   8.791058   8.294829   1.092216
    23  H    6.531125   6.822753   7.207559   6.923225   1.090595
    24  C    2.501332   2.775043   2.755915   3.454497   5.580839
    25  H    2.766477   2.621969   2.982753   3.814478   6.093075
    26  H    3.453034   3.843206   3.572403   4.339419   5.315178
    27  C    6.458983   6.719433   7.341188   6.534250   1.532199
    28  O    6.699513   7.175203   7.474398   6.692250   2.312346
    29  O    6.625398   7.168101   7.427718   6.380813   3.648892
    30  H    7.574082   8.131398   8.357135   7.303858   4.073400
                   21         22         23         24         25
    21  H    0.000000
    22  H    1.772900   0.000000
    23  H    1.772653   1.769570   0.000000
    24  C    5.609640   6.583064   4.889636   0.000000
    25  H    5.933766   7.119181   5.475757   1.085559   0.000000
    26  H    5.437339   6.227399   4.468468   1.083032   1.855344
    27  C    2.159973   2.171438   2.179455   5.599114   6.191588
    28  O    3.287028   2.584371   2.520951   5.896901   6.681077
    29  O    4.499772   3.953250   3.896159   6.364225   7.188573
    30  H    4.974474   4.128592   4.401860   7.279751   8.116508
                   26         27         28         29         30
    26  H    0.000000
    27  C    5.547937   0.000000
    28  O    5.704284   1.454455   0.000000
    29  O    6.337943   2.379077   1.458181   0.000000
    30  H    7.192484   2.927493   1.886769   0.966663   0.000000
 Stoichiometry    C9H19O2(2)
 Framework group  C1[X(C9H19O2)]
 Deg. of freedom    84
 Full point group                 C1      NOp   1
 Largest Abelian subgroup         C1      NOp   1
 Largest concise Abelian subgroup C1      NOp   1
                         Standard orientation:                         
 ---------------------------------------------------------------------
 Center     Atomic      Atomic             Coordinates (Angstroms)
 Number     Number       Type             X           Y           Z
 ---------------------------------------------------------------------
      1          6           0        3.224513    0.039305    1.144064
      2          1           0        3.190726   -1.001064    1.472351
      3          1           0        3.146085    0.675807    2.029414
      4          1           0        4.191875    0.229725    0.671302
      5          6           0        0.719128    0.014540    0.809384
      6          1           0        0.754328   -1.024795    1.150346
      7          1           0        0.619876    0.631761    1.710639
      8          6           0       -0.506986    0.206245   -0.090203
      9          1           0       -0.351129   -0.341139   -1.025603
     10          1           0       -0.618022    1.261671   -0.358201
     11          6           0       -1.797044   -0.280298    0.578319
     12          1           0       -1.964581    0.270952    1.512953
     13          1           0       -1.682419   -1.335640    0.856448
     14          6           0       -3.069091   -0.152711   -0.307267
     15          1           0       -2.862138   -0.699760   -1.236552
     16          6           0       -4.266707   -0.822913    0.390753
     17          1           0       -4.503717   -0.310754    1.329458
     18          1           0       -5.158760   -0.793603   -0.239990
     19          1           0       -4.049389   -1.869061    0.625909
     20          6           0        2.170645    1.783395   -0.341674
     21          1           0        1.981044    2.476418    0.481799
     22          1           0        3.165559    1.987580   -0.743409
     23          1           0        1.438376    1.970115   -1.128004
     24          6           0       -3.377444    1.267757   -0.655656
     25          1           0       -3.908742    1.899035    0.049787
     26          1           0       -3.002645    1.730219   -1.560428
     27          6           0        2.082572    0.341587    0.169274
     28          8           0        2.260510   -0.412094   -1.061881
     29          8           0        2.175365   -1.839510   -0.776354
     30          1           0        3.049169   -2.126083   -1.074314
 ---------------------------------------------------------------------
 Rotational constants (GHZ):      2.0069479      0.4338408      0.4083910
 Leave Link  202 at Mon Feb 10 16:51:05 2014, MaxMem= 4026531840 cpu:       0.5
 (Enter /usr/caen/gaussian-09revc/g09/l301.exe)
 Standard basis: 6-311++G(d,p) (5D, 7F)
 Ernie: Thresh=  0.10000D-02 Tol=  0.10000D-05 Strict=F.
 There are   375 symmetry adapted basis functions of A   symmetry.
 Integral buffers will be    131072 words long.
 Raffenetti 2 integral format.
 Two-electron integral symmetry is turned on.
   375 basis functions,   567 primitive gaussians,   386 cartesian basis functions
    45 alpha electrons       44 beta electrons
       nuclear repulsion energy       659.1999302253 Hartrees.
 IExCor=  402 DFT=T Ex+Corr=B3LYP ExCW=0 ScaHFX=  0.200000
 ScaDFX=  0.800000  0.720000  1.000000  0.810000 ScalE2=  1.000000  1.000000
 IRadAn=      0 IRanWt=     -1 IRanGd=            0 ICorTp=0
 NAtoms=   30 NActive=   30 NUniq=   30 SFac= 1.00D+00 NAtFMM=   60 NAOKFM=F Big=F
 Leave Link  301 at Mon Feb 10 16:51:05 2014, MaxMem= 4026531840 cpu:       0.7
 (Enter /usr/caen/gaussian-09revc/g09/l302.exe)
 NPDir=0 NMtPBC=     1 NCelOv=     1 NCel=       1 NClECP=     1 NCelD=      1
         NCelK=      1 NCelE2=     1 NClLst=     1 CellRange=     0.0.
 One-electron integrals computed using PRISM.
 NBasis=   375 RedAO= T  NBF=   375
 NBsUse=   375 1.00D-06 NBFU=   375
 Precomputing XC quadrature grid using
 IXCGrd= 2 IRadAn=           0 IRanWt=          -1 IRanGd=           0 AccXCQ= 0.00D+00.
 NRdTot=    1961 NPtTot=      249976 NUsed=      264106 NTot=      264138
 NSgBfM=   386   386   386   386   386 NAtAll=    30    30.
 Leave Link  302 at Mon Feb 10 16:51:07 2014, MaxMem= 4026531840 cpu:       9.1
 (Enter /usr/caen/gaussian-09revc/g09/l303.exe)
 DipDrv:  MaxL=1.
 Leave Link  303 at Mon Feb 10 16:51:08 2014, MaxMem= 4026531840 cpu:       2.3
 (Enter /usr/caen/gaussian-09revc/g09/l401.exe)
 Harris functional with IExCor=  402 diagonalized for initial guess.
 ExpMin= 3.60D-02 ExpMax= 8.59D+03 ExpMxC= 1.30D+03 IAcc=3 IRadAn=         5 AccDes= 0.00D+00
 HarFok:  IExCor=  402 AccDes= 0.00D+00 IRadAn=         5 IDoV= 1
 ScaDFX=  1.000000  1.000000  1.000000  1.000000
 FoFCou: FMM=F IPFlag=           0 FMFlag=      100000 FMFlg1=           0
         NFxFlg=           0 DoJE=T BraDBF=F KetDBF=T FulRan=T
         Omega=  0.000000  0.000000  1.000000  0.000000  0.000000 ICntrl=     500 IOpCl=  0
         NMat0=    1 NMatS0=    1 NMatT0=    0 NMatD0=    1 NMtDS0=    0 NMtDT0=    0
         I1Cent=           4 NGrid=           0.
 Petite list used in FoFCou.
 Harris En= -504.910034498807    
 Mixing orbitals, IMix= 1 IMixAn=  0 NRI=1 NE=   45 Coef=  7.07106781D-01  7.07106781D-01
 Mixing orbitals, IMix= 1 IMixAn=  0 NRI=1 NE=   44 Coef= -7.07106781D-01  7.07106781D-01
 Initial guess orbital symmetries:
 Alpha Orbitals:
       Occupied  (A) (A) (A) (A) (A) (A) (A) (A) (A) (A) (A) (A)
                 (A) (A) (A) (A) (A) (A) (A) (A) (A) (A) (A) (A)
                 (A) (A) (A) (A) (A) (A) (A) (A) (A) (A) (A) (A)
                 (A) (A) (A) (A) (A) (A) (A) (A) (A)
       Virtual   (A) (A) (A) (A) (A) (A) (A) (A) (A) (A) (A) (A)
                 (A) (A) (A) (A) (A) (A) (A) (A) (A) (A) (A) (A)
                 (A) (A) (A) (A) (A) (A) (A) (A) (A) (A) (A) (A)
                 (A) (A) (A) (A) (A) (A) (A) (A) (A) (A) (A) (A)
                 (A) (A) (A) (A) (A) (A) (A) (A) (A) (A) (A) (A)
                 (A) (A) (A) (A) (A) (A) (A) (A) (A) (A) (A) (A)
                 (A) (A) (A) (A) (A) (A) (A) (A) (A) (A) (A) (A)
                 (A) (A) (A) (A) (A) (A) (A) (A) (A) (A) (A) (A)
                 (A) (A) (A) (A) (A) (A) (A) (A) (A) (A) (A) (A)
                 (A) (A) (A) (A) (A) (A) (A) (A) (A) (A) (A) (A)
                 (A) (A) (A) (A) (A) (A) (A) (A) (A) (A) (A) (A)
                 (A) (A) (A) (A) (A) (A) (A) (A) (A) (A) (A) (A)
                 (A) (A) (A) (A) (A) (A) (A) (A) (A) (A) (A) (A)
                 (A) (A) (A) (A) (A) (A) (A) (A) (A) (A) (A) (A)
                 (A) (A) (A) (A) (A) (A) (A) (A) (A) (A) (A) (A)
                 (A) (A) (A) (A) (A) (A) (A) (A) (A) (A) (A) (A)
                 (A) (A) (A) (A) (A) (A) (A) (A) (A) (A) (A) (A)
                 (A) (A) (A) (A) (A) (A) (A) (A) (A) (A) (A) (A)
                 (A) (A) (A) (A) (A) (A) (A) (A) (A) (A) (A) (A)
                 (A) (A) (A) (A) (A) (A) (A) (A) (A) (A) (A) (A)
                 (A) (A) (A) (A) (A) (A) (A) (A) (A) (A) (A) (A)
                 (A) (A) (A) (A) (A) (A) (A) (A) (A) (A) (A) (A)
                 (A) (A) (A) (A) (A) (A) (A) (A) (A) (A) (A) (A)
                 (A) (A) (A) (A) (A) (A) (A) (A) (A) (A) (A) (A)
                 (A) (A) (A) (A) (A) (A) (A) (A) (A) (A) (A) (A)
                 (A) (A) (A) (A) (A) (A) (A) (A) (A) (A) (A) (A)
                 (A) (A) (A) (A) (A) (A) (A) (A) (A) (A) (A) (A)
                 (A) (A) (A) (A) (A) (A)
 Beta  Orbitals:
       Occupied  (A) (A) (A) (A) (A) (A) (A) (A) (A) (A) (A) (A)
                 (A) (A) (A) (A) (A) (A) (A) (A) (A) (A) (A) (A)
                 (A) (A) (A) (A) (A) (A) (A) (A) (A) (A) (A) (A)
                 (A) (A) (A) (A) (A) (A) (A) (A)
       Virtual   (A) (A) (A) (A) (A) (A) (A) (A) (A) (A) (A) (A)
                 (A) (A) (A) (A) (A) (A) (A) (A) (A) (A) (A) (A)
                 (A) (A) (A) (A) (A) (A) (A) (A) (A) (A) (A) (A)
                 (A) (A) (A) (A) (A) (A) (A) (A) (A) (A) (A) (A)
                 (A) (A) (A) (A) (A) (A) (A) (A) (A) (A) (A) (A)
                 (A) (A) (A) (A) (A) (A) (A) (A) (A) (A) (A) (A)
                 (A) (A) (A) (A) (A) (A) (A) (A) (A) (A) (A) (A)
                 (A) (A) (A) (A) (A) (A) (A) (A) (A) (A) (A) (A)
                 (A) (A) (A) (A) (A) (A) (A) (A) (A) (A) (A) (A)
                 (A) (A) (A) (A) (A) (A) (A) (A) (A) (A) (A) (A)
                 (A) (A) (A) (A) (A) (A) (A) (A) (A) (A) (A) (A)
                 (A) (A) (A) (A) (A) (A) (A) (A) (A) (A) (A) (A)
                 (A) (A) (A) (A) (A) (A) (A) (A) (A) (A) (A) (A)
                 (A) (A) (A) (A) (A) (A) (A) (A) (A) (A) (A) (A)
                 (A) (A) (A) (A) (A) (A) (A) (A) (A) (A) (A) (A)
                 (A) (A) (A) (A) (A) (A) (A) (A) (A) (A) (A) (A)
                 (A) (A) (A) (A) (A) (A) (A) (A) (A) (A) (A) (A)
                 (A) (A) (A) (A) (A) (A) (A) (A) (A) (A) (A) (A)
                 (A) (A) (A) (A) (A) (A) (A) (A) (A) (A) (A) (A)
                 (A) (A) (A) (A) (A) (A) (A) (A) (A) (A) (A) (A)
                 (A) (A) (A) (A) (A) (A) (A) (A) (A) (A) (A) (A)
                 (A) (A) (A) (A) (A) (A) (A) (A) (A) (A) (A) (A)
                 (A) (A) (A) (A) (A) (A) (A) (A) (A) (A) (A) (A)
                 (A) (A) (A) (A) (A) (A) (A) (A) (A) (A) (A) (A)
                 (A) (A) (A) (A) (A) (A) (A) (A) (A) (A) (A) (A)
                 (A) (A) (A) (A) (A) (A) (A) (A) (A) (A) (A) (A)
                 (A) (A) (A) (A) (A) (A) (A) (A) (A) (A) (A) (A)
                 (A) (A) (A) (A) (A) (A) (A)
 The electronic state of the initial guess is 2-A.
 Initial guess <Sx>= 0.0000 <Sy>= 0.0000 <Sz>= 0.5000 <S**2>= 1.0000 S= 0.6180
 Leave Link  401 at Mon Feb 10 16:51:16 2014, MaxMem= 4026531840 cpu:      53.6
 (Enter /usr/caen/gaussian-09revc/g09/l502.exe)
 UHF open shell SCF:
 Requested convergence on RMS density matrix=1.00D-08 within 128 cycles.
 Requested convergence on MAX density matrix=1.00D-06.
 Requested convergence on             energy=1.00D-06.
 No special actions if energy rises.
 Using DIIS extrapolation, IDIIS=  1040.
 Integral symmetry usage will be decided dynamically.
       263823 words used for storage of precomputed grid.
 IEnd=      734957 IEndB=      734957 NGot=  4026531840 MDV=  4025962906
 LenX=  4025962906 LenY=  4025813469
 Fock matrices will be formed incrementally for  20 cycles.

 Cycle   1  Pass 1  IDiag  1:
 FoFCou: FMM=F IPFlag=           0 FMFlag=      100000 FMFlg1=           0
         NFxFlg=           0 DoJE=F BraDBF=F KetDBF=F FulRan=T
         Omega=  0.000000  0.000000  1.000000  0.000000  0.000000 ICntrl=       0 IOpCl=  1
         NMat0=    1 NMatS0=    1 NMatT0=    0 NMatD0=    1 NMtDS0=    0 NMtDT0=    0
         I1Cent=           0 NGrid=           0.
 Symmetry not used in FoFCou.
 E= -504.335137395911    
 DIIS: error= 2.74D-02 at cycle   1 NSaved=   1.
 NSaved= 1 IEnMin= 1 EnMin= -504.335137395911     IErMin= 1 ErrMin= 2.74D-02
 ErrMax= 2.74D-02 EMaxC= 1.00D-01 BMatC= 1.57D+00 BMatP= 1.57D+00
 IDIUse=3 WtCom= 7.26D-01 WtEn= 2.74D-01
 Coeff-Com:  0.100D+01
 Coeff-En:   0.100D+01
 Coeff:      0.100D+01
 Gap=     0.016 Goal=   None    Shift=    0.000
 Gap=     0.019 Goal=   None    Shift=    0.000
 GapD=    0.016 DampG=0.250 DampE=0.500 DampFc=0.2500 IDamp=-1.
 Damping current iteration by 2.50D-01
 RMSDP=2.62D-02 MaxDP=4.14D+00              OVMax= 6.22D-01

 Cycle   2  Pass 1  IDiag  1:
 RMSU=  6.04D-03    CP:  9.61D-01
 E= -504.494575948581     Delta-E=       -0.159438552670 Rises=F Damp=T
 DIIS: error= 1.17D-02 at cycle   2 NSaved=   2.
 NSaved= 2 IEnMin= 2 EnMin= -504.494575948581     IErMin= 2 ErrMin= 1.17D-02
 ErrMax= 1.17D-02 EMaxC= 1.00D-01 BMatC= 3.88D-01 BMatP= 1.57D+00
 IDIUse=3 WtCom= 8.83D-01 WtEn= 1.17D-01
 Coeff-Com: -0.802D+00 0.180D+01
 Coeff-En:   0.000D+00 0.100D+01
 Coeff:     -0.708D+00 0.171D+01
 Gap=     0.124 Goal=   None    Shift=    0.000
 Gap=     0.152 Goal=   None    Shift=    0.000
 RMSDP=8.83D-03 MaxDP=1.42D+00 DE=-1.59D-01 OVMax= 2.63D-01

 Cycle   3  Pass 1  IDiag  1:
 RMSU=  4.81D-03    CP:  7.62D-01  5.13D-01
 E= -504.838466780866     Delta-E=       -0.343890832285 Rises=F Damp=F
 DIIS: error= 6.32D-03 at cycle   3 NSaved=   3.
 NSaved= 3 IEnMin= 3 EnMin= -504.838466780866     IErMin= 3 ErrMin= 6.32D-03
 ErrMax= 6.32D-03 EMaxC= 1.00D-01 BMatC= 6.34D-02 BMatP= 3.88D-01
 IDIUse=3 WtCom= 9.37D-01 WtEn= 6.32D-02
 Coeff-Com: -0.357D+00 0.787D+00 0.570D+00
 Coeff-En:   0.000D+00 0.000D+00 0.100D+01
 Coeff:     -0.334D+00 0.737D+00 0.598D+00
 Gap=     0.162 Goal=   None    Shift=    0.000
 Gap=     0.180 Goal=   None    Shift=    0.000
 RMSDP=1.37D-03 MaxDP=1.28D-01 DE=-3.44D-01 OVMax= 4.19D-02

 Cycle   4  Pass 1  IDiag  1:
 RMSU=  9.28D-04    CP:  7.51D-01  5.01D-01  9.79D-01
 E= -504.844908330863     Delta-E=       -0.006441549998 Rises=F Damp=F
 DIIS: error= 5.51D-03 at cycle   4 NSaved=   4.
 NSaved= 4 IEnMin= 4 EnMin= -504.844908330863     IErMin= 4 ErrMin= 5.51D-03
 ErrMax= 5.51D-03 EMaxC= 1.00D-01 BMatC= 3.91D-02 BMatP= 6.34D-02
 IDIUse=3 WtCom= 9.45D-01 WtEn= 5.51D-02
 Coeff-Com: -0.540D-01 0.115D+00 0.428D+00 0.511D+00
 Coeff-En:   0.000D+00 0.000D+00 0.351D+00 0.649D+00
 Coeff:     -0.510D-01 0.109D+00 0.424D+00 0.519D+00
 Gap=     0.182 Goal=   None    Shift=    0.000
 Gap=     0.199 Goal=   None    Shift=    0.000
 RMSDP=8.20D-04 MaxDP=8.26D-02 DE=-6.44D-03 OVMax= 1.96D-02

 Cycle   5  Pass 1  IDiag  1:
 RMSU=  5.39D-04    CP:  7.40D-01  5.03D-01  9.92D-01  9.57D-01
 E= -504.852188799875     Delta-E=       -0.007280469011 Rises=F Damp=F
 DIIS: error= 9.49D-04 at cycle   5 NSaved=   5.
 NSaved= 5 IEnMin= 5 EnMin= -504.852188799875     IErMin= 5 ErrMin= 9.49D-04
 ErrMax= 9.49D-04 EMaxC= 1.00D-01 BMatC= 1.68D-03 BMatP= 3.91D-02
 IDIUse=3 WtCom= 9.91D-01 WtEn= 9.49D-03
 Coeff-Com:  0.112D-02-0.636D-02 0.671D-01 0.186D+00 0.752D+00
 Coeff-En:   0.000D+00 0.000D+00 0.000D+00 0.000D+00 0.100D+01
 Coeff:      0.111D-02-0.630D-02 0.664D-01 0.185D+00 0.754D+00
 Gap=     0.188 Goal=   None    Shift=    0.000
 Gap=     0.201 Goal=   None    Shift=    0.000
 RMSDP=3.90D-04 MaxDP=5.12D-02 DE=-7.28D-03 OVMax= 1.20D-02

 Cycle   6  Pass 1  IDiag  1:
 RMSU=  2.62D-04    CP:  7.45D-01  4.83D-01  1.00D+00  9.59D-01  8.05D-01
 E= -504.852550195443     Delta-E=       -0.000361395568 Rises=F Damp=F
 DIIS: error= 5.14D-04 at cycle   6 NSaved=   6.
 NSaved= 6 IEnMin= 6 EnMin= -504.852550195443     IErMin= 6 ErrMin= 5.14D-04
 ErrMax= 5.14D-04 EMaxC= 1.00D-01 BMatC= 5.17D-04 BMatP= 1.68D-03
 IDIUse=3 WtCom= 9.95D-01 WtEn= 5.14D-03
 Coeff-Com:  0.687D-02-0.162D-01-0.619D-01-0.210D-01 0.402D+00 0.690D+00
 Coeff-En:   0.000D+00 0.000D+00 0.000D+00 0.000D+00 0.334D-01 0.967D+00
 Coeff:      0.683D-02-0.161D-01-0.616D-01-0.209D-01 0.400D+00 0.692D+00
 Gap=     0.188 Goal=   None    Shift=    0.000
 Gap=     0.205 Goal=   None    Shift=    0.000
 RMSDP=1.35D-04 MaxDP=1.79D-02 DE=-3.61D-04 OVMax= 4.02D-03

 Cycle   7  Pass 1  IDiag  1:
 RMSU=  5.95D-05    CP:  7.42D-01  4.83D-01  1.00D+00  9.96D-01  8.88D-01
                    CP:  8.98D-01
 E= -504.852690115702     Delta-E=       -0.000139920259 Rises=F Damp=F
 DIIS: error= 9.59D-05 at cycle   7 NSaved=   7.
 NSaved= 7 IEnMin= 7 EnMin= -504.852690115702     IErMin= 7 ErrMin= 9.59D-05
 ErrMax= 9.59D-05 EMaxC= 1.00D-01 BMatC= 2.15D-05 BMatP= 5.17D-04
 IDIUse=1 WtCom= 1.00D+00 WtEn= 0.00D+00
 Coeff-Com: -0.210D-02 0.405D-02-0.179D-01-0.226D-01 0.265D-01 0.179D+00
 Coeff-Com:  0.833D+00
 Coeff:     -0.210D-02 0.405D-02-0.179D-01-0.226D-01 0.265D-01 0.179D+00
 Coeff:      0.833D+00
 Gap=     0.188 Goal=   None    Shift=    0.000
 Gap=     0.204 Goal=   None    Shift=    0.000
 RMSDP=4.87D-05 MaxDP=4.55D-03 DE=-1.40D-04 OVMax= 9.36D-04

 Cycle   8  Pass 1  IDiag  1:
 RMSU=  3.96D-05    CP:  7.42D-01  4.85D-01  1.00D+00  9.97D-01  8.95D-01
                    CP:  8.74D-01  9.77D-01
 E= -504.852696238586     Delta-E=       -0.000006122885 Rises=F Damp=F
 DIIS: error= 4.17D-05 at cycle   8 NSaved=   8.
 NSaved= 8 IEnMin= 8 EnMin= -504.852696238586     IErMin= 8 ErrMin= 4.17D-05
 ErrMax= 4.17D-05 EMaxC= 1.00D-01 BMatC= 3.85D-06 BMatP= 2.15D-05
 IDIUse=1 WtCom= 1.00D+00 WtEn= 0.00D+00
 Coeff-Com: -0.130D-02 0.264D-02-0.222D-02-0.786D-02-0.231D-01 0.716D-02
 Coeff-Com:  0.311D+00 0.714D+00
 Coeff:     -0.130D-02 0.264D-02-0.222D-02-0.786D-02-0.231D-01 0.716D-02
 Coeff:      0.311D+00 0.714D+00
 Gap=     0.188 Goal=   None    Shift=    0.000
 Gap=     0.205 Goal=   None    Shift=    0.000
 RMSDP=1.28D-05 MaxDP=1.26D-03 DE=-6.12D-06 OVMax= 2.85D-04

 Cycle   9  Pass 1  IDiag  1:
 RMSU=  5.46D-06    CP:  7.42D-01  4.84D-01  1.00D+00  9.96D-01  8.95D-01
                    CP:  8.87D-01  1.05D+00  8.89D-01
 E= -504.852697252220     Delta-E=       -0.000001013634 Rises=F Damp=F
 DIIS: error= 1.67D-05 at cycle   9 NSaved=   9.
 NSaved= 9 IEnMin= 9 EnMin= -504.852697252220     IErMin= 9 ErrMin= 1.67D-05
 ErrMax= 1.67D-05 EMaxC= 1.00D-01 BMatC= 8.72D-07 BMatP= 3.85D-06
 IDIUse=1 WtCom= 1.00D+00 WtEn= 0.00D+00
 Coeff-Com: -0.697D-04 0.168D-03 0.264D-02 0.923D-03-0.168D-01-0.359D-01
 Coeff-Com: -0.337D-01 0.331D+00 0.752D+00
 Coeff:     -0.697D-04 0.168D-03 0.264D-02 0.923D-03-0.168D-01-0.359D-01
 Coeff:     -0.337D-01 0.331D+00 0.752D+00
 Gap=     0.188 Goal=   None    Shift=    0.000
 Gap=     0.205 Goal=   None    Shift=    0.000
 RMSDP=4.81D-06 MaxDP=5.00D-04 DE=-1.01D-06 OVMax= 1.23D-04

 Cycle  10  Pass 1  IDiag  1:
 RMSU=  2.87D-06    CP:  7.42D-01  4.84D-01  1.00D+00  9.97D-01  8.97D-01
                    CP:  8.91D-01  1.04D+00  9.14D-01  9.69D-01
 E= -504.852697500626     Delta-E=       -0.000000248406 Rises=F Damp=F
 DIIS: error= 4.94D-06 at cycle  10 NSaved=  10.
 NSaved=10 IEnMin=10 EnMin= -504.852697500626     IErMin=10 ErrMin= 4.94D-06
 ErrMax= 4.94D-06 EMaxC= 1.00D-01 BMatC= 7.06D-08 BMatP= 8.72D-07
 IDIUse=1 WtCom= 1.00D+00 WtEn= 0.00D+00
 Coeff-Com:  0.125D-03-0.226D-03 0.112D-02 0.116D-02-0.390D-02-0.130D-01
 Coeff-Com: -0.424D-01 0.455D-01 0.277D+00 0.735D+00
 Coeff:      0.125D-03-0.226D-03 0.112D-02 0.116D-02-0.390D-02-0.130D-01
 Coeff:     -0.424D-01 0.455D-01 0.277D+00 0.735D+00
 Gap=     0.188 Goal=   None    Shift=    0.000
 Gap=     0.205 Goal=   None    Shift=    0.000
 RMSDP=2.86D-06 MaxDP=4.10D-04 DE=-2.48D-07 OVMax= 4.02D-05

 Cycle  11  Pass 1  IDiag  1:
 RMSU=  1.20D-06    CP:  7.42D-01  4.84D-01  1.00D+00  9.97D-01  8.96D-01
                    CP:  8.89D-01  1.05D+00  9.33D-01  9.13D-01  6.58D-01
 E= -504.852697522777     Delta-E=       -0.000000022151 Rises=F Damp=F
 DIIS: error= 2.07D-06 at cycle  11 NSaved=  11.
 NSaved=11 IEnMin=11 EnMin= -504.852697522777     IErMin=11 ErrMin= 2.07D-06
 ErrMax= 2.07D-06 EMaxC= 1.00D-01 BMatC= 1.01D-08 BMatP= 7.06D-08
 IDIUse=1 WtCom= 1.00D+00 WtEn= 0.00D+00
 Coeff-Com:  0.474D-04-0.811D-04 0.109D-03 0.377D-03 0.675D-03 0.598D-04
 Coeff-Com: -0.111D-01-0.288D-01-0.197D-02 0.272D+00 0.769D+00
 Coeff:      0.474D-04-0.811D-04 0.109D-03 0.377D-03 0.675D-03 0.598D-04
 Coeff:     -0.111D-01-0.288D-01-0.197D-02 0.272D+00 0.769D+00
 Gap=     0.188 Goal=   None    Shift=    0.000
 Gap=     0.205 Goal=   None    Shift=    0.000
 RMSDP=1.14D-06 MaxDP=1.01D-04 DE=-2.22D-08 OVMax= 1.90D-05

 Cycle  12  Pass 1  IDiag  1:
 RMSU=  4.52D-07    CP:  7.42D-01  4.84D-01  1.00D+00  9.97D-01  8.96D-01
                    CP:  8.90D-01  1.05D+00  9.22D-01  9.33D-01  7.86D-01
                    CP:  8.99D-01
 E= -504.852697526422     Delta-E=       -0.000000003645 Rises=F Damp=F
 DIIS: error= 1.07D-06 at cycle  12 NSaved=  12.
 NSaved=12 IEnMin=12 EnMin= -504.852697526422     IErMin=12 ErrMin= 1.07D-06
 ErrMax= 1.07D-06 EMaxC= 1.00D-01 BMatC= 2.55D-09 BMatP= 1.01D-08
 IDIUse=1 WtCom= 1.00D+00 WtEn= 0.00D+00
 Coeff-Com:  0.877D-05-0.137D-04-0.104D-03 0.236D-04 0.939D-03 0.192D-02
 Coeff-Com:  0.308D-03-0.211D-01-0.404D-01 0.318D-01 0.376D+00 0.650D+00
 Coeff:      0.877D-05-0.137D-04-0.104D-03 0.236D-04 0.939D-03 0.192D-02
 Coeff:      0.308D-03-0.211D-01-0.404D-01 0.318D-01 0.376D+00 0.650D+00
 Gap=     0.188 Goal=   None    Shift=    0.000
 Gap=     0.205 Goal=   None    Shift=    0.000
 RMSDP=3.20D-07 MaxDP=1.88D-05 DE=-3.65D-09 OVMax= 9.50D-06

 Cycle  13  Pass 1  IDiag  1:
 RMSU=  1.92D-07    CP:  7.42D-01  4.84D-01  1.00D+00  9.97D-01  8.96D-01
                    CP:  8.90D-01  1.05D+00  9.20D-01  9.47D-01  7.88D-01
                    CP:  9.23D-01  9.39D-01
 E= -504.852697527296     Delta-E=       -0.000000000874 Rises=F Damp=F
 DIIS: error= 5.24D-07 at cycle  13 NSaved=  13.
 NSaved=13 IEnMin=13 EnMin= -504.852697527296     IErMin=13 ErrMin= 5.24D-07
 ErrMax= 5.24D-07 EMaxC= 1.00D-01 BMatC= 4.11D-10 BMatP= 2.55D-09
 IDIUse=1 WtCom= 1.00D+00 WtEn= 0.00D+00
 Coeff-Com: -0.104D-04 0.177D-04-0.596D-04-0.836D-04 0.198D-03 0.679D-03
 Coeff-Com:  0.266D-02-0.114D-02-0.149D-01-0.500D-01-0.301D-01 0.241D+00
 Coeff-Com:  0.852D+00
 Coeff:     -0.104D-04 0.177D-04-0.596D-04-0.836D-04 0.198D-03 0.679D-03
 Coeff:      0.266D-02-0.114D-02-0.149D-01-0.500D-01-0.301D-01 0.241D+00
 Coeff:      0.852D+00
 Gap=     0.188 Goal=   None    Shift=    0.000
 Gap=     0.205 Goal=   None    Shift=    0.000
 RMSDP=1.74D-07 MaxDP=1.70D-05 DE=-8.74D-10 OVMax= 6.44D-06

 Cycle  14  Pass 1  IDiag  1:
 RMSU=  8.46D-08    CP:  7.42D-01  4.84D-01  1.00D+00  9.97D-01  8.96D-01
                    CP:  8.90D-01  1.05D+00  9.19D-01  9.41D-01  7.82D-01
                    CP:  9.70D-01  9.58D-01  9.08D-01
 E= -504.852697527551     Delta-E=       -0.000000000255 Rises=F Damp=F
 DIIS: error= 2.53D-07 at cycle  14 NSaved=  14.
 NSaved=14 IEnMin=14 EnMin= -504.852697527551     IErMin=14 ErrMin= 2.53D-07
 ErrMax= 2.53D-07 EMaxC= 1.00D-01 BMatC= 7.66D-11 BMatP= 4.11D-10
 IDIUse=1 WtCom= 1.00D+00 WtEn= 0.00D+00
 Coeff-Com: -0.652D-05 0.106D-04 0.770D-05-0.321D-04-0.173D-03-0.290D-03
 Coeff-Com:  0.666D-03 0.488D-02 0.578D-02-0.207D-01-0.996D-01-0.965D-01
 Coeff-Com:  0.219D+00 0.987D+00
 Coeff:     -0.652D-05 0.106D-04 0.770D-05-0.321D-04-0.173D-03-0.290D-03
 Coeff:      0.666D-03 0.488D-02 0.578D-02-0.207D-01-0.996D-01-0.965D-01
 Coeff:      0.219D+00 0.987D+00
 Gap=     0.188 Goal=   None    Shift=    0.000
 Gap=     0.205 Goal=   None    Shift=    0.000
 RMSDP=8.65D-08 MaxDP=5.67D-06 DE=-2.55D-10 OVMax= 4.43D-06

 Cycle  15  Pass 1  IDiag  1:
 RMSU=  3.56D-08    CP:  7.42D-01  4.84D-01  1.00D+00  9.97D-01  8.96D-01
                    CP:  8.90D-01  1.05D+00  9.20D-01  9.43D-01  7.84D-01
                    CP:  9.71D-01  1.01D+00  1.06D+00  1.08D+00
 E= -504.852697527606     Delta-E=       -0.000000000054 Rises=F Damp=F
 DIIS: error= 1.15D-07 at cycle  15 NSaved=  15.
 NSaved=15 IEnMin=15 EnMin= -504.852697527606     IErMin=15 ErrMin= 1.15D-07
 ErrMax= 1.15D-07 EMaxC= 1.00D-01 BMatC= 2.09D-11 BMatP= 7.66D-11
 IDIUse=1 WtCom= 1.00D+00 WtEn= 0.00D+00
 Coeff-Com: -0.120D-05 0.195D-05 0.145D-04 0.279D-05-0.131D-03-0.278D-03
 Coeff-Com: -0.225D-03 0.245D-02 0.577D-02 0.113D-02-0.382D-01-0.908D-01
 Coeff-Com: -0.751D-01 0.431D+00 0.765D+00
 Coeff:     -0.120D-05 0.195D-05 0.145D-04 0.279D-05-0.131D-03-0.278D-03
 Coeff:     -0.225D-03 0.245D-02 0.577D-02 0.113D-02-0.382D-01-0.908D-01
 Coeff:     -0.751D-01 0.431D+00 0.765D+00
 Gap=     0.188 Goal=   None    Shift=    0.000
 Gap=     0.205 Goal=   None    Shift=    0.000
 RMSDP=4.06D-08 MaxDP=3.50D-06 DE=-5.43D-11 OVMax= 1.52D-06

 Cycle  16  Pass 1  IDiag  1:
 RMSU=  1.72D-08    CP:  7.42D-01  4.84D-01  1.00D+00  9.97D-01  8.96D-01
                    CP:  8.90D-01  1.05D+00  9.20D-01  9.42D-01  7.85D-01
                    CP:  9.70D-01  1.01D+00  1.05D+00  1.29D+00  1.09D+00
 E= -504.852697527627     Delta-E=       -0.000000000021 Rises=F Damp=F
 DIIS: error= 3.75D-08 at cycle  16 NSaved=  16.
 NSaved=16 IEnMin=16 EnMin= -504.852697527627     IErMin=16 ErrMin= 3.75D-08
 ErrMax= 3.75D-08 EMaxC= 1.00D-01 BMatC= 2.37D-12 BMatP= 2.09D-11
 IDIUse=1 WtCom= 1.00D+00 WtEn= 0.00D+00
 Coeff-Com:  0.651D-06-0.950D-06 0.271D-05 0.681D-05-0.128D-04-0.314D-04
 Coeff-Com: -0.160D-03-0.120D-03 0.762D-03 0.383D-02 0.590D-02-0.119D-01
 Coeff-Com: -0.631D-01-0.424D-01 0.252D+00 0.855D+00
 Coeff:      0.651D-06-0.950D-06 0.271D-05 0.681D-05-0.128D-04-0.314D-04
 Coeff:     -0.160D-03-0.120D-03 0.762D-03 0.383D-02 0.590D-02-0.119D-01
 Coeff:     -0.631D-01-0.424D-01 0.252D+00 0.855D+00
 Gap=     0.188 Goal=   None    Shift=    0.000
 Gap=     0.205 Goal=   None    Shift=    0.000
 RMSDP=1.49D-08 MaxDP=1.64D-06 DE=-2.11D-11 OVMax= 4.93D-07

 Cycle  17  Pass 1  IDiag  1:
 RMSU=  6.72D-09    CP:  7.42D-01  4.84D-01  1.00D+00  9.97D-01  8.96D-01
                    CP:  8.90D-01  1.05D+00  9.20D-01  9.43D-01  7.85D-01
                    CP:  9.72D-01  1.01D+00  1.07D+00  1.31D+00  1.17D+00
                    CP:  7.19D-01
 E= -504.852697527629     Delta-E=       -0.000000000002 Rises=F Damp=F
 DIIS: error= 7.75D-09 at cycle  17 NSaved=  17.
 NSaved=17 IEnMin=17 EnMin= -504.852697527629     IErMin=17 ErrMin= 7.75D-09
 ErrMax= 7.75D-09 EMaxC= 1.00D-01 BMatC= 1.89D-13 BMatP= 2.37D-12
 IDIUse=1 WtCom= 1.00D+00 WtEn= 0.00D+00
 Coeff-Com:  0.261D-06-0.403D-06-0.724D-06 0.106D-05 0.107D-04 0.210D-04
 Coeff-Com: -0.144D-04-0.263D-03-0.408D-03 0.674D-03 0.497D-02 0.653D-02
 Coeff-Com: -0.649D-02-0.510D-01-0.188D-01 0.185D+00 0.879D+00
 Coeff:      0.261D-06-0.403D-06-0.724D-06 0.106D-05 0.107D-04 0.210D-04
 Coeff:     -0.144D-04-0.263D-03-0.408D-03 0.674D-03 0.497D-02 0.653D-02
 Coeff:     -0.649D-02-0.510D-01-0.188D-01 0.185D+00 0.879D+00
 Gap=     0.188 Goal=   None    Shift=    0.000
 Gap=     0.205 Goal=   None    Shift=    0.000
 RMSDP=5.13D-09 MaxDP=5.73D-07 DE=-1.82D-12 OVMax= 9.42D-08

 SCF Done:  E(UB3LYP) =  -504.852697528     A.U. after   17 cycles
             Convg  =    0.5132D-08             -V/T =  2.0045
 <Sx>= 0.0000 <Sy>= 0.0000 <Sz>= 0.5000 <S**2>= 0.7538 S= 0.5019
 <L.S>= 0.000000000000E+00
 KE= 5.025995020248D+02 PE=-2.494680450724D+03 EE= 8.280283209463D+02
 Annihilation of the first spin contaminant:
 S**2 before annihilation     0.7538,   after     0.7500
 Leave Link  502 at Mon Feb 10 16:58:23 2014, MaxMem= 4026531840 cpu:    3381.2
 (Enter /usr/caen/gaussian-09revc/g09/l601.exe)
 Copying SCF densities to generalized density rwf, IOpCl= 1 IROHF=0.

 **********************************************************************

            Population analysis using the SCF density.

 **********************************************************************

 Orbital symmetries:
 Alpha Orbitals:
       Occupied  (A) (A) (A) (A) (A) (A) (A) (A) (A) (A) (A) (A)
                 (A) (A) (A) (A) (A) (A) (A) (A) (A) (A) (A) (A)
                 (A) (A) (A) (A) (A) (A) (A) (A) (A) (A) (A) (A)
                 (A) (A) (A) (A) (A) (A) (A) (A) (A)
       Virtual   (A) (A) (A) (A) (A) (A) (A) (A) (A) (A) (A) (A)
                 (A) (A) (A) (A) (A) (A) (A) (A) (A) (A) (A) (A)
                 (A) (A) (A) (A) (A) (A) (A) (A) (A) (A) (A) (A)
                 (A) (A) (A) (A) (A) (A) (A) (A) (A) (A) (A) (A)
                 (A) (A) (A) (A) (A) (A) (A) (A) (A) (A) (A) (A)
                 (A) (A) (A) (A) (A) (A) (A) (A) (A) (A) (A) (A)
                 (A) (A) (A) (A) (A) (A) (A) (A) (A) (A) (A) (A)
                 (A) (A) (A) (A) (A) (A) (A) (A) (A) (A) (A) (A)
                 (A) (A) (A) (A) (A) (A) (A) (A) (A) (A) (A) (A)
                 (A) (A) (A) (A) (A) (A) (A) (A) (A) (A) (A) (A)
                 (A) (A) (A) (A) (A) (A) (A) (A) (A) (A) (A) (A)
                 (A) (A) (A) (A) (A) (A) (A) (A) (A) (A) (A) (A)
                 (A) (A) (A) (A) (A) (A) (A) (A) (A) (A) (A) (A)
                 (A) (A) (A) (A) (A) (A) (A) (A) (A) (A) (A) (A)
                 (A) (A) (A) (A) (A) (A) (A) (A) (A) (A) (A) (A)
                 (A) (A) (A) (A) (A) (A) (A) (A) (A) (A) (A) (A)
                 (A) (A) (A) (A) (A) (A) (A) (A) (A) (A) (A) (A)
                 (A) (A) (A) (A) (A) (A) (A) (A) (A) (A) (A) (A)
                 (A) (A) (A) (A) (A) (A) (A) (A) (A) (A) (A) (A)
                 (A) (A) (A) (A) (A) (A) (A) (A) (A) (A) (A) (A)
                 (A) (A) (A) (A) (A) (A) (A) (A) (A) (A) (A) (A)
                 (A) (A) (A) (A) (A) (A) (A) (A) (A) (A) (A) (A)
                 (A) (A) (A) (A) (A) (A) (A) (A) (A) (A) (A) (A)
                 (A) (A) (A) (A) (A) (A) (A) (A) (A) (A) (A) (A)
                 (A) (A) (A) (A) (A) (A) (A) (A) (A) (A) (A) (A)
                 (A) (A) (A) (A) (A) (A) (A) (A) (A) (A) (A) (A)
                 (A) (A) (A) (A) (A) (A) (A) (A) (A) (A) (A) (A)
                 (A) (A) (A) (A) (A) (A)
 Beta  Orbitals:
       Occupied  (A) (A) (A) (A) (A) (A) (A) (A) (A) (A) (A) (A)
                 (A) (A) (A) (A) (A) (A) (A) (A) (A) (A) (A) (A)
                 (A) (A) (A) (A) (A) (A) (A) (A) (A) (A) (A) (A)
                 (A) (A) (A) (A) (A) (A) (A) (A)
       Virtual   (A) (A) (A) (A) (A) (A) (A) (A) (A) (A) (A) (A)
                 (A) (A) (A) (A) (A) (A) (A) (A) (A) (A) (A) (A)
                 (A) (A) (A) (A) (A) (A) (A) (A) (A) (A) (A) (A)
                 (A) (A) (A) (A) (A) (A) (A) (A) (A) (A) (A) (A)
                 (A) (A) (A) (A) (A) (A) (A) (A) (A) (A) (A) (A)
                 (A) (A) (A) (A) (A) (A) (A) (A) (A) (A) (A) (A)
                 (A) (A) (A) (A) (A) (A) (A) (A) (A) (A) (A) (A)
                 (A) (A) (A) (A) (A) (A) (A) (A) (A) (A) (A) (A)
                 (A) (A) (A) (A) (A) (A) (A) (A) (A) (A) (A) (A)
                 (A) (A) (A) (A) (A) (A) (A) (A) (A) (A) (A) (A)
                 (A) (A) (A) (A) (A) (A) (A) (A) (A) (A) (A) (A)
                 (A) (A) (A) (A) (A) (A) (A) (A) (A) (A) (A) (A)
                 (A) (A) (A) (A) (A) (A) (A) (A) (A) (A) (A) (A)
                 (A) (A) (A) (A) (A) (A) (A) (A) (A) (A) (A) (A)
                 (A) (A) (A) (A) (A) (A) (A) (A) (A) (A) (A) (A)
                 (A) (A) (A) (A) (A) (A) (A) (A) (A) (A) (A) (A)
                 (A) (A) (A) (A) (A) (A) (A) (A) (A) (A) (A) (A)
                 (A) (A) (A) (A) (A) (A) (A) (A) (A) (A) (A) (A)
                 (A) (A) (A) (A) (A) (A) (A) (A) (A) (A) (A) (A)
                 (A) (A) (A) (A) (A) (A) (A) (A) (A) (A) (A) (A)
                 (A) (A) (A) (A) (A) (A) (A) (A) (A) (A) (A) (A)
                 (A) (A) (A) (A) (A) (A) (A) (A) (A) (A) (A) (A)
                 (A) (A) (A) (A) (A) (A) (A) (A) (A) (A) (A) (A)
                 (A) (A) (A) (A) (A) (A) (A) (A) (A) (A) (A) (A)
                 (A) (A) (A) (A) (A) (A) (A) (A) (A) (A) (A) (A)
                 (A) (A) (A) (A) (A) (A) (A) (A) (A) (A) (A) (A)
                 (A) (A) (A) (A) (A) (A) (A) (A) (A) (A) (A) (A)
                 (A) (A) (A) (A) (A) (A) (A)
 The electronic state is 2-A.
 Alpha  occ. eigenvalues --  -19.17814 -19.17703 -10.23598 -10.17611 -10.17222
 Alpha  occ. eigenvalues --  -10.16652 -10.16427 -10.16426 -10.16354 -10.15833
 Alpha  occ. eigenvalues --  -10.15700  -1.11795  -0.92325  -0.81709  -0.78987
 Alpha  occ. eigenvalues --   -0.74971  -0.69956  -0.67998  -0.67470  -0.60420
 Alpha  occ. eigenvalues --   -0.56633  -0.55782  -0.51680  -0.48895  -0.47275
 Alpha  occ. eigenvalues --   -0.46328  -0.44788  -0.44415  -0.42357  -0.42111
 Alpha  occ. eigenvalues --   -0.40384  -0.39593  -0.38817  -0.38059  -0.37954
 Alpha  occ. eigenvalues --   -0.36513  -0.36382  -0.34396  -0.34137  -0.32619
 Alpha  occ. eigenvalues --   -0.32447  -0.32178  -0.30506  -0.26635  -0.20475
 Alpha virt. eigenvalues --   -0.01628  -0.00772  -0.00011   0.00896   0.01584
 Alpha virt. eigenvalues --    0.02114   0.02358   0.02660   0.03295   0.03952
 Alpha virt. eigenvalues --    0.04349   0.04523   0.04956   0.05202   0.06030
 Alpha virt. eigenvalues --    0.06774   0.07030   0.08159   0.08503   0.08806
 Alpha virt. eigenvalues --    0.09010   0.10102   0.10216   0.10689   0.10995
 Alpha virt. eigenvalues --    0.11394   0.11847   0.12189   0.12261   0.12790
 Alpha virt. eigenvalues --    0.13004   0.13648   0.13886   0.14149   0.14180
 Alpha virt. eigenvalues --    0.14511   0.14774   0.15184   0.15407   0.15689
 Alpha virt. eigenvalues --    0.15976   0.16099   0.16414   0.16745   0.17299
 Alpha virt. eigenvalues --    0.17740   0.17913   0.18406   0.18897   0.18967
 Alpha virt. eigenvalues --    0.19656   0.19841   0.20196   0.20573   0.21114
 Alpha virt. eigenvalues --    0.21624   0.21813   0.21993   0.22322   0.22729
 Alpha virt. eigenvalues --    0.23647   0.24152   0.24674   0.25367   0.25485
 Alpha virt. eigenvalues --    0.25841   0.26154   0.27361   0.27969   0.28643
 Alpha virt. eigenvalues --    0.28752   0.29712   0.30497   0.31205   0.31768
 Alpha virt. eigenvalues --    0.32119   0.32619   0.33165   0.33919   0.34020
 Alpha virt. eigenvalues --    0.34995   0.35237   0.35768   0.36304   0.37051
 Alpha virt. eigenvalues --    0.38706   0.39028   0.39818   0.40901   0.43139
 Alpha virt. eigenvalues --    0.44228   0.45156   0.46227   0.46840   0.47652
 Alpha virt. eigenvalues --    0.48882   0.50716   0.51942   0.52927   0.53549
 Alpha virt. eigenvalues --    0.53770   0.55278   0.56033   0.56939   0.57812
 Alpha virt. eigenvalues --    0.58962   0.59387   0.61150   0.61925   0.62370
 Alpha virt. eigenvalues --    0.62977   0.63825   0.65305   0.65882   0.66128
 Alpha virt. eigenvalues --    0.66913   0.67757   0.68506   0.68648   0.69253
 Alpha virt. eigenvalues --    0.70216   0.71068   0.71304   0.72810   0.73436
 Alpha virt. eigenvalues --    0.73547   0.75285   0.75521   0.76748   0.77184
 Alpha virt. eigenvalues --    0.77410   0.78332   0.78884   0.79951   0.80624
 Alpha virt. eigenvalues --    0.82240   0.84595   0.88699   0.89954   0.91872
 Alpha virt. eigenvalues --    0.94182   0.96751   0.97860   0.98932   1.00894
 Alpha virt. eigenvalues --    1.03527   1.06577   1.08373   1.09240   1.09790
 Alpha virt. eigenvalues --    1.11064   1.13587   1.14747   1.16562   1.19526
 Alpha virt. eigenvalues --    1.20703   1.22033   1.22620   1.26116   1.29078
 Alpha virt. eigenvalues --    1.29843   1.31861   1.36553   1.37946   1.39500
 Alpha virt. eigenvalues --    1.42508   1.45324   1.46334   1.46842   1.47543
 Alpha virt. eigenvalues --    1.48612   1.49931   1.51184   1.51309   1.52547
 Alpha virt. eigenvalues --    1.53431   1.54269   1.55872   1.56526   1.58101
 Alpha virt. eigenvalues --    1.59203   1.59724   1.61144   1.61876   1.62167
 Alpha virt. eigenvalues --    1.62912   1.63412   1.64296   1.65675   1.67163
 Alpha virt. eigenvalues --    1.68214   1.69534   1.70055   1.70966   1.71391
 Alpha virt. eigenvalues --    1.72804   1.74606   1.76144   1.76996   1.77625
 Alpha virt. eigenvalues --    1.78180   1.78808   1.79875   1.81176   1.81948
 Alpha virt. eigenvalues --    1.85179   1.88360   1.89199   1.91162   1.93839
 Alpha virt. eigenvalues --    1.95666   1.95999   2.00579   2.00759   2.02089
 Alpha virt. eigenvalues --    2.04278   2.04988   2.06847   2.07655   2.10842
 Alpha virt. eigenvalues --    2.13807   2.14807   2.16213   2.17617   2.19168
 Alpha virt. eigenvalues --    2.21178   2.22697   2.25557   2.27413   2.30056
 Alpha virt. eigenvalues --    2.31364   2.32879   2.35580   2.36076   2.40758
 Alpha virt. eigenvalues --    2.41659   2.42549   2.47402   2.47692   2.49125
 Alpha virt. eigenvalues --    2.50894   2.51146   2.52024   2.52613   2.53812
 Alpha virt. eigenvalues --    2.54208   2.54730   2.55731   2.57631   2.58027
 Alpha virt. eigenvalues --    2.58448   2.60646   2.61364   2.61657   2.64388
 Alpha virt. eigenvalues --    2.65319   2.66542   2.66868   2.68590   2.70318
 Alpha virt. eigenvalues --    2.70706   2.73135   2.74114   2.74802   2.75846
 Alpha virt. eigenvalues --    2.76752   2.79188   2.81292   2.82497   2.84840
 Alpha virt. eigenvalues --    2.87460   2.89384   2.91754   2.92822   2.94825
 Alpha virt. eigenvalues --    2.96267   2.98076   3.01055   3.02049   3.02780
 Alpha virt. eigenvalues --    3.05241   3.08653   3.09918   3.13737   3.14583
 Alpha virt. eigenvalues --    3.14661   3.22945   3.24115   3.27174   3.34673
 Alpha virt. eigenvalues --    3.43658   3.51005   3.58779   3.72793   3.74995
 Alpha virt. eigenvalues --    3.77469   3.79111   3.80245   3.80827   3.81337
 Alpha virt. eigenvalues --    3.83540   3.85134   3.86200   3.89021   3.89564
 Alpha virt. eigenvalues --    4.01541   4.09133   4.12834   4.18138   4.25670
 Alpha virt. eigenvalues --    4.28271   4.31182   4.38938   4.91174   5.04032
 Alpha virt. eigenvalues --    5.14611   5.39839   5.52717   5.69343  23.74064
 Alpha virt. eigenvalues --   23.84871  23.86673  23.91148  23.92556  23.93424
 Alpha virt. eigenvalues --   23.97369  23.98254  23.98649  49.86652  49.93154
  Beta  occ. eigenvalues --  -19.17814 -19.17703 -10.23597 -10.17691 -10.16653
  Beta  occ. eigenvalues --  -10.16426 -10.16354 -10.16290 -10.15841 -10.15826
  Beta  occ. eigenvalues --  -10.15648  -1.11795  -0.92324  -0.81259  -0.78781
  Beta  occ. eigenvalues --   -0.74751  -0.69956  -0.67834  -0.65317  -0.60108
  Beta  occ. eigenvalues --   -0.56625  -0.55069  -0.51658  -0.48833  -0.47042
  Beta  occ. eigenvalues --   -0.46197  -0.44717  -0.44165  -0.42221  -0.41712
  Beta  occ. eigenvalues --   -0.40028  -0.39586  -0.38690  -0.38033  -0.37698
  Beta  occ. eigenvalues --   -0.36436  -0.36249  -0.34181  -0.33840  -0.32478
  Beta  occ. eigenvalues --   -0.32291  -0.31846  -0.30434  -0.26614
  Beta virt. eigenvalues --   -0.06156  -0.01621  -0.00750   0.00027   0.00911
  Beta virt. eigenvalues --    0.01666   0.02139   0.02448   0.02682   0.03313
  Beta virt. eigenvalues --    0.03963   0.04353   0.04644   0.04980   0.05259
  Beta virt. eigenvalues --    0.06131   0.06774   0.07040   0.08172   0.08570
  Beta virt. eigenvalues --    0.08845   0.09094   0.10109   0.10262   0.10718
  Beta virt. eigenvalues --    0.11029   0.11475   0.11906   0.12255   0.12345
  Beta virt. eigenvalues --    0.12839   0.13196   0.13754   0.14040   0.14200
  Beta virt. eigenvalues --    0.14245   0.14519   0.14802   0.15312   0.15624
  Beta virt. eigenvalues --    0.15757   0.16035   0.16214   0.16527   0.16843
  Beta virt. eigenvalues --    0.17357   0.17812   0.17951   0.18470   0.18935
  Beta virt. eigenvalues --    0.19089   0.19740   0.19912   0.20253   0.20625
  Beta virt. eigenvalues --    0.21241   0.21718   0.21866   0.22046   0.22400
  Beta virt. eigenvalues --    0.22982   0.23723   0.24208   0.24716   0.25493
  Beta virt. eigenvalues --    0.25596   0.25889   0.26259   0.27484   0.28124
  Beta virt. eigenvalues --    0.28715   0.29195   0.29834   0.30624   0.31485
  Beta virt. eigenvalues --    0.31978   0.32197   0.32736   0.33289   0.33953
  Beta virt. eigenvalues --    0.34079   0.35024   0.35319   0.35964   0.36365
  Beta virt. eigenvalues --    0.37111   0.38772   0.39153   0.39852   0.41087
  Beta virt. eigenvalues --    0.43236   0.44293   0.45185   0.46328   0.47065
  Beta virt. eigenvalues --    0.47694   0.48937   0.50786   0.52102   0.53044
  Beta virt. eigenvalues --    0.53739   0.54145   0.55502   0.56222   0.57042
  Beta virt. eigenvalues --    0.57963   0.59031   0.59648   0.61545   0.62219
  Beta virt. eigenvalues --    0.62771   0.63705   0.65334   0.65435   0.66056
  Beta virt. eigenvalues --    0.66386   0.67128   0.67955   0.68761   0.68795
  Beta virt. eigenvalues --    0.69550   0.70644   0.71420   0.71455   0.72856
  Beta virt. eigenvalues --    0.73515   0.73991   0.75383   0.75600   0.76855
  Beta virt. eigenvalues --    0.77298   0.77674   0.78362   0.79096   0.80132
  Beta virt. eigenvalues --    0.80936   0.82339   0.84816   0.89383   0.90169
  Beta virt. eigenvalues --    0.93031   0.94299   0.96858   0.97993   0.99283
  Beta virt. eigenvalues --    1.01040   1.03674   1.06630   1.08551   1.09731
  Beta virt. eigenvalues --    1.09964   1.11124   1.14099   1.15162   1.17555
  Beta virt. eigenvalues --    1.19609   1.20927   1.22132   1.22706   1.27086
  Beta virt. eigenvalues --    1.29227   1.30008   1.31998   1.36614   1.38050
  Beta virt. eigenvalues --    1.39649   1.42556   1.45375   1.46403   1.47032
  Beta virt. eigenvalues --    1.47571   1.49118   1.50020   1.51197   1.51482
  Beta virt. eigenvalues --    1.52756   1.53595   1.54375   1.55946   1.56638
  Beta virt. eigenvalues --    1.58249   1.59315   1.60429   1.61472   1.61943
  Beta virt. eigenvalues --    1.62216   1.63193   1.63552   1.65266   1.65732
  Beta virt. eigenvalues --    1.67547   1.68448   1.69599   1.70273   1.71170
  Beta virt. eigenvalues --    1.71541   1.73425   1.74764   1.76206   1.77097
  Beta virt. eigenvalues --    1.77814   1.78579   1.79208   1.80217   1.81258
  Beta virt. eigenvalues --    1.82366   1.85356   1.89034   1.89592   1.91904
  Beta virt. eigenvalues --    1.94052   1.95731   1.96026   2.00757   2.01783
  Beta virt. eigenvalues --    2.02989   2.04420   2.05391   2.07161   2.07902
  Beta virt. eigenvalues --    2.10999   2.13879   2.15261   2.16268   2.17693
  Beta virt. eigenvalues --    2.19470   2.21415   2.22827   2.25605   2.27710
  Beta virt. eigenvalues --    2.30393   2.31378   2.32978   2.35812   2.36174
  Beta virt. eigenvalues --    2.40852   2.41838   2.42630   2.47420   2.47786
  Beta virt. eigenvalues --    2.49178   2.50905   2.51183   2.52040   2.52734
  Beta virt. eigenvalues --    2.53869   2.54353   2.54952   2.55761   2.57757
  Beta virt. eigenvalues --    2.58123   2.58629   2.60718   2.61568   2.61859
  Beta virt. eigenvalues --    2.64622   2.65375   2.66658   2.67002   2.68782
  Beta virt. eigenvalues --    2.70454   2.70915   2.73328   2.74386   2.74905
  Beta virt. eigenvalues --    2.75906   2.76937   2.79302   2.81553   2.82922
  Beta virt. eigenvalues --    2.85060   2.87540   2.89702   2.92579   2.93584
  Beta virt. eigenvalues --    2.95929   2.97313   2.98195   3.01429   3.02749
  Beta virt. eigenvalues --    3.02943   3.05356   3.08681   3.09953   3.13751
  Beta virt. eigenvalues --    3.14703   3.14992   3.22952   3.24218   3.27227
  Beta virt. eigenvalues --    3.34675   3.43829   3.51223   3.58780   3.72796
  Beta virt. eigenvalues --    3.76811   3.77557   3.79143   3.80360   3.80852
  Beta virt. eigenvalues --    3.81393   3.83569   3.85215   3.86234   3.89058
  Beta virt. eigenvalues --    3.89566   4.01766   4.09169   4.12960   4.18567
  Beta virt. eigenvalues --    4.26341   4.28293   4.31348   4.38996   4.91174
  Beta virt. eigenvalues --    5.04032   5.14612   5.39839   5.52717   5.69343
  Beta virt. eigenvalues --   23.74067  23.84895  23.87595  23.91286  23.93062
  Beta virt. eigenvalues --   23.93465  23.97371  23.98314  23.98669  49.86652
  Beta virt. eigenvalues --   49.93154
          Condensed to atoms (all electrons):
              1          2          3          4          5          6
     1  C    6.888330   0.501403   0.381021   0.373989   1.033608  -0.028853
     2  H    0.501403   0.537666  -0.042979  -0.018772  -0.018116  -0.008184
     3  H    0.381021  -0.042979   0.566426  -0.031465   0.019984   0.012419
     4  H    0.373989  -0.018772  -0.031465   0.555280   0.008137  -0.005655
     5  C    1.033608  -0.018116   0.019984   0.008137  11.712280   0.431120
     6  H   -0.028853  -0.008184   0.012419  -0.005655   0.431120   0.573997
     7  H    0.009468   0.006916  -0.012795   0.005180   0.395252  -0.090148
     8  C   -0.558115  -0.018822  -0.000453   0.004800  -2.447326  -0.081972
     9  H    0.004228   0.000013  -0.001446   0.000646  -0.181708  -0.015369
    10  H    0.046197   0.003053  -0.000076   0.000117   0.069755  -0.004255
    11  C   -0.114402  -0.017050   0.006343  -0.003394  -0.308530   0.058743
    12  H   -0.002135  -0.000921   0.001290  -0.000386  -0.026510   0.010980
    13  H    0.010312   0.002124  -0.000819   0.000258   0.054968  -0.007616
    14  C   -0.002279   0.002316  -0.000881  -0.000141  -0.296295  -0.038748
    15  H   -0.000140  -0.000039   0.000079  -0.000088  -0.001714   0.001288
    16  C   -0.004742  -0.000369   0.000187  -0.000051  -0.132436   0.003836
    17  H   -0.000163  -0.000001  -0.000018   0.000004  -0.004630  -0.000818
    18  H   -0.000006   0.000010  -0.000004  -0.000001  -0.002589  -0.000203
    19  H   -0.000283  -0.000055   0.000011   0.000004  -0.006478   0.001376
    20  C   -0.657438  -0.027410   0.036820  -0.027764  -0.721803   0.067079
    21  H   -0.035248  -0.000646   0.002149   0.000123   0.015979   0.002367
    22  H   -0.010131  -0.000217   0.004331   0.001733   0.001024  -0.002309
    23  H   -0.030461  -0.004528  -0.000992   0.000810  -0.107067   0.000903
    24  C    0.005274   0.000165  -0.000256   0.000327   0.191459  -0.003488
    25  H    0.000242   0.000033  -0.000013  -0.000012  -0.006108  -0.000663
    26  H   -0.000473  -0.000014  -0.000013   0.000030  -0.001705   0.000036
    27  C   -1.302143  -0.051204  -0.103261  -0.006350  -3.086229  -0.060339
    28  O   -0.074088  -0.014210   0.020197  -0.011956  -0.032516   0.001788
    29  O   -0.083205  -0.001192   0.001690  -0.002358  -0.305187  -0.006296
    30  H    0.049963  -0.002927   0.000960  -0.004446  -0.028483   0.004385
              7          8          9         10         11         12
     1  C    0.009468  -0.558115   0.004228   0.046197  -0.114402  -0.002135
     2  H    0.006916  -0.018822   0.000013   0.003053  -0.017050  -0.000921
     3  H   -0.012795  -0.000453  -0.001446  -0.000076   0.006343   0.001290
     4  H    0.005180   0.004800   0.000646   0.000117  -0.003394  -0.000386
     5  C    0.395252  -2.447326  -0.181708   0.069755  -0.308530  -0.026510
     6  H   -0.090148  -0.081972  -0.015369  -0.004255   0.058743   0.010980
     7  H    0.651630  -0.040122   0.022087  -0.005899  -0.047603  -0.007058
     8  C   -0.040122   8.672234   0.472772   0.477191  -1.642156  -0.153144
     9  H    0.022087   0.472772   0.594039  -0.089350   0.019920   0.016105
    10  H   -0.005899   0.477191  -0.089350   0.683259  -0.271927  -0.029302
    11  C   -0.047603  -1.642156   0.019920  -0.271927   9.238646   0.579139
    12  H   -0.007058  -0.153144   0.016105  -0.029302   0.579139   0.625377
    13  H    0.004642  -0.016217  -0.026386   0.031929   0.252902  -0.092259
    14  C    0.004993   0.412831   0.022311  -0.015229  -1.394519  -0.010488
    15  H   -0.001712  -0.055051   0.007847   0.000384  -0.046205   0.023107
    16  C   -0.004490  -0.321417   0.004487  -0.014501   0.676349   0.017659
    17  H    0.000988  -0.012969   0.001577   0.000049  -0.055980   0.002292
    18  H    0.000041   0.006806   0.000399   0.000311   0.022312  -0.002905
    19  H   -0.000424  -0.004172   0.000135  -0.000330   0.004777   0.005296
    20  C   -0.091145   0.697710  -0.038082  -0.059757   0.116491   0.003911
    21  H   -0.004751   0.020885   0.002043  -0.008173   0.003209   0.000500
    22  H   -0.002516   0.009697  -0.000698   0.000675   0.003369   0.000034
    23  H    0.005264   0.070057  -0.000622  -0.001783  -0.009088  -0.000097
    24  C    0.004272   0.237829  -0.028129   0.040443  -0.242521  -0.088532
    25  H    0.000639   0.012339   0.001957  -0.002148  -0.041974   0.009415
    26  H    0.000047   0.003417  -0.000945  -0.005481  -0.009126  -0.001343
    27  C    0.053695   0.239869   0.031514   0.024821  -0.144847  -0.018364
    28  O   -0.000945   0.038431   0.003358   0.002997  -0.016522   0.000785
    29  O   -0.000540   0.204142   0.008538  -0.004288   0.001422  -0.001282
    30  H   -0.003124  -0.018686   0.000045  -0.000618   0.007154   0.000477
             13         14         15         16         17         18
     1  C    0.010312  -0.002279  -0.000140  -0.004742  -0.000163  -0.000006
     2  H    0.002124   0.002316  -0.000039  -0.000369  -0.000001   0.000010
     3  H   -0.000819  -0.000881   0.000079   0.000187  -0.000018  -0.000004
     4  H    0.000258  -0.000141  -0.000088  -0.000051   0.000004  -0.000001
     5  C    0.054968  -0.296295  -0.001714  -0.132436  -0.004630  -0.002589
     6  H   -0.007616  -0.038748   0.001288   0.003836  -0.000818  -0.000203
     7  H    0.004642   0.004993  -0.001712  -0.004490   0.000988   0.000041
     8  C   -0.016217   0.412831  -0.055051  -0.321417  -0.012969   0.006806
     9  H   -0.026386   0.022311   0.007847   0.004487   0.001577   0.000399
    10  H    0.031929  -0.015229   0.000384  -0.014501   0.000049   0.000311
    11  C    0.252902  -1.394519  -0.046205   0.676349  -0.055980   0.022312
    12  H   -0.092259  -0.010488   0.023107   0.017659   0.002292  -0.002905
    13  H    0.678192  -0.006755  -0.015003  -0.013256   0.004504   0.000204
    14  C   -0.006755   6.888759   0.512347  -0.300197   0.056392  -0.059208
    15  H   -0.015003   0.512347   0.597517  -0.036426   0.014638  -0.009280
    16  C   -0.013256  -0.300197  -0.036426   5.776940   0.398490   0.380849
    17  H    0.004504   0.056392   0.014638   0.398490   0.564209  -0.026737
    18  H    0.000204  -0.059208  -0.009280   0.380849  -0.026737   0.540375
    19  H   -0.003720  -0.084525  -0.017052   0.431790  -0.047997  -0.019623
    20  C   -0.005484  -0.006222   0.001352   0.005512  -0.000079   0.000016
    21  H   -0.000395   0.001115  -0.000097   0.000248  -0.000020   0.000025
    22  H    0.000024  -0.000749  -0.000013   0.000241   0.000013  -0.000009
    23  H   -0.000302  -0.000574   0.000056  -0.000152  -0.000047  -0.000031
    24  C    0.050072  -0.221843  -0.148464  -0.140617  -0.040111   0.004850
    25  H   -0.002632   0.038604   0.012079  -0.014435   0.011275   0.000756
    26  H    0.000573  -0.028080  -0.008586   0.016161  -0.002407   0.000304
    27  C   -0.012932  -0.093608   0.004083   0.006660   0.002153  -0.000780
    28  O   -0.000243   0.000438  -0.000218  -0.000322  -0.000051   0.000000
    29  O    0.002934   0.003260  -0.000981   0.000851   0.000020   0.000015
    30  H   -0.000989  -0.000521   0.000121   0.000063  -0.000002   0.000000
             19         20         21         22         23         24
     1  C   -0.000283  -0.657438  -0.035248  -0.010131  -0.030461   0.005274
     2  H   -0.000055  -0.027410  -0.000646  -0.000217  -0.004528   0.000165
     3  H    0.000011   0.036820   0.002149   0.004331  -0.000992  -0.000256
     4  H    0.000004  -0.027764   0.000123   0.001733   0.000810   0.000327
     5  C   -0.006478  -0.721803   0.015979   0.001024  -0.107067   0.191459
     6  H    0.001376   0.067079   0.002367  -0.002309   0.000903  -0.003488
     7  H   -0.000424  -0.091145  -0.004751  -0.002516   0.005264   0.004272
     8  C   -0.004172   0.697710   0.020885   0.009697   0.070057   0.237829
     9  H    0.000135  -0.038082   0.002043  -0.000698  -0.000622  -0.028129
    10  H   -0.000330  -0.059757  -0.008173   0.000675  -0.001783   0.040443
    11  C    0.004777   0.116491   0.003209   0.003369  -0.009088  -0.242521
    12  H    0.005296   0.003911   0.000500   0.000034  -0.000097  -0.088532
    13  H   -0.003720  -0.005484  -0.000395   0.000024  -0.000302   0.050072
    14  C   -0.084525  -0.006222   0.001115  -0.000749  -0.000574  -0.221843
    15  H   -0.017052   0.001352  -0.000097  -0.000013   0.000056  -0.148464
    16  C    0.431790   0.005512   0.000248   0.000241  -0.000152  -0.140617
    17  H   -0.047997  -0.000079  -0.000020   0.000013  -0.000047  -0.040111
    18  H   -0.019623   0.000016   0.000025  -0.000009  -0.000031   0.004850
    19  H    0.588880  -0.000129   0.000026  -0.000009   0.000087   0.026384
    20  C   -0.000129   6.423265   0.484198   0.387826   0.430886   0.008634
    21  H    0.000026   0.484198   0.530979  -0.028262  -0.018472   0.000338
    22  H   -0.000009   0.387826  -0.028262   0.543637  -0.024488  -0.000423
    23  H    0.000087   0.430886  -0.018472  -0.024488   0.528221  -0.000795
    24  C    0.026384   0.008634   0.000338  -0.000423  -0.000795   6.129111
    25  H   -0.002175  -0.000164   0.000110  -0.000057   0.000204   0.343865
    26  H   -0.000813   0.001464  -0.000072   0.000049  -0.000564   0.418113
    27  C   -0.000860  -0.337714  -0.146584  -0.046058  -0.009739  -0.028374
    28  O   -0.000008  -0.062499   0.021862  -0.006276  -0.006203   0.001881
    29  O   -0.000020   0.109636   0.001775   0.000309  -0.000720   0.000477
    30  H    0.000007  -0.011473   0.000138   0.000646  -0.000086  -0.000199
             25         26         27         28         29         30
     1  C    0.000242  -0.000473  -1.302143  -0.074088  -0.083205   0.049963
     2  H    0.000033  -0.000014  -0.051204  -0.014210  -0.001192  -0.002927
     3  H   -0.000013  -0.000013  -0.103261   0.020197   0.001690   0.000960
     4  H   -0.000012   0.000030  -0.006350  -0.011956  -0.002358  -0.004446
     5  C   -0.006108  -0.001705  -3.086229  -0.032516  -0.305187  -0.028483
     6  H   -0.000663   0.000036  -0.060339   0.001788  -0.006296   0.004385
     7  H    0.000639   0.000047   0.053695  -0.000945  -0.000540  -0.003124
     8  C    0.012339   0.003417   0.239869   0.038431   0.204142  -0.018686
     9  H    0.001957  -0.000945   0.031514   0.003358   0.008538   0.000045
    10  H   -0.002148  -0.005481   0.024821   0.002997  -0.004288  -0.000618
    11  C   -0.041974  -0.009126  -0.144847  -0.016522   0.001422   0.007154
    12  H    0.009415  -0.001343  -0.018364   0.000785  -0.001282   0.000477
    13  H   -0.002632   0.000573  -0.012932  -0.000243   0.002934  -0.000989
    14  C    0.038604  -0.028080  -0.093608   0.000438   0.003260  -0.000521
    15  H    0.012079  -0.008586   0.004083  -0.000218  -0.000981   0.000121
    16  C   -0.014435   0.016161   0.006660  -0.000322   0.000851   0.000063
    17  H    0.011275  -0.002407   0.002153  -0.000051   0.000020  -0.000002
    18  H    0.000756   0.000304  -0.000780   0.000000   0.000015   0.000000
    19  H   -0.002175  -0.000813  -0.000860  -0.000008  -0.000020   0.000007
    20  C   -0.000164   0.001464  -0.337714  -0.062499   0.109636  -0.011473
    21  H    0.000110  -0.000072  -0.146584   0.021862   0.001775   0.000138
    22  H   -0.000057   0.000049  -0.046058  -0.006276   0.000309   0.000646
    23  H    0.000204  -0.000564  -0.009739  -0.006203  -0.000720  -0.000086
    24  C    0.343865   0.418113  -0.028374   0.001881   0.000477  -0.000199
    25  H    0.549211  -0.032790  -0.001466   0.000128  -0.000038  -0.000008
    26  H   -0.032790   0.526703   0.001496  -0.000295   0.000102   0.000015
    27  C   -0.001466   0.001496  10.876238   0.085784   0.082178   0.004649
    28  O    0.000128  -0.000295   0.085784   8.081521  -0.017236  -0.019259
    29  O   -0.000038   0.000102   0.082178  -0.017236   7.989760   0.201160
    30  H   -0.000008   0.000015   0.004649  -0.019259   0.201160   0.564799
 Mulliken atomic charges:
              1
     1  C   -0.399729
     2  H    0.173959
     3  H    0.141566
     4  H    0.161404
     5  C   -0.218133
     6  H    0.184597
     7  H    0.148159
     8  C   -0.210386
     9  H    0.168713
    10  H    0.131939
    11  C   -0.624931
    12  H    0.138361
    13  H    0.111369
    14  C    0.617496
    15  H    0.166169
    16  C   -0.736909
    17  H    0.135426
    18  H    0.164103
    19  H    0.129901
    20  C   -0.727637
    21  H    0.154652
    22  H    0.168605
    23  H    0.180323
    24  C   -0.519742
    25  H    0.123826
    26  H    0.124196
    27  C    0.037711
    28  O    0.003675
    29  O   -0.184922
    30  H    0.256239
 Sum of Mulliken atomic charges =   0.00000
 Mulliken charges with hydrogens summed into heavy atoms:
              1
     1  C    0.077200
     5  C    0.114623
     8  C    0.090266
    11  C   -0.375200
    14  C    0.783665
    16  C   -0.307478
    20  C   -0.224057
    24  C   -0.271720
    27  C    0.037711
    28  O    0.003675
    29  O    0.071316
 Sum of Mulliken charges with hydrogens summed into heavy atoms =   0.00000
          Atomic-Atomic Spin Densities.
              1          2          3          4          5          6
     1  C    0.009085  -0.000509  -0.000017   0.001889   0.021670  -0.001471
     2  H   -0.000509  -0.000010   0.000023  -0.000013  -0.001201  -0.000046
     3  H   -0.000017   0.000023  -0.000010  -0.000010   0.000278  -0.000010
     4  H    0.001889  -0.000013  -0.000010   0.000281   0.002341  -0.000114
     5  C    0.021670  -0.001201   0.000278   0.002341   0.202822  -0.006776
     6  H   -0.001471  -0.000046  -0.000010  -0.000114  -0.006776   0.002211
     7  H   -0.000030   0.000007  -0.000031  -0.000014  -0.001576  -0.000238
     8  C   -0.019339   0.000580   0.000137  -0.001892  -0.101164   0.004995
     9  H    0.000258   0.000017  -0.000009   0.000020   0.008213  -0.000486
    10  H   -0.000595   0.000057  -0.000010  -0.000119  -0.006591   0.000321
    11  C   -0.010290   0.000211  -0.000181  -0.000710  -0.157949   0.005364
    12  H    0.000747   0.000017   0.000004   0.000028   0.015380  -0.000681
    13  H    0.001523   0.000000   0.000003   0.000059   0.030924  -0.001330
    14  C   -0.000880   0.000082   0.000064  -0.000080  -0.021978  -0.001786
    15  H    0.000465   0.000009   0.000000   0.000015   0.016245  -0.000596
    16  C   -0.000924   0.000015  -0.000009  -0.000040  -0.033335   0.000738
    17  H   -0.000006   0.000001  -0.000001   0.000000   0.000484  -0.000021
    18  H    0.000000   0.000000   0.000001   0.000000  -0.000292  -0.000002
    19  H   -0.000135  -0.000002   0.000000  -0.000006  -0.006526   0.000325
    20  C    0.000929  -0.000075   0.000104   0.000171   0.005821  -0.000400
    21  H   -0.000371   0.000014   0.000012  -0.000060  -0.000454   0.000024
    22  H    0.000360  -0.000009  -0.000013   0.000070   0.000186  -0.000025
    23  H   -0.000065  -0.000023   0.000007   0.000026  -0.000915   0.000083
    24  C    0.001794  -0.000072   0.000018   0.000124   0.080358   0.000209
    25  H    0.000039   0.000003   0.000000   0.000000  -0.000238  -0.000162
    26  H    0.000030   0.000001  -0.000001   0.000000   0.001089  -0.000005
    27  C   -0.004156   0.000953  -0.000340  -0.002109  -0.008509   0.000035
    28  O    0.001135  -0.000012  -0.000017   0.000172   0.003195  -0.000217
    29  O    0.000231  -0.000015   0.000008   0.000049   0.001857  -0.000040
    30  H   -0.000061   0.000015  -0.000003  -0.000023   0.000014  -0.000009
              7          8          9         10         11         12
     1  C   -0.000030  -0.019339   0.000258  -0.000595  -0.010290   0.000747
     2  H    0.000007   0.000580   0.000017   0.000057   0.000211   0.000017
     3  H   -0.000031   0.000137  -0.000009  -0.000010  -0.000181   0.000004
     4  H   -0.000014  -0.001892   0.000020  -0.000119  -0.000710   0.000028
     5  C   -0.001576  -0.101164   0.008213  -0.006591  -0.157949   0.015380
     6  H   -0.000238   0.004995  -0.000486   0.000321   0.005364  -0.000681
     7  H    0.000647  -0.002769   0.000036  -0.000177   0.004620   0.000086
     8  C   -0.002769   0.124875  -0.002756   0.010113  -0.059513   0.004291
     9  H    0.000036  -0.002756   0.000053  -0.000040  -0.006845   0.000026
    10  H   -0.000177   0.010113  -0.000040  -0.003566  -0.000480  -0.000220
    11  C    0.004620  -0.059513  -0.006845  -0.000480   0.514166  -0.028660
    12  H    0.000086   0.004291   0.000026  -0.000220  -0.028660  -0.002849
    13  H   -0.000268   0.008332   0.000842  -0.002320  -0.061427   0.003741
    14  C   -0.001092   0.035572   0.000741   0.006425  -0.139648   0.007745
    15  H    0.000070   0.016405  -0.000295  -0.000997  -0.049775   0.000793
    16  C    0.000641  -0.013176  -0.000566   0.000245   0.106038  -0.009666
    17  H    0.000038   0.000811  -0.000064  -0.000179   0.000248  -0.000017
    18  H   -0.000020  -0.000792   0.000058   0.000200   0.000437   0.000122
    19  H    0.000028  -0.006899  -0.000135   0.000434   0.024484  -0.001328
    20  C    0.000022  -0.004812   0.000490  -0.000875  -0.003379   0.000325
    21  H   -0.000084   0.001177   0.000016   0.000089   0.000063  -0.000018
    22  H    0.000086  -0.000988  -0.000005  -0.000117   0.000173   0.000000
    23  H    0.000007   0.000520  -0.000170   0.000275   0.000519  -0.000054
    24  C   -0.001600   0.018810   0.002573  -0.007231  -0.156690   0.014102
    25  H    0.000126   0.002357  -0.000367   0.000390  -0.009500  -0.000745
    26  H    0.000044   0.009717   0.000845   0.000097  -0.010972  -0.000294
    27  C    0.001416   0.010448  -0.001410  -0.000549   0.008818  -0.001723
    28  O    0.000018  -0.003005   0.000109  -0.000179  -0.000806   0.000037
    29  O   -0.000064  -0.000367  -0.000019  -0.000056  -0.000905   0.000013
    30  H    0.000004   0.000150  -0.000017   0.000000   0.000012  -0.000001
             13         14         15         16         17         18
     1  C    0.001523  -0.000880   0.000465  -0.000924  -0.000006   0.000000
     2  H    0.000000   0.000082   0.000009   0.000015   0.000001   0.000000
     3  H    0.000003   0.000064   0.000000  -0.000009  -0.000001   0.000001
     4  H    0.000059  -0.000080   0.000015  -0.000040   0.000000   0.000000
     5  C    0.030924  -0.021978   0.016245  -0.033335   0.000484  -0.000292
     6  H   -0.001330  -0.001786  -0.000596   0.000738  -0.000021  -0.000002
     7  H   -0.000268  -0.001092   0.000070   0.000641   0.000038  -0.000020
     8  C    0.008332   0.035572   0.016405  -0.013176   0.000811  -0.000792
     9  H    0.000842   0.000741  -0.000295  -0.000566  -0.000064   0.000058
    10  H   -0.002320   0.006425  -0.000997   0.000245  -0.000179   0.000200
    11  C   -0.061427  -0.139648  -0.049775   0.106038   0.000248   0.000437
    12  H    0.003741   0.007745   0.000793  -0.009666  -0.000017   0.000122
[...]
 -0.01020815,0.01165801,-0.00146490,0.00078838,-0.00111991,-0.00014561,
 0.00058663,-0.00034949,0.03206592,-0.20329924,0.02242579,0.00558988,-0
 .01945997,0.00415073,-0.00432389,-0.02269715,0.01082170,0.00125795,0.0
 0160753,-0.00126832,0.00169419,0.00086996,-0.00048438,-0.00107331,-0.0
 0053522,0.00080381,-0.00005671,0.00002260,0.00002644,0.00001768,0.0000
 1039,0.00000338,-0.00004114,-0.00001940,0.00001299,0.00001668,0.000013
 29,-0.00003838,-0.10267615,0.49882136,0.00000406,0.00003640,0.00000143
 ,0.00000107,0.00000745,-0.00000596,0.00000508,-0.00000456,0.00000144,-
 0.00000895,-0.00000681,0.00000756,0.00029541,0.00041183,-0.00006401,-0
 .00002592,-0.00001711,-0.00008180,0.00000332,-0.00004749,-0.00003050,0
 .00011246,-0.00104781,0.00075777,-0.00015210,0.00011051,0.00006588,-0.
 00003540,0.00045571,0.00000831,-0.00694659,0.01891361,-0.00652986,0.00
 049159,0.00114860,0.00107653,-0.00315265,0.00170751,-0.00122209,0.0096
 4160,0.02751448,-0.08592473,0.00580901,-0.02689270,0.00625618,-0.00131
 992,0.02013271,-0.00606314,-0.00097403,0.00095151,0.00063493,-0.000223
 52,-0.00047540,0.00067909,0.00276218,0.00267801,-0.00110464,0.00001000
 ,-0.00000187,0.00009232,0.00001533,0.00001081,0.00000375,-0.00003785,-
 0.00000050,-0.00000750,0.00002603,0.00000076,-0.00005414,-0.18827130,-
 0.04437076,0.54641789,0.00000266,-0.00000361,-0.00000330,-0.00000030,-
 0.00000420,0.00000249,-0.00000551,-0.00000050,-0.00000656,0.00000717,0
 .00000117,-0.00000252,-0.00002490,-0.00004045,0.00003488,0.00002675,-0
 .00000536,0.00001318,-0.00002866,0.00000724,-0.00004288,-0.00013860,0.
 00012543,-0.00018826,0.00011664,-0.00014328,-0.00003302,-0.00018571,-0
 .00004584,0.00019825,0.00092324,-0.00053593,0.00055669,-0.00017228,-0.
 00000962,-0.00055930,0.00008263,-0.00016108,-0.00017391,-0.00149641,0.
 00223288,0.00685455,0.00096414,0.00065786,-0.00112229,0.00103964,-0.00
 045743,-0.00096439,0.00036193,0.00015482,-0.00016127,-0.00013787,-0.00
 008220,-0.00012705,-0.00019794,0.00010541,-0.00010057,0.00000974,0.000
 00481,-0.00000083,-0.00002207,-0.00001176,-0.00001886,0.00001627,-0.00
 000611,-0.00000371,-0.00000906,0.00000802,0.00002750,-0.06804994,0.077
 55763,0.09548147,0.06655264,0.00002081,0.00000960,-0.00001630,-0.00000
 519,0.00000046,-0.00000376,-0.00000182,0.00000145,0.00000208,0.0000150
 8,-0.00000153,0.00000191,0.00006540,0.00006067,-0.00006672,-0.00001718
 ,0.00001464,-0.00001369,0.00001991,0.00000748,0.00002283,-0.00003161,-
 0.00008028,0.00014684,-0.00011454,-0.00002676,0.00007003,0.00005402,0.
 00004687,0.00000126,-0.00047395,-0.00018841,-0.00085006,0.00031784,0.0
 0030449,0.00067616,0.00009293,0.00014302,0.00038252,0.00937901,-0.0110
 0801,-0.02128592,0.00161797,-0.00506085,0.00159490,0.00108918,0.001700
 52,-0.00150402,-0.00046115,-0.00004288,0.00098576,-0.00028612,-0.00017
 054,-0.00003147,-0.00014676,0.00040489,0.00026327,0.00001688,-0.000003
 71,0.00000084,-0.00000187,0.00000132,0.00000065,0.00000754,0.00000597,
 -0.00000416,-0.00000095,-0.00000675,0.00000543,0.07855044,-0.14676883,
 -0.10922622,-0.08433998,0.15179612,0.00001119,-0.00000188,-0.00000668,
 -0.00000165,-0.00000177,-0.00000054,-0.00000182,0.00000173,0.00000306,
 0.00000918,0.00000011,-0.00000125,-0.00004979,-0.00005869,0.00000659,0
 .00002879,-0.00000414,0.00002341,0.00001642,0.00001018,0.00002674,0.00
 003554,0.00001371,-0.00000828,-0.00002752,0.00004422,0.00000598,-0.000
 07937,-0.00008692,-0.00005716,0.00044168,-0.00003450,0.00057288,0.0001
 6447,-0.00019071,-0.00008932,0.00010150,-0.00014357,-0.00012032,-0.003
 74016,0.00489629,0.00593871,-0.00002638,0.00147981,0.00081073,-0.00005
 590,0.00024523,0.00111163,-0.00015479,-0.00034685,0.00000669,-0.000057
 62,-0.00018041,-0.00013405,-0.00021116,-0.00005936,0.00005023,-0.00001
 202,0.00000305,-0.00003211,0.00000354,-0.00000097,0.00001267,0.0000118
 0,0.00000218,0.00000254,-0.00000705,-0.00001430,0.00000623,0.09814289,
 -0.10946837,-0.18665807,-0.10364774,0.11911360,0.18971174,0.00001633,-
 0.00000796,-0.00001205,-0.00000046,-0.00000641,0.00000288,-0.00000573,
 0.00000214,-0.00000211,0.00001532,0.00000139,-0.00000206,-0.00005437,-
 0.00004407,0.00001924,0.00006103,-0.00001553,0.00003255,0.00001652,0.0
 0001200,0.00001642,-0.00018431,-0.00026998,-0.00009188,-0.00001960,0.0
 0003523,0.00004015,-0.00066611,0.00024268,-0.00024863,-0.00121241,-0.0
 0004049,-0.00018675,0.00000109,0.00011924,0.00004057,-0.00004524,0.000
 20664,0.00009576,0.00725359,0.00291565,-0.00677529,-0.00009250,-0.0003
 6220,0.00026541,-0.00156907,0.00034583,0.00050017,0.00009448,0.0000619
 6,-0.00030771,-0.00010712,-0.00009983,0.00008487,0.00035734,-0.0001636
 6,-0.00025095,-0.00001824,0.00000611,-0.00004670,-0.00001145,-0.000008
 70,-0.00000040,0.00002883,-0.00000339,0.00000548,-0.00002046,-0.000008
 93,0.00003212,-0.03905217,-0.02199627,0.08641843,0.00039090,-0.0053727
 0,0.00911346,0.03484200,0.00001698,0.00000398,-0.00002034,-0.00000447,
 0.00000196,0.00000013,-0.00000282,-0.00000101,-0.00000148,0.00001264,-
 0.00000056,0.00000286,0.00013954,0.00011647,-0.00017606,-0.00008654,0.
 00001873,-0.00003218,-0.00002653,-0.00000403,-0.00001718,-0.00003680,-
 0.00006081,0.00023490,0.00007749,-0.00011074,-0.00005864,0.00016035,0.
 00030028,-0.00002673,-0.00086893,-0.00194400,0.00010056,0.00004729,0.0
 0005238,0.00010410,0.00060615,-0.00012363,0.00039536,-0.00826058,-0.00
 406883,0.02086460,-0.00039697,0.00134505,-0.00035367,0.00206532,-0.003
 70410,0.00074585,-0.00003338,0.00007158,0.00023643,-0.00018186,0.00003
 448,-0.00012511,-0.00104801,-0.00076233,0.00064779,0.00002751,-0.00001
 347,0.00000303,-0.00000649,-0.00000122,-0.00000874,0.00000481,0.000007
 66,-0.00000456,0.00000135,0.00001328,0.00000873,-0.02167684,-0.1003268
 1,0.10810094,0.00499364,0.00887216,-0.01521254,0.02446370,0.10027931,0
 .00000732,-0.00001608,-0.00000681,0.00000253,-0.00000694,0.00000378,-0
 .00000291,0.00000368,-0.00000321,0.00000600,0.00000320,-0.00000073,-0.
 00015267,-0.00025478,0.00002437,0.00008916,-0.00004878,0.00007721,0.00
 001606,0.00002604,0.00001351,0.00024855,0.00062470,-0.00003645,-0.0000
 3494,-0.00000652,-0.00000761,-0.00024995,-0.00040885,-0.00002851,-0.00
 028514,-0.00000136,-0.00011064,0.00008798,0.00002679,0.00021543,-0.000
 06792,0.00002798,0.00016955,0.00401069,-0.00303912,-0.00005810,-0.0006
 9299,0.00045035,0.00112912,-0.00137228,0.00071211,0.00042140,-0.000157
 52,-0.00019352,0.00025185,-0.00000935,-0.00005209,-0.00000383,0.000277
 57,0.00002617,0.00003695,-0.00002307,-0.00000252,-0.00004193,-0.000014
 01,-0.00000432,-0.00001173,0.00002216,-0.00000664,0.00000851,-0.000018
 97,0.00000778,0.00003963,0.08310558,0.10787515,-0.26829966,0.00400179,
 0.00969687,-0.01120188,-0.08876660,-0.11544677,0.27741228,-0.13849719,
 0.01878800,-0.04014401,0.00079283,-0.00033622,0.00145587,0.00364403,-0
 .00073571,0.00540989,-0.02428989,0.00562976,-0.01965093,-0.14363139,-0
 .02257412,0.02469279,-0.00139741,-0.00068588,0.00155090,-0.00094934,-0
 .00158690,-0.00014060,-0.02731377,-0.00477220,0.00739597,0.00075372,0.
 00008791,0.00108970,0.00108201,-0.00043260,0.00056480,-0.00155163,0.00
 108950,-0.00319498,0.00004586,0.00022237,0.00016261,0.00010628,-0.0001
 8769,-0.00002968,-0.00029552,-0.00053101,0.00081422,0.00006216,-0.0000
 3366,0.00001301,-0.00019544,-0.00001978,-0.00013185,-0.00000707,0.0000
 1565,-0.00002341,0.00004304,-0.00003065,0.00006999,-0.00002413,0.00000
 076,-0.00003304,-0.07901095,-0.00413198,0.00020549,-0.00162139,0.00521
 079,-0.00222846,-0.00277990,-0.02995188,0.01070141,0.00129189,0.023021
 18,-0.00719822,0.00033467,0.00016539,0.00012277,-0.00005535,-0.0000302
 2,-0.00004238,-0.00007745,0.00000064,-0.00004923,0.47931570,0.01829906
 ,-0.08429205,0.01435065,0.02555497,-0.00672565,0.02144755,-0.01524998,
 0.00246278,-0.01258329,-0.00419546,-0.00056465,-0.00359709,-0.01752450
 ,-0.08420447,0.01110433,-0.02995856,-0.00858607,0.01631134,0.01730461,
 0.00246941,-0.00968067,0.00285373,0.00054246,-0.00337073,-0.00142619,0
 .00005324,-0.00056114,0.00112770,-0.00073486,-0.00008576,0.00054358,-0
 .00108751,0.00032965,-0.00002970,0.00001879,0.00012471,0.00011341,0.00
 037825,0.00001198,0.00021809,0.00067687,0.00003093,-0.00000864,-0.0000
 4666,-0.00002347,0.00011951,-0.00007107,0.00009518,0.00000352,-0.00000
 399,-0.00002390,0.00005894,0.00003314,-0.00001849,-0.00001411,-0.00001
 102,0.00002273,-0.00790212,-0.15507473,0.03969620,-0.00145368,-0.01722
 948,0.00752798,-0.00048397,-0.00614832,0.00131943,0.00085847,-0.004314
 76,0.00077772,-0.00009765,0.00008243,-0.00013195,0.00003205,-0.0000224
 2,-0.00000926,0.00001380,0.00001105,0.00004128,0.00672048,0.47541967,-
 0.04572975,0.01990317,-0.10336115,-0.00543705,0.00200574,-0.00614382,-
 0.01636386,0.00566047,-0.01515542,0.01337065,-0.00384427,0.00820135,0.
 02310161,0.01602134,-0.08545269,0.00830052,0.00278161,-0.00604170,0.02
 073949,0.00612598,-0.01320656,-0.01344784,-0.00682116,0.01545924,-0.00
 152869,-0.00130556,-0.00144287,-0.00020589,0.00071434,0.00002735,-0.00
 332158,0.00121383,-0.00526691,0.00031004,0.00022379,-0.00009254,0.0001
 7192,-0.00010973,-0.00005637,-0.00156433,-0.00035531,0.00125557,0.0000
 7010,-0.00007629,-0.00006564,-0.00050328,0.00016065,-0.00053984,0.0000
 2561,0.00000990,0.00002272,-0.00029736,-0.00011744,0.00008528,0.000047
 09,-0.00003285,0.00003710,0.00226635,0.03533176,-0.09054801,-0.0017962
 8,-0.02579372,0.00775380,0.00058335,0.01257086,-0.00627319,0.00236696,
 0.02259530,-0.00897415,-0.00008270,-0.00041106,0.00003446,0.00002471,0
 .00004442,0.00000664,0.00003420,0.00008065,0.00001178,0.00587677,-0.06
 344008,0.45789334,0.00564968,-0.01398106,-0.02289500,0.00074206,0.0004
 4908,0.00050587,-0.00319029,0.00130837,-0.00498106,0.00334172,-0.00060
 918,0.00118269,-0.00309526,0.01895670,0.03031733,0.00118448,-0.0004181
 3,-0.00073860,-0.00607845,-0.00151898,0.00393093,0.00033654,-0.0003614
 1,-0.00056163,-0.00049015,0.00087881,0.00164847,-0.00038458,0.00049207
 ,0.00021492,0.00040606,0.00081871,0.00093382,-0.00034366,-0.00021782,0
 .00003365,0.00000272,-0.00008526,0.00000596,0.00019203,-0.00005409,-0.
 00000086,-0.00000109,0.00002464,-0.00002704,-0.00002663,0.00005681,-0.
 00006479,0.00001164,-0.00000109,0.00002509,-0.00009173,-0.00001281,-0.
 00002082,0.00002761,-0.00000500,0.00001496,0.00188362,0.00001889,-0.00
 164469,-0.00068084,-0.00061646,-0.00003581,0.00029147,-0.00026063,-0.0
 0051233,-0.00001955,0.00044358,0.00037451,-0.00015916,-0.00012951,-0.0
 0004735,0.00002887,0.00003321,0.00003290,0.00005476,0.00001237,0.00001
 877,-0.06184099,-0.00137933,0.01813238,0.09198571,-0.00406888,-0.00031
 907,-0.00658212,0.00020719,-0.00101358,0.00087291,-0.00024204,-0.00014
 910,0.00032421,0.00014258,0.00028155,0.00037331,0.00631589,-0.00042852
 ,-0.00508776,-0.00025527,-0.00090845,0.00069009,0.00014931,0.00000783,
 0.00047695,-0.00081698,0.00038945,-0.00019844,0.00033008,0.00033841,-0
 .00000722,0.00007397,-0.00005928,-0.00003887,-0.00002673,0.00005249,0.
 00008763,-0.00002859,0.00002229,0.00006487,-0.00001317,-0.00000862,-0.
 00000161,0.00002206,-0.00000905,0.00001945,0.00000719,0.00000636,0.000
 00827,0.00000201,-0.00001104,0.00000632,-0.00000212,0.00000196,-0.0000
 0085,0.00000850,0.00000080,-0.00000118,-0.00000122,0.00000402,-0.00000
 422,0.00307706,-0.04160722,-0.02434517,-0.00017728,-0.00433814,0.00059
 530,0.00059972,0.00099573,-0.00126822,0.00001820,0.00080093,-0.0015610
 0,0.00002334,0.00002138,-0.00000203,-0.00000850,-0.00000363,0.00000243
 ,-0.00000311,-0.00000561,-0.00000245,0.00684433,-0.06642122,-0.0332791
 0,-0.02110673,0.34041120,-0.00012294,-0.02601667,-0.04084683,0.0015371
 8,0.00041559,0.00086985,-0.00659851,0.00285454,-0.00503607,0.00071375,
 -0.00018940,0.00235691,0.01079675,-0.02175467,-0.03101850,-0.00143999,
 0.00020098,0.00070588,0.00615111,0.00239766,-0.00207310,-0.00235681,-0
 .00005867,-0.00064945,0.00103274,0.00048706,0.00136697,0.00016985,-0.0
 0008159,0.00007478,0.00017494,0.00019298,0.00059233,-0.00037891,0.0000
 5163,0.00031993,0.00000223,0.00000866,-0.00007019,0.00009884,0.0000611
 1,-0.00003469,0.00007083,0.00002894,0.00008892,0.00005098,-0.00003372,
 0.00006057,-0.00002283,0.00001350,0.00000703,0.00005522,0.00000613,-0.
 00000329,-0.00001162,0.00000256,-0.00002206,-0.00077048,-0.00287951,0.
 00922339,-0.00003431,0.00409894,-0.00081261,0.00006677,0.00065954,0.00
 063664,-0.00037945,0.00056131,0.00066992,0.00007240,0.00008725,-0.0000
 0158,-0.00003058,-0.00000473,0.00000957,-0.00001077,-0.00003063,-0.000
 00161,0.01377733,0.00823171,-0.16304912,-0.03553666,0.00393069,0.28661
 459,-0.00016878,-0.00131374,-0.00090939,-0.00010174,-0.00129923,0.0007
 4489,0.00037993,-0.00069461,0.00057793,-0.00001138,0.00012502,0.000012
 79,-0.00068694,0.00166285,0.00135801,-0.00050351,0.00160217,0.00010158
 ,0.00032197,0.00041309,-0.00039894,0.00003498,0.00008554,-0.00020003,-
 0.00039844,0.00008222,-0.00003967,0.00010523,-0.00013646,-0.00008830,0
 .00012060,-0.00006043,0.00004000,0.00000225,0.00003012,0.00000790,-0.0
 0001212,-0.00000942,-0.00003677,0.00002627,-0.00000134,-0.00000482,-0.
 00000198,0.00000091,0.00001009,0.00000387,0.00000687,-0.00000811,-0.00
 000254,0.00000259,0.00000582,-0.00000972,-0.00000068,-0.00000279,0.000
 00222,-0.00000465,0.00000062,-0.00006286,0.00145054,0.00224045,0.00111
 842,0.00074686,0.00002537,0.00037714,0.00051252,-0.00025093,0.00020015
 ,-0.00069652,0.00040164,-0.00002406,-0.00001042,-0.00001245,0.00000439
 ,0.00000401,0.00000681,0.00001215,-0.00000261,0.00000903,-0.00414591,0
 .00652404,-0.00806572,-0.04107824,0.01869250,0.01547724,0.51997879,0.0
 0042667,0.00193430,0.00064763,-0.00100357,-0.00009931,-0.00139665,0.00
 051133,0.00039700,0.00088947,-0.00041266,-0.00042570,-0.00001108,-0.00
 052869,0.00230902,-0.00031339,0.00145942,-0.00022150,-0.00084910,-0.00
 070434,0.00019878,0.00058471,0.00002757,-0.00032340,-0.00054325,0.0005
 2251,-0.00013491,0.00039348,-0.00024473,0.00030087,0.00017775,-0.00005
 561,0.00001417,0.00031162,-0.00006269,-0.00000798,0.00003898,0.0000479
 5,0.00007820,-0.00007818,0.00002816,-0.00002928,-0.00017167,0.00001718
 ,0.00001271,0.00005608,0.00003531,-0.00002965,0.00006686,-0.00001047,0
 .00000614,0.00000719,0.00004395,0.00000588,-0.00000394,-0.00000155,0.0
 0003125,-0.00002739,0.00239923,-0.00057561,-0.01324703,-0.00027410,-0.
 00276874,0.00186112,-0.00019922,0.00077998,0.00013503,0.00002619,0.001
 06561,0.00032258,0.00009681,0.00004379,0.00006390,-0.00003505,0.000006
 60,-0.00000655,-0.00004022,-0.00000398,-0.00004192,-0.00482539,-0.0415
 9320,0.00648613,-0.01805495,-0.19704831,0.03426382,-0.10200662,0.29178
 514,-0.00129376,0.00095731,-0.00231442,-0.00009229,-0.00307975,0.00078
 530,0.00045924,-0.00161794,0.00093804,-0.00011954,-0.00024411,0.000080
 67,0.00160372,0.00076513,-0.00004946,0.00023064,-0.00217549,-0.0005250
 2,-0.00053507,-0.00073666,0.00062891,0.00005246,-0.00049306,-0.0003561
 3,-0.00005553,0.00016781,0.00006736,0.00015535,-0.00005786,0.00011426,
 0.00000062,0.00003969,0.00014307,-0.00003599,0.00000881,0.00002902,-0.
 00003584,-0.00003249,-0.00001985,0.00001952,-0.00004245,-0.00010221,0.
 00000262,0.00002184,0.00004072,0.00002390,0.00000088,0.00003449,-0.000
 01229,0.00000755,0.00000918,0.00002858,0.00000027,0.00000087,-0.000008
 25,-0.00000401,-0.00001425,0.00094665,-0.00371527,-0.00389538,-0.00009
 332,-0.00124115,0.00078589,-0.00036818,-0.00019025,-0.00022820,0.00050
 500,-0.00045274,0.00009755,0.00005528,0.00003756,0.00001990,-0.0000188
 3,-0.00000187,0.00000648,-0.00000779,-0.00002069,-0.00000807,-0.003605
 19,-0.02609322,0.01583826,0.01920434,0.05156581,-0.05940330,-0.1103197
 1,-0.00563043,0.06694984,0.00027356,0.00031530,-0.00033155,0.00003588,
 -0.00011548,-0.00021615,-0.00022270,-0.00001071,0.00010278,-0.00035704
 ,-0.00033005,-0.00003742,-0.00015552,-0.00055937,-0.00033518,-0.000009
 22,0.00025564,-0.00012234,0.00019014,0.00013733,-0.00016162,0.00006990
 ,-0.00002477,-0.00013703,-0.00000876,-0.00010146,0.00010231,-0.0000474
 1,0.00005672,0.00003928,0.00001666,-0.00004789,0.00002721,-0.00000435,
 0.00001344,0.00000205,0.00002696,0.00002969,-0.00002728,0.00000545,0.0
 0001344,-0.00000847,-0.00000008,-0.00000449,0.00000480,0.00000488,-0.0
 0000314,0.00000797,-0.00000091,-0.00000125,-0.00000280,0.00000595,0.00
 000206,0.00000103,0.00000009,0.00000369,-0.00000140,0.00019958,-0.0003
 7106,-0.00110192,-0.00002109,-0.00040750,0.00002100,-0.00001540,0.0000
 6400,0.00004474,-0.00003927,0.00013314,0.00001437,0.00000919,0.0000073
 4,0.00000825,-0.00000301,-0.00000020,-0.00000483,-0.00000765,0.0000030
 5,-0.00000565,0.00021253,-0.00062203,0.00292259,0.01134165,-0.00976328
 ,-0.00255431,-0.47548014,0.12281759,0.09331364,0.46398013,0.00025969,0
 .00067740,-0.00003927,-0.00017552,0.00008859,-0.00072776,-0.00018358,0
 .00022202,0.00013917,-0.00036195,-0.00031136,-0.00011812,-0.00040920,-
 0.00024862,0.00057446,0.00004267,0.00020221,-0.00026523,-0.00008897,0.
 00018091,0.00004992,0.00004445,-0.00005623,-0.00003132,0.00009213,-0.0
 0008805,0.00014758,-0.00008026,0.00008808,0.00003112,0.00004452,0.0000
 6999,-0.00006955,-0.00002437,0.00000117,0.00001857,0.00001945,-0.00000
 199,-0.00001559,-0.00000123,-0.00000639,0.00005031,0.00001374,0.000006
 66,-0.00000018,-0.00001839,0.00002235,-0.00003124,0.00000126,-0.000000
 96,0.00000623,-0.00003008,-0.00000430,-0.00000208,0.00000876,-0.000007
 66,0.00000765,0.00022055,-0.00075031,-0.00137729,-0.00035259,-0.000404
 02,0.00013882,-0.00012002,-0.00013920,0.00004688,-0.00007216,0.0002399
 8,-0.00013088,-0.00004938,-0.00003468,-0.00001956,0.00000996,0.0000083
 4,0.00000825,0.00001711,0.00000274,0.00001059,0.00306910,-0.00501598,0
 .00365661,0.03531919,-0.03100355,-0.00750498,0.07429486,-0.05570787,-0
 .00774320,-0.11148976,0.09197071,-0.00009112,-0.00099603,0.00106535,0.
 00020514,0.00015901,-0.00139058,-0.00014109,0.00066942,0.00001068,-0.0
 0024154,-0.00018771,-0.00005061,-0.00012684,0.00004735,-0.00076605,0.0
 0007740,-0.00028023,0.00039113,0.00007717,-0.00022127,0.00001534,-0.00
 021016,0.00005099,0.00005631,0.00005871,-0.00000204,-0.00003699,0.0000
 2935,-0.00000918,0.00000224,-0.00003030,0.00002676,-0.00005278,0.00000
 820,-0.00001361,-0.00000895,-0.00000548,-0.00000906,0.00001943,-0.0000
 1436,0.00000762,0.00005113,0.00000315,-0.00000811,-0.00002215,-0.00001
 486,0.00000109,-0.00001528,0.00000682,-0.00000615,-0.00000618,-0.00001
 610,0.00000021,-0.00000126,0.00000378,0.00000129,0.00000907,-0.0004540
 2,0.00001017,-0.00012089,0.00006541,-0.00003796,0.00002823,0.00004707,
 -0.00004234,0.00009619,-0.00003985,0.00008644,-0.00005327,-0.00002668,
 -0.00001762,-0.00000979,0.00001036,-0.00000045,-0.00000286,0.00000798,
 0.00000939,0.00000539,0.00256844,-0.00180433,-0.00095693,-0.00950995,0
 .01336198,-0.00057485,0.09931745,-0.02398574,-0.01965350,-0.09156411,0
 .01319008,0.02197242\\0.00000099,0.00000221,-0.00000407,0.00000175,0.0
 0000302,-0.00000254,0.00000224,0.00000435,-0.00000515,0.00000056,0.000
 00179,-0.00000563,0.00000084,0.00000148,-0.00000092,0.00000151,0.00000
 210,0.00000106,0.00000183,0.00000319,-0.00000209,-0.00000035,-0.000000
 35,0.00000013,-0.00000136,-0.00000234,0.00000099,-0.00000120,-0.000001
 10,-0.00000188,0.00000092,0.00000053,0.00000339,0.00000174,0.00000229,
 0.00000170,0.00000109,0.00000101,0.00000469,-0.00000095,-0.00000212,0.
 00000340,-0.00000179,-0.00000292,0.00000505,0.00000079,-0.00000002,0.0
 0000699,0.00000143,0.00000156,0.00000618,-0.00000025,-0.00000156,0.000
 00780,0.00000089,0.00000030,0.00000873,-0.00000106,-0.00000046,-0.0000
 0620,0.00000001,0.00000100,-0.00000739,-0.00000141,-0.00000127,-0.0000
 0776,-0.00000183,-0.00000224,-0.00000557,-0.00000213,-0.00000219,0.000
 00040,-0.00000025,-0.00000087,0.00000106,-0.00000118,-0.00000313,0.000
 00084,0.00000058,0.00000039,-0.00000292,-0.00000195,-0.00000228,-0.000
 00220,-0.00000091,-0.00000118,0.00000047,-0.00000057,-0.00000117,0.000
 00145\\\@
 Job cpu time:  0 days 11 hours  2 minutes 16.3 seconds.
 File lengths (MBytes):  RWF=  72279 Int=      0 D2E=      0 Chk=     32 Scr=      1
 Normal termination of Gaussian 09 at Tue Feb 11 06:17:31 2014.
