 Entering Gaussian System, Link 0=g09
 Initial command:
 /usr/caen/gaussian-09revc/g09/l1.exe /scratch/avioli_flux/hetanjin/scratch/Gau-2905.inp -scrdir=/scratch/avioli_flux/hetanjin/scratch/
 Entering Link 1 = /usr/caen/gaussian-09revc/g09/l1.exe PID=      2906.
  
 Copyright (c) 1988,1990,1992,1993,1995,1998,2003,2009,2011,
            Gaussian, Inc.  All Rights Reserved.
  
 This is part of the Gaussian(R) 09 program.  It is based on
 the Gaussian(R) 03 system (copyright 2003, Gaussian, Inc.),
 the Gaussian(R) 98 system (copyright 1998, Gaussian, Inc.),
 the Gaussian(R) 94 system (copyright 1995, Gaussian, Inc.),
 the Gaussian 92(TM) system (copyright 1992, Gaussian, Inc.),
 the Gaussian 90(TM) system (copyright 1990, Gaussian, Inc.),
 the Gaussian 88(TM) system (copyright 1988, Gaussian, Inc.),
 the Gaussian 86(TM) system (copyright 1986, Carnegie Mellon
 University), and the Gaussian 82(TM) system (copyright 1983,
 Carnegie Mellon University). Gaussian is a federally registered
 trademark of Gaussian, Inc.
  
 This software contains proprietary and confidential information,
 including trade secrets, belonging to Gaussian, Inc.
  
 This software is provided under written license and may be
 used, copied, transmitted, or stored only in accord with that
 written license.
  
 The following legend is applicable only to US Government
 contracts under FAR:
  
                    RESTRICTED RIGHTS LEGEND
  
 Use, reproduction and disclosure by the US Government is
 subject to restrictions as set forth in subparagraphs (a)
 and (c) of the Commercial Computer Software - Restricted
 Rights clause in FAR 52.227-19.
  
 Gaussian, Inc.
 340 Quinnipiac St., Bldg. 40, Wallingford CT 06492
  
  
 ---------------------------------------------------------------
 Warning -- This program may not be used in any manner that
 competes with the business of Gaussian, Inc. or will provide
 assistance to any competitor of Gaussian, Inc.  The licensee
 of this program is prohibited from giving any competitor of
 Gaussian, Inc. access to this program.  By using this program,
 the user acknowledges that Gaussian, Inc. is engaged in the
 business of creating and licensing software in the field of
 computational chemistry and represents and warrants to the
 licensee that it is not a competitor of Gaussian, Inc. and that
 it will not use this program in any manner prohibited above.
 ---------------------------------------------------------------
  

 Cite this work as:
 Gaussian 09, Revision C.01,
 M. J. Frisch, G. W. Trucks, H. B. Schlegel, G. E. Scuseria, 
 M. A. Robb, J. R. Cheeseman, G. Scalmani, V. Barone, B. Mennucci, 
 G. A. Petersson, H. Nakatsuji, M. Caricato, X. Li, H. P. Hratchian, 
 A. F. Izmaylov, J. Bloino, G. Zheng, J. L. Sonnenberg, M. Hada, 
 M. Ehara, K. Toyota, R. Fukuda, J. Hasegawa, M. Ishida, T. Nakajima, 
 Y. Honda, O. Kitao, H. Nakai, T. Vreven, J. A. Montgomery, Jr., 
 J. E. Peralta, F. Ogliaro, M. Bearpark, J. J. Heyd, E. Brothers, 
 K. N. Kudin, V. N. Staroverov, T. Keith, R. Kobayashi, J. Normand, 
 K. Raghavachari, A. Rendell, J. C. Burant, S. S. Iyengar, J. Tomasi, 
 M. Cossi, N. Rega, J. M. Millam, M. Klene, J. E. Knox, J. B. Cross, 
 V. Bakken, C. Adamo, J. Jaramillo, R. Gomperts, R. E. Stratmann, 
 O. Yazyev, A. J. Austin, R. Cammi, C. Pomelli, J. W. Ochterski, 
 R. L. Martin, K. Morokuma, V. G. Zakrzewski, G. A. Voth, 
 P. Salvador, J. J. Dannenberg, S. Dapprich, A. D. Daniels, 
 O. Farkas, J. B. Foresman, J. V. Ortiz, J. Cioslowski, 
 and D. J. Fox, Gaussian, Inc., Wallingford CT, 2010.
 
 ******************************************
 Gaussian 09:  EM64L-G09RevC.01 23-Sep-2011
                10-Feb-2014 
 ******************************************
 %mem=30GB
 %nprocshared=8
 Will use up to    8 processors via shared memory.
 %chk=C9H18OOH_2_26_a.chk
 --------------------------------------------------
 #p UB3LYP/6-311++G(d,p) guess=mix stable=(opt,xqc)
 --------------------------------------------------
 1/38=1/1;
 2/12=2,17=6,18=5,40=1/2;
 3/5=4,6=6,7=1111,11=2,16=1,25=1,30=1,74=-5,116=2/1,2,3;
 4/13=-1/1;
 5/5=2,38=5/2;
 6/7=2,8=2,9=2,10=2,28=1/1;
 8/6=1,10=90,11=11/1;
 9/8=-3,42=1,46=1/14;
 5/5=2,8=3,13=1,17=40,38=5/2,8(-2);
 6/7=2,8=2,9=2,10=2,28=1/1;
 99/5=1,9=1/99;
 Leave Link    1 at Mon Feb 10 16:41:53 2014, MaxMem= 4026531840 cpu:       0.5
 (Enter /usr/caen/gaussian-09revc/g09/l101.exe)
 --------------------------------------------
 C9H18OOH_2_26_a using cbs-qb3 to cal. energy
 --------------------------------------------
 Charge =  0 Multiplicity = 2
 Symbolic Z-Matrix:
 C                     3.31377   0.07699   1.11804 
 H                     3.3009   -0.97494   1.40772 
 H                     3.22378   0.68043   2.02512 
 H                     4.27238   0.30431   0.64506 
 C                     0.79793   0.02153   0.81106 
 H                     0.86023  -1.02111   1.13849 
 H                     0.6962    0.63076   1.71647 
 C                    -0.43328   0.20292  -0.08249 
 H                    -0.28991  -0.365    -1.00727 
 H                    -0.52515   1.2548   -0.36956 
 C                    -1.72068  -0.26299   0.60976 
 H                    -1.8877    0.33291   1.51829 
 H                    -1.57967  -1.29727   0.94793 
 C                    -2.9913   -0.20675  -0.25981 
 H                    -2.78916  -0.77731  -1.17666 
 C                    -4.16692  -0.88067   0.46176 
 H                    -4.40829  -0.35318   1.39151 
 H                    -5.06687  -0.88267  -0.16053 
 H                    -3.93517  -1.91856   0.71904 
 C                     2.20308   1.79964  -0.31423 
 H                     2.82217   2.53      0.18987 
 H                     1.63405   2.10068  -1.1834 
 C                    -3.36219   1.22644  -0.66806 
 H                    -4.27577   1.23717  -1.27006 
 H                    -3.54169   1.8476    0.21719 
 H                    -2.5756    1.70385  -1.25732 
 C                     2.15792   0.38488   0.16057 
 O                     2.32905  -0.35248  -1.09104 
 O                     2.19744  -1.78662  -0.83118 
 H                     3.06339  -2.09159  -1.13384 
 
 NAtoms=     30 NQM=        0 NQMF=       0 NMMI=     30 NMMIF=      0
                NMic=       0 NMicF=      0.
                    Isotopes and Nuclear Properties:
 (Nuclear quadrupole moments (NQMom) in fm**2, nuclear magnetic moments (NMagM)
  in nuclear magnetons)

  Atom         1           2           3           4           5           6           7           8           9          10
 IAtWgt=          12           1           1           1          12           1           1          12           1           1
 AtmWgt=  12.0000000   1.0078250   1.0078250   1.0078250  12.0000000   1.0078250   1.0078250  12.0000000   1.0078250   1.0078250
 NucSpn=           0           1           1           1           0           1           1           0           1           1
 AtZEff=   0.0000000   0.0000000   0.0000000   0.0000000   0.0000000   0.0000000   0.0000000   0.0000000   0.0000000   0.0000000
 NQMom=    0.0000000   0.0000000   0.0000000   0.0000000   0.0000000   0.0000000   0.0000000   0.0000000   0.0000000   0.0000000
 NMagM=    0.0000000   2.7928460   2.7928460   2.7928460   0.0000000   2.7928460   2.7928460   0.0000000   2.7928460   2.7928460

  Atom        11          12          13          14          15          16          17          18          19          20
 IAtWgt=          12           1           1          12           1          12           1           1           1          12
 AtmWgt=  12.0000000   1.0078250   1.0078250  12.0000000   1.0078250  12.0000000   1.0078250   1.0078250   1.0078250  12.0000000
 NucSpn=           0           1           1           0           1           0           1           1           1           0
 AtZEff=   0.0000000   0.0000000   0.0000000   0.0000000   0.0000000   0.0000000   0.0000000   0.0000000   0.0000000   0.0000000
 NQMom=    0.0000000   0.0000000   0.0000000   0.0000000   0.0000000   0.0000000   0.0000000   0.0000000   0.0000000   0.0000000
 NMagM=    0.0000000   2.7928460   2.7928460   0.0000000   2.7928460   0.0000000   2.7928460   2.7928460   2.7928460   0.0000000

  Atom        21          22          23          24          25          26          27          28          29          30
 IAtWgt=           1           1          12           1           1           1          12          16          16           1
 AtmWgt=   1.0078250   1.0078250  12.0000000   1.0078250   1.0078250   1.0078250  12.0000000  15.9949146  15.9949146   1.0078250
 NucSpn=           1           1           0           1           1           1           0           0           0           1
 AtZEff=   0.0000000   0.0000000   0.0000000   0.0000000   0.0000000   0.0000000   0.0000000   0.0000000   0.0000000   0.0000000
 NQMom=    0.0000000   0.0000000   0.0000000   0.0000000   0.0000000   0.0000000   0.0000000   0.0000000   0.0000000   0.0000000
 NMagM=    2.7928460   2.7928460   0.0000000   2.7928460   2.7928460   2.7928460   0.0000000   0.0000000   0.0000000   2.7928460
 Leave Link  101 at Mon Feb 10 16:41:53 2014, MaxMem= 4026531840 cpu:       0.5
 (Enter /usr/caen/gaussian-09revc/g09/l202.exe)
                          Input orientation:                          
 ---------------------------------------------------------------------
 Center     Atomic      Atomic             Coordinates (Angstroms)
 Number     Number       Type             X           Y           Z
 ---------------------------------------------------------------------
      1          6           0        3.313772    0.076985    1.118043
      2          1           0        3.300898   -0.974943    1.407718
      3          1           0        3.223778    0.680430    2.025120
      4          1           0        4.272376    0.304313    0.645062
      5          6           0        0.797932    0.021530    0.811063
      6          1           0        0.860233   -1.021115    1.138487
      7          1           0        0.696198    0.630761    1.716474
      8          6           0       -0.433282    0.202918   -0.082486
      9          1           0       -0.289913   -0.365003   -1.007265
     10          1           0       -0.525153    1.254795   -0.369560
     11          6           0       -1.720682   -0.262993    0.609759
     12          1           0       -1.887697    0.332907    1.518287
     13          1           0       -1.579666   -1.297272    0.947931
     14          6           0       -2.991303   -0.206747   -0.259808
     15          1           0       -2.789155   -0.777310   -1.176662
     16          6           0       -4.166918   -0.880672    0.461762
     17          1           0       -4.408286   -0.353176    1.391514
     18          1           0       -5.066867   -0.882668   -0.160529
     19          1           0       -3.935165   -1.918562    0.719037
     20          6           0        2.203082    1.799644   -0.314225
     21          1           0        2.822167    2.530004    0.189866
     22          1           0        1.634047    2.100682   -1.183399
     23          6           0       -3.362191    1.226436   -0.668057
     24          1           0       -4.275766    1.237171   -1.270060
     25          1           0       -3.541691    1.847602    0.217186
     26          1           0       -2.575603    1.703852   -1.257319
     27          6           0        2.157915    0.384884    0.160572
     28          8           0        2.329051   -0.352482   -1.091044
     29          8           0        2.197440   -1.786616   -0.831178
     30          1           0        3.063392   -2.091593   -1.133840
 ---------------------------------------------------------------------
                    Distance matrix (angstroms):
                    1          2          3          4          5
     1  C    0.000000
     2  H    1.091160   0.000000
     3  H    1.093176   1.768444   0.000000
     4  H    1.092845   1.778176   1.773579   0.000000
     5  C    2.535106   2.759310   2.791561   3.489883   0.000000
     6  H    2.688140   2.455904   3.044293   3.693636   1.094622
     7  H    2.741620   3.075399   2.546839   3.747471   1.096030
     8  C    3.936692   4.189530   4.247836   4.762649   1.532064
     9  H    4.206998   4.370137   4.757553   4.898229   2.153864
    10  H    4.282236   4.771699   4.485406   4.994913   2.159946
    11  C    5.071456   5.134187   5.228860   6.019952   2.542615
    12  H    5.223119   5.352029   5.148284   6.221723   2.794588
    13  H    5.085593   4.912759   5.305159   6.074800   2.722305
    14  C    6.460104   6.554583   6.680959   7.337643   3.944259
    15  H    6.575805   6.618672   6.966475   7.372503   4.178084
    16  C    7.570240   7.528080   7.713852   8.524053   5.058232
    17  H    7.738863   7.734234   7.727755   8.737470   5.251860
    18  H    8.531752   8.513954   8.715224   9.448776   6.013105
    19  H    7.529177   7.329755   7.727294   8.503551   5.116115
    20  C    2.500516   3.445086   2.786933   2.727311   2.530298
    21  H    2.668425   3.741257   2.636356   2.695183   3.282660
    22  H    3.494776   4.353361   3.852136   3.678450   2.999973
    23  C    7.005703   7.317900   7.136267   7.801359   4.576704
    24  H    8.040532   8.334853   8.210440   8.809577   5.617051
    25  H    7.137507   7.497009   7.099471   7.976494   4.745477
    26  H    6.555439   6.986532   6.742004   7.243796   4.299901
    27  C    1.532174   2.170464   2.167937   2.170753   1.550715
    28  O    2.456457   2.752409   3.402635   2.687370   2.470267
    29  O    2.918676   2.624707   3.911282   3.294940   2.815132
    30  H    3.136303   2.786186   4.205813   3.219705   3.657902
                    6          7          8          9         10
     6  H    0.000000
     7  H    1.757746   0.000000
     8  C    2.159216   2.166802   0.000000
     9  H    2.521422   3.063122   1.094671   0.000000
    10  H    3.061579   2.496528   1.094211   1.756631   0.000000
    11  C    2.741427   2.804447   1.534169   2.161544   2.166111
    12  H    3.086866   2.608545   2.166724   3.068942   2.504071
    13  H    2.462860   3.080183   2.150936   2.520988   3.059547
    14  C    4.177649   4.266705   2.596679   2.807355   2.868806
    15  H    4.328671   4.743478   2.776366   2.538681   3.147470
    16  C    5.074439   5.244867   3.925610   4.177933   4.302763
    17  H    5.316715   5.208598   4.275813   4.766055   4.556937
    18  H    6.069359   6.247121   4.759695   4.878958   5.023904
    19  H    4.896651   5.379912   4.172086   4.322213   4.783662
    20  C    3.445330   2.785808   3.090898   3.373577   2.782659
    21  H    4.166475   3.233790   4.010917   4.415793   3.625420
    22  H    3.966807   3.383710   3.014526   3.132451   2.457642
    23  C    5.113116   4.744611   3.157371   3.476583   2.852839
    24  H    6.105689   5.831599   4.152673   4.303841   3.857241
    25  H    5.334348   4.657067   3.529447   4.119340   3.129727
    26  H    4.997029   4.549687   2.867503   3.093068   2.279060
    27  C    2.148751   2.148931   2.608925   2.813900   2.869955
    28  O    2.752327   3.393396   2.992681   2.620334   3.354155
    29  O    2.500739   3.819420   3.382231   2.870351   4.108015
    30  H    3.341153   4.597729   4.312407   3.773829   4.965893
                   11         12         13         14         15
    11  C    0.000000
    12  H    1.099279   0.000000
    13  H    1.097260   1.754330   0.000000
    14  C    1.540710   2.161202   2.154205   0.000000
    15  H    2.144168   3.050895   2.499424   1.098648   0.000000
    16  C    2.527351   2.789958   2.665293   1.535223   2.143210
    17  H    2.800444   2.615368   3.014826   2.180859   3.065453
    18  H    3.489168   3.795151   3.682547   2.185107   2.496317
    19  H    2.767090   3.146433   2.446788   2.186166   2.491881
    20  C    4.528150   4.716343   5.049070   5.568680   5.683918
    21  H    5.349263   5.364211   5.882078   6.441153   6.655273
    22  H    4.478458   4.777742   5.139709   5.250820   5.277082
    23  C    2.558469   2.784354   3.486820   1.535656   2.145238
    24  H    3.508941   3.780932   4.314144   2.180677   2.505368
    25  H    2.815102   2.592848   3.778063   2.179633   3.065825
    26  H    2.843475   3.171229   3.855096   2.195045   2.491641
    27  C    3.957907   4.267677   4.173619   5.200115   5.254749
    28  O    4.393299   5.005929   4.508671   5.386869   5.136520
    29  O    4.444030   5.167273   4.203715   5.453944   5.099430
    30  H    5.410294   6.117619   5.150020   6.401243   5.998456
                   16         17         18         19         20
    16  C    0.000000
    17  H    1.095878   0.000000
    18  H    1.094147   1.767181   0.000000
    19  H    1.094128   1.768192   1.768463   0.000000
    20  C    6.954362   7.159215   7.750521   7.250570   0.000000
    21  H    7.781642   7.876302   8.602672   8.107484   1.082035
    22  H    6.726531   7.011518   7.406004   7.126690   1.081614
    23  C    2.522693   2.798450   2.758954   3.484730   5.605892
    24  H    2.737940   3.103344   2.520043   3.745820   6.573087
    25  H    2.809663   2.640730   3.150112   3.819773   5.769499
    26  H    3.488164   3.821833   3.754921   4.344684   4.871800
    27  C    6.457233   6.721231   7.342157   6.537841   1.492990
    28  O    6.699836   7.180167   7.473055   6.705923   2.291498
    29  O    6.557246   7.115527   7.350990   6.326881   3.623332
    30  H    7.502643   8.076229   8.277073   7.241747   4.068615
                   21         22         23         24         25
    21  H    0.000000
    22  H    1.865959   0.000000
    23  C    6.378213   5.098262   0.000000
    24  H    7.360941   5.973194   1.094140   0.000000
    25  H    6.400399   5.367863   1.096231   1.767312   0.000000
    26  H    5.649141   4.228959   1.092647   1.763096   1.768659
    27  C    2.245802   2.241575   5.645034   6.645702   5.884578
    28  O    3.192588   2.551387   5.921329   6.795782   6.404486
    29  O    4.479511   3.943673   6.325708   7.158093   6.873444
    30  H    4.813475   4.429521   7.246681   8.059930   7.808306
                   26         27         28         29         30
    26  H    0.000000
    27  C    5.114321   0.000000
    28  O    5.320882   1.462716   0.000000
    29  O    5.928482   2.387581   1.463418   0.000000
    30  H    6.798449   2.937402   1.888278   0.966689   0.000000
 Stoichiometry    C9H19O2(2)
 Framework group  C1[X(C9H19O2)]
 Deg. of freedom    84
 Full point group                 C1      NOp   1
 Largest Abelian subgroup         C1      NOp   1
 Largest concise Abelian subgroup C1      NOp   1
                         Standard orientation:                         
 ---------------------------------------------------------------------
 Center     Atomic      Atomic             Coordinates (Angstroms)
 Number     Number       Type             X           Y           Z
 ---------------------------------------------------------------------
      1          6           0        3.313772    0.076985    1.118043
      2          1           0        3.300898   -0.974943    1.407718
      3          1           0        3.223778    0.680430    2.025120
      4          1           0        4.272376    0.304313    0.645062
      5          6           0        0.797932    0.021530    0.811063
      6          1           0        0.860233   -1.021115    1.138487
      7          1           0        0.696198    0.630761    1.716474
      8          6           0       -0.433282    0.202918   -0.082486
      9          1           0       -0.289913   -0.365003   -1.007265
     10          1           0       -0.525153    1.254795   -0.369560
     11          6           0       -1.720682   -0.262993    0.609759
     12          1           0       -1.887697    0.332907    1.518287
     13          1           0       -1.579666   -1.297272    0.947931
     14          6           0       -2.991303   -0.206747   -0.259808
     15          1           0       -2.789155   -0.777310   -1.176662
     16          6           0       -4.166918   -0.880672    0.461762
     17          1           0       -4.408286   -0.353176    1.391514
     18          1           0       -5.066867   -0.882668   -0.160529
     19          1           0       -3.935165   -1.918562    0.719037
     20          6           0        2.203082    1.799644   -0.314225
     21          1           0        2.822167    2.530004    0.189866
     22          1           0        1.634047    2.100682   -1.183399
     23          6           0       -3.362191    1.226436   -0.668057
     24          1           0       -4.275766    1.237171   -1.270060
     25          1           0       -3.541691    1.847602    0.217186
     26          1           0       -2.575603    1.703852   -1.257319
     27          6           0        2.157915    0.384884    0.160572
     28          8           0        2.329051   -0.352482   -1.091044
     29          8           0        2.197440   -1.786616   -0.831178
     30          1           0        3.063392   -2.091593   -1.133840
 ---------------------------------------------------------------------
 Rotational constants (GHZ):      2.0176896      0.4309058      0.4080328
 Leave Link  202 at Mon Feb 10 16:41:54 2014, MaxMem= 4026531840 cpu:       0.2
 (Enter /usr/caen/gaussian-09revc/g09/l301.exe)
 Standard basis: 6-311++G(d,p) (5D, 7F)
 Ernie: Thresh=  0.10000D-02 Tol=  0.10000D-05 Strict=F.
 There are   375 symmetry adapted basis functions of A   symmetry.
 Integral buffers will be    131072 words long.
 Raffenetti 2 integral format.
 Two-electron integral symmetry is turned on.
   375 basis functions,   567 primitive gaussians,   386 cartesian basis functions
    45 alpha electrons       44 beta electrons
       nuclear repulsion energy       658.0445431651 Hartrees.
 IExCor=  402 DFT=T Ex+Corr=B3LYP ExCW=0 ScaHFX=  0.200000
 ScaDFX=  0.800000  0.720000  1.000000  0.810000 ScalE2=  1.000000  1.000000
 IRadAn=      0 IRanWt=     -1 IRanGd=            0 ICorTp=0
 NAtoms=   30 NActive=   30 NUniq=   30 SFac= 1.00D+00 NAtFMM=   60 NAOKFM=F Big=F
 Leave Link  301 at Mon Feb 10 16:41:54 2014, MaxMem= 4026531840 cpu:       0.8
 (Enter /usr/caen/gaussian-09revc/g09/l302.exe)
 NPDir=0 NMtPBC=     1 NCelOv=     1 NCel=       1 NClECP=     1 NCelD=      1
         NCelK=      1 NCelE2=     1 NClLst=     1 CellRange=     0.0.
 One-electron integrals computed using PRISM.
 NBasis=   375 RedAO= T  NBF=   375
 NBsUse=   375 1.00D-06 NBFU=   375
 Precomputing XC quadrature grid using
 IXCGrd= 2 IRadAn=           0 IRanWt=          -1 IRanGd=           0 AccXCQ= 0.00D+00.
 NRdTot=    1961 NPtTot=      250122 NUsed=      264252 NTot=      264284
 NSgBfM=   386   386   386   386   386 NAtAll=    30    30.
 Leave Link  302 at Mon Feb 10 16:41:55 2014, MaxMem= 4026531840 cpu:       7.0
 (Enter /usr/caen/gaussian-09revc/g09/l303.exe)
 DipDrv:  MaxL=1.
 Leave Link  303 at Mon Feb 10 16:41:56 2014, MaxMem= 4026531840 cpu:       1.7
 (Enter /usr/caen/gaussian-09revc/g09/l401.exe)
 Harris functional with IExCor=  402 diagonalized for initial guess.
 ExpMin= 3.60D-02 ExpMax= 8.59D+03 ExpMxC= 1.30D+03 IAcc=3 IRadAn=         5 AccDes= 0.00D+00
 HarFok:  IExCor=  402 AccDes= 0.00D+00 IRadAn=         5 IDoV= 1
 ScaDFX=  1.000000  1.000000  1.000000  1.000000
 FoFCou: FMM=F IPFlag=           0 FMFlag=      100000 FMFlg1=           0
         NFxFlg=           0 DoJE=T BraDBF=F KetDBF=T FulRan=T
         Omega=  0.000000  0.000000  1.000000  0.000000  0.000000 ICntrl=     500 IOpCl=  0
         NMat0=    1 NMatS0=    1 NMatT0=    0 NMatD0=    1 NMtDS0=    0 NMtDT0=    0
         I1Cent=           4 NGrid=           0.
 Petite list used in FoFCou.
 Harris En= -504.908927601418    
 Mixing orbitals, IMix= 1 IMixAn=  0 NRI=1 NE=   45 Coef=  7.07106781D-01  7.07106781D-01
 Mixing orbitals, IMix= 1 IMixAn=  0 NRI=1 NE=   44 Coef= -7.07106781D-01  7.07106781D-01
 Initial guess orbital symmetries:
 Alpha Orbitals:
       Occupied  (A) (A) (A) (A) (A) (A) (A) (A) (A) (A) (A) (A)
                 (A) (A) (A) (A) (A) (A) (A) (A) (A) (A) (A) (A)
                 (A) (A) (A) (A) (A) (A) (A) (A) (A) (A) (A) (A)
                 (A) (A) (A) (A) (A) (A) (A) (A) (A)
       Virtual   (A) (A) (A) (A) (A) (A) (A) (A) (A) (A) (A) (A)
                 (A) (A) (A) (A) (A) (A) (A) (A) (A) (A) (A) (A)
                 (A) (A) (A) (A) (A) (A) (A) (A) (A) (A) (A) (A)
                 (A) (A) (A) (A) (A) (A) (A) (A) (A) (A) (A) (A)
                 (A) (A) (A) (A) (A) (A) (A) (A) (A) (A) (A) (A)
                 (A) (A) (A) (A) (A) (A) (A) (A) (A) (A) (A) (A)
                 (A) (A) (A) (A) (A) (A) (A) (A) (A) (A) (A) (A)
                 (A) (A) (A) (A) (A) (A) (A) (A) (A) (A) (A) (A)
                 (A) (A) (A) (A) (A) (A) (A) (A) (A) (A) (A) (A)
                 (A) (A) (A) (A) (A) (A) (A) (A) (A) (A) (A) (A)
                 (A) (A) (A) (A) (A) (A) (A) (A) (A) (A) (A) (A)
                 (A) (A) (A) (A) (A) (A) (A) (A) (A) (A) (A) (A)
                 (A) (A) (A) (A) (A) (A) (A) (A) (A) (A) (A) (A)
                 (A) (A) (A) (A) (A) (A) (A) (A) (A) (A) (A) (A)
                 (A) (A) (A) (A) (A) (A) (A) (A) (A) (A) (A) (A)
                 (A) (A) (A) (A) (A) (A) (A) (A) (A) (A) (A) (A)
                 (A) (A) (A) (A) (A) (A) (A) (A) (A) (A) (A) (A)
                 (A) (A) (A) (A) (A) (A) (A) (A) (A) (A) (A) (A)
                 (A) (A) (A) (A) (A) (A) (A) (A) (A) (A) (A) (A)
                 (A) (A) (A) (A) (A) (A) (A) (A) (A) (A) (A) (A)
                 (A) (A) (A) (A) (A) (A) (A) (A) (A) (A) (A) (A)
                 (A) (A) (A) (A) (A) (A) (A) (A) (A) (A) (A) (A)
                 (A) (A) (A) (A) (A) (A) (A) (A) (A) (A) (A) (A)
                 (A) (A) (A) (A) (A) (A) (A) (A) (A) (A) (A) (A)
                 (A) (A) (A) (A) (A) (A) (A) (A) (A) (A) (A) (A)
                 (A) (A) (A) (A) (A) (A) (A) (A) (A) (A) (A) (A)
                 (A) (A) (A) (A) (A) (A) (A) (A) (A) (A) (A) (A)
                 (A) (A) (A) (A) (A) (A)
 Beta  Orbitals:
       Occupied  (A) (A) (A) (A) (A) (A) (A) (A) (A) (A) (A) (A)
                 (A) (A) (A) (A) (A) (A) (A) (A) (A) (A) (A) (A)
                 (A) (A) (A) (A) (A) (A) (A) (A) (A) (A) (A) (A)
                 (A) (A) (A) (A) (A) (A) (A) (A)
       Virtual   (A) (A) (A) (A) (A) (A) (A) (A) (A) (A) (A) (A)
                 (A) (A) (A) (A) (A) (A) (A) (A) (A) (A) (A) (A)
                 (A) (A) (A) (A) (A) (A) (A) (A) (A) (A) (A) (A)
                 (A) (A) (A) (A) (A) (A) (A) (A) (A) (A) (A) (A)
                 (A) (A) (A) (A) (A) (A) (A) (A) (A) (A) (A) (A)
                 (A) (A) (A) (A) (A) (A) (A) (A) (A) (A) (A) (A)
                 (A) (A) (A) (A) (A) (A) (A) (A) (A) (A) (A) (A)
                 (A) (A) (A) (A) (A) (A) (A) (A) (A) (A) (A) (A)
                 (A) (A) (A) (A) (A) (A) (A) (A) (A) (A) (A) (A)
                 (A) (A) (A) (A) (A) (A) (A) (A) (A) (A) (A) (A)
                 (A) (A) (A) (A) (A) (A) (A) (A) (A) (A) (A) (A)
                 (A) (A) (A) (A) (A) (A) (A) (A) (A) (A) (A) (A)
                 (A) (A) (A) (A) (A) (A) (A) (A) (A) (A) (A) (A)
                 (A) (A) (A) (A) (A) (A) (A) (A) (A) (A) (A) (A)
                 (A) (A) (A) (A) (A) (A) (A) (A) (A) (A) (A) (A)
                 (A) (A) (A) (A) (A) (A) (A) (A) (A) (A) (A) (A)
                 (A) (A) (A) (A) (A) (A) (A) (A) (A) (A) (A) (A)
                 (A) (A) (A) (A) (A) (A) (A) (A) (A) (A) (A) (A)
                 (A) (A) (A) (A) (A) (A) (A) (A) (A) (A) (A) (A)
                 (A) (A) (A) (A) (A) (A) (A) (A) (A) (A) (A) (A)
                 (A) (A) (A) (A) (A) (A) (A) (A) (A) (A) (A) (A)
                 (A) (A) (A) (A) (A) (A) (A) (A) (A) (A) (A) (A)
                 (A) (A) (A) (A) (A) (A) (A) (A) (A) (A) (A) (A)
                 (A) (A) (A) (A) (A) (A) (A) (A) (A) (A) (A) (A)
                 (A) (A) (A) (A) (A) (A) (A) (A) (A) (A) (A) (A)
                 (A) (A) (A) (A) (A) (A) (A) (A) (A) (A) (A) (A)
                 (A) (A) (A) (A) (A) (A) (A) (A) (A) (A) (A) (A)
                 (A) (A) (A) (A) (A) (A) (A)
 The electronic state of the initial guess is 2-A.
 Initial guess <Sx>= 0.0000 <Sy>= 0.0000 <Sz>= 0.5000 <S**2>= 1.0000 S= 0.6180
 Leave Link  401 at Mon Feb 10 16:42:02 2014, MaxMem= 4026531840 cpu:      41.5
 (Enter /usr/caen/gaussian-09revc/g09/l502.exe)
 UHF open shell SCF:
 Requested convergence on RMS density matrix=1.00D-08 within 128 cycles.
 Requested convergence on MAX density matrix=1.00D-06.
 Requested convergence on             energy=1.00D-06.
 No special actions if energy rises.
 Using DIIS extrapolation, IDIIS=  1040.
 Integral symmetry usage will be decided dynamically.
       263969 words used for storage of precomputed grid.
 IEnd=      735103 IEndB=      735103 NGot=  4026531840 MDV=  4025962760
 LenX=  4025962760 LenY=  4025813323
 Fock matrices will be formed incrementally for  20 cycles.

 Cycle   1  Pass 1  IDiag  1:
 FoFCou: FMM=F IPFlag=           0 FMFlag=      100000 FMFlg1=           0
         NFxFlg=           0 DoJE=F BraDBF=F KetDBF=F FulRan=T
         Omega=  0.000000  0.000000  1.000000  0.000000  0.000000 ICntrl=       0 IOpCl=  1
         NMat0=    1 NMatS0=    1 NMatT0=    0 NMatD0=    1 NMtDS0=    0 NMtDT0=    0
         I1Cent=           0 NGrid=           0.
 Symmetry not used in FoFCou.
 E= -504.350793452565    
 DIIS: error= 4.16D-02 at cycle   1 NSaved=   1.
 NSaved= 1 IEnMin= 1 EnMin= -504.350793452565     IErMin= 1 ErrMin= 4.16D-02
 ErrMax= 4.16D-02 EMaxC= 1.00D-01 BMatC= 1.60D+00 BMatP= 1.60D+00
 IDIUse=3 WtCom= 5.84D-01 WtEn= 4.16D-01
 Coeff-Com:  0.100D+01
 Coeff-En:   0.100D+01
 Coeff:      0.100D+01
 Gap=     0.035 Goal=   None    Shift=    0.000
 Gap=     0.040 Goal=   None    Shift=    0.000
 GapD=    0.035 DampG=0.250 DampE=0.500 DampFc=0.2500 IDamp=-1.
 Damping current iteration by 2.50D-01
 RMSDP=1.58D-02 MaxDP=1.37D+00              OVMax= 6.50D-01

 Cycle   2  Pass 1  IDiag  1:
 RMSU=  2.45D-03    CP:  9.24D-01
 E= -504.488259507908     Delta-E=       -0.137466055342 Rises=F Damp=T
 DIIS: error= 1.82D-02 at cycle   2 NSaved=   2.
 NSaved= 2 IEnMin= 2 EnMin= -504.488259507908     IErMin= 2 ErrMin= 1.82D-02
 ErrMax= 1.82D-02 EMaxC= 1.00D-01 BMatC= 3.90D-01 BMatP= 1.60D+00
 IDIUse=3 WtCom= 8.18D-01 WtEn= 1.82D-01
 Coeff-Com: -0.548D+00 0.155D+01
 Coeff-En:   0.000D+00 0.100D+01
 Coeff:     -0.448D+00 0.145D+01
 Gap=     0.128 Goal=   None    Shift=    0.000
 Gap=    -0.037 Goal=   None    Shift=    0.000
 RMSDP=8.74D-03 MaxDP=7.86D-01 DE=-1.37D-01 OVMax= 6.94D-01

 Cycle   3  Pass 1  IDiag  1:
 RMSU=  4.25D-03    CP:  7.31D-01  9.71D-01
 E= -504.542416371417     Delta-E=       -0.054156863509 Rises=F Damp=F
 DIIS: error= 2.10D-02 at cycle   3 NSaved=   3.
 NSaved= 3 IEnMin= 3 EnMin= -504.542416371417     IErMin= 2 ErrMin= 1.82D-02
 ErrMax= 2.10D-02 EMaxC= 1.00D-01 BMatC= 9.72D-01 BMatP= 3.90D-01
 IDIUse=2 WtCom= 0.00D+00 WtEn= 1.00D+00
 Coeff-En:   0.000D+00 0.408D+00 0.592D+00
 Coeff:      0.000D+00 0.408D+00 0.592D+00
 Gap=     0.043 Goal=   None    Shift=    0.000
 Gap=    -0.011 Goal=   None    Shift=    0.000
 RMSDP=1.30D-02 MaxDP=1.28D+00 DE=-5.42D-02 OVMax= 8.80D-01

 Cycle   4  Pass 1  IDiag  1:
 RMSU=  5.53D-03    CP:  8.45D-01  2.30D+00 -3.42D-01
 E= -503.831377343753     Delta-E=        0.711039027663 Rises=F Damp=F
 DIIS: error= 3.78D-02 at cycle   4 NSaved=   4.
 NSaved= 4 IEnMin= 3 EnMin= -504.542416371417     IErMin= 2 ErrMin= 1.82D-02
 ErrMax= 3.78D-02 EMaxC= 1.00D-01 BMatC= 3.38D+00 BMatP= 3.90D-01
 IDIUse=2 WtCom= 0.00D+00 WtEn= 1.00D+00
 Coeff-En:   0.000D+00 0.000D+00 0.705D+00 0.295D+00
 Coeff:      0.000D+00 0.000D+00 0.705D+00 0.295D+00
 Gap=     0.281 Goal=   None    Shift=    0.000
 Gap=     0.055 Goal=   None    Shift=    0.000
 RMSDP=9.14D-03 MaxDP=7.43D-01 DE= 7.11D-01 OVMax= 9.29D-01

 Cycle   5  Pass 1  IDiag  1:
 RMSU=  2.95D-03    CP:  7.40D-01  1.14D+00  4.42D-01  4.75D-01
 E= -504.824917440920     Delta-E=       -0.993540097167 Rises=F Damp=F
 DIIS: error= 8.42D-03 at cycle   5 NSaved=   5.
 NSaved= 5 IEnMin= 5 EnMin= -504.824917440920     IErMin= 5 ErrMin= 8.42D-03
 ErrMax= 8.42D-03 EMaxC= 1.00D-01 BMatC= 9.97D-02 BMatP= 3.90D-01
 IDIUse=3 WtCom= 9.16D-01 WtEn= 8.42D-02
 Coeff-Com: -0.311D+00 0.530D+00 0.208D+00-0.164D-01 0.589D+00
 Coeff-En:   0.000D+00 0.000D+00 0.000D+00 0.000D+00 0.100D+01
 Coeff:     -0.285D+00 0.486D+00 0.190D+00-0.150D-01 0.624D+00
 Gap=     0.188 Goal=   None    Shift=    0.000
 Gap=     0.145 Goal=   None    Shift=    0.000
 RMSDP=1.78D-03 MaxDP=1.50D-01 DE=-9.94D-01 OVMax= 4.36D-02

 Cycle   6  Pass 1  IDiag  1:
 RMSU=  8.81D-04    CP:  7.10D-01  1.29D+00  5.60D-01  4.35D-01  9.18D-01
 E= -504.845902421369     Delta-E=       -0.020984980449 Rises=F Damp=F
 DIIS: error= 2.37D-03 at cycle   6 NSaved=   6.
 NSaved= 6 IEnMin= 6 EnMin= -504.845902421369     IErMin= 6 ErrMin= 2.37D-03
 ErrMax= 2.37D-03 EMaxC= 1.00D-01 BMatC= 1.75D-02 BMatP= 9.97D-02
 IDIUse=3 WtCom= 9.76D-01 WtEn= 2.37D-02
 Coeff-Com: -0.115D+00 0.156D+00 0.881D-01-0.160D-01 0.374D+00 0.514D+00
 Coeff-En:   0.000D+00 0.000D+00 0.000D+00 0.000D+00 0.000D+00 0.100D+01
 Coeff:     -0.113D+00 0.152D+00 0.860D-01-0.157D-01 0.365D+00 0.526D+00
 Gap=     0.214 Goal=   None    Shift=    0.000
 Gap=     0.160 Goal=   None    Shift=    0.000
 RMSDP=6.54D-04 MaxDP=6.36D-02 DE=-2.10D-02 OVMax= 4.07D-02

 Cycle   7  Pass 1  IDiag  1:
 RMSU=  4.82D-04    CP:  7.07D-01  1.31D+00  5.73D-01  4.61D-01  9.35D-01
                    CP:  9.50D-01
 E= -504.849626730924     Delta-E=       -0.003724309554 Rises=F Damp=F
 DIIS: error= 1.30D-03 at cycle   7 NSaved=   7.
 NSaved= 7 IEnMin= 7 EnMin= -504.849626730924     IErMin= 7 ErrMin= 1.30D-03
 ErrMax= 1.30D-03 EMaxC= 1.00D-01 BMatC= 3.33D-03 BMatP= 1.75D-02
 IDIUse=3 WtCom= 9.87D-01 WtEn= 1.30D-02
 Coeff-Com:  0.306D-01-0.288D-01-0.826D-02-0.231D-02-0.113D+00 0.211D+00
 Coeff-Com:  0.911D+00
 Coeff-En:   0.000D+00 0.000D+00 0.000D+00 0.000D+00 0.000D+00 0.000D+00
 Coeff-En:   0.100D+01
 Coeff:      0.302D-01-0.284D-01-0.815D-02-0.228D-02-0.111D+00 0.208D+00
 Coeff:      0.912D+00
 Gap=     0.209 Goal=   None    Shift=    0.000
 Gap=     0.181 Goal=   None    Shift=    0.000
 RMSDP=4.64D-04 MaxDP=5.14D-02 DE=-3.72D-03 OVMax= 1.57D-02

 Cycle   8  Pass 1  IDiag  1:
 RMSU=  2.30D-04    CP:  7.02D-01  1.30D+00  5.95D-01  4.51D-01  9.42D-01
                    CP:  1.12D+00  1.18D+00
 E= -504.850507715263     Delta-E=       -0.000880984340 Rises=F Damp=F
 DIIS: error= 4.56D-04 at cycle   8 NSaved=   8.
 NSaved= 8 IEnMin= 8 EnMin= -504.850507715263     IErMin= 8 ErrMin= 4.56D-04
 ErrMax= 4.56D-04 EMaxC= 1.00D-01 BMatC= 5.54D-04 BMatP= 3.33D-03
 IDIUse=3 WtCom= 9.95D-01 WtEn= 4.56D-03
 Coeff-Com:  0.291D-01-0.344D-01-0.896D-02 0.255D-02-0.964D-01 0.150D-01
 Coeff-Com:  0.446D+00 0.647D+00
 Coeff-En:   0.000D+00 0.000D+00 0.000D+00 0.000D+00 0.000D+00 0.000D+00
 Coeff-En:   0.000D+00 0.100D+01
 Coeff:      0.290D-01-0.343D-01-0.892D-02 0.254D-02-0.959D-01 0.149D-01
 Coeff:      0.444D+00 0.649D+00
 Gap=     0.213 Goal=   None    Shift=    0.000
 Gap=     0.182 Goal=   None    Shift=    0.000
 RMSDP=1.72D-04 MaxDP=1.48D-02 DE=-8.81D-04 OVMax= 6.96D-03

 Cycle   9  Pass 1  IDiag  1:
 RMSU=  8.54D-05    CP:  7.02D-01  1.29D+00  5.95D-01  4.57D-01  9.42D-01
                    CP:  1.16D+00  1.21D+00  6.99D-01
 E= -504.850635497046     Delta-E=       -0.000127781783 Rises=F Damp=F
 DIIS: error= 1.62D-04 at cycle   9 NSaved=   9.
 NSaved= 9 IEnMin= 9 EnMin= -504.850635497046     IErMin= 9 ErrMin= 1.62D-04
 ErrMax= 1.62D-04 EMaxC= 1.00D-01 BMatC= 6.45D-05 BMatP= 5.54D-04
 IDIUse=3 WtCom= 9.98D-01 WtEn= 1.62D-03
 Coeff-Com:  0.104D-02-0.390D-03-0.127D-02 0.804D-03-0.121D-01-0.288D-01
 Coeff-Com:  0.225D-01 0.269D+00 0.750D+00
 Coeff-En:   0.000D+00 0.000D+00 0.000D+00 0.000D+00 0.000D+00 0.000D+00
 Coeff-En:   0.000D+00 0.000D+00 0.100D+01
 Coeff:      0.104D-02-0.390D-03-0.126D-02 0.803D-03-0.121D-01-0.288D-01
 Coeff:      0.225D-01 0.268D+00 0.750D+00
 Gap=     0.213 Goal=   None    Shift=    0.000
 Gap=     0.181 Goal=   None    Shift=    0.000
 RMSDP=5.49D-05 MaxDP=5.17D-03 DE=-1.28D-04 OVMax= 1.32D-03

 Cycle  10  Pass 1  IDiag  1:
 RMSU=  2.30D-05    CP:  7.02D-01  1.29D+00  5.97D-01  4.55D-01  9.43D-01
                    CP:  1.15D+00  1.24D+00  7.62D-01  7.87D-01
 E= -504.850652316386     Delta-E=       -0.000016819340 Rises=F Damp=F
 DIIS: error= 4.38D-05 at cycle  10 NSaved=  10.
 NSaved=10 IEnMin=10 EnMin= -504.850652316386     IErMin=10 ErrMin= 4.38D-05
 ErrMax= 4.38D-05 EMaxC= 1.00D-01 BMatC= 5.23D-06 BMatP= 6.45D-05
 IDIUse=1 WtCom= 1.00D+00 WtEn= 0.00D+00
 Coeff-Com: -0.201D-02 0.252D-02 0.114D-03 0.336D-03 0.393D-02-0.945D-02
 Coeff-Com: -0.257D-01 0.349D-01 0.228D+00 0.767D+00
 Coeff:     -0.201D-02 0.252D-02 0.114D-03 0.336D-03 0.393D-02-0.945D-02
 Coeff:     -0.257D-01 0.349D-01 0.228D+00 0.767D+00
 Gap=     0.213 Goal=   None    Shift=    0.000
 Gap=     0.181 Goal=   None    Shift=    0.000
 RMSDP=1.74D-05 MaxDP=1.47D-03 DE=-1.68D-05 OVMax= 6.29D-04

 Cycle  11  Pass 1  IDiag  1:
 RMSU=  9.52D-06    CP:  7.02D-01  1.29D+00  5.95D-01  4.55D-01  9.43D-01
                    CP:  1.15D+00  1.23D+00  7.61D-01  8.13D-01  9.02D-01
 E= -504.850653692260     Delta-E=       -0.000001375874 Rises=F Damp=F
 DIIS: error= 2.68D-05 at cycle  11 NSaved=  11.
 NSaved=11 IEnMin=11 EnMin= -504.850653692260     IErMin=11 ErrMin= 2.68D-05
 ErrMax= 2.68D-05 EMaxC= 1.00D-01 BMatC= 1.40D-06 BMatP= 5.23D-06
 IDIUse=1 WtCom= 1.00D+00 WtEn= 0.00D+00
 Coeff-Com: -0.709D-03 0.687D-03 0.895D-04 0.148D-03 0.322D-02 0.145D-02
 Coeff-Com: -0.138D-01-0.353D-01-0.466D-01 0.354D+00 0.737D+00
 Coeff:     -0.709D-03 0.687D-03 0.895D-04 0.148D-03 0.322D-02 0.145D-02
 Coeff:     -0.138D-01-0.353D-01-0.466D-01 0.354D+00 0.737D+00
 Gap=     0.213 Goal=   None    Shift=    0.000
 Gap=     0.181 Goal=   None    Shift=    0.000
 RMSDP=5.50D-06 MaxDP=3.41D-04 DE=-1.38D-06 OVMax= 2.92D-04

 Cycle  12  Pass 1  IDiag  1:
 RMSU=  3.39D-06    CP:  7.02D-01  1.29D+00  5.95D-01  4.55D-01  9.43D-01
                    CP:  1.15D+00  1.24D+00  7.62D-01  8.12D-01  9.47D-01
                    CP:  1.07D+00
 E= -504.850654138055     Delta-E=       -0.000000445794 Rises=F Damp=F
 DIIS: error= 6.18D-06 at cycle  12 NSaved=  12.
 NSaved=12 IEnMin=12 EnMin= -504.850654138055     IErMin=12 ErrMin= 6.18D-06
 ErrMax= 6.18D-06 EMaxC= 1.00D-01 BMatC= 1.46D-07 BMatP= 1.40D-06
 IDIUse=1 WtCom= 1.00D+00 WtEn= 0.00D+00
 Coeff-Com:  0.188D-03-0.299D-03-0.906D-04 0.468D-04 0.264D-03 0.177D-02
 Coeff-Com: -0.590D-03-0.171D-01-0.506D-01 0.808D-02 0.265D+00 0.793D+00
 Coeff:      0.188D-03-0.299D-03-0.906D-04 0.468D-04 0.264D-03 0.177D-02
 Coeff:     -0.590D-03-0.171D-01-0.506D-01 0.808D-02 0.265D+00 0.793D+00
 Gap=     0.213 Goal=   None    Shift=    0.000
 Gap=     0.181 Goal=   None    Shift=    0.000
 RMSDP=3.02D-06 MaxDP=3.20D-04 DE=-4.46D-07 OVMax= 1.63D-04

 Cycle  13  Pass 1  IDiag  1:
 RMSU=  1.66D-06    CP:  7.02D-01  1.29D+00  5.95D-01  4.56D-01  9.43D-01
                    CP:  1.15D+00  1.24D+00  7.59D-01  8.16D-01  9.69D-01
                    CP:  1.08D+00  8.66D-01
 E= -504.850654193877     Delta-E=       -0.000000055823 Rises=F Damp=F
 DIIS: error= 1.70D-06 at cycle  13 NSaved=  13.
 NSaved=13 IEnMin=13 EnMin= -504.850654193877     IErMin=13 ErrMin= 1.70D-06
 ErrMax= 1.70D-06 EMaxC= 1.00D-01 BMatC= 1.17D-08 BMatP= 1.46D-07
 IDIUse=1 WtCom= 1.00D+00 WtEn= 0.00D+00
 Coeff-Com:  0.718D-04-0.835D-04-0.179D-04 0.223D-05-0.105D-03 0.326D-03
 Coeff-Com:  0.922D-03-0.129D-02-0.795D-02-0.280D-01-0.870D-03 0.189D+00
 Coeff-Com:  0.848D+00
 Coeff:      0.718D-04-0.835D-04-0.179D-04 0.223D-05-0.105D-03 0.326D-03
 Coeff:      0.922D-03-0.129D-02-0.795D-02-0.280D-01-0.870D-03 0.189D+00
 Coeff:      0.848D+00
 Gap=     0.213 Goal=   None    Shift=    0.000
 Gap=     0.181 Goal=   None    Shift=    0.000
 RMSDP=1.01D-06 MaxDP=7.94D-05 DE=-5.58D-08 OVMax= 6.91D-05

 Cycle  14  Pass 1  IDiag  1:
 RMSU=  4.74D-07    CP:  7.02D-01  1.29D+00  5.95D-01  4.56D-01  9.43D-01
                    CP:  1.15D+00  1.24D+00  7.60D-01  8.15D-01  9.70D-01
                    CP:  1.12D+00  9.66D-01  9.86D-01
 E= -504.850654200687     Delta-E=       -0.000000006810 Rises=F Damp=F
 DIIS: error= 1.02D-06 at cycle  14 NSaved=  14.
 NSaved=14 IEnMin=14 EnMin= -504.850654200687     IErMin=14 ErrMin= 1.02D-06
 ErrMax= 1.02D-06 EMaxC= 1.00D-01 BMatC= 3.62D-09 BMatP= 1.17D-08
 IDIUse=1 WtCom= 1.00D+00 WtEn= 0.00D+00
 Coeff-Com: -0.176D-04 0.481D-04 0.982D-05-0.997D-05-0.943D-04-0.161D-03
 Coeff-Com:  0.568D-03 0.229D-02 0.515D-02-0.135D-01-0.448D-01-0.564D-01
 Coeff-Com:  0.357D+00 0.750D+00
 Coeff:     -0.176D-04 0.481D-04 0.982D-05-0.997D-05-0.943D-04-0.161D-03
 Coeff:      0.568D-03 0.229D-02 0.515D-02-0.135D-01-0.448D-01-0.564D-01
 Coeff:      0.357D+00 0.750D+00
 Gap=     0.213 Goal=   None    Shift=    0.000
 Gap=     0.181 Goal=   None    Shift=    0.000
 RMSDP=4.27D-07 MaxDP=3.80D-05 DE=-6.81D-09 OVMax= 3.97D-05

 Cycle  15  Pass 1  IDiag  1:
 RMSU=  2.11D-07    CP:  7.02D-01  1.29D+00  5.95D-01  4.56D-01  9.43D-01
                    CP:  1.15D+00  1.24D+00  7.59D-01  8.15D-01  9.70D-01
                    CP:  1.12D+00  9.86D-01  1.08D+00  1.15D+00
 E= -504.850654202738     Delta-E=       -0.000000002051 Rises=F Damp=F
 DIIS: error= 4.77D-07 at cycle  15 NSaved=  15.
 NSaved=15 IEnMin=15 EnMin= -504.850654202738     IErMin=15 ErrMin= 4.77D-07
 ErrMax= 4.77D-07 EMaxC= 1.00D-01 BMatC= 5.94D-10 BMatP= 3.62D-09
 IDIUse=1 WtCom= 1.00D+00 WtEn= 0.00D+00
 Coeff-Com: -0.186D-04 0.216D-04 0.794D-05-0.268D-05 0.327D-05-0.138D-03
 Coeff-Com: -0.982D-04 0.916D-03 0.340D-02 0.315D-02-0.135D-01-0.637D-01
 Coeff-Com: -0.955D-01 0.222D+00 0.943D+00
 Coeff:     -0.186D-04 0.216D-04 0.794D-05-0.268D-05 0.327D-05-0.138D-03
 Coeff:     -0.982D-04 0.916D-03 0.340D-02 0.315D-02-0.135D-01-0.637D-01
 Coeff:     -0.955D-01 0.222D+00 0.943D+00
 Gap=     0.213 Goal=   None    Shift=    0.000
 Gap=     0.181 Goal=   None    Shift=    0.000
 RMSDP=2.90D-07 MaxDP=2.27D-05 DE=-2.05D-09 OVMax= 2.73D-05

 Cycle  16  Pass 1  IDiag  1:
 RMSU=  8.64D-08    CP:  7.02D-01  1.29D+00  5.95D-01  4.56D-01  9.43D-01
                    CP:  1.15D+00  1.24D+00  7.60D-01  8.15D-01  9.71D-01
                    CP:  1.12D+00  9.95D-01  1.16D+00  1.34D+00  1.18D+00
 E= -504.850654203282     Delta-E=       -0.000000000544 Rises=F Damp=F
 DIIS: error= 1.59D-07 at cycle  16 NSaved=  16.
 NSaved=16 IEnMin=16 EnMin= -504.850654203282     IErMin=16 ErrMin= 1.59D-07
 ErrMax= 1.59D-07 EMaxC= 1.00D-01 BMatC= 7.81D-11 BMatP= 5.94D-10
 IDIUse=1 WtCom= 1.00D+00 WtEn= 0.00D+00
 Coeff-Com:  0.346D-05-0.802D-05-0.191D-05 0.951D-06 0.305D-05 0.113D-04
 Coeff-Com: -0.107D-03-0.176D-03-0.355D-03 0.271D-02 0.523D-02 0.435D-03
 Coeff-Com: -0.773D-01-0.103D+00 0.155D+00 0.102D+01
 Coeff:      0.346D-05-0.802D-05-0.191D-05 0.951D-06 0.305D-05 0.113D-04
 Coeff:     -0.107D-03-0.176D-03-0.355D-03 0.271D-02 0.523D-02 0.435D-03
 Coeff:     -0.773D-01-0.103D+00 0.155D+00 0.102D+01
 Gap=     0.213 Goal=   None    Shift=    0.000
 Gap=     0.181 Goal=   None    Shift=    0.000
 RMSDP=1.20D-07 MaxDP=8.09D-06 DE=-5.44D-10 OVMax= 1.23D-05

 Cycle  17  Pass 1  IDiag  1:
 RMSU=  3.34D-08    CP:  7.02D-01  1.29D+00  5.95D-01  4.56D-01  9.43D-01
                    CP:  1.15D+00  1.24D+00  7.60D-01  8.15D-01  9.72D-01
                    CP:  1.12D+00  1.00D+00  1.17D+00  1.44D+00  1.33D+00
                    CP:  1.12D+00
 E= -504.850654203355     Delta-E=       -0.000000000073 Rises=F Damp=F
 DIIS: error= 4.45D-08 at cycle  17 NSaved=  17.
 NSaved=17 IEnMin=17 EnMin= -504.850654203355     IErMin=17 ErrMin= 4.45D-08
 ErrMax= 4.45D-08 EMaxC= 1.00D-01 BMatC= 9.41D-12 BMatP= 7.81D-11
 IDIUse=1 WtCom= 1.00D+00 WtEn= 0.00D+00
 Coeff-Com:  0.218D-05-0.326D-05-0.101D-05 0.327D-06 0.263D-05 0.176D-04
 Coeff-Com: -0.185D-04-0.133D-03-0.413D-03 0.423D-03 0.281D-02 0.644D-02
 Coeff-Com: -0.133D-01-0.516D-01-0.532D-01 0.305D+00 0.804D+00
 Coeff:      0.218D-05-0.326D-05-0.101D-05 0.327D-06 0.263D-05 0.176D-04
 Coeff:     -0.185D-04-0.133D-03-0.413D-03 0.423D-03 0.281D-02 0.644D-02
 Coeff:     -0.133D-01-0.516D-01-0.532D-01 0.305D+00 0.804D+00
 Gap=     0.213 Goal=   None    Shift=    0.000
 Gap=     0.181 Goal=   None    Shift=    0.000
 RMSDP=3.35D-08 MaxDP=3.20D-06 DE=-7.32D-11 OVMax= 2.49D-06

 Cycle  18  Pass 1  IDiag  1:
 RMSU=  1.18D-08    CP:  7.02D-01  1.29D+00  5.95D-01  4.56D-01  9.43D-01
                    CP:  1.15D+00  1.24D+00  7.60D-01  8.15D-01  9.72D-01
                    CP:  1.12D+00  1.00D+00  1.18D+00  1.45D+00  1.36D+00
                    CP:  1.21D+00  9.34D-01
 E= -504.850654203363     Delta-E=       -0.000000000008 Rises=F Damp=F
 DIIS: error= 2.36D-08 at cycle  18 NSaved=  18.
 NSaved=18 IEnMin=18 EnMin= -504.850654203363     IErMin=18 ErrMin= 2.36D-08
 ErrMax= 2.36D-08 EMaxC= 1.00D-01 BMatC= 2.42D-12 BMatP= 9.41D-12
 IDIUse=1 WtCom= 1.00D+00 WtEn= 0.00D+00
 Coeff-Com:  0.220D-06 0.126D-06-0.915D-07-0.801D-07 0.135D-05 0.586D-05
 Coeff-Com:  0.790D-05-0.362D-04-0.128D-03-0.185D-03 0.531D-03 0.290D-02
 Coeff-Com:  0.462D-02-0.825D-02-0.473D-01-0.946D-02 0.366D+00 0.691D+00
 Coeff:      0.220D-06 0.126D-06-0.915D-07-0.801D-07 0.135D-05 0.586D-05
 Coeff:      0.790D-05-0.362D-04-0.128D-03-0.185D-03 0.531D-03 0.290D-02
 Coeff:      0.462D-02-0.825D-02-0.473D-01-0.946D-02 0.366D+00 0.691D+00
 Gap=     0.213 Goal=   None    Shift=    0.000
 Gap=     0.181 Goal=   None    Shift=    0.000
 RMSDP=9.92D-09 MaxDP=1.06D-06 DE=-7.96D-12 OVMax= 7.03D-07

 Cycle  19  Pass 1  IDiag  1:
 RMSU=  4.69D-09    CP:  7.02D-01  1.29D+00  5.95D-01  4.56D-01  9.43D-01
                    CP:  1.15D+00  1.24D+00  7.60D-01  8.15D-01  9.72D-01
                    CP:  1.12D+00  1.00D+00  1.18D+00  1.45D+00  1.37D+00
                    CP:  1.23D+00  9.99D-01  8.92D-01
 E= -504.850654203363     Delta-E=        0.000000000000 Rises=F Damp=F
 DIIS: error= 7.78D-09 at cycle  19 NSaved=  19.
 NSaved=19 IEnMin=18 EnMin= -504.850654203363     IErMin=19 ErrMin= 7.78D-09
 ErrMax= 7.78D-09 EMaxC= 1.00D-01 BMatC= 2.24D-13 BMatP= 2.42D-12
 IDIUse=1 WtCom= 1.00D+00 WtEn= 0.00D+00
 Coeff-Com: -0.242D-06 0.423D-06 0.114D-06-0.873D-07 0.127D-07-0.158D-05
 Coeff-Com:  0.471D-05 0.857D-05 0.276D-04-0.104D-03-0.276D-03-0.754D-04
 Coeff-Com:  0.312D-02 0.533D-02-0.544D-02-0.485D-01-0.167D-01 0.211D+00
 Coeff-Com:  0.852D+00
 Coeff:     -0.242D-06 0.423D-06 0.114D-06-0.873D-07 0.127D-07-0.158D-05
 Coeff:      0.471D-05 0.857D-05 0.276D-04-0.104D-03-0.276D-03-0.754D-04
 Coeff:      0.312D-02 0.533D-02-0.544D-02-0.485D-01-0.167D-01 0.211D+00
 Coeff:      0.852D+00
 Gap=     0.213 Goal=   None    Shift=    0.000
 Gap=     0.181 Goal=   None    Shift=    0.000
 RMSDP=3.72D-09 MaxDP=3.08D-07 DE= 2.27D-13 OVMax= 2.52D-07

 SCF Done:  E(UB3LYP) =  -504.850654203     A.U. after   19 cycles
             Convg  =    0.3716D-08             -V/T =  2.0045
 <Sx>= 0.0000 <Sy>= 0.0000 <Sz>= 0.5000 <S**2>= 0.7538 S= 0.5019
 <L.S>= 0.000000000000E+00
 KE= 5.025970698173D+02 PE=-2.492378198052D+03 EE= 8.268859308661D+02
 Annihilation of the first spin contaminant:
 S**2 before annihilation     0.7538,   after     0.7500
 Leave Link  502 at Mon Feb 10 16:48:59 2014, MaxMem= 4026531840 cpu:    3304.5
 (Enter /usr/caen/gaussian-09revc/g09/l601.exe)
 Copying SCF densities to generalized density rwf, IOpCl= 1 IROHF=0.

 **********************************************************************

            Population analysis using the SCF density.

 **********************************************************************

 Orbital symmetries:
 Alpha Orbitals:
       Occupied  (A) (A) (A) (A) (A) (A) (A) (A) (A) (A) (A) (A)
                 (A) (A) (A) (A) (A) (A) (A) (A) (A) (A) (A) (A)
                 (A) (A) (A) (A) (A) (A) (A) (A) (A) (A) (A) (A)
                 (A) (A) (A) (A) (A) (A) (A) (A) (A)
       Virtual   (A) (A) (A) (A) (A) (A) (A) (A) (A) (A) (A) (A)
                 (A) (A) (A) (A) (A) (A) (A) (A) (A) (A) (A) (A)
                 (A) (A) (A) (A) (A) (A) (A) (A) (A) (A) (A) (A)
                 (A) (A) (A) (A) (A) (A) (A) (A) (A) (A) (A) (A)
                 (A) (A) (A) (A) (A) (A) (A) (A) (A) (A) (A) (A)
                 (A) (A) (A) (A) (A) (A) (A) (A) (A) (A) (A) (A)
                 (A) (A) (A) (A) (A) (A) (A) (A) (A) (A) (A) (A)
                 (A) (A) (A) (A) (A) (A) (A) (A) (A) (A) (A) (A)
                 (A) (A) (A) (A) (A) (A) (A) (A) (A) (A) (A) (A)
                 (A) (A) (A) (A) (A) (A) (A) (A) (A) (A) (A) (A)
                 (A) (A) (A) (A) (A) (A) (A) (A) (A) (A) (A) (A)
                 (A) (A) (A) (A) (A) (A) (A) (A) (A) (A) (A) (A)
                 (A) (A) (A) (A) (A) (A) (A) (A) (A) (A) (A) (A)
                 (A) (A) (A) (A) (A) (A) (A) (A) (A) (A) (A) (A)
                 (A) (A) (A) (A) (A) (A) (A) (A) (A) (A) (A) (A)
                 (A) (A) (A) (A) (A) (A) (A) (A) (A) (A) (A) (A)
                 (A) (A) (A) (A) (A) (A) (A) (A) (A) (A) (A) (A)
                 (A) (A) (A) (A) (A) (A) (A) (A) (A) (A) (A) (A)
                 (A) (A) (A) (A) (A) (A) (A) (A) (A) (A) (A) (A)
                 (A) (A) (A) (A) (A) (A) (A) (A) (A) (A) (A) (A)
                 (A) (A) (A) (A) (A) (A) (A) (A) (A) (A) (A) (A)
                 (A) (A) (A) (A) (A) (A) (A) (A) (A) (A) (A) (A)
                 (A) (A) (A) (A) (A) (A) (A) (A) (A) (A) (A) (A)
                 (A) (A) (A) (A) (A) (A) (A) (A) (A) (A) (A) (A)
                 (A) (A) (A) (A) (A) (A) (A) (A) (A) (A) (A) (A)
                 (A) (A) (A) (A) (A) (A) (A) (A) (A) (A) (A) (A)
                 (A) (A) (A) (A) (A) (A) (A) (A) (A) (A) (A) (A)
                 (A) (A) (A) (A) (A) (A)
 Beta  Orbitals:
       Occupied  (A) (A) (A) (A) (A) (A) (A) (A) (A) (A) (A) (A)
                 (A) (A) (A) (A) (A) (A) (A) (A) (A) (A) (A) (A)
                 (A) (A) (A) (A) (A) (A) (A) (A) (A) (A) (A) (A)
                 (A) (A) (A) (A) (A) (A) (A) (A)
       Virtual   (A) (A) (A) (A) (A) (A) (A) (A) (A) (A) (A) (A)
                 (A) (A) (A) (A) (A) (A) (A) (A) (A) (A) (A) (A)
                 (A) (A) (A) (A) (A) (A) (A) (A) (A) (A) (A) (A)
                 (A) (A) (A) (A) (A) (A) (A) (A) (A) (A) (A) (A)
                 (A) (A) (A) (A) (A) (A) (A) (A) (A) (A) (A) (A)
                 (A) (A) (A) (A) (A) (A) (A) (A) (A) (A) (A) (A)
                 (A) (A) (A) (A) (A) (A) (A) (A) (A) (A) (A) (A)
                 (A) (A) (A) (A) (A) (A) (A) (A) (A) (A) (A) (A)
                 (A) (A) (A) (A) (A) (A) (A) (A) (A) (A) (A) (A)
                 (A) (A) (A) (A) (A) (A) (A) (A) (A) (A) (A) (A)
                 (A) (A) (A) (A) (A) (A) (A) (A) (A) (A) (A) (A)
                 (A) (A) (A) (A) (A) (A) (A) (A) (A) (A) (A) (A)
                 (A) (A) (A) (A) (A) (A) (A) (A) (A) (A) (A) (A)
                 (A) (A) (A) (A) (A) (A) (A) (A) (A) (A) (A) (A)
                 (A) (A) (A) (A) (A) (A) (A) (A) (A) (A) (A) (A)
                 (A) (A) (A) (A) (A) (A) (A) (A) (A) (A) (A) (A)
                 (A) (A) (A) (A) (A) (A) (A) (A) (A) (A) (A) (A)
                 (A) (A) (A) (A) (A) (A) (A) (A) (A) (A) (A) (A)
                 (A) (A) (A) (A) (A) (A) (A) (A) (A) (A) (A) (A)
                 (A) (A) (A) (A) (A) (A) (A) (A) (A) (A) (A) (A)
                 (A) (A) (A) (A) (A) (A) (A) (A) (A) (A) (A) (A)
                 (A) (A) (A) (A) (A) (A) (A) (A) (A) (A) (A) (A)
                 (A) (A) (A) (A) (A) (A) (A) (A) (A) (A) (A) (A)
                 (A) (A) (A) (A) (A) (A) (A) (A) (A) (A) (A) (A)
                 (A) (A) (A) (A) (A) (A) (A) (A) (A) (A) (A) (A)
                 (A) (A) (A) (A) (A) (A) (A) (A) (A) (A) (A) (A)
                 (A) (A) (A) (A) (A) (A) (A) (A) (A) (A) (A) (A)
                 (A) (A) (A) (A) (A) (A) (A)
 The electronic state is 2-A.
 Alpha  occ. eigenvalues --  -19.17836 -19.17796 -10.24153 -10.19063 -10.16960
 Alpha  occ. eigenvalues --  -10.16787 -10.16659 -10.15920 -10.15836 -10.15333
 Alpha  occ. eigenvalues --  -10.15330  -1.11632  -0.92491  -0.81425  -0.79138
 Alpha  occ. eigenvalues --   -0.75008  -0.69666  -0.68090  -0.67814  -0.60465
 Alpha  occ. eigenvalues --   -0.56561  -0.55611  -0.51667  -0.49148  -0.47497
 Alpha  occ. eigenvalues --   -0.46168  -0.45065  -0.44002  -0.42971  -0.42114
 Alpha  occ. eigenvalues --   -0.40623  -0.39321  -0.38470  -0.38215  -0.37674
 Alpha  occ. eigenvalues --   -0.36934  -0.35639  -0.34613  -0.33447  -0.32139
 Alpha  occ. eigenvalues --   -0.31863  -0.31494  -0.30729  -0.26780  -0.22862
 Alpha virt. eigenvalues --   -0.01568  -0.00647  -0.00070   0.00935   0.01619
 Alpha virt. eigenvalues --    0.02214   0.02371   0.02752   0.03254   0.04015
 Alpha virt. eigenvalues --    0.04102   0.04695   0.04960   0.05166   0.06272
 Alpha virt. eigenvalues --    0.06884   0.07061   0.07975   0.08196   0.08779
 Alpha virt. eigenvalues --    0.09221   0.10169   0.10196   0.10720   0.10905
 Alpha virt. eigenvalues --    0.11433   0.11741   0.12121   0.12261   0.12705
 Alpha virt. eigenvalues --    0.13375   0.13655   0.13809   0.14021   0.14193
 Alpha virt. eigenvalues --    0.14435   0.14587   0.14872   0.15312   0.15658
 Alpha virt. eigenvalues --    0.16103   0.16327   0.16548   0.17247   0.17386
 Alpha virt. eigenvalues --    0.17772   0.17965   0.18441   0.18626   0.19115
 Alpha virt. eigenvalues --    0.19315   0.19671   0.20078   0.20811   0.21296
 Alpha virt. eigenvalues --    0.21394   0.21976   0.22331   0.22623   0.22883
 Alpha virt. eigenvalues --    0.23885   0.24423   0.25065   0.25146   0.25427
 Alpha virt. eigenvalues --    0.26194   0.26402   0.26944   0.27812   0.28436
 Alpha virt. eigenvalues --    0.29063   0.29878   0.30628   0.31014   0.31329
 Alpha virt. eigenvalues --    0.32269   0.33159   0.33408   0.34018   0.34130
 Alpha virt. eigenvalues --    0.34935   0.35257   0.35878   0.36771   0.38254
 Alpha virt. eigenvalues --    0.38273   0.39517   0.40298   0.41321   0.42755
 Alpha virt. eigenvalues --    0.44185   0.44886   0.45283   0.46105   0.48304
 Alpha virt. eigenvalues --    0.49518   0.49647   0.51668   0.52011   0.53913
 Alpha virt. eigenvalues --    0.54322   0.55045   0.55852   0.56423   0.56945
 Alpha virt. eigenvalues --    0.58643   0.59668   0.61106   0.61859   0.62808
 Alpha virt. eigenvalues --    0.63272   0.63814   0.65119   0.65661   0.66675
 Alpha virt. eigenvalues --    0.67326   0.68211   0.68849   0.69269   0.69628
 Alpha virt. eigenvalues --    0.70272   0.71474   0.71820   0.72625   0.73463
 Alpha virt. eigenvalues --    0.74786   0.75017   0.75987   0.76116   0.77246
 Alpha virt. eigenvalues --    0.77796   0.78658   0.79713   0.80521   0.81383
 Alpha virt. eigenvalues --    0.83827   0.84090   0.86962   0.89294   0.91546
 Alpha virt. eigenvalues --    0.94978   0.95051   0.97933   0.99675   1.02376
 Alpha virt. eigenvalues --    1.02878   1.05646   1.07275   1.10041   1.10765
 Alpha virt. eigenvalues --    1.11312   1.13258   1.14855   1.15873   1.19042
 Alpha virt. eigenvalues --    1.20300   1.21358   1.22431   1.24465   1.27819
 Alpha virt. eigenvalues --    1.31973   1.32834   1.35045   1.37419   1.41106
 Alpha virt. eigenvalues --    1.42637   1.44966   1.46159   1.46584   1.46871
 Alpha virt. eigenvalues --    1.47690   1.48260   1.49846   1.50461   1.51935
 Alpha virt. eigenvalues --    1.52970   1.54084   1.57000   1.57358   1.58711
 Alpha virt. eigenvalues --    1.59639   1.60141   1.61016   1.61724   1.62035
 Alpha virt. eigenvalues --    1.63409   1.64340   1.65110   1.65838   1.66762
 Alpha virt. eigenvalues --    1.68006   1.69261   1.70539   1.70657   1.71541
 Alpha virt. eigenvalues --    1.73241   1.73612   1.75828   1.76436   1.77571
 Alpha virt. eigenvalues --    1.78257   1.79649   1.80242   1.80976   1.81782
 Alpha virt. eigenvalues --    1.84109   1.84544   1.90410   1.91132   1.93705
 Alpha virt. eigenvalues --    1.97116   1.98602   2.00655   2.01104   2.02364
 Alpha virt. eigenvalues --    2.04387   2.04702   2.06570   2.08479   2.10809
 Alpha virt. eigenvalues --    2.12530   2.14432   2.15598   2.17458   2.18808
 Alpha virt. eigenvalues --    2.20464   2.22146   2.23971   2.27985   2.28241
 Alpha virt. eigenvalues --    2.32501   2.34725   2.35563   2.37749   2.40850
 Alpha virt. eigenvalues --    2.41187   2.42644   2.47075   2.47485   2.49624
 Alpha virt. eigenvalues --    2.50606   2.51288   2.52152   2.52968   2.53324
 Alpha virt. eigenvalues --    2.54292   2.55811   2.56702   2.58072   2.59177
 Alpha virt. eigenvalues --    2.59254   2.60693   2.61525   2.62425   2.62557
 Alpha virt. eigenvalues --    2.64992   2.65211   2.67713   2.69327   2.70362
 Alpha virt. eigenvalues --    2.70651   2.72353   2.72713   2.75702   2.76810
 Alpha virt. eigenvalues --    2.77130   2.78798   2.80838   2.81566   2.83148
 Alpha virt. eigenvalues --    2.86881   2.89505   2.90107   2.92253   2.93162
 Alpha virt. eigenvalues --    2.96419   2.97170   2.99470   3.01981   3.03258
 Alpha virt. eigenvalues --    3.03564   3.05687   3.09385   3.13861   3.15319
 Alpha virt. eigenvalues --    3.17648   3.19000   3.24598   3.26824   3.34123
 Alpha virt. eigenvalues --    3.43922   3.51820   3.56932   3.72410   3.76658
 Alpha virt. eigenvalues --    3.78196   3.78946   3.80131   3.81206   3.81720
 Alpha virt. eigenvalues --    3.83064   3.84835   3.86097   3.88848   3.88951
 Alpha virt. eigenvalues --    4.00057   4.08051   4.10821   4.18012   4.27817
 Alpha virt. eigenvalues --    4.30536   4.31607   4.39333   4.91270   5.03958
 Alpha virt. eigenvalues --    5.14563   5.39078   5.52372   5.67014  23.75583
 Alpha virt. eigenvalues --   23.84011  23.85901  23.91472  23.92753  23.93193
 Alpha virt. eigenvalues --   23.97401  23.98356  23.99151  49.86775  49.93052
  Beta  occ. eigenvalues --  -19.17770 -19.17734 -10.24231 -10.17676 -10.16959
  Beta  occ. eigenvalues --  -10.16691 -10.16639 -10.15919 -10.15832 -10.15333
  Beta  occ. eigenvalues --  -10.15330  -1.11468  -0.92216  -0.81356  -0.78702
  Beta  occ. eigenvalues --   -0.74721  -0.68243  -0.68080  -0.66820  -0.60299
  Beta  occ. eigenvalues --   -0.55922  -0.55572  -0.51567  -0.48763  -0.47220
  Beta  occ. eigenvalues --   -0.45959  -0.44829  -0.43924  -0.42814  -0.42048
  Beta  occ. eigenvalues --   -0.40240  -0.39145  -0.38329  -0.38208  -0.37494
  Beta  occ. eigenvalues --   -0.36672  -0.35609  -0.34355  -0.33397  -0.32114
  Beta  occ. eigenvalues --   -0.31823  -0.31456  -0.30463  -0.26625
  Beta virt. eigenvalues --   -0.08511  -0.01420  -0.00530   0.00009   0.00959
  Beta virt. eigenvalues --    0.01756   0.02257   0.02499   0.02898   0.03444
  Beta virt. eigenvalues --    0.04031   0.04139   0.04784   0.04982   0.05211
  Beta virt. eigenvalues --    0.06307   0.06889   0.07182   0.08010   0.08205
  Beta virt. eigenvalues --    0.08840   0.09251   0.10200   0.10239   0.10893
  Beta virt. eigenvalues --    0.10982   0.11525   0.11909   0.12188   0.12291
  Beta virt. eigenvalues --    0.12828   0.13428   0.13729   0.13964   0.14045
  Beta virt. eigenvalues --    0.14309   0.14484   0.14705   0.14905   0.15384
  Beta virt. eigenvalues --    0.15768   0.16174   0.16400   0.16753   0.17300
  Beta virt. eigenvalues --    0.17432   0.17785   0.18058   0.18589   0.18682
  Beta virt. eigenvalues --    0.19196   0.19400   0.19771   0.20142   0.20834
  Beta virt. eigenvalues --    0.21373   0.21468   0.22068   0.22391   0.22709
  Beta virt. eigenvalues --    0.22922   0.23957   0.24531   0.25232   0.25341
  Beta virt. eigenvalues --    0.25550   0.26329   0.26655   0.27007   0.27960
  Beta virt. eigenvalues --    0.28489   0.29197   0.30011   0.30972   0.31160
  Beta virt. eigenvalues --    0.31352   0.32334   0.33230   0.33474   0.34063
  Beta virt. eigenvalues --    0.34180   0.35027   0.35259   0.35942   0.36870
  Beta virt. eigenvalues --    0.38330   0.38425   0.39806   0.40403   0.41364
  Beta virt. eigenvalues --    0.43043   0.44248   0.44970   0.45370   0.46174
  Beta virt. eigenvalues --    0.48435   0.49594   0.49837   0.51879   0.52045
  Beta virt. eigenvalues --    0.53980   0.54905   0.55199   0.55904   0.56516
  Beta virt. eigenvalues --    0.57024   0.58758   0.60184   0.61509   0.62729
  Beta virt. eigenvalues --    0.63440   0.63838   0.64819   0.65228   0.65997
  Beta virt. eigenvalues --    0.66887   0.67579   0.68317   0.68972   0.69331
  Beta virt. eigenvalues --    0.69794   0.70479   0.71746   0.71894   0.72701
  Beta virt. eigenvalues --    0.73600   0.74871   0.75141   0.76075   0.76304
  Beta virt. eigenvalues --    0.77360   0.77885   0.78936   0.80031   0.80592
  Beta virt. eigenvalues --    0.81561   0.83990   0.84645   0.87675   0.89518
  Beta virt. eigenvalues --    0.92491   0.95086   0.95386   0.98221   0.99777
  Beta virt. eigenvalues --    1.02422   1.02989   1.05902   1.07817   1.10402
  Beta virt. eigenvalues --    1.11039   1.12052   1.13799   1.15087   1.16156
  Beta virt. eigenvalues --    1.19130   1.20374   1.21598   1.22560   1.24580
  Beta virt. eigenvalues --    1.28037   1.32228   1.33394   1.35160   1.37561
  Beta virt. eigenvalues --    1.41451   1.42733   1.45020   1.46194   1.46671
  Beta virt. eigenvalues --    1.46901   1.47708   1.48372   1.50072   1.50563
  Beta virt. eigenvalues --    1.52531   1.53054   1.54405   1.57140   1.57409
  Beta virt. eigenvalues --    1.58761   1.60018   1.60375   1.61274   1.61841
  Beta virt. eigenvalues --    1.62175   1.63528   1.64633   1.65671   1.65891
  Beta virt. eigenvalues --    1.66843   1.68404   1.69869   1.70676   1.71071
  Beta virt. eigenvalues --    1.71641   1.73327   1.73750   1.75909   1.76506
  Beta virt. eigenvalues --    1.77885   1.78494   1.80243   1.80887   1.81524
  Beta virt. eigenvalues --    1.81823   1.84292   1.85453   1.90579   1.91210
  Beta virt. eigenvalues --    1.93887   1.97406   1.98757   2.01361   2.01810
  Beta virt. eigenvalues --    2.03218   2.04716   2.05270   2.06777   2.08552
  Beta virt. eigenvalues --    2.11095   2.12896   2.14535   2.15607   2.17570
  Beta virt. eigenvalues --    2.19028   2.20843   2.22418   2.24047   2.28113
  Beta virt. eigenvalues --    2.28327   2.32586   2.35043   2.35643   2.37798
  Beta virt. eigenvalues --    2.40896   2.41237   2.42711   2.47143   2.47519
  Beta virt. eigenvalues --    2.49653   2.50625   2.51360   2.52228   2.53013
  Beta virt. eigenvalues --    2.53348   2.54381   2.55890   2.56853   2.58168
  Beta virt. eigenvalues --    2.59240   2.59430   2.60947   2.61669   2.62629
  Beta virt. eigenvalues --    2.63066   2.65030   2.65335   2.68021   2.69608
  Beta virt. eigenvalues --    2.70499   2.70943   2.72415   2.72989   2.75747
  Beta virt. eigenvalues --    2.77032   2.77210   2.79085   2.81010   2.81745
  Beta virt. eigenvalues --    2.83237   2.86962   2.90190   2.92158   2.92882
  Beta virt. eigenvalues --    2.94052   2.96783   2.97469   2.99534   3.02236
  Beta virt. eigenvalues --    3.03284   3.03703   3.05820   3.09467   3.13952
  Beta virt. eigenvalues --    3.15433   3.17673   3.19110   3.24770   3.26976
  Beta virt. eigenvalues --    3.34366   3.44013   3.51838   3.57357   3.72544
  Beta virt. eigenvalues --    3.77561   3.78818   3.79035   3.80248   3.81326
  Beta virt. eigenvalues --    3.81940   3.83072   3.84872   3.86127   3.88898
  Beta virt. eigenvalues --    3.89092   4.00061   4.08155   4.11169   4.18224
  Beta virt. eigenvalues --    4.28394   4.30544   4.31773   4.39368   4.91370
  Beta virt. eigenvalues --    5.04066   5.14605   5.39213   5.52445   5.67113
  Beta virt. eigenvalues --   23.75518  23.84022  23.86924  23.91605  23.92927
  Beta virt. eigenvalues --   23.93538  23.97429  23.98357  23.99152  49.86842
  Beta virt. eigenvalues --   49.93124
          Condensed to atoms (all electrons):
              1          2          3          4          5          6
     1  C    7.220042   0.502362   0.381379   0.401131   1.042674  -0.058685
     2  H    0.502362   0.539765  -0.043579  -0.020068   0.010906  -0.007351
     3  H    0.381379  -0.043579   0.558526  -0.024930  -0.012988   0.011693
     4  H    0.401131  -0.020068  -0.024930   0.535072  -0.026667  -0.006125
     5  C    1.042674   0.010906  -0.012988  -0.026667  11.755658   0.410423
     6  H   -0.058685  -0.007351   0.011693  -0.006125   0.410423   0.574560
     7  H    0.006566   0.008366  -0.011891   0.004543   0.349232  -0.087883
     8  C   -0.626016  -0.021607   0.003099   0.013425  -2.193173  -0.057832
     9  H    0.019834   0.000007  -0.000761   0.000590  -0.158053  -0.016409
    10  H    0.020073   0.002293  -0.001197   0.001169  -0.061996  -0.006260
    11  C   -0.089470  -0.016170   0.004814  -0.000682  -0.332949   0.040837
    12  H    0.004998  -0.001032   0.001543  -0.000451  -0.001742   0.010792
    13  H    0.001402   0.002310  -0.000960   0.000169  -0.014404  -0.005308
    14  C    0.001897   0.001609  -0.000147  -0.000256  -0.280356  -0.039682
    15  H    0.000595  -0.000088   0.000073  -0.000081   0.001160   0.002029
    16  C   -0.004721  -0.000491   0.000294   0.000093  -0.130793   0.001758
    17  H    0.000012   0.000011  -0.000019   0.000010  -0.001215  -0.000995
    18  H    0.000025   0.000012  -0.000004  -0.000004  -0.003531  -0.000310
    19  H   -0.000358  -0.000063   0.000011   0.000006  -0.001967   0.001155
    20  C   -0.853021  -0.035677   0.057743  -0.025096  -0.854809   0.101598
    21  H   -0.013602   0.003308   0.003176  -0.005776   0.130509   0.000223
    22  H   -0.021475  -0.004676   0.000524   0.001278  -0.140871   0.001297
    23  C   -0.002993  -0.000029  -0.000052   0.000020   0.055904   0.000924
    24  H   -0.000224  -0.000021   0.000024   0.000002  -0.000485   0.000154
    25  H    0.000065   0.000020  -0.000008  -0.000015  -0.011966  -0.000350
    26  H    0.000641   0.000163  -0.000165   0.000054  -0.000708  -0.001007
    27  C   -1.314852  -0.072896  -0.092388  -0.011006  -3.034332  -0.059373
    28  O   -0.146381  -0.013635   0.015013  -0.010284  -0.064135   0.012873
    29  O   -0.084724  -0.001640   0.003505   0.001732  -0.322816  -0.011548
    30  H    0.048241  -0.003573   0.000853  -0.002567  -0.035258   0.004629
              7          8          9         10         11         12
     1  C    0.006566  -0.626016   0.019834   0.020073  -0.089470   0.004998
     2  H    0.008366  -0.021607   0.000007   0.002293  -0.016170  -0.001032
     3  H   -0.011891   0.003099  -0.000761  -0.001197   0.004814   0.001543
     4  H    0.004543   0.013425   0.000590   0.001169  -0.000682  -0.000451
     5  C    0.349232  -2.193173  -0.158053  -0.061996  -0.332949  -0.001742
     6  H   -0.087883  -0.057832  -0.016409  -0.006260   0.040837   0.010792
     7  H    0.652145  -0.015100   0.024722  -0.005034  -0.014775  -0.009032
     8  C   -0.015100   8.696840   0.515217   0.426074  -1.707537  -0.090859
     9  H    0.024722   0.515217   0.577038  -0.077730  -0.068470   0.013141
    10  H   -0.005034   0.426074  -0.077730   0.697682  -0.103981  -0.027365
    11  C   -0.014775  -1.707537  -0.068470  -0.103981   9.299634   0.471353
    12  H   -0.009032  -0.090859   0.013141  -0.027365   0.471353   0.640213
    13  H    0.004581  -0.094961  -0.020986   0.031018   0.412027  -0.093897
    14  C    0.010912   0.517115   0.029056   0.027437  -1.532149   0.013902
    15  H   -0.002368   0.017378   0.011432  -0.001910  -0.128657   0.029429
    16  C   -0.003944  -0.419102  -0.002301   0.002817   0.678721   0.002019
    17  H    0.000788   0.000682   0.000790   0.002558  -0.086133   0.002749
    18  H    0.000379   0.001352   0.000809  -0.000039   0.044851  -0.003748
    19  H   -0.000386  -0.003763  -0.000078  -0.001101  -0.011673   0.003088
    20  C   -0.100853   0.902212  -0.060706  -0.050684   0.121897   0.001071
    21  H   -0.002989  -0.021974  -0.002925   0.000504  -0.011202  -0.000025
    22  H    0.002403   0.063052   0.006570  -0.010507   0.016222   0.000994
    23  C    0.001431   0.136651  -0.020006   0.012735  -0.005110  -0.099951
    24  H   -0.000381  -0.005523  -0.002096   0.000812   0.051466  -0.005588
    25  H    0.000835   0.017698   0.004361  -0.002992  -0.090131   0.014935
    26  H    0.001333   0.023538  -0.004671   0.011177  -0.050395  -0.003041
    27  C    0.047873  -0.014503   0.049351   0.009080  -0.226669  -0.011310
    28  O    0.001309   0.010311   0.006522  -0.003030  -0.021213   0.000897
    29  O   -0.000459   0.235382   0.010352  -0.001303   0.017828  -0.001554
    30  H   -0.002846  -0.020655  -0.001305  -0.000541   0.005394   0.000527
             13         14         15         16         17         18
     1  C    0.001402   0.001897   0.000595  -0.004721   0.000012   0.000025
     2  H    0.002310   0.001609  -0.000088  -0.000491   0.000011   0.000012
     3  H   -0.000960  -0.000147   0.000073   0.000294  -0.000019  -0.000004
     4  H    0.000169  -0.000256  -0.000081   0.000093   0.000010  -0.000004
     5  C   -0.014404  -0.280356   0.001160  -0.130793  -0.001215  -0.003531
     6  H   -0.005308  -0.039682   0.002029   0.001758  -0.000995  -0.000310
     7  H    0.004581   0.010912  -0.002368  -0.003944   0.000788   0.000379
     8  C   -0.094961   0.517115   0.017378  -0.419102   0.000682   0.001352
     9  H   -0.020986   0.029056   0.011432  -0.002301   0.000790   0.000809
    10  H    0.031018   0.027437  -0.001910   0.002817   0.002558  -0.000039
    11  C    0.412027  -1.532149  -0.128657   0.678721  -0.086133   0.044851
    12  H   -0.093897   0.013902   0.029429   0.002019   0.002749  -0.003748
    13  H    0.671888  -0.027616  -0.023263   0.026202   0.004755   0.001508
    14  C   -0.027616   6.862533   0.538080  -0.338596   0.084547  -0.096452
    15  H   -0.023263   0.538080   0.618075  -0.065891   0.014556  -0.014320
    16  C    0.026202  -0.338596  -0.065891   5.863034   0.377484   0.401011
    17  H    0.004755   0.084547   0.014556   0.377484   0.566406  -0.032927
    18  H    0.001508  -0.096452  -0.014320   0.401011  -0.032927   0.564831
    19  H    0.000289  -0.049922  -0.012539   0.415721  -0.048123  -0.017711
    20  C   -0.002238  -0.020188   0.001712   0.004821  -0.000368  -0.000086
    21  H    0.000193  -0.002110   0.000103  -0.000608  -0.000040   0.000005
    22  H   -0.001608   0.002973   0.000296   0.001194   0.000015  -0.000032
    23  C    0.035962  -0.035711  -0.131684  -0.168260  -0.030496   0.000207
    24  H   -0.000849  -0.098981  -0.007231   0.004488   0.002798   0.000741
    25  H   -0.003841   0.071973   0.013501  -0.012591   0.010951   0.001208
    26  H    0.004945  -0.045914  -0.014091   0.006657  -0.004757   0.002654
    27  C   -0.019454  -0.126030   0.008481   0.001771   0.002159  -0.000781
    28  O   -0.001250  -0.002101   0.000456  -0.001382  -0.000084   0.000016
    29  O    0.004006   0.007531  -0.001583   0.001209   0.000024   0.000011
    30  H   -0.001072  -0.000620   0.000260   0.000043  -0.000007   0.000003
             19         20         21         22         23         24
     1  C   -0.000358  -0.853021  -0.013602  -0.021475  -0.002993  -0.000224
     2  H   -0.000063  -0.035677   0.003308  -0.004676  -0.000029  -0.000021
     3  H    0.000011   0.057743   0.003176   0.000524  -0.000052   0.000024
     4  H    0.000006  -0.025096  -0.005776   0.001278   0.000020   0.000002
     5  C   -0.001967  -0.854809   0.130509  -0.140871   0.055904  -0.000485
     6  H    0.001155   0.101598   0.000223   0.001297   0.000924   0.000154
     7  H   -0.000386  -0.100853  -0.002989   0.002403   0.001431  -0.000381
     8  C   -0.003763   0.902212  -0.021974   0.063052   0.136651  -0.005523
     9  H   -0.000078  -0.060706  -0.002925   0.006570  -0.020006  -0.002096
    10  H   -0.001101  -0.050684   0.000504  -0.010507   0.012735   0.000812
    11  C   -0.011673   0.121897  -0.011202   0.016222  -0.005110   0.051466
    12  H    0.003088   0.001071  -0.000025   0.000994  -0.099951  -0.005588
    13  H    0.000289  -0.002238   0.000193  -0.001608   0.035962  -0.000849
    14  C   -0.049922  -0.020188  -0.002110   0.002973  -0.035711  -0.098981
    15  H   -0.012539   0.001712   0.000103   0.000296  -0.131684  -0.007231
    16  C    0.415721   0.004821  -0.000608   0.001194  -0.168260   0.004488
    17  H   -0.048123  -0.000368  -0.000040   0.000015  -0.030496   0.002798
    18  H   -0.017711  -0.000086   0.000005  -0.000032   0.000207   0.000741
    19  H    0.580056   0.000097   0.000015   0.000035   0.020191   0.000761
    20  C    0.000097   7.440048   0.414425   0.442129   0.026463   0.001142
    21  H    0.000015   0.414425   0.510240  -0.020504   0.000455  -0.000101
    22  H    0.000035   0.442129  -0.020504   0.505368   0.000388   0.000244
    23  C    0.020191   0.026463   0.000455   0.000388   5.728535   0.411570
    24  H    0.000761   0.001142  -0.000101   0.000244   0.411570   0.569735
    25  H   -0.002291   0.000192   0.000206   0.000089   0.356122  -0.032205
    26  H   -0.002114  -0.005764  -0.000251  -0.001931   0.427618  -0.025858
    27  C   -0.000466  -0.954600  -0.148751  -0.017749  -0.049295  -0.002584
    28  O   -0.000007  -0.015829   0.023264   0.000192   0.003470   0.000019
    29  O   -0.000051   0.133616  -0.005901   0.005590   0.000358   0.000053
    30  H    0.000016  -0.012368  -0.000765   0.001169  -0.000170  -0.000009
             25         26         27         28         29         30
     1  C    0.000065   0.000641  -1.314852  -0.146381  -0.084724   0.048241
     2  H    0.000020   0.000163  -0.072896  -0.013635  -0.001640  -0.003573
     3  H   -0.000008  -0.000165  -0.092388   0.015013   0.003505   0.000853
     4  H   -0.000015   0.000054  -0.011006  -0.010284   0.001732  -0.002567
     5  C   -0.011966  -0.000708  -3.034332  -0.064135  -0.322816  -0.035258
     6  H   -0.000350  -0.001007  -0.059373   0.012873  -0.011548   0.004629
     7  H    0.000835   0.001333   0.047873   0.001309  -0.000459  -0.002846
     8  C    0.017698   0.023538  -0.014503   0.010311   0.235382  -0.020655
     9  H    0.004361  -0.004671   0.049351   0.006522   0.010352  -0.001305
    10  H   -0.002992   0.011177   0.009080  -0.003030  -0.001303  -0.000541
    11  C   -0.090131  -0.050395  -0.226669  -0.021213   0.017828   0.005394
    12  H    0.014935  -0.003041  -0.011310   0.000897  -0.001554   0.000527
    13  H   -0.003841   0.004945  -0.019454  -0.001250   0.004006  -0.001072
    14  C    0.071973  -0.045914  -0.126030  -0.002101   0.007531  -0.000620
    15  H    0.013501  -0.014091   0.008481   0.000456  -0.001583   0.000260
    16  C   -0.012591   0.006657   0.001771  -0.001382   0.001209   0.000043
    17  H    0.010951  -0.004757   0.002159  -0.000084   0.000024  -0.000007
    18  H    0.001208   0.002654  -0.000781   0.000016   0.000011   0.000003
    19  H   -0.002291  -0.002114  -0.000466  -0.000007  -0.000051   0.000016
    20  C    0.000192  -0.005764  -0.954600  -0.015829   0.133616  -0.012368
    21  H    0.000206  -0.000251  -0.148751   0.023264  -0.005901  -0.000765
    22  H    0.000089  -0.001931  -0.017749   0.000192   0.005590   0.001169
    23  C    0.356122   0.427618  -0.049295   0.003470   0.000358  -0.000170
    24  H   -0.032205  -0.025858  -0.002584   0.000019   0.000053  -0.000009
    25  H    0.562705  -0.042028   0.000149   0.000250  -0.000076   0.000002
    26  H   -0.042028   0.578239   0.009951  -0.001634   0.000068  -0.000034
    27  C    0.000149   0.009951  11.653945   0.150932   0.017326   0.021799
    28  O    0.000250  -0.001634   0.150932   8.089963  -0.037316  -0.019269
    29  O   -0.000076   0.000068   0.017326  -0.037316   8.025749   0.200824
    30  H    0.000002  -0.000034   0.021799  -0.019269   0.200824   0.561518
 Mulliken atomic charges:
              1
     1  C   -0.435416
     2  H    0.171464
     3  H    0.146820
     4  H    0.174714
     5  C   -0.071254
     6  H    0.184173
     7  H    0.140524
     8  C   -0.287421
     9  H    0.166709
    10  H    0.110240
    11  C   -0.667679
    12  H    0.137945
    13  H    0.110455
    14  C    0.527266
    15  H    0.146091
    16  C   -0.640653
    17  H    0.133869
    18  H    0.150325
    19  H    0.131171
    20  C   -0.656878
    21  H    0.150896
    22  H    0.167330
    23  C   -0.675247
    24  H    0.138127
    25  H    0.143231
    26  H    0.137325
    27  C    0.184219
    28  O    0.022064
    29  O   -0.196192
    30  H    0.255781
 Sum of Mulliken atomic charges =   0.00000
 Mulliken charges with hydrogens summed into heavy atoms:
              1
     1  C    0.057582
     5  C    0.253443
     8  C   -0.010472
    11  C   -0.419279
    14  C    0.673358
    16  C   -0.225289
    20  C   -0.338651
    23  C   -0.256564
    27  C    0.184219
    28  O    0.022064
    29  O    0.059589
 Sum of Mulliken charges with hydrogens summed into heavy atoms =   0.00000
          Atomic-Atomic Spin Densities.
              1          2          3          4          5          6
     1  C    0.189208   0.016245   0.005930   0.004193   0.162561  -0.029183
     2  H    0.016245   0.000200   0.000505   0.000785   0.007836  -0.003011
     3  H    0.005930   0.000505  -0.001116   0.000651   0.005534  -0.000674
     4  H    0.004193   0.000785   0.000651  -0.003036   0.002100   0.000018
     5  C    0.162561   0.007836   0.005534   0.002100   0.336104  -0.047559
     6  H   -0.029183  -0.003011  -0.000674   0.000018  -0.047559   0.026890
     7  H   -0.010002  -0.000500  -0.000122  -0.000028  -0.018737   0.002593
     8  C   -0.060518  -0.003942  -0.001928  -0.000039  -0.152188   0.029386
     9  H   -0.004861  -0.000316  -0.000167   0.000017  -0.015396   0.002889
    10  H    0.000497   0.000047   0.000154   0.000085  -0.003868  -0.000764
    11  C    0.003316   0.000186   0.000035  -0.000133   0.048628  -0.011195
    12  H    0.000882   0.000041  -0.000008  -0.000005   0.003150  -0.000438
    13  H    0.001776   0.000200   0.000056  -0.000001   0.004873  -0.001722
    14  C    0.000159  -0.000060   0.000025  -0.000002  -0.006189   0.001986
    15  H   -0.000288  -0.000025  -0.000004   0.000003  -0.001888   0.000195
    16  C    0.000687   0.000055   0.000023  -0.000008   0.008754  -0.001767
    17  H    0.000054   0.000004   0.000002   0.000000   0.000419  -0.000086
    18  H   -0.000033  -0.000002  -0.000001   0.000000  -0.000369   0.000045
    19  H   -0.000048  -0.000005  -0.000001   0.000000  -0.000247   0.000063
    20  C   -0.068368  -0.002485  -0.002214   0.001193  -0.195791   0.017322
    21  H    0.005327  -0.000452  -0.000107  -0.000161   0.001116  -0.000041
    22  H   -0.012276  -0.000598   0.000164  -0.000255  -0.017090   0.000747
    23  C   -0.001294  -0.000059  -0.000022  -0.000007  -0.007024   0.001209
    24  H    0.000094   0.000004   0.000002  -0.000001   0.000989  -0.000081
    25  H   -0.000389  -0.000019  -0.000011   0.000002  -0.002451   0.000255
    26  H    0.000820   0.000044   0.000012  -0.000002   0.004032  -0.000364
    27  C   -0.146264  -0.012385  -0.006457  -0.005898  -0.099434   0.017626
    28  O   -0.045997  -0.003574  -0.000716  -0.000829  -0.056191   0.010255
    29  O    0.012313   0.000884   0.000227   0.000119   0.013463  -0.002715
    30  H   -0.002410  -0.000256  -0.000054  -0.000018  -0.001534   0.000438
              7          8          9         10         11         12
     1  C   -0.010002  -0.060518  -0.004861   0.000497   0.003316   0.000882
     2  H   -0.000500  -0.003942  -0.000316   0.000047   0.000186   0.000041
     3  H   -0.000122  -0.001928  -0.000167   0.000154   0.000035  -0.000008
     4  H   -0.000028  -0.000039   0.000017   0.000085  -0.000133  -0.000005
     5  C   -0.018737  -0.152188  -0.015396  -0.003868   0.048628   0.003150
     6  H    0.002593   0.029386   0.002889  -0.000764  -0.011195  -0.000438
     7  H   -0.001409   0.010068   0.000342  -0.000009   0.001003   0.000035
     8  C    0.010068   0.147396   0.008125   0.002403  -0.073837  -0.003207
[...]
 0.00004810,-0.00003051,0.00015585,0.00037314,-0.00014200,-0.00003673,-
 0.00641671,0.00091130,-0.00015613,0.00006036,0.00017790,0.00167012,-0.
 00016153,0.00118030,0.02645907,-0.00010879,0.01862705,-0.00017662,0.00
 115929,-0.00067257,0.00126900,0.00148273,0.00002210,-0.00016648,-0.000
 06080,-0.00002081,-0.00071616,-0.00013639,-0.00011721,0.00002766,0.000
 24592,-0.00041938,-0.00000204,-0.00000987,0.00001284,0.00000627,0.0000
 0628,-0.00000157,0.00001159,0.00000308,-0.00001038,-0.00109515,-0.0460
 8772,-0.00110984,-0.00043886,0.05099491,-0.00001730,-0.00000706,0.0000
 1183,0.00000428,0.00000130,0.00000058,0.00000449,0.00000044,0.00000077
 ,-0.00001379,0.00000163,-0.00000038,-0.00010490,-0.00018102,0.00006756
 ,0.00007218,-0.00001740,0.00004700,0.00002092,0.00000228,0.00001695,0.
 00037029,0.00026703,0.00001534,-0.00005561,0.00000904,0.00000581,-0.00
 007372,-0.00028952,-0.00003693,0.00027114,0.00235475,0.00027565,0.0003
 3172,-0.00002723,0.00052158,-0.00077928,0.00027721,-0.00006930,-0.0060
 9198,-0.00062822,-0.00560481,0.00034311,0.00025233,0.00054697,-0.00072
 608,-0.00067118,-0.00012693,-0.00010329,0.00000997,-0.00009360,0.00057
 917,0.00049102,0.00020023,0.00031289,-0.00013027,0.00019464,-0.0000231
 5,0.00001254,0.00000173,0.00000799,-0.00000208,-0.00000085,0.00000032,
 -0.00000045,-0.00000092,-0.11827262,-0.00025760,-0.12519385,0.13133187
 ,-0.00123582,0.13303250,0.00000037,-0.00000030,-0.00000263,-0.00000063
 ,-0.00000289,0.00000215,-0.00000465,-0.00000062,-0.00000544,0.00000411
 ,0.00000109,-0.00000120,0.00000939,-0.00000424,-0.00000239,0.00000691,
 0.00000551,-0.00000013,-0.00004194,0.00000156,-0.00005366,-0.00019822,
 -0.00004127,-0.00013909,0.00016312,-0.00015155,-0.00005321,-0.00009222
 ,0.00001101,0.00014971,0.00038215,0.00038344,0.00143301,0.00002967,-0.
 00004618,-0.00042411,0.00009023,-0.00023612,-0.00016063,-0.00261004,0.
 00509421,0.00681057,0.00025953,0.00174153,-0.00065131,0.00013640,-0.00
 076794,-0.00061677,0.00037981,-0.00006918,-0.00000084,0.00003300,-0.00
 004218,-0.00012517,-0.00012734,0.00005335,0.00002180,0.00003871,-0.000
 01450,-0.00000706,-0.00001936,-0.00000184,-0.00000578,-0.00000387,0.00
 000798,0.00001302,-0.05394960,0.02192594,0.03315714,0.00528335,-0.0157
 1600,-0.02247485,0.05377914,0.00001005,0.00000368,-0.00000590,-0.00000
 158,-0.00000012,-0.00000310,0.00000115,0.00000242,0.00000283,0.0000045
 0,-0.00000139,0.00000207,0.00003912,0.00004145,-0.00003530,-0.00000094
 ,0.00000072,-0.00000606,0.00003107,0.00000650,0.00002709,0.00012497,0.
 00000475,0.00013800,-0.00019142,-0.00001616,0.00009977,0.00008648,-0.0
 0001985,-0.00003282,-0.00110864,0.00124089,-0.00142863,0.00051001,0.00
 037835,0.00100517,-0.00034003,0.00038087,0.00025312,0.00553400,-0.0195
 9183,-0.02653474,0.00145598,-0.00570120,0.00244743,0.00066767,0.001281
 57,-0.00149961,-0.00060236,0.00004927,0.00099153,-0.00002593,-0.000052
 05,0.00006856,0.00001957,0.00046212,0.00037216,-0.00000420,-0.00000254
 ,0.00000802,0.00000142,0.00000427,-0.00000110,0.00000444,-0.00000032,-
 0.00000014,0.02182731,-0.12387225,-0.11394024,-0.00058167,-0.00049988,
 0.00031880,-0.02633413,0.13780580,0.00001841,0.00000401,-0.00001100,-0
 .00000377,0.00000153,-0.00000271,-0.00000006,0.00000134,0.00000703,0.0
 0001050,-0.00000155,0.00000109,-0.00002856,-0.00002834,-0.00004324,0.0
 0001153,0.00000352,0.00001422,0.00002075,0.00000435,0.00004395,0.00011
 971,-0.00009109,0.00010129,-0.00004590,0.00010294,-0.00000584,0.000040
 06,-0.00009247,-0.00013595,-0.00009778,0.00039367,0.00111400,0.0005071
 2,-0.00026753,0.00032666,0.00017942,-0.00004772,0.00021435,-0.00114221
 ,0.00438009,0.00637392,-0.00059566,0.00205057,0.00094781,-0.00032409,0
 .00009820,0.00094745,-0.00027891,-0.00037803,0.00018303,0.00008433,-0.
 00000043,-0.00009698,-0.00013294,-0.00012542,0.00021166,-0.00001666,0.
 00000293,-0.00000858,0.00001570,0.00000227,0.00001295,-0.00000500,-0.0
 0001105,-0.00000632,0.03304385,-0.11409541,-0.21606335,0.00339060,-0.0
 0889915,-0.01442874,-0.03634968,0.12602538,0.23427685,0.00002244,0.000
 01077,-0.00001839,-0.00000586,0.00000226,-0.00000040,-0.00000358,-0.00
 000188,-0.00000039,0.00001580,-0.00000242,0.00000258,0.00005661,0.0001
 5862,-0.00009278,-0.00003891,0.00002434,-0.00003165,0.00000818,-0.0000
 0075,0.00001054,-0.00108196,0.00007633,-0.00040997,-0.00002344,0.00001
 988,0.00008888,-0.00132860,0.00088981,-0.00074483,0.00018927,-0.000593
 16,-0.00013620,-0.00006135,0.00001090,-0.00003432,0.00014049,-0.000041
 35,0.00019170,0.00688322,0.00327318,-0.00539905,0.00042473,-0.00079985
 ,0.00001460,0.00008543,0.00084786,-0.00064193,-0.00004890,0.00010212,-
 0.00011696,0.00034707,0.00029419,0.00009330,0.00041202,0.00031087,-0.0
 0001912,0.00002913,-0.00000597,-0.00000706,-0.00000161,0.00000111,0.00
 000572,-0.00000943,-0.00000744,0.00001012,-0.18602778,-0.08080854,0.10
 308302,-0.01956848,-0.01066738,0.01510329,-0.00352616,-0.00114657,0.00
 156039,0.20308497,-0.00002101,-0.00000283,0.00001399,0.00000425,0.0000
 0160,0.00000208,0.00000364,-0.00000218,-0.00000274,-0.00001597,-0.0000
 0063,0.00000152,0.00024509,0.00032292,-0.00013717,-0.00016794,0.000024
 28,-0.00009636,-0.00006063,-0.00002788,-0.00006975,-0.00000749,-0.0001
 6570,0.00011958,0.00013429,-0.00018392,-0.00008397,0.00046052,0.000634
 62,0.00009466,-0.00074681,0.00084256,-0.00034563,0.00012985,-0.0000028
 2,-0.00000947,-0.00006050,0.00000496,-0.00016595,-0.02436493,-0.011524
 66,0.01626093,-0.00026733,0.00096158,-0.00078417,0.00323370,-0.0059478
 6,0.00101347,0.00008265,0.00015420,0.00022848,0.00022750,0.00016959,-0
 .00027933,-0.00148830,-0.00098162,0.00126406,-0.00001137,-0.00000378,0
 .00003418,-0.00000556,0.00000155,-0.00001927,0.00002110,0.00002239,-0.
 00000731,-0.07951305,-0.09341571,0.05871723,-0.00013135,-0.00070948,-0
 .00055291,0.01420467,0.00809964,-0.00902152,0.08806715,0.10170518,0.00
 002219,-0.00001082,-0.00002523,-0.00000166,-0.00000607,0.00000385,-0.0
 0000741,0.00000322,-0.00000529,0.00001961,0.00000396,0.00000002,-0.000
 18827,-0.00050559,0.00003025,0.00018708,-0.00004969,0.00013890,0.00000
 722,0.00004381,-0.00000308,0.00015862,0.00099436,0.00007812,-0.0000214
 4,-0.00015592,-0.00004323,-0.00079143,-0.00057169,0.00012893,0.0008152
 2,0.00014415,-0.00016047,0.00000226,0.00004605,0.00000102,-0.00010167,
 -0.00007333,0.00007573,0.00538307,0.00174691,-0.00517649,-0.00046143,-
 0.00000279,0.00061559,-0.00133057,0.00178420,0.00029432,-0.00031262,-0
 .00022333,0.00042392,0.00029766,0.00000158,0.00009628,0.00059641,0.000
 40309,0.00014869,0.00006787,-0.00003275,-0.00005685,-0.00002441,-0.000
 00273,0.00000572,-0.00003698,0.00000836,0.00004715,0.10207564,0.059245
 47,-0.12285220,-0.01323864,-0.00834281,0.01063885,0.01950131,0.0117069
 3,-0.01399881,-0.11253796,-0.06615825,0.12957290,-0.13582436,0.0237721
 1,-0.04022597,-0.00060702,-0.00034745,-0.00090558,0.00364661,-0.000652
 62,0.00503155,-0.02285839,0.00662205,-0.01940860,-0.12222130,-0.029214
 01,0.01991385,-0.00359197,-0.00014714,0.00222718,-0.00169954,-0.001376
 91,0.00063849,-0.02654568,-0.00597023,0.00904216,0.00082348,0.00010740
 ,0.00078675,0.00107872,0.00022759,0.00037705,-0.00200653,0.00115605,-0
 .00374893,0.00007157,0.00024108,0.00014362,0.00023629,-0.00004929,-0.0
 0011807,-0.00042629,-0.00043020,0.00101794,0.00006471,-0.00003979,0.00
 000713,-0.00022271,-0.00000540,-0.00021029,-0.00000460,0.00001440,-0.0
 0001398,0.00000442,-0.00004584,0.00008099,-0.00001721,0.00000007,-0.00
 002005,-0.04975515,-0.00281039,-0.01567483,0.00186834,-0.00735096,0.00
 286164,0.00457620,0.01026285,-0.00500198,0.00006913,-0.00006457,0.0001
 3893,0.00013742,0.00002215,0.00002093,-0.00003970,0.00001206,-0.000013
 18,-0.00000998,0.00012257,-0.00014549,0.41564786,0.01610439,-0.0841878
 4,0.00960530,0.02647385,-0.00690591,0.02144472,-0.01452700,0.00213401,
 -0.01140584,-0.00429676,0.00028851,-0.00455188,-0.00530497,-0.07789659
 ,0.00386922,-0.02974195,-0.00877698,0.01654794,0.01585640,0.00298988,-
 0.00842831,0.00208948,0.00040951,-0.00286083,-0.00125858,-0.00009725,-
 0.00045527,0.00097752,-0.00063275,-0.00012317,0.00022281,-0.00084082,0
 .00006131,-0.00008051,0.00006612,0.00013641,0.00021173,0.00043417,-0.0
 0008660,0.00025100,0.00072976,0.00020477,0.00000150,-0.00005595,-0.000
 02953,0.00008239,-0.00004673,0.00004789,0.00000709,-0.00000403,-0.0000
 2001,0.00003653,0.00002103,-0.00001189,-0.00000921,-0.00001086,0.00002
 382,-0.00958956,-0.19298766,0.04393968,0.00132018,-0.01020440,0.008985
 82,-0.00037268,-0.00042229,-0.00179407,-0.00008631,0.00003058,-0.00014
 738,-0.00002562,0.00002118,-0.00000340,0.00002217,-0.00001970,-0.00002
 931,-0.00001025,0.00001680,0.00005498,-0.00387815,0.48275201,-0.041795
 47,0.01623453,-0.09715218,-0.00482413,0.00163337,-0.00543544,-0.017517
 32,0.00595687,-0.01541806,0.01250340,-0.00433994,0.00832606,0.01307670
 ,0.01757940,-0.07760767,0.00911095,0.00281008,-0.00590830,0.02048695,0
 .00677377,-0.01351175,-0.01298542,-0.00626062,0.01399445,-0.00155015,-
 0.00129588,-0.00131816,0.00017675,0.00034964,0.00047578,-0.00301108,0.
 00050920,-0.00479696,0.00028861,0.00022250,-0.00010112,0.00006744,-0.0
 0017448,-0.00002219,-0.00129369,-0.00046410,0.00135495,0.00005063,-0.0
 0007466,-0.00007514,-0.00042971,0.00014208,-0.00049271,0.00002417,0.00
 001188,0.00001421,-0.00027380,-0.00009649,0.00006386,0.00003860,-0.000
 03082,0.00002575,-0.01602926,0.04026918,-0.09308395,-0.00267493,-0.018
 71502,0.00798385,0.00318969,0.02263832,-0.00405133,-0.00002214,-0.0001
 6319,-0.00001478,-0.00010560,0.00004262,-0.00004502,0.00002655,0.00000
 269,-0.00000065,0.00005681,-0.00000139,0.00006706,0.03268960,-0.058675
 71,0.43081268,0.00576492,-0.01359757,-0.02289046,0.00089591,0.00031689
 ,0.00079756,-0.00337059,0.00121120,-0.00479430,0.00316790,-0.00052896,
 0.00113833,-0.00351761,0.01756379,0.03028875,0.00113594,-0.00043322,-0
 .00065098,-0.00576391,-0.00192692,0.00376420,0.00030772,-0.00057580,-0
 .00044241,-0.00056836,0.00110476,0.00148904,-0.00024145,0.00037205,0.0
 0003198,0.00045142,0.00080278,0.00088238,-0.00033895,-0.00022647,0.000
 06250,-0.00000124,-0.00008179,0.00005333,0.00028790,-0.00007075,0.0000
 3638,-0.00001232,0.00002440,-0.00004361,-0.00003876,0.00006970,-0.0000
 7084,0.00001277,0.00000069,0.00002524,-0.00009966,-0.00001433,-0.00002
 448,0.00002991,-0.00000564,0.00001014,0.00144777,0.00011265,-0.0013266
 4,-0.00037053,-0.00078633,0.00018975,-0.00008220,0.00051073,0.00039339
 ,-0.00005338,-0.00003121,-0.00005746,-0.00010321,0.00001872,-0.0000370
 8,0.00001954,0.00000416,0.00003134,0.00003575,-0.00006857,0.00006260,-
 0.05945013,-0.00085502,0.01676586,0.08944210,-0.00389107,0.00040352,-0
 .00533767,0.00021343,-0.00108434,0.00095692,-0.00007203,-0.00019779,0.
 00050607,-0.00002265,0.00013578,0.00040745,0.00495949,0.00103109,-0.00
 444911,0.00010288,-0.00092074,0.00039841,0.00008882,-0.00019075,0.0003
 4269,-0.00093557,0.00051939,-0.00015079,0.00021583,0.00029887,-0.00008
 448,0.00009380,-0.00019210,-0.00000334,0.00001821,-0.00001160,0.000118
 94,-0.00001363,0.00003127,0.00002775,-0.00003248,-0.00003713,0.0000098
 3,-0.00000106,0.00000453,-0.00000526,0.00000554,0.00000106,0.00000643,
 0.00000804,-0.00001882,0.00001536,-0.00000109,0.00000186,-0.00000443,0
 .00001596,0.00000320,0.00000007,-0.00000438,0.00000043,-0.00000273,0.0
 0224796,-0.03996355,-0.02578318,-0.00136216,-0.00322263,0.00102747,0.0
 0076597,0.00098405,-0.00155211,0.00002789,0.00001554,-0.00000017,0.000
 01329,-0.00000810,0.00000738,-0.00000456,-0.00000197,-0.00000087,-0.00
 000783,0.00000431,-0.00000565,0.01157853,-0.06411765,-0.03276232,-0.01
 810072,0.33413587,-0.00050050,-0.02380001,-0.03975696,0.00158639,0.000
 39961,0.00093243,-0.00657949,0.00261320,-0.00460207,0.00066271,-0.0002
 0150,0.00226264,0.01111769,-0.02184104,-0.03271780,-0.00165317,0.00014
 252,0.00071983,0.00612842,0.00273122,-0.00218449,-0.00240428,-0.000254
 59,-0.00020763,0.00108878,0.00055311,0.00123650,0.00020593,-0.00006670
 ,0.00001229,0.00019758,0.00022691,0.00053795,-0.00037316,0.00008196,0.
 00031664,-0.00003191,-0.00001649,-0.00007292,0.00003026,0.00008591,-0.
 00006650,0.00007529,0.00003756,0.00009360,0.00004252,-0.00003682,0.000
 05789,-0.00002270,0.00001370,0.00000783,0.00005514,0.00000506,0.000001
 21,-0.00001153,-0.00000109,-0.00001786,0.00114806,-0.00549236,0.008755
 23,0.00103017,0.00310431,-0.00149358,-0.00091979,0.00088714,0.00038418
 ,0.00006367,0.00003517,0.00000353,0.00004563,-0.00001470,0.00001878,-0
 .00003249,0.00001454,0.00002019,-0.00002291,-0.00001334,-0.00003078,0.
 01159986,0.01273154,-0.15801977,-0.03760403,0.00687733,0.28153141,-0.0
 0007309,-0.00118164,-0.00085816,0.00000533,-0.00127106,0.00071316,0.00
 037491,-0.00061661,0.00052409,-0.00004202,0.00002497,0.00007959,-0.001
 21981,0.00163062,0.00197702,-0.00041017,0.00163400,0.00007619,0.000299
 36,0.00046944,-0.00045257,0.00002230,0.00017533,-0.00034097,-0.0004974
 1,0.00005272,0.00006716,0.00008996,-0.00014628,-0.00001330,0.00014871,
 -0.00007161,0.00006598,0.00000266,0.00003181,0.00000603,-0.00002268,-0
 .00001609,-0.00003413,0.00002703,-0.00000419,-0.00003009,-0.00000266,0
 .00000475,0.00001466,0.00000667,0.00000566,-0.00000136,-0.00000341,0.0
 0000294,0.00000616,-0.00000620,-0.00000003,-0.00000344,0.00000139,-0.0
 0000452,-0.00000028,0.00126421,0.00118290,0.00233579,0.00041568,0.0006
 9216,0.00002401,-0.00016938,-0.00044290,0.00027493,0.00000819,0.000006
 17,-0.00000373,-0.00000963,-0.00000349,-0.00000291,-0.00000044,0.00000
 345,0.00000450,-0.00000011,-0.00001346,0.00001010,-0.00345358,0.007215
 33,-0.00879525,-0.04069077,0.01464741,0.01811505,0.51165574,0.00048075
 ,0.00166366,0.00091087,-0.00100322,0.00016419,-0.00144968,0.00044472,0
 .00052268,0.00075700,-0.00031117,-0.00051221,0.00001390,-0.00120281,0.
 00232227,-0.00001048,0.00168767,-0.00031826,-0.00096994,-0.00075434,0.
 00012202,0.00062411,0.00004508,-0.00040981,-0.00060087,0.00063126,0.00
 000954,0.00035644,-0.00026626,0.00032336,0.00013566,-0.00000694,0.0000
 8786,0.00038657,-0.00007502,-0.00001069,0.00005070,0.00004735,0.000058
 10,-0.00007976,0.00001879,-0.00005152,-0.00022129,0.00001875,0.0000237
 5,0.00006794,0.00004637,-0.00003073,0.00007599,-0.00001270,0.00000680,
 0.00000816,0.00005044,0.00000779,-0.00000379,-0.00000470,0.00003181,-0
 .00002836,-0.00197621,-0.00462477,-0.01078486,0.00239062,-0.00174685,0
 .00062378,-0.00086075,0.00134758,0.00050363,-0.00000796,-0.00000321,0.
 00006379,0.00005038,0.00000180,0.00000943,-0.00002566,0.00001536,0.000
 01351,-0.00000172,0.00002178,-0.00006723,-0.00453033,-0.03739632,0.004
 26689,-0.01933768,-0.19593562,0.03015546,-0.10584281,0.29389186,-0.001
 29424,0.00127179,-0.00190542,0.00006905,-0.00282262,0.00073682,0.00050
 274,-0.00147801,0.00088800,-0.00011895,-0.00034322,0.00005694,0.001741
 98,0.00085298,-0.00055392,0.00040112,-0.00243489,-0.00061195,-0.000517
 63,-0.00087124,0.00067703,0.00005937,-0.00048520,-0.00035383,-0.000062
 98,0.00014951,0.00005993,0.00016633,-0.00007441,0.00010336,0.00000956,
 0.00005071,0.00016135,-0.00003317,0.00000695,0.00002748,-0.00004576,-0
 .00004181,-0.00001143,-0.00000620,-0.00004386,-0.00013382,0.00000317,0
 .00002728,0.00004678,0.00002784,-0.00000300,0.00004069,-0.00001317,0.0
 0000736,0.00000899,0.00003494,0.00000133,0.00000234,-0.00000995,-0.000
 00665,-0.00001210,-0.00020149,-0.00368997,-0.00395381,0.00012261,-0.00
 103528,0.00075680,0.00036901,-0.00063487,0.00019623,0.00004106,0.00001
 792,0.00003047,0.00003558,-0.00001043,0.00000791,-0.00001658,0.0000089
 5,0.00001363,-0.00001546,-0.00000398,-0.00002893,-0.00347559,-0.026992
 62,0.01500407,0.02035981,0.04615520,-0.05751239,-0.12100186,0.00456225
 ,0.06967386,0.00023424,0.00029362,-0.00024886,0.00004810,-0.00009045,-
 0.00027903,-0.00022442,0.00002620,0.00008798,-0.00032510,-0.00034386,-
 0.00004484,-0.00025265,-0.00055204,-0.00032606,-0.00000549,0.00027396,
 -0.00010912,0.00018452,0.00015020,-0.00015277,0.00006766,-0.00002724,-
 0.00018566,0.00003163,-0.00010097,0.00015097,-0.00006103,0.00007528,0.
 00005351,0.00002577,-0.00001872,0.00004389,-0.00001278,0.00000898,0.00
 000466,0.00002427,0.00002079,-0.00003018,0.00000452,0.00001182,-0.0000
 1015,0.00000159,-0.00000313,0.00000574,0.00000492,-0.00000191,0.000008
 09,-0.00000092,-0.00000178,-0.00000288,0.00000578,0.00000199,0.0000010
 9,-0.00000018,0.00000362,-0.00000121,-0.00011709,-0.00050305,-0.000975
 71,0.00002488,-0.00035079,-0.00000240,-0.00002411,0.00013754,0.0000112
 9,-0.00000915,-0.00000317,0.00000683,0.00000589,0.00000262,0.00000199,
 -0.00000124,0.00000006,-0.00000378,0.00000103,0.00000731,-0.00000688,0
 .00050940,-0.00083582,0.00275524,0.01170352,-0.01055380,-0.00303718,-0
 .46772078,0.13030810,0.10286885,0.45587724,0.00017022,0.00064704,0.000
 02254,-0.00017473,0.00013153,-0.00068367,-0.00015668,0.00020207,0.0001
 3600,-0.00028996,-0.00029602,-0.00011959,-0.00029300,-0.00013144,0.000
 55190,0.00002767,0.00019665,-0.00027294,-0.00010364,0.00018426,0.00007
 655,0.00002468,-0.00009887,-0.00004998,0.00013251,-0.00008568,0.000174
 70,-0.00007989,0.00010407,0.00002794,0.00002852,0.00009182,-0.00007348
 ,-0.00003442,-0.00000418,0.00002490,0.00002188,-0.00000459,-0.00001140
 ,0.00002322,-0.00001286,0.00007127,0.00001283,0.00000877,-0.00000472,-
 0.00002442,0.00002724,-0.00003458,0.00000175,-0.00000095,0.00000653,-0
 .00003419,-0.00000548,-0.00000322,0.00001010,-0.00000786,0.00000675,-0
 .00048127,-0.00088833,-0.00123986,0.00000492,-0.00031029,0.00003771,0.
 00004113,0.00016389,-0.00008298,-0.00001343,-0.00001042,-0.00001947,-0
 .00002874,0.00000657,-0.00001101,0.00000669,0.00000159,0.00000558,0.00
 000573,-0.00001889,0.00002156,0.00277439,-0.00528985,0.00361160,0.0345
 2849,-0.03166799,-0.00895762,0.08183501,-0.05958223,-0.01214019,-0.117
 93534,0.09665043,-0.00004597,-0.00103400,0.00109700,0.00011698,0.00019
 605,-0.00138072,-0.00012350,0.00066391,0.00001647,-0.00020668,-0.00014
 022,-0.00005941,-0.00008697,-0.00003168,-0.00073557,0.00011016,-0.0003
 0113,0.00037972,0.00007366,-0.00023021,0.00002009,-0.00022065,0.000083
 13,0.00002439,0.00005542,-0.00002022,-0.00002770,0.00002084,-0.0000023
 0,0.00001118,-0.00003664,0.00001168,-0.00006121,0.00000915,-0.00001212
 ,-0.00000765,-0.00000139,-0.00000258,0.00001893,-0.00000563,0.00000899
 ,0.00006537,0.00000363,-0.00001057,-0.00002498,-0.00001547,0.00000123,
 -0.00001747,0.00000717,-0.00000593,-0.00000600,-0.00001894,-0.00000009
 ,-0.00000226,0.00000435,0.00000290,0.00000802,-0.00021789,0.00006004,-
 0.00022189,-0.00001262,-0.00009345,0.00007835,-0.00000331,0.00005466,-
 0.00002946,-0.00000828,-0.00000497,-0.00001247,-0.00001847,0.00000334,
 -0.00000335,0.00000778,-0.00000541,-0.00000792,0.00000843,0.00000234,0
 .00001405,0.00238487,-0.00203756,-0.00106754,-0.00844030,0.01328481,-0
 .00020936,0.10724367,-0.02936983,-0.02341509,-0.10058341,0.01892919,0.
 02555647\\0.00000093,-0.00000025,-0.00000202,0.00000074,0.00000002,-0.
 00000090,0.00000134,0.00000128,-0.00000310,0.00000042,-0.00000069,-0.0
 0000320,0.00000239,0.00000121,-0.00000188,0.00000024,0.00000124,0.0000
 0028,0.00000108,0.00000147,-0.00000110,0.00000004,-0.00000076,0.000000
 01,-0.00000086,-0.00000132,0.00000054,-0.00000031,-0.00000059,-0.00000
 109,0.,0.00000086,0.00000125,0.00000095,0.00000197,0.00000072,0.000000
 18,0.00000127,0.00000231,-0.00000033,0.00000025,0.00000203,-0.00000103
 ,-0.00000082,0.00000252,0.,0.00000131,0.00000343,0.00000062,0.00000242
 ,0.00000309,-0.00000043,0.00000088,0.00000406,-0.00000014,0.00000158,0
 .00000451,-0.00000393,-0.00000083,-0.00000235,0.00000246,0.00000009,-0
 .00000547,0.00000146,-0.00000134,-0.00000389,-0.00000022,-0.00000013,0
 .00000063,-0.00000058,-0.00000057,0.00000119,0.00000049,0.00000091,0.0
 0000006,-0.00000048,-0.00000098,-0.00000041,-0.00000206,-0.00000062,0.
 00000117,-0.00000156,-0.00000178,-0.00000314,-0.00000002,-0.00000363,0
 .00000036,-0.00000139,-0.00000249,0.00000038\\\@
 Job cpu time:  0 days 11 hours  6 minutes 53.3 seconds.
 File lengths (MBytes):  RWF=  72142 Int=      0 D2E=      0 Chk=     32 Scr=      1
 Normal termination of Gaussian 09 at Tue Feb 11 05:23:32 2014.
