 Entering Gaussian System, Link 0=g09
 Initial command:
 /usr/caen/gaussian-09revc/g09/l1.exe /scratch/avioli_flux/hetanjin/scratch/Gau-127868.inp -scrdir=/scratch/avioli_flux/hetanjin/scratch/
 Entering Link 1 = /usr/caen/gaussian-09revc/g09/l1.exe PID=    127869.
  
 Copyright (c) 1988,1990,1992,1993,1995,1998,2003,2009,2011,
            Gaussian, Inc.  All Rights Reserved.
  
 This is part of the Gaussian(R) 09 program.  It is based on
 the Gaussian(R) 03 system (copyright 2003, Gaussian, Inc.),
 the Gaussian(R) 98 system (copyright 1998, Gaussian, Inc.),
 the Gaussian(R) 94 system (copyright 1995, Gaussian, Inc.),
 the Gaussian 92(TM) system (copyright 1992, Gaussian, Inc.),
 the Gaussian 90(TM) system (copyright 1990, Gaussian, Inc.),
 the Gaussian 88(TM) system (copyright 1988, Gaussian, Inc.),
 the Gaussian 86(TM) system (copyright 1986, Carnegie Mellon
 University), and the Gaussian 82(TM) system (copyright 1983,
 Carnegie Mellon University). Gaussian is a federally registered
 trademark of Gaussian, Inc.
  
 This software contains proprietary and confidential information,
 including trade secrets, belonging to Gaussian, Inc.
  
 This software is provided under written license and may be
 used, copied, transmitted, or stored only in accord with that
 written license.
  
 The following legend is applicable only to US Government
 contracts under FAR:
  
                    RESTRICTED RIGHTS LEGEND
  
 Use, reproduction and disclosure by the US Government is
 subject to restrictions as set forth in subparagraphs (a)
 and (c) of the Commercial Computer Software - Restricted
 Rights clause in FAR 52.227-19.
  
 Gaussian, Inc.
 340 Quinnipiac St., Bldg. 40, Wallingford CT 06492
  
  
 ---------------------------------------------------------------
 Warning -- This program may not be used in any manner that
 competes with the business of Gaussian, Inc. or will provide
 assistance to any competitor of Gaussian, Inc.  The licensee
 of this program is prohibited from giving any competitor of
 Gaussian, Inc. access to this program.  By using this program,
 the user acknowledges that Gaussian, Inc. is engaged in the
 business of creating and licensing software in the field of
 computational chemistry and represents and warrants to the
 licensee that it is not a competitor of Gaussian, Inc. and that
 it will not use this program in any manner prohibited above.
 ---------------------------------------------------------------
  

 Cite this work as:
 Gaussian 09, Revision C.01,
 M. J. Frisch, G. W. Trucks, H. B. Schlegel, G. E. Scuseria, 
 M. A. Robb, J. R. Cheeseman, G. Scalmani, V. Barone, B. Mennucci, 
 G. A. Petersson, H. Nakatsuji, M. Caricato, X. Li, H. P. Hratchian, 
 A. F. Izmaylov, J. Bloino, G. Zheng, J. L. Sonnenberg, M. Hada, 
 M. Ehara, K. Toyota, R. Fukuda, J. Hasegawa, M. Ishida, T. Nakajima, 
 Y. Honda, O. Kitao, H. Nakai, T. Vreven, J. A. Montgomery, Jr., 
 J. E. Peralta, F. Ogliaro, M. Bearpark, J. J. Heyd, E. Brothers, 
 K. N. Kudin, V. N. Staroverov, T. Keith, R. Kobayashi, J. Normand, 
 K. Raghavachari, A. Rendell, J. C. Burant, S. S. Iyengar, J. Tomasi, 
 M. Cossi, N. Rega, J. M. Millam, M. Klene, J. E. Knox, J. B. Cross, 
 V. Bakken, C. Adamo, J. Jaramillo, R. Gomperts, R. E. Stratmann, 
 O. Yazyev, A. J. Austin, R. Cammi, C. Pomelli, J. W. Ochterski, 
 R. L. Martin, K. Morokuma, V. G. Zakrzewski, G. A. Voth, 
 P. Salvador, J. J. Dannenberg, S. Dapprich, A. D. Daniels, 
 O. Farkas, J. B. Foresman, J. V. Ortiz, J. Cioslowski, 
 and D. J. Fox, Gaussian, Inc., Wallingford CT, 2010.
 
 ******************************************
 Gaussian 09:  EM64L-G09RevC.01 23-Sep-2011
                11-Mar-2014 
 ******************************************
 %mem=30GB
 %nprocshared=8
 Will use up to    8 processors via shared memory.
 %chk=C9H18O_25_26.chk
 --------------------------
 #p cbs-qb3 opt=calcfc freq
 --------------------------
 1/10=4,14=-1,18=20,19=15,26=3,38=1/1,3;
 2/9=110,12=2,17=6,18=5,40=1/2;
 3/5=4,6=6,7=700,11=2,16=1,25=1,30=1,71=2,74=-5/1,2,3;
 4//1;
 5/5=2,38=5/2;
 8/6=4,10=90,11=11/1;
 11/6=1,8=1,9=11,15=111,16=1/1,2,10;
 10/6=1,7=6,13=1/2;
 6/7=2,8=2,9=2,10=2,28=1/1;
 7/10=1,18=20,25=1/1,2,3,16;
 1/10=4,14=-1,18=20,19=15/3(2);
 2/9=110/2;
 99//99;
 2/9=110/2;
 3/5=4,6=6,7=700,11=2,16=1,25=1,30=1,71=1,74=-5/1,2,3;
 4/5=5,16=3/1;
 5/5=2,38=5/2;
 7//1,2,3,16;
 1/14=-1,18=20,19=15/3(-5);
 2/9=110/2;
 6/7=2,8=2,9=2,10=2,19=2,28=1/1;
 99/9=1/99;
 Leave Link    1 at Tue Mar 11 10:42:38 2014, MaxMem= 4026531840 cpu:       0.8
 (Enter /usr/caen/gaussian-09revc/g09/l101.exe)
 -----------------------------------------
 C9H18O_25_26 using cbs-qb3 to cal. energy
 -----------------------------------------
 Charge =  0 Multiplicity = 1
 Symbolic Z-Matrix:
 C                    -2.18432  -0.13307  -1.43877 
 H                    -1.53785   0.45367  -2.09682 
 H                    -3.19032   0.29286  -1.49347 
 H                    -2.22029  -1.15611  -1.82137 
 C                    -1.40812   1.30478   0.52353 
 H                    -2.10061   2.0296    0.08972 
 H                    -1.53914   1.33266   1.60791 
 C                     0.06493   1.58415   0.15066 
 H                     0.61735   1.9693    1.01075 
 H                     0.15561   2.32324  -0.64806 
 C                     0.62548   0.20782  -0.29626 
 H                     0.73786   0.19281  -1.39201 
 C                     1.96762  -0.19509   0.32467 
 H                     1.84303  -0.13545   1.41421 
 C                     2.34146  -1.63782  -0.03881 
 H                     2.46751  -1.74545  -1.12212 
 H                     3.28558  -1.92253   0.4353 
 H                     1.5682   -2.3371    0.28126 
 C                    -2.59817  -0.93823   0.91352 
 H                    -3.59205  -0.48353   0.95311 
 H                    -2.70338  -1.9599    0.53977 
 H                    -2.19348  -0.98304   1.92714 
 C                     3.07716   0.77953  -0.09632 
 H                     4.02758   0.50229   0.36776 
 H                     3.22336   0.76016  -1.18202 
 H                     2.85641   1.8104    0.19333 
 C                    -1.67272  -0.12956   0.01055 
 O                    -0.37315  -0.74988   0.07738 
 
 NAtoms=     28 NQM=        0 NQMF=       0 NMMI=     28 NMMIF=      0
                NMic=       0 NMicF=      0.
                    Isotopes and Nuclear Properties:
 (Nuclear quadrupole moments (NQMom) in fm**2, nuclear magnetic moments (NMagM)
  in nuclear magnetons)

  Atom         1           2           3           4           5           6           7           8           9          10
 IAtWgt=          12           1           1           1          12           1           1          12           1           1
 AtmWgt=  12.0000000   1.0078250   1.0078250   1.0078250  12.0000000   1.0078250   1.0078250  12.0000000   1.0078250   1.0078250
 NucSpn=           0           1           1           1           0           1           1           0           1           1
 AtZEff=   0.0000000   0.0000000   0.0000000   0.0000000   0.0000000   0.0000000   0.0000000   0.0000000   0.0000000   0.0000000
 NQMom=    0.0000000   0.0000000   0.0000000   0.0000000   0.0000000   0.0000000   0.0000000   0.0000000   0.0000000   0.0000000
 NMagM=    0.0000000   2.7928460   2.7928460   2.7928460   0.0000000   2.7928460   2.7928460   0.0000000   2.7928460   2.7928460

  Atom        11          12          13          14          15          16          17          18          19          20
 IAtWgt=          12           1          12           1          12           1           1           1          12           1
 AtmWgt=  12.0000000   1.0078250  12.0000000   1.0078250  12.0000000   1.0078250   1.0078250   1.0078250  12.0000000   1.0078250
 NucSpn=           0           1           0           1           0           1           1           1           0           1
 AtZEff=   0.0000000   0.0000000   0.0000000   0.0000000   0.0000000   0.0000000   0.0000000   0.0000000   0.0000000   0.0000000
 NQMom=    0.0000000   0.0000000   0.0000000   0.0000000   0.0000000   0.0000000   0.0000000   0.0000000   0.0000000   0.0000000
 NMagM=    0.0000000   2.7928460   0.0000000   2.7928460   0.0000000   2.7928460   2.7928460   2.7928460   0.0000000   2.7928460

  Atom        21          22          23          24          25          26          27          28
 IAtWgt=           1           1          12           1           1           1          12          16
 AtmWgt=   1.0078250   1.0078250  12.0000000   1.0078250   1.0078250   1.0078250  12.0000000  15.9949146
 NucSpn=           1           1           0           1           1           1           0           0
 AtZEff=   0.0000000   0.0000000   0.0000000   0.0000000   0.0000000   0.0000000   0.0000000   0.0000000
 NQMom=    0.0000000   0.0000000   0.0000000   0.0000000   0.0000000   0.0000000   0.0000000   0.0000000
 NMagM=    2.7928460   2.7928460   0.0000000   2.7928460   2.7928460   2.7928460   0.0000000   0.0000000
 Leave Link  101 at Tue Mar 11 10:42:39 2014, MaxMem= 4026531840 cpu:       2.9
 (Enter /usr/caen/gaussian-09revc/g09/l103.exe)

 GradGradGradGradGradGradGradGradGradGradGradGradGradGradGradGradGradGrad
 Berny optimization.
 Initialization pass.
                           ----------------------------
                           !    Initial Parameters    !
                           ! (Angstroms and Degrees)  !
 --------------------------                            --------------------------
 ! Name  Definition              Value          Derivative Info.                !
 --------------------------------------------------------------------------------
 ! R1    R(1,2)                  1.0933         calculate D2E/DX2 analytically  !
 ! R2    R(1,3)                  1.0938         calculate D2E/DX2 analytically  !
 ! R3    R(1,4)                  1.0928         calculate D2E/DX2 analytically  !
 ! R4    R(1,27)                 1.537          calculate D2E/DX2 analytically  !
 ! R5    R(5,6)                  1.0923         calculate D2E/DX2 analytically  !
 ! R6    R(5,7)                  1.0926         calculate D2E/DX2 analytically  !
 ! R7    R(5,8)                  1.545          calculate D2E/DX2 analytically  !
 ! R8    R(5,27)                 1.5461         calculate D2E/DX2 analytically  !
 ! R9    R(8,9)                  1.0924         calculate D2E/DX2 analytically  !
 ! R10   R(8,10)                 1.092          calculate D2E/DX2 analytically  !
 ! R11   R(8,11)                 1.5518         calculate D2E/DX2 analytically  !
 ! R12   R(11,12)                1.1016         calculate D2E/DX2 analytically  !
 ! R13   R(11,13)                1.5327         calculate D2E/DX2 analytically  !
 ! R14   R(11,28)                1.4332         calculate D2E/DX2 analytically  !
 ! R15   R(13,14)                1.0983         calculate D2E/DX2 analytically  !
 ! R16   R(13,15)                1.5341         calculate D2E/DX2 analytically  !
 ! R17   R(13,23)                1.5356         calculate D2E/DX2 analytically  !
 ! R18   R(15,16)                1.0959         calculate D2E/DX2 analytically  !
 ! R19   R(15,17)                1.0942         calculate D2E/DX2 analytically  !
 ! R20   R(15,18)                1.0906         calculate D2E/DX2 analytically  !
 ! R21   R(19,20)                1.0937         calculate D2E/DX2 analytically  !
 ! R22   R(19,21)                1.093          calculate D2E/DX2 analytically  !
 ! R23   R(19,22)                1.0923         calculate D2E/DX2 analytically  !
 ! R24   R(19,27)                1.525          calculate D2E/DX2 analytically  !
 ! R25   R(23,24)                1.0934         calculate D2E/DX2 analytically  !
 ! R26   R(23,25)                1.0957         calculate D2E/DX2 analytically  !
 ! R27   R(23,26)                1.0933         calculate D2E/DX2 analytically  !
 ! R28   R(27,28)                1.4416         calculate D2E/DX2 analytically  !
 ! A1    A(2,1,3)              107.7437         calculate D2E/DX2 analytically  !
 ! A2    A(2,1,4)              108.1282         calculate D2E/DX2 analytically  !
 ! A3    A(2,1,27)             111.6868         calculate D2E/DX2 analytically  !
 ! A4    A(3,1,4)              108.4671         calculate D2E/DX2 analytically  !
 ! A5    A(3,1,27)             110.6342         calculate D2E/DX2 analytically  !
 ! A6    A(4,1,27)             110.0736         calculate D2E/DX2 analytically  !
 ! A7    A(6,5,7)              107.53           calculate D2E/DX2 analytically  !
 ! A8    A(6,5,8)              112.8689         calculate D2E/DX2 analytically  !
 ! A9    A(6,5,27)             112.0447         calculate D2E/DX2 analytically  !
 ! A10   A(7,5,8)              110.4412         calculate D2E/DX2 analytically  !
 ! A11   A(7,5,27)             109.4159         calculate D2E/DX2 analytically  !
 ! A12   A(8,5,27)             104.528          calculate D2E/DX2 analytically  !
 ! A13   A(5,8,9)              110.8485         calculate D2E/DX2 analytically  !
 ! A14   A(5,8,10)             112.2156         calculate D2E/DX2 analytically  !
 ! A15   A(5,8,11)             104.6865         calculate D2E/DX2 analytically  !
 ! A16   A(9,8,10)             107.1743         calculate D2E/DX2 analytically  !
 ! A17   A(9,8,11)             110.9027         calculate D2E/DX2 analytically  !
 ! A18   A(10,8,11)            111.0777         calculate D2E/DX2 analytically  !
 ! A19   A(8,11,12)            109.597          calculate D2E/DX2 analytically  !
 ! A20   A(8,11,13)            115.6437         calculate D2E/DX2 analytically  !
 ! A21   A(8,11,28)            105.4192         calculate D2E/DX2 analytically  !
 ! A22   A(12,11,13)           108.062          calculate D2E/DX2 analytically  !
 ! A23   A(12,11,28)           108.7413         calculate D2E/DX2 analytically  !
 ! A24   A(13,11,28)           109.2002         calculate D2E/DX2 analytically  !
 ! A25   A(11,13,14)           106.7555         calculate D2E/DX2 analytically  !
 ! A26   A(11,13,15)           111.385          calculate D2E/DX2 analytically  !
 ! A27   A(11,13,23)           110.7805         calculate D2E/DX2 analytically  !
 ! A28   A(14,13,15)           108.2865         calculate D2E/DX2 analytically  !
 ! A29   A(14,13,23)           108.6305         calculate D2E/DX2 analytically  !
 ! A30   A(15,13,23)           110.8457         calculate D2E/DX2 analytically  !
 ! A31   A(13,15,16)           110.7693         calculate D2E/DX2 analytically  !
 ! A32   A(13,15,17)           110.6301         calculate D2E/DX2 analytically  !
 ! A33   A(13,15,18)           111.143          calculate D2E/DX2 analytically  !
 ! A34   A(16,15,17)           107.6694         calculate D2E/DX2 analytically  !
 ! A35   A(16,15,18)           107.9793         calculate D2E/DX2 analytically  !
 ! A36   A(17,15,18)           108.5295         calculate D2E/DX2 analytically  !
 ! A37   A(20,19,21)           108.2726         calculate D2E/DX2 analytically  !
 ! A38   A(20,19,22)           108.6715         calculate D2E/DX2 analytically  !
 ! A39   A(20,19,27)           110.6366         calculate D2E/DX2 analytically  !
 ! A40   A(21,19,22)           108.339          calculate D2E/DX2 analytically  !
 ! A41   A(21,19,27)           110.5857         calculate D2E/DX2 analytically  !
 ! A42   A(22,19,27)           110.2645         calculate D2E/DX2 analytically  !
 ! A43   A(13,23,24)           110.5339         calculate D2E/DX2 analytically  !
 ! A44   A(13,23,25)           110.9059         calculate D2E/DX2 analytically  !
 ! A45   A(13,23,26)           112.3282         calculate D2E/DX2 analytically  !
 ! A46   A(24,23,25)           107.4637         calculate D2E/DX2 analytically  !
 ! A47   A(24,23,26)           107.5861         calculate D2E/DX2 analytically  !
 ! A48   A(25,23,26)           107.8265         calculate D2E/DX2 analytically  !
 ! A49   A(1,27,5)             111.8358         calculate D2E/DX2 analytically  !
 ! A50   A(1,27,19)            110.8011         calculate D2E/DX2 analytically  !
 ! A51   A(1,27,28)            110.0476         calculate D2E/DX2 analytically  !
 ! A52   A(5,27,19)            113.5364         calculate D2E/DX2 analytically  !
 ! A53   A(5,27,28)            103.2697         calculate D2E/DX2 analytically  !
 ! A54   A(19,27,28)           106.9438         calculate D2E/DX2 analytically  !
 ! A55   A(11,28,27)           109.1787         calculate D2E/DX2 analytically  !
 ! D1    D(2,1,27,5)            51.51           calculate D2E/DX2 analytically  !
 ! D2    D(2,1,27,19)          179.2741         calculate D2E/DX2 analytically  !
 ! D3    D(2,1,27,28)          -62.6599         calculate D2E/DX2 analytically  !
 ! D4    D(3,1,27,5)           -68.5035         calculate D2E/DX2 analytically  !
 ! D5    D(3,1,27,19)           59.2605         calculate D2E/DX2 analytically  !
 ! D6    D(3,1,27,28)          177.3265         calculate D2E/DX2 analytically  !
 ! D7    D(4,1,27,5)           171.6309         calculate D2E/DX2 analytically  !
 ! D8    D(4,1,27,19)          -60.6051         calculate D2E/DX2 analytically  !
 ! D9    D(4,1,27,28)           57.4609         calculate D2E/DX2 analytically  !
 ! D10   D(6,5,8,9)            107.6481         calculate D2E/DX2 analytically  !
 ! D11   D(6,5,8,10)           -12.1431         calculate D2E/DX2 analytically  !
 ! D12   D(6,5,8,11)          -132.7159         calculate D2E/DX2 analytically  !
 ! D13   D(7,5,8,9)            -12.7544         calculate D2E/DX2 analytically  !
 ! D14   D(7,5,8,10)          -132.5456         calculate D2E/DX2 analytically  !
 ! D15   D(7,5,8,11)           106.8816         calculate D2E/DX2 analytically  !
 ! D16   D(27,5,8,9)          -130.3395         calculate D2E/DX2 analytically  !
 ! D17   D(27,5,8,10)          109.8693         calculate D2E/DX2 analytically  !
 ! D18   D(27,5,8,11)          -10.7035         calculate D2E/DX2 analytically  !
 ! D19   D(6,5,27,1)            32.7497         calculate D2E/DX2 analytically  !
 ! D20   D(6,5,27,19)          -93.5365         calculate D2E/DX2 analytically  !
 ! D21   D(6,5,27,28)          151.0391         calculate D2E/DX2 analytically  !
 ! D22   D(7,5,27,1)           151.912          calculate D2E/DX2 analytically  !
 ! D23   D(7,5,27,19)           25.6258         calculate D2E/DX2 analytically  !
 ! D24   D(7,5,27,28)          -89.7986         calculate D2E/DX2 analytically  !
 ! D25   D(8,5,27,1)           -89.8019         calculate D2E/DX2 analytically  !
 ! D26   D(8,5,27,19)          143.9118         calculate D2E/DX2 analytically  !
 ! D27   D(8,5,27,28)           28.4874         calculate D2E/DX2 analytically  !
 ! D28   D(5,8,11,12)          105.9115         calculate D2E/DX2 analytically  !
 ! D29   D(5,8,11,13)         -131.6781         calculate D2E/DX2 analytically  !
 ! D30   D(5,8,11,28)          -10.9593         calculate D2E/DX2 analytically  !
 ! D31   D(9,8,11,12)         -134.4889         calculate D2E/DX2 analytically  !
 ! D32   D(9,8,11,13)          -12.0785         calculate D2E/DX2 analytically  !
 ! D33   D(9,8,11,28)          108.6404         calculate D2E/DX2 analytically  !
 ! D34   D(10,8,11,12)         -15.4145         calculate D2E/DX2 analytically  !
 ! D35   D(10,8,11,13)         106.9959         calculate D2E/DX2 analytically  !
 ! D36   D(10,8,11,28)        -132.2852         calculate D2E/DX2 analytically  !
 ! D37   D(8,11,13,14)          54.6363         calculate D2E/DX2 analytically  !
 ! D38   D(8,11,13,15)         172.658          calculate D2E/DX2 analytically  !
 ! D39   D(8,11,13,23)         -63.4689         calculate D2E/DX2 analytically  !
 ! D40   D(12,11,13,14)        177.8585         calculate D2E/DX2 analytically  !
 ! D41   D(12,11,13,15)        -64.1198         calculate D2E/DX2 analytically  !
 ! D42   D(12,11,13,23)         59.7533         calculate D2E/DX2 analytically  !
 ! D43   D(28,11,13,14)        -64.0149         calculate D2E/DX2 analytically  !
 ! D44   D(28,11,13,15)         54.0068         calculate D2E/DX2 analytically  !
 ! D45   D(28,11,13,23)        177.8799         calculate D2E/DX2 analytically  !
 ! D46   D(8,11,28,27)          30.9006         calculate D2E/DX2 analytically  !
 ! D47   D(12,11,28,27)        -86.5499         calculate D2E/DX2 analytically  !
 ! D48   D(13,11,28,27)        155.7501         calculate D2E/DX2 analytically  !
 ! D49   D(11,13,15,16)         62.4102         calculate D2E/DX2 analytically  !
 ! D50   D(11,13,15,17)       -178.2729         calculate D2E/DX2 analytically  !
 ! D51   D(11,13,15,18)        -57.631          calculate D2E/DX2 analytically  !
 ! D52   D(14,13,15,16)        179.5057         calculate D2E/DX2 analytically  !
 ! D53   D(14,13,15,17)        -61.1773         calculate D2E/DX2 analytically  !
 ! D54   D(14,13,15,18)         59.4646         calculate D2E/DX2 analytically  !
 ! D55   D(23,13,15,16)        -61.426          calculate D2E/DX2 analytically  !
 ! D56   D(23,13,15,17)         57.891          calculate D2E/DX2 analytically  !
 ! D57   D(23,13,15,18)        178.5329         calculate D2E/DX2 analytically  !
 ! D58   D(11,13,23,24)        178.6544         calculate D2E/DX2 analytically  !
 ! D59   D(11,13,23,25)        -62.2598         calculate D2E/DX2 analytically  !
 ! D60   D(11,13,23,26)         58.4808         calculate D2E/DX2 analytically  !
 ! D61   D(14,13,23,24)         61.6967         calculate D2E/DX2 analytically  !
 ! D62   D(14,13,23,25)       -179.2175         calculate D2E/DX2 analytically  !
 ! D63   D(14,13,23,26)        -58.4769         calculate D2E/DX2 analytically  !
 ! D64   D(15,13,23,24)        -57.1641         calculate D2E/DX2 analytically  !
 ! D65   D(15,13,23,25)         61.9217         calculate D2E/DX2 analytically  !
 ! D66   D(15,13,23,26)       -177.3377         calculate D2E/DX2 analytically  !
 ! D67   D(20,19,27,1)         -63.3377         calculate D2E/DX2 analytically  !
 ! D68   D(20,19,27,5)          63.493          calculate D2E/DX2 analytically  !
 ! D69   D(20,19,27,28)        176.7231         calculate D2E/DX2 analytically  !
 ! D70   D(21,19,27,1)          56.6184         calculate D2E/DX2 analytically  !
 ! D71   D(21,19,27,5)        -176.5508         calculate D2E/DX2 analytically  !
 ! D72   D(21,19,27,28)        -63.3207         calculate D2E/DX2 analytically  !
 ! D73   D(22,19,27,1)         176.4166         calculate D2E/DX2 analytically  !
 ! D74   D(22,19,27,5)         -56.7526         calculate D2E/DX2 analytically  !
 ! D75   D(22,19,27,28)         56.4774         calculate D2E/DX2 analytically  !
 ! D76   D(1,27,28,11)          81.9016         calculate D2E/DX2 analytically  !
 ! D77   D(5,27,28,11)         -37.6269         calculate D2E/DX2 analytically  !
 ! D78   D(19,27,28,11)       -157.6767         calculate D2E/DX2 analytically  !
 --------------------------------------------------------------------------------
 Trust Radius=3.00D-01 FncErr=1.00D-07 GrdErr=1.00D-06
 Number of steps in this run=    168 maximum allowed number of steps=    168.
 GradGradGradGradGradGradGradGradGradGradGradGradGradGradGradGradGradGrad

 Leave Link  103 at Tue Mar 11 10:42:39 2014, MaxMem= 4026531840 cpu:       0.2
 (Enter /usr/caen/gaussian-09revc/g09/l202.exe)
                          Input orientation:                          
 ---------------------------------------------------------------------
 Center     Atomic      Atomic             Coordinates (Angstroms)
 Number     Number       Type             X           Y           Z
 ---------------------------------------------------------------------
      1          6           0       -2.184323   -0.133073   -1.438773
      2          1           0       -1.537853    0.453670   -2.096821
      3          1           0       -3.190319    0.292861   -1.493469
      4          1           0       -2.220285   -1.156110   -1.821372
      5          6           0       -1.408118    1.304781    0.523528
      6          1           0       -2.100615    2.029600    0.089715
      7          1           0       -1.539143    1.332656    1.607905
      8          6           0        0.064926    1.584153    0.150658
      9          1           0        0.617354    1.969298    1.010754
     10          1           0        0.155606    2.323243   -0.648064
     11          6           0        0.625478    0.207824   -0.296262
     12          1           0        0.737862    0.192808   -1.392005
     13          6           0        1.967619   -0.195088    0.324665
     14          1           0        1.843033   -0.135449    1.414207
     15          6           0        2.341464   -1.637815   -0.038807
     16          1           0        2.467505   -1.745452   -1.122119
     17          1           0        3.285583   -1.922530    0.435299
     18          1           0        1.568195   -2.337096    0.281258
     19          6           0       -2.598170   -0.938229    0.913523
     20          1           0       -3.592050   -0.483530    0.953113
     21          1           0       -2.703377   -1.959901    0.539766
     22          1           0       -2.193480   -0.983036    1.927135
     23          6           0        3.077157    0.779534   -0.096319
     24          1           0        4.027579    0.502294    0.367761
     25          1           0        3.223359    0.760155   -1.182015
     26          1           0        2.856410    1.810396    0.193325
     27          6           0       -1.672722   -0.129560    0.010553
     28          8           0       -0.373152   -0.749881    0.077379
 ---------------------------------------------------------------------
                    Distance matrix (angstroms):
                    1          2          3          4          5
     1  C    0.000000
     2  H    1.093260   0.000000
     3  H    1.093819   1.766504   0.000000
     4  H    1.092831   1.770022   1.774261   0.000000
     5  C    2.553535   2.758161   2.875500   3.494876   0.000000
     6  H    2.649611   2.753397   2.590403   3.716897   1.092295
     7  H    3.441928   3.807573   3.664161   4.291602   1.092620
     8  C    3.245655   2.982961   3.868748   4.076780   1.544972
     9  H    4.274288   4.074195   4.855919   5.083435   2.186666
    10  H    3.483386   2.908952   4.004045   4.373489   2.203435
    11  C    3.052298   2.825324   4.000105   3.504946   2.451710
    12  H    2.940672   2.396600   3.930765   3.279416   3.083988
    13  C    4.511339   4.309619   5.490722   4.802872   3.699291
    14  H    4.935494   4.909661   5.828607   5.293512   3.665727
    15  C    4.970604   4.864034   6.036901   4.921294   4.799423
    16  H    4.933512   4.672159   6.025246   4.776155   5.199282
    17  H    6.052617   5.943357   7.110936   5.999545   5.696854
    18  H    4.679489   4.805327   5.719247   4.490920   4.709607
    19  C    2.520484   3.481928   2.767640   2.769462   2.568932
    20  H    2.797433   3.794755   2.598064   3.167313   2.855199
    21  H    2.742505   3.759702   3.073450   2.540557   3.512280
    22  H    3.471579   4.322753   3.784459   3.752596   2.796607
    23  C    5.506197   5.040487   6.439731   5.897916   4.558266
    24  H    6.500383   6.086917   7.456949   6.824838   5.496822
    25  H    5.486967   4.857977   6.438217   5.806385   4.965488
    26  H    5.643563   5.137609   6.458415   6.215464   4.307073
    27  C    1.536976   2.190747   2.177986   2.170157   1.546122
    28  O    2.441211   2.744487   3.389883   2.679959   2.343467
                    6          7          8          9         10
     6  H    0.000000
     7  H    1.762351   0.000000
     8  C    2.211720   2.181710   0.000000
     9  H    2.870419   2.326453   1.092373   0.000000
    10  H    2.391877   2.990457   1.091986   1.757887   0.000000
    11  C    3.301428   3.094622   1.551850   2.193433   2.195346
    12  H    3.691375   3.934903   2.183688   2.990600   2.330499
    13  C    4.642733   4.034611   2.610789   2.641685   3.251397
    14  H    4.689784   3.692149   2.777634   2.468810   3.625678
    15  C    5.761815   5.156983   3.949633   4.133449   4.564992
    16  H    6.048742   5.742909   4.298676   4.666002   4.703603
    17  H    6.689536   5.937105   4.769746   4.753622   5.384888
    18  H    5.706565   4.988248   4.201555   4.470044   4.957601
    19  C    3.119973   2.600120   3.746526   4.336215   4.545221
    20  H    3.047238   2.818104   4.276999   4.872245   4.948401
    21  H    4.059801   3.652026   4.513892   5.166013   5.284888
    22  H    3.529973   2.427446   3.853145   4.178136   4.804304
    23  C    5.329784   4.951823   3.127610   2.948182   3.350063
    24  H    6.321767   5.763320   4.113414   3.767649   4.397719
    25  H    5.619029   5.549129   3.525718   3.614073   3.484172
    26  H    4.962951   4.642215   2.800962   2.388893   2.874942
    27  C    2.202574   2.169666   2.444558   3.263442   3.129345
    28  O    3.272582   2.835314   2.375920   3.040761   3.201553
                   11         12         13         14         15
    11  C    0.000000
    12  H    1.101594   0.000000
    13  C    1.532720   2.147026   0.000000
    14  H    2.127435   3.033806   1.098262   0.000000
    15  C    2.533234   2.784576   1.534058   2.148671   0.000000
    16  H    2.808984   2.611772   2.178692   3.068391   1.095918
    17  H    3.485649   3.782139   2.175621   2.496572   1.094166
    18  H    2.774682   3.144786   2.179363   2.491256   1.090587
    19  C    3.628901   4.209966   4.663201   4.540862   5.079009
    20  H    4.452690   4.970427   5.602505   5.465702   6.125591
    21  H    4.059464   4.495333   4.997903   4.976255   5.088114
    22  H    3.782614   4.581710   4.528081   4.156313   4.985918
    23  C    2.525383   2.737764   1.535640   2.154517   2.527475
    24  H    3.478783   3.743634   2.175232   2.504797   2.754696
    25  H    2.799752   2.558061   2.181618   3.073723   2.799093
    26  H    2.790159   3.101307   2.197536   2.510737   3.494169
    27  C    2.343008   2.807491   3.654455   3.785606   4.288468
    28  O    1.433202   2.069325   2.418296   2.660096   2.858508
                   16         17         18         19         20
    16  H    0.000000
    17  H    1.768095   0.000000
    18  H    1.768691   1.773419   0.000000
    19  C    5.518742   5.984655   4.440179   0.000000
    20  H    6.528188   7.045615   5.524059   1.093671   0.000000
    21  H    5.435611   5.989988   4.295978   1.092967   1.772080
    22  H    5.621744   5.755724   4.323493   1.092333   1.776013
    23  C    2.792758   2.761740   3.483233   6.014967   6.868403
    24  H    3.115435   2.536709   3.757418   6.802464   7.705403
    25  H    2.617818   3.133110   3.804432   6.416073   7.249505
    26  H    3.811259   3.765299   4.343837   6.150290   6.886364
    27  C    4.586451   5.289607   3.930654   1.525042   2.167380
    28  O    3.240261   3.858699   2.515879   2.384390   3.346514
                   21         22         23         24         25
    21  H    0.000000
    22  H    1.771737   0.000000
    23  C    6.428350   5.914443   0.000000
    24  H    7.169223   6.583269   1.093405   0.000000
    25  H    6.744586   6.484418   1.095667   1.764955   0.000000
    26  H    6.726544   6.025840   1.093297   1.764425   1.768960
    27  C    2.166210   2.161688   4.837274   5.746327   5.117169
    28  O    2.666064   2.605677   3.778083   4.584615   4.098923
                   26         27         28
    26  H    0.000000
    27  C    4.930504   0.000000
    28  O    4.122928   1.441578   0.000000
 Stoichiometry    C9H18O
 Framework group  C1[X(C9H18O)]
 Deg. of freedom    78
 Full point group                 C1      NOp   1
 Largest Abelian subgroup         C1      NOp   1
 Largest concise Abelian subgroup C1      NOp   1
                         Standard orientation:                         
 ---------------------------------------------------------------------
 Center     Atomic      Atomic             Coordinates (Angstroms)
 Number     Number       Type             X           Y           Z
 ---------------------------------------------------------------------
      1          6           0        2.184323   -0.133073    1.438773
      2          1           0        1.537853    0.453670    2.096821
      3          1           0        3.190319    0.292861    1.493469
      4          1           0        2.220285   -1.156110    1.821372
      5          6           0        1.408118    1.304781   -0.523528
      6          1           0        2.100615    2.029600   -0.089715
      7          1           0        1.539143    1.332656   -1.607905
      8          6           0       -0.064926    1.584153   -0.150658
      9          1           0       -0.617354    1.969298   -1.010754
     10          1           0       -0.155606    2.323243    0.648064
     11          6           0       -0.625478    0.207824    0.296262
     12          1           0       -0.737862    0.192808    1.392005
     13          6           0       -1.967619   -0.195088   -0.324665
     14          1           0       -1.843033   -0.135449   -1.414207
     15          6           0       -2.341464   -1.637815    0.038807
     16          1           0       -2.467505   -1.745452    1.122119
     17          1           0       -3.285583   -1.922530   -0.435299
     18          1           0       -1.568195   -2.337096   -0.281258
     19          6           0        2.598170   -0.938229   -0.913523
     20          1           0        3.592050   -0.483530   -0.953113
     21          1           0        2.703377   -1.959901   -0.539766
     22          1           0        2.193480   -0.983036   -1.927135
     23          6           0       -3.077157    0.779534    0.096319
     24          1           0       -4.027579    0.502294   -0.367761
     25          1           0       -3.223359    0.760155    1.182015
     26          1           0       -2.856410    1.810396   -0.193325
     27          6           0        1.672722   -0.129560   -0.010553
     28          8           0        0.373152   -0.749881   -0.077379
 ---------------------------------------------------------------------
 Rotational constants (GHZ):      2.3336898      0.8365488      0.7361556
 Leave Link  202 at Tue Mar 11 10:42:39 2014, MaxMem= 4026531840 cpu:       0.1
 (Enter /usr/caen/gaussian-09revc/g09/l301.exe)
 Standard basis: 6-311G(2d,d,p) (5D, 7F)
 Ernie: Thresh=  0.10000D-02 Tol=  0.10000D-05 Strict=F.
 There are   288 symmetry adapted basis functions of A   symmetry.
 Integral buffers will be    131072 words long.
 Raffenetti 2 integral format.
 Two-electron integral symmetry is turned on.
   288 basis functions,   464 primitive gaussians,   298 cartesian basis functions
    40 alpha electrons       40 beta electrons
       nuclear repulsion energy       595.2131361136 Hartrees.
 IExCor=  402 DFT=T Ex+Corr=B3LYP ExCW=0 ScaHFX=  0.200000
 ScaDFX=  0.800000  0.720000  1.000000  0.810000 ScalE2=  1.000000  1.000000
 IRadAn=      0 IRanWt=     -1 IRanGd=            0 ICorTp=0
 NAtoms=   28 NActive=   28 NUniq=   28 SFac= 1.00D+00 NAtFMM=   60 NAOKFM=F Big=F
 Leave Link  301 at Tue Mar 11 10:42:39 2014, MaxMem= 4026531840 cpu:       0.6
 (Enter /usr/caen/gaussian-09revc/g09/l302.exe)
 NPDir=0 NMtPBC=     1 NCelOv=     1 NCel=       1 NClECP=     1 NCelD=      1
         NCelK=      1 NCelE2=     1 NClLst=     1 CellRange=     0.0.
 One-electron integrals computed using PRISM.
 NBasis=   288 RedAO= T  NBF=   288
 NBsUse=   288 1.00D-06 NBFU=   288
 Precomputing XC quadrature grid using
 IXCGrd= 2 IRadAn=           0 IRanWt=          -1 IRanGd=           0 AccXCQ= 0.00D+00.
 NRdTot=    1779 NPtTot=      226024 NUsed=      238854 NTot=      238886
 NSgBfM=   298   298   298   298   298 NAtAll=    28    28.
 Leave Link  302 at Tue Mar 11 10:42:40 2014, MaxMem= 4026531840 cpu:       4.1
 (Enter /usr/caen/gaussian-09revc/g09/l303.exe)
 DipDrv:  MaxL=1.
 Leave Link  303 at Tue Mar 11 10:42:40 2014, MaxMem= 4026531840 cpu:       0.4
 (Enter /usr/caen/gaussian-09revc/g09/l401.exe)
 Harris functional with IExCor=  402 diagonalized for initial guess.
 ExpMin= 1.03D-01 ExpMax= 8.59D+03 ExpMxC= 1.30D+03 IAcc=1 IRadAn=         1 AccDes= 0.00D+00
 HarFok:  IExCor=  402 AccDes= 0.00D+00 IRadAn=         1 IDoV= 1
 ScaDFX=  1.000000  1.000000  1.000000  1.000000
 FoFCou: FMM=F IPFlag=           0 FMFlag=      100000 FMFlg1=           0
         NFxFlg=           0 DoJE=T BraDBF=F KetDBF=T FulRan=T
         Omega=  0.000000  0.000000  1.000000  0.000000  0.000000 ICntrl=     500 IOpCl=  0
         NMat0=    1 NMatS0=    1 NMatT0=    0 NMatD0=    1 NMtDS0=    0 NMtDT0=    0
         I1Cent=           4 NGrid=           0.
 Petite list used in FoFCou.
 Harris En= -429.227984966965    
 Initial guess orbital symmetries:
       Occupied  (A) (A) (A) (A) (A) (A) (A) (A) (A) (A) (A) (A)
                 (A) (A) (A) (A) (A) (A) (A) (A) (A) (A) (A) (A)
                 (A) (A) (A) (A) (A) (A) (A) (A) (A) (A) (A) (A)
                 (A) (A) (A) (A)
       Virtual   (A) (A) (A) (A) (A) (A) (A) (A) (A) (A) (A) (A)
                 (A) (A) (A) (A) (A) (A) (A) (A) (A) (A) (A) (A)
                 (A) (A) (A) (A) (A) (A) (A) (A) (A) (A) (A) (A)
                 (A) (A) (A) (A) (A) (A) (A) (A) (A) (A) (A) (A)
                 (A) (A) (A) (A) (A) (A) (A) (A) (A) (A) (A) (A)
                 (A) (A) (A) (A) (A) (A) (A) (A) (A) (A) (A) (A)
                 (A) (A) (A) (A) (A) (A) (A) (A) (A) (A) (A) (A)
                 (A) (A) (A) (A) (A) (A) (A) (A) (A) (A) (A) (A)
                 (A) (A) (A) (A) (A) (A) (A) (A) (A) (A) (A) (A)
                 (A) (A) (A) (A) (A) (A) (A) (A) (A) (A) (A) (A)
                 (A) (A) (A) (A) (A) (A) (A) (A) (A) (A) (A) (A)
                 (A) (A) (A) (A) (A) (A) (A) (A) (A) (A) (A) (A)
                 (A) (A) (A) (A) (A) (A) (A) (A) (A) (A) (A) (A)
                 (A) (A) (A) (A) (A) (A) (A) (A) (A) (A) (A) (A)
                 (A) (A) (A) (A) (A) (A) (A) (A) (A) (A) (A) (A)
                 (A) (A) (A) (A) (A) (A) (A) (A) (A) (A) (A) (A)
                 (A) (A) (A) (A) (A) (A) (A) (A) (A) (A) (A) (A)
                 (A) (A) (A) (A) (A) (A) (A) (A) (A) (A) (A) (A)
                 (A) (A) (A) (A) (A) (A) (A) (A) (A) (A) (A) (A)
                 (A) (A) (A) (A) (A) (A) (A) (A) (A) (A) (A) (A)
                 (A) (A) (A) (A) (A) (A) (A) (A)
 The electronic state of the initial guess is 1-A.
 Leave Link  401 at Tue Mar 11 10:42:42 2014, MaxMem= 4026531840 cpu:       6.1
 (Enter /usr/caen/gaussian-09revc/g09/l502.exe)
 Closed shell SCF:
 Requested convergence on RMS density matrix=1.00D-08 within 128 cycles.
 Requested convergence on MAX density matrix=1.00D-06.
 Requested convergence on             energy=1.00D-06.
 No special actions if energy rises.
 Using DIIS extrapolation, IDIIS=  1040.
 Integral symmetry usage will be decided dynamically.
       238589 words used for storage of precomputed grid.
 Keep R1 ints in memory in canonical form, NReq=1006311175.
 IEnd=      527785 IEndB=      527785 NGot=  4026531840 MDV=  3033691694
 LenX=  3033691694 LenY=  3033602449
 Symmetry not used in FoFDir.
 MinBra= 0 MaxBra= 2 Meth= 1.
 IRaf=       0 NMat=   1 IRICut=       1 DoRegI=T DoRafI=F ISym2E= 0 JSym2E=0.
 Integral accuracy reduced to 1.0D-05 until final iterations.

 Cycle   1  Pass 0  IDiag  1:
 E= -428.777287141105    
 DIIS: error= 3.19D-02 at cycle   1 NSaved=   1.
 NSaved= 1 IEnMin= 1 EnMin= -428.777287141105     IErMin= 1 ErrMin= 3.19D-02
 ErrMax= 3.19D-02 EMaxC= 1.00D-01 BMatC= 3.82D-01 BMatP= 3.82D-01
 IDIUse=3 WtCom= 6.81D-01 WtEn= 3.19D-01
 Coeff-Com:  0.100D+01
 Coeff-En:   0.100D+01
 Coeff:      0.100D+01
 Gap=     0.237 Goal=   None    Shift=    0.000
 GapD=    0.237 DampG=1.000 DampE=0.500 DampFc=0.5000 IDamp=-1.
 Damping current iteration by 5.00D-01
 RMSDP=3.81D-03 MaxDP=1.23D-01              OVMax= 1.78D-01

 Cycle   2  Pass 0  IDiag  1:
 E= -428.939576708740     Delta-E=       -0.162289567636 Rises=F Damp=T
 DIIS: error= 5.23D-03 at cycle   2 NSaved=   2.
 NSaved= 2 IEnMin= 2 EnMin= -428.939576708740     IErMin= 2 ErrMin= 5.23D-03
 ErrMax= 5.23D-03 EMaxC= 1.00D-01 BMatC= 1.72D-02 BMatP= 3.82D-01
 IDIUse=3 WtCom= 9.48D-01 WtEn= 5.23D-02
 Coeff-Com:  0.627D-01 0.937D+00
 Coeff-En:   0.141D+00 0.859D+00
 Coeff:      0.668D-01 0.933D+00
 Gap=     0.303 Goal=   None    Shift=    0.000
 RMSDP=7.80D-04 MaxDP=2.34D-02 DE=-1.62D-01 OVMax= 1.01D-01

 Cycle   3  Pass 0  IDiag  1:
 E= -429.145986203132     Delta-E=       -0.206409494392 Rises=F Damp=F
 DIIS: error= 3.55D-03 at cycle   3 NSaved=   3.
 NSaved= 3 IEnMin= 3 EnMin= -429.145986203132     IErMin= 3 ErrMin= 3.55D-03
 ErrMax= 3.55D-03 EMaxC= 1.00D-01 BMatC= 4.54D-03 BMatP= 1.72D-02
 IDIUse=3 WtCom= 9.64D-01 WtEn= 3.55D-02
 Coeff-Com: -0.182D-01 0.291D+00 0.727D+00
 Coeff-En:   0.000D+00 0.000D+00 0.100D+01
 Coeff:     -0.176D-01 0.281D+00 0.736D+00
 Gap=     0.274 Goal=   None    Shift=    0.000
 RMSDP=3.99D-04 MaxDP=1.12D-02 DE=-2.06D-01 OVMax= 2.18D-02

 Cycle   4  Pass 0  IDiag  1:
 E= -429.148193244923     Delta-E=       -0.002207041790 Rises=F Damp=F
 DIIS: error= 3.12D-03 at cycle   4 NSaved=   4.
 NSaved= 4 IEnMin= 4 EnMin= -429.148193244923     IErMin= 4 ErrMin= 3.12D-03
 ErrMax= 3.12D-03 EMaxC= 1.00D-01 BMatC= 2.37D-03 BMatP= 4.54D-03
 IDIUse=3 WtCom= 9.69D-01 WtEn= 3.12D-02
 Coeff-Com: -0.160D-01 0.915D-01 0.446D+00 0.478D+00
 Coeff-En:   0.000D+00 0.000D+00 0.310D+00 0.690D+00
 Coeff:     -0.155D-01 0.886D-01 0.442D+00 0.485D+00
 Gap=     0.286 Goal=   None    Shift=    0.000
 RMSDP=1.78D-04 MaxDP=6.91D-03 DE=-2.21D-03 OVMax= 1.17D-02

 Cycle   5  Pass 0  IDiag  1:
 E= -429.149953456636     Delta-E=       -0.001760211713 Rises=F Damp=F
 DIIS: error= 5.79D-04 at cycle   5 NSaved=   5.
 NSaved= 5 IEnMin= 5 EnMin= -429.149953456636     IErMin= 5 ErrMin= 5.79D-04
 ErrMax= 5.79D-04 EMaxC= 1.00D-01 BMatC= 9.43D-05 BMatP= 2.37D-03
 IDIUse=3 WtCom= 9.94D-01 WtEn= 5.79D-03
 Coeff-Com: -0.568D-02 0.167D-01 0.147D+00 0.231D+00 0.611D+00
 Coeff-En:   0.000D+00 0.000D+00 0.000D+00 0.000D+00 0.100D+01
 Coeff:     -0.564D-02 0.166D-01 0.146D+00 0.230D+00 0.613D+00
 Gap=     0.284 Goal=   None    Shift=    0.000
 RMSDP=3.35D-05 MaxDP=1.32D-03 DE=-1.76D-03 OVMax= 1.83D-03

 Cycle   6  Pass 0  IDiag  1:
 E= -429.150013186744     Delta-E=       -0.000059730108 Rises=F Damp=F
 DIIS: error= 1.36D-04 at cycle   6 NSaved=   6.
 NSaved= 6 IEnMin= 6 EnMin= -429.150013186744     IErMin= 6 ErrMin= 1.36D-04
 ErrMax= 1.36D-04 EMaxC= 1.00D-01 BMatC= 1.02D-05 BMatP= 9.43D-05
 IDIUse=3 WtCom= 9.99D-01 WtEn= 1.36D-03
 Coeff-Com: -0.175D-02 0.237D-02 0.492D-01 0.930D-01 0.337D+00 0.520D+00
 Coeff-En:   0.000D+00 0.000D+00 0.000D+00 0.000D+00 0.217D-01 0.978D+00
 Coeff:     -0.175D-02 0.236D-02 0.492D-01 0.928D-01 0.337D+00 0.520D+00
 Gap=     0.285 Goal=   None    Shift=    0.000
 RMSDP=7.93D-06 MaxDP=4.93D-04 DE=-5.97D-05 OVMax= 4.42D-04

 Initial convergence to 1.0D-05 achieved.  Increase integral accuracy.
 Cycle   7  Pass 1  IDiag  1:
 E= -429.150025048499     Delta-E=       -0.000011861755 Rises=F Damp=F
 DIIS: error= 2.02D-05 at cycle   1 NSaved=   1.
 NSaved= 1 IEnMin= 1 EnMin= -429.150025048499     IErMin= 1 ErrMin= 2.02D-05
 ErrMax= 2.02D-05 EMaxC= 1.00D-01 BMatC= 2.69D-07 BMatP= 2.69D-07
 IDIUse=1 WtCom= 1.00D+00 WtEn= 0.00D+00
 Coeff-Com:  0.100D+01
 Coeff:      0.100D+01
 Gap=     0.285 Goal=   None    Shift=    0.000
 RMSDP=7.93D-06 MaxDP=4.93D-04 DE=-1.19D-05 OVMax= 1.69D-04

 Cycle   8  Pass 1  IDiag  1:
 E= -429.150025186853     Delta-E=       -0.000000138354 Rises=F Damp=F
 DIIS: error= 1.80D-05 at cycle   2 NSaved=   2.
 NSaved= 2 IEnMin= 2 EnMin= -429.150025186853     IErMin= 2 ErrMin= 1.80D-05
 ErrMax= 1.80D-05 EMaxC= 1.00D-01 BMatC= 1.96D-07 BMatP= 2.69D-07
 IDIUse=1 WtCom= 1.00D+00 WtEn= 0.00D+00
 Coeff-Com:  0.451D+00 0.549D+00
 Coeff:      0.451D+00 0.549D+00
 Gap=     0.285 Goal=   None    Shift=    0.000
 RMSDP=1.62D-06 MaxDP=6.82D-05 DE=-1.38D-07 OVMax= 7.72D-05

 Cycle   9  Pass 1  IDiag  1:
 E= -429.150025346925     Delta-E=       -0.000000160073 Rises=F Damp=F
 DIIS: error= 9.58D-06 at cycle   3 NSaved=   3.
 NSaved= 3 IEnMin= 3 EnMin= -429.150025346925     IErMin= 3 ErrMin= 9.58D-06
 ErrMax= 9.58D-06 EMaxC= 1.00D-01 BMatC= 2.76D-08 BMatP= 1.96D-07
 IDIUse=1 WtCom= 1.00D+00 WtEn= 0.00D+00
 Coeff-Com:  0.399D-01 0.271D+00 0.689D+00
 Coeff:      0.399D-01 0.271D+00 0.689D+00
 Gap=     0.285 Goal=   None    Shift=    0.000
 RMSDP=5.69D-07 MaxDP=2.17D-05 DE=-1.60D-07 OVMax= 3.20D-05

 Cycle  10  Pass 1  IDiag  1:
 E= -429.150025366264     Delta-E=       -0.000000019339 Rises=F Damp=F
 DIIS: error= 3.58D-06 at cycle   4 NSaved=   4.
 NSaved= 4 IEnMin= 4 EnMin= -429.150025366264     IErMin= 4 ErrMin= 3.58D-06
 ErrMax= 3.58D-06 EMaxC= 1.00D-01 BMatC= 3.40D-09 BMatP= 2.76D-08
 IDIUse=1 WtCom= 1.00D+00 WtEn= 0.00D+00
 Coeff-Com: -0.969D-02 0.112D+00 0.375D+00 0.523D+00
 Coeff:     -0.969D-02 0.112D+00 0.375D+00 0.523D+00
 Gap=     0.285 Goal=   None    Shift=    0.000
 RMSDP=2.43D-07 MaxDP=8.98D-06 DE=-1.93D-08 OVMax= 1.47D-05

 Cycle  11  Pass 1  IDiag  1:
 E= -429.150025368663     Delta-E=       -0.000000002399 Rises=F Damp=F
 DIIS: error= 9.06D-07 at cycle   5 NSaved=   5.
 NSaved= 5 IEnMin= 5 EnMin= -429.150025368663     IErMin= 5 ErrMin= 9.06D-07
 ErrMax= 9.06D-07 EMaxC= 1.00D-01 BMatC= 2.67D-10 BMatP= 3.40D-09
 IDIUse=1 WtCom= 1.00D+00 WtEn= 0.00D+00
 Coeff-Com: -0.786D-02 0.421D-01 0.154D+00 0.291D+00 0.520D+00
 Coeff:     -0.786D-02 0.421D-01 0.154D+00 0.291D+00 0.520D+00
 Gap=     0.285 Goal=   None    Shift=    0.000
 RMSDP=6.79D-08 MaxDP=1.75D-06 DE=-2.40D-09 OVMax= 3.67D-06

 Cycle  12  Pass 1  IDiag  1:
 E= -429.150025368891     Delta-E=       -0.000000000229 Rises=F Damp=F
 DIIS: error= 7.85D-08 at cycle   6 NSaved=   6.
 NSaved= 6 IEnMin= 6 EnMin= -429.150025368891     IErMin= 6 ErrMin= 7.85D-08
 ErrMax= 7.85D-08 EMaxC= 1.00D-01 BMatC= 2.66D-12 BMatP= 2.67D-10
 IDIUse=1 WtCom= 1.00D+00 WtEn= 0.00D+00
 Coeff-Com: -0.191D-02 0.772D-02 0.292D-01 0.627D-01 0.154D+00 0.748D+00
 Coeff:     -0.191D-02 0.772D-02 0.292D-01 0.627D-01 0.154D+00 0.748D+00
 Gap=     0.285 Goal=   None    Shift=    0.000
 RMSDP=7.69D-09 MaxDP=2.73D-07 DE=-2.29D-10 OVMax= 3.19D-07

 SCF Done:  E(RB3LYP) =  -429.150025369     A.U. after   12 cycles
             Convg  =    0.7688D-08             -V/T =  2.0047
 KE= 4.271546201595D+02 PE=-2.187637230996D+03 EE= 7.361194493540D+02
 Leave Link  502 at Tue Mar 11 10:43:22 2014, MaxMem= 4026531840 cpu:     312.4
 (Enter /usr/caen/gaussian-09revc/g09/l801.exe)
 Range of M.O.s used for correlation:     1   288
 NBasis=   288 NAE=    40 NBE=    40 NFC=     0 NFV=     0
 NROrb=    288 NOA=    40 NOB=    40 NVA=   248 NVB=   248

 **** Warning!!: The largest alpha MO coefficient is  0.11644446D+02

 Leave Link  801 at Tue Mar 11 10:43:22 2014, MaxMem= 4026531840 cpu:       0.2
 (Enter /usr/caen/gaussian-09revc/g09/l1101.exe)
 Using compressed storage, NAtomX=    28.
 Will process  29 centers per pass.
 Leave Link 1101 at Tue Mar 11 10:43:23 2014, MaxMem= 4026531840 cpu:       3.8
 (Enter /usr/caen/gaussian-09revc/g09/l1102.exe)
 Symmetrizing basis deriv contribution to polar:
 IMax=3 JMax=2 DiffMx= 0.00D+00
 Leave Link 1102 at Tue Mar 11 10:43:23 2014, MaxMem= 4026531840 cpu:       1.6
 (Enter /usr/caen/gaussian-09revc/g09/l1110.exe)
 Forming Gx(P) for the SCF density, NAtomX=    28.
 Integral derivatives from FoFDir/FoFCou, PRISM(SPDF).
 Do as many integral derivatives as possible in FoFDir.
 G2DrvN: MDV=    4026531512.
 G2DrvN: will do    29 centers at a time, making    1 passes doing MaxLOS=2.
 Calling FoFCou, ICntrl=  3107 FMM=F I1Cent=   0 AccDes= 0.00D+00.
 FoFCou: FMM=F IPFlag=           0 FMFlag=      100000 FMFlg1=           0
         NFxFlg=           0 DoJE=F BraDBF=F KetDBF=F FulRan=T
         Omega=  0.000000  0.000000  1.000000  0.000000  0.000000 ICntrl=    3107 IOpCl=  0
         NMat0=    1 NMatS0=    1 NMatT0=    0 NMatD0=    1 NMtDS0=    0 NMtDT0=    0
         I1Cent=           0 NGrid=           0.
 Symmetry not used in FoFCou.
 FoFDir/FoFCou used for L=0 through L=2.
 End of G2Drv Frequency-dependent properties file   721 does not exist.
 End of G2Drv Frequency-dependent properties file   722 does not exist.
 Leave Link 1110 at Tue Mar 11 10:44:56 2014, MaxMem= 4026531840 cpu:     734.2
 (Enter /usr/caen/gaussian-09revc/g09/l1002.exe)
 Minotr:  Closed shell wavefunction.
          IDoAtm=1111111111111111111111111111
          Direct CPHF calculation.
          Differentiating once with respect to nuclear coordinates.
          Requested convergence is 1.0D-06 RMS, and 1.0D-05 maximum.
          Secondary convergence is 1.0D-12 RMS, and 1.0D-12 maximum.
          NewPWx=T KeepS1=F KeepF1=F KeepIn=T MapXYZ=F SortEE=F KeepMc=T.
          MDV=    4026531556 using IRadAn=       2.
 Generate precomputed XC quadrature information.
          Keep R1 ints in memory in canonical form, NReq=993246417.
 Symmetry not used in FoFDir.
 MinBra= 0 MaxBra= 2 Meth= 1.
 IRaf=       0 NMat=   1 IRICut=       1 DoRegI=T DoRafI=F ISym2E= 0 JSym2E=0.
          Solving linear equations simultaneously, MaxMat=       0.
          There are    87 degrees of freedom in the 1st order CPHF.  IDoFFX=5.
     81 vectors produced by pass  0 Test12= 1.14D-10 1.15D-07 XBig12= 9.18D-02 6.53D-02.
 AX will form    81 AO Fock derivatives at one time.
     81 vectors produced by pass  1 Test12= 1.14D-10 1.15D-07 XBig12= 5.03D-03 1.24D-02.
     81 vectors produced by pass  2 Test12= 1.14D-10 1.15D-07 XBig12= 2.65D-05 8.11D-04.
     81 vectors produced by pass  3 Test12= 1.14D-10 1.15D-07 XBig12= 8.74D-08 3.93D-05.
     33 vectors produced by pass  4 Test12= 1.14D-10 1.15D-07 XBig12= 1.07D-10 9.59D-07.
 Inverted reduced A of dimension   357 with in-core refinement.
 End of Minotr Frequency-dependent properties file   721 does not exist.
 End of Minotr Frequency-dependent properties file   722 does not exist.
 Leave Link 1002 at Tue Mar 11 10:46:21 2014, MaxMem= 4026531840 cpu:     681.4
 (Enter /usr/caen/gaussian-09revc/g09/l601.exe)
 Copying SCF densities to generalized density rwf, IOpCl= 0 IROHF=0.

 **********************************************************************

            Population analysis using the SCF density.

 **********************************************************************

 Orbital symmetries:
       Occupied  (A) (A) (A) (A) (A) (A) (A) (A) (A) (A) (A) (A)
                 (A) (A) (A) (A) (A) (A) (A) (A) (A) (A) (A) (A)
                 (A) (A) (A) (A) (A) (A) (A) (A) (A) (A) (A) (A)
                 (A) (A) (A) (A)
       Virtual   (A) (A) (A) (A) (A) (A) (A) (A) (A) (A) (A) (A)
                 (A) (A) (A) (A) (A) (A) (A) (A) (A) (A) (A) (A)
                 (A) (A) (A) (A) (A) (A) (A) (A) (A) (A) (A) (A)
                 (A) (A) (A) (A) (A) (A) (A) (A) (A) (A) (A) (A)
                 (A) (A) (A) (A) (A) (A) (A) (A) (A) (A) (A) (A)
                 (A) (A) (A) (A) (A) (A) (A) (A) (A) (A) (A) (A)
                 (A) (A) (A) (A) (A) (A) (A) (A) (A) (A) (A) (A)
                 (A) (A) (A) (A) (A) (A) (A) (A) (A) (A) (A) (A)
                 (A) (A) (A) (A) (A) (A) (A) (A) (A) (A) (A) (A)
                 (A) (A) (A) (A) (A) (A) (A) (A) (A) (A) (A) (A)
                 (A) (A) (A) (A) (A) (A) (A) (A) (A) (A) (A) (A)
                 (A) (A) (A) (A) (A) (A) (A) (A) (A) (A) (A) (A)
                 (A) (A) (A) (A) (A) (A) (A) (A) (A) (A) (A) (A)
                 (A) (A) (A) (A) (A) (A) (A) (A) (A) (A) (A) (A)
                 (A) (A) (A) (A) (A) (A) (A) (A) (A) (A) (A) (A)
                 (A) (A) (A) (A) (A) (A) (A) (A) (A) (A) (A) (A)
                 (A) (A) (A) (A) (A) (A) (A) (A) (A) (A) (A) (A)
                 (A) (A) (A) (A) (A) (A) (A) (A) (A) (A) (A) (A)
                 (A) (A) (A) (A) (A) (A) (A) (A) (A) (A) (A) (A)
                 (A) (A) (A) (A) (A) (A) (A) (A) (A) (A) (A) (A)
                 (A) (A) (A) (A) (A) (A) (A) (A)
 The electronic state is 1-A.
 Alpha  occ. eigenvalues --  -19.10683 -10.22417 -10.21206 -10.17045 -10.16721
 Alpha  occ. eigenvalues --  -10.16635 -10.15756 -10.15710 -10.15610 -10.14789
 Alpha  occ. eigenvalues --   -1.02957  -0.81011  -0.78982  -0.75454  -0.69201
 Alpha  occ. eigenvalues --   -0.68049  -0.66914  -0.60343  -0.56326  -0.54896
 Alpha  occ. eigenvalues --   -0.48961  -0.47319  -0.46573  -0.43384  -0.43348
 Alpha  occ. eigenvalues --   -0.42111  -0.40823  -0.40577  -0.38682  -0.38156
 Alpha  occ. eigenvalues --   -0.37796  -0.36771  -0.35808  -0.34142  -0.33710
 Alpha  occ. eigenvalues --   -0.33177  -0.32046  -0.31601  -0.30527  -0.25047
 Alpha virt. eigenvalues --    0.03412   0.05173   0.05582   0.06920   0.08510
 Alpha virt. eigenvalues --    0.09285   0.09854   0.10178   0.10230   0.10561
 Alpha virt. eigenvalues --    0.12213   0.12822   0.14478   0.14806   0.15005
 Alpha virt. eigenvalues --    0.15135   0.15509   0.16862   0.17142   0.17629
 Alpha virt. eigenvalues --    0.18866   0.21664   0.22289   0.23095   0.24708
 Alpha virt. eigenvalues --    0.24905   0.26438   0.28172   0.28953   0.30723
 Alpha virt. eigenvalues --    0.31643   0.33025   0.33619   0.34792   0.37044
 Alpha virt. eigenvalues --    0.38732   0.40091   0.40529   0.41988   0.42718
 Alpha virt. eigenvalues --    0.44560   0.45226   0.46504   0.48551   0.51524
 Alpha virt. eigenvalues --    0.53040   0.54848   0.55263   0.55637   0.56993
 Alpha virt. eigenvalues --    0.57638   0.57950   0.58201   0.58475   0.58606
 Alpha virt. eigenvalues --    0.58975   0.59739   0.60046   0.60383   0.60648
 Alpha virt. eigenvalues --    0.61604   0.61876   0.62618   0.63244   0.63432
 Alpha virt. eigenvalues --    0.63967   0.65698   0.66224   0.66670   0.68177
 Alpha virt. eigenvalues --    0.68342   0.72988   0.74435   0.77277   0.86497
 Alpha virt. eigenvalues --    0.90174   0.92129   0.92812   0.94599   0.96475
 Alpha virt. eigenvalues --    0.97650   1.00823   1.03948   1.07925   1.09260
 Alpha virt. eigenvalues --    1.14201   1.15364   1.17137   1.22226   1.23442
 Alpha virt. eigenvalues --    1.25500   1.29578   1.31311   1.31886   1.33268
 Alpha virt. eigenvalues --    1.35985   1.37918   1.40187   1.41822   1.43008
 Alpha virt. eigenvalues --    1.43741   1.44557   1.45764   1.46304   1.46962
 Alpha virt. eigenvalues --    1.48621   1.49108   1.49848   1.50694   1.52001
 Alpha virt. eigenvalues --    1.52807   1.53332   1.54830   1.55676   1.57488
 Alpha virt. eigenvalues --    1.57717   1.57887   1.59887   1.61235   1.61613
 Alpha virt. eigenvalues --    1.62816   1.64369   1.65365   1.66183   1.68877
 Alpha virt. eigenvalues --    1.69879   1.72613   1.73310   1.73423   1.75474
 Alpha virt. eigenvalues --    1.76749   1.78184   1.78724   1.79004   1.81388
 Alpha virt. eigenvalues --    1.83680   1.85274   1.86418   1.87222   1.90666
 Alpha virt. eigenvalues --    1.91498   1.93170   1.94531   1.95215   1.99694
 Alpha virt. eigenvalues --    2.00922   2.02240   2.05226   2.06625   2.08751
 Alpha virt. eigenvalues --    2.10676   2.12141   2.12997   2.15164   2.17276
 Alpha virt. eigenvalues --    2.18731   2.23680   2.25474   2.26177   2.27367
 Alpha virt. eigenvalues --    2.29119   2.33193   2.34354   2.35465   2.36966
 Alpha virt. eigenvalues --    2.38028   2.39356   2.41211   2.43083   2.43679
 Alpha virt. eigenvalues --    2.45980   2.46714   2.48334   2.48956   2.50076
 Alpha virt. eigenvalues --    2.51546   2.51929   2.52321   2.53113   2.53859
 Alpha virt. eigenvalues --    2.54468   2.56177   2.57706   2.58466   2.60408
 Alpha virt. eigenvalues --    2.60605   2.62570   2.64314   2.65840   2.67348
 Alpha virt. eigenvalues --    2.68121   2.69929   2.72626   2.73744   2.75708
 Alpha virt. eigenvalues --    2.81006   2.81799   2.82856   2.84794   2.87772
 Alpha virt. eigenvalues --    2.89923   2.91000   2.94415   2.98308   3.02854
 Alpha virt. eigenvalues --    3.04572   3.09952   3.11177   3.14920   3.17336
 Alpha virt. eigenvalues --    3.18692   3.21624   3.27527   3.32595   3.47006
 Alpha virt. eigenvalues --    3.57323   3.63275   3.77752   3.78111   3.78918
 Alpha virt. eigenvalues --    3.79503   3.82150   3.82367   3.82614   3.83132
 Alpha virt. eigenvalues --    3.88425   4.00607   4.04470   4.08962   4.14389
 Alpha virt. eigenvalues --    4.26121   4.28687   4.29900   4.31235   4.45054
 Alpha virt. eigenvalues --    5.07694   5.31465   5.71084  23.72147  23.79518
 Alpha virt. eigenvalues --   23.81914  23.86449  23.88000  23.92867  23.94165
 Alpha virt. eigenvalues --   23.94854  23.96306  49.96805
          Condensed to atoms (all electrons):
              1          2          3          4          5          6
     1  C    4.927785   0.398907   0.383372   0.398605  -0.091743  -0.002518
     2  H    0.398907   0.586894  -0.030090  -0.028468  -0.007597   0.000587
     3  H    0.383372  -0.030090   0.599182  -0.024826   0.001514  -0.000186
     4  H    0.398605  -0.028468  -0.024826   0.566623   0.009923   0.000017
     5  C   -0.091743  -0.007597   0.001514   0.009923   5.005870   0.386930
     6  H   -0.002518   0.000587  -0.000186   0.000017   0.386930   0.586654
     7  H    0.008157   0.000024  -0.000211  -0.000579   0.408809  -0.032388
     8  C   -0.004727   0.001972   0.000115  -0.000141   0.377521  -0.028458
     9  H    0.000093  -0.000018  -0.000047   0.000026  -0.031508   0.005095
    10  H    0.001068   0.000309  -0.000140  -0.000152  -0.031982  -0.011447
    11  C   -0.013419   0.000589   0.000517  -0.000408  -0.078483   0.006412
    12  H    0.005008  -0.000721  -0.000815  -0.000042  -0.002018   0.000409
    13  C   -0.000047   0.000205   0.000022  -0.000180   0.002477  -0.000254
    14  H    0.000208  -0.000022  -0.000010  -0.000010  -0.000767   0.000026
    15  C   -0.000196   0.000005   0.000007   0.000060  -0.000276   0.000012
    16  H   -0.000005  -0.000005   0.000001   0.000018  -0.000013   0.000000
    17  H   -0.000002   0.000000   0.000000   0.000001   0.000025  -0.000001
    18  H    0.000180  -0.000023  -0.000009   0.000102   0.000286  -0.000009
    19  C   -0.070742   0.008001  -0.004852  -0.007489  -0.059204   0.001716
    20  H   -0.000092  -0.000119   0.000230  -0.000039  -0.003877   0.000862
    21  H   -0.009392  -0.000014   0.000479   0.004198   0.009340  -0.000638
    22  H    0.010690  -0.000562  -0.000504  -0.000206  -0.010086   0.000273
    23  C    0.000050  -0.000007  -0.000004  -0.000001   0.000744  -0.000012
    24  H    0.000000  -0.000001   0.000000   0.000000   0.000000  -0.000001
    25  H   -0.000003  -0.000014   0.000000  -0.000001  -0.000076   0.000003
    26  H   -0.000009   0.000001   0.000000   0.000001   0.000080   0.000013
    27  C    0.336488  -0.026667  -0.028681  -0.033025   0.340501  -0.027417
    28  O   -0.053601  -0.002326   0.004759   0.003337  -0.064572   0.004516
              7          8          9         10         11         12
     1  C    0.008157  -0.004727   0.000093   0.001068  -0.013419   0.005008
     2  H    0.000024   0.001972  -0.000018   0.000309   0.000589  -0.000721
     3  H   -0.000211   0.000115  -0.000047  -0.000140   0.000517  -0.000815
     4  H   -0.000579  -0.000141   0.000026  -0.000152  -0.000408  -0.000042
     5  C    0.408809   0.377521  -0.031508  -0.031982  -0.078483  -0.002018
     6  H   -0.032388  -0.028458   0.005095  -0.011447   0.006412   0.000409
     7  H    0.582544  -0.034719  -0.014735   0.007263   0.003668  -0.000312
     8  C   -0.034719   4.974126   0.403452   0.394725   0.368821  -0.060772
     9  H   -0.014735   0.403452   0.577761  -0.034043  -0.039863   0.008662
    10  H    0.007263   0.394725  -0.034043   0.586200  -0.028247  -0.008160
    11  C    0.003668   0.368821  -0.039863  -0.028247   4.942395   0.381329
    12  H   -0.000312  -0.060772   0.008662  -0.008160   0.381329   0.655400
    13  C    0.000029  -0.045669  -0.007223   0.003501   0.359646  -0.047818
    14  H    0.000113  -0.011282   0.006489   0.000314  -0.052240   0.013025
    15  C   -0.000033   0.009269   0.000058  -0.000507  -0.056812  -0.014339
    16  H   -0.000001  -0.000064   0.000045   0.000014  -0.007001   0.004773
    17  H   -0.000003  -0.000298  -0.000062   0.000021   0.009000  -0.000609
    18  H   -0.000009   0.000776  -0.000019  -0.000066  -0.009950   0.001029
    19  C   -0.007667   0.007781  -0.000390  -0.000304   0.008484  -0.000658
    20  H   -0.000529   0.000068   0.000010  -0.000024  -0.000483   0.000110
    21  H    0.000244  -0.000387   0.000011   0.000019  -0.000417  -0.000104
    22  H    0.004586  -0.000036   0.000035  -0.000002  -0.000693   0.000287
    23  C    0.000047  -0.009025  -0.002762   0.000007  -0.062576   0.001825
    24  H   -0.000001   0.000070  -0.000221   0.000043   0.008241  -0.000606
    25  H    0.000003  -0.001606   0.000390   0.000352  -0.006807   0.007113
    26  H   -0.000021   0.003976   0.001376  -0.000916  -0.006173  -0.000640
    27  C   -0.039009  -0.080100   0.006606   0.004709  -0.083354   0.000207
    28  O    0.002446  -0.058745   0.003823   0.003431   0.268343  -0.039112
             13         14         15         16         17         18
     1  C   -0.000047   0.000208  -0.000196  -0.000005  -0.000002   0.000180
     2  H    0.000205  -0.000022   0.000005  -0.000005   0.000000  -0.000023
     3  H    0.000022  -0.000010   0.000007   0.000001   0.000000  -0.000009
     4  H   -0.000180  -0.000010   0.000060   0.000018   0.000001   0.000102
     5  C    0.002477  -0.000767  -0.000276  -0.000013   0.000025   0.000286
     6  H   -0.000254   0.000026   0.000012   0.000000  -0.000001  -0.000009
     7  H    0.000029   0.000113  -0.000033  -0.000001  -0.000003  -0.000009
     8  C   -0.045669  -0.011282   0.009269  -0.000064  -0.000298   0.000776
     9  H   -0.007223   0.006489   0.000058   0.000045  -0.000062  -0.000019
    10  H    0.003501   0.000314  -0.000507   0.000014   0.000021  -0.000066
    11  C    0.359646  -0.052240  -0.056812  -0.007001   0.009000  -0.009950
    12  H   -0.047818   0.013025  -0.014339   0.004773  -0.000609   0.001029
    13  C    5.071876   0.399143   0.366222  -0.037209  -0.034921  -0.031629
    14  H    0.399143   0.617420  -0.046261   0.009342  -0.007743  -0.004269
    15  C    0.366222  -0.046261   4.886444   0.399267   0.402786   0.400456
    16  H   -0.037209   0.009342   0.399267   0.600675  -0.032869  -0.027939
    17  H   -0.034921  -0.007743   0.402786  -0.032869   0.596876  -0.027099
    18  H   -0.031629  -0.004269   0.400456  -0.027939  -0.027099   0.550550
    19  C   -0.000104  -0.000243   0.000061   0.000002  -0.000001  -0.000033
    20  H    0.000006   0.000017  -0.000002   0.000000   0.000000   0.000004
    21  H   -0.000036  -0.000029   0.000010  -0.000001   0.000001   0.000135
    22  H   -0.000077   0.000387  -0.000097  -0.000001  -0.000006   0.000150
    23  C    0.339986  -0.034989  -0.069533  -0.006110  -0.006330   0.008402
    24  H   -0.029610  -0.007497  -0.004886  -0.000634   0.004335  -0.000026
    25  H   -0.038713   0.009694  -0.005938   0.005232  -0.000766  -0.000170
    26  H   -0.031431  -0.006011   0.008059  -0.000172   0.000019  -0.000481
    27  C    0.007743   0.000245   0.000001  -0.000119   0.000033  -0.001083
    28  O   -0.042380   0.007752  -0.008879  -0.000303  -0.000085   0.016747
             19         20         21         22         23         24
     1  C   -0.070742  -0.000092  -0.009392   0.010690   0.000050   0.000000
     2  H    0.008001  -0.000119  -0.000014  -0.000562  -0.000007  -0.000001
     3  H   -0.004852   0.000230   0.000479  -0.000504  -0.000004   0.000000
     4  H   -0.007489  -0.000039   0.004198  -0.000206  -0.000001   0.000000
     5  C   -0.059204  -0.003877   0.009340  -0.010086   0.000744   0.000000
     6  H    0.001716   0.000862  -0.000638   0.000273  -0.000012  -0.000001
     7  H   -0.007667  -0.000529   0.000244   0.004586   0.000047  -0.000001
     8  C    0.007781   0.000068  -0.000387  -0.000036  -0.009025   0.000070
     9  H   -0.000390   0.000010   0.000011   0.000035  -0.002762  -0.000221
    10  H   -0.000304  -0.000024   0.000019  -0.000002   0.000007   0.000043
    11  C    0.008484  -0.000483  -0.000417  -0.000693  -0.062576   0.008241
    12  H   -0.000658   0.000110  -0.000104   0.000287   0.001825  -0.000606
    13  C   -0.000104   0.000006  -0.000036  -0.000077   0.339986  -0.029610
    14  H   -0.000243   0.000017  -0.000029   0.000387  -0.034989  -0.007497
    15  C    0.000061  -0.000002   0.000010  -0.000097  -0.069533  -0.004886
    16  H    0.000002   0.000000  -0.000001  -0.000001  -0.006110  -0.000634
    17  H   -0.000001   0.000000   0.000001  -0.000006  -0.006330   0.004335
    18  H   -0.000033   0.000004   0.000135   0.000150   0.008402  -0.000026
    19  C    4.843275   0.393743   0.402223   0.393495   0.000001  -0.000001
    20  H    0.393743   0.597345  -0.029493  -0.024754   0.000000   0.000000
    21  H    0.402223  -0.029493   0.571775  -0.027488  -0.000001   0.000000
    22  H    0.393495  -0.024754  -0.027488   0.572834   0.000016  -0.000001
    23  C    0.000001   0.000000  -0.000001   0.000016   4.909310   0.401603
    24  H   -0.000001   0.000000   0.000000  -0.000001   0.401603   0.579548
    25  H   -0.000001   0.000000   0.000000   0.000001   0.399636  -0.030611
    26  H    0.000001   0.000000   0.000000   0.000000   0.400755  -0.027737
    27  C    0.382456  -0.036807  -0.031073  -0.032324  -0.000484   0.000016
    28  O   -0.049788   0.004558   0.000418   0.006346   0.003499  -0.000149
             25         26         27         28
     1  C   -0.000003  -0.000009   0.336488  -0.053601
     2  H   -0.000014   0.000001  -0.026667  -0.002326
     3  H    0.000000   0.000000  -0.028681   0.004759
     4  H   -0.000001   0.000001  -0.033025   0.003337
     5  C   -0.000076   0.000080   0.340501  -0.064572
     6  H    0.000003   0.000013  -0.027417   0.004516
     7  H    0.000003  -0.000021  -0.039009   0.002446
     8  C   -0.001606   0.003976  -0.080100  -0.058745
     9  H    0.000390   0.001376   0.006606   0.003823
    10  H    0.000352  -0.000916   0.004709   0.003431
    11  C   -0.006807  -0.006173  -0.083354   0.268343
    12  H    0.007113  -0.000640   0.000207  -0.039112
    13  C   -0.038713  -0.031431   0.007743  -0.042380
    14  H    0.009694  -0.006011   0.000245   0.007752
    15  C   -0.005938   0.008059   0.000001  -0.008879
    16  H    0.005232  -0.000172  -0.000119  -0.000303
    17  H   -0.000766   0.000019   0.000033  -0.000085
    18  H   -0.000170  -0.000481  -0.001083   0.016747
    19  C   -0.000001   0.000001   0.382456  -0.049788
    20  H    0.000000   0.000000  -0.036807   0.004558
    21  H    0.000000   0.000000  -0.031073   0.000418
    22  H    0.000001   0.000000  -0.032324   0.006346
    23  C    0.399636   0.400755  -0.000484   0.003499
    24  H   -0.030611  -0.027737   0.000016  -0.000149
    25  H    0.592639  -0.030507   0.000007  -0.000054
    26  H   -0.030507   0.586178   0.000012  -0.000035
    27  C    0.000007   0.000012   5.124959   0.258731
    28  O   -0.000054  -0.000035   0.258731   8.117120
 Mulliken atomic charges:
              1
     1  C   -0.224116
     2  H    0.099160
     3  H    0.100176
     4  H    0.112655
     5  C   -0.161818
     6  H    0.109805
     7  H    0.112283
     8  C   -0.206642
     9  H    0.116959
    10  H    0.114015
    11  C    0.089484
    12  H    0.097551
    13  C   -0.203556
    14  H    0.107197
    15  C   -0.264957
    16  H    0.093074
    17  H    0.097700
    18  H    0.123999
    19  C   -0.239763
    20  H    0.099267
    21  H    0.110220
    22  H    0.107735
    23  C   -0.274046
    24  H    0.108127
    25  H    0.100197
    26  H    0.103662
    27  C   -0.042571
    28  O   -0.385797
 Sum of Mulliken atomic charges =   0.00000
 Mulliken charges with hydrogens summed into heavy atoms:
              1
     1  C    0.087876
     5  C    0.060270
     8  C    0.024331
    11  C    0.187034
    13  C   -0.096358
    15  C    0.049816
    19  C    0.077459
    23  C    0.037940
    27  C   -0.042571
    28  O   -0.385797
 Sum of Mulliken charges with hydrogens summed into heavy atoms =   0.00000
 APT atomic charges:
              1
     1  C   -1.076546
     2  H    0.204693
     3  H    0.540015
     4  H    0.373294
     5  C   -0.796217
     6  H    0.486200
     7  H    0.376339
     8  C   -0.766729
     9  H    0.375724
    10  H    0.415225
    11  C   -0.100043
    12  H    0.296042
    13  C   -0.333837
    14  H    0.285093
    15  C   -1.097891
    16  H    0.321240
    17  H    0.602483
    18  H    0.190282
    19  C   -1.129088
    20  H    0.543870
    21  H    0.396781
    22  H    0.255948
    23  C   -1.250646
    24  H    0.618048
    25  H    0.325461
    26  H    0.279254
    27  C   -0.080086
    28  O   -0.254909
 Sum of APT charges=   0.00000
 APT Atomic charges with hydrogens summed into heavy atoms:
              1
     1  C    0.041456
     2  H    0.000000
     3  H    0.000000
     4  H    0.000000
     5  C    0.066322
     6  H    0.000000
     7  H    0.000000
     8  C    0.024221
     9  H    0.000000
    10  H    0.000000
    11  C    0.195999
    12  H    0.000000
    13  C   -0.048744
    14  H    0.000000
    15  C    0.016113
    16  H    0.000000
    17  H    0.000000
    18  H    0.000000
    19  C    0.067510
    20  H    0.000000
    21  H    0.000000
    22  H    0.000000
    23  C   -0.027883
    24  H    0.000000
    25  H    0.000000
    26  H    0.000000
    27  C   -0.080086
    28  O   -0.254909
 Sum of APT charges=   0.00000
 Electronic spatial extent (au):  <R**2>=           1795.4474
 Charge=              0.0000 electrons
 Dipole moment (field-independent basis, Debye):
    X=              0.4121    Y=              1.2870    Z=              0.1359  Tot=              1.3582
 Quadrupole moment (field-independent basis, Debye-Ang):
   XX=            -63.4711   YY=            -66.9074   ZZ=            -65.0935
   XY=              0.1755   XZ=              0.3010   YZ=             -0.0431
 Traceless Quadrupole moment (field-independent basis, Debye-Ang):
   XX=              1.6863   YY=             -1.7501   ZZ=              0.0638
   XY=              0.1755   XZ=              0.3010   YZ=             -0.0431
 Octapole moment (field-independent basis, Debye-Ang**2):
  XXX=              7.9697  YYY=             -2.1239  ZZZ=             -1.8161  XYY=              3.1328
  XXY=             -1.7512  XXZ=             -2.0745  XZZ=             -0.6555  YZZ=             -0.2367
  YYZ=              0.5084  XYZ=             -0.0911
 Hexadecapole moment (field-independent basis, Debye-Ang**3):
 XXXX=          -1681.6892 YYYY=           -537.2186 ZZZZ=           -298.6471 XXXY=             10.2965
 XXXZ=             11.1935 YYYX=             -7.6240 YYYZ=              1.6237 ZZZX=             -5.5973
 ZZZY=             -0.6347 XXYY=           -375.4790 XXZZ=           -335.7657 YYZZ=           -138.8816
 XXYZ=              0.9707 YYXZ=              4.6283 ZZXY=             -0.3770
 N-N= 5.952131361136D+02 E-N=-2.187637234063D+03  KE= 4.271546201595D+02
  Exact polarizability:   0.000   0.000   0.000   0.000   0.000   0.000
 Approx polarizability: 147.561  -0.182 141.808  -0.497   0.751 141.447
 No NMR shielding tensors so no spin-rotation constants.
 Leave Link  601 at Tue Mar 11 10:46:22 2014, MaxMem= 4026531840 cpu:       1.9
 (Enter /usr/caen/gaussian-09revc/g09/l701.exe)
 Compute integral second derivatives.
 ... and contract with generalized density number  0.
 Leave Link  701 at Tue Mar 11 10:46:23 2014, MaxMem= 4026531840 cpu:       3.0
 (Enter /usr/caen/gaussian-09revc/g09/l702.exe)
 L702 exits ... SP integral derivatives will be done elsewhere.
 Leave Link  702 at Tue Mar 11 10:46:23 2014, MaxMem= 4026531840 cpu:       0.2
 (Enter /usr/caen/gaussian-09revc/g09/l703.exe)
 Compute integral second derivatives, UseDBF=F ICtDFT=           0.
 Integral derivatives from FoFDir, PRISM(SPDF).
 Calling FoFJK, ICntrl=    100147 FMM=F ISym2X=0 I1Cent= 0 IOpClX= 0 NMat=1 NMatS=1 NMatT=0.
 FoFCou: FMM=F IPFlag=           0 FMFlag=      100000 FMFlg1=         800
         NFxFlg=           0 DoJE=F BraDBF=F KetDBF=F FulRan=T
         Omega=  0.000000  0.000000  1.000000  0.000000  0.000000 ICntrl=  100147 IOpCl=  0
         NMat0=    1 NMatS0=    1 NMatT0=    0 NMatD0=    1 NMtDS0=    0 NMtDT0=    0
         I1Cent=           0 NGrid=           0.
 Symmetry not used in FoFCou.
 Leave Link  703 at Tue Mar 11 10:48:06 2014, MaxMem= 4026531840 cpu:     819.7
 (Enter /usr/caen/gaussian-09revc/g09/l716.exe)
 Dipole        = 1.62132210D-01 5.06358040D-01 5.34717387D-02
 Polarizability= 0.00000000D+00 0.00000000D+00 0.00000000D+00
                 0.00000000D+00 0.00000000D+00 0.00000000D+00
 ***** Axes restored to original set *****
 -------------------------------------------------------------------
 Center     Atomic                   Forces (Hartrees/Bohr)
 Number     Number              X              Y              Z
 -------------------------------------------------------------------
      1        6          -0.000165588    0.000088586    0.000094987
      2        1          -0.000024081   -0.000107544    0.000118205
      3        1           0.000006818   -0.000013707   -0.000121520
      4        1           0.000166121    0.000098074    0.000108438
      5        6          -0.000039769    0.000137279   -0.000048964
      6        1           0.000050079    0.000047092    0.000079933
      7        1           0.000021591   -0.000011736   -0.000044041
      8        6           0.000036890    0.000208452   -0.000104325
      9        1          -0.000035666   -0.000022045   -0.000011799
     10        1          -0.000024163    0.000007670    0.000082957
     11        6          -0.001071547   -0.000420806   -0.000017295
     12        1           0.000203737    0.000224243   -0.000006779
     13        6          -0.000078317   -0.000014306   -0.000055782
     14        1          -0.000134507   -0.000042141   -0.000114489
     15        6           0.000009560   -0.000216846    0.000123400
     16        1          -0.000059171    0.000036231    0.000082973
     17        1          -0.000093637   -0.000041041   -0.000039595
     18        1          -0.000155066    0.000382730   -0.000102263
     19        6          -0.000137115    0.000024033    0.000128682
     20        1           0.000044383   -0.000059431    0.000041657
     21        1           0.000164345    0.000103343    0.000060246
     22        1           0.000194903   -0.000002906   -0.000196816
     23        6           0.000114533   -0.000103545    0.000048467
     24        1          -0.000046151    0.000053627   -0.000064465
     25        1          -0.000062684   -0.000012368    0.000088899
     26        1          -0.000004256   -0.000103724   -0.000017363
     27        6           0.001070508   -0.000235225   -0.000069164
     28        8           0.000048251   -0.000003990   -0.000044184
 -------------------------------------------------------------------
 Cartesian Forces:  Max     0.001071547 RMS     0.000200977
 Leave Link  716 at Tue Mar 11 10:48:06 2014, MaxMem= 4026531840 cpu:       1.4
 (Enter /usr/caen/gaussian-09revc/g09/l103.exe)

 GradGradGradGradGradGradGradGradGradGradGradGradGradGradGradGradGradGrad
 Berny optimization.
 Red2BG is reusing G-inverse.
 Internal  Forces:  Max     0.000922575 RMS     0.000204662
 Search for a local minimum.
 Step number   1 out of a maximum of  168
 All quantities printed in internal units (Hartrees-Bohrs-Radians)
 RMS Force = .20466D-03 SwitMx=.10000D-02 MixMth= 2
 Mixed Optimization -- En-DIIS/RFO-DIIS
 Second derivative matrix not updated -- analytic derivatives used.
 ITU=  0
     Eigenvalues ---   -0.00006   0.00198   0.00209   0.00276   0.00286
     Eigenvalues ---    0.00491   0.00633   0.02571   0.02805   0.03450
     Eigenvalues ---    0.03622   0.03862   0.04031   0.04178   0.04311
     Eigenvalues ---    0.04350   0.04436   0.04483   0.04538   0.04569
     Eigenvalues ---    0.04600   0.04627   0.04672   0.04759   0.05116
     Eigenvalues ---    0.05629   0.06017   0.06201   0.07112   0.07899
     Eigenvalues ---    0.08262   0.09292   0.10432   0.11846   0.11973
     Eigenvalues ---    0.12250   0.12403   0.12798   0.12898   0.13694
     Eigenvalues ---    0.14098   0.14284   0.14642   0.14900   0.15114
     Eigenvalues ---    0.15587   0.17607   0.17968   0.19554   0.20756
     Eigenvalues ---    0.22577   0.23109   0.25569   0.26551   0.27327
     Eigenvalues ---    0.27744   0.28097   0.29282   0.30250   0.31984
     Eigenvalues ---    0.32374   0.32727   0.32824   0.32884   0.33105
     Eigenvalues ---    0.33173   0.33195   0.33307   0.33354   0.33442
     Eigenvalues ---    0.33552   0.33719   0.33770   0.34027   0.34146
     Eigenvalues ---    0.34162   0.34368   0.34503
 Eigenvalue     1 is  -6.43D-05 should be greater than     0.000000 Eigenvector:
                          D13       D14       D10       D11       D16
   1                   -0.23442  -0.22827  -0.22517  -0.21901  -0.21594
                          D15       D17       D34       D36       D31
   1                   -0.21152  -0.20978   0.20713   0.20701   0.20583
 RFO step:  Lambda=-1.05968903D-04 EMin=-6.43171770D-05
 Linear search not attempted -- first point.
 Iteration  1 RMS(Cart)=  0.11695568 RMS(Int)=  0.00949512
 Iteration  2 RMS(Cart)=  0.01074729 RMS(Int)=  0.00122093
 Iteration  3 RMS(Cart)=  0.00011630 RMS(Int)=  0.00121608
 Iteration  4 RMS(Cart)=  0.00000006 RMS(Int)=  0.00121608
 Variable       Old X    -DE/DX   Delta X   Delta X   Delta X     New X
                                 (Linear)    (Quad)   (Total)
    R1        2.06596  -0.00014   0.00000   0.00012   0.00012   2.06609
    R2        2.06702  -0.00001   0.00000  -0.00019  -0.00019   2.06682
    R3        2.06515  -0.00013   0.00000  -0.00054  -0.00054   2.06461
    R4        2.90446  -0.00016   0.00000  -0.00057  -0.00057   2.90389
    R5        2.06414  -0.00003   0.00000   0.00007   0.00007   2.06421
    R6        2.06475  -0.00005   0.00000   0.00101   0.00101   2.06576
    R7        2.91957  -0.00023   0.00000  -0.00783  -0.00871   2.91086
    R8        2.92175   0.00014   0.00000  -0.01261  -0.01220   2.90954
    R9        2.06429  -0.00004   0.00000  -0.00133  -0.00133   2.06296
   R10        2.06355  -0.00006   0.00000   0.00025   0.00025   2.06380
   R11        2.93257   0.00002   0.00000   0.01044   0.00947   2.94204
   R12        2.08171   0.00002   0.00000  -0.00141  -0.00141   2.08030
   R13        2.89642  -0.00042   0.00000   0.00363   0.00363   2.90005
   R14        2.70836  -0.00085   0.00000   0.00297   0.00335   2.71171
   R15        2.07542  -0.00009   0.00000   0.00035   0.00035   2.07576
   R16        2.89895  -0.00027   0.00000  -0.00033  -0.00033   2.89862
   R17        2.90194  -0.00011   0.00000  -0.00091  -0.00091   2.90103
   R18        2.07099  -0.00010   0.00000  -0.00017  -0.00017   2.07081
   R19        2.06767  -0.00008   0.00000  -0.00030  -0.00030   2.06737
   R20        2.06091  -0.00017   0.00000  -0.00109  -0.00109   2.05982
   R21        2.06674  -0.00007   0.00000  -0.00042  -0.00042   2.06632
   R22        2.06541  -0.00012   0.00000  -0.00032  -0.00032   2.06508
   R23        2.06421  -0.00012   0.00000  -0.00041  -0.00041   2.06380
   R24        2.88191  -0.00018   0.00000  -0.00045  -0.00045   2.88146
   R25        2.06624  -0.00008   0.00000  -0.00028  -0.00028   2.06596
   R26        2.07051  -0.00011   0.00000  -0.00028  -0.00028   2.07023
   R27        2.06603  -0.00009   0.00000  -0.00002  -0.00002   2.06602
   R28        2.72419  -0.00092   0.00000  -0.00355  -0.00237   2.72181
    A1        1.88048  -0.00003   0.00000   0.00228   0.00228   1.88276
    A2        1.88719   0.00004   0.00000  -0.00237  -0.00238   1.88481
[...]
 0.00027283,0.00004930,-0.00000757,-0.00003734,-0.00000490,0.00000341,-
 0.00008159,-0.00004010,0.00000277,0.00000686,0.00001090,-0.00001894,-0
 .00002963,0.00002742,0.00001130,0.00001021,-0.00000557,0.00000124,0.00
 000314,-0.00000619,-0.00000066,0.00000019,0.00000900,-0.01048255,-0.09
 461374,-0.08816879,-0.00025171,-0.00135120,-0.00190743,0.00956422,0.10
 129848,0.09309196,-0.00219666,-0.00168526,0.00190333,0.00054021,-0.000
 24657,0.00105096,0.00021205,-0.00023725,0.00008857,-0.00011932,-0.0000
 0978,-0.00004471,0.00048461,0.00072497,0.00041884,-0.00000128,0.000006
 51,-0.00001136,0.00021056,0.00018378,-0.00015158,0.00013874,0.00009079
 ,0.00002965,0.00000844,0.00002036,-0.00000468,-0.00001210,0.00005412,0
 .00001549,-0.00009388,-0.00028679,0.00010521,0.00011617,0.00009768,-0.
 00007973,0.00000419,0.00005312,-0.00000933,-0.00003954,-0.00002501,-0.
 00002630,-0.00002358,-0.00000735,0.00001191,0.00000755,0.00000067,-0.0
 0001526,0.00001908,-0.00000326,0.00000469,-0.00003847,0.00005386,0.000
 02113,-0.09205405,0.00858130,-0.10137835,-0.01073014,0.00089438,-0.026
 41298,-0.00170090,0.00032632,-0.00161907,0.09690183,-0.00254505,-0.001
 97212,0.00165300,0.00019596,0.00041580,0.00125032,-0.00019962,-0.00002
 054,-0.00031294,-0.00007582,0.00022958,0.00030916,0.00083887,0.0007801
 3,0.00166981,-0.00010936,0.00007975,-0.00009405,-0.00019766,-0.0005280
 8,-0.00064815,0.00003615,0.00004472,-0.00027284,-0.00004528,-0.0000162
 0,0.00000824,0.00013069,0.00002621,-0.00007241,0.00009265,0.00013605,-
 0.00005781,0.00009909,-0.00000225,-0.00007558,-0.00002545,-0.00000231,
 0.00000108,-0.00001326,0.00001926,-0.00002386,0.00003875,0.00003452,-0
 .00000536,-0.00000758,-0.00001563,0.00000498,0.00000142,-0.00001199,0.
 00000110,0.00000742,-0.00002827,-0.00002280,0.00706950,-0.04876629,0.0
 1647188,0.00461120,-0.00187958,0.01240535,-0.01280042,0.00356254,-0.02
 694363,-0.00677641,0.05072630,0.00394693,0.00290261,-0.00133555,-0.000
 52537,0.00022284,-0.00132688,-0.00008247,-0.00006961,0.00036817,0.0000
 0377,-0.00003703,0.00040012,-0.00023036,-0.00141430,0.00021012,-0.0000
 4794,-0.00023735,0.00026242,0.00011928,0.00055572,0.00097982,0.0000383
 3,-0.00004074,0.00030065,0.00010441,0.00002218,-0.00001052,-0.00012381
 ,-0.00007732,0.00007756,0.00030838,0.00004609,0.00008886,-0.00019135,-
 0.00014082,0.00018499,-0.00000662,0.00005553,-0.00010977,0.00005127,0.
 00003221,0.00009140,0.00005969,0.00003272,-0.00000122,-0.00003294,-0.0
 0000830,0.00003605,-0.00000111,-0.00000748,0.00000293,0.00002013,-0.00
 004815,-0.00004905,-0.09837643,0.01772257,-0.26274263,0.00168503,-0.00
 015038,0.00457163,-0.00466527,0.00113590,-0.01055038,0.10829654,-0.021
 17367,0.28663255,-0.00026675,0.00010063,0.00011823,0.00003698,0.000027
 96,-0.00004253,-0.00005406,0.00004295,-0.00011465,0.00001376,-0.000006
 19,0.00001894,0.00024920,-0.00045663,-0.00030737,0.00005808,0.00006221
 ,-0.00001767,0.00002069,0.00003291,0.00003404,-0.00065354,-0.00007249,
 0.00094020,-0.00062170,0.00025434,-0.00026662,0.00021118,0.00005360,0.
 00025308,-0.02577121,-0.01893669,0.00747880,0.00179384,-0.00021893,0.0
 0114069,-0.13281507,-0.04537950,0.02025302,-0.00534622,-0.00419836,0.0
 0177807,0.00564212,0.00046856,-0.00211373,0.00011062,0.00065387,0.0000
 4849,0.00063477,0.00136116,-0.00005779,-0.00020902,0.00322156,0.000352
 93,-0.00036768,0.00025979,-0.00011778,-0.00010469,-0.00008112,0.000103
 21,0.00000569,-0.00001388,-0.00001740,0.00002999,0.00000709,0.00002479
 ,0.50695114,0.00020659,-0.00016070,-0.00002691,-0.00002761,0.00003633,
 -0.00000868,0.00009417,-0.00003235,0.00007992,-0.00001445,-0.00000128,
 -0.00002697,-0.00006134,-0.00057661,-0.00019541,0.00007957,-0.00001618
 ,-0.00001804,-0.00005089,0.00000475,0.00002055,0.00024075,0.00058598,0
 .00011903,0.00076504,0.00003195,-0.00072216,0.00016135,-0.00015741,0.0
 0042097,-0.00169036,0.00531970,-0.00446086,0.00053060,0.00007102,0.000
 15389,-0.04208088,-0.11370128,0.01739577,0.00092516,0.00033929,0.00022
 745,-0.02623904,-0.02964623,0.00890270,-0.00048077,0.00176447,0.000729
 97,-0.00092004,0.00163098,0.00016403,0.00154015,-0.00585366,-0.0012285
 9,0.00026328,-0.00026196,-0.00001439,0.00011307,0.00005481,-0.00006798
 ,-0.00001848,-0.00001683,0.00003817,-0.00003371,-0.00000829,0.00000435
 ,-0.04981791,0.53106035,-0.00008726,0.00001251,0.00007938,0.00001631,0
 .00003469,-0.00000668,-0.00002599,0.00002540,-0.00006678,-0.00000607,-
 0.00002301,0.00000420,0.00013049,-0.00008532,-0.00024540,-0.00003698,0
 .00006042,0.00006344,-0.00009306,-0.00000614,0.00009183,-0.00028333,-0
 .00028384,0.00004333,0.00035759,0.00006319,-0.00016912,0.00006792,0.00
 016256,0.00021895,-0.00749735,-0.01021917,0.00428324,-0.00102271,-0.00
 048319,0.00025746,0.02098425,0.01800408,-0.08785476,0.02544172,0.02097
 486,-0.00807961,-0.00513989,-0.00339002,0.00206064,-0.00079158,-0.0012
 3127,0.00055362,0.00023291,0.00066048,-0.00010654,-0.00007760,-0.00208
 963,0.00014721,-0.00033381,0.00019922,-0.00016285,-0.00009501,-0.00005
 324,0.00010815,0.00001407,-0.00002203,0.00000337,0.00001786,0.00000147
 ,0.00003141,0.02526704,0.01930604,0.54815152,-0.00012021,0.00005499,0.
 00002408,0.00002161,-0.00000596,0.00002265,-0.00005361,0.00002007,-0.0
 0004539,0.00000564,-0.00002030,0.00000222,0.00006636,0.00000426,-0.000
 13428,-0.00006178,0.00003138,0.00001635,-0.00002479,-0.00001017,0.0000
 3763,0.00005878,-0.00034007,-0.00000304,0.00010895,-0.00000630,-0.0000
 7263,-0.00001051,0.00008191,0.00004001,-0.00032063,-0.00365653,0.00332
 618,0.00026525,-0.00002513,-0.00013833,-0.02178777,0.00653277,-0.01245
 845,0.00059301,0.00050174,0.00050341,0.00092296,0.00155874,-0.00036872
 ,0.00001473,-0.00007636,0.00003970,0.00064716,-0.00094903,0.00014639,0
 .00025339,0.00010737,0.00037889,-0.00016514,0.00011798,-0.00007821,-0.
 00006680,-0.00002993,0.00004836,0.00000154,-0.00002501,-0.00000796,0.0
 0002567,0.00000713,0.00000557,-0.23063657,0.05586532,-0.10472387,0.252
 65656,-0.00007904,0.00005128,0.00003118,0.00001016,-0.00000420,-0.0000
 1510,-0.00002230,0.00001068,-0.00003759,0.00000661,0.00000726,0.000011
 48,-0.00004580,0.00012937,0.00014638,0.00002405,0.00002365,0.00000628,
 0.00002945,0.00001415,-0.00002208,0.00031100,-0.00000122,-0.00020388,-
 0.00007215,0.00013171,0.00039810,-0.00014937,0.00009077,-0.00013142,-0
 .00112238,-0.00325399,0.00168994,0.00013005,-0.00007863,-0.00005301,-0
 .01829608,0.00429267,-0.01127178,0.00085138,0.00069352,-0.00000746,-0.
 00078311,0.00137221,-0.00075476,0.00001742,-0.00007569,-0.00003220,0.0
 0019540,-0.00038842,0.00032118,0.00016517,0.00025381,0.00007736,-0.000
 11534,0.00012351,0.00002187,-0.00003746,-0.00002882,0.00003326,0.00001
 529,0.00001786,-0.00001425,0.00000862,-0.00000220,0.00000186,0.0571261
 6,-0.06303636,0.03157747,-0.05945674,0.06739237,0.00003170,0.00001230,
 -0.00003239,-0.00000057,-0.00001480,0.00001106,-0.00000473,-0.00000743
 ,0.00001594,0.00000180,-0.00000172,-0.00000317,0.00001239,-0.00000100,
 0.00008072,0.00000664,0.00000286,-0.00000747,-0.00001377,-0.00000953,0
 .00000303,0.00008862,0.00020750,-0.00009779,-0.00009018,0.00004881,0.0
 0009655,0.00003400,-0.00008022,-0.00000929,0.00067342,0.00114000,-0.00
 074829,0.00025248,-0.00006547,0.00058946,0.00957009,-0.00251268,0.0042
 4044,-0.00019031,-0.00064643,0.00058745,-0.00007488,-0.00025612,0.0000
 0023,-0.00014659,0.00008230,-0.00009686,-0.00011982,-0.00026263,0.0002
 3616,0.00017882,-0.00020142,-0.00002819,0.00000786,-0.00000258,0.00000
 890,-0.00000147,-0.00000136,-0.00000523,-0.00000111,-0.00000323,-0.000
 00213,0.00000031,0.00000227,-0.00000231,-0.10531424,0.03098570,-0.1054
 6354,0.11410912,-0.03574009,0.11142155,-0.00003621,-0.00002394,0.00002
 835,-0.00000519,0.00002541,-0.00001709,0.00000829,0.00000720,-0.000015
 80,-0.00000550,-0.00000174,-0.00000097,-0.00009335,-0.00000825,-0.0000
 6202,-0.00001684,-0.00001163,-0.00001282,0.00006198,0.00001281,-0.0000
 4063,-0.00005019,0.00004592,0.00005908,0.00008295,-0.00022447,-0.00010
 509,-0.00012013,0.00010974,-0.00005817,0.00094742,0.00031105,0.0027319
 8,-0.00030554,-0.00010240,-0.00101783,-0.00508679,0.00184921,0.0256303
 8,-0.00342856,-0.00330679,0.00101855,0.00060856,0.00134771,-0.00013154
 ,0.00036101,-0.00038905,-0.00050418,0.00001488,-0.00008425,-0.00015646
 ,-0.00008128,0.00020859,-0.00020512,0.00005171,-0.00002696,0.00002345,
 0.00001202,0.00000982,-0.00001396,-0.00000224,0.00000042,-0.00000008,0
 .00000207,0.00000033,-0.00001564,-0.05317571,0.00287106,0.03966967,0.0
 0531547,-0.00272511,-0.02737470,0.05688522,-0.00001448,0.00003034,-0.0
 0000304,-0.00000104,-0.00000012,0.00000355,-0.00000692,0.00000029,-0.0
 0000687,-0.00000427,-0.00000430,0.00000585,0.00009649,0.00004537,0.000
 13668,0.00001692,0.00000642,-0.00001510,-0.00000545,-0.00001731,-0.000
 00199,-0.00002653,-0.00017148,-0.00045981,-0.00001920,0.00009067,0.000
 18174,0.00009032,-0.00002414,0.00005781,0.00066977,0.00045525,0.000216
 29,-0.00010317,0.00017290,-0.00030809,-0.00283482,0.00062030,0.0211181
 5,-0.00335879,-0.00211056,0.00102080,0.00023209,0.00141892,0.00133309,
 -0.00002899,-0.00011193,-0.00056729,0.00000451,-0.00007385,0.00000543,
 0.00006794,0.00018776,-0.00032103,0.00001659,-0.00000084,0.00001737,-0
 .00000190,0.00000181,-0.00000666,-0.00000257,0.00000110,-0.00000367,0.
 00000452,0.00000125,-0.00000719,0.00322639,-0.04879036,-0.01726495,-0.
 00187348,-0.00029176,0.00874706,-0.00038591,0.04972704,0.00003702,0.00
 001136,-0.00001430,-0.00000571,-0.00001205,-0.00000687,0.00000841,-0.0
 0000327,0.00001297,0.00000597,0.00001434,0.00000689,-0.00000226,0.0000
 2829,0.00008576,0.00003348,-0.00000389,0.00000816,-0.00003922,-0.00000
 253,0.00002676,-0.00008379,-0.00007110,-0.00025431,0.00005248,0.000173
 36,0.00008678,0.00011800,-0.00008892,0.00007456,-0.00114589,0.00000903
 ,-0.00000702,0.00059263,-0.00014989,0.00076193,0.00256842,-0.00011218,
 -0.01034578,0.00149438,0.00145474,0.00104644,-0.00042497,-0.00074259,0
 .00058651,-0.00007644,0.00092738,0.00051480,0.00004531,-0.00000894,-0.
 00005895,-0.00001964,0.00008820,0.00038703,-0.00001418,0.00001395,-0.0
 0000459,0.00000630,-0.00000733,0.00000203,0.00000392,0.00001380,0.0000
 0054,-0.00000872,-0.00000493,0.00001687,0.03980133,-0.01677682,-0.2930
 5359,0.00245638,-0.00143219,-0.01477521,-0.04580762,0.01738007,0.32077
 680,0.00000794,0.00001211,0.00001061,-0.00000320,-0.00000297,-0.000024
 47,0.00000818,-0.00000309,0.00000140,0.00000833,0.00001815,0.00001344,
 -0.00008495,-0.00002097,0.00013607,0.00008030,0.00001956,-0.00000475,0
 .00003942,0.00002519,-0.00003251,-0.00091970,-0.00013440,-0.00044842,-
 0.00078714,0.00047659,0.00062722,-0.00009653,0.00015198,0.00011290,0.0
 0066191,-0.00068185,-0.00040555,-0.00001678,0.00008033,-0.00001307,0.0
 0673511,-0.02319875,-0.00752140,0.00097960,0.00088123,0.00003640,-0.00
 412469,-0.00219509,0.00147261,-0.00012116,0.00013009,-0.00008557,0.000
 18768,-0.00015546,0.00026646,0.00052400,-0.00156956,-0.00009510,0.0000
 2261,0.00002297,0.00003931,0.00000435,-0.00000137,-0.00000745,0.000017
 03,0.00002685,-0.00000193,-0.00000240,-0.00000916,-0.00000480,-0.05953
 330,0.05334083,0.01304492,-0.00563412,0.02579738,0.00763014,-0.0021366
 7,0.00408186,0.00046577,0.06379113,-0.00006459,0.00006490,0.00000030,0
 .00000831,-0.00001935,-0.00001911,-0.00002602,0.00000866,-0.00002036,0
 .00002367,0.00003000,0.00003138,-0.00002088,0.00037085,0.00041167,0.00
 005183,0.00004004,0.00001144,0.00000088,-0.00000741,-0.00002516,0.0006
 5031,0.00009020,-0.00089913,0.00031443,0.00056077,0.00071779,-0.000187
 34,0.00012441,-0.00014712,0.00118312,-0.00068135,0.00006121,-0.0001103
 0,0.00009157,0.00000446,0.00527844,-0.01776773,-0.00526135,0.00009016,
 0.00060668,0.00047963,-0.00470494,-0.00139590,0.00211027,0.00005691,0.
 00031245,-0.00006968,0.00004483,0.00041533,0.00001024,0.00045842,-0.00
 139283,-0.00037904,-0.00004458,0.00008496,0.00006989,-0.00002999,-0.00
 000361,0.00000523,0.00004061,0.00005140,-0.00000565,0.00001031,-0.0000
 1944,-0.00001384,0.05220760,-0.28043014,-0.05578751,0.00191665,-0.0073
 2305,-0.00165341,0.00035948,-0.00099017,-0.00062734,-0.05744728,0.3070
 6196,-0.00001999,-0.00000244,0.00000785,0.00000390,-0.00000379,-0.0000
 0966,-0.00000419,0.00000248,-0.00000325,0.00000518,0.00000864,-0.00000
 043,-0.00007884,0.00009794,0.00001076,-0.00000995,-0.00000743,0.000001
 13,0.00006132,0.00001936,-0.00003301,0.00045768,0.00020969,0.00032392,
 0.00034770,-0.00013757,0.00013042,-0.00036763,0.00001279,-0.00025511,0
 .00012547,-0.00073056,0.00022784,0.00006908,-0.00003807,-0.00003150,-0
 .00356794,0.00927108,0.00098128,-0.00063321,-0.00002143,0.00030922,0.0
 0157094,0.00096086,-0.00012583,0.00001122,0.00040796,0.00039568,0.0002
 3225,-0.00033919,0.00000244,0.00008780,0.00056260,0.00062405,-0.000004
 41,0.00002611,0.00002020,-0.00000356,-0.00000344,0.00000171,0.00000582
 ,0.00000880,-0.00000502,0.00000022,0.00000046,-0.00000420,0.01256675,-
 0.05603741,-0.06107144,-0.00269110,0.01568693,0.00348466,0.00727823,-0
 .03100012,-0.00627209,-0.01527340,0.06105865,0.06147174,-0.07928575,-0
 .00715265,-0.02499759,0.00695511,-0.00018012,0.02101691,-0.01058835,0.
 00039668,-0.02511551,-0.00219428,0.00046762,-0.00068480,-0.07080392,-0
 .01599015,-0.00744327,0.00423569,0.01957343,0.00798519,-0.00184720,-0.
 00213830,-0.00246090,-0.01479242,-0.02242466,-0.01044462,-0.00479790,0
 .00069973,0.00282385,-0.00079220,0.00156201,0.00026704,-0.05119287,-0.
 01164123,0.00528944,0.00335193,0.00268033,-0.00304431,-0.00070549,-0.0
 0075836,0.00110435,-0.00025716,-0.00022372,-0.00005013,0.00035334,-0.0
 0046846,0.00077689,-0.00014873,0.00012705,-0.00018127,0.00079102,0.000
 00344,0.00003002,-0.00056739,0.00120650,-0.00038846,-0.10225452,-0.041
 35529,0.03847387,-0.01545876,-0.01570210,0.01466203,-0.00296785,-0.001
 14167,0.00135392,0.00638449,0.00877210,-0.00962141,0.00013587,-0.00054
 092,-0.00017686,0.00030639,0.00015955,0.00006820,-0.00003756,0.0000922
 9,-0.00001842,-0.00002509,0.00047526,0.00006340,0.46973831,-0.00564027
 ,-0.07749807,0.00327540,0.00810615,-0.00134988,0.01766103,0.00403307,-
 0.00260456,0.01075395,-0.01154475,-0.00034871,-0.03063061,-0.02198453,
 -0.13255943,-0.03057141,-0.00502872,-0.01325228,-0.00628683,0.00009958
 ,0.00027595,0.00121064,-0.02267216,-0.01401492,0.00193440,0.00124057,-
 0.00191275,0.00000065,-0.00016912,-0.00067994,-0.00034633,-0.01386477,
 0.01352010,-0.00411775,-0.00213421,-0.00184893,0.00163826,-0.00335652,
 -0.00563521,0.00190955,0.00022909,0.00021873,-0.00020372,0.00073637,-0
 .00071601,0.00027657,0.00002067,-0.00003599,0.00005289,0.00001598,0.00
 004820,-0.00006990,0.00030011,0.00013872,-0.00013696,-0.03138580,-0.11
 644238,0.03776367,0.01071639,0.00789448,-0.01066236,-0.01902290,-0.019
 23600,0.01942649,-0.00198476,-0.00324176,0.00159155,-0.00174507,0.0012
 7607,-0.00113432,-0.00070965,-0.00052013,0.00011240,0.00011387,-0.0000
 3407,-0.00002134,0.00000234,-0.00032111,-0.00007205,0.06207966,0.48093
 058,-0.02137709,-0.00046397,-0.16384926,-0.00781391,-0.00001741,-0.017
 87278,0.00366983,-0.00130998,0.00421223,-0.00572825,0.00083348,-0.0133
 3278,-0.00816628,-0.02703139,-0.09371388,0.00310747,0.01114038,0.00268
 186,-0.00818305,-0.03092911,-0.01390920,0.00023716,0.00797000,0.006190
 70,0.00198952,0.00032450,-0.00059901,0.00123810,0.00063895,-0.00053584
 ,0.01240332,-0.00230198,-0.00298924,0.00263359,0.00161000,-0.00086623,
 -0.00155159,-0.00087599,-0.00098719,-0.00004798,0.00010350,-0.00002823
 ,0.00002598,-0.00009829,0.00018905,-0.00006235,-0.00001764,0.00001267,
 0.00002942,-0.00007997,0.00001366,0.00013121,-0.00033645,-0.00005285,0
 .03265497,0.03960975,-0.11718462,-0.00204262,-0.00023676,-0.00136223,-
 0.00840269,-0.00831197,0.00716424,0.01842717,0.01743365,-0.02044039,-0
 .00014420,0.00029688,0.00022849,0.00001631,-0.00012769,0.00010814,-0.0
 0005128,-0.00006717,0.00003072,-0.00006868,-0.00021733,-0.00006722,-0.
 00980265,-0.01926748,0.49059206,-0.03454326,0.01646835,-0.00594517,0.0
 0130463,0.00071847,-0.00004724,-0.00186087,0.00088521,-0.00698790,0.00
 148493,-0.00084530,0.00208024,-0.01879247,0.02262080,0.00278541,0.0009
 3190,0.00341566,0.00280832,0.00113090,-0.00009851,0.00072492,-0.002198
 32,-0.01199823,-0.00180797,0.00069477,-0.00183705,-0.00053618,-0.00072
 613,-0.00093358,-0.00034852,-0.11504977,-0.05087142,0.02108860,-0.0138
 8003,-0.01609170,0.01264435,-0.03603912,-0.02873214,0.01206428,0.00274
 675,-0.00022688,0.00037126,-0.00040138,-0.00011407,-0.00066150,-0.0001
 3377,-0.00012969,0.00051935,-0.00067947,-0.00059772,0.00000132,-0.0020
 1273,-0.00031618,0.00023254,-0.04100298,0.01377381,0.00719837,-0.00393
 498,-0.00396083,0.00374269,0.00204858,0.00106710,-0.00159822,0.0019266
 6,0.00089672,-0.00073857,-0.00633841,0.00497946,-0.00485338,-0.0023815
 1,-0.00194282,0.00066678,0.00023019,0.00006783,-0.00004289,0.00041814,
 -0.00053527,-0.00023274,-0.13353470,0.05354940,-0.00312144,0.40059244,
 0.01071887,-0.00165636,0.00299795,-0.00029253,-0.00009778,-0.00111303,
 -0.00015255,0.00143737,0.00155794,0.00000272,0.00145759,0.00122399,0.0
 2691782,-0.03595133,-0.00091511,-0.00206356,-0.00611264,-0.00296346,0.
 00092335,0.00077964,-0.00005036,-0.01390497,-0.04324708,0.00559436,0.0
 0114964,-0.00322430,-0.00001501,0.00073367,-0.00489542,-0.00190472,-0.
 01881681,-0.13302491,0.02252346,-0.01044452,-0.00629694,0.01027319,-0.
 00242894,0.00468785,-0.00302415,0.00057895,-0.00016093,-0.00019733,0.0
 0097396,-0.00128653,0.00000825,0.00001346,-0.00006043,0.00002339,0.000
 72438,0.00084258,0.00000791,0.00149518,0.00119725,-0.00057226,-0.01782
 676,0.01052102,0.00023277,-0.00396928,-0.00165785,0.00286319,0.0006978
 5,0.00175038,-0.00050954,0.00018485,0.00045882,-0.00089995,0.00182000,
 0.00051395,0.00099125,0.00038434,0.00039965,0.00011893,0.00001787,-0.0
 0013853,-0.00004919,0.00035246,0.00043793,0.00005915,0.02142198,-0.112
 05068,0.01172947,0.00078857,0.32537768,-0.03206484,0.01457724,0.003012
 30,0.00134089,-0.00020562,0.00227252,-0.00376843,0.00098369,-0.0060004
 3,0.00109317,0.00059968,0.00262288,0.01376306,-0.01095639,0.00461125,-
 0.00037214,-0.00371777,-0.00052105,-0.00005119,0.00170349,0.00151231,-
 0.00142206,-0.00135995,0.00637441,-0.00007171,0.00081948,-0.00013218,0
 .00000845,-0.00151858,0.00044533,0.01874153,0.02993199,-0.07374774,0.0
 2813589,0.02694528,-0.00323686,-0.00674435,-0.00840583,0.00574592,0.00
 142458,-0.00067327,0.00275871,0.00066457,0.00064716,0.00056188,-0.0004
 3655,0.00010228,0.00017492,-0.00017757,-0.00010632,0.00013584,-0.00041
 481,-0.00031245,-0.00014732,0.02099829,-0.00828210,0.00003502,0.002694
 52,0.00222650,-0.00126251,-0.00038412,0.00004173,0.00047066,-0.0006298
 2,-0.00150473,0.00231737,-0.00166562,0.00073882,-0.00004592,-0.0004513
 0,-0.00015982,0.00038756,-0.00084870,-0.00019091,0.00036715,0.00012985
 ,0.00015386,-0.00011414,0.00051510,0.00591363,-0.06363288,-0.04000671,
 -0.04799109,0.11503499\\0.00000345,-0.00000856,-0.00000498,0.00000299,
 -0.00000803,-0.00000441,0.00000228,-0.00001097,-0.00000771,0.00000671,
 -0.00000929,-0.00000322,-0.00000410,-0.00000238,-0.00000595,-0.0000057
 0,-0.00000524,-0.00000861,-0.00000673,-0.00000083,-0.00000521,-0.00000
 411,0.00000028,-0.00000214,-0.00000692,0.00000290,-0.00000232,-0.00000
 438,-0.00000148,-0.00000408,0.00000064,0.00000098,0.00000086,0.0000027
 6,-0.00000069,0.00000131,-0.00000032,0.00000568,0.00000464,-0.00000279
 ,0.00000705,0.00000406,0.00000413,0.00000595,0.00000794,0.00000689,0.0
 0000445,0.00000860,0.00000374,0.00000924,0.00001048,0.00000524,0.00000
 435,0.00000745,0.00000059,-0.00000494,-0.00000387,-0.00000076,-0.00000
 744,-0.00000684,0.00000406,-0.00000615,-0.00000230,-0.00000134,-0.0000
 0212,-0.00000272,-0.00000176,0.00000770,0.00000531,-0.00000218,0.00001
 097,0.00000782,0.00000076,0.00000622,0.00000585,-0.00000496,0.00000752
 ,0.00000295,0.00000008,-0.00000411,-0.00000290,0.00000173,-0.00000101,
 0.\\\@
 Job cpu time:  0 days  5 hours 14 minutes 56.4 seconds.
 File lengths (MBytes):  RWF=  53687 Int=      0 D2E=      0 Chk=     16 Scr=      1
 Normal termination of Gaussian 09 at Tue Mar 11 16:19:14 2014.
