 Entering Gaussian System, Link 0=g09
 Initial command:
 /usr/caen/gaussian-09revc/g09/l1.exe /scratch/avioli_flux/hetanjin/scratch/Gau-30545.inp -scrdir=/scratch/avioli_flux/hetanjin/scratch/
 Entering Link 1 = /usr/caen/gaussian-09revc/g09/l1.exe PID=     30546.
  
 Copyright (c) 1988,1990,1992,1993,1995,1998,2003,2009,2011,
            Gaussian, Inc.  All Rights Reserved.
  
 This is part of the Gaussian(R) 09 program.  It is based on
 the Gaussian(R) 03 system (copyright 2003, Gaussian, Inc.),
 the Gaussian(R) 98 system (copyright 1998, Gaussian, Inc.),
 the Gaussian(R) 94 system (copyright 1995, Gaussian, Inc.),
 the Gaussian 92(TM) system (copyright 1992, Gaussian, Inc.),
 the Gaussian 90(TM) system (copyright 1990, Gaussian, Inc.),
 the Gaussian 88(TM) system (copyright 1988, Gaussian, Inc.),
 the Gaussian 86(TM) system (copyright 1986, Carnegie Mellon
 University), and the Gaussian 82(TM) system (copyright 1983,
 Carnegie Mellon University). Gaussian is a federally registered
 trademark of Gaussian, Inc.
  
 This software contains proprietary and confidential information,
 including trade secrets, belonging to Gaussian, Inc.
  
 This software is provided under written license and may be
 used, copied, transmitted, or stored only in accord with that
 written license.
  
 The following legend is applicable only to US Government
 contracts under FAR:
  
                    RESTRICTED RIGHTS LEGEND
  
 Use, reproduction and disclosure by the US Government is
 subject to restrictions as set forth in subparagraphs (a)
 and (c) of the Commercial Computer Software - Restricted
 Rights clause in FAR 52.227-19.
  
 Gaussian, Inc.
 340 Quinnipiac St., Bldg. 40, Wallingford CT 06492
  
  
 ---------------------------------------------------------------
 Warning -- This program may not be used in any manner that
 competes with the business of Gaussian, Inc. or will provide
 assistance to any competitor of Gaussian, Inc.  The licensee
 of this program is prohibited from giving any competitor of
 Gaussian, Inc. access to this program.  By using this program,
 the user acknowledges that Gaussian, Inc. is engaged in the
 business of creating and licensing software in the field of
 computational chemistry and represents and warrants to the
 licensee that it is not a competitor of Gaussian, Inc. and that
 it will not use this program in any manner prohibited above.
 ---------------------------------------------------------------
  

 Cite this work as:
 Gaussian 09, Revision C.01,
 M. J. Frisch, G. W. Trucks, H. B. Schlegel, G. E. Scuseria, 
 M. A. Robb, J. R. Cheeseman, G. Scalmani, V. Barone, B. Mennucci, 
 G. A. Petersson, H. Nakatsuji, M. Caricato, X. Li, H. P. Hratchian, 
 A. F. Izmaylov, J. Bloino, G. Zheng, J. L. Sonnenberg, M. Hada, 
 M. Ehara, K. Toyota, R. Fukuda, J. Hasegawa, M. Ishida, T. Nakajima, 
 Y. Honda, O. Kitao, H. Nakai, T. Vreven, J. A. Montgomery, Jr., 
 J. E. Peralta, F. Ogliaro, M. Bearpark, J. J. Heyd, E. Brothers, 
 K. N. Kudin, V. N. Staroverov, T. Keith, R. Kobayashi, J. Normand, 
 K. Raghavachari, A. Rendell, J. C. Burant, S. S. Iyengar, J. Tomasi, 
 M. Cossi, N. Rega, J. M. Millam, M. Klene, J. E. Knox, J. B. Cross, 
 V. Bakken, C. Adamo, J. Jaramillo, R. Gomperts, R. E. Stratmann, 
 O. Yazyev, A. J. Austin, R. Cammi, C. Pomelli, J. W. Ochterski, 
 R. L. Martin, K. Morokuma, V. G. Zakrzewski, G. A. Voth, 
 P. Salvador, J. J. Dannenberg, S. Dapprich, A. D. Daniels, 
 O. Farkas, J. B. Foresman, J. V. Ortiz, J. Cioslowski, 
 and D. J. Fox, Gaussian, Inc., Wallingford CT, 2010.
 
 ******************************************
 Gaussian 09:  EM64L-G09RevC.01 23-Sep-2011
                 5-Apr-2014 
 ******************************************
 %mem=30GB
 %nprocshared=8
 Will use up to    8 processors via shared memory.
 %chk=C9H18OOH_3_26_a.chk
 --------------------------
 #p cbs-qb3 opt=calcfc freq
 --------------------------
 1/10=4,14=-1,18=20,19=15,26=3,38=1/1,3;
 2/9=110,12=2,17=6,18=5,40=1/2;
 3/5=4,6=6,7=700,11=2,16=1,25=1,30=1,71=2,74=-5/1,2,3;
 4//1;
 5/5=2,38=5/2;
 8/6=4,10=90,11=11/1;
 11/6=1,8=1,9=11,15=111,16=1/1,2,10;
 10/6=1,7=6,13=1/2;
 6/7=2,8=2,9=2,10=2,28=1/1;
 7/10=1,18=20,25=1/1,2,3,16;
 1/10=4,14=-1,18=20,19=15/3(2);
 2/9=110/2;
 99//99;
 2/9=110/2;
 3/5=4,6=6,7=700,11=2,16=1,25=1,30=1,71=1,74=-5/1,2,3;
 4/5=5,16=3/1;
 5/5=2,38=5/2;
 7//1,2,3,16;
 1/14=-1,18=20,19=15/3(-5);
 2/9=110/2;
 6/7=2,8=2,9=2,10=2,19=2,28=1/1;
 99/9=1/99;
 Leave Link    1 at Sat Apr  5 23:13:41 2014, MaxMem= 4026531840 cpu:       0.5
 (Enter /usr/caen/gaussian-09revc/g09/l101.exe)
 --------------------------------------------
 C9H18OOH_3_26_a using cbs-qb3 to cal. energy
 --------------------------------------------
 Charge =  0 Multiplicity = 2
 Symbolic Z-Matrix:
 C                    -3.5548   -0.18645  -0.30548 
 H                    -4.2038   -0.24725   0.56151 
 H                    -3.93489   0.3081   -1.19209 
 C                    -2.21429  -0.84672  -0.30431 
 H                    -1.99111  -1.15464  -1.3344 
 C                     0.32319  -0.37697  -0.37666 
 H                     0.36039  -0.22333  -1.46246 
 H                     0.38927  -1.4555   -0.21367 
 C                     1.4994    0.34268   0.29461 
 H                     1.51752   0.08826   1.36332 
 H                     1.32188   1.42057   0.23534 
 C                     2.87968   0.03256  -0.31435 
 H                     2.82775   0.26731  -1.38652 
 C                     3.95332   0.93526   0.30934 
 H                     4.04769   0.7445    1.38422 
 H                     4.93277   0.75954  -0.14539 
 H                     3.70771   1.99323   0.17987 
 C                     3.27002  -1.44606  -0.17335 
 H                     4.25969  -1.63137  -0.60123 
 H                     3.30596  -1.7393    0.88215 
 H                     2.56593  -2.1104   -0.6812 
 C                    -1.04391   0.109     0.11547 
 H                    -1.04542   0.22533   1.20463 
 O                    -1.18757   1.41856  -0.45603 
 O                    -2.02914   2.22656   0.39802 
 H                    -2.91674   1.99194   0.07596 
 C                    -2.22835  -2.09215   0.60238 
 H                    -1.2625   -2.60228   0.61528 
 H                    -2.47513  -1.81391   1.63206 
 H                    -2.97874  -2.8087    0.2608 
 
 NAtoms=     30 NQM=        0 NQMF=       0 NMMI=     30 NMMIF=      0
                NMic=       0 NMicF=      0.
                    Isotopes and Nuclear Properties:
 (Nuclear quadrupole moments (NQMom) in fm**2, nuclear magnetic moments (NMagM)
  in nuclear magnetons)

  Atom         1           2           3           4           5           6           7           8           9          10
 IAtWgt=          12           1           1          12           1          12           1           1          12           1
 AtmWgt=  12.0000000   1.0078250   1.0078250  12.0000000   1.0078250  12.0000000   1.0078250   1.0078250  12.0000000   1.0078250
 NucSpn=           0           1           1           0           1           0           1           1           0           1
 AtZEff=   0.0000000   0.0000000   0.0000000   0.0000000   0.0000000   0.0000000   0.0000000   0.0000000   0.0000000   0.0000000
 NQMom=    0.0000000   0.0000000   0.0000000   0.0000000   0.0000000   0.0000000   0.0000000   0.0000000   0.0000000   0.0000000
 NMagM=    0.0000000   2.7928460   2.7928460   0.0000000   2.7928460   0.0000000   2.7928460   2.7928460   0.0000000   2.7928460

  Atom        11          12          13          14          15          16          17          18          19          20
 IAtWgt=           1          12           1          12           1           1           1          12           1           1
 AtmWgt=   1.0078250  12.0000000   1.0078250  12.0000000   1.0078250   1.0078250   1.0078250  12.0000000   1.0078250   1.0078250
 NucSpn=           1           0           1           0           1           1           1           0           1           1
 AtZEff=   0.0000000   0.0000000   0.0000000   0.0000000   0.0000000   0.0000000   0.0000000   0.0000000   0.0000000   0.0000000
 NQMom=    0.0000000   0.0000000   0.0000000   0.0000000   0.0000000   0.0000000   0.0000000   0.0000000   0.0000000   0.0000000
 NMagM=    2.7928460   0.0000000   2.7928460   0.0000000   2.7928460   2.7928460   2.7928460   0.0000000   2.7928460   2.7928460

  Atom        21          22          23          24          25          26          27          28          29          30
 IAtWgt=           1          12           1          16          16           1          12           1           1           1
 AtmWgt=   1.0078250  12.0000000   1.0078250  15.9949146  15.9949146   1.0078250  12.0000000   1.0078250   1.0078250   1.0078250
 NucSpn=           1           0           1           0           0           1           0           1           1           1
 AtZEff=   0.0000000   0.0000000   0.0000000   0.0000000   0.0000000   0.0000000   0.0000000   0.0000000   0.0000000   0.0000000
 NQMom=    0.0000000   0.0000000   0.0000000   0.0000000   0.0000000   0.0000000   0.0000000   0.0000000   0.0000000   0.0000000
 NMagM=    2.7928460   0.0000000   2.7928460   0.0000000   0.0000000   2.7928460   0.0000000   2.7928460   2.7928460   2.7928460
 Leave Link  101 at Sat Apr  5 23:13:42 2014, MaxMem= 4026531840 cpu:       3.0
 (Enter /usr/caen/gaussian-09revc/g09/l103.exe)

 GradGradGradGradGradGradGradGradGradGradGradGradGradGradGradGradGradGrad
 Berny optimization.
 Initialization pass.
                           ----------------------------
                           !    Initial Parameters    !
                           ! (Angstroms and Degrees)  !
 --------------------------                            --------------------------
 ! Name  Definition              Value          Derivative Info.                !
 --------------------------------------------------------------------------------
 ! R1    R(1,2)                  1.0847         calculate D2E/DX2 analytically  !
 ! R2    R(1,3)                  1.084          calculate D2E/DX2 analytically  !
 ! R3    R(1,4)                  1.4943         calculate D2E/DX2 analytically  !
 ! R4    R(4,5)                  1.098          calculate D2E/DX2 analytically  !
 ! R5    R(4,22)                 1.5683         calculate D2E/DX2 analytically  !
 ! R6    R(4,27)                 1.5406         calculate D2E/DX2 analytically  !
 ! R7    R(6,7)                  1.0973         calculate D2E/DX2 analytically  !
 ! R8    R(6,8)                  1.0928         calculate D2E/DX2 analytically  !
 ! R9    R(6,9)                  1.5336         calculate D2E/DX2 analytically  !
 ! R10   R(6,22)                 1.5321         calculate D2E/DX2 analytically  !
 ! R11   R(9,10)                 1.0987         calculate D2E/DX2 analytically  !
 ! R12   R(9,11)                 1.094          calculate D2E/DX2 analytically  !
 ! R13   R(9,12)                 1.5402         calculate D2E/DX2 analytically  !
 ! R14   R(12,13)                1.0988         calculate D2E/DX2 analytically  !
 ! R15   R(12,14)                1.5351         calculate D2E/DX2 analytically  !
 ! R16   R(12,18)                1.5358         calculate D2E/DX2 analytically  !
 ! R17   R(14,15)                1.0957         calculate D2E/DX2 analytically  !
 ! R18   R(14,16)                1.0941         calculate D2E/DX2 analytically  !
 ! R19   R(14,17)                1.0938         calculate D2E/DX2 analytically  !
 ! R20   R(18,19)                1.094          calculate D2E/DX2 analytically  !
 ! R21   R(18,20)                1.0961         calculate D2E/DX2 analytically  !
 ! R22   R(18,21)                1.0932         calculate D2E/DX2 analytically  !
 ! R23   R(22,23)                1.0954         calculate D2E/DX2 analytically  !
 ! R24   R(22,24)                1.436          calculate D2E/DX2 analytically  !
 ! R25   R(24,25)                1.4459         calculate D2E/DX2 analytically  !
 ! R26   R(25,26)                0.9729         calculate D2E/DX2 analytically  !
 ! R27   R(27,28)                1.0924         calculate D2E/DX2 analytically  !
 ! R28   R(27,29)                1.0948         calculate D2E/DX2 analytically  !
 ! R29   R(27,30)                1.0923         calculate D2E/DX2 analytically  !
 ! A1    A(2,1,3)              118.0029         calculate D2E/DX2 analytically  !
 ! A2    A(2,1,4)              120.7536         calculate D2E/DX2 analytically  !
 ! A3    A(3,1,4)              121.1154         calculate D2E/DX2 analytically  !
 ! A4    A(1,4,5)              107.7886         calculate D2E/DX2 analytically  !
 ! A5    A(1,4,22)             113.6044         calculate D2E/DX2 analytically  !
 ! A6    A(1,4,27)             110.4559         calculate D2E/DX2 analytically  !
 ! A7    A(5,4,22)             105.6829         calculate D2E/DX2 analytically  !
 ! A8    A(5,4,27)             109.1033         calculate D2E/DX2 analytically  !
 ! A9    A(22,4,27)            109.9952         calculate D2E/DX2 analytically  !
 ! A10   A(7,6,8)              106.4838         calculate D2E/DX2 analytically  !
 ! A11   A(7,6,9)              109.9635         calculate D2E/DX2 analytically  !
 ! A12   A(7,6,22)             107.68           calculate D2E/DX2 analytically  !
 ! A13   A(8,6,9)              110.5773         calculate D2E/DX2 analytically  !
 ! A14   A(8,6,22)             108.6093         calculate D2E/DX2 analytically  !
 ! A15   A(9,6,22)             113.2611         calculate D2E/DX2 analytically  !
 ! A16   A(6,9,10)             109.2523         calculate D2E/DX2 analytically  !
 ! A17   A(6,9,11)             108.3107         calculate D2E/DX2 analytically  !
 ! A18   A(6,9,12)             114.821          calculate D2E/DX2 analytically  !
 ! A19   A(10,9,11)            106.4703         calculate D2E/DX2 analytically  !
 ! A20   A(10,9,12)            108.8549         calculate D2E/DX2 analytically  !
 ! A21   A(11,9,12)            108.8073         calculate D2E/DX2 analytically  !
 ! A22   A(9,12,13)            107.4832         calculate D2E/DX2 analytically  !
 ! A23   A(9,12,14)            110.3489         calculate D2E/DX2 analytically  !
 ! A24   A(9,12,18)            112.6652         calculate D2E/DX2 analytically  !
 ! A25   A(13,12,14)           107.69           calculate D2E/DX2 analytically  !
 ! A26   A(13,12,18)           107.8957         calculate D2E/DX2 analytically  !
 ! A27   A(14,12,18)           110.5542         calculate D2E/DX2 analytically  !
 ! A28   A(12,14,15)           110.8795         calculate D2E/DX2 analytically  !
 ! A29   A(12,14,16)           111.2729         calculate D2E/DX2 analytically  !
 ! A30   A(12,14,17)           111.3238         calculate D2E/DX2 analytically  !
 ! A31   A(15,14,16)           107.6172         calculate D2E/DX2 analytically  !
 ! A32   A(15,14,17)           107.6887         calculate D2E/DX2 analytically  !
 ! A33   A(16,14,17)           107.8894         calculate D2E/DX2 analytically  !
 ! A34   A(12,18,19)           110.9229         calculate D2E/DX2 analytically  !
 ! A35   A(12,18,20)           110.7523         calculate D2E/DX2 analytically  !
 ! A36   A(12,18,21)           112.2567         calculate D2E/DX2 analytically  !
 ! A37   A(19,18,20)           107.5568         calculate D2E/DX2 analytically  !
 ! A38   A(19,18,21)           107.3387         calculate D2E/DX2 analytically  !
 ! A39   A(20,18,21)           107.812          calculate D2E/DX2 analytically  !
 ! A40   A(4,22,6)             112.7457         calculate D2E/DX2 analytically  !
 ! A41   A(4,22,23)            109.2599         calculate D2E/DX2 analytically  !
 ! A42   A(4,22,24)            111.9974         calculate D2E/DX2 analytically  !
 ! A43   A(6,22,23)            110.7511         calculate D2E/DX2 analytically  !
 ! A44   A(6,22,24)            104.5182         calculate D2E/DX2 analytically  !
 ! A45   A(23,22,24)           107.3816         calculate D2E/DX2 analytically  !
 ! A46   A(22,24,25)           109.437          calculate D2E/DX2 analytically  !
 ! A47   A(24,25,26)           101.5789         calculate D2E/DX2 analytically  !
 ! A48   A(4,27,28)            112.1115         calculate D2E/DX2 analytically  !
 ! A49   A(4,27,29)            110.4956         calculate D2E/DX2 analytically  !
 ! A50   A(4,27,30)            110.6429         calculate D2E/DX2 analytically  !
 ! A51   A(28,27,29)           107.8711         calculate D2E/DX2 analytically  !
 ! A52   A(28,27,30)           107.7431         calculate D2E/DX2 analytically  !
 ! A53   A(29,27,30)           107.8169         calculate D2E/DX2 analytically  !
 ! D1    D(2,1,4,5)            148.7414         calculate D2E/DX2 analytically  !
 ! D2    D(2,1,4,22)           -94.5143         calculate D2E/DX2 analytically  !
 ! D3    D(2,1,4,27)            29.6297         calculate D2E/DX2 analytically  !
 ! D4    D(3,1,4,5)            -27.0619         calculate D2E/DX2 analytically  !
 ! D5    D(3,1,4,22)            89.6824         calculate D2E/DX2 analytically  !
 ! D6    D(3,1,4,27)          -146.1736         calculate D2E/DX2 analytically  !
 ! D7    D(1,4,22,6)          -158.3691         calculate D2E/DX2 analytically  !
 ! D8    D(1,4,22,23)           78.0267         calculate D2E/DX2 analytically  !
 ! D9    D(1,4,22,24)          -40.8183         calculate D2E/DX2 analytically  !
 ! D10   D(5,4,22,6)           -40.401          calculate D2E/DX2 analytically  !
 ! D11   D(5,4,22,23)         -164.0052         calculate D2E/DX2 analytically  !
 ! D12   D(5,4,22,24)           77.1498         calculate D2E/DX2 analytically  !
 ! D13   D(27,4,22,6)           77.2377         calculate D2E/DX2 analytically  !
 ! D14   D(27,4,22,23)         -46.3665         calculate D2E/DX2 analytically  !
 ! D15   D(27,4,22,24)        -165.2115         calculate D2E/DX2 analytically  !
 ! D16   D(1,4,27,28)          179.4342         calculate D2E/DX2 analytically  !
 ! D17   D(1,4,27,29)          -60.2017         calculate D2E/DX2 analytically  !
 ! D18   D(1,4,27,30)           59.1313         calculate D2E/DX2 analytically  !
 ! D19   D(5,4,27,28)           61.1231         calculate D2E/DX2 analytically  !
 ! D20   D(5,4,27,29)         -178.5129         calculate D2E/DX2 analytically  !
 ! D21   D(5,4,27,30)          -59.1799         calculate D2E/DX2 analytically  !
 ! D22   D(22,4,27,28)         -54.3726         calculate D2E/DX2 analytically  !
 ! D23   D(22,4,27,29)          65.9915         calculate D2E/DX2 analytically  !
 ! D24   D(22,4,27,30)        -174.6755         calculate D2E/DX2 analytically  !
 ! D25   D(7,6,9,10)          -173.6031         calculate D2E/DX2 analytically  !
 ! D26   D(7,6,9,11)            70.8081         calculate D2E/DX2 analytically  !
 ! D27   D(7,6,9,12)           -51.0083         calculate D2E/DX2 analytically  !
 ! D28   D(8,6,9,10)           -56.2915         calculate D2E/DX2 analytically  !
 ! D29   D(8,6,9,11)          -171.8803         calculate D2E/DX2 analytically  !
 ! D30   D(8,6,9,12)            66.3033         calculate D2E/DX2 analytically  !
 ! D31   D(22,6,9,10)           65.8762         calculate D2E/DX2 analytically  !
 ! D32   D(22,6,9,11)          -49.7126         calculate D2E/DX2 analytically  !
 ! D33   D(22,6,9,12)         -171.529          calculate D2E/DX2 analytically  !
 ! D34   D(7,6,22,4)            71.9904         calculate D2E/DX2 analytically  !
 ! D35   D(7,6,22,23)         -165.2355         calculate D2E/DX2 analytically  !
 ! D36   D(7,6,22,24)          -49.8878         calculate D2E/DX2 analytically  !
 ! D37   D(8,6,22,4)           -42.9434         calculate D2E/DX2 analytically  !
 ! D38   D(8,6,22,23)           79.8308         calculate D2E/DX2 analytically  !
 ! D39   D(8,6,22,24)         -164.8215         calculate D2E/DX2 analytically  !
 ! D40   D(9,6,22,4)          -166.2017         calculate D2E/DX2 analytically  !
 ! D41   D(9,6,22,23)          -43.4276         calculate D2E/DX2 analytically  !
 ! D42   D(9,6,22,24)           71.9201         calculate D2E/DX2 analytically  !
 ! D43   D(6,9,12,13)           55.5907         calculate D2E/DX2 analytically  !
 ! D44   D(6,9,12,14)          172.7591         calculate D2E/DX2 analytically  !
 ! D45   D(6,9,12,18)          -63.138          calculate D2E/DX2 analytically  !
 ! D46   D(10,9,12,13)         178.3993         calculate D2E/DX2 analytically  !
 ! D47   D(10,9,12,14)         -64.4323         calculate D2E/DX2 analytically  !
 ! D48   D(10,9,12,18)          59.6705         calculate D2E/DX2 analytically  !
 ! D49   D(11,9,12,13)         -65.9555         calculate D2E/DX2 analytically  !
 ! D50   D(11,9,12,14)          51.2129         calculate D2E/DX2 analytically  !
 ! D51   D(11,9,12,18)         175.3158         calculate D2E/DX2 analytically  !
 ! D52   D(9,12,14,15)          62.8647         calculate D2E/DX2 analytically  !
 ! D53   D(9,12,14,16)        -177.3912         calculate D2E/DX2 analytically  !
 ! D54   D(9,12,14,17)         -57.0034         calculate D2E/DX2 analytically  !
 ! D55   D(13,12,14,15)        179.905          calculate D2E/DX2 analytically  !
 ! D56   D(13,12,14,16)        -60.3509         calculate D2E/DX2 analytically  !
 ! D57   D(13,12,14,17)         60.0369         calculate D2E/DX2 analytically  !
 ! D58   D(18,12,14,15)        -62.4456         calculate D2E/DX2 analytically  !
 ! D59   D(18,12,14,16)         57.2985         calculate D2E/DX2 analytically  !
 ! D60   D(18,12,14,17)        177.6863         calculate D2E/DX2 analytically  !
 ! D61   D(9,12,18,19)        -179.157          calculate D2E/DX2 analytically  !
 ! D62   D(9,12,18,20)         -59.8021         calculate D2E/DX2 analytically  !
 ! D63   D(9,12,18,21)          60.7631         calculate D2E/DX2 analytically  !
 ! D64   D(13,12,18,19)         62.3556         calculate D2E/DX2 analytically  !
 ! D65   D(13,12,18,20)       -178.2895         calculate D2E/DX2 analytically  !
 ! D66   D(13,12,18,21)        -57.7243         calculate D2E/DX2 analytically  !
 ! D67   D(14,12,18,19)        -55.1674         calculate D2E/DX2 analytically  !
 ! D68   D(14,12,18,20)         64.1875         calculate D2E/DX2 analytically  !
 ! D69   D(14,12,18,21)       -175.2473         calculate D2E/DX2 analytically  !
 ! D70   D(4,22,24,25)          86.0418         calculate D2E/DX2 analytically  !
 ! D71   D(6,22,24,25)        -151.5895         calculate D2E/DX2 analytically  !
 ! D72   D(23,22,24,25)        -33.9072         calculate D2E/DX2 analytically  !
 ! D73   D(22,24,25,26)        -86.0458         calculate D2E/DX2 analytically  !
 --------------------------------------------------------------------------------
 Trust Radius=3.00D-01 FncErr=1.00D-07 GrdErr=1.00D-06
 Number of steps in this run=    165 maximum allowed number of steps=    180.
 GradGradGradGradGradGradGradGradGradGradGradGradGradGradGradGradGradGrad

 Leave Link  103 at Sat Apr  5 23:13:42 2014, MaxMem= 4026531840 cpu:       0.2
 (Enter /usr/caen/gaussian-09revc/g09/l202.exe)
                          Input orientation:                          
 ---------------------------------------------------------------------
 Center     Atomic      Atomic             Coordinates (Angstroms)
 Number     Number       Type             X           Y           Z
 ---------------------------------------------------------------------
      1          6           0       -3.554803   -0.186446   -0.305482
      2          1           0       -4.203802   -0.247246    0.561514
      3          1           0       -3.934891    0.308099   -1.192094
      4          6           0       -2.214293   -0.846723   -0.304308
      5          1           0       -1.991111   -1.154636   -1.334396
      6          6           0        0.323185   -0.376971   -0.376655
      7          1           0        0.360389   -0.223327   -1.462459
      8          1           0        0.389271   -1.455496   -0.213669
      9          6           0        1.499399    0.342682    0.294608
     10          1           0        1.517517    0.088259    1.363322
     11          1           0        1.321875    1.420570    0.235339
     12          6           0        2.879679    0.032559   -0.314349
     13          1           0        2.827747    0.267305   -1.386524
     14          6           0        3.953318    0.935262    0.309341
     15          1           0        4.047685    0.744497    1.384220
     16          1           0        4.932770    0.759543   -0.145388
     17          1           0        3.707706    1.993226    0.179872
     18          6           0        3.270024   -1.446055   -0.173354
     19          1           0        4.259690   -1.631372   -0.601227
     20          1           0        3.305961   -1.739297    0.882151
     21          1           0        2.565928   -2.110403   -0.681197
     22          6           0       -1.043913    0.109000    0.115471
     23          1           0       -1.045420    0.225328    1.204627
     24          8           0       -1.187568    1.418562   -0.456029
     25          8           0       -2.029142    2.226560    0.398018
     26          1           0       -2.916743    1.991938    0.075959
     27          6           0       -2.228352   -2.092151    0.602376
     28          1           0       -1.262495   -2.602281    0.615281
     29          1           0       -2.475127   -1.813910    1.632064
     30          1           0       -2.978737   -2.808702    0.260804
 ---------------------------------------------------------------------
                    Distance matrix (angstroms):
                    1          2          3          4          5
     1  C    0.000000
     2  H    1.084702   0.000000
     3  H    1.084031   1.858995   0.000000
     4  C    1.494301   2.251037   2.254381   0.000000
     5  H    2.107413   3.051857   2.436827   1.098045   0.000000
     6  C    3.883318   4.624997   4.389245   2.581607   2.622593
     7  H    4.082730   4.992883   4.336466   2.891180   2.532447
     8  H    4.144229   4.812182   4.771369   2.675325   2.648162
     9  C    5.117132   5.739839   5.634091   3.945237   4.132708
    10  H    5.346850   5.786964   6.025548   4.193040   4.597058
    11  H    5.163039   5.781099   5.559563   4.235129   4.480137
    12  C    6.438214   7.142908   6.876389   5.169312   5.116104
    13  H    6.489336   7.314526   6.765555   5.275833   5.024542
    14  C    7.616306   8.246243   8.054283   6.449144   6.511972
    15  H    7.843441   8.351493   8.399366   6.677984   6.889458
    16  H    8.541629   9.219017   8.940627   7.327063   7.281343
    17  H    7.598064   8.231484   7.945517   6.585576   6.684202
    18  C    6.941350   7.604949   7.485031   5.518522   5.395599
    19  H    7.952457   8.654390   8.441672   6.528115   6.311682
    20  H    7.133856   7.663261   7.805399   5.716430   5.771818
    21  H    6.426984   7.130563   6.954913   4.958775   4.701783
    22  C    2.563017   3.211038   3.179170   1.568251   2.143846
    23  H    2.957531   3.257652   3.755019   2.189165   3.040604
    24  O    2.864004   3.592767   3.053310   2.491726   2.835235
    25  O    2.940264   3.297816   3.137009   3.157944   3.799367
    26  H    2.301733   2.627971   2.340918   2.948904   3.570269
    27  C    2.493068   2.703284   3.448710   1.540573   2.164787
    28  H    3.455248   3.768338   4.344953   2.198533   2.535310
    29  H    2.751077   2.566872   3.822264   2.180143   3.077141
    30  H    2.743858   2.855218   3.569256   2.180158   2.501200
                    6          7          8          9         10
     6  C    0.000000
     7  H    1.097252   0.000000
     8  H    1.092771   1.754580   0.000000
     9  C    1.533615   2.169100   2.173516   0.000000
    10  H    2.161108   3.069376   2.478511   1.098731   0.000000
    11  H    2.145477   2.551347   3.056651   1.094016   1.756609
    12  C    2.589838   2.780370   2.902857   1.540188   2.161751
    13  H    2.776285   2.516812   3.207771   2.143920   3.051297
    14  C    3.920512   4.170221   4.323389   2.524497   2.785932
    15  H    4.269692   4.757774   4.558203   2.800441   2.613969
    16  H    4.753254   4.858742   5.055140   3.486460   3.793518
    17  H    4.169237   4.337613   4.802142   2.759362   3.134706
    18  C    3.141358   3.409227   2.881051   2.560016   2.790479
    19  H    4.137635   4.234248   3.893748   3.509789   3.786304
    20  H    3.512475   4.058541   3.128649   2.818423   2.601926
    21  H    2.850865   3.005965   2.320630   2.847333   3.180148
    22  C    1.532094   2.138310   2.147090   2.560299   2.849296
    23  H    2.176303   3.048104   2.625847   2.705182   2.571501
    24  O    2.347896   2.470804   3.287152   2.990111   3.520970
    25  O    3.593318   3.895277   4.447518   4.001286   4.252403
    26  H    4.039025   4.244258   4.785229   4.719127   4.994393
    27  C    3.226559   3.802319   2.814820   4.463100   4.400541
    28  H    2.906944   3.551081   2.174995   4.050148   3.940436
    29  H    3.732331   4.488449   3.426363   4.715563   4.430765
    30  H    4.149983   4.561092   3.660569   5.475953   5.461156
                   11         12         13         14         15
    11  H    0.000000
    12  C    2.157657   0.000000
    13  H    2.495618   1.098800   0.000000
    14  C    2.676844   1.535110   2.142203   0.000000
    15  H    3.034311   2.180878   3.064797   1.095747   0.000000
    16  H    3.690592   2.184545   2.492757   1.094067   1.767287
    17  H    2.454221   2.184971   2.491330   1.093789   1.767870
    18  C    3.489965   1.535757   2.145459   2.523996   2.798091
    19  H    4.317980   2.180687   2.504421   2.740549   3.103498
    20  H    3.786783   2.180092   3.066272   2.810774   2.640352
    21  H    3.854280   2.196657   2.493899   3.490285   3.822565
    22  C    2.707681   3.947805   4.155815   5.068788   5.285636
    23  H    2.823510   4.213176   4.660177   5.127663   5.122647
    24  O    2.602940   4.299253   4.279482   5.219969   5.590058
    25  O    3.450420   5.423802   5.532869   6.120878   6.332214
    26  H    4.279924   6.131070   6.173523   6.954766   7.195201
    27  C    5.007798   5.607741   5.923419   6.889423   6.931558
    28  H    4.796525   4.996419   5.382548   6.309716   6.323781
    29  H    5.179761   5.989317   6.446999   7.115648   7.010988
    30  H    6.031804   6.536406   6.774272   7.878643   7.953483
                   16         17         18         19         20
    16  H    0.000000
    17  H    1.768771   0.000000
    18  C    2.762276   3.484966   0.000000
    19  H    2.525332   3.748668   1.094009   0.000000
    20  H    3.153814   3.819204   1.096072   1.766821   0.000000
    21  H    3.758407   4.345672   1.093167   1.762015   1.769018
    22  C    6.017640   5.111980   4.594744   5.627678   4.788048
    23  H    6.151966   5.173760   4.828603   5.903612   4.785213
    24  O    6.163549   4.969740   5.306229   6.244662   5.652840
    25  O    7.135520   5.745734   6.472691   7.445236   6.665263
    26  H    7.948751   6.625264   7.082234   8.067723   7.300281
    27  C    7.744222   7.218421   5.590289   6.614807   5.552603
    28  H    7.089555   6.783153   4.743683   5.737341   4.656904
    29  H    8.041078   7.404767   6.033375   7.097793   5.830001
    30  H    8.688458   8.232471   6.410329   7.384039   6.405242
                   21         22         23         24         25
    21  H    0.000000
    22  C    4.311772   0.000000
    23  H    4.696148   1.095352   0.000000
    24  O    5.156843   1.436037   2.049827   0.000000
    25  O    6.410041   2.352567   2.371341   1.445857   0.000000
    26  H    6.889279   2.656033   2.810098   1.897845   0.972936
    27  C    4.963166   2.546574   2.670720   3.811635   4.328130
    28  H    4.071808   2.765616   2.896519   4.161790   4.894145
    29  H    5.554396   2.836549   2.526906   4.057932   4.248196
    30  H    5.667301   3.503948   3.719389   4.646708   5.125858
                   26         27         28         29         30
    26  H    0.000000
    27  C    4.175019   0.000000
    28  H    4.912663   1.092373   0.000000
    29  H    4.135331   1.094794   1.768008   0.000000
    30  H    4.804597   1.092334   1.764582   1.767368   0.000000
 Stoichiometry    C9H19O2(2)
 Framework group  C1[X(C9H19O2)]
 Deg. of freedom    84
 Full point group                 C1      NOp   1
 Largest Abelian subgroup         C1      NOp   1
 Largest concise Abelian subgroup C1      NOp   1
                         Standard orientation:                         
 ---------------------------------------------------------------------
 Center     Atomic      Atomic             Coordinates (Angstroms)
 Number     Number       Type             X           Y           Z
 ---------------------------------------------------------------------
      1          6           0        3.554803    0.186446   -0.305482
      2          1           0        4.203802    0.247246    0.561514
      3          1           0        3.934891   -0.308099   -1.192094
      4          6           0        2.214293    0.846723   -0.304308
      5          1           0        1.991111    1.154636   -1.334396
      6          6           0       -0.323185    0.376971   -0.376655
      7          1           0       -0.360389    0.223327   -1.462459
      8          1           0       -0.389271    1.455496   -0.213669
      9          6           0       -1.499399   -0.342682    0.294608
     10          1           0       -1.517517   -0.088259    1.363322
     11          1           0       -1.321875   -1.420570    0.235339
     12          6           0       -2.879679   -0.032559   -0.314349
     13          1           0       -2.827747   -0.267305   -1.386524
     14          6           0       -3.953318   -0.935262    0.309341
     15          1           0       -4.047685   -0.744497    1.384220
     16          1           0       -4.932770   -0.759543   -0.145388
     17          1           0       -3.707706   -1.993226    0.179872
     18          6           0       -3.270024    1.446055   -0.173354
     19          1           0       -4.259690    1.631372   -0.601227
     20          1           0       -3.305961    1.739297    0.882151
     21          1           0       -2.565928    2.110403   -0.681197
     22          6           0        1.043913   -0.109000    0.115471
     23          1           0        1.045420   -0.225328    1.204627
     24          8           0        1.187568   -1.418562   -0.456029
     25          8           0        2.029142   -2.226560    0.398018
     26          1           0        2.916743   -1.991938    0.075959
     27          6           0        2.228352    2.092151    0.602376
     28          1           0        1.262495    2.602281    0.615281
     29          1           0        2.475127    1.813910    1.632064
     30          1           0        2.978737    2.808702    0.260804
 ---------------------------------------------------------------------
 Rotational constants (GHZ):      1.7395944      0.4965604      0.4086890
 Leave Link  202 at Sat Apr  5 23:13:42 2014, MaxMem= 4026531840 cpu:       0.3
 (Enter /usr/caen/gaussian-09revc/g09/l301.exe)
 Standard basis: 6-311G(2d,d,p) (5D, 7F)
 Ernie: Thresh=  0.10000D-02 Tol=  0.10000D-05 Strict=F.
 There are   312 symmetry adapted basis functions of A   symmetry.
 Integral buffers will be    131072 words long.
 Raffenetti 2 integral format.
 Two-electron integral symmetry is turned on.
   312 basis functions,   504 primitive gaussians,   323 cartesian basis functions
    45 alpha electrons       44 beta electrons
       nuclear repulsion energy       660.2502158574 Hartrees.
 IExCor=  402 DFT=T Ex+Corr=B3LYP ExCW=0 ScaHFX=  0.200000
 ScaDFX=  0.800000  0.720000  1.000000  0.810000 ScalE2=  1.000000  1.000000
 IRadAn=      0 IRanWt=     -1 IRanGd=            0 ICorTp=0
 NAtoms=   30 NActive=   30 NUniq=   30 SFac= 1.00D+00 NAtFMM=   60 NAOKFM=F Big=F
 Leave Link  301 at Sat Apr  5 23:13:43 2014, MaxMem= 4026531840 cpu:       1.1
 (Enter /usr/caen/gaussian-09revc/g09/l302.exe)
 NPDir=0 NMtPBC=     1 NCelOv=     1 NCel=       1 NClECP=     1 NCelD=      1
         NCelK=      1 NCelE2=     1 NClLst=     1 CellRange=     0.0.
 One-electron integrals computed using PRISM.
 NBasis=   312 RedAO= T  NBF=   312
 NBsUse=   312 1.00D-06 NBFU=   312
 Precomputing XC quadrature grid using
 IXCGrd= 2 IRadAn=           0 IRanWt=          -1 IRanGd=           0 AccXCQ= 0.00D+00.
 NRdTot=    1912 NPtTot=      243406 NUsed=      257193 NTot=      257225
 NSgBfM=   323   323   323   323   323 NAtAll=    30    30.
 Leave Link  302 at Sat Apr  5 23:13:44 2014, MaxMem= 4026531840 cpu:       4.8
 (Enter /usr/caen/gaussian-09revc/g09/l303.exe)
 DipDrv:  MaxL=1.
 Leave Link  303 at Sat Apr  5 23:13:45 2014, MaxMem= 4026531840 cpu:       2.0
 (Enter /usr/caen/gaussian-09revc/g09/l401.exe)
 Harris functional with IExCor=  402 diagonalized for initial guess.
 ExpMin= 1.03D-01 ExpMax= 8.59D+03 ExpMxC= 1.30D+03 IAcc=1 IRadAn=         1 AccDes= 0.00D+00
 HarFok:  IExCor=  402 AccDes= 0.00D+00 IRadAn=         1 IDoV= 1
 ScaDFX=  1.000000  1.000000  1.000000  1.000000
 FoFCou: FMM=F IPFlag=           0 FMFlag=      100000 FMFlg1=           0
         NFxFlg=           0 DoJE=T BraDBF=F KetDBF=T FulRan=T
         Omega=  0.000000  0.000000  1.000000  0.000000  0.000000 ICntrl=     500 IOpCl=  0
         NMat0=    1 NMatS0=    1 NMatT0=    0 NMatD0=    1 NMtDS0=    0 NMtDT0=    0
         I1Cent=           4 NGrid=           0.
 Petite list used in FoFCou.
 Harris En= -504.897477917785    
 Initial guess orbital symmetries:
 Alpha Orbitals:
       Occupied  (A) (A) (A) (A) (A) (A) (A) (A) (A) (A) (A) (A)
                 (A) (A) (A) (A) (A) (A) (A) (A) (A) (A) (A) (A)
                 (A) (A) (A) (A) (A) (A) (A) (A) (A) (A) (A) (A)
                 (A) (A) (A) (A) (A) (A) (A) (A) (A)
       Virtual   (A) (A) (A) (A) (A) (A) (A) (A) (A) (A) (A) (A)
                 (A) (A) (A) (A) (A) (A) (A) (A) (A) (A) (A) (A)
                 (A) (A) (A) (A) (A) (A) (A) (A) (A) (A) (A) (A)
                 (A) (A) (A) (A) (A) (A) (A) (A) (A) (A) (A) (A)
                 (A) (A) (A) (A) (A) (A) (A) (A) (A) (A) (A) (A)
                 (A) (A) (A) (A) (A) (A) (A) (A) (A) (A) (A) (A)
                 (A) (A) (A) (A) (A) (A) (A) (A) (A) (A) (A) (A)
                 (A) (A) (A) (A) (A) (A) (A) (A) (A) (A) (A) (A)
                 (A) (A) (A) (A) (A) (A) (A) (A) (A) (A) (A) (A)
                 (A) (A) (A) (A) (A) (A) (A) (A) (A) (A) (A) (A)
                 (A) (A) (A) (A) (A) (A) (A) (A) (A) (A) (A) (A)
                 (A) (A) (A) (A) (A) (A) (A) (A) (A) (A) (A) (A)
                 (A) (A) (A) (A) (A) (A) (A) (A) (A) (A) (A) (A)
                 (A) (A) (A) (A) (A) (A) (A) (A) (A) (A) (A) (A)
                 (A) (A) (A) (A) (A) (A) (A) (A) (A) (A) (A) (A)
                 (A) (A) (A) (A) (A) (A) (A) (A) (A) (A) (A) (A)
                 (A) (A) (A) (A) (A) (A) (A) (A) (A) (A) (A) (A)
                 (A) (A) (A) (A) (A) (A) (A) (A) (A) (A) (A) (A)
                 (A) (A) (A) (A) (A) (A) (A) (A) (A) (A) (A) (A)
                 (A) (A) (A) (A) (A) (A) (A) (A) (A) (A) (A) (A)
                 (A) (A) (A) (A) (A) (A) (A) (A) (A) (A) (A) (A)
                 (A) (A) (A) (A) (A) (A) (A) (A) (A) (A) (A) (A)
                 (A) (A) (A)
 Beta  Orbitals:
       Occupied  (A) (A) (A) (A) (A) (A) (A) (A) (A) (A) (A) (A)
                 (A) (A) (A) (A) (A) (A) (A) (A) (A) (A) (A) (A)
                 (A) (A) (A) (A) (A) (A) (A) (A) (A) (A) (A) (A)
                 (A) (A) (A) (A) (A) (A) (A) (A)
       Virtual   (A) (A) (A) (A) (A) (A) (A) (A) (A) (A) (A) (A)
                 (A) (A) (A) (A) (A) (A) (A) (A) (A) (A) (A) (A)
                 (A) (A) (A) (A) (A) (A) (A) (A) (A) (A) (A) (A)
                 (A) (A) (A) (A) (A) (A) (A) (A) (A) (A) (A) (A)
                 (A) (A) (A) (A) (A) (A) (A) (A) (A) (A) (A) (A)
                 (A) (A) (A) (A) (A) (A) (A) (A) (A) (A) (A) (A)
                 (A) (A) (A) (A) (A) (A) (A) (A) (A) (A) (A) (A)
                 (A) (A) (A) (A) (A) (A) (A) (A) (A) (A) (A) (A)
                 (A) (A) (A) (A) (A) (A) (A) (A) (A) (A) (A) (A)
                 (A) (A) (A) (A) (A) (A) (A) (A) (A) (A) (A) (A)
                 (A) (A) (A) (A) (A) (A) (A) (A) (A) (A) (A) (A)
                 (A) (A) (A) (A) (A) (A) (A) (A) (A) (A) (A) (A)
                 (A) (A) (A) (A) (A) (A) (A) (A) (A) (A) (A) (A)
                 (A) (A) (A) (A) (A) (A) (A) (A) (A) (A) (A) (A)
                 (A) (A) (A) (A) (A) (A) (A) (A) (A) (A) (A) (A)
                 (A) (A) (A) (A) (A) (A) (A) (A) (A) (A) (A) (A)
                 (A) (A) (A) (A) (A) (A) (A) (A) (A) (A) (A) (A)
                 (A) (A) (A) (A) (A) (A) (A) (A) (A) (A) (A) (A)
                 (A) (A) (A) (A) (A) (A) (A) (A) (A) (A) (A) (A)
                 (A) (A) (A) (A) (A) (A) (A) (A) (A) (A) (A) (A)
                 (A) (A) (A) (A) (A) (A) (A) (A) (A) (A) (A) (A)
                 (A) (A) (A) (A) (A) (A) (A) (A) (A) (A) (A) (A)
                 (A) (A) (A) (A)
 The electronic state of the initial guess is 2-A.
 Initial guess <Sx>= 0.0000 <Sy>= 0.0000 <Sz>= 0.5000 <S**2>= 0.7500 S= 0.5000
 Leave Link  401 at Sat Apr  5 23:13:47 2014, MaxMem= 4026531840 cpu:       7.5
 (Enter /usr/caen/gaussian-09revc/g09/l502.exe)
 UHF open shell SCF:
 Requested convergence on RMS density matrix=1.00D-08 within 128 cycles.
 Requested convergence on MAX density matrix=1.00D-06.
 Requested convergence on             energy=1.00D-06.
 No special actions if energy rises.
 Using DIIS extrapolation, IDIIS=  1040.
 Integral symmetry usage will be decided dynamically.
       256910 words used for storage of precomputed grid.
 Keep R1 and R2 ints in memory in canonical form, NReq=2755661641.
 IEnd=      593068 IEndB=      593068 NGot=  4026531840 MDV=  1287997435
 LenX=  1287997435 LenY=  1287892665
 Symmetry not used in FoFDir.
 MinBra= 0 MaxBra= 2 Meth= 1.
 IRaf=       0 NMat=   1 IRICut=       1 DoRegI=T DoRafI=F ISym2E= 0 JSym2E=0.
 Integral accuracy reduced to 1.0D-05 until final iterations.

 Cycle   1  Pass 0  IDiag  1:
 E= -504.475436765225    
 DIIS: error= 2.86D-02 at cycle   1 NSaved=   1.
 NSaved= 1 IEnMin= 1 EnMin= -504.475436765225     IErMin= 1 ErrMin= 2.86D-02
 ErrMax= 2.86D-02 EMaxC= 1.00D-01 BMatC= 1.49D+00 BMatP= 1.49D+00
 IDIUse=3 WtCom= 7.14D-01 WtEn= 2.86D-01
 Coeff-Com:  0.100D+01
 Coeff-En:   0.100D+01
 Coeff:      0.100D+01
 Gap=     0.190 Goal=   None    Shift=    0.000
 Gap=     0.256 Goal=   None    Shift=    0.000
 GapD=    0.190 DampG=1.000 DampE=0.500 DampFc=0.5000 IDamp=-1.
 Damping current iteration by 5.00D-01
 RMSDP=3.26D-03 MaxDP=1.21D-01              OVMax= 1.93D-01

 Cycle   2  Pass 0  IDiag  1:
 E= -504.632342195583     Delta-E=       -0.156905430358 Rises=F Damp=T
 DIIS: error= 4.78D-03 at cycle   2 NSaved=   2.
 NSaved= 2 IEnMin= 2 EnMin= -504.632342195583     IErMin= 2 ErrMin= 4.78D-03
 ErrMax= 4.78D-03 EMaxC= 1.00D-01 BMatC= 8.15D-02 BMatP= 1.49D+00
 IDIUse=3 WtCom= 9.52D-01 WtEn= 4.78D-02
 Coeff-Com:  0.593D-01 0.941D+00
 Coeff-En:   0.140D+00 0.860D+00
 Coeff:      0.631D-01 0.937D+00
 Gap=     0.243 Goal=   None    Shift=    0.000
 Gap=     0.254 Goal=   None    Shift=    0.000
 RMSDP=7.06D-04 MaxDP=2.69D-02 DE=-1.57D-01 OVMax= 1.09D-01

 Cycle   3  Pass 0  IDiag  1:
 E= -504.832705181330     Delta-E=       -0.200362985748 Rises=F Damp=F
 DIIS: error= 3.46D-03 at cycle   3 NSaved=   3.
 NSaved= 3 IEnMin= 3 EnMin= -504.832705181330     IErMin= 3 ErrMin= 3.46D-03
 ErrMax= 3.46D-03 EMaxC= 1.00D-01 BMatC= 3.42D-02 BMatP= 8.15D-02
 IDIUse=3 WtCom= 9.65D-01 WtEn= 3.46D-02
 Coeff-Com: -0.228D-01 0.365D+00 0.658D+00
 Coeff-En:   0.000D+00 0.000D+00 0.100D+01
 Coeff:     -0.220D-01 0.352D+00 0.670D+00
 Gap=     0.234 Goal=   None    Shift=    0.000
 Gap=     0.201 Goal=   None    Shift=    0.000
 RMSDP=3.49D-04 MaxDP=1.53D-02 DE=-2.00D-01 OVMax= 2.29D-02

 Cycle   4  Pass 0  IDiag  1:
 E= -504.836433973455     Delta-E=       -0.003728792125 Rises=F Damp=F
 DIIS: error= 3.10D-03 at cycle   4 NSaved=   4.
 NSaved= 4 IEnMin= 4 EnMin= -504.836433973455     IErMin= 4 ErrMin= 3.10D-03
 ErrMax= 3.10D-03 EMaxC= 1.00D-01 BMatC= 1.90D-02 BMatP= 3.42D-02
 IDIUse=3 WtCom= 9.69D-01 WtEn= 3.10D-02
 Coeff-Com: -0.226D-01 0.120D+00 0.448D+00 0.455D+00
 Coeff-En:   0.000D+00 0.000D+00 0.330D+00 0.670D+00
 Coeff:     -0.219D-01 0.116D+00 0.444D+00 0.462D+00
 Gap=     0.235 Goal=   None    Shift=    0.000
 Gap=     0.192 Goal=   None    Shift=    0.000
 RMSDP=1.62D-04 MaxDP=7.61D-03 DE=-3.73D-03 OVMax= 1.30D-02

 Cycle   5  Pass 0  IDiag  1:
 E= -504.839646292863     Delta-E=       -0.003212319408 Rises=F Damp=F
 DIIS: error= 7.33D-04 at cycle   5 NSaved=   5.
 NSaved= 5 IEnMin= 5 EnMin= -504.839646292863     IErMin= 5 ErrMin= 7.33D-04
 ErrMax= 7.33D-04 EMaxC= 1.00D-01 BMatC= 1.13D-03 BMatP= 1.90D-02
 IDIUse=3 WtCom= 9.93D-01 WtEn= 7.33D-03
 Coeff-Com: -0.100D-01 0.296D-01 0.178D+00 0.258D+00 0.544D+00
 Coeff-En:   0.000D+00 0.000D+00 0.000D+00 0.000D+00 0.100D+01
 Coeff:     -0.993D-02 0.294D-01 0.177D+00 0.256D+00 0.547D+00
 Gap=     0.235 Goal=   None    Shift=    0.000
 Gap=     0.193 Goal=   None    Shift=    0.000
 RMSDP=4.41D-05 MaxDP=2.11D-03 DE=-3.21D-03 OVMax= 3.20D-03

 Cycle   6  Pass 0  IDiag  1:
 E= -504.839845831379     Delta-E=       -0.000199538516 Rises=F Damp=F
 DIIS: error= 2.03D-04 at cycle   6 NSaved=   6.
 NSaved= 6 IEnMin= 6 EnMin= -504.839845831379     IErMin= 6 ErrMin= 2.03D-04
 ErrMax= 2.03D-04 EMaxC= 1.00D-01 BMatC= 1.00D-04 BMatP= 1.13D-03
 IDIUse=3 WtCom= 9.98D-01 WtEn= 2.03D-03
 Coeff-Com: -0.202D-02-0.113D-02 0.328D-01 0.727D-01 0.279D+00 0.619D+00
 Coeff-En:   0.000D+00 0.000D+00 0.000D+00 0.000D+00 0.000D+00 0.100D+01
 Coeff:     -0.202D-02-0.113D-02 0.327D-01 0.726D-01 0.278D+00 0.620D+00
 Gap=     0.235 Goal=   None    Shift=    0.000
 Gap=     0.193 Goal=   None    Shift=    0.000
 RMSDP=1.32D-05 MaxDP=7.04D-04 DE=-2.00D-04 OVMax= 1.43D-03

 Cycle   7  Pass 0  IDiag  1:
 E= -504.839868012219     Delta-E=       -0.000022180840 Rises=F Damp=F
 DIIS: error= 3.92D-05 at cycle   7 NSaved=   7.
 NSaved= 7 IEnMin= 7 EnMin= -504.839868012219     IErMin= 7 ErrMin= 3.92D-05
 ErrMax= 3.92D-05 EMaxC= 1.00D-01 BMatC= 3.68D-06 BMatP= 1.00D-04
 IDIUse=1 WtCom= 1.00D+00 WtEn= 0.00D+00
 Coeff-Com:  0.595D-03-0.297D-02-0.107D-01-0.120D-01-0.514D-02 0.110D+00
 Coeff-Com:  0.921D+00
 Coeff:      0.595D-03-0.297D-02-0.107D-01-0.120D-01-0.514D-02 0.110D+00
 Coeff:      0.921D+00
 Gap=     0.236 Goal=   None    Shift=    0.000
 Gap=     0.193 Goal=   None    Shift=    0.000
 RMSDP=5.11D-06 MaxDP=3.60D-04 DE=-2.22D-05 OVMax= 7.33D-04

 Initial convergence to 1.0D-05 achieved.  Increase integral accuracy.
 Cycle   8  Pass 1  IDiag  1:
 E= -504.839945768814     Delta-E=       -0.000077756595 Rises=F Damp=F
 DIIS: error= 2.93D-05 at cycle   1 NSaved=   1.
 NSaved= 1 IEnMin= 1 EnMin= -504.839945768814     IErMin= 1 ErrMin= 2.93D-05
 ErrMax= 2.93D-05 EMaxC= 1.00D-01 BMatC= 2.03D-06 BMatP= 2.03D-06
 IDIUse=1 WtCom= 1.00D+00 WtEn= 0.00D+00
 Coeff-Com:  0.100D+01
 Coeff:      0.100D+01
 Gap=     0.235 Goal=   None    Shift=    0.000
 Gap=     0.194 Goal=   None    Shift=    0.000
 RMSDP=5.11D-06 MaxDP=3.60D-04 DE=-7.78D-05 OVMax= 3.46D-04

 Cycle   9  Pass 1  IDiag  1:
 E= -504.839945829750     Delta-E=       -0.000000060936 Rises=F Damp=F
 DIIS: error= 3.68D-05 at cycle   2 NSaved=   2.
 NSaved= 2 IEnMin= 2 EnMin= -504.839945829750     IErMin= 1 ErrMin= 2.93D-05
 ErrMax= 3.68D-05 EMaxC= 1.00D-01 BMatC= 2.63D-06 BMatP= 2.03D-06
 IDIUse=1 WtCom= 1.00D+00 WtEn= 0.00D+00
 Coeff-Com:  0.537D+00 0.463D+00
 Coeff:      0.537D+00 0.463D+00
 Gap=     0.236 Goal=   None    Shift=    0.000
 Gap=     0.194 Goal=   None    Shift=    0.000
 RMSDP=2.29D-06 MaxDP=1.15D-04 DE=-6.09D-08 OVMax= 1.69D-04

 Cycle  10  Pass 1  IDiag  1:
 E= -504.839946358861     Delta-E=       -0.000000529111 Rises=F Damp=F
 DIIS: error= 8.85D-06 at cycle   3 NSaved=   3.
 NSaved= 3 IEnMin= 3 EnMin= -504.839946358861     IErMin= 3 ErrMin= 8.85D-06
 ErrMax= 8.85D-06 EMaxC= 1.00D-01 BMatC= 1.20D-07 BMatP= 2.03D-06
 IDIUse=1 WtCom= 1.00D+00 WtEn= 0.00D+00
 Coeff-Com:  0.583D-01 0.166D+00 0.776D+00
 Coeff:      0.583D-01 0.166D+00 0.776D+00
 Gap=     0.236 Goal=   None    Shift=    0.000
 Gap=     0.194 Goal=   None    Shift=    0.000
 RMSDP=6.47D-07 MaxDP=3.19D-05 DE=-5.29D-07 OVMax= 5.00D-05

 Cycle  11  Pass 1  IDiag  1:
 E= -504.839946378024     Delta-E=       -0.000000019163 Rises=F Damp=F
 DIIS: error= 5.65D-06 at cycle   4 NSaved=   4.
 NSaved= 4 IEnMin= 4 EnMin= -504.839946378024     IErMin= 4 ErrMin= 5.65D-06
 ErrMax= 5.65D-06 EMaxC= 1.00D-01 BMatC= 6.52D-08 BMatP= 1.20D-07
 IDIUse=1 WtCom= 1.00D+00 WtEn= 0.00D+00
 Coeff-Com: -0.559D-01 0.286D-01 0.499D+00 0.528D+00
 Coeff:     -0.559D-01 0.286D-01 0.499D+00 0.528D+00
 Gap=     0.236 Goal=   None    Shift=    0.000
 Gap=     0.194 Goal=   None    Shift=    0.000
 RMSDP=3.13D-07 MaxDP=2.06D-05 DE=-1.92D-08 OVMax= 3.28D-05

 Cycle  12  Pass 1  IDiag  1:
 E= -504.839946390320     Delta-E=       -0.000000012296 Rises=F Damp=F
 DIIS: error= 2.33D-06 at cycle   5 NSaved=   5.
 NSaved= 5 IEnMin= 5 EnMin= -504.839946390320     IErMin= 5 ErrMin= 2.33D-06
 ErrMax= 2.33D-06 EMaxC= 1.00D-01 BMatC= 8.03D-09 BMatP= 6.52D-08
 IDIUse=1 WtCom= 1.00D+00 WtEn= 0.00D+00
 Coeff-Com: -0.381D-01-0.868D-02 0.159D+00 0.297D+00 0.591D+00
 Coeff:     -0.381D-01-0.868D-02 0.159D+00 0.297D+00 0.591D+00
 Gap=     0.236 Goal=   None    Shift=    0.000
 Gap=     0.194 Goal=   None    Shift=    0.000
 RMSDP=1.49D-07 MaxDP=7.83D-06 DE=-1.23D-08 OVMax= 1.05D-05

 Cycle  13  Pass 1  IDiag  1:
 E= -504.839946392014     Delta-E=       -0.000000001695 Rises=F Damp=F
 DIIS: error= 9.46D-07 at cycle   6 NSaved=   6.
 NSaved= 6 IEnMin= 6 EnMin= -504.839946392014     IErMin= 6 ErrMin= 9.46D-07
 ErrMax= 9.46D-07 EMaxC= 1.00D-01 BMatC= 1.26D-09 BMatP= 8.03D-09
 IDIUse=1 WtCom= 1.00D+00 WtEn= 0.00D+00
 Coeff-Com:  0.810D-04-0.149D-01-0.985D-01-0.434D-01 0.287D+00 0.869D+00
 Coeff:      0.810D-04-0.149D-01-0.985D-01-0.434D-01 0.287D+00 0.869D+00
 Gap=     0.236 Goal=   None    Shift=    0.000
 Gap=     0.194 Goal=   None    Shift=    0.000
 RMSDP=7.60D-08 MaxDP=6.76D-06 DE=-1.69D-09 OVMax= 7.25D-06

 Cycle  14  Pass 1  IDiag  1:
 E= -504.839946392406     Delta-E=       -0.000000000392 Rises=F Damp=F
 DIIS: error= 3.47D-07 at cycle   7 NSaved=   7.
 NSaved= 7 IEnMin= 7 EnMin= -504.839946392406     IErMin= 7 ErrMin= 3.47D-07
 ErrMax= 3.47D-07 EMaxC= 1.00D-01 BMatC= 1.48D-10 BMatP= 1.26D-09
 IDIUse=1 WtCom= 1.00D+00 WtEn= 0.00D+00
 Coeff-Com:  0.313D-02-0.657D-02-0.603D-01-0.452D-01 0.934D-01 0.426D+00
 Coeff-Com:  0.589D+00
 Coeff:      0.313D-02-0.657D-02-0.603D-01-0.452D-01 0.934D-01 0.426D+00
 Coeff:      0.589D+00
 Gap=     0.236 Goal=   None    Shift=    0.000
 Gap=     0.194 Goal=   None    Shift=    0.000
 RMSDP=2.26D-08 MaxDP=1.34D-06 DE=-3.92D-10 OVMax= 1.54D-06

 Cycle  15  Pass 1  IDiag  1:
 E= -504.839946392453     Delta-E=       -0.000000000046 Rises=F Damp=F
 DIIS: error= 5.34D-08 at cycle   8 NSaved=   8.
 NSaved= 8 IEnMin= 8 EnMin= -504.839946392453     IErMin= 8 ErrMin= 5.34D-08
 ErrMax= 5.34D-08 EMaxC= 1.00D-01 BMatC= 6.54D-12 BMatP= 1.48D-10
 IDIUse=1 WtCom= 1.00D+00 WtEn= 0.00D+00
 Coeff-Com:  0.759D-03-0.491D-03-0.770D-02-0.802D-02 0.208D-03 0.381D-01
 Coeff-Com:  0.146D+00 0.831D+00
 Coeff:      0.759D-03-0.491D-03-0.770D-02-0.802D-02 0.208D-03 0.381D-01
 Coeff:      0.146D+00 0.831D+00
 Gap=     0.236 Goal=   None    Shift=    0.000
 Gap=     0.194 Goal=   None    Shift=    0.000
 RMSDP=6.54D-09 MaxDP=2.50D-07 DE=-4.64D-11 OVMax= 7.64D-07

 SCF Done:  E(UB3LYP) =  -504.839946392     A.U. after   15 cycles
             Convg  =    0.6536D-08             -V/T =  2.0042
 <Sx>= 0.0000 <Sy>= 0.0000 <Sz>= 0.5000 <S**2>= 0.7540 S= 0.5020
 <L.S>= 0.000000000000E+00
 KE= 5.027042874068D+02 PE=-2.496736437525D+03 EE= 8.289419878684D+02
 Annihilation of the first spin contaminant:
 S**2 before annihilation     0.7540,   after     0.7500
 Leave Link  502 at Sat Apr  5 23:15:22 2014, MaxMem= 4026531840 cpu:     753.4
 (Enter /usr/caen/gaussian-09revc/g09/l801.exe)
 Range of M.O.s used for correlation:     1   312
 NBasis=   312 NAE=    45 NBE=    44 NFC=     0 NFV=     0
 NROrb=    312 NOA=    45 NOB=    44 NVA=   267 NVB=   268
 Leave Link  801 at Sat Apr  5 23:15:25 2014, MaxMem= 4026531840 cpu:       0.4
 (Enter /usr/caen/gaussian-09revc/g09/l1101.exe)
 Using compressed storage, NAtomX=    30.
 Will process  31 centers per pass.
 Leave Link 1101 at Sat Apr  5 23:15:26 2014, MaxMem= 4026531840 cpu:       4.3
 (Enter /usr/caen/gaussian-09revc/g09/l1102.exe)
 Symmetrizing basis deriv contribution to polar:
 IMax=3 JMax=2 DiffMx= 0.00D+00
 Leave Link 1102 at Sat Apr  5 23:15:26 2014, MaxMem= 4026531840 cpu:       2.2
 (Enter /usr/caen/gaussian-09revc/g09/l1110.exe)
 Forming Gx(P) for the SCF density, NAtomX=    30.
 Integral derivatives from FoFDir/FoFCou, PRISM(SPDF).
 Do as many integral derivatives as possible in FoFDir.
 G2DrvN: MDV=    4026531496.
 G2DrvN: will do    31 centers at a time, making    1 passes doing MaxLOS=2.
 Calling FoFCou, ICntrl=  3107 FMM=F I1Cent=   0 AccDes= 0.00D+00.
 FoFCou: FMM=F IPFlag=           0 FMFlag=      100000 FMFlg1=           0
         NFxFlg=           0 DoJE=F BraDBF=F KetDBF=F FulRan=T
         Omega=  0.000000  0.000000  1.000000  0.000000  0.000000 ICntrl=    3107 IOpCl=  1
         NMat0=    1 NMatS0=    1 NMatT0=    0 NMatD0=    1 NMtDS0=    0 NMtDT0=    0
         I1Cent=           0 NGrid=           0.
 Symmetry not used in FoFCou.
 FoFDir/FoFCou used for L=0 through L=2.
 End of G2Drv Frequency-dependent properties file   721 does not exist.
 End of G2Drv Frequency-dependent properties file   722 does not exist.
 Leave Link 1110 at Sat Apr  5 23:17:43 2014, MaxMem= 4026531840 cpu:    1084.4
 (Enter /usr/caen/gaussian-09revc/g09/l1002.exe)
 Minotr:  UHF open shell wavefunction.
          IDoAtm=111111111111111111111111111111
          Direct CPHF calculation.
          Differentiating once with respect to nuclear coordinates.
          Requested convergence is 1.0D-06 RMS, and 1.0D-05 maximum.
          Secondary convergence is 1.0D-12 RMS, and 1.0D-12 maximum.
          NewPWx=T KeepS1=F KeepF1=F KeepIn=T MapXYZ=F SortEE=F KeepMc=T.
          MDV=    4026531536 using IRadAn=       2.
 Generate precomputed XC quadrature information.
          Keep R1 and R2 ints in memory in canonical form, NReq=2738891878.
 Symmetry not used in FoFDir.
 MinBra= 0 MaxBra= 2 Meth= 1.
 IRaf=       0 NMat=   1 IRICut=       1 DoRegI=T DoRafI=F ISym2E= 0 JSym2E=0.
          Solving linear equations simultaneously, MaxMat=       0.
          There are    93 degrees of freedom in the 1st order CPHF.  IDoFFX=5.
     87 vectors produced by pass  0 Test12= 2.56D-10 1.08D-07 XBig12= 2.19D-01 1.89D-01.
 AX will form    87 AO Fock derivatives at one time.
     87 vectors produced by pass  1 Test12= 2.56D-10 1.08D-07 XBig12= 9.49D-03 1.52D-02.
     87 vectors produced by pass  2 Test12= 2.56D-10 1.08D-07 XBig12= 9.85D-05 1.55D-03.
     87 vectors produced by pass  3 Test12= 2.56D-10 1.08D-07 XBig12= 8.53D-07 8.54D-05.
     64 vectors produced by pass  4 Test12= 2.56D-10 1.08D-07 XBig12= 5.18D-09 7.91D-06.
     10 vectors produced by pass  5 Test12= 2.56D-10 1.08D-07 XBig12= 2.36D-11 5.24D-07.
 Inverted reduced A of dimension   422 with in-core refinement.
 End of Minotr Frequency-dependent properties file   721 does not exist.
 End of Minotr Frequency-dependent properties file   722 does not exist.
 Leave Link 1002 at Sat Apr  5 23:21:16 2014, MaxMem= 4026531840 cpu:    1700.1
 (Enter /usr/caen/gaussian-09revc/g09/l601.exe)
 Copying SCF densities to generalized density rwf, IOpCl= 1 IROHF=0.

 **********************************************************************

            Population analysis using the SCF density.

 **********************************************************************

 Orbital symmetries:
 Alpha Orbitals:
       Occupied  (A) (A) (A) (A) (A) (A) (A) (A) (A) (A) (A) (A)
                 (A) (A) (A) (A) (A) (A) (A) (A) (A) (A) (A) (A)
                 (A) (A) (A) (A) (A) (A) (A) (A) (A) (A) (A) (A)
                 (A) (A) (A) (A) (A) (A) (A) (A) (A)
       Virtual   (A) (A) (A) (A) (A) (A) (A) (A) (A) (A) (A) (A)
                 (A) (A) (A) (A) (A) (A) (A) (A) (A) (A) (A) (A)
                 (A) (A) (A) (A) (A) (A) (A) (A) (A) (A) (A) (A)
                 (A) (A) (A) (A) (A) (A) (A) (A) (A) (A) (A) (A)
                 (A) (A) (A) (A) (A) (A) (A) (A) (A) (A) (A) (A)
                 (A) (A) (A) (A) (A) (A) (A) (A) (A) (A) (A) (A)
                 (A) (A) (A) (A) (A) (A) (A) (A) (A) (A) (A) (A)
                 (A) (A) (A) (A) (A) (A) (A) (A) (A) (A) (A) (A)
                 (A) (A) (A) (A) (A) (A) (A) (A) (A) (A) (A) (A)
                 (A) (A) (A) (A) (A) (A) (A) (A) (A) (A) (A) (A)
                 (A) (A) (A) (A) (A) (A) (A) (A) (A) (A) (A) (A)
                 (A) (A) (A) (A) (A) (A) (A) (A) (A) (A) (A) (A)
                 (A) (A) (A) (A) (A) (A) (A) (A) (A) (A) (A) (A)
                 (A) (A) (A) (A) (A) (A) (A) (A) (A) (A) (A) (A)
                 (A) (A) (A) (A) (A) (A) (A) (A) (A) (A) (A) (A)
                 (A) (A) (A) (A) (A) (A) (A) (A) (A) (A) (A) (A)
                 (A) (A) (A) (A) (A) (A) (A) (A) (A) (A) (A) (A)
                 (A) (A) (A) (A) (A) (A) (A) (A) (A) (A) (A) (A)
                 (A) (A) (A) (A) (A) (A) (A) (A) (A) (A) (A) (A)
                 (A) (A) (A) (A) (A) (A) (A) (A) (A) (A) (A) (A)
                 (A) (A) (A) (A) (A) (A) (A) (A) (A) (A) (A) (A)
                 (A) (A) (A) (A) (A) (A) (A) (A) (A) (A) (A) (A)
                 (A) (A) (A)
 Beta  Orbitals:
       Occupied  (A) (A) (A) (A) (A) (A) (A) (A) (A) (A) (A) (A)
                 (A) (A) (A) (A) (A) (A) (A) (A) (A) (A) (A) (A)
                 (A) (A) (A) (A) (A) (A) (A) (A) (A) (A) (A) (A)
                 (A) (A) (A) (A) (A) (A) (A) (A)
       Virtual   (A) (A) (A) (A) (A) (A) (A) (A) (A) (A) (A) (A)
                 (A) (A) (A) (A) (A) (A) (A) (A) (A) (A) (A) (A)
                 (A) (A) (A) (A) (A) (A) (A) (A) (A) (A) (A) (A)
                 (A) (A) (A) (A) (A) (A) (A) (A) (A) (A) (A) (A)
                 (A) (A) (A) (A) (A) (A) (A) (A) (A) (A) (A) (A)
                 (A) (A) (A) (A) (A) (A) (A) (A) (A) (A) (A) (A)
                 (A) (A) (A) (A) (A) (A) (A) (A) (A) (A) (A) (A)
                 (A) (A) (A) (A) (A) (A) (A) (A) (A) (A) (A) (A)
                 (A) (A) (A) (A) (A) (A) (A) (A) (A) (A) (A) (A)
                 (A) (A) (A) (A) (A) (A) (A) (A) (A) (A) (A) (A)
                 (A) (A) (A) (A) (A) (A) (A) (A) (A) (A) (A) (A)
                 (A) (A) (A) (A) (A) (A) (A) (A) (A) (A) (A) (A)
                 (A) (A) (A) (A) (A) (A) (A) (A) (A) (A) (A) (A)
                 (A) (A) (A) (A) (A) (A) (A) (A) (A) (A) (A) (A)
                 (A) (A) (A) (A) (A) (A) (A) (A) (A) (A) (A) (A)
                 (A) (A) (A) (A) (A) (A) (A) (A) (A) (A) (A) (A)
                 (A) (A) (A) (A) (A) (A) (A) (A) (A) (A) (A) (A)
                 (A) (A) (A) (A) (A) (A) (A) (A) (A) (A) (A) (A)
                 (A) (A) (A) (A) (A) (A) (A) (A) (A) (A) (A) (A)
                 (A) (A) (A) (A) (A) (A) (A) (A) (A) (A) (A) (A)
                 (A) (A) (A) (A) (A) (A) (A) (A) (A) (A) (A) (A)
                 (A) (A) (A) (A) (A) (A) (A) (A) (A) (A) (A) (A)
                 (A) (A) (A) (A)
 The electronic state is 2-A.
 Alpha  occ. eigenvalues --  -19.17000 -19.16393 -10.22758 -10.18987 -10.18760
 Alpha  occ. eigenvalues --  -10.17245 -10.17184 -10.17073 -10.16096 -10.15659
 Alpha  occ. eigenvalues --  -10.15410  -1.11573  -0.91439  -0.81657  -0.80767
 Alpha  occ. eigenvalues --   -0.75068  -0.69193  -0.68357  -0.67073  -0.60790
 Alpha  occ. eigenvalues --   -0.57814  -0.55957  -0.53740  -0.48463  -0.47425
 Alpha  occ. eigenvalues --   -0.45800  -0.45351  -0.44328  -0.42887  -0.41591
 Alpha  occ. eigenvalues --   -0.41342  -0.40323  -0.39181  -0.38376  -0.37355
 Alpha  occ. eigenvalues --   -0.36322  -0.35897  -0.35023  -0.34223  -0.32410
 Alpha  occ. eigenvalues --   -0.32289  -0.31837  -0.29294  -0.27770  -0.21715
 Alpha virt. eigenvalues --    0.01845   0.03866   0.04769   0.05579   0.06253
 Alpha virt. eigenvalues --    0.07635   0.08038   0.08739   0.10100   0.10251
 Alpha virt. eigenvalues --    0.10954   0.11421   0.12062   0.12339   0.13171
 Alpha virt. eigenvalues --    0.14359   0.14815   0.15921   0.16435   0.18020
 Alpha virt. eigenvalues --    0.18432   0.19669   0.20668   0.21331   0.22832
 Alpha virt. eigenvalues --    0.23889   0.24522   0.25143   0.27517   0.28744
 Alpha virt. eigenvalues --    0.29528   0.31207   0.32032   0.33566   0.34146
 Alpha virt. eigenvalues --    0.35884   0.36289   0.37612   0.38833   0.39972
 Alpha virt. eigenvalues --    0.41063   0.43742   0.45768   0.47246   0.48954
 Alpha virt. eigenvalues --    0.50836   0.51688   0.52794   0.53979   0.54955
 Alpha virt. eigenvalues --    0.55712   0.56370   0.56508   0.57363   0.57481
 Alpha virt. eigenvalues --    0.57981   0.58508   0.58922   0.59209   0.59433
 Alpha virt. eigenvalues --    0.59867   0.60776   0.60996   0.62147   0.62449
 Alpha virt. eigenvalues --    0.62910   0.63326   0.64270   0.64604   0.66148
 Alpha virt. eigenvalues --    0.66387   0.67546   0.71070   0.71539   0.74760
 Alpha virt. eigenvalues --    0.79530   0.80743   0.82032   0.85040   0.87108
 Alpha virt. eigenvalues --    0.87539   0.90321   0.92182   0.94374   0.97323
 Alpha virt. eigenvalues --    0.98919   0.99409   1.00597   1.02579   1.05663
 Alpha virt. eigenvalues --    1.06808   1.10466   1.12979   1.14525   1.18784
 Alpha virt. eigenvalues --    1.20051   1.21662   1.23802   1.25410   1.29405
 Alpha virt. eigenvalues --    1.31659   1.34585   1.36384   1.37619   1.38717
 Alpha virt. eigenvalues --    1.40199   1.41203   1.42578   1.43913   1.44230
 Alpha virt. eigenvalues --    1.44901   1.45814   1.46439   1.46881   1.47420
 Alpha virt. eigenvalues --    1.48710   1.50956   1.51616   1.52485   1.53833
 Alpha virt. eigenvalues --    1.54459   1.55583   1.56668   1.57695   1.58665
 Alpha virt. eigenvalues --    1.59491   1.60440   1.61133   1.61565   1.64417
 Alpha virt. eigenvalues --    1.66151   1.66431   1.68377   1.69515   1.70649
 Alpha virt. eigenvalues --    1.72303   1.73384   1.74000   1.75181   1.77545
 Alpha virt. eigenvalues --    1.78565   1.79211   1.79369   1.81594   1.81943
 Alpha virt. eigenvalues --    1.82570   1.89086   1.91772   1.92505   1.93495
 Alpha virt. eigenvalues --    1.95396   1.97604   1.98590   2.00104   2.01881
 Alpha virt. eigenvalues --    2.03618   2.06051   2.06507   2.07384   2.09554
 Alpha virt. eigenvalues --    2.09938   2.12184   2.12960   2.15451   2.16918
 Alpha virt. eigenvalues --    2.17441   2.19465   2.23667   2.26360   2.30442
 Alpha virt. eigenvalues --    2.30565   2.31410   2.33025   2.35918   2.37215
 Alpha virt. eigenvalues --    2.38286   2.40275   2.41940   2.43249   2.45765
 Alpha virt. eigenvalues --    2.46304   2.46423   2.47927   2.48955   2.50252
 Alpha virt. eigenvalues --    2.51123   2.51656   2.52936   2.54173   2.54607
 Alpha virt. eigenvalues --    2.55476   2.55696   2.57652   2.58756   2.59050
 Alpha virt. eigenvalues --    2.60095   2.61121   2.63462   2.64770   2.65860
 Alpha virt. eigenvalues --    2.68242   2.69012   2.70308   2.72098   2.73064
 Alpha virt. eigenvalues --    2.74728   2.77357   2.77737   2.81659   2.82652
 Alpha virt. eigenvalues --    2.85427   2.86045   2.88675   2.88843   2.90413
 Alpha virt. eigenvalues --    2.93155   2.96162   2.97894   3.02141   3.03046
 Alpha virt. eigenvalues --    3.06057   3.10798   3.11826   3.14671   3.23457
 Alpha virt. eigenvalues --    3.26482   3.31082   3.33008   3.44856   3.49242
 Alpha virt. eigenvalues --    3.64171   3.70870   3.77471   3.77555   3.78111
 Alpha virt. eigenvalues --    3.79074   3.79386   3.80351   3.81282   3.83042
 Alpha virt. eigenvalues --    3.85243   3.87421   3.96686   3.98667   4.09556
 Alpha virt. eigenvalues --    4.18553   4.26052   4.27380   4.29565   4.38436
 Alpha virt. eigenvalues --    4.72644   4.86076   4.93668   5.24927   5.37458
 Alpha virt. eigenvalues --    5.70155  23.74130  23.81762  23.82080  23.84380
 Alpha virt. eigenvalues --   23.88298  23.89328  23.92852  23.93797  23.94459
 Alpha virt. eigenvalues --   49.78968  49.86873
  Beta  occ. eigenvalues --  -19.17000 -19.16287 -10.22617 -10.19067 -10.17397
  Beta  occ. eigenvalues --  -10.17242 -10.17174 -10.17030 -10.16092 -10.15659
  Beta  occ. eigenvalues --  -10.15409  -1.11455  -0.91265  -0.81448  -0.80225
  Beta  occ. eigenvalues --   -0.74843  -0.68356  -0.67824  -0.66362  -0.60203
  Beta  occ. eigenvalues --   -0.57309  -0.55865  -0.53587  -0.48166  -0.46996
  Beta  occ. eigenvalues --   -0.45588  -0.45151  -0.44202  -0.42662  -0.41391
  Beta  occ. eigenvalues --   -0.41096  -0.40250  -0.39026  -0.38331  -0.36940
  Beta  occ. eigenvalues --   -0.36036  -0.35832  -0.34967  -0.34068  -0.32395
  Beta  occ. eigenvalues --   -0.32257  -0.31687  -0.28831  -0.27184
  Beta virt. eigenvalues --   -0.07814   0.01964   0.04055   0.04836   0.05624
  Beta virt. eigenvalues --    0.06653   0.07739   0.08154   0.08815   0.10126
  Beta virt. eigenvalues --    0.10521   0.11105   0.11478   0.12166   0.12887
  Beta virt. eigenvalues --    0.13337   0.14407   0.14820   0.15991   0.16565
  Beta virt. eigenvalues --    0.18125   0.18619   0.19722   0.20865   0.21399
  Beta virt. eigenvalues --    0.23047   0.23958   0.24677   0.25259   0.27932
  Beta virt. eigenvalues --    0.28845   0.29572   0.31432   0.32292   0.33706
  Beta virt. eigenvalues --    0.34673   0.35961   0.37052   0.37764   0.39982
  Beta virt. eigenvalues --    0.40350   0.41293   0.43974   0.45808   0.47496
  Beta virt. eigenvalues --    0.49160   0.51475   0.52858   0.53880   0.54229
  Beta virt. eigenvalues --    0.55464   0.56023   0.56431   0.56973   0.57486
  Beta virt. eigenvalues --    0.57728   0.58180   0.58742   0.58976   0.59372
  Beta virt. eigenvalues --    0.59558   0.59970   0.60881   0.61135   0.62318
  Beta virt. eigenvalues --    0.62753   0.62998   0.63511   0.64489   0.65258
  Beta virt. eigenvalues --    0.66262   0.66592   0.67698   0.71126   0.71668
  Beta virt. eigenvalues --    0.74818   0.79636   0.81289   0.82358   0.85556
  Beta virt. eigenvalues --    0.87664   0.87755   0.90477   0.92292   0.94592
  Beta virt. eigenvalues --    0.97671   0.99430   0.99706   1.00672   1.02664
  Beta virt. eigenvalues --    1.05802   1.07124   1.10706   1.13086   1.15760
  Beta virt. eigenvalues --    1.18847   1.20175   1.22065   1.24021   1.25628
  Beta virt. eigenvalues --    1.29699   1.32009   1.34801   1.36590   1.37665
  Beta virt. eigenvalues --    1.38896   1.40325   1.41451   1.42667   1.44080
  Beta virt. eigenvalues --    1.44514   1.45378   1.45866   1.46547   1.47172
  Beta virt. eigenvalues --    1.47795   1.48774   1.51019   1.51745   1.52939
  Beta virt. eigenvalues --    1.53874   1.54500   1.55824   1.56796   1.58257
  Beta virt. eigenvalues --    1.58942   1.59727   1.60570   1.61201   1.61721
  Beta virt. eigenvalues --    1.64799   1.66403   1.66488   1.68572   1.69621
  Beta virt. eigenvalues --    1.70697   1.72370   1.73730   1.74329   1.75629
  Beta virt. eigenvalues --    1.77955   1.78615   1.79389   1.80543   1.81855
  Beta virt. eigenvalues --    1.82084   1.83253   1.89254   1.91974   1.92785
  Beta virt. eigenvalues --    1.93612   1.97400   1.97759   1.98724   2.00314
  Beta virt. eigenvalues --    2.02032   2.03879   2.06406   2.06684   2.07782
  Beta virt. eigenvalues --    2.09620   2.10060   2.12278   2.13127   2.15873
  Beta virt. eigenvalues --    2.17193   2.17557   2.19666   2.23726   2.26501
  Beta virt. eigenvalues --    2.30559   2.31017   2.31537   2.33077   2.35933
  Beta virt. eigenvalues --    2.37359   2.38426   2.40376   2.41995   2.43316
  Beta virt. eigenvalues --    2.45806   2.46357   2.46601   2.48000   2.49055
  Beta virt. eigenvalues --    2.50308   2.51158   2.51693   2.53033   2.54314
  Beta virt. eigenvalues --    2.54668   2.55578   2.55830   2.57743   2.58909
  Beta virt. eigenvalues --    2.59169   2.60250   2.61824   2.63621   2.64846
  Beta virt. eigenvalues --    2.66413   2.68409   2.69053   2.70706   2.72379
  Beta virt. eigenvalues --    2.73132   2.74800   2.77736   2.78337   2.81796
  Beta virt. eigenvalues --    2.84356   2.85974   2.86270   2.88786   2.89036
  Beta virt. eigenvalues --    2.90743   2.93267   2.97383   2.98032   3.02285
  Beta virt. eigenvalues --    3.03170   3.06295   3.10824   3.11954   3.14796
  Beta virt. eigenvalues --    3.23644   3.26563   3.31252   3.33208   3.44946
  Beta virt. eigenvalues --    3.49432   3.64286   3.72687   3.77491   3.77649
  Beta virt. eigenvalues --    3.78137   3.79123   3.79513   3.80423   3.81310
  Beta virt. eigenvalues --    3.83071   3.85250   3.87483   3.96789   3.98890
  Beta virt. eigenvalues --    4.09821   4.19025   4.26195   4.27821   4.29569
  Beta virt. eigenvalues --    4.38478   4.72699   4.86211   4.93713   5.25026
  Beta virt. eigenvalues --    5.37611   5.70214  23.74401  23.81830  23.82139
  Beta virt. eigenvalues --   23.85500  23.88306  23.89393  23.92940  23.93804
  Beta virt. eigenvalues --   23.94461  49.79062  49.86884
          Condensed to atoms (all electrons):
              1          2          3          4          5          6
     1  C    5.299146   0.401333   0.401951   0.323916  -0.050356   0.008777
     2  H    0.401333   0.546568  -0.035899  -0.040206   0.006807  -0.000128
     3  H    0.401951  -0.035899   0.538352  -0.035835  -0.008500  -0.000039
     4  C    0.323916  -0.040206  -0.035835   5.121252   0.405033  -0.066225
     5  H   -0.050356   0.006807  -0.008500   0.405033   0.598087  -0.005804
     6  C    0.008777  -0.000128  -0.000039  -0.066225  -0.005804   4.993310
     7  H   -0.000151   0.000010   0.000022  -0.011125   0.005932   0.392506
     8  H    0.000274  -0.000029  -0.000020   0.003986  -0.001274   0.401557
     9  C   -0.000274   0.000014  -0.000001   0.007251   0.000157   0.349143
    10  H   -0.000031  -0.000004   0.000000  -0.000261   0.000017  -0.045616
    11  H   -0.000011   0.000001  -0.000003   0.001458  -0.000075  -0.040890
    12  C    0.000005   0.000000   0.000000  -0.000248  -0.000015  -0.050083
    13  H   -0.000001   0.000000   0.000000   0.000020  -0.000031  -0.007474
    14  C    0.000000   0.000000   0.000000   0.000003   0.000001   0.007637
    15  H    0.000000   0.000000   0.000000   0.000001   0.000000  -0.000036
    16  H    0.000000   0.000000   0.000000   0.000000   0.000000  -0.000417
    17  H    0.000000   0.000000   0.000000  -0.000002   0.000000   0.000115
    18  C    0.000000   0.000000   0.000000  -0.000008   0.000003  -0.005557
    19  H    0.000000   0.000000   0.000000   0.000000   0.000000  -0.000028
    20  H    0.000000   0.000000   0.000000   0.000005  -0.000003  -0.000919
    21  H   -0.000001   0.000000   0.000000  -0.000010   0.000030   0.001973
    22  C   -0.065352   0.001645   0.001597   0.346155  -0.048975   0.335984
    23  H    0.000730   0.001454  -0.000220  -0.067724   0.009323  -0.027766
    24  O   -0.000629  -0.000001   0.002323  -0.048098   0.003230  -0.047262
    25  O   -0.002126   0.001181  -0.000113  -0.012266  -0.000558   0.007484
    26  H    0.025145  -0.000115   0.000179   0.002844   0.000757  -0.001507
    27  C   -0.067151  -0.006483   0.005610   0.334801  -0.030675  -0.008522
    28  H    0.008587   0.000077  -0.000412  -0.034305  -0.005340  -0.000124
    29  H   -0.008257   0.004045  -0.000156  -0.036687   0.009009  -0.000202
    30  H   -0.000605  -0.000104   0.000397  -0.029227  -0.007997  -0.000231
              7          8          9         10         11         12
     1  C   -0.000151   0.000274  -0.000274  -0.000031  -0.000011   0.000005
     2  H    0.000010  -0.000029   0.000014  -0.000004   0.000001   0.000000
     3  H    0.000022  -0.000020  -0.000001   0.000000  -0.000003   0.000000
     4  C   -0.011125   0.003986   0.007251  -0.000261   0.001458  -0.000248
     5  H    0.005932  -0.001274   0.000157   0.000017  -0.000075  -0.000015
     6  C    0.392506   0.401557   0.349143  -0.045616  -0.040890  -0.050083
     7  H    0.578900  -0.030915  -0.038172   0.008615  -0.004897  -0.004157
     8  H   -0.030915   0.586276  -0.033674  -0.007823   0.008434  -0.005360
     9  C   -0.038172  -0.033674   4.971746   0.400059   0.413252   0.369477
    10  H    0.008615  -0.007823   0.400059   0.611393  -0.032145  -0.039000
    11  H   -0.004897   0.008434   0.413252  -0.032145   0.559808  -0.038611
    12  C   -0.004157  -0.005360   0.369477  -0.039000  -0.038611   5.033750
    13  H    0.005409  -0.000374  -0.048244   0.010059  -0.005471   0.409967
    14  C    0.000068  -0.000098  -0.067585  -0.004470  -0.005990   0.379345
    15  H    0.000023   0.000011  -0.007300   0.004807  -0.000529  -0.038295
    16  H   -0.000010   0.000018   0.008635  -0.000273   0.000119  -0.032635
    17  H    0.000016  -0.000011  -0.004764  -0.000630   0.003952  -0.032598
    18  C   -0.001054   0.002487  -0.068199  -0.009150   0.007605   0.357161
    19  H   -0.000114  -0.000089   0.008184  -0.000208  -0.000368  -0.031638
    20  H    0.000128   0.000393  -0.006017   0.005738  -0.000063  -0.040273
    21  H    0.000552   0.000104  -0.005755  -0.000217  -0.000196  -0.032373
    22  C   -0.034453  -0.039310  -0.047946  -0.002912  -0.008959   0.005886
    23  H    0.010412  -0.003695  -0.009557   0.003789  -0.001192   0.000064
    24  O    0.003013   0.003763  -0.003038  -0.000034   0.016326  -0.000453
    25  O   -0.000293  -0.000294  -0.000204  -0.000168  -0.000723   0.000010
    26  H    0.000072   0.000117  -0.000034   0.000015   0.000240  -0.000004
    27  C    0.001355  -0.003614  -0.000449   0.000151  -0.000169   0.000009
    28  H    0.000197   0.003998  -0.000443   0.000169  -0.000035   0.000030
    29  H   -0.000020   0.000062   0.000033  -0.000019  -0.000002  -0.000001
    30  H   -0.000036   0.000067   0.000026  -0.000009   0.000009  -0.000001
             13         14         15         16         17         18
     1  C   -0.000001   0.000000   0.000000   0.000000   0.000000   0.000000
     2  H    0.000000   0.000000   0.000000   0.000000   0.000000   0.000000
     3  H    0.000000   0.000000   0.000000   0.000000   0.000000   0.000000
     4  C    0.000020   0.000003   0.000001   0.000000  -0.000002  -0.000008
     5  H   -0.000031   0.000001   0.000000   0.000000   0.000000   0.000003
     6  C   -0.007474   0.007637  -0.000036  -0.000417   0.000115  -0.005557
     7  H    0.005409   0.000068   0.000023  -0.000010   0.000016  -0.001054
     8  H   -0.000374  -0.000098   0.000011   0.000018  -0.000011   0.002487
     9  C   -0.048244  -0.067585  -0.007300   0.008635  -0.004764  -0.068199
    10  H    0.010059  -0.004470   0.004807  -0.000273  -0.000630  -0.009150
    11  H   -0.005471  -0.005990  -0.000529   0.000119   0.003952   0.007605
    12  C    0.409967   0.379345  -0.038295  -0.032635  -0.032598   0.357161
    13  H    0.619383  -0.040036   0.009558  -0.006906  -0.006424  -0.047993
    14  C   -0.040036   4.860704   0.402372   0.401583   0.402617  -0.066269
    15  H    0.009558   0.402372   0.596063  -0.031696  -0.030772  -0.006511
    16  H   -0.006906   0.401583  -0.031696   0.588638  -0.027685  -0.005304
    17  H   -0.006424   0.402617  -0.030772  -0.027685   0.581545   0.008660
    18  C   -0.047993  -0.066269  -0.006511  -0.005304   0.008660   4.898423
    19  H   -0.006182  -0.006204  -0.000628   0.004101   0.000024   0.403094
    20  H    0.009675  -0.004790   0.005022  -0.000662  -0.000214   0.399580
    21  H   -0.005868   0.007944  -0.000140  -0.000006  -0.000516   0.402774
    22  C   -0.000153  -0.000251  -0.000019   0.000013  -0.000009  -0.000025
    23  H   -0.000052  -0.000025  -0.000009   0.000001   0.000008   0.000004
    24  O    0.000062   0.000005   0.000003   0.000000  -0.000065  -0.000010
    25  O    0.000000   0.000000   0.000000   0.000000   0.000000   0.000000
    26  H    0.000000   0.000000   0.000000   0.000000   0.000000   0.000000
    27  C   -0.000002   0.000000   0.000000   0.000000   0.000000  -0.000008
    28  H    0.000007   0.000000   0.000000   0.000000   0.000000  -0.000004
    29  H   -0.000001   0.000000   0.000000   0.000000   0.000000   0.000000
    30  H    0.000000   0.000000   0.000000   0.000000   0.000000   0.000000
             19         20         21         22         23         24
     1  C    0.000000   0.000000  -0.000001  -0.065352   0.000730  -0.000629
     2  H    0.000000   0.000000   0.000000   0.001645   0.001454  -0.000001
     3  H    0.000000   0.000000   0.000000   0.001597  -0.000220   0.002323
     4  C    0.000000   0.000005  -0.000010   0.346155  -0.067724  -0.048098
     5  H    0.000000  -0.000003   0.000030  -0.048975   0.009323   0.003230
     6  C   -0.000028  -0.000919   0.001973   0.335984  -0.027766  -0.047262
     7  H   -0.000114   0.000128   0.000552  -0.034453   0.010412   0.003013
     8  H   -0.000089   0.000393   0.000104  -0.039310  -0.003695   0.003763
     9  C    0.008184  -0.006017  -0.005755  -0.047946  -0.009557  -0.003038
    10  H   -0.000208   0.005738  -0.000217  -0.002912   0.003789  -0.000034
    11  H   -0.000368  -0.000063  -0.000196  -0.008959  -0.001192   0.016326
    12  C   -0.031638  -0.040273  -0.032373   0.005886   0.000064  -0.000453
    13  H   -0.006182   0.009675  -0.005868  -0.000153  -0.000052   0.000062
    14  C   -0.006204  -0.004790   0.007944  -0.000251  -0.000025   0.000005
    15  H   -0.000628   0.005022  -0.000140  -0.000019  -0.000009   0.000003
    16  H    0.004101  -0.000662  -0.000006   0.000013   0.000001   0.000000
    17  H    0.000024  -0.000214  -0.000516  -0.000009   0.000008  -0.000065
    18  C    0.403094   0.399580   0.402774  -0.000025   0.000004  -0.000010
    19  H    0.584018  -0.030677  -0.028633   0.000013  -0.000001   0.000000
    20  H   -0.030677   0.595549  -0.031329  -0.000090  -0.000011   0.000002
    21  H   -0.028633  -0.031329   0.589143   0.000029   0.000023  -0.000005
    22  C    0.000013  -0.000090   0.000029   5.009092   0.385675   0.200384
    23  H   -0.000001  -0.000011   0.000023   0.385675   0.597951  -0.035834
    24  O    0.000000   0.000002  -0.000005   0.200384  -0.035834   8.112564
    25  O    0.000000   0.000000   0.000000  -0.053167   0.013226   0.084852
    26  H    0.000000   0.000000   0.000000  -0.001589  -0.000932  -0.036192
    27  C    0.000000  -0.000004  -0.000004  -0.061752   0.004932   0.003376
    28  H   -0.000002   0.000024   0.000006  -0.003400  -0.000490   0.000050
    29  H    0.000000  -0.000001   0.000001  -0.007424   0.004955   0.000083
    30  H    0.000000   0.000000  -0.000001   0.007836  -0.000321  -0.000180
             25         26         27         28         29         30
     1  C   -0.002126   0.025145  -0.067151   0.008587  -0.008257  -0.000605
     2  H    0.001181  -0.000115  -0.006483   0.000077   0.004045  -0.000104
     3  H   -0.000113   0.000179   0.005610  -0.000412  -0.000156   0.000397
     4  C   -0.012266   0.002844   0.334801  -0.034305  -0.036687  -0.029227
     5  H   -0.000558   0.000757  -0.030675  -0.005340   0.009009  -0.007997
     6  C    0.007484  -0.001507  -0.008522  -0.000124  -0.000202  -0.000231
     7  H   -0.000293   0.000072   0.001355   0.000197  -0.000020  -0.000036
     8  H   -0.000294   0.000117  -0.003614   0.003998   0.000062   0.000067
     9  C   -0.000204  -0.000034  -0.000449  -0.000443   0.000033   0.000026
    10  H   -0.000168   0.000015   0.000151   0.000169  -0.000019  -0.000009
[...]
 68,-0.00206952,-0.00085040,0.00046403,0.00006119,-0.00004937,-0.000281
 08,0.00041164,0.00103567,-0.00006993,-0.00001387,0.00043566,-0.0005918
 1,0.00003999,-0.00002803,-0.00001026,-0.00000683,0.00000798,0.00008044
 ,0.00000414,-0.00000465,-0.00001902,-0.00004807,-0.00000292,0.00000422
 ,0.00004901,0.00007227,-0.00001476,-0.00016642,-0.00013841,0.00003275,
 0.00001590,0.00013705,0.00001537,-0.00003677,0.00000091,-0.00004162,0.
 00003467,0.00012364,0.00009835,-0.02078936,-0.14506216,0.07326848,0.00
 563360,-0.01597000,0.01071333,-0.07587660,0.31751247,-0.00163462,-0.00
 074687,0.00027494,0.00016281,0.00009370,0.00020184,0.00059331,0.000130
 53,0.00032876,0.00604568,0.00159457,0.00549180,0.00084971,0.00056349,0
 .00150623,0.00063113,-0.01129108,0.00584251,-0.00036558,-0.00111496,0.
 00053395,0.00330046,-0.00221383,-0.00067093,-0.00090001,-0.00028378,0.
 00021983,0.00030731,-0.00007113,0.00021511,-0.00026875,0.00054601,-0.0
 0015387,0.00021817,0.00014991,0.00006256,-0.00008547,0.00002711,0.0000
 5712,0.00001861,0.00006023,-0.00002767,0.00001773,-0.00001378,0.000017
 07,-0.00001978,0.00000372,0.00001124,0.00000381,-0.00000840,-0.0000072
 3,-0.00011270,-0.00008648,-0.00004887,0.00001032,0.00007214,0.00002293
 ,0.00002386,-0.00000776,0.00002835,0.00002078,0.00007548,0.00005025,0.
 02207080,0.03616797,-0.11618042,-0.00258523,0.04212174,-0.01958619,-0.
 10651620,-0.03172427,0.22623486,-0.00488303,-0.01085286,-0.00167901,0.
 00070630,0.00094287,0.00012461,0.00068300,0.00095582,0.00042565,0.0037
 9738,-0.00090751,0.00129072,0.00001897,-0.00023481,-0.00025449,0.00295
 192,0.00812304,-0.00249103,0.00071982,-0.00070764,-0.00047446,-0.00258
 325,0.00059040,0.00051065,0.00123468,0.00078394,0.00012398,-0.00022122
 ,0.00007950,-0.00020842,0.00016960,-0.00019107,0.00038448,0.00014054,-
 0.00010645,-0.00011674,0.00003248,0.00000062,-0.00002514,-0.00007031,0
 .00007406,0.00006895,-0.00000039,0.00000368,-0.00003368,-0.00009087,-0
 .00001902,-0.00000054,0.00001578,-0.00001675,0.00000477,-0.00006868,0.
 00005660,0.00013426,-0.00012733,-0.00001259,-0.00001268,0.00001636,0.0
 0000094,-0.00003596,0.00001390,-0.00016443,-0.00008621,-0.01916616,0.0
 0614231,0.00794140,0.00131109,-0.00239379,0.00071763,-0.10914895,0.081
 54646,0.07573739,0.49528813,-0.00405393,-0.00601430,-0.00109808,0.0002
 8363,0.00008409,-0.00045616,0.00011505,0.00020563,-0.00014555,-0.00046
 625,0.00230772,-0.00022684,0.00027323,-0.00013998,0.00002902,-0.003155
 40,-0.00732607,0.00206200,0.00006800,-0.00013052,-0.00012693,0.0022258
 6,0.00008609,-0.00057657,-0.00025263,-0.00068064,-0.00032397,0.0000256
 9,0.00015353,-0.00000140,0.00054380,0.00048995,0.00022251,0.00004298,0
 .00027919,0.00029496,-0.00000417,-0.00003178,-0.00004661,0.00013434,-0
 .00013232,-0.00008005,-0.00000634,0.00000379,0.00000460,0.00007538,0.0
 0004664,0.00001768,0.00001045,0.00007224,0.00000016,-0.00008212,-0.000
 06804,-0.00008651,0.00007734,0.00005197,0.00001060,-0.00001378,0.00000
 767,0.00000808,0.00000638,0.00015546,0.00009960,0.03304209,-0.02901953
 ,-0.02734588,-0.00091901,0.00377602,-0.00297894,0.02767629,-0.08836399
 ,-0.03726604,0.03682955,0.17845181,-0.00105378,-0.00243056,0.00010211,
 -0.00024622,-0.00000704,0.00037266,0.00018081,0.00013811,0.00021184,0.
 00002986,-0.00001585,-0.00061066,0.00020033,0.00037897,0.00016902,-0.0
 0248453,0.00182627,0.00076679,-0.00080950,0.00066870,0.00061882,-0.000
 11302,0.00057833,0.00039946,0.00009032,0.00005289,0.00007816,0.0000755
 8,0.00005846,0.00004190,0.00013033,0.00004451,-0.00009732,-0.00000832,
 0.00005068,-0.00000425,-0.00003081,-0.00000128,0.00004427,-0.00000213,
 -0.00000675,-0.00000410,0.00000961,-0.00000842,0.00001639,0.00000020,0
 .00000690,0.00000071,0.00000422,-0.00000260,-0.00001473,-0.00004004,0.
 00000404,0.00001903,-0.00001167,0.00000493,-0.00000300,0.00000818,-0.0
 0001026,0.00001172,0.00000442,-0.00000168,-0.00000694,-0.00556834,-0.0
 0139081,0.00768118,-0.00186152,0.00113419,0.00401821,0.05743175,-0.066
 38026,-0.10740934,0.09289582,0.13518533,0.18767653,0.00100577,0.005522
 83,0.00104654,-0.00045989,-0.00130766,-0.00020056,-0.00056832,-0.00149
 091,-0.00083099,-0.00099950,0.00067230,-0.00079787,-0.00014000,0.00013
 064,0.00008574,-0.00011618,-0.00024156,-0.00027944,0.00000697,0.000025
 24,0.00002035,0.00012296,-0.00004622,0.00006613,0.00002564,0.00004759,
 0.00003195,-0.00001113,0.00004420,-0.00000814,-0.00000418,-0.00003523,
 0.00004550,-0.00003955,-0.00002431,0.00001709,0.00000190,-0.00000355,0
 .00000174,0.00000161,-0.00000442,-0.00000478,-0.00000371,0.00000090,0.
 00000591,0.00001731,-0.00000100,-0.00000521,-0.00001356,-0.00000612,0.
 00000213,0.00002044,0.00000531,-0.00001136,0.00001746,-0.00000879,-0.0
 0000302,-0.00000295,0.00000014,0.00000706,-0.00000766,0.00001009,0.000
 00342,-0.00064239,0.00410852,-0.00101721,-0.00028740,-0.00014926,0.000
 23556,-0.02373403,0.00037293,0.00288109,-0.37085545,-0.09331130,-0.138
 90364,0.39686193,0.00231743,0.00411989,0.00057078,-0.00089433,-0.00132
 491,-0.00003620,-0.00101995,-0.00123842,-0.00063260,-0.00129841,-0.001
 68637,-0.00148388,-0.00012812,0.00035768,0.00022986,-0.00025542,-0.002
 25439,0.00008187,-0.00022677,0.00018416,0.00014625,0.00060310,-0.00030
 452,-0.00010696,-0.00034981,0.00014905,0.00022622,0.00004576,-0.000034
 13,0.00004278,-0.00013597,-0.00009088,-0.00010819,-0.00004154,-0.00012
 709,-0.00009848,-0.00000920,0.00000679,0.00002343,-0.00004937,0.000044
 85,0.00003088,0.00000510,-0.00000206,0.00000186,-0.00002840,-0.0000117
 8,-0.00000617,0.00000312,-0.00001856,-0.00000295,0.00002932,-0.0000075
 9,-0.00000557,-0.00000749,0.00000104,0.00000619,0.00000748,-0.00000107
 ,0.00000725,0.00000201,-0.00000414,-0.00000966,0.00703278,0.00502154,-
 0.00057119,-0.00018588,-0.00032050,0.00016671,0.02987526,-0.00401519,0
 .00353345,-0.12055623,-0.05489046,-0.06988813,0.08569602,0.05629522,0.
 00129902,0.00165132,0.00062124,0.00039708,0.00076525,-0.00087408,-0.00
 094617,-0.00078575,-0.00095864,-0.00118924,0.00009113,-0.00020745,0.00
 021702,-0.00011121,-0.00011295,-0.00014013,-0.00067007,0.00018571,0.00
 000953,0.00006190,0.00003225,0.00023978,-0.00011681,-0.00000464,-0.000
 11078,-0.00011234,-0.00007276,0.00003617,-0.00005342,0.00003722,-0.000
 09047,-0.00001476,-0.00011872,-0.00001848,0.00001030,0.00006519,-0.000
 00458,0.00000040,-0.00000406,0.00002137,-0.00002929,-0.00001410,0.0000
 0043,0.00000004,0.00000103,0.00001878,0.00000706,0.00000366,-0.0000034
 9,0.00001147,-0.00000044,0.00002115,-0.00000717,-0.00002090,0.00002333
 ,-0.00000202,0.00000030,-0.00000686,0.00000145,-0.00000313,-0.00000403
 ,0.00002559,0.00001670,0.00094562,0.00232584,0.00004581,-0.00030034,-0
 .00043674,-0.00030720,0.03674356,-0.00266253,0.00196961,-0.17447668,-0
 .06745716,-0.09442926,0.13742135,0.06749990,0.09419600,-0.00751342,0.0
 2647488,-0.01812270,0.00122960,0.00005819,-0.00043340,-0.00405265,0.00
 127109,-0.00002846,-0.06945891,0.00343281,0.00288456,-0.00051836,-0.00
 488315,0.00238560,-0.00041079,0.00072886,0.00057593,-0.00006977,-0.000
 10562,-0.00011014,-0.00161327,-0.00142285,0.00050921,0.00016091,-0.000
 01109,-0.00014335,-0.00001481,-0.00003214,-0.00000168,0.00010945,0.000
 06529,0.00005035,0.00004560,-0.00000057,0.00008332,-0.00000343,0.00001
 552,-0.00001273,-0.00000898,0.00001869,-0.00002379,0.00000218,-0.00000
 719,0.00000175,-0.00000185,0.00000063,0.00000495,0.00001452,0.00002892
 ,0.00000228,-0.00007131,-0.00005948,-0.00005368,0.00002506,0.00003713,
 -0.00000189,-0.00002210,-0.00000894,-0.00002581,-0.00000080,0.00002716
 ,0.00008221,0.00295543,-0.02001911,0.01241986,0.00113011,0.00044691,0.
 00055509,-0.00460545,-0.00683520,0.00017391,-0.00003291,0.00082052,0.0
 0008981,-0.00022477,-0.00038232,-0.00009576,0.57032725,0.01056215,-0.0
 1933478,0.01066089,-0.00118900,0.00145341,0.00074201,0.00005193,-0.001
 12059,-0.00027102,-0.00242297,-0.13542135,0.03936902,-0.00000467,0.005
 87134,-0.00258762,-0.00048715,0.00115093,0.00086964,-0.00010050,-0.000
 69915,0.00017761,0.00015403,-0.00092470,-0.00004290,0.00038065,-0.0002
 9957,-0.00008011,0.00000883,0.00008138,-0.00002549,-0.00008879,-0.0000
 8057,-0.00003290,0.00005888,0.00011913,0.00003452,-0.00000611,-0.00000
 812,0.00000101,0.00003403,-0.00003370,-0.00000594,-0.00000010,0.000004
 70,-0.00000184,0.00000180,0.00000899,0.00000545,-0.00000087,-0.0000066
 4,-0.00000356,0.00000888,0.00003718,0.00002645,-0.00003100,-0.00002224
 ,0.00000728,0.00002046,0.00000065,0.00002050,0.00002147,-0.00003142,-0
 .00005538,-0.00527574,-0.02346920,0.01175475,0.00135972,0.00102719,0.0
 0059304,-0.00342920,-0.00271951,0.00006101,0.00036948,0.00035040,-0.00
 011922,-0.00009383,-0.00013086,-0.00006915,-0.00224032,0.48497099,-0.0
 0626172,0.00323276,0.00066264,0.00075478,-0.00184285,0.00121915,0.0012
 9665,0.00062878,0.00032016,0.00503149,0.03875496,-0.10644351,-0.000492
 58,0.02816915,-0.01638875,0.00031254,-0.00030087,-0.00016463,-0.000045
 94,-0.00006440,0.00017838,0.00029458,0.00027637,-0.00005521,-0.0001105
 0,0.00015527,0.00035444,0.00000549,0.00004730,-0.00005058,0.00009178,0
 .00001017,0.00001463,-0.00003979,-0.00005170,-0.00011291,0.00000842,-0
 .00000726,-0.00000345,-0.00003462,0.00001968,0.00003917,-0.00000137,0.
 00000315,-0.00001004,-0.00002465,-0.00000863,-0.00000669,0.00000920,0.
 00000171,-0.00000047,-0.00002519,-0.00001084,0.00002317,-0.00001846,0.
 00000402,0.00000119,0.00000864,0.00000851,0.00000253,0.00000186,-0.000
 01280,-0.00002286,0.00292363,-0.00328908,0.00378732,-0.00064011,-0.001
 30465,0.00070718,-0.00265227,-0.00453871,0.00033329,-0.00060121,0.0002
 8708,0.00034296,0.00029210,0.00061316,0.00008044,0.00227493,0.05703745
 ,0.52006595,0.00018488,0.00073610,-0.00056204,0.00009533,-0.00037342,-
 0.00014555,0.00018807,0.00028382,0.00010992,0.00177577,-0.00139459,-0.
 00024682,0.00029214,0.00034976,-0.00049053,-0.00082832,-0.00054571,0.0
 0076806,-0.00002640,-0.00021850,0.00003249,-0.00091618,-0.00171790,0.0
 0064759,0.00013382,-0.00009833,-0.00005441,-0.00000690,0.00001190,-0.0
 0002663,-0.00005323,-0.00005566,-0.00004111,0.00001958,0.00004718,0.00
 003802,0.00000020,-0.00000100,-0.00000306,0.00002146,-0.00001595,-0.00
 001447,-0.00000230,0.00000210,0.00000135,0.00000987,0.00000490,0.00000
 242,-0.00000539,-0.00000806,0.00000084,0.00002551,0.00000341,-0.000014
 44,0.00000745,-0.00000248,0.00000240,-0.00000299,0.00000029,0.00000730
 ,-0.00000706,0.00000027,0.00000297,-0.00077283,-0.00042852,-0.00038444
 ,0.00005240,0.00009489,-0.00001603,0.00014210,0.00041899,-0.00004805,0
 .00014114,0.00014667,0.00001493,-0.00002768,-0.00015841,-0.00000562,-0
 .24662550,0.11054574,0.01750413,0.26985594,-0.00010957,-0.00340385,0.0
 0422093,-0.00022369,0.00001279,-0.00008760,0.00104386,-0.00056931,-0.0
 0008848,0.02241725,-0.01296618,-0.00415315,-0.00022986,0.00105261,0.00
 006627,0.00018154,-0.00140424,0.00011421,0.00003903,0.00030908,-0.0001
 3482,-0.00144826,0.00046489,0.00032305,-0.00039045,0.00039733,-0.00012
 922,-0.00000425,-0.00005555,-0.00000096,0.00020362,0.00015412,0.000072
 19,-0.00009691,-0.00000553,0.00002802,0.00000634,-0.00000455,-0.000010
 82,0.00001808,-0.00001854,-0.00001654,-0.00000501,-0.00000129,0.000006
 31,0.00003342,-0.00000044,-0.00000271,-0.00000665,0.00000613,0.0000016
 7,0.00001304,-0.00004139,-0.00002900,0.00005280,0.00001368,-0.00000797
 ,-0.00002304,0.00000460,-0.00000816,-0.00002938,0.00005593,0.00004476,
 0.00146230,0.00077785,-0.00026697,-0.00014637,-0.00006080,-0.00016258,
 -0.00010550,0.00013562,-0.00010038,-0.00042395,-0.00008245,0.00006193,
 0.00014809,0.00038058,0.00005486,0.10920613,-0.10775526,-0.00974893,-0
 .12002862,0.11604008,0.00048648,0.00282777,-0.00159111,-0.00027724,0.0
 0015733,0.00014433,-0.00077561,0.00001553,0.00021449,-0.01570879,0.009
 11667,0.00114711,-0.00036846,-0.00065400,0.00037305,-0.00008267,0.0006
 0437,0.00003238,-0.00002055,0.00007355,-0.00009289,0.00069269,0.000209
 71,0.00035915,0.00019611,-0.00020710,0.00009154,-0.00004760,-0.0000228
 7,-0.00006833,-0.00007592,-0.00004019,-0.00004678,0.00000104,0.0000091
 3,-0.00000868,0.00001246,0.00001298,-0.00001677,0.00000159,-0.00000602
 ,0.00000315,-0.00000433,-0.00000195,-0.00000661,0.00000036,0.00000221,
 -0.00000049,-0.00000101,0.00000094,-0.00000107,0.00004528,0.00003247,0
 .00006081,-0.00000280,-0.00000017,-0.00001851,-0.00003050,-0.00001180,
 -0.00003781,0.00000240,-0.00001883,0.00000989,0.00000140,-0.00097743,0
 .00042170,0.00018866,0.00000272,-0.00001027,-0.00010926,-0.00012292,-0
 .00013311,0.00012737,0.00009244,0.00002997,-0.00007603,-0.00019203,-0.
 00004018,0.01720015,-0.01006210,-0.04875321,-0.02006491,0.00802205,0.0
 4883170,0.00060491,-0.00026132,-0.00136161,0.00009369,0.00008600,0.000
 19640,-0.00001475,-0.00005094,0.00015096,-0.00118455,-0.00021462,0.000
 11140,0.00053469,-0.00000216,-0.00019127,-0.00043210,0.00016570,-0.000
 12521,0.00002536,-0.00002684,-0.00006469,0.00018267,-0.00012220,0.0001
 1444,0.00006784,-0.00015848,0.00015062,-0.00005729,-0.00000555,-0.0000
 6774,-0.00005644,-0.00003044,-0.00003530,-0.00001701,0.00000618,-0.000
 03906,0.00001700,0.00000268,-0.00001524,-0.00000163,-0.00000719,0.0000
 1070,-0.00000539,0.00000049,-0.00000631,0.00000136,-0.00000003,-0.0000
 0360,-0.00000240,0.00000032,-0.00000051,0.00003090,0.00001668,0.000044
 72,-0.00000194,-0.00000352,-0.00001223,-0.00001479,-0.00000072,-0.0000
 1750,-0.00000055,-0.00001016,-0.00000784,0.00023045,0.00034999,0.00158
 274,0.00003179,-0.00026875,-0.00025633,-0.00005261,0.00002746,-0.00040
 960,-0.00007049,-0.00005927,0.00001003,0.00005174,0.00006577,-0.000000
 39,-0.05444907,0.00979013,0.04085602,-0.00375961,0.00588918,0.02809596
 ,0.05378496,-0.00137521,0.00130966,0.00036531,0.00034221,0.00011048,-0
 .00050140,-0.00005966,0.00005421,-0.00019650,-0.00488656,0.00496758,0.
 02839230,-0.00003021,-0.00466701,0.00310467,-0.00006458,-0.00015979,-0
 .00000061,0.00005101,0.00000460,-0.00011203,-0.00006611,0.00003614,-0.
 00006333,-0.00004890,0.00008142,-0.00007269,-0.00001667,-0.00001076,0.
 00000194,0.00001258,0.00000496,0.00002174,-0.00000558,-0.00000652,0.00
 001297,0.00000379,-0.00000263,0.00000011,0.00000005,0.00000182,-0.0000
 0879,-0.00000022,0.00000033,0.00000391,0.00000538,-0.00000062,-0.00000
 014,-0.00000116,0.00000076,0.00000227,-0.00001034,-0.00001114,-0.00002
 937,0.00000863,0.00000053,0.00000351,0.00000384,0.00000309,0.00000927,
 -0.00000267,0.00000898,0.00000900,0.00069798,0.00162009,0.00161546,-0.
 00012611,-0.00004735,-0.00059207,0.00015594,0.00015000,-0.00044076,0.0
 0002371,-0.00000742,-0.00008126,-0.00000920,-0.00005878,0.00005713,0.0
 1015113,-0.05916983,-0.05642722,0.00116405,-0.00402796,-0.01450914,-0.
 01059348,0.06453687,0.00124122,-0.00078332,0.00083922,-0.00105300,0.00
 040753,0.00024281,-0.00026662,-0.00009781,0.00035659,0.00330114,-0.002
 35692,-0.01928837,-0.00029515,0.00370950,-0.00049620,0.00012234,-0.000
 02174,0.00010462,-0.00013033,-0.00000879,0.00011503,-0.00003453,0.0001
 1127,-0.00009708,-0.00002927,0.00000723,-0.00010912,0.00005080,0.00000
 480,0.00006350,0.00002271,0.00002610,0.00001788,0.00000281,0.00002361,
 0.00004155,-0.00001312,-0.00000602,0.00001342,0.00001265,-0.00000796,-
 0.00001664,0.00000308,-0.00000084,0.00000931,0.00001017,0.00000348,0.0
 0000235,-0.00000173,0.00000126,-0.00000101,-0.00001480,-0.00000977,-0.
 00002968,0.00000806,-0.00000090,0.00000489,0.00000800,0.00000083,0.000
 01664,0.00000100,0.00001612,0.00000296,-0.00104784,-0.00170678,-0.0000
 5459,0.00070984,0.00064434,0.00073957,0.00001450,0.00020576,0.00052467
 ,-0.00002429,0.00001169,0.00004980,-0.00002301,-0.00003050,-0.00008490
 ,0.04058323,-0.05558167,-0.28329406,0.00031065,-0.00052495,-0.00115861
 ,-0.04515803,0.05817628,0.31069568,0.00050897,0.00110444,0.00020873,0.
 00006069,-0.00006468,0.00005374,0.00017096,-0.00006016,-0.00003553,0.0
 0109543,0.00169303,0.00076105,-0.00014398,-0.00032559,0.00043964,-0.00
 008342,0.00045881,0.00008311,-0.00003702,-0.00023829,0.00008071,0.0002
 6706,-0.00044983,-0.00008792,0.00013590,-0.00008066,0.00007365,0.00000
 571,0.00002227,-0.00000033,-0.00006569,-0.00006446,-0.00002457,0.00005
 390,-0.00001315,-0.00003730,-0.00000542,0.00000021,0.00000961,-0.00001
 735,0.00001657,0.00001660,0.00000468,0.00000023,-0.00000454,-0.0000275
 0,-0.00000253,0.00000199,0.00000654,-0.00000079,-0.00000158,-0.0000226
 3,0.00001532,0.00001621,-0.00003798,-0.00000526,0.00000721,0.00001909,
 0.00000074,0.00000800,0.00002076,-0.00002939,-0.00003209,-0.00013263,0
 .00037945,0.00014555,0.00000244,0.00011492,0.00002960,0.00018494,0.000
 28058,-0.00012089,0.00007796,-0.00007303,-0.00004266,0.00000461,0.0000
 4445,-0.00000117,-0.18630198,-0.11799795,-0.06071781,-0.01991126,-0.01
 744316,-0.00940626,0.00446327,0.00467635,0.00168952,0.19970393,-0.0013
 0601,0.00153648,-0.00010788,0.00018263,-0.00033553,-0.00027755,-0.0000
 3208,-0.00028285,-0.00005610,-0.01797027,-0.01789649,-0.00874245,0.000
 06968,0.00110680,0.00013318,0.00025286,-0.00008883,-0.00010449,-0.0000
 3868,0.00005666,-0.00002868,-0.00019569,0.00017105,0.00004822,-0.00010
 060,0.00012963,0.00002915,-0.00000772,-0.00001305,-0.00001058,0.000079
 54,0.00003146,0.00002680,0.00000192,-0.00002949,-0.00003924,0.00000094
 ,0.00000303,-0.00000009,-0.00001845,0.00001437,0.00001319,0.00000191,-
 0.00000146,-0.00000417,-0.00001757,-0.00000397,0.00000042,0.00000786,0
 .00000464,-0.00000080,-0.00001647,-0.00001461,0.00000913,-0.00000881,0
 .00001233,-0.00000118,-0.00000442,-0.00000074,-0.00001129,0.00000297,-
 0.00000311,0.00000873,0.00261560,-0.00250708,0.00349456,0.00036860,0.0
 0020266,0.00007019,-0.00179838,-0.00233731,0.00016848,0.00006412,0.000
 36532,0.00014989,-0.00005143,-0.00003909,-0.00003526,-0.11677587,-0.14
 384879,-0.05164160,0.01123712,0.01059207,0.00564666,-0.00458489,-0.004
 72175,-0.00221185,0.12804157,0.15789767,0.00071028,-0.00056996,0.00047
 875,-0.00008106,-0.00009955,-0.00013471,0.00010033,0.00008778,-0.00005
 548,0.01418460,0.01298733,0.00543093,0.00041125,-0.00075094,0.00070379
 ,0.00001460,0.00000513,0.00001753,0.00001686,0.00007672,0.00000401,-0.
 00000608,0.00003714,-0.00002737,0.00000059,-0.00002948,-0.00008574,0.0
 0002776,0.00000261,0.00004150,-0.00002553,0.00000305,-0.00000025,0.000
 01116,0.00000493,0.00002974,-0.00000805,0.00000083,0.00000636,0.000006
 64,-0.00000095,-0.00000821,0.00000246,-0.00000007,0.00000249,0.0000023
 6,0.00000198,0.00000238,-0.00000160,-0.00000340,0.,0.00000151,0.000005
 47,-0.00001326,-0.00000017,-0.00000381,0.00000583,0.00000714,-0.000002
 10,0.00000638,-0.00000147,0.00000073,-0.00000133,-0.00172313,0.0015819
 0,-0.00227997,0.00018645,0.00021900,0.00043760,0.00094508,0.00179352,0
 .00029070,0.00003288,-0.00010909,-0.00007191,-0.00000239,-0.00000807,-
 0.00000173,-0.06082374,-0.05242173,-0.07282622,0.00267504,0.00245700,0
 .00026519,-0.02355151,-0.01874059,-0.00921024,0.06688772,0.05347461,0.
 07699324\\0.00000027,-0.00000645,-0.00000596,-0.00000091,0.00000074,-0
 .00000049,-0.00000169,-0.00000148,-0.00000058,-0.00000060,-0.00000411,
 -0.00000356,0.00000117,-0.00000124,0.00000141,0.00000004,-0.00000002,-
 0.00000085,0.00000054,-0.00000133,0.00000003,0.00000007,0.00000075,0.0
 0000017,-0.00000022,0.00000063,0.00000052,-0.00000046,0.00000150,0.000
 00019,-0.00000109,0.00000069,-0.00000120,-0.00000018,0.00000133,0.0000
 0078,0.00000044,-0.00000010,0.00000042,-0.00000077,0.00000210,0.000000
 31,-0.00000095,0.00000307,0.00000035,-0.00000042,0.00000208,0.00000074
 ,-0.00000115,0.00000161,-0.00000072,0.00000071,0.00000134,0.00000268,0
 .00000095,0.00000125,0.00000286,0.00000037,0.00000214,0.00000234,0.000
 00107,0.00000043,0.00000261,0.00000187,0.00000122,0.00000221,-0.000000
 73,0.00000056,-0.00000082,0.00000049,-0.00000240,-0.00000238,0.0000002
 4,-0.00000044,-0.00000314,-0.00000318,-0.00000207,-0.00000349,0.000001
 71,-0.00000016,0.00000174,0.00000066,-0.00000079,0.00000229,0.00000050
 ,-0.00000024,0.00000033,0.00000126,-0.00000060,0.00000119\\\@
 Job cpu time:  0 days  7 hours 26 minutes 16.7 seconds.
 File lengths (MBytes):  RWF=  72741 Int=      0 D2E=      0 Chk=     26 Scr=      1
 Normal termination of Gaussian 09 at Sun Apr  6 09:37:15 2014.
