 Entering Gaussian System, Link 0=g09
 Initial command:
 /usr/caen/gaussian-09revc/g09/l1.exe /scratch/avioli_flux/hetanjin/scratch/Gau-23770.inp -scrdir=/scratch/avioli_flux/hetanjin/scratch/
 Entering Link 1 = /usr/caen/gaussian-09revc/g09/l1.exe PID=     23771.
  
 Copyright (c) 1988,1990,1992,1993,1995,1998,2003,2009,2011,
            Gaussian, Inc.  All Rights Reserved.
  
 This is part of the Gaussian(R) 09 program.  It is based on
 the Gaussian(R) 03 system (copyright 2003, Gaussian, Inc.),
 the Gaussian(R) 98 system (copyright 1998, Gaussian, Inc.),
 the Gaussian(R) 94 system (copyright 1995, Gaussian, Inc.),
 the Gaussian 92(TM) system (copyright 1992, Gaussian, Inc.),
 the Gaussian 90(TM) system (copyright 1990, Gaussian, Inc.),
 the Gaussian 88(TM) system (copyright 1988, Gaussian, Inc.),
 the Gaussian 86(TM) system (copyright 1986, Carnegie Mellon
 University), and the Gaussian 82(TM) system (copyright 1983,
 Carnegie Mellon University). Gaussian is a federally registered
 trademark of Gaussian, Inc.
  
 This software contains proprietary and confidential information,
 including trade secrets, belonging to Gaussian, Inc.
  
 This software is provided under written license and may be
 used, copied, transmitted, or stored only in accord with that
 written license.
  
 The following legend is applicable only to US Government
 contracts under FAR:
  
                    RESTRICTED RIGHTS LEGEND
  
 Use, reproduction and disclosure by the US Government is
 subject to restrictions as set forth in subparagraphs (a)
 and (c) of the Commercial Computer Software - Restricted
 Rights clause in FAR 52.227-19.
  
 Gaussian, Inc.
 340 Quinnipiac St., Bldg. 40, Wallingford CT 06492
  
  
 ---------------------------------------------------------------
 Warning -- This program may not be used in any manner that
 competes with the business of Gaussian, Inc. or will provide
 assistance to any competitor of Gaussian, Inc.  The licensee
 of this program is prohibited from giving any competitor of
 Gaussian, Inc. access to this program.  By using this program,
 the user acknowledges that Gaussian, Inc. is engaged in the
 business of creating and licensing software in the field of
 computational chemistry and represents and warrants to the
 licensee that it is not a competitor of Gaussian, Inc. and that
 it will not use this program in any manner prohibited above.
 ---------------------------------------------------------------
  

 Cite this work as:
 Gaussian 09, Revision C.01,
 M. J. Frisch, G. W. Trucks, H. B. Schlegel, G. E. Scuseria, 
 M. A. Robb, J. R. Cheeseman, G. Scalmani, V. Barone, B. Mennucci, 
 G. A. Petersson, H. Nakatsuji, M. Caricato, X. Li, H. P. Hratchian, 
 A. F. Izmaylov, J. Bloino, G. Zheng, J. L. Sonnenberg, M. Hada, 
 M. Ehara, K. Toyota, R. Fukuda, J. Hasegawa, M. Ishida, T. Nakajima, 
 Y. Honda, O. Kitao, H. Nakai, T. Vreven, J. A. Montgomery, Jr., 
 J. E. Peralta, F. Ogliaro, M. Bearpark, J. J. Heyd, E. Brothers, 
 K. N. Kudin, V. N. Staroverov, T. Keith, R. Kobayashi, J. Normand, 
 K. Raghavachari, A. Rendell, J. C. Burant, S. S. Iyengar, J. Tomasi, 
 M. Cossi, N. Rega, J. M. Millam, M. Klene, J. E. Knox, J. B. Cross, 
 V. Bakken, C. Adamo, J. Jaramillo, R. Gomperts, R. E. Stratmann, 
 O. Yazyev, A. J. Austin, R. Cammi, C. Pomelli, J. W. Ochterski, 
 R. L. Martin, K. Morokuma, V. G. Zakrzewski, G. A. Voth, 
 P. Salvador, J. J. Dannenberg, S. Dapprich, A. D. Daniels, 
 O. Farkas, J. B. Foresman, J. V. Ortiz, J. Cioslowski, 
 and D. J. Fox, Gaussian, Inc., Wallingford CT, 2010.
 
 ******************************************
 Gaussian 09:  EM64L-G09RevC.01 23-Sep-2011
                11-Mar-2014 
 ******************************************
 %mem=30GB
 %nprocshared=8
 Will use up to    8 processors via shared memory.
 %chk=C9H18O_26_26.chk
 --------------------------
 #p cbs-qb3 opt=calcfc freq
 --------------------------
 1/10=4,14=-1,18=20,19=15,26=3,38=1/1,3;
 2/9=110,12=2,17=6,18=5,40=1/2;
 3/5=4,6=6,7=700,11=2,16=1,25=1,30=1,71=2,74=-5/1,2,3;
 4//1;
 5/5=2,38=5/2;
 8/6=4,10=90,11=11/1;
 11/6=1,8=1,9=11,15=111,16=1/1,2,10;
 10/6=1,7=6,13=1/2;
 6/7=2,8=2,9=2,10=2,28=1/1;
 7/10=1,18=20,25=1/1,2,3,16;
 1/10=4,14=-1,18=20,19=15/3(2);
 2/9=110/2;
 99//99;
 2/9=110/2;
 3/5=4,6=6,7=700,11=2,16=1,25=1,30=1,71=1,74=-5/1,2,3;
 4/5=5,16=3/1;
 5/5=2,38=5/2;
 7//1,2,3,16;
 1/14=-1,18=20,19=15/3(-5);
 2/9=110/2;
 6/7=2,8=2,9=2,10=2,19=2,28=1/1;
 99/9=1/99;
 Leave Link    1 at Tue Mar 11 10:42:38 2014, MaxMem= 4026531840 cpu:       0.9
 (Enter /usr/caen/gaussian-09revc/g09/l101.exe)
 -----------------------------------------
 C9H18O_26_26 using cbs-qb3 to cal. energy
 -----------------------------------------
 Charge =  0 Multiplicity = 1
 Symbolic Z-Matrix:
 C                    -2.26918  -1.01709  -0.90966 
 H                    -1.9859   -0.94868  -1.96204 
 H                    -3.27679  -0.60926  -0.78891 
 H                    -2.28558  -2.07272  -0.62768 
 C                    -1.25119   1.24012  -0.43477 
 H                    -1.28322   1.31011  -1.52829 
 H                    -2.16012   1.71988  -0.05742 
 C                    -0.00007   1.96648   0.06711 
 H                    -0.00013   2.02374   1.16093 
 H                    -0.00006   3.0005   -0.29132 
 C                     1.25115   1.24018  -0.43465 
 H                     2.16      1.71995  -0.05713 
 H                     1.28333   1.31024  -1.52816 
 C                     1.26697  -0.25003  -0.04171 
 C                     2.26917  -1.01697  -0.90976 
 H                     3.27676  -0.60906  -0.78909 
 H                     2.28569  -2.07261  -0.62779 
 H                     1.98579  -0.94857  -1.9621 
 C                    -1.64205  -0.44225   1.43994 
 H                    -2.69522  -0.18848   1.59219 
 H                    -1.49656  -1.48614   1.72667 
 H                    -1.05363   0.18156   2.11312 
 C                     1.64214  -0.44236   1.43989 
 H                     1.49635  -1.48619   1.72665 
 H                     2.69541  -0.18891   1.592 
 H                     1.05401   0.18169   2.11313 
 C                    -1.26697  -0.25005  -0.04171 
 O                    0.        -0.87565  -0.3566 
 
 NAtoms=     28 NQM=        0 NQMF=       0 NMMI=     28 NMMIF=      0
                NMic=       0 NMicF=      0.
                    Isotopes and Nuclear Properties:
 (Nuclear quadrupole moments (NQMom) in fm**2, nuclear magnetic moments (NMagM)
  in nuclear magnetons)

  Atom         1           2           3           4           5           6           7           8           9          10
 IAtWgt=          12           1           1           1          12           1           1          12           1           1
 AtmWgt=  12.0000000   1.0078250   1.0078250   1.0078250  12.0000000   1.0078250   1.0078250  12.0000000   1.0078250   1.0078250
 NucSpn=           0           1           1           1           0           1           1           0           1           1
 AtZEff=   0.0000000   0.0000000   0.0000000   0.0000000   0.0000000   0.0000000   0.0000000   0.0000000   0.0000000   0.0000000
 NQMom=    0.0000000   0.0000000   0.0000000   0.0000000   0.0000000   0.0000000   0.0000000   0.0000000   0.0000000   0.0000000
 NMagM=    0.0000000   2.7928460   2.7928460   2.7928460   0.0000000   2.7928460   2.7928460   0.0000000   2.7928460   2.7928460

  Atom        11          12          13          14          15          16          17          18          19          20
 IAtWgt=          12           1           1          12          12           1           1           1          12           1
 AtmWgt=  12.0000000   1.0078250   1.0078250  12.0000000  12.0000000   1.0078250   1.0078250   1.0078250  12.0000000   1.0078250
 NucSpn=           0           1           1           0           0           1           1           1           0           1
 AtZEff=   0.0000000   0.0000000   0.0000000   0.0000000   0.0000000   0.0000000   0.0000000   0.0000000   0.0000000   0.0000000
 NQMom=    0.0000000   0.0000000   0.0000000   0.0000000   0.0000000   0.0000000   0.0000000   0.0000000   0.0000000   0.0000000
 NMagM=    0.0000000   2.7928460   2.7928460   0.0000000   0.0000000   2.7928460   2.7928460   2.7928460   0.0000000   2.7928460

  Atom        21          22          23          24          25          26          27          28
 IAtWgt=           1           1          12           1           1           1          12          16
 AtmWgt=   1.0078250   1.0078250  12.0000000   1.0078250   1.0078250   1.0078250  12.0000000  15.9949146
 NucSpn=           1           1           0           1           1           1           0           0
 AtZEff=   0.0000000   0.0000000   0.0000000   0.0000000   0.0000000   0.0000000   0.0000000   0.0000000
 NQMom=    0.0000000   0.0000000   0.0000000   0.0000000   0.0000000   0.0000000   0.0000000   0.0000000
 NMagM=    2.7928460   2.7928460   0.0000000   2.7928460   2.7928460   2.7928460   0.0000000   0.0000000
 Leave Link  101 at Tue Mar 11 10:42:39 2014, MaxMem= 4026531840 cpu:       2.9
 (Enter /usr/caen/gaussian-09revc/g09/l103.exe)

 GradGradGradGradGradGradGradGradGradGradGradGradGradGradGradGradGradGrad
 Berny optimization.
 Initialization pass.
                           ----------------------------
                           !    Initial Parameters    !
                           ! (Angstroms and Degrees)  !
 --------------------------                            --------------------------
 ! Name  Definition              Value          Derivative Info.                !
 --------------------------------------------------------------------------------
 ! R1    R(1,2)                  1.092          calculate D2E/DX2 analytically  !
 ! R2    R(1,3)                  1.0937         calculate D2E/DX2 analytically  !
 ! R3    R(1,4)                  1.0928         calculate D2E/DX2 analytically  !
 ! R4    R(1,27)                 1.5317         calculate D2E/DX2 analytically  !
 ! R5    R(5,6)                  1.0962         calculate D2E/DX2 analytically  !
 ! R6    R(5,7)                  1.0949         calculate D2E/DX2 analytically  !
 ! R7    R(5,8)                  1.5313         calculate D2E/DX2 analytically  !
 ! R8    R(5,27)                 1.5412         calculate D2E/DX2 analytically  !
 ! R9    R(8,9)                  1.0953         calculate D2E/DX2 analytically  !
 ! R10   R(8,10)                 1.0944         calculate D2E/DX2 analytically  !
 ! R11   R(8,11)                 1.5313         calculate D2E/DX2 analytically  !
 ! R12   R(11,12)                1.0949         calculate D2E/DX2 analytically  !
 ! R13   R(11,13)                1.0962         calculate D2E/DX2 analytically  !
 ! R14   R(11,14)                1.5412         calculate D2E/DX2 analytically  !
 ! R15   R(14,15)                1.5317         calculate D2E/DX2 analytically  !
 ! R16   R(14,23)                1.5404         calculate D2E/DX2 analytically  !
 ! R17   R(14,28)                1.4477         calculate D2E/DX2 analytically  !
 ! R18   R(15,16)                1.0937         calculate D2E/DX2 analytically  !
 ! R19   R(15,17)                1.0928         calculate D2E/DX2 analytically  !
 ! R20   R(15,18)                1.092          calculate D2E/DX2 analytically  !
 ! R21   R(19,20)                1.094          calculate D2E/DX2 analytically  !
 ! R22   R(19,21)                1.0923         calculate D2E/DX2 analytically  !
 ! R23   R(19,22)                1.0902         calculate D2E/DX2 analytically  !
 ! R24   R(19,27)                1.5404         calculate D2E/DX2 analytically  !
 ! R25   R(23,24)                1.0923         calculate D2E/DX2 analytically  !
 ! R26   R(23,25)                1.094          calculate D2E/DX2 analytically  !
 ! R27   R(23,26)                1.0902         calculate D2E/DX2 analytically  !
 ! R28   R(27,28)                1.4477         calculate D2E/DX2 analytically  !
 ! A1    A(2,1,3)              108.7866         calculate D2E/DX2 analytically  !
 ! A2    A(2,1,4)              108.2462         calculate D2E/DX2 analytically  !
 ! A3    A(2,1,27)             110.181          calculate D2E/DX2 analytically  !
 ! A4    A(3,1,4)              108.5361         calculate D2E/DX2 analytically  !
 ! A5    A(3,1,27)             110.7021         calculate D2E/DX2 analytically  !
 ! A6    A(4,1,27)             110.3254         calculate D2E/DX2 analytically  !
 ! A7    A(6,5,7)              106.9525         calculate D2E/DX2 analytically  !
 ! A8    A(6,5,8)              108.6949         calculate D2E/DX2 analytically  !
 ! A9    A(6,5,27)             108.4111         calculate D2E/DX2 analytically  !
 ! A10   A(7,5,8)              110.9455         calculate D2E/DX2 analytically  !
 ! A11   A(7,5,27)             109.1037         calculate D2E/DX2 analytically  !
 ! A12   A(8,5,27)             112.5454         calculate D2E/DX2 analytically  !
 ! A13   A(5,8,9)              110.6129         calculate D2E/DX2 analytically  !
 ! A14   A(5,8,10)             109.9284         calculate D2E/DX2 analytically  !
 ! A15   A(5,8,11)             109.5866         calculate D2E/DX2 analytically  !
 ! A16   A(9,8,10)             106.1216         calculate D2E/DX2 analytically  !
 ! A17   A(9,8,11)             110.6138         calculate D2E/DX2 analytically  !
 ! A18   A(10,8,11)            109.9273         calculate D2E/DX2 analytically  !
 ! A19   A(8,11,12)            110.9441         calculate D2E/DX2 analytically  !
 ! A20   A(8,11,13)            108.6952         calculate D2E/DX2 analytically  !
 ! A21   A(8,11,14)            112.5481         calculate D2E/DX2 analytically  !
 ! A22   A(12,11,13)           106.9529         calculate D2E/DX2 analytically  !
 ! A23   A(12,11,14)           109.1031         calculate D2E/DX2 analytically  !
 ! A24   A(13,11,14)           108.4097         calculate D2E/DX2 analytically  !
 ! A25   A(11,14,15)           110.2655         calculate D2E/DX2 analytically  !
 ! A26   A(11,14,23)           111.6193         calculate D2E/DX2 analytically  !
 ! A27   A(11,14,28)           110.696          calculate D2E/DX2 analytically  !
 ! A28   A(15,14,23)           108.8569         calculate D2E/DX2 analytically  !
 ! A29   A(15,14,28)           103.4724         calculate D2E/DX2 analytically  !
 ! A30   A(23,14,28)           111.6173         calculate D2E/DX2 analytically  !
 ! A31   A(14,15,16)           110.7024         calculate D2E/DX2 analytically  !
 ! A32   A(14,15,17)           110.3259         calculate D2E/DX2 analytically  !
 ! A33   A(14,15,18)           110.1808         calculate D2E/DX2 analytically  !
 ! A34   A(16,15,17)           108.5359         calculate D2E/DX2 analytically  !
 ! A35   A(16,15,18)           108.7866         calculate D2E/DX2 analytically  !
 ! A36   A(17,15,18)           108.2458         calculate D2E/DX2 analytically  !
 ! A37   A(20,19,21)           108.2639         calculate D2E/DX2 analytically  !
 ! A38   A(20,19,22)           107.5138         calculate D2E/DX2 analytically  !
 ! A39   A(20,19,27)           109.8363         calculate D2E/DX2 analytically  !
 ! A40   A(21,19,22)           108.2317         calculate D2E/DX2 analytically  !
 ! A41   A(21,19,27)           109.8345         calculate D2E/DX2 analytically  !
 ! A42   A(22,19,27)           113.023          calculate D2E/DX2 analytically  !
 ! A43   A(14,23,24)           109.8353         calculate D2E/DX2 analytically  !
 ! A44   A(14,23,25)           109.8345         calculate D2E/DX2 analytically  !
 ! A45   A(14,23,26)           113.0226         calculate D2E/DX2 analytically  !
 ! A46   A(24,23,25)           108.2648         calculate D2E/DX2 analytically  !
 ! A47   A(24,23,26)           108.2333         calculate D2E/DX2 analytically  !
 ! A48   A(25,23,26)           107.5128         calculate D2E/DX2 analytically  !
 ! A49   A(1,27,5)             110.2655         calculate D2E/DX2 analytically  !
 ! A50   A(1,27,19)            108.8584         calculate D2E/DX2 analytically  !
 ! A51   A(1,27,28)            103.472          calculate D2E/DX2 analytically  !
 ! A52   A(5,27,19)            111.6191         calculate D2E/DX2 analytically  !
 ! A53   A(5,27,28)            110.6955         calculate D2E/DX2 analytically  !
 ! A54   A(19,27,28)           111.6169         calculate D2E/DX2 analytically  !
 ! A55   A(14,28,27)           122.1315         calculate D2E/DX2 analytically  !
 ! D1    D(2,1,27,5)            60.879          calculate D2E/DX2 analytically  !
 ! D2    D(2,1,27,19)         -176.3596         calculate D2E/DX2 analytically  !
 ! D3    D(2,1,27,28)          -57.5345         calculate D2E/DX2 analytically  !
 ! D4    D(3,1,27,5)           -59.4984         calculate D2E/DX2 analytically  !
 ! D5    D(3,1,27,19)           63.2629         calculate D2E/DX2 analytically  !
 ! D6    D(3,1,27,28)         -177.912          calculate D2E/DX2 analytically  !
 ! D7    D(4,1,27,5)          -179.657          calculate D2E/DX2 analytically  !
 ! D8    D(4,1,27,19)          -56.8957         calculate D2E/DX2 analytically  !
 ! D9    D(4,1,27,28)           61.9295         calculate D2E/DX2 analytically  !
 ! D10   D(6,5,8,9)            172.9987         calculate D2E/DX2 analytically  !
 ! D11   D(6,5,8,10)            56.1308         calculate D2E/DX2 analytically  !
 ! D12   D(6,5,8,11)           -64.787          calculate D2E/DX2 analytically  !
 ! D13   D(7,5,8,9)             55.6681         calculate D2E/DX2 analytically  !
 ! D14   D(7,5,8,10)           -61.1998         calculate D2E/DX2 analytically  !
 ! D15   D(7,5,8,11)           177.8824         calculate D2E/DX2 analytically  !
 ! D16   D(27,5,8,9)           -66.9025         calculate D2E/DX2 analytically  !
 ! D17   D(27,5,8,10)          176.2296         calculate D2E/DX2 analytically  !
 ! D18   D(27,5,8,11)           55.3118         calculate D2E/DX2 analytically  !
 ! D19   D(6,5,27,1)           -41.9672         calculate D2E/DX2 analytically  !
 ! D20   D(6,5,27,19)         -163.0959         calculate D2E/DX2 analytically  !
 ! D21   D(6,5,27,28)           71.9213         calculate D2E/DX2 analytically  !
 ! D22   D(7,5,27,1)            74.1692         calculate D2E/DX2 analytically  !
 ! D23   D(7,5,27,19)          -46.9595         calculate D2E/DX2 analytically  !
 ! D24   D(7,5,27,28)         -171.9422         calculate D2E/DX2 analytically  !
 ! D25   D(8,5,27,1)          -162.2298         calculate D2E/DX2 analytically  !
 ! D26   D(8,5,27,19)           76.6415         calculate D2E/DX2 analytically  !
 ! D27   D(8,5,27,28)          -48.3412         calculate D2E/DX2 analytically  !
 ! D28   D(5,8,11,12)         -177.8781         calculate D2E/DX2 analytically  !
 ! D29   D(5,8,11,13)           64.7915         calculate D2E/DX2 analytically  !
 ! D30   D(5,8,11,14)          -55.3073         calculate D2E/DX2 analytically  !
 ! D31   D(9,8,11,12)          -55.6643         calculate D2E/DX2 analytically  !
 ! D32   D(9,8,11,13)         -172.9947         calculate D2E/DX2 analytically  !
 ! D33   D(9,8,11,14)           66.9064         calculate D2E/DX2 analytically  !
 ! D34   D(10,8,11,12)          61.2034         calculate D2E/DX2 analytically  !
 ! D35   D(10,8,11,13)         -56.127          calculate D2E/DX2 analytically  !
 ! D36   D(10,8,11,14)        -176.2258         calculate D2E/DX2 analytically  !
 ! D37   D(8,11,14,15)         162.2208         calculate D2E/DX2 analytically  !
 ! D38   D(8,11,14,23)         -76.6523         calculate D2E/DX2 analytically  !
 ! D39   D(8,11,14,28)          48.3313         calculate D2E/DX2 analytically  !
 ! D40   D(12,11,14,15)        -74.1787         calculate D2E/DX2 analytically  !
 ! D41   D(12,11,14,23)         46.9482         calculate D2E/DX2 analytically  !
 ! D42   D(12,11,14,28)        171.9319         calculate D2E/DX2 analytically  !
 ! D43   D(13,11,14,15)         41.9571         calculate D2E/DX2 analytically  !
 ! D44   D(13,11,14,23)        163.084          calculate D2E/DX2 analytically  !
 ! D45   D(13,11,14,28)        -71.9323         calculate D2E/DX2 analytically  !
 ! D46   D(11,14,15,16)         59.4924         calculate D2E/DX2 analytically  !
 ! D47   D(11,14,15,17)        179.6512         calculate D2E/DX2 analytically  !
 ! D48   D(11,14,15,18)        -60.8851         calculate D2E/DX2 analytically  !
 ! D49   D(23,14,15,16)        -63.2681         calculate D2E/DX2 analytically  !
 ! D50   D(23,14,15,17)         56.8907         calculate D2E/DX2 analytically  !
 ! D51   D(23,14,15,18)        176.3544         calculate D2E/DX2 analytically  !
 ! D52   D(28,14,15,16)        177.9068         calculate D2E/DX2 analytically  !
 ! D53   D(28,14,15,17)        -61.9343         calculate D2E/DX2 analytically  !
 ! D54   D(28,14,15,18)         57.5293         calculate D2E/DX2 analytically  !
 ! D55   D(11,14,23,24)        171.3538         calculate D2E/DX2 analytically  !
 ! D56   D(11,14,23,25)        -69.6797         calculate D2E/DX2 analytically  !
 ! D57   D(11,14,23,26)         50.3771         calculate D2E/DX2 analytically  !
 ! D58   D(15,14,23,24)        -66.7036         calculate D2E/DX2 analytically  !
 ! D59   D(15,14,23,25)         52.2628         calculate D2E/DX2 analytically  !
 ! D60   D(15,14,23,26)        172.3196         calculate D2E/DX2 analytically  !
 ! D61   D(28,14,23,24)         46.8845         calculate D2E/DX2 analytically  !
 ! D62   D(28,14,23,25)        165.851          calculate D2E/DX2 analytically  !
 ! D63   D(28,14,23,26)        -74.0922         calculate D2E/DX2 analytically  !
 ! D64   D(11,14,28,27)        -45.0839         calculate D2E/DX2 analytically  !
 ! D65   D(15,14,28,27)       -163.1992         calculate D2E/DX2 analytically  !
 ! D66   D(23,14,28,27)         79.9009         calculate D2E/DX2 analytically  !
 ! D67   D(20,19,27,1)         -52.2835         calculate D2E/DX2 analytically  !
 ! D68   D(20,19,27,5)          69.66           calculate D2E/DX2 analytically  !
 ! D69   D(20,19,27,28)       -165.8718         calculate D2E/DX2 analytically  !
 ! D70   D(21,19,27,1)          66.6826         calculate D2E/DX2 analytically  !
 ! D71   D(21,19,27,5)        -171.374          calculate D2E/DX2 analytically  !
 ! D72   D(21,19,27,28)        -46.9057         calculate D2E/DX2 analytically  !
 ! D73   D(22,19,27,1)        -172.343          calculate D2E/DX2 analytically  !
 ! D74   D(22,19,27,5)         -50.3996         calculate D2E/DX2 analytically  !
 ! D75   D(22,19,27,28)         74.0686         calculate D2E/DX2 analytically  !
 ! D76   D(1,27,28,14)         163.204          calculate D2E/DX2 analytically  !
 ! D77   D(5,27,28,14)          45.0891         calculate D2E/DX2 analytically  !
 ! D78   D(19,27,28,14)        -79.8949         calculate D2E/DX2 analytically  !
 --------------------------------------------------------------------------------
 Trust Radius=3.00D-01 FncErr=1.00D-07 GrdErr=1.00D-06
 Number of steps in this run=    168 maximum allowed number of steps=    168.
 GradGradGradGradGradGradGradGradGradGradGradGradGradGradGradGradGradGrad

 Leave Link  103 at Tue Mar 11 10:42:39 2014, MaxMem= 4026531840 cpu:       0.1
 (Enter /usr/caen/gaussian-09revc/g09/l202.exe)
                          Input orientation:                          
 ---------------------------------------------------------------------
 Center     Atomic      Atomic             Coordinates (Angstroms)
 Number     Number       Type             X           Y           Z
 ---------------------------------------------------------------------
      1          6           0       -2.269183   -1.017092   -0.909664
      2          1           0       -1.985895   -0.948684   -1.962037
      3          1           0       -3.276792   -0.609259   -0.788914
      4          1           0       -2.285584   -2.072723   -0.627675
      5          6           0       -1.251189    1.240124   -0.434768
      6          1           0       -1.283216    1.310111   -1.528286
      7          1           0       -2.160115    1.719878   -0.057416
      8          6           0       -0.000066    1.966482    0.067107
      9          1           0       -0.000131    2.023743    1.160927
     10          1           0       -0.000061    3.000496   -0.291322
     11          6           0        1.251149    1.240181   -0.434649
     12          1           0        2.159998    1.719953   -0.057132
     13          1           0        1.283327    1.310236   -1.528155
     14          6           0        1.266971   -0.250031   -0.041711
     15          6           0        2.269173   -1.016974   -0.909755
     16          1           0        3.276760   -0.609064   -0.789086
     17          1           0        2.285687   -2.072611   -0.627793
     18          1           0        1.985790   -0.948572   -1.962103
     19          6           0       -1.642051   -0.442253    1.439936
     20          1           0       -2.695219   -0.188482    1.592185
     21          1           0       -1.496562   -1.486139    1.726669
     22          1           0       -1.053631    0.181561    2.113118
     23          6           0        1.642144   -0.442356    1.439887
     24          1           0        1.496351   -1.486189    1.726648
     25          1           0        2.695413   -0.188911    1.591996
     26          1           0        1.054014    0.181688    2.113127
     27          6           0       -1.266966   -0.250048   -0.041707
     28          8           0       -0.000003   -0.875653   -0.356602
 ---------------------------------------------------------------------
                    Distance matrix (angstroms):
                    1          2          3          4          5
     1  C    0.000000
     2  H    1.091980   0.000000
     3  H    1.093702   1.777032   0.000000
     4  H    1.092769   1.770254   1.774885   0.000000
     5  C    2.521282   2.768253   2.765629   3.475937   0.000000
     6  H    2.602056   2.405006   2.864437   3.641347   1.096223
     7  H    2.868663   3.283163   2.684574   3.837286   1.094854
     8  C    3.873588   4.069292   4.254897   4.692706   1.531269
     9  H    4.322340   4.746734   4.633690   5.020301   2.173809
    10  H    4.655349   4.725553   4.900499   5.574433   2.164442
    11  C    4.208760   4.195533   4.903895   4.849853   2.502338
    12  H    5.275971   5.285709   5.959817   5.871381   3.465406
    13  H    4.291773   3.997347   5.002562   4.999240   2.761192
    14  C    3.721036   3.841472   4.618781   4.035617   2.952319
    15  C    4.538356   4.383784   5.562244   4.684014   4.208688
    16  H    5.562240   5.402471   6.553552   5.753957   4.903811
    17  H    4.684059   4.614091   5.754001   4.571271   4.849842
    18  H    4.383733   3.971685   5.402432   4.614006   4.195375
    19  C    2.498871   3.456605   2.769123   2.710642   2.549055
    20  H    2.669710   3.703180   2.486949   2.940399   2.869613
    21  H    2.786970   3.759635   3.204106   2.551386   3.487768
    22  H    3.471534   4.330526   3.740271   3.756521   2.766100
    23  C    4.598825   4.999212   5.402901   4.728632   3.836202
    24  H    4.620545   5.101112   5.466256   4.493316   4.433224
    25  H    5.620623   5.926470   6.443032   5.769404   4.661071
    26  H    4.649514   5.208239   5.272885   4.873118   3.595277
    27  C    1.531713   2.166245   2.174109   2.168660   1.541220
    28  O    2.339885   2.554706   3.315902   2.594289   2.459286
                    6          7          8          9         10
     6  H    0.000000
     7  H    1.760772   0.000000
     8  C    2.150018   2.177643   0.000000
     9  H    3.063894   2.498444   1.095318   0.000000
    10  H    2.456414   2.522009   1.094375   1.750164   0.000000
    11  C    2.761148   3.465420   1.531278   2.173829   2.164435
    12  H    3.766694   4.320113   2.177634   2.498422   2.522001
    13  H    2.566543   3.766719   2.150027   3.063906   2.456383
    14  C    3.338773   3.952936   2.555417   2.867391   3.497657
    15  C    4.291547   5.275930   3.873592   4.322433   4.655314
    16  H    5.002303   5.959775   4.254890   4.633815   4.900433
    17  H    4.999076   5.871410   4.692742   5.020418   5.574430
    18  H    3.997030   5.285545   4.069258   4.746773   4.725490
    19  C    3.465528   2.680534   3.222232   2.975716   4.188783
    20  H    3.738566   2.578635   3.772742   3.513321   4.580508
    21  H    4.296424   3.728513   4.112692   3.857284   5.142149
    22  H    3.819183   2.881309   2.912405   2.325976   3.851978
    23  C    4.520943   4.623240   3.222403   2.975992   4.188932
    24  H    5.112718   5.179913   4.112697   3.857346   5.142159
    25  H    5.273776   5.471763   3.773144   3.513917   4.580915
    26  H    4.471674   4.172279   2.912520   2.326171   3.852029
    27  C    2.155059   2.163000   2.555363   2.867285   3.497627
    28  O    2.792319   3.390041   2.873545   3.272521   3.876699
                   11         12         13         14         15
    11  C    0.000000
    12  H    1.094855   0.000000
    13  H    1.096220   1.760775   0.000000
    14  C    1.541228   2.163001   2.155044   0.000000
    15  C    2.521279   2.868737   2.601964   1.531702   0.000000
    16  H    2.765580   2.684629   2.864212   2.174103   1.093702
    17  H    3.475941   3.837316   3.641295   2.168657   1.092769
    18  H    2.768294   3.283335   2.404990   2.166233   1.091980
    19  C    3.836047   4.622978   4.520909   3.270265   4.598807
    20  H    4.660789   5.471335   5.273662   4.286298   5.620613
    21  H    4.433287   5.179904   5.112864   3.506030   4.620780
    22  H    3.594969   4.171816   4.471482   3.196053   4.649223
    23  C    2.549057   2.680451   3.465487   1.540414   2.498833
    24  H    3.487753   3.728491   4.296407   2.169745   2.787120
    25  H    2.869755   2.578770   3.738552   2.170986   2.669481
    26  H    2.765941   2.880882   3.819050   2.207954   3.471486
    27  C    2.952302   3.952875   3.338863   2.533937   3.721016
    28  O    2.459314   3.390053   2.792415   1.447682   2.339895
                   16         17         18         19         20
    16  H    0.000000
    17  H    1.774883   0.000000
    18  H    1.777031   1.770250   0.000000
    19  C    5.402876   4.728710   4.999146   0.000000
    20  H    6.442971   5.769547   5.926428   1.093957   0.000000
    21  H    5.466524   4.493645   5.101254   1.092282   1.771660
    22  H    5.272586   4.872877   5.207947   1.090209   1.761566
    23  C    2.769130   2.710568   3.456571   3.284195   4.347455
    24  H    3.204391   2.551536   3.759716   3.319875   4.389918
    25  H    2.486774   2.940011   3.703008   4.347516   5.390632
    26  H    3.740151   3.756531   4.330496   2.848027   3.803308
    27  C    4.618757   4.035663   3.841390   1.540421   2.171014
    28  O    3.315914   2.594346   2.554667   2.472186   3.396198
                   21         22         23         24         25
    21  H    0.000000
    22  H    1.768263   0.000000
    23  C    3.320121   2.847756   0.000000
    24  H    2.992913   3.071345   1.092280   0.000000
    25  H    4.390170   3.803176   1.093959   1.771669   0.000000
    26  H    3.071878   2.107645   1.090220   1.768288   1.761565
    27  C    2.169744   2.207956   3.270325   3.505859   4.286394
    28  O    2.636740   2.885715   2.472199   2.636619   3.396162
                   26         27         28
    26  H    0.000000
    27  C    3.196350   0.000000
    28  O    2.885911   1.447666   0.000000
 Stoichiometry    C9H18O
 Framework group  C1[X(C9H18O)]
 Deg. of freedom    78
 Full point group                 C1      NOp   1
 Largest Abelian subgroup         C1      NOp   1
 Largest concise Abelian subgroup C1      NOp   1
                         Standard orientation:                         
 ---------------------------------------------------------------------
 Center     Atomic      Atomic             Coordinates (Angstroms)
 Number     Number       Type             X           Y           Z
 ---------------------------------------------------------------------
      1          6           0       -2.269183   -1.017092   -0.909664
      2          1           0       -1.985895   -0.948684   -1.962037
      3          1           0       -3.276792   -0.609259   -0.788914
      4          1           0       -2.285584   -2.072723   -0.627675
      5          6           0       -1.251189    1.240124   -0.434768
      6          1           0       -1.283216    1.310111   -1.528286
      7          1           0       -2.160115    1.719878   -0.057416
      8          6           0       -0.000066    1.966482    0.067107
      9          1           0       -0.000131    2.023743    1.160927
     10          1           0       -0.000061    3.000496   -0.291322
     11          6           0        1.251149    1.240181   -0.434649
     12          1           0        2.159998    1.719953   -0.057132
     13          1           0        1.283327    1.310236   -1.528155
     14          6           0        1.266971   -0.250031   -0.041711
     15          6           0        2.269173   -1.016974   -0.909755
     16          1           0        3.276760   -0.609064   -0.789086
     17          1           0        2.285687   -2.072611   -0.627793
     18          1           0        1.985790   -0.948572   -1.962103
     19          6           0       -1.642051   -0.442253    1.439936
     20          1           0       -2.695219   -0.188482    1.592185
     21          1           0       -1.496562   -1.486139    1.726669
     22          1           0       -1.053631    0.181561    2.113118
     23          6           0        1.642144   -0.442356    1.439887
     24          1           0        1.496351   -1.486189    1.726648
     25          1           0        2.695413   -0.188911    1.591996
     26          1           0        1.054014    0.181688    2.113127
     27          6           0       -1.266966   -0.250048   -0.041707
     28          8           0       -0.000003   -0.875653   -0.356602
 ---------------------------------------------------------------------
 Rotational constants (GHZ):      1.8219684      1.1206262      1.0034026
 Leave Link  202 at Tue Mar 11 10:42:40 2014, MaxMem= 4026531840 cpu:       0.2
 (Enter /usr/caen/gaussian-09revc/g09/l301.exe)
 Standard basis: 6-311G(2d,d,p) (5D, 7F)
 Ernie: Thresh=  0.10000D-02 Tol=  0.10000D-05 Strict=F.
 There are   288 symmetry adapted basis functions of A   symmetry.
 Integral buffers will be    131072 words long.
 Raffenetti 2 integral format.
 Two-electron integral symmetry is turned on.
   288 basis functions,   464 primitive gaussians,   298 cartesian basis functions
    40 alpha electrons       40 beta electrons
       nuclear repulsion energy       615.2302392334 Hartrees.
 IExCor=  402 DFT=T Ex+Corr=B3LYP ExCW=0 ScaHFX=  0.200000
 ScaDFX=  0.800000  0.720000  1.000000  0.810000 ScalE2=  1.000000  1.000000
 IRadAn=      0 IRanWt=     -1 IRanGd=            0 ICorTp=0
 NAtoms=   28 NActive=   28 NUniq=   28 SFac= 1.00D+00 NAtFMM=   60 NAOKFM=F Big=F
 Leave Link  301 at Tue Mar 11 10:42:40 2014, MaxMem= 4026531840 cpu:       0.9
 (Enter /usr/caen/gaussian-09revc/g09/l302.exe)
 NPDir=0 NMtPBC=     1 NCelOv=     1 NCel=       1 NClECP=     1 NCelD=      1
         NCelK=      1 NCelE2=     1 NClLst=     1 CellRange=     0.0.
 One-electron integrals computed using PRISM.
 NBasis=   288 RedAO= T  NBF=   288
 NBsUse=   288 1.00D-06 NBFU=   288
 Precomputing XC quadrature grid using
 IXCGrd= 2 IRadAn=           0 IRanWt=          -1 IRanGd=           0 AccXCQ= 0.00D+00.
 NRdTot=    1775 NPtTot=      224418 NUsed=      237220 NTot=      237252
 NSgBfM=   298   298   298   298   298 NAtAll=    28    28.
 Leave Link  302 at Tue Mar 11 10:42:41 2014, MaxMem= 4026531840 cpu:       3.8
 (Enter /usr/caen/gaussian-09revc/g09/l303.exe)
 DipDrv:  MaxL=1.
 Leave Link  303 at Tue Mar 11 10:42:41 2014, MaxMem= 4026531840 cpu:       1.4
 (Enter /usr/caen/gaussian-09revc/g09/l401.exe)
 Harris functional with IExCor=  402 diagonalized for initial guess.
 ExpMin= 1.03D-01 ExpMax= 8.59D+03 ExpMxC= 1.30D+03 IAcc=1 IRadAn=         1 AccDes= 0.00D+00
 HarFok:  IExCor=  402 AccDes= 0.00D+00 IRadAn=         1 IDoV= 1
 ScaDFX=  1.000000  1.000000  1.000000  1.000000
 FoFCou: FMM=F IPFlag=           0 FMFlag=      100000 FMFlg1=           0
         NFxFlg=           0 DoJE=T BraDBF=F KetDBF=T FulRan=T
         Omega=  0.000000  0.000000  1.000000  0.000000  0.000000 ICntrl=     500 IOpCl=  0
         NMat0=    1 NMatS0=    1 NMatT0=    0 NMatD0=    1 NMtDS0=    0 NMtDT0=    0
         I1Cent=           4 NGrid=           0.
 Petite list used in FoFCou.
 Harris En= -429.233893113781    
 Initial guess orbital symmetries:
       Occupied  (A) (A) (A) (A) (A) (A) (A) (A) (A) (A) (A) (A)
                 (A) (A) (A) (A) (A) (A) (A) (A) (A) (A) (A) (A)
                 (A) (A) (A) (A) (A) (A) (A) (A) (A) (A) (A) (A)
                 (A) (A) (A) (A)
       Virtual   (A) (A) (A) (A) (A) (A) (A) (A) (A) (A) (A) (A)
                 (A) (A) (A) (A) (A) (A) (A) (A) (A) (A) (A) (A)
                 (A) (A) (A) (A) (A) (A) (A) (A) (A) (A) (A) (A)
                 (A) (A) (A) (A) (A) (A) (A) (A) (A) (A) (A) (A)
                 (A) (A) (A) (A) (A) (A) (A) (A) (A) (A) (A) (A)
                 (A) (A) (A) (A) (A) (A) (A) (A) (A) (A) (A) (A)
                 (A) (A) (A) (A) (A) (A) (A) (A) (A) (A) (A) (A)
                 (A) (A) (A) (A) (A) (A) (A) (A) (A) (A) (A) (A)
                 (A) (A) (A) (A) (A) (A) (A) (A) (A) (A) (A) (A)
                 (A) (A) (A) (A) (A) (A) (A) (A) (A) (A) (A) (A)
                 (A) (A) (A) (A) (A) (A) (A) (A) (A) (A) (A) (A)
                 (A) (A) (A) (A) (A) (A) (A) (A) (A) (A) (A) (A)
                 (A) (A) (A) (A) (A) (A) (A) (A) (A) (A) (A) (A)
                 (A) (A) (A) (A) (A) (A) (A) (A) (A) (A) (A) (A)
                 (A) (A) (A) (A) (A) (A) (A) (A) (A) (A) (A) (A)
                 (A) (A) (A) (A) (A) (A) (A) (A) (A) (A) (A) (A)
                 (A) (A) (A) (A) (A) (A) (A) (A) (A) (A) (A) (A)
                 (A) (A) (A) (A) (A) (A) (A) (A) (A) (A) (A) (A)
                 (A) (A) (A) (A) (A) (A) (A) (A) (A) (A) (A) (A)
                 (A) (A) (A) (A) (A) (A) (A) (A) (A) (A) (A) (A)
                 (A) (A) (A) (A) (A) (A) (A) (A)
 The electronic state of the initial guess is 1-A.
 Leave Link  401 at Tue Mar 11 10:42:43 2014, MaxMem= 4026531840 cpu:       9.3
 (Enter /usr/caen/gaussian-09revc/g09/l502.exe)
 Closed shell SCF:
 Requested convergence on RMS density matrix=1.00D-08 within 128 cycles.
 Requested convergence on MAX density matrix=1.00D-06.
 Requested convergence on             energy=1.00D-06.
 No special actions if energy rises.
 Using DIIS extrapolation, IDIIS=  1040.
 Integral symmetry usage will be decided dynamically.
       236955 words used for storage of precomputed grid.
 Keep R1 ints in memory in canonical form, NReq=1006309541.
 IEnd=      526151 IEndB=      526151 NGot=  4026531840 MDV=  3033693328
 LenX=  3033693328 LenY=  3033604083
 Symmetry not used in FoFDir.
 MinBra= 0 MaxBra= 2 Meth= 1.
 IRaf=       0 NMat=   1 IRICut=       1 DoRegI=T DoRafI=F ISym2E= 0 JSym2E=0.
 Integral accuracy reduced to 1.0D-05 until final iterations.

 Cycle   1  Pass 0  IDiag  1:
 E= -428.756849918273    
 DIIS: error= 4.21D-02 at cycle   1 NSaved=   1.
 NSaved= 1 IEnMin= 1 EnMin= -428.756849918273     IErMin= 1 ErrMin= 4.21D-02
 ErrMax= 4.21D-02 EMaxC= 1.00D-01 BMatC= 4.07D-01 BMatP= 4.07D-01
 IDIUse=3 WtCom= 5.79D-01 WtEn= 4.21D-01
 Coeff-Com:  0.100D+01
 Coeff-En:   0.100D+01
 Coeff:      0.100D+01
 Gap=     0.204 Goal=   None    Shift=    0.000
 GapD=    0.204 DampG=1.000 DampE=0.500 DampFc=0.5000 IDamp=-1.
 Damping current iteration by 5.00D-01
 RMSDP=3.99D-03 MaxDP=1.23D-01              OVMax= 1.77D-01

 Cycle   2  Pass 0  IDiag  1:
 E= -428.925999380042     Delta-E=       -0.169149461769 Rises=F Damp=T
 DIIS: error= 7.74D-03 at cycle   2 NSaved=   2.
 NSaved= 2 IEnMin= 2 EnMin= -428.925999380042     IErMin= 2 ErrMin= 7.74D-03
 ErrMax= 7.74D-03 EMaxC= 1.00D-01 BMatC= 1.83D-02 BMatP= 4.07D-01
 IDIUse=3 WtCom= 9.23D-01 WtEn= 7.74D-02
 Coeff-Com:  0.685D-01 0.931D+00
 Coeff-En:   0.152D+00 0.848D+00
 Coeff:      0.749D-01 0.925D+00
 Gap=     0.301 Goal=   None    Shift=    0.000
 RMSDP=8.99D-04 MaxDP=2.63D-02 DE=-1.69D-01 OVMax= 1.07D-01

 Cycle   3  Pass 0  IDiag  1:
 E= -429.143271074295     Delta-E=       -0.217271694253 Rises=F Damp=F
 DIIS: error= 5.39D-03 at cycle   3 NSaved=   3.
 NSaved= 3 IEnMin= 3 EnMin= -429.143271074295     IErMin= 3 ErrMin= 5.39D-03
 ErrMax= 5.39D-03 EMaxC= 1.00D-01 BMatC= 6.26D-03 BMatP= 1.83D-02
 IDIUse=3 WtCom= 9.46D-01 WtEn= 5.39D-02
 Coeff-Com: -0.789D-02 0.332D+00 0.676D+00
 Coeff-En:   0.000D+00 0.000D+00 0.100D+01
 Coeff:     -0.747D-02 0.314D+00 0.693D+00
 Gap=     0.270 Goal=   None    Shift=    0.000
 RMSDP=4.97D-04 MaxDP=1.21D-02 DE=-2.17D-01 OVMax= 2.47D-02

 Cycle   4  Pass 0  IDiag  1:
 E= -429.146548813761     Delta-E=       -0.003277739466 Rises=F Damp=F
 DIIS: error= 3.89D-03 at cycle   4 NSaved=   4.
 NSaved= 4 IEnMin= 4 EnMin= -429.146548813761     IErMin= 4 ErrMin= 3.89D-03
 ErrMax= 3.89D-03 EMaxC= 1.00D-01 BMatC= 2.92D-03 BMatP= 6.26D-03
 IDIUse=3 WtCom= 9.61D-01 WtEn= 3.89D-02
 Coeff-Com: -0.125D-01 0.853D-01 0.420D+00 0.508D+00
 Coeff-En:   0.000D+00 0.000D+00 0.304D+00 0.696D+00
 Coeff:     -0.120D-01 0.820D-01 0.415D+00 0.515D+00
 Gap=     0.283 Goal=   None    Shift=    0.000
 RMSDP=2.03D-04 MaxDP=7.27D-03 DE=-3.28D-03 OVMax= 1.26D-02

 Cycle   5  Pass 0  IDiag  1:
 E= -429.148829603807     Delta-E=       -0.002280790046 Rises=F Damp=F
 DIIS: error= 7.71D-04 at cycle   5 NSaved=   5.
 NSaved= 5 IEnMin= 5 EnMin= -429.148829603807     IErMin= 5 ErrMin= 7.71D-04
 ErrMax= 7.71D-04 EMaxC= 1.00D-01 BMatC= 1.09D-04 BMatP= 2.92D-03
 IDIUse=3 WtCom= 9.92D-01 WtEn= 7.71D-03
 Coeff-Com: -0.504D-02 0.168D-01 0.152D+00 0.247D+00 0.589D+00
 Coeff-En:   0.000D+00 0.000D+00 0.000D+00 0.000D+00 0.100D+01
 Coeff:     -0.500D-02 0.167D-01 0.151D+00 0.245D+00 0.592D+00
 Gap=     0.281 Goal=   None    Shift=    0.000
 RMSDP=3.82D-05 MaxDP=1.54D-03 DE=-2.28D-03 OVMax= 2.03D-03

 Cycle   6  Pass 0  IDiag  1:
 E= -429.148894467196     Delta-E=       -0.000064863390 Rises=F Damp=F
 DIIS: error= 2.56D-04 at cycle   6 NSaved=   6.
 NSaved= 6 IEnMin= 6 EnMin= -429.148894467196     IErMin= 6 ErrMin= 2.56D-04
 ErrMax= 2.56D-04 EMaxC= 1.00D-01 BMatC= 1.58D-05 BMatP= 1.09D-04
 IDIUse=3 WtCom= 9.97D-01 WtEn= 2.56D-03
 Coeff-Com: -0.150D-02 0.180D-02 0.505D-01 0.976D-01 0.345D+00 0.507D+00
 Coeff-En:   0.000D+00 0.000D+00 0.000D+00 0.000D+00 0.858D-01 0.914D+00
 Coeff:     -0.150D-02 0.180D-02 0.504D-01 0.973D-01 0.344D+00 0.508D+00
 Gap=     0.281 Goal=   None    Shift=    0.000
 RMSDP=1.01D-05 MaxDP=4.95D-04 DE=-6.49D-05 OVMax= 5.78D-04

 Cycle   7  Pass 0  IDiag  1:
 E= -429.148906940251     Delta-E=       -0.000012473055 Rises=F Damp=F
 DIIS: error= 2.24D-05 at cycle   7 NSaved=   7.
 NSaved= 7 IEnMin= 7 EnMin= -429.148906940251     IErMin= 7 ErrMin= 2.24D-05
 ErrMax= 2.24D-05 EMaxC= 1.00D-01 BMatC= 1.53D-07 BMatP= 1.58D-05
 IDIUse=1 WtCom= 1.00D+00 WtEn= 0.00D+00
 Coeff-Com: -0.566D-04-0.436D-03 0.666D-02 0.145D-01 0.645D-01 0.147D+00
 Coeff-Com:  0.767D+00
 Coeff:     -0.566D-04-0.436D-03 0.666D-02 0.145D-01 0.645D-01 0.147D+00
 Coeff:      0.767D+00
 Gap=     0.281 Goal=   None    Shift=    0.000
 RMSDP=1.57D-06 MaxDP=3.80D-05 DE=-1.25D-05 OVMax= 7.48D-05

 Initial convergence to 1.0D-05 achieved.  Increase integral accuracy.
 Cycle   8  Pass 1  IDiag  1:
 E= -429.148862682176     Delta-E=        0.000044258075 Rises=F Damp=F
 DIIS: error= 3.58D-05 at cycle   1 NSaved=   1.
 NSaved= 1 IEnMin= 1 EnMin= -429.148862682176     IErMin= 1 ErrMin= 3.58D-05
 ErrMax= 3.58D-05 EMaxC= 1.00D-01 BMatC= 3.31D-07 BMatP= 3.31D-07
 IDIUse=1 WtCom= 1.00D+00 WtEn= 0.00D+00
 Coeff-Com:  0.100D+01
 Coeff:      0.100D+01
 Gap=     0.281 Goal=   None    Shift=    0.000
 RMSDP=1.57D-06 MaxDP=3.80D-05 DE= 4.43D-05 OVMax= 2.55D-04

 Cycle   9  Pass 1  IDiag  1:
 E= -429.148863119164     Delta-E=       -0.000000436988 Rises=F Damp=F
 DIIS: error= 2.02D-05 at cycle   2 NSaved=   2.
 NSaved= 2 IEnMin= 2 EnMin= -429.148863119164     IErMin= 2 ErrMin= 2.02D-05
 ErrMax= 2.02D-05 EMaxC= 1.00D-01 BMatC= 4.70D-08 BMatP= 3.31D-07
 IDIUse=1 WtCom= 1.00D+00 WtEn= 0.00D+00
 Coeff-Com:  0.140D+00 0.860D+00
 Coeff:      0.140D+00 0.860D+00
 Gap=     0.281 Goal=   None    Shift=    0.000
 RMSDP=1.50D-06 MaxDP=6.25D-05 DE=-4.37D-07 OVMax= 8.33D-05

 Cycle  10  Pass 1  IDiag  1:
 E= -429.148863099859     Delta-E=        0.000000019305 Rises=F Damp=F
 DIIS: error= 2.56D-05 at cycle   3 NSaved=   3.
 NSaved= 3 IEnMin= 2 EnMin= -429.148863119164     IErMin= 2 ErrMin= 2.02D-05
 ErrMax= 2.56D-05 EMaxC= 1.00D-01 BMatC= 7.84D-08 BMatP= 4.70D-08
 IDIUse=1 WtCom= 1.00D+00 WtEn= 0.00D+00
 Coeff-Com: -0.210D-01 0.574D+00 0.447D+00
 Coeff:     -0.210D-01 0.574D+00 0.447D+00
 Gap=     0.281 Goal=   None    Shift=    0.000
 RMSDP=9.12D-07 MaxDP=3.59D-05 DE= 1.93D-08 OVMax= 5.77D-05

 Cycle  11  Pass 1  IDiag  1:
 E= -429.148863156101     Delta-E=       -0.000000056242 Rises=F Damp=F
 DIIS: error= 1.84D-06 at cycle   4 NSaved=   4.
 NSaved= 4 IEnMin= 4 EnMin= -429.148863156101     IErMin= 4 ErrMin= 1.84D-06
 ErrMax= 1.84D-06 EMaxC= 1.00D-01 BMatC= 9.14D-10 BMatP= 4.70D-08
 IDIUse=1 WtCom= 1.00D+00 WtEn= 0.00D+00
 Coeff-Com: -0.144D-01 0.262D+00 0.219D+00 0.534D+00
 Coeff:     -0.144D-01 0.262D+00 0.219D+00 0.534D+00
 Gap=     0.281 Goal=   None    Shift=    0.000
 RMSDP=1.04D-07 MaxDP=3.82D-06 DE=-5.62D-08 OVMax= 5.22D-06

 Cycle  12  Pass 1  IDiag  1:
 E= -429.148863156891     Delta-E=       -0.000000000790 Rises=F Damp=F
 DIIS: error= 4.35D-07 at cycle   5 NSaved=   5.
 NSaved= 5 IEnMin= 5 EnMin= -429.148863156891     IErMin= 5 ErrMin= 4.35D-07
 ErrMax= 4.35D-07 EMaxC= 1.00D-01 BMatC= 4.76D-11 BMatP= 9.14D-10
 IDIUse=1 WtCom= 1.00D+00 WtEn= 0.00D+00
 Coeff-Com: -0.301D-02 0.436D-01 0.377D-01 0.210D+00 0.712D+00
 Coeff:     -0.301D-02 0.436D-01 0.377D-01 0.210D+00 0.712D+00
 Gap=     0.281 Goal=   None    Shift=    0.000
 RMSDP=2.29D-08 MaxDP=7.40D-07 DE=-7.90D-10 OVMax= 1.39D-06

 Cycle  13  Pass 1  IDiag  1:
 E= -429.148863156926     Delta-E=       -0.000000000035 Rises=F Damp=F
 DIIS: error= 1.19D-07 at cycle   6 NSaved=   6.
 NSaved= 6 IEnMin= 6 EnMin= -429.148863156926     IErMin= 6 ErrMin= 1.19D-07
 ErrMax= 1.19D-07 EMaxC= 1.00D-01 BMatC= 4.53D-12 BMatP= 4.76D-11
 IDIUse=1 WtCom= 1.00D+00 WtEn= 0.00D+00
 Coeff-Com: -0.505D-03 0.285D-02 0.252D-02 0.596D-01 0.317D+00 0.619D+00
 Coeff:     -0.505D-03 0.285D-02 0.252D-02 0.596D-01 0.317D+00 0.619D+00
 Gap=     0.281 Goal=   None    Shift=    0.000
 RMSDP=8.86D-09 MaxDP=2.31D-07 DE=-3.55D-11 OVMax= 5.10D-07

 SCF Done:  E(RB3LYP) =  -429.148863157     A.U. after   13 cycles
             Convg  =    0.8859D-08             -V/T =  2.0047
 KE= 4.271440189766D+02 PE=-2.227697593648D+03 EE= 7.561744722813D+02
 Leave Link  502 at Tue Mar 11 10:43:23 2014, MaxMem= 4026531840 cpu:     311.7
 (Enter /usr/caen/gaussian-09revc/g09/l801.exe)
 Range of M.O.s used for correlation:     1   288
 NBasis=   288 NAE=    40 NBE=    40 NFC=     0 NFV=     0
 NROrb=    288 NOA=    40 NOB=    40 NVA=   248 NVB=   248
 Leave Link  801 at Tue Mar 11 10:43:24 2014, MaxMem= 4026531840 cpu:       0.3
 (Enter /usr/caen/gaussian-09revc/g09/l1101.exe)
 Using compressed storage, NAtomX=    28.
 Will process  29 centers per pass.
 Leave Link 1101 at Tue Mar 11 10:43:25 2014, MaxMem= 4026531840 cpu:       4.0
 (Enter /usr/caen/gaussian-09revc/g09/l1102.exe)
 Symmetrizing basis deriv contribution to polar:
 IMax=3 JMax=2 DiffMx= 0.00D+00
 Leave Link 1102 at Tue Mar 11 10:43:25 2014, MaxMem= 4026531840 cpu:       1.5
 (Enter /usr/caen/gaussian-09revc/g09/l1110.exe)
 Forming Gx(P) for the SCF density, NAtomX=    28.
 Integral derivatives from FoFDir/FoFCou, PRISM(SPDF).
 Do as many integral derivatives as possible in FoFDir.
 G2DrvN: MDV=    4026531512.
 G2DrvN: will do    29 centers at a time, making    1 passes doing MaxLOS=2.
 Calling FoFCou, ICntrl=  3107 FMM=F I1Cent=   0 AccDes= 0.00D+00.
 FoFCou: FMM=F IPFlag=           0 FMFlag=      100000 FMFlg1=           0
         NFxFlg=           0 DoJE=F BraDBF=F KetDBF=F FulRan=T
         Omega=  0.000000  0.000000  1.000000  0.000000  0.000000 ICntrl=    3107 IOpCl=  0
         NMat0=    1 NMatS0=    1 NMatT0=    0 NMatD0=    1 NMtDS0=    0 NMtDT0=    0
         I1Cent=           0 NGrid=           0.
 Symmetry not used in FoFCou.
 FoFDir/FoFCou used for L=0 through L=2.
 End of G2Drv Frequency-dependent properties file   721 does not exist.
 End of G2Drv Frequency-dependent properties file   722 does not exist.
 Leave Link 1110 at Tue Mar 11 10:45:07 2014, MaxMem= 4026531840 cpu:     814.3
 (Enter /usr/caen/gaussian-09revc/g09/l1002.exe)
 Minotr:  Closed shell wavefunction.
          IDoAtm=1111111111111111111111111111
          Direct CPHF calculation.
          Differentiating once with respect to nuclear coordinates.
          Requested convergence is 1.0D-06 RMS, and 1.0D-05 maximum.
          Secondary convergence is 1.0D-12 RMS, and 1.0D-12 maximum.
          NewPWx=T KeepS1=F KeepF1=F KeepIn=T MapXYZ=F SortEE=F KeepMc=T.
          MDV=    4026531556 using IRadAn=       2.
 Generate precomputed XC quadrature information.
          Keep R1 ints in memory in canonical form, NReq=993246417.
 Symmetry not used in FoFDir.
 MinBra= 0 MaxBra= 2 Meth= 1.
 IRaf=       0 NMat=   1 IRICut=       1 DoRegI=T DoRafI=F ISym2E= 0 JSym2E=0.
          Solving linear equations simultaneously, MaxMat=       0.
          There are    87 degrees of freedom in the 1st order CPHF.  IDoFFX=5.
     81 vectors produced by pass  0 Test12= 1.14D-10 1.15D-07 XBig12= 9.97D-02 6.41D-02.
 AX will form    81 AO Fock derivatives at one time.
     81 vectors produced by pass  1 Test12= 1.14D-10 1.15D-07 XBig12= 4.92D-03 1.05D-02.
     81 vectors produced by pass  2 Test12= 1.14D-10 1.15D-07 XBig12= 3.29D-05 5.61D-04.
     81 vectors produced by pass  3 Test12= 1.14D-10 1.15D-07 XBig12= 1.04D-07 3.36D-05.
     30 vectors produced by pass  4 Test12= 1.14D-10 1.15D-07 XBig12= 1.28D-10 1.25D-06.
 Inverted reduced A of dimension   354 with in-core refinement.
 End of Minotr Frequency-dependent properties file   721 does not exist.
 End of Minotr Frequency-dependent properties file   722 does not exist.
 Leave Link 1002 at Tue Mar 11 10:46:45 2014, MaxMem= 4026531840 cpu:     769.8
 (Enter /usr/caen/gaussian-09revc/g09/l601.exe)
 Copying SCF densities to generalized density rwf, IOpCl= 0 IROHF=0.

 **********************************************************************

            Population analysis using the SCF density.

 **********************************************************************

 Orbital symmetries:
       Occupied  (A) (A) (A) (A) (A) (A) (A) (A) (A) (A) (A) (A)
                 (A) (A) (A) (A) (A) (A) (A) (A) (A) (A) (A) (A)
                 (A) (A) (A) (A) (A) (A) (A) (A) (A) (A) (A) (A)
                 (A) (A) (A) (A)
       Virtual   (A) (A) (A) (A) (A) (A) (A) (A) (A) (A) (A) (A)
                 (A) (A) (A) (A) (A) (A) (A) (A) (A) (A) (A) (A)
                 (A) (A) (A) (A) (A) (A) (A) (A) (A) (A) (A) (A)
                 (A) (A) (A) (A) (A) (A) (A) (A) (A) (A) (A) (A)
                 (A) (A) (A) (A) (A) (A) (A) (A) (A) (A) (A) (A)
                 (A) (A) (A) (A) (A) (A) (A) (A) (A) (A) (A) (A)
                 (A) (A) (A) (A) (A) (A) (A) (A) (A) (A) (A) (A)
                 (A) (A) (A) (A) (A) (A) (A) (A) (A) (A) (A) (A)
                 (A) (A) (A) (A) (A) (A) (A) (A) (A) (A) (A) (A)
                 (A) (A) (A) (A) (A) (A) (A) (A) (A) (A) (A) (A)
                 (A) (A) (A) (A) (A) (A) (A) (A) (A) (A) (A) (A)
                 (A) (A) (A) (A) (A) (A) (A) (A) (A) (A) (A) (A)
                 (A) (A) (A) (A) (A) (A) (A) (A) (A) (A) (A) (A)
                 (A) (A) (A) (A) (A) (A) (A) (A) (A) (A) (A) (A)
                 (A) (A) (A) (A) (A) (A) (A) (A) (A) (A) (A) (A)
                 (A) (A) (A) (A) (A) (A) (A) (A) (A) (A) (A) (A)
                 (A) (A) (A) (A) (A) (A) (A) (A) (A) (A) (A) (A)
                 (A) (A) (A) (A) (A) (A) (A) (A) (A) (A) (A) (A)
                 (A) (A) (A) (A) (A) (A) (A) (A) (A) (A) (A) (A)
                 (A) (A) (A) (A) (A) (A) (A) (A) (A) (A) (A) (A)
                 (A) (A) (A) (A) (A) (A) (A) (A)
 The electronic state is 1-A.
 Alpha  occ. eigenvalues --  -19.10225 -10.22462 -10.22461 -10.16762 -10.16383
 Alpha  occ. eigenvalues --  -10.16381 -10.15440 -10.15439 -10.15174 -10.15174
 Alpha  occ. eigenvalues --   -1.01551  -0.81289  -0.80258  -0.73937  -0.69139
 Alpha  occ. eigenvalues --   -0.68201  -0.67819  -0.60860  -0.58905  -0.51711
 Alpha  occ. eigenvalues --   -0.47791  -0.47154  -0.45586  -0.43999  -0.43842
 Alpha  occ. eigenvalues --   -0.42160  -0.41295  -0.40411  -0.38535  -0.38437
 Alpha  occ. eigenvalues --   -0.36720  -0.36514  -0.36460  -0.35162  -0.34778
 Alpha  occ. eigenvalues --   -0.33069  -0.33069  -0.31899  -0.27998  -0.24747
 Alpha virt. eigenvalues --    0.03365   0.06122   0.06326   0.06873   0.07124
 Alpha virt. eigenvalues --    0.09261   0.09715   0.10935   0.11469   0.11827
 Alpha virt. eigenvalues --    0.12405   0.12680   0.14165   0.14653   0.15188
 Alpha virt. eigenvalues --    0.15530   0.16981   0.17284   0.18229   0.18644
 Alpha virt. eigenvalues --    0.18831   0.21563   0.21875   0.23751   0.23906
 Alpha virt. eigenvalues --    0.24727   0.25752   0.27442   0.29531   0.30111
 Alpha virt. eigenvalues --    0.30221   0.32481   0.33853   0.35468   0.38014
 Alpha virt. eigenvalues --    0.38777   0.40236   0.40739   0.45033   0.45544
 Alpha virt. eigenvalues --    0.47121   0.48121   0.48147   0.49056   0.49846
 Alpha virt. eigenvalues --    0.51643   0.53311   0.54382   0.55231   0.56899
 Alpha virt. eigenvalues --    0.56969   0.57367   0.58027   0.58580   0.59881
 Alpha virt. eigenvalues --    0.60171   0.60518   0.61131   0.61819   0.61946
 Alpha virt. eigenvalues --    0.62475   0.62931   0.62959   0.64673   0.64674
 Alpha virt. eigenvalues --    0.65568   0.66319   0.67563   0.67867   0.69102
 Alpha virt. eigenvalues --    0.70231   0.72248   0.77814   0.78305   0.86501
 Alpha virt. eigenvalues --    0.91710   0.91754   0.94529   0.95617   0.98538
 Alpha virt. eigenvalues --    0.99304   1.01141   1.06751   1.09318   1.14368
 Alpha virt. eigenvalues --    1.15611   1.16710   1.17864   1.20980   1.21029
 Alpha virt. eigenvalues --    1.28388   1.30803   1.31377   1.35351   1.35399
 Alpha virt. eigenvalues --    1.38705   1.38809   1.40050   1.42931   1.44764
 Alpha virt. eigenvalues --    1.45034   1.46425   1.46965   1.47889   1.48116
 Alpha virt. eigenvalues --    1.49393   1.49848   1.50049   1.51790   1.53234
 Alpha virt. eigenvalues --    1.53416   1.54569   1.54986   1.57321   1.57869
 Alpha virt. eigenvalues --    1.59646   1.60371   1.61534   1.62944   1.63470
 Alpha virt. eigenvalues --    1.64828   1.65520   1.67247   1.68253   1.68422
 Alpha virt. eigenvalues --    1.69429   1.70675   1.73176   1.73514   1.75112
 Alpha virt. eigenvalues --    1.76427   1.77120   1.77206   1.79036   1.82268
 Alpha virt. eigenvalues --    1.84917   1.86798   1.86848   1.87746   1.90145
 Alpha virt. eigenvalues --    1.90681   1.92271   1.92498   1.95104   1.98340
 Alpha virt. eigenvalues --    1.98409   2.04883   2.06064   2.08290   2.10423
 Alpha virt. eigenvalues --    2.11778   2.13691   2.14851   2.18323   2.18508
 Alpha virt. eigenvalues --    2.19986   2.24715   2.25311   2.26636   2.26935
 Alpha virt. eigenvalues --    2.31892   2.32387   2.35309   2.35439   2.36621
 Alpha virt. eigenvalues --    2.36719   2.40222   2.42079   2.42550   2.45322
 Alpha virt. eigenvalues --    2.46212   2.47549   2.48475   2.48782   2.49329
 Alpha virt. eigenvalues --    2.50437   2.51095   2.54312   2.54684   2.55027
 Alpha virt. eigenvalues --    2.55200   2.56177   2.57701   2.58844   2.59068
 Alpha virt. eigenvalues --    2.63330   2.67314   2.67489   2.68375   2.69879
 Alpha virt. eigenvalues --    2.71251   2.72551   2.72692   2.76284   2.76981
 Alpha virt. eigenvalues --    2.77701   2.85419   2.85648   2.88252   2.90145
 Alpha virt. eigenvalues --    2.92307   2.93014   2.98185   2.98340   3.06683
 Alpha virt. eigenvalues --    3.07126   3.10806   3.13647   3.19621   3.19984
 Alpha virt. eigenvalues --    3.26361   3.27475   3.29630   3.34941   3.54578
 Alpha virt. eigenvalues --    3.60457   3.75971   3.76875   3.78058   3.78617
 Alpha virt. eigenvalues --    3.79207   3.80545   3.81623   3.83439   3.83593
 Alpha virt. eigenvalues --    3.85337   3.86542   4.06613   4.12389   4.16890
 Alpha virt. eigenvalues --    4.22789   4.28634   4.30803   4.35062   4.38341
 Alpha virt. eigenvalues --    5.12671   5.24592   5.75639  23.68233  23.78586
 Alpha virt. eigenvalues --   23.85099  23.88468  23.88866  23.93675  23.94991
 Alpha virt. eigenvalues --   23.95958  23.97767  49.97590
          Condensed to atoms (all electrons):
              1          2          3          4          5          6
     1  C    4.864710   0.394740   0.390208   0.399716  -0.066854  -0.009635
     2  H    0.394740   0.571368  -0.024961  -0.026972  -0.010282   0.005603
     3  H    0.390208  -0.024961   0.603899  -0.028703  -0.002593   0.000086
     4  H    0.399716  -0.026972  -0.028703   0.573293   0.010211   0.000144
     5  C   -0.066854  -0.010282  -0.002593   0.010211   5.023447   0.403678
     6  H   -0.009635   0.005603   0.000086   0.000144   0.403678   0.594843
     7  H   -0.002907   0.000271   0.001758  -0.000695   0.390577  -0.030392
     8  C    0.008811  -0.000419  -0.000115  -0.000499   0.355387  -0.042727
     9  H   -0.000162   0.000015  -0.000006   0.000022  -0.042292   0.009416
    10  H   -0.000239  -0.000057  -0.000023   0.000036  -0.030574  -0.007695
    11  C   -0.001189   0.000045   0.000075   0.000206  -0.052722  -0.005038
    12  H    0.000049   0.000003  -0.000004  -0.000011   0.007659  -0.000042
    13  H   -0.000392   0.000216   0.000021  -0.000003  -0.005037   0.005544
    14  C    0.006980  -0.000448  -0.000445  -0.000475  -0.019391  -0.000585
    15  C   -0.000251  -0.000226   0.000018  -0.000045  -0.001189  -0.000392
    16  H    0.000018   0.000020  -0.000001   0.000000   0.000075   0.000021
    17  H   -0.000045  -0.000023   0.000000   0.000135   0.000206  -0.000003
    18  H   -0.000226   0.000355   0.000020  -0.000023   0.000045   0.000216
    19  C   -0.072264   0.010702  -0.001485  -0.009130  -0.090838   0.010002
    20  H   -0.006340  -0.000245   0.000027   0.000484  -0.000075  -0.000335
    21  H   -0.007268  -0.000216   0.000233   0.004396   0.009867  -0.000568
    22  H    0.008403  -0.000624  -0.000163  -0.000045  -0.006865  -0.000134
    23  C   -0.000563   0.000198   0.000059  -0.000109   0.000481   0.000416
    24  H   -0.000126  -0.000009   0.000005   0.000120   0.000483  -0.000010
    25  H    0.000036  -0.000009  -0.000003   0.000002  -0.000064  -0.000014
    26  H   -0.000061  -0.000014   0.000008  -0.000015  -0.000964  -0.000042
    27  C    0.384805  -0.032263  -0.037224  -0.032571   0.351814  -0.041211
    28  O   -0.056083   0.006221   0.004994   0.003429  -0.047268   0.002386
              7          8          9         10         11         12
     1  C   -0.002907   0.008811  -0.000162  -0.000239  -0.001189   0.000049
     2  H    0.000271  -0.000419   0.000015  -0.000057   0.000045   0.000003
     3  H    0.001758  -0.000115  -0.000006  -0.000023   0.000075  -0.000004
     4  H   -0.000695  -0.000499   0.000022   0.000036   0.000206  -0.000011
     5  C    0.390577   0.355387  -0.042292  -0.030574  -0.052722   0.007659
     6  H   -0.030392  -0.042727   0.009416  -0.007695  -0.005038  -0.000042
     7  H    0.594961  -0.031625  -0.007036  -0.005003   0.007659  -0.000288
     8  C   -0.031625   4.951811   0.407681   0.410315   0.355390  -0.031625
     9  H   -0.007036   0.407681   0.607054  -0.032685  -0.042288  -0.007037
    10  H   -0.005003   0.410315  -0.032685   0.582302  -0.030576  -0.005002
    11  C    0.007659   0.355390  -0.042288  -0.030576   5.023445   0.390579
    12  H   -0.000288  -0.031625  -0.007037  -0.005002   0.390579   0.594958
    13  H   -0.000042  -0.042727   0.009416  -0.007697   0.403679  -0.030392
    14  C    0.000825  -0.057865  -0.004956   0.006571   0.351808  -0.027853
    15  C    0.000049   0.008810  -0.000162  -0.000239  -0.066851  -0.002905
    16  H   -0.000004  -0.000114  -0.000006  -0.000023  -0.002594   0.001758
    17  H   -0.000011  -0.000499   0.000022   0.000036   0.010211  -0.000695
    18  H    0.000003  -0.000419   0.000015  -0.000057  -0.010282   0.000270
    19  C   -0.002627  -0.011078   0.002289  -0.000439   0.000481  -0.000017
    20  H    0.000831   0.000487   0.000177  -0.000016  -0.000064  -0.000010
    21  H   -0.000195  -0.000440  -0.000312   0.000057   0.000483  -0.000033
    22  H    0.000126   0.001793   0.000443  -0.000106  -0.000964   0.000091
    23  C   -0.000017  -0.011075   0.002288  -0.000439  -0.090831  -0.002629
    24  H   -0.000033  -0.000440  -0.000312   0.000057   0.009868  -0.000195
    25  H   -0.000010   0.000487   0.000177  -0.000016  -0.000074   0.000832
    26  H    0.000091   0.001794   0.000446  -0.000106  -0.006866   0.000125
    27  C   -0.027852  -0.057870  -0.004959   0.006572  -0.019387   0.000825
    28  O    0.004071  -0.010036  -0.000199  -0.000441  -0.047267   0.004071
             13         14         15         16         17         18
     1  C   -0.000392   0.006980  -0.000251   0.000018  -0.000045  -0.000226
     2  H    0.000216  -0.000448  -0.000226   0.000020  -0.000023   0.000355
     3  H    0.000021  -0.000445   0.000018  -0.000001   0.000000   0.000020
     4  H   -0.000003  -0.000475  -0.000045   0.000000   0.000135  -0.000023
     5  C   -0.005037  -0.019391  -0.001189   0.000075   0.000206   0.000045
     6  H    0.005544  -0.000585  -0.000392   0.000021  -0.000003   0.000216
     7  H   -0.000042   0.000825   0.000049  -0.000004  -0.000011   0.000003
     8  C   -0.042727  -0.057865   0.008810  -0.000114  -0.000499  -0.000419
     9  H    0.009416  -0.004956  -0.000162  -0.000006   0.000022   0.000015
    10  H   -0.007697   0.006571  -0.000239  -0.000023   0.000036  -0.000057
    11  C    0.403679   0.351808  -0.066851  -0.002594   0.010211  -0.010282
    12  H   -0.030392  -0.027853  -0.002905   0.001758  -0.000695   0.000270
    13  H    0.594845  -0.041214  -0.009633   0.000085   0.000144   0.005603
    14  C   -0.041214   5.037899   0.384801  -0.037223  -0.032573  -0.032264
    15  C   -0.009633   0.384801   4.864721   0.390210   0.399719   0.394736
    16  H    0.000085  -0.037223   0.390210   0.603895  -0.028705  -0.024959
    17  H    0.000144  -0.032573   0.399719  -0.028705   0.573295  -0.026972
    18  H    0.005603  -0.032264   0.394736  -0.024959  -0.026972   0.571367
    19  C    0.000416  -0.006811  -0.000563   0.000059  -0.000109   0.000198
    20  H   -0.000014   0.000117   0.000036  -0.000003   0.000002  -0.000009
    21  H   -0.000010  -0.000691  -0.000126   0.000005   0.000119  -0.000009
    22  H   -0.000042   0.001398  -0.000061   0.000008  -0.000015  -0.000014
    23  C    0.010002   0.337893  -0.072265  -0.001488  -0.009129   0.010703
    24  H   -0.000568  -0.031351  -0.007265   0.000233   0.004395  -0.000216
    25  H   -0.000335  -0.025926  -0.006345   0.000027   0.000484  -0.000244
    26  H   -0.000133  -0.030568   0.008404  -0.000164  -0.000044  -0.000624
    27  C   -0.000585  -0.054826   0.006980  -0.000445  -0.000475  -0.000449
    28  O    0.002386   0.265322  -0.056082   0.004994   0.003428   0.006223
             19         20         21         22         23         24
     1  C   -0.072264  -0.006340  -0.007268   0.008403  -0.000563  -0.000126
     2  H    0.010702  -0.000245  -0.000216  -0.000624   0.000198  -0.000009
     3  H   -0.001485   0.000027   0.000233  -0.000163   0.000059   0.000005
     4  H   -0.009130   0.000484   0.004396  -0.000045  -0.000109   0.000120
     5  C   -0.090838  -0.000075   0.009867  -0.006865   0.000481   0.000483
     6  H    0.010002  -0.000335  -0.000568  -0.000134   0.000416  -0.000010
     7  H   -0.002627   0.000831  -0.000195   0.000126  -0.000017  -0.000033
     8  C   -0.011078   0.000487  -0.000440   0.001793  -0.011075  -0.000440
     9  H    0.002289   0.000177  -0.000312   0.000443   0.002288  -0.000312
    10  H   -0.000439  -0.000016   0.000057  -0.000106  -0.000439   0.000057
    11  C    0.000481  -0.000064   0.000483  -0.000964  -0.090831   0.009868
    12  H   -0.000017  -0.000010  -0.000033   0.000091  -0.002629  -0.000195
    13  H    0.000416  -0.000014  -0.000010  -0.000042   0.010002  -0.000568
    14  C   -0.006811   0.000117  -0.000691   0.001398   0.337893  -0.031351
    15  C   -0.000563   0.000036  -0.000126  -0.000061  -0.072265  -0.007265
    16  H    0.000059  -0.000003   0.000005   0.000008  -0.001488   0.000233
    17  H   -0.000109   0.000002   0.000119  -0.000015  -0.009129   0.004395
    18  H    0.000198  -0.000009  -0.000009  -0.000014   0.010703  -0.000216
    19  C    4.952736   0.383532   0.395965   0.401266   0.001244  -0.000494
    20  H    0.383532   0.595321  -0.024104  -0.029998   0.000068   0.000032
    21  H    0.395965  -0.024104   0.565542  -0.029326  -0.000494   0.001187
    22  H    0.401266  -0.029998  -0.029326   0.594954  -0.004780  -0.000310
    23  C    0.001244   0.000068  -0.000494  -0.004780   4.952756   0.395958
    24  H   -0.000494   0.000032   0.001187  -0.000310   0.395958   0.565530
    25  H    0.000069   0.000004   0.000032   0.000424   0.383535  -0.024100
    26  H   -0.004783   0.000424  -0.000309   0.000261   0.401266  -0.029326
    27  C    0.337898  -0.025926  -0.031352  -0.030560  -0.006810  -0.000692
    28  O   -0.059426   0.004354   0.003570  -0.000529  -0.059432   0.003573
             25         26         27         28
     1  C    0.000036  -0.000061   0.384805  -0.056083
     2  H   -0.000009  -0.000014  -0.032263   0.006221
     3  H   -0.000003   0.000008  -0.037224   0.004994
     4  H    0.000002  -0.000015  -0.032571   0.003429
     5  C   -0.000064  -0.000964   0.351814  -0.047268
     6  H   -0.000014  -0.000042  -0.041211   0.002386
     7  H   -0.000010   0.000091  -0.027852   0.004071
     8  C    0.000487   0.001794  -0.057870  -0.010036
     9  H    0.000177   0.000446  -0.004959  -0.000199
    10  H   -0.000016  -0.000106   0.006572  -0.000441
    11  C   -0.000074  -0.006866  -0.019387  -0.047267
    12  H    0.000832   0.000125   0.000825   0.004071
    13  H   -0.000335  -0.000133  -0.000585   0.002386
    14  C   -0.025926  -0.030568  -0.054826   0.265322
    15  C   -0.006345   0.008404   0.006980  -0.056082
    16  H    0.000027  -0.000164  -0.000445   0.004994
    17  H    0.000484  -0.000044  -0.000475   0.003428
    18  H   -0.000244  -0.000624  -0.000449   0.006223
    19  C    0.000069  -0.004783   0.337898  -0.059426
    20  H    0.000004   0.000424  -0.025926   0.004354
    21  H    0.000032  -0.000309  -0.031352   0.003570
    22  H    0.000424   0.000261  -0.030560  -0.000529
    23  C    0.383535   0.401266  -0.006810  -0.059432
    24  H   -0.024100  -0.029326  -0.000692   0.003573
    25  H    0.595315  -0.029998   0.000117   0.004353
    26  H   -0.029998   0.594963   0.001398  -0.000526
    27  C    0.000117   0.001398   5.037913   0.265311
    28  O    0.004353  -0.000526   0.265311   8.158377
 Mulliken atomic charges:
              1
     1  C   -0.233870
     2  H    0.107011
     3  H    0.094317
     4  H    0.107102
     5  C   -0.176920
     6  H    0.106465
     7  H    0.107515
     8  C   -0.203190
     9  H    0.102951
    10  H    0.115489
    11  C   -0.176934
    12  H    0.107518
    13  H    0.106466
    14  C    0.011851
    15  C   -0.233882
    16  H    0.094320
    17  H    0.107101
    18  H    0.107013
    19  C   -0.236790
    20  H    0.101241
    21  H    0.113997
    22  H    0.095369
    23  C   -0.236804
    24  H    0.114007
    25  H    0.101245
    26  H    0.095365
    27  C    0.011823
    28  O   -0.409775
 Sum of Mulliken atomic charges =   0.00000
 Mulliken charges with hydrogens summed into heavy atoms:
              1
     1  C    0.074559
     5  C    0.037060
     8  C    0.015250
    11  C    0.037050
    14  C    0.011851
    15  C    0.074552
    19  C    0.073818
    23  C    0.073813
    27  C    0.011823
    28  O   -0.409775
 Sum of Mulliken charges with hydrogens summed into heavy atoms =   0.00000
 APT atomic charges:
              1
     1  C   -1.101766
     2  H    0.296146
     3  H    0.481000
     4  H    0.386066
     5  C   -0.746682
     6  H    0.337943
     7  H    0.463373
     8  C   -0.824498
     9  H    0.289291
    10  H    0.546550
    11  C   -0.746709
    12  H    0.463358
    13  H    0.337961
    14  C   -0.059613
    15  C   -1.101776
    16  H    0.481003
    17  H    0.386090
    18  H    0.296122
    19  C   -1.007803
    20  H    0.493672
    21  H    0.350991
    22  H    0.232437
    23  C   -1.007816
    24  H    0.350935
    25  H    0.493696
    26  H    0.232470
    27  C   -0.059655
    28  O   -0.262785
 Sum of APT charges=   0.00000
 APT Atomic charges with hydrogens summed into heavy atoms:
              1
     1  C    0.061446
     2  H    0.000000
     3  H    0.000000
     4  H    0.000000
     5  C    0.054634
     6  H    0.000000
     7  H    0.000000
     8  C    0.011342
     9  H    0.000000
    10  H    0.000000
    11  C    0.054610
    12  H    0.000000
    13  H    0.000000
    14  C   -0.059613
    15  C    0.061439
    16  H    0.000000
    17  H    0.000000
    18  H    0.000000
    19  C    0.069297
    20  H    0.000000
    21  H    0.000000
    22  H    0.000000
    23  C    0.069285
    24  H    0.000000
    25  H    0.000000
    26  H    0.000000
    27  C   -0.059655
    28  O   -0.262785
 Sum of APT charges=   0.00000
 Electronic spatial extent (au):  <R**2>=           1507.1054
 Charge=              0.0000 electrons
 Dipole moment (field-independent basis, Debye):
    X=              0.0001    Y=              1.1853    Z=              0.4650  Tot=              1.2732
 Quadrupole moment (field-independent basis, Debye-Ang):
   XX=            -63.4477   YY=            -66.4721   ZZ=            -65.9775
   XY=             -0.0001   XZ=              0.0000   YZ=             -0.8697
 Traceless Quadrupole moment (field-independent basis, Debye-Ang):
   XX=              1.8514   YY=             -1.1730   ZZ=             -0.6784
   XY=             -0.0001   XZ=              0.0000   YZ=             -0.8697
 Octapole moment (field-independent basis, Debye-Ang**2):
  XXX=              0.0006  YYY=             -3.5217  ZZZ=             -4.9267  XYY=             -0.0001
  XXY=             -0.1968  XXZ=              0.5774  XZZ=             -0.0001  YZZ=              0.1564
  YYZ=              1.0002  XYZ=              0.0001
 Hexadecapole moment (field-independent basis, Debye-Ang**3):
 XXXX=          -1091.7085 YYYY=           -562.3126 ZZZZ=           -441.2123 XXXY=             -0.0029
 XXXZ=             -0.0010 YYYX=              0.0002 YYYZ=             -5.7949 ZZZX=              0.0002
 ZZZY=              3.0008 XXYY=           -281.4251 XXZZ=           -266.8270 YYZZ=           -169.7100
 XXYZ=              1.7358 YYXZ=             -0.0003 ZZXY=              0.0007
 N-N= 6.152302392334D+02 E-N=-2.227697580267D+03  KE= 4.271440189766D+02
  Exact polarizability:   0.000   0.000   0.000   0.000   0.000   0.000
 Approx polarizability: 149.965   0.000 142.783   0.000   0.592 143.101
 No NMR shielding tensors so no spin-rotation constants.
 Leave Link  601 at Tue Mar 11 10:46:46 2014, MaxMem= 4026531840 cpu:       3.3
 (Enter /usr/caen/gaussian-09revc/g09/l701.exe)
 Compute integral second derivatives.
 ... and contract with generalized density number  0.
 Leave Link  701 at Tue Mar 11 10:46:47 2014, MaxMem= 4026531840 cpu:       2.8
 (Enter /usr/caen/gaussian-09revc/g09/l702.exe)
 L702 exits ... SP integral derivatives will be done elsewhere.
 Leave Link  702 at Tue Mar 11 10:46:47 2014, MaxMem= 4026531840 cpu:       0.2
 (Enter /usr/caen/gaussian-09revc/g09/l703.exe)
 Compute integral second derivatives, UseDBF=F ICtDFT=           0.
 Integral derivatives from FoFDir, PRISM(SPDF).
 Calling FoFJK, ICntrl=    100147 FMM=F ISym2X=0 I1Cent= 0 IOpClX= 0 NMat=1 NMatS=1 NMatT=0.
 FoFCou: FMM=F IPFlag=           0 FMFlag=      100000 FMFlg1=         800
         NFxFlg=           0 DoJE=F BraDBF=F KetDBF=F FulRan=T
         Omega=  0.000000  0.000000  1.000000  0.000000  0.000000 ICntrl=  100147 IOpCl=  0
         NMat0=    1 NMatS0=    1 NMatT0=    0 NMatD0=    1 NMtDS0=    0 NMtDT0=    0
         I1Cent=           0 NGrid=           0.
 Symmetry not used in FoFCou.
 Leave Link  703 at Tue Mar 11 10:48:42 2014, MaxMem= 4026531840 cpu:     912.1
 (Enter /usr/caen/gaussian-09revc/g09/l716.exe)
 Dipole        = 2.55380893D-05 4.66317729D-01 1.82927562D-01
 Polarizability= 0.00000000D+00 0.00000000D+00 0.00000000D+00
                 0.00000000D+00 0.00000000D+00 0.00000000D+00
 ***** Axes restored to original set *****
 -------------------------------------------------------------------
 Center     Atomic                   Forces (Hartrees/Bohr)
 Number     Number              X              Y              Z
 -------------------------------------------------------------------
      1        6          -0.000198975    0.000002268   -0.000108175
      2        1           0.000210079   -0.000016802    0.000188415
      3        1           0.000027621   -0.000058115   -0.000040313
      4        1           0.000219112    0.000119852   -0.000053744
      5        6          -0.000330186    0.000040086    0.000111079
      6        1           0.000057481   -0.000023325    0.000069797
      7        1           0.000020950    0.000100082   -0.000066971
      8        6           0.000002007   -0.000008317    0.000026147
      9        1           0.000001108   -0.000038310   -0.000046427
     10        1          -0.000000099   -0.000084927    0.000003602
     11        6           0.000330719    0.000038588    0.000112950
     12        1          -0.000020037    0.000099252   -0.000068948
     13        1          -0.000058551   -0.000020362    0.000068209
     14        6          -0.001114134   -0.000147560   -0.000069574
     15        6           0.000199284   -0.000001442   -0.000115371
     16        1          -0.000027740   -0.000057722   -0.000039758
     17        1          -0.000219248    0.000119761   -0.000053266
     18        1          -0.000209593   -0.000016848    0.000188057
     19        6          -0.000287553    0.000054969   -0.000057857
     20        1           0.000027478   -0.000031691    0.000107822
     21        1           0.000138046    0.000107124   -0.000141677
     22        1          -0.000008275   -0.000046453   -0.000065295
     23        6           0.000285454    0.000064895   -0.000051605
     24        1          -0.000137496    0.000106577   -0.000141420
     25        1          -0.000029219   -0.000032604    0.000109833
     26        1           0.000009846   -0.000051734   -0.000066860
     27        6           0.001105576   -0.000150132   -0.000070961
     28        8           0.000006342   -0.000067111    0.000272312
 -------------------------------------------------------------------
 Cartesian Forces:  Max     0.001114134 RMS     0.000207794
 Leave Link  716 at Tue Mar 11 10:48:42 2014, MaxMem= 4026531840 cpu:       2.4
 (Enter /usr/caen/gaussian-09revc/g09/l103.exe)

 GradGradGradGradGradGradGradGradGradGradGradGradGradGradGradGradGradGrad
 Berny optimization.
 Red2BG is reusing G-inverse.
 Internal  Forces:  Max     0.000901915 RMS     0.000155201
 Search for a local minimum.
 Step number   1 out of a maximum of  168
 All quantities printed in internal units (Hartrees-Bohrs-Radians)
 RMS Force = .15520D-03 SwitMx=.10000D-02 MixMth= 2
 Mixed Optimization -- En-DIIS/RFO-DIIS
 Second derivative matrix not updated -- analytic derivatives used.
 ITU=  0
     Eigenvalues ---    0.00178   0.00234   0.00310   0.00339   0.00485
     Eigenvalues ---    0.00551   0.01008   0.02104   0.02666   0.03862
     Eigenvalues ---    0.03876   0.03968   0.04165   0.04267   0.04328
     Eigenvalues ---    0.04460   0.04498   0.04520   0.04527   0.04570
     Eigenvalues ---    0.04636   0.04710   0.05175   0.05404   0.06298
     Eigenvalues ---    0.06679   0.06986   0.07097   0.07255   0.07526
     Eigenvalues ---    0.08834   0.09168   0.10222   0.10499   0.11882
     Eigenvalues ---    0.11926   0.12352   0.12375   0.12528   0.13982
     Eigenvalues ---    0.14089   0.14114   0.14531   0.14704   0.15394
     Eigenvalues ---    0.15582   0.15804   0.17931   0.18719   0.21903
     Eigenvalues ---    0.23525   0.24359   0.24539   0.26040   0.26140
     Eigenvalues ---    0.26652   0.26842   0.28310   0.31545   0.32349
     Eigenvalues ---    0.32351   0.32569   0.32990   0.33163   0.33166
     Eigenvalues ---    0.33213   0.33246   0.33459   0.33487   0.33531
     Eigenvalues ---    0.33556   0.33698   0.33755   0.34084   0.34280
     Eigenvalues ---    0.34375   0.34477   0.35265
 RFO step:  Lambda=-3.30862623D-05 EMin= 1.78307546D-03
 Linear search not attempted -- first point.
 Iteration  1 RMS(Cart)=  0.00544534 RMS(Int)=  0.00001404
 Iteration  2 RMS(Cart)=  0.00002277 RMS(Int)=  0.00000249
 Iteration  3 RMS(Cart)=  0.00000000 RMS(Int)=  0.00000249
 Variable       Old X    -DE/DX   Delta X   Delta X   Delta X     New X
                                 (Linear)    (Quad)   (Total)
    R1        2.06354  -0.00013   0.00000  -0.00036  -0.00036   2.06318
    R2        2.06680  -0.00005   0.00000  -0.00033  -0.00033   2.06646
    R3        2.06503  -0.00013   0.00000  -0.00035  -0.00035   2.06469
    R4        2.89452  -0.00019   0.00000   0.00020   0.00020   2.89472
    R5        2.07156  -0.00007   0.00000  -0.00014  -0.00014   2.07142
    R6        2.06897   0.00000   0.00000  -0.00013  -0.00013   2.06884
    R7        2.89368  -0.00002   0.00000   0.00009   0.00009   2.89377
    R8        2.91248   0.00002   0.00000   0.00010   0.00010   2.91259
    R9        2.06985  -0.00005   0.00000  -0.00017  -0.00017   2.06968
   R10        2.06807  -0.00008   0.00000  -0.00025  -0.00025   2.06782
   R11        2.89370  -0.00002   0.00000   0.00008   0.00008   2.89377
   R12        2.06898   0.00000   0.00000  -0.00014  -0.00014   2.06884
   R13        2.07156  -0.00007   0.00000  -0.00013  -0.00013   2.07142
   R14        2.91250   0.00002   0.00000   0.00009   0.00009   2.91259
   R15        2.89450  -0.00018   0.00000   0.00022   0.00022   2.89472
   R16        2.91096  -0.00012   0.00000  -0.00026  -0.00026   2.91071
   R17        2.73572  -0.00090   0.00000  -0.00316  -0.00317   2.73256
   R18        2.06680  -0.00005   0.00000  -0.00033  -0.00033   2.06646
   R19        2.06503  -0.00013   0.00000  -0.00035  -0.00035   2.06469
   R20        2.06354  -0.00013   0.00000  -0.00036  -0.00036   2.06318
   R21        2.06728  -0.00002   0.00000  -0.00019  -0.00019   2.06709
   R22        2.06411  -0.00012   0.00000  -0.00032  -0.00032   2.06380
   R23        2.06020  -0.00007   0.00000   0.00011   0.00011   2.06030
   R24        2.91097  -0.00013   0.00000  -0.00027  -0.00027   2.91071
   R25        2.06411  -0.00012   0.00000  -0.00031  -0.00031   2.06380
   R26        2.06728  -0.00002   0.00000  -0.00020  -0.00020   2.06709
   R27        2.06022  -0.00007   0.00000   0.00009   0.00009   2.06030
   R28        2.73569  -0.00090   0.00000  -0.00313  -0.00314   2.73256
[...]
 04,0.00018517,0.00009028,0.00030998,0.00012863,0.00005592,0.00019163,-
 0.00016664,0.00000683,0.00005081,0.00005411,-0.00008882,0.00000576,-0.
 00006762,0.00003106,0.00005096,0.00076952,0.00017130,0.00010065,-0.000
 01105,-0.00000356,-0.00000332,-0.00003826,-0.00000698,-0.00000718,0.00
 003109,-0.00002739,0.00000487,0.00000390,0.00000688,-0.00001153,-0.009
 78326,0.06200443,-0.06286298,0.00006539,-0.00464824,0.00016199,0.01038
 747,-0.07021093,0.06911470,0.00031605,-0.00014706,0.00088246,0.0004991
 3,-0.00009151,0.00026300,0.00044959,-0.00008425,0.00030727,-0.00017160
 ,-0.00002810,0.00009240,0.00020909,-0.00012743,-0.00060652,-0.00007157
 ,0.00021042,0.00000708,-0.00022559,-0.00000190,-0.00017649,-0.00016312
 ,-0.00028016,0.00008144,0.00004250,-0.00055754,0.00051713,0.00003562,0
 .00005889,0.00001645,-0.00000752,-0.00009080,0.00018106,-0.00000844,0.
 00001631,0.00000250,-0.00005095,0.00005591,0.00000395,0.00012221,-0.00
 034098,0.00024177,-0.00007181,0.00006276,-0.00011548,0.00002085,-0.000
 00019,0.00000522,-0.00001190,0.00001013,0.00001133,0.00001844,-0.00002
 154,-0.00004863,-0.12468303,-0.08428298,-0.08807379,-0.01631858,-0.018
 74301,-0.01863275,0.00234636,0.00303030,0.00389354,0.13691498,0.000084
 61,0.00021760,0.00083167,-0.00006495,0.00055265,0.00021670,-0.00024313
 ,-0.00003693,-0.00002497,0.00012000,0.00047320,0.00025125,0.00037137,0
 .00013928,-0.00001673,0.00003233,0.00013759,-0.00019684,0.00014382,-0.
 00004862,-0.00002755,-0.00039218,-0.00030630,0.00060105,-0.00059495,-0
 .00077712,0.00056106,0.00013484,0.00001501,-0.00002826,0.00000620,0.00
 013464,0.00008939,0.00006187,0.00004330,-0.00001200,0.00002206,-0.0000
 7835,0.00005892,-0.00064918,0.00001872,-0.00083345,0.00011009,-0.00006
 054,0.00018485,0.00004944,0.00000776,-0.00002383,-0.00001009,-0.000028
 27,-0.00003052,-0.00003466,0.00002867,0.00009724,-0.08359608,-0.136424
 52,-0.09327324,0.00424636,0.00460340,0.00584532,-0.01797213,-0.0167432
 8,-0.01895257,0.09448964,0.14526606,0.00315688,0.00182971,-0.00582557,
 -0.00126664,-0.00100996,-0.00141265,-0.00006279,0.00022242,0.00020581,
 0.00019697,0.00001074,0.00022966,-0.00028998,-0.00122194,0.00090815,-0
 .00002712,-0.00016058,0.00024784,-0.00013960,0.00023407,-0.00009311,0.
 00006548,0.00007109,-0.00080756,0.00045117,0.00075000,0.00064935,0.000
 03938,0.00001869,0.00046322,0.00028409,0.00002896,0.00013389,0.0000145
 9,0.00005677,-0.00002372,-0.00013660,0.00003255,0.00010822,-0.00021826
 ,-0.00073198,-0.00075561,0.00018702,0.00009289,0.00009812,0.00007030,-
 0.00001923,-0.00003308,-0.00003680,0.00002345,-0.00000790,-0.00003903,
 0.00000413,0.00007940,-0.08616656,-0.09289482,-0.14484349,0.00229522,0
 .00357911,0.00267467,0.00532478,0.00459830,0.00511836,0.09667256,0.101
 73789,0.15648819,-0.00085908,0.00044780,0.00027049,0.00014055,0.000054
 20,0.00019293,-0.00047417,-0.00014595,0.00002115,0.00012356,0.00003846
 ,0.00002460,-0.00081070,-0.00014318,0.00031908,0.00008666,0.00003801,0
 .00003720,-0.00002251,0.00024939,-0.00002492,-0.00016234,-0.00050684,-
 0.00073580,-0.00028870,0.00058025,-0.00000273,0.00016914,-0.00007069,0
 .00010033,0.00254884,0.00264318,-0.00121032,0.00013298,-0.00047272,0.0
 0013473,0.00043070,-0.00056834,0.00075739,-0.07514894,0.00753660,-0.00
 985202,0.00638660,-0.00177501,0.01991492,-0.00008682,-0.00033208,0.000
 35425,0.00039371,-0.00055111,-0.00024649,-0.00277668,0.00188117,0.0038
 2154,-0.00163643,0.00093192,0.00152796,-0.00013991,-0.00010254,-0.0002
 8358,0.00008875,0.00015317,0.00003227,-0.00205614,-0.00056840,-0.00023
 750,0.55956195,-0.00031287,0.00036871,-0.00010502,0.00004129,-0.000052
 03,0.00001937,-0.00017964,-0.00009317,0.00000776,0.00003186,0.00001619
 ,0.00001626,-0.00008855,-0.00012395,0.00018919,-0.00009024,0.00001312,
 -0.00015183,0.00013830,0.00012441,-0.00002245,-0.00067646,0.00045723,0
 .00070915,0.00040459,-0.00045508,0.00004132,0.00006586,0.00015260,-0.0
 0017525,0.00564988,-0.00719852,0.03358421,0.00061597,0.00102503,0.0005
 9084,0.00111945,-0.00611584,0.00241087,0.00749533,-0.07987762,0.015727
 04,-0.00175540,0.00231398,-0.01860699,-0.00036509,-0.00000320,0.000408
 82,-0.00020468,0.00053840,-0.00081025,0.00181026,-0.00145481,-0.003122
 01,-0.00093195,0.00188484,0.00046513,-0.00049266,-0.00046032,-0.000204
 50,-0.00003965,-0.00026495,0.00011050,0.00010524,-0.00072404,-0.000495
 56,0.00591490,0.57582643,0.00023325,-0.00008091,-0.00014767,0.00001405
 ,-0.00000381,-0.00004228,0.00004856,0.00003488,0.00008623,-0.00000337,
 0.00001427,0.00001211,0.00000123,-0.00005561,-0.00040383,-0.00006518,-
 0.00004841,-0.00011905,0.00008006,-0.00003970,0.00003878,-0.00049347,-
 0.00040771,0.00116735,-0.00001991,-0.00010122,-0.00046826,0.00046181,-
 0.00021874,-0.00027781,-0.00094810,0.00830894,-0.01245088,-0.00040780,
 -0.00023062,0.00000092,-0.00028651,0.00033555,0.00110399,-0.01124013,0
 .01216873,-0.16080252,0.00113188,-0.00087818,-0.03023595,-0.00104437,0
 .00032671,0.00010516,-0.00121715,0.00111516,0.00107795,0.00174564,-0.0
 0148309,-0.00148738,-0.00152791,0.00046509,0.00074686,-0.00045574,-0.0
 0023318,-0.00014414,0.00001806,-0.00005013,-0.00006710,0.00014689,-0.0
 0032471,-0.00055833,-0.04044446,0.02086345,0.46631876,0.00000658,-0.00
 003195,0.00000283,-0.00000097,0.00000074,0.00003424,0.00002359,-0.0000
 0577,0.00000330,-0.00002259,-0.00003310,-0.00001506,0.00015297,-0.0000
 0637,-0.00003334,-0.00004068,-0.00005356,0.00000817,-0.00000083,-0.000
 02884,-0.00000174,0.00017326,0.00003873,0.00020807,0.00009977,-0.00014
 648,-0.00014411,-0.00000816,-0.00002947,-0.00009972,-0.00037766,-0.000
 12810,-0.00173953,0.00022971,0.00022466,0.00007198,0.00024137,0.000533
 64,-0.00016804,-0.00054264,0.00829979,-0.00337522,-0.00043967,-0.00047
 904,0.00048507,0.00010237,-0.00008861,0.00010655,0.00027650,0.00008440
 ,0.00033342,-0.00006948,0.00018693,-0.00004048,0.00008875,0.00003966,-
 0.00001806,0.00010564,-0.00010253,0.00008663,-0.00051414,-0.00022579,0
 .00004831,0.00015314,0.00024638,-0.00000764,-0.05123589,-0.03632389,0.
 01100755,0.05177061,0.00003627,0.00002597,-0.00005386,-0.00000568,-0.0
 0001075,-0.00003834,0.00000798,0.00000402,0.00001519,0.00002008,0.0000
 5079,0.00001977,-0.00009800,-0.00009626,-0.00000142,0.00004967,0.00007
 992,-0.00001782,0.00007199,0.00001686,-0.00000727,-0.00025770,0.000100
 72,-0.00006931,-0.00015687,0.00014130,0.00008151,0.00006243,-0.0000305
 5,0.00003109,0.00019912,0.00122562,0.00121902,0.00012174,0.00036260,-0
 .00021463,0.00018937,-0.00035154,0.00029668,-0.00111991,-0.00612578,0.
 00069153,0.00009985,0.00022428,-0.00054298,0.00011792,0.00004926,-0.00
 006364,-0.00025068,0.00060354,0.00004540,0.00003537,0.00021803,0.00005
 785,-0.00015317,-0.00026495,-0.00005013,-0.00004835,0.00015633,-0.0001
 2191,0.00022578,0.00044042,0.00001744,-0.00008039,-0.00018710,0.000118
 97,-0.03542548,-0.28917889,0.06400211,0.03945787,0.31305184,0.00001105
 ,-0.00000356,-0.00000332,-0.00000390,0.00000688,-0.00001153,0.00003826
 ,-0.00000698,-0.00000718,-0.00003109,-0.00002739,0.00000487,0.00016664
 ,0.00000683,0.00005081,0.00006762,0.00003106,0.00005096,-0.00005411,-0
 .00008882,0.00000576,0.00038592,-0.00014495,-0.00044805,-0.00018516,0.
 00009028,0.00030998,-0.00012863,0.00005592,0.00019163,-0.00131967,-0.0
 0084710,-0.00615735,0.00008773,-0.00034232,0.00011594,-0.00036806,0.00
 190656,-0.00066199,0.00511010,0.03198082,-0.00942822,-0.00053070,0.001
 27154,0.00126528,-0.00008099,-0.00007071,-0.00005558,0.00038364,-0.000
 72041,-0.00045729,-0.00010158,-0.00035735,0.00026155,-0.00003227,0.000
 11050,-0.00006710,-0.00000003,0.00000057,-0.00004868,-0.00004829,0.000
 01745,0.00017029,-0.00015485,-0.00015839,-0.00000156,0.00978216,0.0620
 0525,-0.06286339,-0.01038612,-0.07021183,0.06911507,-0.00011169,0.0001
 7458,0.00000672,0.00003096,-0.00000739,-0.00002904,-0.00009069,-0.0000
 2035,0.00000267,0.00003592,0.00001654,0.00002563,0.00000038,-0.0001001
 0,0.00001427,-0.00000062,0.00001535,-0.00004227,0.00003281,0.00008573,
 0.00001623,-0.00004349,0.00025801,0.00017932,-0.00003628,-0.00015699,-
 0.00011455,0.00000239,0.00004826,-0.00010052,-0.00030461,-0.00068424,0
 .00001704,0.00061819,0.00071296,0.00001665,0.00027480,0.00021686,0.000
 00161,-0.00849455,-0.00274110,0.00157966,-0.00019712,-0.00001237,0.001
 49597,0.00095639,0.00018464,0.00019030,-0.00001607,0.00002698,-0.00014
 757,0.00032258,0.00020165,0.00005214,-0.00013990,0.00049266,0.00045574
 ,-0.00016103,-0.00007137,-0.00016127,0.00010564,0.00004835,0.00000002,
 -0.00016724,-0.00037940,-0.00024024,-0.28805878,-0.05699335,-0.0330022
 7,-0.00313225,-0.00054015,-0.00006525,0.31390329,-0.00004976,-0.000016
 98,0.00004091,0.00000588,0.00001399,0.00001324,-0.00001069,0.00000246,
 -0.00001146,0.00001199,0.00000262,0.00000673,-0.00009264,0.00008102,-0
 .00002821,0.00000436,-0.00000548,0.00001230,-0.00002936,0.00001622,0.0
 0000374,0.00003089,-0.00022384,-0.00007583,0.00003049,0.00004906,0.000
 11426,0.00003281,-0.00002183,0.00008436,0.00038323,-0.00000637,-0.0000
 2330,0.00010949,-0.00026076,0.00038167,-0.00015133,0.00004048,-0.00014
 920,0.00414437,-0.00105399,0.00049805,-0.00018856,0.00017352,-0.000378
 99,0.00013721,0.00031741,-0.00025884,-0.00022222,-0.00010830,-0.000030
 14,0.00020525,-0.00016865,0.00006967,0.00010254,-0.00046032,-0.0002331
 8,0.00007136,0.00018850,0.00005486,0.00010253,0.00015633,0.00000057,0.
 00011206,0.00017744,0.00024857,-0.05666938,-0.06026561,-0.00721620,-0.
 03013238,-0.00523666,-0.00464749,0.06331770,0.06074231,-0.00045613,0.0
 0024300,0.00019252,0.00006300,0.00002506,0.00010619,-0.00021074,-0.000
 07448,-0.00004383,0.00004992,-0.00000223,0.00000026,-0.00017730,-0.000
 06094,0.00008691,-0.00000172,-0.00003598,0.00002110,0.00000575,0.00013
 963,-0.00001447,0.00006851,-0.00018025,-0.00006317,0.00002853,0.000034
 79,0.00005969,0.00002005,0.00000154,0.00005338,0.00019192,-0.00045228,
 0.00055395,0.00015700,0.00075482,-0.00009630,0.00029848,-0.00002832,0.
 00014440,-0.02762800,-0.00759134,-0.00002784,-0.00066658,-0.00035948,0
 .00073108,0.00043481,-0.00006759,-0.00091430,0.00009402,-0.00010877,-0
 .00003210,0.00010123,0.00018262,0.00052978,0.00028358,-0.00020451,-0.0
 0014416,0.00016128,0.00005486,0.00026823,-0.00008663,-0.00012191,-0.00
 004868,0.00004819,0.00037354,0.00034182,-0.03088212,-0.00636617,-0.051
 68247,0.00846852,0.00090331,0.00016178,0.03488228,0.00836821,0.0556385
 2,-0.00007181,-0.00006276,0.00011548,0.00001845,0.00002154,0.00004863,
 0.00002084,0.00000019,-0.00000523,-0.00001190,-0.00001013,-0.00001133,
 -0.00000754,0.00009080,-0.00018106,-0.00005095,-0.00005590,-0.00000395
 ,-0.00000844,-0.00001631,-0.00000250,-0.00016313,0.00028016,-0.0000814
 6,0.00004247,0.00055756,-0.00051711,0.00003562,-0.00005889,-0.00001644
 ,0.00020912,0.00012739,0.00060652,-0.00022558,0.00000190,0.00017649,-0
 .00007156,-0.00021043,-0.00000707,0.00474717,-0.00654655,-0.00515021,0
 .00031595,0.00014710,-0.00088262,0.00044958,0.00008426,-0.00030727,-0.
 00017161,0.00002809,-0.00009239,0.00049915,0.00009148,-0.00026304,-0.0
 0205614,-0.00010527,-0.00014685,-0.00016724,-0.00011206,-0.00004818,0.
 00015314,0.00008040,0.00015485,-0.00251231,-0.00020455,-0.00021066,-0.
 12468071,0.08428073,0.08807451,0.00234593,-0.00302995,-0.00389324,-0.0
 1631836,0.01874283,0.01863317,0.13691244,-0.00011008,-0.00006054,0.000
 18486,0.00003466,0.00002867,0.00009724,-0.00004944,0.00000776,-0.00002
 383,0.00001009,-0.00002827,-0.00003052,-0.00000620,0.00013464,0.000089
 39,-0.00002206,-0.00007835,0.00005892,-0.00006187,0.00004330,-0.000012
 00,0.00039219,-0.00030629,0.00060102,0.00059497,-0.00077709,0.00056103
 ,-0.00013485,0.00001501,-0.00002825,-0.00037137,0.00013929,-0.00001671
 ,-0.00014382,-0.00004862,-0.00002754,-0.00003234,0.00013759,-0.0001968
 4,-0.00358417,0.00242919,0.00314228,-0.00008459,0.00021760,0.00083167,
 0.00024314,-0.00003693,-0.00002498,-0.00012001,0.00047319,0.00025126,0
 .00006495,0.00055266,0.00021670,0.00056837,-0.00072403,-0.00032472,0.0
 0037941,0.00017745,0.00037353,-0.00024638,-0.00018710,-0.00015838,0.00
 020452,0.00118878,0.00038836,0.08359383,-0.13642231,-0.09327425,0.0179
 7190,-0.01674307,-0.01895309,-0.00424647,0.00460357,0.00584566,-0.0944
 8712,0.14526355,-0.00018702,0.00009289,0.00009812,0.00003904,0.0000041
 3,0.00007940,-0.00007030,-0.00001923,-0.00003308,0.00003680,0.00002345
 ,-0.00000790,-0.00028409,0.00002895,0.00013390,0.00013660,0.00003255,0
 .00010821,-0.00001459,0.00005677,-0.00002372,-0.00006549,0.00007109,-0
 .00080756,-0.00045117,0.00074996,0.00064937,-0.00003938,0.00001870,0.0
 0046322,0.00029001,-0.00122195,0.00090814,0.00013960,0.00023408,-0.000
 09312,0.00002713,-0.00016057,0.00024784,0.02127724,-0.01841331,-0.0161
 8511,-0.00315705,0.00182967,-0.00582547,0.00006278,0.00022242,0.000205
 82,-0.00019696,0.00001074,0.00022967,0.00126661,-0.00100994,-0.0014126
 8,0.00023754,-0.00049555,-0.00055834,0.00024025,0.00024858,0.00034182,
 0.00000763,0.00011897,-0.00000156,0.00021073,0.00038837,0.00111558,0.0
 8616729,-0.09289588,-0.14484805,-0.00532475,0.00459829,0.00511858,-0.0
 0229479,0.00357861,0.00267427,-0.09667342,0.10173908,0.15649323,-0.103
 29901,-0.03903688,-0.04161920,0.00380918,0.00503400,0.00654361,-0.0161
 4953,-0.01345806,-0.01375592,-0.00106737,0.00082546,0.00023515,-0.0784
 5279,-0.00524234,0.00010183,-0.00137267,-0.00217646,0.00211133,-0.0020
 6705,0.02634748,-0.00727853,0.00264189,-0.02956354,0.00852989,0.000745
 47,0.00069784,0.00017781,-0.00599244,-0.00289516,-0.00215348,0.0040849
 9,0.00119757,0.00175554,0.00028471,0.00256095,-0.00025075,-0.00020833,
 -0.00000705,0.00003461,-0.03837320,0.00217935,0.00295462,-0.00084144,-
 0.00128779,-0.00121520,0.00137710,0.00057557,0.00029354,-0.00032751,0.
 00029319,-0.00001654,-0.00037905,0.00001972,0.00029814,-0.07514823,-0.
 00749487,0.01123789,-0.00849389,-0.00414443,0.02762831,-0.00054259,0.0
 0111999,-0.00511072,0.00474664,0.00358427,-0.02127752,0.00415587,0.001
 17465,-0.00059111,-0.00036863,-0.00001041,-0.00076951,0.00100043,0.000
 25489,0.00199689,0.00012219,0.00064916,0.00021826,0.43710514,-0.031395
 47,-0.10536594,-0.03124252,0.00126239,-0.00040397,0.00165640,0.0103416
 2,0.00524342,0.00864902,-0.02158395,-0.01843197,-0.01945337,-0.0087547
 2,-0.15153720,0.02762775,0.00034781,-0.00453583,0.00081484,-0.00018656
 ,-0.00991478,0.00366977,-0.01034197,-0.01981664,-0.00030313,0.00071084
 ,0.00059175,0.00111525,-0.00014096,0.00120637,-0.00031605,-0.00116291,
 -0.00031916,-0.00003566,0.00077708,-0.00112568,0.00008376,-0.00000319,
 -0.00029388,0.00025519,-0.00217987,0.01507969,0.01001024,-0.00376055,-
 0.00233422,-0.00058523,-0.00159291,0.00089111,0.00054759,-0.00006688,0
 .00011961,-0.00009360,0.00017419,-0.00001913,0.00004205,-0.00753622,-0
 .07987779,0.01216894,0.00274081,-0.00105401,-0.00759106,-0.00829892,-0
 .00612584,0.03198096,0.00654613,0.00242932,-0.01841378,-0.00152541,-0.
 00095140,0.00058000,0.00029371,-0.00018243,0.00017128,-0.00063677,-0.0
 0013378,-0.00101852,0.00034096,0.00001873,-0.00073199,0.03853477,0.485
 77173,-0.03536609,-0.03144538,-0.11108519,-0.02111242,-0.01610793,-0.0
 2062001,0.00598344,0.00313214,0.00142422,0.00605282,0.00506116,0.00390
 288,-0.00086208,0.02308728,-0.08680899,-0.00006408,0.03339445,-0.01149
 545,0.00031877,-0.01272442,0.00155174,0.00173153,-0.01127202,0.0050063
 0,0.00001619,-0.00106664,-0.00075191,-0.00278253,-0.00206444,-0.000895
 84,0.00056285,0.00051899,0.00016139,-0.00031852,-0.00061883,0.00000112
 ,0.00009525,0.00012253,-0.00009271,-0.00295396,0.01001016,-0.00458698,
 0.00075494,0.00001046,-0.00048430,0.00017411,-0.00025479,0.00043120,-0
 .00003732,0.00007048,-0.00003906,0.00008193,0.00005627,0.00032467,0.00
 984970,0.01572724,-0.16080308,-0.00157946,0.00049812,-0.00002846,0.003
 37499,0.00069155,-0.00942822,0.00514965,0.00314223,-0.01618470,-0.0036
 0304,-0.00033159,0.00108582,-0.00016468,0.00032272,0.00010068,-0.00006
 438,-0.00027456,-0.00150427,-0.00024178,-0.00083346,-0.00075561,0.0186
 2342,0.00426398,0.47866341,-0.05294468,0.01462397,0.00217662,0.0021011
 7,0.00147151,0.00133250,-0.00645007,-0.00382383,-0.00416201,0.00207981
 ,0.00131921,0.00169871,-0.01437093,0.01465159,0.00377129,0.00038098,-0
 .00039915,-0.00086368,0.00165462,0.00318640,-0.00132455,-0.00486534,-0
 .00000009,0.00000005,0.00025156,0.,0.,0.00145786,0.,-0.00000002,-0.014
 37012,-0.01465146,-0.00377073,0.00165470,-0.00318620,0.00132450,0.0003
 8098,0.00039906,0.00086372,-0.12699006,-0.03709783,-0.01637912,-0.0529
 4432,-0.01462468,-0.00217531,-0.00645001,0.00382371,0.00416218,0.00207
 979,-0.00131920,-0.00169877,0.00210116,-0.00147146,-0.00133250,-0.0257
 8058,0.01039320,0.01121653,-0.00001091,0.00025352,0.00587775,0.0009833
 7,-0.00048132,-0.00212028,0.00064521,0.00100642,0.00159850,-0.02578149
 ,-0.01039389,-0.01121600,0.00098342,0.00048129,0.00212035,-0.00001113,
 -0.00025355,-0.00587791,0.00064520,-0.00100642,-0.00159849,-0.12698990
 ,0.03709696,0.01638075,0.44055972,-0.01264766,0.00877585,0.00262342,-0
 .00018621,-0.00001178,0.00033698,-0.00336126,-0.00092143,-0.00187638,0
 .00031875,0.00172613,0.00047484,0.03992717,-0.01978338,-0.00975732,-0.
 00020574,0.00181529,-0.00027749,0.00018996,-0.00805526,0.00235030,-0.0
 0000009,0.00663505,-0.00055418,0.,-0.00052700,-0.00065530,0.,0.0007863
 3,0.00030398,-0.03992727,-0.01978406,-0.00975647,-0.00018978,-0.008055
 30,0.00235032,0.00020570,0.00181527,-0.00027747,-0.02026898,-0.1089289
 1,-0.02311546,0.01264683,0.00877581,0.00262309,0.00336114,-0.00092132,
 -0.00187640,-0.00031874,0.00172611,0.00047483,0.00018625,-0.00001180,0
 .00033695,0.00520537,0.00092097,-0.00356840,-0.00078981,0.00139762,-0.
 00025419,-0.00043752,0.00165647,-0.00107454,-0.00002448,-0.00001837,0.
 00090116,-0.00520577,0.00092079,-0.00356843,0.00043748,0.00165649,-0.0
 0107452,0.00078979,0.00139762,-0.00025428,0.00002451,-0.00001838,0.000
 90113,0.02026811,-0.10892809,-0.02311569,0.00000221,0.23595927,-0.0164
 8327,0.00603625,0.00428789,0.00014797,0.00085780,0.00235722,-0.0026052
 2,-0.00134048,-0.00073524,0.00013043,0.00008610,0.00015603,-0.00334911
 ,0.00000190,0.00366093,-0.00015529,-0.00189684,0.00131781,-0.00047995,
 0.00194364,0.00092061,0.00000005,-0.00062669,-0.00046155,0.,0.00034074
 ,0.00046208,-0.00000002,0.00026041,0.00008494,0.00334948,0.00000224,0.
 00366093,0.00047991,0.00194370,0.00092057,0.00015533,-0.00189685,0.001
 31777,-0.01129599,-0.02385144,-0.06708803,0.01648456,0.00603682,0.0042
 8756,0.00260538,-0.00134053,-0.00073540,-0.00013048,0.00008613,0.00015
 608,-0.00014798,0.00085783,0.00235725,0.03593600,-0.01386145,-0.005145
 98,0.00267395,-0.00014833,-0.00699251,-0.00065380,-0.00102774,0.003288
 11,-0.00092612,-0.00047644,0.00168502,-0.03593531,-0.01386167,-0.00514
 484,0.00065388,-0.00102774,0.00328804,-0.00267412,-0.00014835,-0.00699
 230,0.00092616,-0.00047641,0.00168504,0.01129763,-0.02385214,-0.067088
 65,-0.00000408,0.06737951,0.12449066\\0.00000217,0.00000021,0.00000415
 ,0.00000196,-0.00000788,0.00000468,-0.00000021,-0.00000173,0.00000243,
 0.00000025,-0.00000325,0.00000731,0.00000267,-0.00000473,0.00000247,0.
 00000117,-0.00000848,-0.00000208,-0.00000126,-0.00000194,-0.00000477,0
 .,-0.00000023,-0.00000947,0.,0.00000499,-0.00000614,0.,-0.00000074,-0.
 00000824,-0.00000261,-0.00000466,0.00000250,0.00000125,-0.00000194,-0.
 00000475,-0.00000115,-0.00000846,-0.00000208,-0.00000062,0.00001380,-0
 .00001481,-0.00000219,0.00000025,0.00000414,0.00000023,-0.00000173,0.0
 0000245,-0.00000025,-0.00000325,0.00000731,-0.00000195,-0.00000788,0.0
 0000468,0.00000051,0.00000142,0.00000250,0.00000103,0.00000285,-0.0000
 0003,-0.00000108,0.00000386,0.00000487,0.00000320,0.00000711,0.0000036
 7,-0.00000055,0.00000144,0.00000248,0.00000110,0.00000387,0.00000486,-
 0.00000100,0.00000285,-0.00000004,-0.00000316,0.00000710,0.00000366,0.
 00000047,0.00001395,-0.00001482,0.00000004,-0.00000679,0.00000309\\\@
 Job cpu time:  0 days  4 hours 34 minutes 15.8 seconds.
 File lengths (MBytes):  RWF=  55525 Int=      0 D2E=      0 Chk=     16 Scr=      1
 Normal termination of Gaussian 09 at Tue Mar 11 14:49:05 2014.
