 Entering Gaussian System, Link 0=g09
 Initial command:
 /usr/caen/gaussian-09revc/g09/l1.exe /scratch/avioli_flux/hetanjin/scratch/Gau-32629.inp -scrdir=/scratch/avioli_flux/hetanjin/scratch/
 Entering Link 1 = /usr/caen/gaussian-09revc/g09/l1.exe PID=     32630.
  
 Copyright (c) 1988,1990,1992,1993,1995,1998,2003,2009,2011,
            Gaussian, Inc.  All Rights Reserved.
  
 This is part of the Gaussian(R) 09 program.  It is based on
 the Gaussian(R) 03 system (copyright 2003, Gaussian, Inc.),
 the Gaussian(R) 98 system (copyright 1998, Gaussian, Inc.),
 the Gaussian(R) 94 system (copyright 1995, Gaussian, Inc.),
 the Gaussian 92(TM) system (copyright 1992, Gaussian, Inc.),
 the Gaussian 90(TM) system (copyright 1990, Gaussian, Inc.),
 the Gaussian 88(TM) system (copyright 1988, Gaussian, Inc.),
 the Gaussian 86(TM) system (copyright 1986, Carnegie Mellon
 University), and the Gaussian 82(TM) system (copyright 1983,
 Carnegie Mellon University). Gaussian is a federally registered
 trademark of Gaussian, Inc.
  
 This software contains proprietary and confidential information,
 including trade secrets, belonging to Gaussian, Inc.
  
 This software is provided under written license and may be
 used, copied, transmitted, or stored only in accord with that
 written license.
  
 The following legend is applicable only to US Government
 contracts under FAR:
  
                    RESTRICTED RIGHTS LEGEND
  
 Use, reproduction and disclosure by the US Government is
 subject to restrictions as set forth in subparagraphs (a)
 and (c) of the Commercial Computer Software - Restricted
 Rights clause in FAR 52.227-19.
  
 Gaussian, Inc.
 340 Quinnipiac St., Bldg. 40, Wallingford CT 06492
  
  
 ---------------------------------------------------------------
 Warning -- This program may not be used in any manner that
 competes with the business of Gaussian, Inc. or will provide
 assistance to any competitor of Gaussian, Inc.  The licensee
 of this program is prohibited from giving any competitor of
 Gaussian, Inc. access to this program.  By using this program,
 the user acknowledges that Gaussian, Inc. is engaged in the
 business of creating and licensing software in the field of
 computational chemistry and represents and warrants to the
 licensee that it is not a competitor of Gaussian, Inc. and that
 it will not use this program in any manner prohibited above.
 ---------------------------------------------------------------
  

 Cite this work as:
 Gaussian 09, Revision C.01,
 M. J. Frisch, G. W. Trucks, H. B. Schlegel, G. E. Scuseria, 
 M. A. Robb, J. R. Cheeseman, G. Scalmani, V. Barone, B. Mennucci, 
 G. A. Petersson, H. Nakatsuji, M. Caricato, X. Li, H. P. Hratchian, 
 A. F. Izmaylov, J. Bloino, G. Zheng, J. L. Sonnenberg, M. Hada, 
 M. Ehara, K. Toyota, R. Fukuda, J. Hasegawa, M. Ishida, T. Nakajima, 
 Y. Honda, O. Kitao, H. Nakai, T. Vreven, J. A. Montgomery, Jr., 
 J. E. Peralta, F. Ogliaro, M. Bearpark, J. J. Heyd, E. Brothers, 
 K. N. Kudin, V. N. Staroverov, T. Keith, R. Kobayashi, J. Normand, 
 K. Raghavachari, A. Rendell, J. C. Burant, S. S. Iyengar, J. Tomasi, 
 M. Cossi, N. Rega, J. M. Millam, M. Klene, J. E. Knox, J. B. Cross, 
 V. Bakken, C. Adamo, J. Jaramillo, R. Gomperts, R. E. Stratmann, 
 O. Yazyev, A. J. Austin, R. Cammi, C. Pomelli, J. W. Ochterski, 
 R. L. Martin, K. Morokuma, V. G. Zakrzewski, G. A. Voth, 
 P. Salvador, J. J. Dannenberg, S. Dapprich, A. D. Daniels, 
 O. Farkas, J. B. Foresman, J. V. Ortiz, J. Cioslowski, 
 and D. J. Fox, Gaussian, Inc., Wallingford CT, 2010.
 
 ******************************************
 Gaussian 09:  EM64L-G09RevC.01 23-Sep-2011
                 8-Feb-2014 
 ******************************************
 %mem=30GB
 %nprocshared=8
 Will use up to    8 processors via shared memory.
 %chk=C9H18OOH_2_26_d.chk
 --------------------------------------------------
 #p UB3LYP/6-311++G(d,p) guess=mix stable=(opt,xqc)
 --------------------------------------------------
 1/38=1/1;
 2/12=2,17=6,18=5,40=1/2;
 3/5=4,6=6,7=1111,11=2,16=1,25=1,30=1,74=-5,116=2/1,2,3;
 4/13=-1/1;
 5/5=2,38=5/2;
 6/7=2,8=2,9=2,10=2,28=1/1;
 8/6=1,10=90,11=11/1;
 9/8=-3,42=1,46=1/14;
 5/5=2,8=3,13=1,17=40,38=5/2,8(-2);
 6/7=2,8=2,9=2,10=2,28=1/1;
 99/5=1,9=1/99;
 Leave Link    1 at Sat Feb  8 14:48:31 2014, MaxMem= 4026531840 cpu:       0.5
 (Enter /usr/caen/gaussian-09revc/g09/l101.exe)
 --------------------------------------------
 C9H18OOH_2_26_d using cbs-qb3 to cal. energy
 --------------------------------------------
 Charge =  0 Multiplicity = 2
 Symbolic Z-Matrix:
 C                     3.33844   0.31239   0.74502 
 H                     3.1947   -0.21554   1.68935 
 H                     3.61953   1.3438    0.97259 
 H                     4.16499  -0.15425   0.20196 
 C                     0.86253   0.8792    0.70101 
 H                     0.76557   0.28211   1.61382 
 H                     1.16765   1.88672   1.00916 
 C                    -0.44699   0.93934  -0.01213 
 H                    -0.65367   1.80335  -0.63935 
 C                    -1.39024  -0.21493  -0.08178 
 H                    -1.30558  -0.81898   0.83213 
 H                    -1.07672  -0.89442  -0.89286 
 C                    -2.86645   0.17185  -0.31013 
 H                    -2.90418   0.8177   -1.19852 
 C                    -3.71855  -1.07096  -0.59714 
 H                    -3.70241  -1.75982   0.25478 
 H                    -4.76221  -0.80153  -0.78531 
 H                    -3.34882  -1.61532  -1.47113 
 C                     2.26909   0.99064  -1.44037 
 H                     2.45977   2.05312  -1.26945 
 H                     3.12435   0.56604  -1.97072 
 H                     1.38409   0.89479  -2.07108 
 C                    -3.43513   0.96394   0.87498 
 H                    -4.46825   1.27164   0.68674 
 H                    -3.43028   0.35341   1.7852 
 H                    -2.84617   1.86289   1.07603 
 C                     2.062     0.28403  -0.09912 
 O                     1.76315  -1.07054  -0.52403 
 O                     1.52821  -1.91083   0.64387 
 H                     2.23851  -2.55775   0.53586 
 
 NAtoms=     30 NQM=        0 NQMF=       0 NMMI=     30 NMMIF=      0
                NMic=       0 NMicF=      0.
                    Isotopes and Nuclear Properties:
 (Nuclear quadrupole moments (NQMom) in fm**2, nuclear magnetic moments (NMagM)
  in nuclear magnetons)

  Atom         1           2           3           4           5           6           7           8           9          10
 IAtWgt=          12           1           1           1          12           1           1          12           1          12
 AtmWgt=  12.0000000   1.0078250   1.0078250   1.0078250  12.0000000   1.0078250   1.0078250  12.0000000   1.0078250  12.0000000
 NucSpn=           0           1           1           1           0           1           1           0           1           0
 AtZEff=   0.0000000   0.0000000   0.0000000   0.0000000   0.0000000   0.0000000   0.0000000   0.0000000   0.0000000   0.0000000
 NQMom=    0.0000000   0.0000000   0.0000000   0.0000000   0.0000000   0.0000000   0.0000000   0.0000000   0.0000000   0.0000000
 NMagM=    0.0000000   2.7928460   2.7928460   2.7928460   0.0000000   2.7928460   2.7928460   0.0000000   2.7928460   0.0000000

  Atom        11          12          13          14          15          16          17          18          19          20
 IAtWgt=           1           1          12           1          12           1           1           1          12           1
 AtmWgt=   1.0078250   1.0078250  12.0000000   1.0078250  12.0000000   1.0078250   1.0078250   1.0078250  12.0000000   1.0078250
 NucSpn=           1           1           0           1           0           1           1           1           0           1
 AtZEff=   0.0000000   0.0000000   0.0000000   0.0000000   0.0000000   0.0000000   0.0000000   0.0000000   0.0000000   0.0000000
 NQMom=    0.0000000   0.0000000   0.0000000   0.0000000   0.0000000   0.0000000   0.0000000   0.0000000   0.0000000   0.0000000
 NMagM=    2.7928460   2.7928460   0.0000000   2.7928460   0.0000000   2.7928460   2.7928460   2.7928460   0.0000000   2.7928460

  Atom        21          22          23          24          25          26          27          28          29          30
 IAtWgt=           1           1          12           1           1           1          12          16          16           1
 AtmWgt=   1.0078250   1.0078250  12.0000000   1.0078250   1.0078250   1.0078250  12.0000000  15.9949146  15.9949146   1.0078250
 NucSpn=           1           1           0           1           1           1           0           0           0           1
 AtZEff=   0.0000000   0.0000000   0.0000000   0.0000000   0.0000000   0.0000000   0.0000000   0.0000000   0.0000000   0.0000000
 NQMom=    0.0000000   0.0000000   0.0000000   0.0000000   0.0000000   0.0000000   0.0000000   0.0000000   0.0000000   0.0000000
 NMagM=    2.7928460   2.7928460   0.0000000   2.7928460   2.7928460   2.7928460   0.0000000   0.0000000   0.0000000   2.7928460
 Leave Link  101 at Sat Feb  8 14:48:31 2014, MaxMem= 4026531840 cpu:       0.5
 (Enter /usr/caen/gaussian-09revc/g09/l202.exe)
                          Input orientation:                          
 ---------------------------------------------------------------------
 Center     Atomic      Atomic             Coordinates (Angstroms)
 Number     Number       Type             X           Y           Z
 ---------------------------------------------------------------------
      1          6           0        3.338441    0.312386    0.745023
      2          1           0        3.194696   -0.215544    1.689354
      3          1           0        3.619531    1.343804    0.972590
      4          1           0        4.164988   -0.154248    0.201957
      5          6           0        0.862531    0.879203    0.701005
      6          1           0        0.765568    0.282105    1.613823
      7          1           0        1.167654    1.886724    1.009161
      8          6           0       -0.446992    0.939338   -0.012126
      9          1           0       -0.653665    1.803350   -0.639354
     10          6           0       -1.390238   -0.214931   -0.081780
     11          1           0       -1.305581   -0.818980    0.832134
     12          1           0       -1.076724   -0.894419   -0.892858
     13          6           0       -2.866447    0.171849   -0.310131
     14          1           0       -2.904177    0.817704   -1.198516
     15          6           0       -3.718550   -1.070963   -0.597138
     16          1           0       -3.702406   -1.759823    0.254783
     17          1           0       -4.762208   -0.801529   -0.785309
     18          1           0       -3.348822   -1.615322   -1.471129
     19          6           0        2.269089    0.990644   -1.440365
     20          1           0        2.459773    2.053122   -1.269449
     21          1           0        3.124352    0.566035   -1.970720
     22          1           0        1.384087    0.894791   -2.071081
     23          6           0       -3.435127    0.963942    0.874975
     24          1           0       -4.468254    1.271643    0.686735
     25          1           0       -3.430281    0.353413    1.785198
     26          1           0       -2.846170    1.862891    1.076030
     27          6           0        2.061996    0.284025   -0.099118
     28          8           0        1.763152   -1.070540   -0.524032
     29          8           0        1.528212   -1.910825    0.643873
     30          1           0        2.238509   -2.557753    0.535864
 ---------------------------------------------------------------------
                    Distance matrix (angstroms):
                    1          2          3          4          5
     1  C    0.000000
     2  H    1.091391   0.000000
     3  H    1.092987   1.767994   0.000000
     4  H    1.093548   1.776956   1.770751   0.000000
     5  C    2.540344   2.759402   2.809032   3.496183   0.000000
     6  H    2.715770   2.480730   3.111831   3.706727   1.095064
     7  H    2.694555   2.998515   2.511533   3.714991   1.096886
     8  C    3.910990   4.182186   4.203554   4.744694   1.492321
     9  H    4.480668   4.930385   4.590180   5.268720   2.224738
    10  C    4.829293   4.915133   5.351555   5.562798   2.623900
    11  H    4.780640   4.620763   5.380901   5.546721   2.757123
    12  H    4.861349   5.037233   5.526694   5.405739   3.073572
    13  C    6.295533   6.394175   6.714668   7.057595   3.927852
    14  H    6.557665   6.826686   6.895596   7.271802   4.219011
    15  C    7.315475   7.331627   7.883056   7.976784   5.145350
    16  H    7.355808   7.211991   7.984893   8.029729   5.291713
    17  H    8.318848   8.353422   8.828715   9.004915   6.055715
    18  H    7.303894   7.400382   7.955258   7.835260   5.355027
    19  C    2.525761   3.479480   2.787610   2.757251   2.564428
    20  H    2.803626   3.800194   2.622005   3.153613   2.794988
    21  H    2.735952   3.743255   3.084348   2.514410   3.514544
    22  H    3.476944   4.318798   3.802993   3.741737   2.820767
    23  C    6.806073   6.782990   7.065552   7.711359   4.302012
    24  H    7.865625   7.870055   8.093157   8.763620   5.345230
    25  H    6.848302   6.650054   7.165267   7.775119   4.458718
    26  H    6.384594   6.417797   6.487329   7.347734   3.855224
    27  C    1.530585   2.175135   2.167396   2.169171   1.559856
    28  O    2.450412   2.771176   3.393387   2.671230   2.472515
    29  O    2.868768   2.596955   3.882561   3.198975   2.868911
    30  H    3.080795   2.780427   4.161742   3.098330   3.705840
                    6          7          8          9         10
     6  H    0.000000
     7  H    1.761276   0.000000
     8  C    2.132127   2.132522   0.000000
     9  H    3.066792   2.457998   1.087495   0.000000
    10  C    2.787403   3.485673   1.492281   2.219659   0.000000
    11  H    2.472465   3.670022   2.131111   3.076831   1.098763
    12  H    3.325913   4.048415   2.129534   2.742481   1.103559
    13  C    4.111604   4.577696   2.555701   2.768860   1.543028
    14  H    4.654368   4.753572   2.731314   2.519715   2.146030
    15  C    5.179426   5.933220   3.884153   4.202021   2.533658
    16  H    5.096985   6.130569   4.237267   4.773940   2.801087
    17  H    6.122614   6.753524   4.716940   4.866911   3.494171
    18  H    5.481365   6.230146   4.132263   4.432047   2.779827
    19  C    3.477164   2.831306   3.069136   3.137611   4.085320
    20  H    3.784189   2.624752   3.357180   3.186362   4.623549
    21  H    4.300398   3.801655   4.090225   4.192481   4.955757
    22  H    3.786353   3.243249   2.755745   2.650991   3.589663
    23  C    4.319333   4.696288   3.117131   3.276329   2.546899
    24  H    5.406623   5.678533   4.095044   4.073366   3.503527
    25  H    4.199953   4.908593   3.531812   3.961107   2.823189
    26  H    3.979040   4.014452   2.791610   2.784451   2.788836
    27  C    2.148231   2.144009   2.594614   3.158325   3.488148
    28  O    2.719420   3.383890   3.030906   3.756800   3.297199
    29  O    2.516222   3.832077   3.529192   4.494703   3.452532
    30  H    3.375847   4.596098   4.443181   5.363304   4.363268
                   11         12         13         14         15
    11  H    0.000000
    12  H    1.741742   0.000000
    13  C    2.173204   2.163240   0.000000
    14  H    3.059049   2.522772   1.098991   0.000000
    15  C    2.815801   2.664181   1.533960   2.142877   0.000000
    16  H    2.638805   2.993361   2.179292   3.064783   1.095700
    17  H    3.816372   3.688223   2.183385   2.498987   1.094178
    18  H    3.180254   2.452861   2.185082   2.488301   1.094023
    19  C    4.606219   3.879135   5.321803   5.181803   6.388511
    20  H    5.181072   4.619159   5.729581   5.504839   6.955831
    21  H    5.422044   4.576434   6.229174   6.082993   7.168807
    22  H    4.312770   3.262679   4.657320   4.376816   5.663356
    23  C    2.777699   3.484366   1.534694   2.145381   2.527505
    24  H    3.793988   4.323126   2.183821   2.491299   2.774561
    25  H    2.607141   3.777340   2.177448   3.065110   2.790604
    26  H    3.102472   3.822331   2.186659   2.503865   3.488271
    27  C    3.663936   3.445333   4.934234   5.114329   5.958081
    28  O    3.364460   2.869137   4.798174   5.079799   5.482189
    29  O    3.042688   3.190661   4.955874   5.521353   5.456555
    30  H    3.958747   3.974757   5.850385   6.391322   6.243460
                   16         17         18         19         20
    16  H    0.000000
    17  H    1.767286   0.000000
    18  H    1.767675   1.769256   0.000000
    19  C    6.789503   7.285610   6.192974   0.000000
    20  H    7.405017   7.780773   6.872986   1.092901   0.000000
    21  H    7.547656   8.091555   6.849080   1.092266   1.773379
    22  H    6.191044   6.504433   5.390829   1.090972   1.772412
    23  C    2.806238   2.763073   3.487729   6.156264   6.366688
    24  H    3.156405   2.559563   3.774132   7.070736   7.241196
    25  H    2.623354   3.116958   3.806077   6.579752   6.849278
    26  H    3.812039   3.772919   4.340351   5.767056   5.804351
    27  C    6.126246   6.943994   5.896345   1.530079   2.158149
    28  O    5.563631   6.536127   5.227433   2.311735   3.286060
    29  O    5.247243   6.545417   5.324098   3.648489   4.499054
    30  H    6.000847   7.337565   6.011195   4.061716   4.956640
                   21         22         23         24         25
    21  H    0.000000
    22  H    1.773887   0.000000
    23  C    7.161220   5.648792   0.000000
    24  H    8.075123   6.480545   1.094288   0.000000
    25  H    7.557469   6.192101   1.096027   1.768376   0.000000
    26  H    6.827273   5.360653   1.093345   1.769825   1.767096
    27  C    2.170489   2.172840   5.624012   6.651099   5.806941
    28  O    2.573742   2.529738   5.754862   6.766254   5.859346
    29  O    3.939365   3.906818   5.740420   6.788781   5.569205
    30  H    4.101918   4.409791   6.686365   7.724487   6.493913
                   26         27         28         29         30
    26  H    0.000000
    27  C    5.288089   0.000000
    28  O    5.693072   1.450760   0.000000
    29  O    5.793350   2.377883   1.457833   0.000000
    30  H    6.759278   2.917201   1.887100   0.966801   0.000000
 Stoichiometry    C9H19O2(2)
 Framework group  C1[X(C9H19O2)]
 Deg. of freedom    84
 Full point group                 C1      NOp   1
 Largest Abelian subgroup         C1      NOp   1
 Largest concise Abelian subgroup C1      NOp   1
                         Standard orientation:                         
 ---------------------------------------------------------------------
 Center     Atomic      Atomic             Coordinates (Angstroms)
 Number     Number       Type             X           Y           Z
 ---------------------------------------------------------------------
      1          6           0        3.338441   -0.312386   -0.745023
      2          1           0        3.194696    0.215544   -1.689354
      3          1           0        3.619531   -1.343804   -0.972590
      4          1           0        4.164988    0.154248   -0.201957
      5          6           0        0.862531   -0.879203   -0.701005
      6          1           0        0.765568   -0.282105   -1.613823
      7          1           0        1.167654   -1.886724   -1.009161
      8          6           0       -0.446992   -0.939338    0.012126
      9          1           0       -0.653665   -1.803350    0.639354
     10          6           0       -1.390238    0.214931    0.081780
     11          1           0       -1.305581    0.818980   -0.832134
     12          1           0       -1.076724    0.894419    0.892858
     13          6           0       -2.866447   -0.171849    0.310131
     14          1           0       -2.904177   -0.817704    1.198516
     15          6           0       -3.718550    1.070963    0.597138
     16          1           0       -3.702406    1.759823   -0.254783
     17          1           0       -4.762208    0.801529    0.785309
     18          1           0       -3.348822    1.615322    1.471129
     19          6           0        2.269089   -0.990644    1.440365
     20          1           0        2.459773   -2.053122    1.269449
     21          1           0        3.124352   -0.566035    1.970720
     22          1           0        1.384087   -0.894791    2.071081
     23          6           0       -3.435127   -0.963942   -0.874975
     24          1           0       -4.468254   -1.271643   -0.686735
     25          1           0       -3.430281   -0.353413   -1.785198
     26          1           0       -2.846170   -1.862891   -1.076030
     27          6           0        2.061996   -0.284025    0.099118
     28          8           0        1.763152    1.070540    0.524032
     29          8           0        1.528212    1.910825   -0.643873
     30          1           0        2.238509    2.557753   -0.535864
 ---------------------------------------------------------------------
 Rotational constants (GHZ):      1.9233792      0.4897103      0.4550288
 Leave Link  202 at Sat Feb  8 14:48:32 2014, MaxMem= 4026531840 cpu:       0.3
 (Enter /usr/caen/gaussian-09revc/g09/l301.exe)
 Standard basis: 6-311++G(d,p) (5D, 7F)
 Ernie: Thresh=  0.10000D-02 Tol=  0.10000D-05 Strict=F.
 There are   375 symmetry adapted basis functions of A   symmetry.
 Integral buffers will be    131072 words long.
 Raffenetti 2 integral format.
 Two-electron integral symmetry is turned on.
   375 basis functions,   567 primitive gaussians,   386 cartesian basis functions
    45 alpha electrons       44 beta electrons
       nuclear repulsion energy       668.5757491843 Hartrees.
 IExCor=  402 DFT=T Ex+Corr=B3LYP ExCW=0 ScaHFX=  0.200000
 ScaDFX=  0.800000  0.720000  1.000000  0.810000 ScalE2=  1.000000  1.000000
 IRadAn=      0 IRanWt=     -1 IRanGd=            0 ICorTp=0
 NAtoms=   30 NActive=   30 NUniq=   30 SFac= 1.00D+00 NAtFMM=   60 NAOKFM=F Big=F
 Leave Link  301 at Sat Feb  8 14:48:32 2014, MaxMem= 4026531840 cpu:       1.0
 (Enter /usr/caen/gaussian-09revc/g09/l302.exe)
 NPDir=0 NMtPBC=     1 NCelOv=     1 NCel=       1 NClECP=     1 NCelD=      1
         NCelK=      1 NCelE2=     1 NClLst=     1 CellRange=     0.0.
 One-electron integrals computed using PRISM.
 NBasis=   375 RedAO= T  NBF=   375
 NBsUse=   375 1.00D-06 NBFU=   375
 Precomputing XC quadrature grid using
 IXCGrd= 2 IRadAn=           0 IRanWt=          -1 IRanGd=           0 AccXCQ= 0.00D+00.
 NRdTot=    1961 NPtTot=      249392 NUsed=      263522 NTot=      263554
 NSgBfM=   386   386   386   386   386 NAtAll=    30    30.
 Leave Link  302 at Sat Feb  8 14:48:34 2014, MaxMem= 4026531840 cpu:       9.0
 (Enter /usr/caen/gaussian-09revc/g09/l303.exe)
 DipDrv:  MaxL=1.
 Leave Link  303 at Sat Feb  8 14:48:35 2014, MaxMem= 4026531840 cpu:       2.3
 (Enter /usr/caen/gaussian-09revc/g09/l401.exe)
 Harris functional with IExCor=  402 diagonalized for initial guess.
 ExpMin= 3.60D-02 ExpMax= 8.59D+03 ExpMxC= 1.30D+03 IAcc=3 IRadAn=         5 AccDes= 0.00D+00
 HarFok:  IExCor=  402 AccDes= 0.00D+00 IRadAn=         5 IDoV= 1
 ScaDFX=  1.000000  1.000000  1.000000  1.000000
 FoFCou: FMM=F IPFlag=           0 FMFlag=      100000 FMFlg1=           0
         NFxFlg=           0 DoJE=T BraDBF=F KetDBF=T FulRan=T
         Omega=  0.000000  0.000000  1.000000  0.000000  0.000000 ICntrl=     500 IOpCl=  0
         NMat0=    1 NMatS0=    1 NMatT0=    0 NMatD0=    1 NMtDS0=    0 NMtDT0=    0
         I1Cent=           4 NGrid=           0.
 Petite list used in FoFCou.
 Harris En= -504.927065448049    
 Mixing orbitals, IMix= 1 IMixAn=  0 NRI=1 NE=   45 Coef=  7.07106781D-01  7.07106781D-01
 Mixing orbitals, IMix= 1 IMixAn=  0 NRI=1 NE=   44 Coef= -7.07106781D-01  7.07106781D-01
 Initial guess orbital symmetries:
 Alpha Orbitals:
       Occupied  (A) (A) (A) (A) (A) (A) (A) (A) (A) (A) (A) (A)
                 (A) (A) (A) (A) (A) (A) (A) (A) (A) (A) (A) (A)
                 (A) (A) (A) (A) (A) (A) (A) (A) (A) (A) (A) (A)
                 (A) (A) (A) (A) (A) (A) (A) (A) (A)
       Virtual   (A) (A) (A) (A) (A) (A) (A) (A) (A) (A) (A) (A)
                 (A) (A) (A) (A) (A) (A) (A) (A) (A) (A) (A) (A)
                 (A) (A) (A) (A) (A) (A) (A) (A) (A) (A) (A) (A)
                 (A) (A) (A) (A) (A) (A) (A) (A) (A) (A) (A) (A)
                 (A) (A) (A) (A) (A) (A) (A) (A) (A) (A) (A) (A)
                 (A) (A) (A) (A) (A) (A) (A) (A) (A) (A) (A) (A)
                 (A) (A) (A) (A) (A) (A) (A) (A) (A) (A) (A) (A)
                 (A) (A) (A) (A) (A) (A) (A) (A) (A) (A) (A) (A)
                 (A) (A) (A) (A) (A) (A) (A) (A) (A) (A) (A) (A)
                 (A) (A) (A) (A) (A) (A) (A) (A) (A) (A) (A) (A)
                 (A) (A) (A) (A) (A) (A) (A) (A) (A) (A) (A) (A)
                 (A) (A) (A) (A) (A) (A) (A) (A) (A) (A) (A) (A)
                 (A) (A) (A) (A) (A) (A) (A) (A) (A) (A) (A) (A)
                 (A) (A) (A) (A) (A) (A) (A) (A) (A) (A) (A) (A)
                 (A) (A) (A) (A) (A) (A) (A) (A) (A) (A) (A) (A)
                 (A) (A) (A) (A) (A) (A) (A) (A) (A) (A) (A) (A)
                 (A) (A) (A) (A) (A) (A) (A) (A) (A) (A) (A) (A)
                 (A) (A) (A) (A) (A) (A) (A) (A) (A) (A) (A) (A)
                 (A) (A) (A) (A) (A) (A) (A) (A) (A) (A) (A) (A)
                 (A) (A) (A) (A) (A) (A) (A) (A) (A) (A) (A) (A)
                 (A) (A) (A) (A) (A) (A) (A) (A) (A) (A) (A) (A)
                 (A) (A) (A) (A) (A) (A) (A) (A) (A) (A) (A) (A)
                 (A) (A) (A) (A) (A) (A) (A) (A) (A) (A) (A) (A)
                 (A) (A) (A) (A) (A) (A) (A) (A) (A) (A) (A) (A)
                 (A) (A) (A) (A) (A) (A) (A) (A) (A) (A) (A) (A)
                 (A) (A) (A) (A) (A) (A) (A) (A) (A) (A) (A) (A)
                 (A) (A) (A) (A) (A) (A) (A) (A) (A) (A) (A) (A)
                 (A) (A) (A) (A) (A) (A)
 Beta  Orbitals:
       Occupied  (A) (A) (A) (A) (A) (A) (A) (A) (A) (A) (A) (A)
                 (A) (A) (A) (A) (A) (A) (A) (A) (A) (A) (A) (A)
                 (A) (A) (A) (A) (A) (A) (A) (A) (A) (A) (A) (A)
                 (A) (A) (A) (A) (A) (A) (A) (A)
       Virtual   (A) (A) (A) (A) (A) (A) (A) (A) (A) (A) (A) (A)
                 (A) (A) (A) (A) (A) (A) (A) (A) (A) (A) (A) (A)
                 (A) (A) (A) (A) (A) (A) (A) (A) (A) (A) (A) (A)
                 (A) (A) (A) (A) (A) (A) (A) (A) (A) (A) (A) (A)
                 (A) (A) (A) (A) (A) (A) (A) (A) (A) (A) (A) (A)
                 (A) (A) (A) (A) (A) (A) (A) (A) (A) (A) (A) (A)
                 (A) (A) (A) (A) (A) (A) (A) (A) (A) (A) (A) (A)
                 (A) (A) (A) (A) (A) (A) (A) (A) (A) (A) (A) (A)
                 (A) (A) (A) (A) (A) (A) (A) (A) (A) (A) (A) (A)
                 (A) (A) (A) (A) (A) (A) (A) (A) (A) (A) (A) (A)
                 (A) (A) (A) (A) (A) (A) (A) (A) (A) (A) (A) (A)
                 (A) (A) (A) (A) (A) (A) (A) (A) (A) (A) (A) (A)
                 (A) (A) (A) (A) (A) (A) (A) (A) (A) (A) (A) (A)
                 (A) (A) (A) (A) (A) (A) (A) (A) (A) (A) (A) (A)
                 (A) (A) (A) (A) (A) (A) (A) (A) (A) (A) (A) (A)
                 (A) (A) (A) (A) (A) (A) (A) (A) (A) (A) (A) (A)
                 (A) (A) (A) (A) (A) (A) (A) (A) (A) (A) (A) (A)
                 (A) (A) (A) (A) (A) (A) (A) (A) (A) (A) (A) (A)
                 (A) (A) (A) (A) (A) (A) (A) (A) (A) (A) (A) (A)
                 (A) (A) (A) (A) (A) (A) (A) (A) (A) (A) (A) (A)
                 (A) (A) (A) (A) (A) (A) (A) (A) (A) (A) (A) (A)
                 (A) (A) (A) (A) (A) (A) (A) (A) (A) (A) (A) (A)
                 (A) (A) (A) (A) (A) (A) (A) (A) (A) (A) (A) (A)
                 (A) (A) (A) (A) (A) (A) (A) (A) (A) (A) (A) (A)
                 (A) (A) (A) (A) (A) (A) (A) (A) (A) (A) (A) (A)
                 (A) (A) (A) (A) (A) (A) (A) (A) (A) (A) (A) (A)
                 (A) (A) (A) (A) (A) (A) (A) (A) (A) (A) (A) (A)
                 (A) (A) (A) (A) (A) (A) (A)
 The electronic state of the initial guess is 2-A.
 Initial guess <Sx>= 0.0000 <Sy>= 0.0000 <Sz>= 0.5000 <S**2>= 1.0000 S= 0.6180
 Leave Link  401 at Sat Feb  8 14:48:40 2014, MaxMem= 4026531840 cpu:      37.5
 (Enter /usr/caen/gaussian-09revc/g09/l502.exe)
 UHF open shell SCF:
 Requested convergence on RMS density matrix=1.00D-08 within 128 cycles.
 Requested convergence on MAX density matrix=1.00D-06.
 Requested convergence on             energy=1.00D-06.
 No special actions if energy rises.
 Using DIIS extrapolation, IDIIS=  1040.
 Integral symmetry usage will be decided dynamically.
       263239 words used for storage of precomputed grid.
 IEnd=      734373 IEndB=      734373 NGot=  4026531840 MDV=  4025963490
 LenX=  4025963490 LenY=  4025814053
 Fock matrices will be formed incrementally for  20 cycles.

 Cycle   1  Pass 1  IDiag  1:
 FoFCou: FMM=F IPFlag=           0 FMFlag=      100000 FMFlg1=           0
         NFxFlg=           0 DoJE=F BraDBF=F KetDBF=F FulRan=T
         Omega=  0.000000  0.000000  1.000000  0.000000  0.000000 ICntrl=       0 IOpCl=  1
         NMat0=    1 NMatS0=    1 NMatT0=    0 NMatD0=    1 NMtDS0=    0 NMtDT0=    0
         I1Cent=           0 NGrid=           0.
 Symmetry not used in FoFCou.
 E= -504.341169260245    
 DIIS: error= 3.77D-02 at cycle   1 NSaved=   1.
 NSaved= 1 IEnMin= 1 EnMin= -504.341169260245     IErMin= 1 ErrMin= 3.77D-02
 ErrMax= 3.77D-02 EMaxC= 1.00D-01 BMatC= 1.64D+00 BMatP= 1.64D+00
 IDIUse=3 WtCom= 6.23D-01 WtEn= 3.77D-01
 Coeff-Com:  0.100D+01
 Coeff-En:   0.100D+01
 Coeff:      0.100D+01
 Gap=     0.033 Goal=   None    Shift=    0.000
 Gap=     0.038 Goal=   None    Shift=    0.000
 GapD=    0.033 DampG=0.250 DampE=0.500 DampFc=0.2500 IDamp=-1.
 Damping current iteration by 2.50D-01
 RMSDP=1.57D-02 MaxDP=1.79D+00              OVMax= 5.71D-01

 Cycle   2  Pass 1  IDiag  1:
 RMSU=  2.06D-03    CP:  8.99D-01
 E= -504.503424987055     Delta-E=       -0.162255726810 Rises=F Damp=T
 DIIS: error= 1.66D-02 at cycle   2 NSaved=   2.
 NSaved= 2 IEnMin= 2 EnMin= -504.503424987055     IErMin= 2 ErrMin= 1.66D-02
 ErrMax= 1.66D-02 EMaxC= 1.00D-01 BMatC= 4.02D-01 BMatP= 1.64D+00
 IDIUse=3 WtCom= 8.34D-01 WtEn= 1.66D-01
 Coeff-Com: -0.813D+00 0.181D+01
 Coeff-En:   0.000D+00 0.100D+01
 Coeff:     -0.678D+00 0.168D+01
 Gap=     0.122 Goal=   None    Shift=    0.000
 Gap=     0.143 Goal=   None    Shift=    0.000
 RMSDP=6.05D-03 MaxDP=5.89D-01 DE=-1.62D-01 OVMax= 1.89D-01

 Cycle   3  Pass 1  IDiag  1:
 RMSU=  3.91D-03    CP:  7.54D-01  1.47D+00
 E= -504.845522696421     Delta-E=       -0.342097709366 Rises=F Damp=F
 DIIS: error= 5.85D-03 at cycle   3 NSaved=   3.
 NSaved= 3 IEnMin= 3 EnMin= -504.845522696421     IErMin= 3 ErrMin= 5.85D-03
 ErrMax= 5.85D-03 EMaxC= 1.00D-01 BMatC= 5.28D-02 BMatP= 4.02D-01
 IDIUse=3 WtCom= 9.41D-01 WtEn= 5.85D-02
 Coeff-Com: -0.296D+00 0.694D+00 0.602D+00
 Coeff-En:   0.000D+00 0.000D+00 0.100D+01
 Coeff:     -0.278D+00 0.653D+00 0.625D+00
 Gap=     0.142 Goal=   None    Shift=    0.000
 Gap=     0.197 Goal=   None    Shift=    0.000
 RMSDP=1.45D-03 MaxDP=1.25D-01 DE=-3.42D-01 OVMax= 6.93D-02

 Cycle   4  Pass 1  IDiag  1:
 RMSU=  9.67D-04    CP:  7.41D-01  1.70D+00  9.80D-01
 E= -504.852113072556     Delta-E=       -0.006590376135 Rises=F Damp=F
 DIIS: error= 5.91D-03 at cycle   4 NSaved=   4.
 NSaved= 4 IEnMin= 4 EnMin= -504.852113072556     IErMin= 3 ErrMin= 5.85D-03
 ErrMax= 5.91D-03 EMaxC= 1.00D-01 BMatC= 3.68D-02 BMatP= 5.28D-02
 IDIUse=3 WtCom= 9.41D-01 WtEn= 5.91D-02
 Coeff-Com: -0.711D-02 0.461D-01 0.447D+00 0.514D+00
 Coeff-En:   0.000D+00 0.000D+00 0.320D+00 0.680D+00
 Coeff:     -0.669D-02 0.434D-01 0.440D+00 0.524D+00
 Gap=     0.160 Goal=   None    Shift=    0.000
 Gap=     0.216 Goal=   None    Shift=    0.000
 RMSDP=9.98D-04 MaxDP=1.27D-01 DE=-6.59D-03 OVMax= 3.13D-02

 Cycle   5  Pass 1  IDiag  1:
 RMSU=  5.83D-04    CP:  7.20D-01  1.65D+00  1.00D+00  9.30D-01
 E= -504.859029046959     Delta-E=       -0.006915974402 Rises=F Damp=F
 DIIS: error= 1.05D-03 at cycle   5 NSaved=   5.
 NSaved= 5 IEnMin= 5 EnMin= -504.859029046959     IErMin= 5 ErrMin= 1.05D-03
 ErrMax= 1.05D-03 EMaxC= 1.00D-01 BMatC= 2.07D-03 BMatP= 3.68D-02
 IDIUse=3 WtCom= 9.89D-01 WtEn= 1.05D-02
 Coeff-Com:  0.156D-01-0.304D-01 0.748D-01 0.212D+00 0.728D+00
 Coeff-En:   0.000D+00 0.000D+00 0.000D+00 0.000D+00 0.100D+01
 Coeff:      0.155D-01-0.300D-01 0.740D-01 0.210D+00 0.730D+00
 Gap=     0.167 Goal=   None    Shift=    0.000
 Gap=     0.219 Goal=   None    Shift=    0.000
 RMSDP=4.40D-04 MaxDP=5.12D-02 DE=-6.92D-03 OVMax= 1.67D-02

 Cycle   6  Pass 1  IDiag  1:
 RMSU=  2.32D-04    CP:  7.30D-01  1.62D+00  1.03D+00  1.01D+00  8.07D-01
 E= -504.859493300666     Delta-E=       -0.000464253708 Rises=F Damp=F
 DIIS: error= 4.81D-04 at cycle   6 NSaved=   6.
 NSaved= 6 IEnMin= 6 EnMin= -504.859493300666     IErMin= 6 ErrMin= 4.81D-04
 ErrMax= 4.81D-04 EMaxC= 1.00D-01 BMatC= 5.05D-04 BMatP= 2.07D-03
 IDIUse=3 WtCom= 9.95D-01 WtEn= 4.81D-03
 Coeff-Com:  0.579D-02-0.157D-01-0.546D-01-0.425D-02 0.378D+00 0.691D+00
 Coeff-En:   0.000D+00 0.000D+00 0.000D+00 0.000D+00 0.000D+00 0.100D+01
 Coeff:      0.576D-02-0.157D-01-0.543D-01-0.423D-02 0.376D+00 0.692D+00
 Gap=     0.167 Goal=   None    Shift=    0.000
 Gap=     0.221 Goal=   None    Shift=    0.000
 RMSDP=1.33D-04 MaxDP=1.41D-02 DE=-4.64D-04 OVMax= 5.65D-03

 Cycle   7  Pass 1  IDiag  1:
 RMSU=  6.77D-05    CP:  7.28D-01  1.63D+00  1.03D+00  1.05D+00  8.79D-01
                    CP:  1.05D+00
 E= -504.859627236931     Delta-E=       -0.000133936264 Rises=F Damp=F
 DIIS: error= 9.71D-05 at cycle   7 NSaved=   7.
 NSaved= 7 IEnMin= 7 EnMin= -504.859627236931     IErMin= 7 ErrMin= 9.71D-05
 ErrMax= 9.71D-05 EMaxC= 1.00D-01 BMatC= 2.32D-05 BMatP= 5.05D-04
 IDIUse=1 WtCom= 1.00D+00 WtEn= 0.00D+00
 Coeff-Com: -0.276D-02 0.485D-02-0.175D-01-0.216D-01 0.257D-01 0.189D+00
 Coeff-Com:  0.823D+00
 Coeff:     -0.276D-02 0.485D-02-0.175D-01-0.216D-01 0.257D-01 0.189D+00
 Coeff:      0.823D+00
 Gap=     0.167 Goal=   None    Shift=    0.000
 Gap=     0.221 Goal=   None    Shift=    0.000
 RMSDP=4.94D-05 MaxDP=9.14D-03 DE=-1.34D-04 OVMax= 6.90D-04

 Cycle   8  Pass 1  IDiag  1:
 RMSU=  3.18D-05    CP:  7.28D-01  1.63D+00  1.03D+00  1.06D+00  8.90D-01
                    CP:  1.07D+00  1.12D+00
 E= -504.859634203064     Delta-E=       -0.000006966133 Rises=F Damp=F
 DIIS: error= 3.80D-05 at cycle   8 NSaved=   8.
 NSaved= 8 IEnMin= 8 EnMin= -504.859634203064     IErMin= 8 ErrMin= 3.80D-05
 ErrMax= 3.80D-05 EMaxC= 1.00D-01 BMatC= 2.94D-06 BMatP= 2.32D-05
 IDIUse=1 WtCom= 1.00D+00 WtEn= 0.00D+00
 Coeff-Com: -0.122D-02 0.248D-02-0.889D-03-0.642D-02-0.215D-01-0.507D-02
 Coeff-Com:  0.238D+00 0.795D+00
 Coeff:     -0.122D-02 0.248D-02-0.889D-03-0.642D-02-0.215D-01-0.507D-02
 Coeff:      0.238D+00 0.795D+00
 Gap=     0.167 Goal=   None    Shift=    0.000
 Gap=     0.221 Goal=   None    Shift=    0.000
 RMSDP=2.01D-05 MaxDP=2.65D-03 DE=-6.97D-06 OVMax= 3.95D-04

 Cycle   9  Pass 1  IDiag  1:
 RMSU=  9.20D-06    CP:  7.28D-01  1.63D+00  1.03D+00  1.06D+00  8.90D-01
                    CP:  1.08D+00  1.18D+00  7.48D-01
 E= -504.859635180465     Delta-E=       -0.000000977401 Rises=F Damp=F
 DIIS: error= 1.72D-05 at cycle   9 NSaved=   9.
 NSaved= 9 IEnMin= 9 EnMin= -504.859635180465     IErMin= 9 ErrMin= 1.72D-05
 ErrMax= 1.72D-05 EMaxC= 1.00D-01 BMatC= 9.34D-07 BMatP= 2.94D-06
 IDIUse=1 WtCom= 1.00D+00 WtEn= 0.00D+00
 Coeff-Com: -0.603D-05 0.154D-03 0.285D-02 0.923D-03-0.164D-01-0.406D-01
 Coeff-Com: -0.463D-01 0.379D+00 0.720D+00
 Coeff:     -0.603D-05 0.154D-03 0.285D-02 0.923D-03-0.164D-01-0.406D-01
 Coeff:     -0.463D-01 0.379D+00 0.720D+00
 Gap=     0.167 Goal=   None    Shift=    0.000
 Gap=     0.221 Goal=   None    Shift=    0.000
 RMSDP=7.21D-06 MaxDP=1.11D-03 DE=-9.77D-07 OVMax= 2.06D-04

 Cycle  10  Pass 1  IDiag  1:
 RMSU=  3.22D-06    CP:  7.28D-01  1.63D+00  1.03D+00  1.06D+00  8.90D-01
                    CP:  1.09D+00  1.19D+00  8.57D-01  8.98D-01
 E= -504.859635477303     Delta-E=       -0.000000296838 Rises=F Damp=F
 DIIS: error= 7.92D-06 at cycle  10 NSaved=  10.
 NSaved=10 IEnMin=10 EnMin= -504.859635477303     IErMin=10 ErrMin= 7.92D-06
 ErrMax= 7.92D-06 EMaxC= 1.00D-01 BMatC= 1.28D-07 BMatP= 9.34D-07
 IDIUse=1 WtCom= 1.00D+00 WtEn= 0.00D+00
 Coeff-Com:  0.202D-03-0.344D-03 0.114D-02 0.124D-02-0.392D-02-0.153D-01
 Coeff-Com: -0.517D-01 0.489D-01 0.316D+00 0.703D+00
 Coeff:      0.202D-03-0.344D-03 0.114D-02 0.124D-02-0.392D-02-0.153D-01
 Coeff:     -0.517D-01 0.489D-01 0.316D+00 0.703D+00
 Gap=     0.167 Goal=   None    Shift=    0.000
 Gap=     0.221 Goal=   None    Shift=    0.000
 RMSDP=2.43D-06 MaxDP=2.07D-04 DE=-2.97D-07 OVMax= 8.91D-05

 Cycle  11  Pass 1  IDiag  1:
 RMSU=  1.40D-06    CP:  7.28D-01  1.63D+00  1.03D+00  1.06D+00  8.91D-01
                    CP:  1.09D+00  1.20D+00  8.77D-01  9.00D-01  8.36D-01
 E= -504.859635522020     Delta-E=       -0.000000044717 Rises=F Damp=F
 DIIS: error= 3.14D-06 at cycle  11 NSaved=  11.
 NSaved=11 IEnMin=11 EnMin= -504.859635522020     IErMin=11 ErrMin= 3.14D-06
 ErrMax= 3.14D-06 EMaxC= 1.00D-01 BMatC= 1.83D-08 BMatP= 1.28D-07
 IDIUse=1 WtCom= 1.00D+00 WtEn= 0.00D+00
 Coeff-Com:  0.698D-04-0.122D-03 0.465D-04 0.386D-03 0.106D-02 0.115D-02
 Coeff-Com: -0.107D-01-0.486D-01-0.671D-02 0.254D+00 0.810D+00
 Coeff:      0.698D-04-0.122D-03 0.465D-04 0.386D-03 0.106D-02 0.115D-02
 Coeff:     -0.107D-01-0.486D-01-0.671D-02 0.254D+00 0.810D+00
 Gap=     0.167 Goal=   None    Shift=    0.000
 Gap=     0.221 Goal=   None    Shift=    0.000
 RMSDP=1.42D-06 MaxDP=1.87D-04 DE=-4.47D-08 OVMax= 5.26D-05

 Cycle  12  Pass 1  IDiag  1:
 RMSU=  7.02D-07    CP:  7.28D-01  1.63D+00  1.03D+00  1.06D+00  8.90D-01
                    CP:  1.08D+00  1.19D+00  8.63D-01  9.35D-01  9.40D-01
                    CP:  9.77D-01
 E= -504.859635531608     Delta-E=       -0.000000009587 Rises=F Damp=F
 DIIS: error= 1.64D-06 at cycle  12 NSaved=  12.
 NSaved=12 IEnMin=12 EnMin= -504.859635531608     IErMin=12 ErrMin= 1.64D-06
 ErrMax= 1.64D-06 EMaxC= 1.00D-01 BMatC= 4.88D-09 BMatP= 1.83D-08
 IDIUse=1 WtCom= 1.00D+00 WtEn= 0.00D+00
 Coeff-Com:  0.434D-05-0.134D-04-0.209D-03-0.617D-04 0.138D-02 0.364D-02
 Coeff-Com:  0.503D-02-0.322D-01-0.665D-01-0.234D-01 0.356D+00 0.756D+00
 Coeff:      0.434D-05-0.134D-04-0.209D-03-0.617D-04 0.138D-02 0.364D-02
 Coeff:      0.503D-02-0.322D-01-0.665D-01-0.234D-01 0.356D+00 0.756D+00
 Gap=     0.167 Goal=   None    Shift=    0.000
 Gap=     0.221 Goal=   None    Shift=    0.000
 RMSDP=5.82D-07 MaxDP=8.37D-05 DE=-9.59D-09 OVMax= 2.71D-05

 Cycle  13  Pass 1  IDiag  1:
 RMSU=  2.83D-07    CP:  7.28D-01  1.63D+00  1.03D+00  1.06D+00  8.90D-01
                    CP:  1.08D+00  1.19D+00  8.58D-01  9.52D-01  9.70D-01
                    CP:  1.02D+00  1.01D+00
 E= -504.859635534278     Delta-E=       -0.000000002670 Rises=F Damp=F
 DIIS: error= 7.94D-07 at cycle  13 NSaved=  13.
 NSaved=13 IEnMin=13 EnMin= -504.859635534278     IErMin=13 ErrMin= 7.94D-07
 ErrMax= 7.94D-07 EMaxC= 1.00D-01 BMatC= 9.63D-10 BMatP= 4.88D-09
 IDIUse=1 WtCom= 1.00D+00 WtEn= 0.00D+00
 Coeff-Com: -0.168D-04 0.255D-04-0.856D-04-0.122D-03 0.291D-03 0.105D-02
 Coeff-Com:  0.457D-02 0.112D-02-0.238D-01-0.741D-01-0.879D-01 0.272D+00
 Coeff-Com:  0.907D+00
 Coeff:     -0.168D-04 0.255D-04-0.856D-04-0.122D-03 0.291D-03 0.105D-02
 Coeff:      0.457D-02 0.112D-02-0.238D-01-0.741D-01-0.879D-01 0.272D+00
 Coeff:      0.907D+00
 Gap=     0.167 Goal=   None    Shift=    0.000
 Gap=     0.221 Goal=   None    Shift=    0.000
 RMSDP=3.43D-07 MaxDP=3.77D-05 DE=-2.67D-09 OVMax= 1.59D-05

 Cycle  14  Pass 1  IDiag  1:
 RMSU=  1.53D-07    CP:  7.28D-01  1.63D+00  1.03D+00  1.06D+00  8.90D-01
                    CP:  1.08D+00  1.19D+00  8.60D-01  9.46D-01  9.77D-01
                    CP:  1.10D+00  1.08D+00  9.36D-01
 E= -504.859635534979     Delta-E=       -0.000000000701 Rises=F Damp=F
 DIIS: error= 2.84D-07 at cycle  14 NSaved=  14.
 NSaved=14 IEnMin=14 EnMin= -504.859635534979     IErMin=14 ErrMin= 2.84D-07
 ErrMax= 2.84D-07 EMaxC= 1.00D-01 BMatC= 1.67D-10 BMatP= 9.63D-10
 IDIUse=1 WtCom= 1.00D+00 WtEn= 0.00D+00
 Coeff-Com: -0.477D-05 0.780D-05 0.796D-05-0.311D-04-0.140D-03-0.326D-03
 Coeff-Com:  0.596D-03 0.646D-02 0.415D-02-0.213D-01-0.977D-01-0.478D-01
 Coeff-Com:  0.324D+00 0.832D+00
 Coeff:     -0.477D-05 0.780D-05 0.796D-05-0.311D-04-0.140D-03-0.326D-03
 Coeff:      0.596D-03 0.646D-02 0.415D-02-0.213D-01-0.977D-01-0.478D-01
 Coeff:      0.324D+00 0.832D+00
 Gap=     0.167 Goal=   None    Shift=    0.000
 Gap=     0.221 Goal=   None    Shift=    0.000
 RMSDP=1.33D-07 MaxDP=1.10D-05 DE=-7.01D-10 OVMax= 5.49D-06

 Cycle  15  Pass 1  IDiag  1:
 RMSU=  4.23D-08    CP:  7.28D-01  1.63D+00  1.03D+00  1.06D+00  8.90D-01
                    CP:  1.08D+00  1.19D+00  8.61D-01  9.47D-01  9.83D-01
                    CP:  1.10D+00  1.12D+00  1.13D+00  8.79D-01
 E= -504.859635535081     Delta-E=       -0.000000000101 Rises=F Damp=F
 DIIS: error= 1.03D-07 at cycle  15 NSaved=  15.
 NSaved=15 IEnMin=15 EnMin= -504.859635535081     IErMin=15 ErrMin= 1.03D-07
 ErrMax= 1.03D-07 EMaxC= 1.00D-01 BMatC= 3.47D-11 BMatP= 1.67D-10
 IDIUse=1 WtCom= 1.00D+00 WtEn= 0.00D+00
 Coeff-Com:  0.108D-05-0.121D-05 0.168D-04 0.751D-05-0.111D-03-0.305D-03
 Coeff-Com: -0.470D-03 0.255D-02 0.564D-02 0.292D-02-0.267D-01-0.643D-01
 Coeff-Com: -0.146D-01 0.355D+00 0.740D+00
 Coeff:      0.108D-05-0.121D-05 0.168D-04 0.751D-05-0.111D-03-0.305D-03
 Coeff:     -0.470D-03 0.255D-02 0.564D-02 0.292D-02-0.267D-01-0.643D-01
 Coeff:     -0.146D-01 0.355D+00 0.740D+00
 Gap=     0.167 Goal=   None    Shift=    0.000
 Gap=     0.221 Goal=   None    Shift=    0.000
 RMSDP=4.60D-08 MaxDP=3.58D-06 DE=-1.01D-10 OVMax= 1.44D-06

 Cycle  16  Pass 1  IDiag  1:
 RMSU=  1.87D-08    CP:  7.28D-01  1.63D+00  1.03D+00  1.06D+00  8.90D-01
                    CP:  1.08D+00  1.19D+00  8.61D-01  9.48D-01  9.84D-01
                    CP:  1.10D+00  1.13D+00  1.11D+00  9.80D-01  8.88D-01
 E= -504.859635535093     Delta-E=       -0.000000000013 Rises=F Damp=F
 DIIS: error= 4.75D-08 at cycle  16 NSaved=  16.
 NSaved=16 IEnMin=16 EnMin= -504.859635535093     IErMin=16 ErrMin= 4.75D-08
 ErrMax= 4.75D-08 EMaxC= 1.00D-01 BMatC= 4.25D-12 BMatP= 3.47D-11
 IDIUse=1 WtCom= 1.00D+00 WtEn= 0.00D+00
 Coeff-Com:  0.110D-05-0.138D-05 0.415D-05 0.793D-05-0.168D-04-0.416D-04
 Coeff-Com: -0.242D-03-0.278D-03 0.116D-02 0.450D-02 0.810D-02-0.125D-01
 Coeff-Com: -0.608D-01-0.302D-01 0.251D+00 0.840D+00
 Coeff:      0.110D-05-0.138D-05 0.415D-05 0.793D-05-0.168D-04-0.416D-04
 Coeff:     -0.242D-03-0.278D-03 0.116D-02 0.450D-02 0.810D-02-0.125D-01
 Coeff:     -0.608D-01-0.302D-01 0.251D+00 0.840D+00
 Gap=     0.167 Goal=   None    Shift=    0.000
 Gap=     0.221 Goal=   None    Shift=    0.000
 RMSDP=2.57D-08 MaxDP=4.49D-06 DE=-1.25D-11 OVMax= 4.42D-07

 Cycle  17  Pass 1  IDiag  1:
 RMSU=  7.08D-09    CP:  7.28D-01  1.63D+00  1.03D+00  1.06D+00  8.90D-01
                    CP:  1.08D+00  1.19D+00  8.61D-01  9.48D-01  9.84D-01
                    CP:  1.10D+00  1.12D+00  1.12D+00  9.98D-01  9.86D-01
                    CP:  8.61D-01
 E= -504.859635535098     Delta-E=       -0.000000000005 Rises=F Damp=F
 DIIS: error= 1.14D-08 at cycle  17 NSaved=  17.
 NSaved=17 IEnMin=17 EnMin= -504.859635535098     IErMin=17 ErrMin= 1.14D-08
 ErrMax= 1.14D-08 EMaxC= 1.00D-01 BMatC= 3.98D-13 BMatP= 4.25D-12
 IDIUse=1 WtCom= 1.00D+00 WtEn= 0.00D+00
 Coeff-Com:  0.170D-06-0.300D-06-0.978D-06 0.837D-06 0.974D-05 0.268D-04
 Coeff-Com: -0.210D-05-0.378D-03-0.392D-03 0.695D-03 0.517D-02 0.462D-02
 Coeff-Com: -0.128D-01-0.493D-01-0.251D-01 0.203D+00 0.874D+00
 Coeff:      0.170D-06-0.300D-06-0.978D-06 0.837D-06 0.974D-05 0.268D-04
 Coeff:     -0.210D-05-0.378D-03-0.392D-03 0.695D-03 0.517D-02 0.462D-02
 Coeff:     -0.128D-01-0.493D-01-0.251D-01 0.203D+00 0.874D+00
 Gap=     0.167 Goal=   None    Shift=    0.000
 Gap=     0.221 Goal=   None    Shift=    0.000
 RMSDP=7.71D-09 MaxDP=8.92D-07 DE=-4.77D-12 OVMax= 1.71D-07

 SCF Done:  E(UB3LYP) =  -504.859635535     A.U. after   17 cycles
             Convg  =    0.7708D-08             -V/T =  2.0045
 <Sx>= 0.0000 <Sy>= 0.0000 <Sz>= 0.5000 <S**2>= 0.7541 S= 0.5021
 <L.S>= 0.000000000000E+00
 KE= 5.026010455328D+02 PE=-2.513571099463D+03 EE= 8.375346692103D+02
 Annihilation of the first spin contaminant:
 S**2 before annihilation     0.7541,   after     0.7500
 Leave Link  502 at Sat Feb  8 14:55:14 2014, MaxMem= 4026531840 cpu:    3142.1
 (Enter /usr/caen/gaussian-09revc/g09/l601.exe)
 Copying SCF densities to generalized density rwf, IOpCl= 1 IROHF=0.

 **********************************************************************

            Population analysis using the SCF density.

 **********************************************************************

 Orbital symmetries:
 Alpha Orbitals:
       Occupied  (A) (A) (A) (A) (A) (A) (A) (A) (A) (A) (A) (A)
                 (A) (A) (A) (A) (A) (A) (A) (A) (A) (A) (A) (A)
                 (A) (A) (A) (A) (A) (A) (A) (A) (A) (A) (A) (A)
                 (A) (A) (A) (A) (A) (A) (A) (A) (A)
       Virtual   (A) (A) (A) (A) (A) (A) (A) (A) (A) (A) (A) (A)
                 (A) (A) (A) (A) (A) (A) (A) (A) (A) (A) (A) (A)
                 (A) (A) (A) (A) (A) (A) (A) (A) (A) (A) (A) (A)
                 (A) (A) (A) (A) (A) (A) (A) (A) (A) (A) (A) (A)
                 (A) (A) (A) (A) (A) (A) (A) (A) (A) (A) (A) (A)
                 (A) (A) (A) (A) (A) (A) (A) (A) (A) (A) (A) (A)
                 (A) (A) (A) (A) (A) (A) (A) (A) (A) (A) (A) (A)
                 (A) (A) (A) (A) (A) (A) (A) (A) (A) (A) (A) (A)
                 (A) (A) (A) (A) (A) (A) (A) (A) (A) (A) (A) (A)
                 (A) (A) (A) (A) (A) (A) (A) (A) (A) (A) (A) (A)
                 (A) (A) (A) (A) (A) (A) (A) (A) (A) (A) (A) (A)
                 (A) (A) (A) (A) (A) (A) (A) (A) (A) (A) (A) (A)
                 (A) (A) (A) (A) (A) (A) (A) (A) (A) (A) (A) (A)
                 (A) (A) (A) (A) (A) (A) (A) (A) (A) (A) (A) (A)
                 (A) (A) (A) (A) (A) (A) (A) (A) (A) (A) (A) (A)
                 (A) (A) (A) (A) (A) (A) (A) (A) (A) (A) (A) (A)
                 (A) (A) (A) (A) (A) (A) (A) (A) (A) (A) (A) (A)
                 (A) (A) (A) (A) (A) (A) (A) (A) (A) (A) (A) (A)
                 (A) (A) (A) (A) (A) (A) (A) (A) (A) (A) (A) (A)
                 (A) (A) (A) (A) (A) (A) (A) (A) (A) (A) (A) (A)
                 (A) (A) (A) (A) (A) (A) (A) (A) (A) (A) (A) (A)
                 (A) (A) (A) (A) (A) (A) (A) (A) (A) (A) (A) (A)
                 (A) (A) (A) (A) (A) (A) (A) (A) (A) (A) (A) (A)
                 (A) (A) (A) (A) (A) (A) (A) (A) (A) (A) (A) (A)
                 (A) (A) (A) (A) (A) (A) (A) (A) (A) (A) (A) (A)
                 (A) (A) (A) (A) (A) (A) (A) (A) (A) (A) (A) (A)
                 (A) (A) (A) (A) (A) (A) (A) (A) (A) (A) (A) (A)
                 (A) (A) (A) (A) (A) (A)
 Beta  Orbitals:
       Occupied  (A) (A) (A) (A) (A) (A) (A) (A) (A) (A) (A) (A)
                 (A) (A) (A) (A) (A) (A) (A) (A) (A) (A) (A) (A)
                 (A) (A) (A) (A) (A) (A) (A) (A) (A) (A) (A) (A)
                 (A) (A) (A) (A) (A) (A) (A) (A)
       Virtual   (A) (A) (A) (A) (A) (A) (A) (A) (A) (A) (A) (A)
                 (A) (A) (A) (A) (A) (A) (A) (A) (A) (A) (A) (A)
                 (A) (A) (A) (A) (A) (A) (A) (A) (A) (A) (A) (A)
                 (A) (A) (A) (A) (A) (A) (A) (A) (A) (A) (A) (A)
                 (A) (A) (A) (A) (A) (A) (A) (A) (A) (A) (A) (A)
                 (A) (A) (A) (A) (A) (A) (A) (A) (A) (A) (A) (A)
                 (A) (A) (A) (A) (A) (A) (A) (A) (A) (A) (A) (A)
                 (A) (A) (A) (A) (A) (A) (A) (A) (A) (A) (A) (A)
                 (A) (A) (A) (A) (A) (A) (A) (A) (A) (A) (A) (A)
                 (A) (A) (A) (A) (A) (A) (A) (A) (A) (A) (A) (A)
                 (A) (A) (A) (A) (A) (A) (A) (A) (A) (A) (A) (A)
                 (A) (A) (A) (A) (A) (A) (A) (A) (A) (A) (A) (A)
                 (A) (A) (A) (A) (A) (A) (A) (A) (A) (A) (A) (A)
                 (A) (A) (A) (A) (A) (A) (A) (A) (A) (A) (A) (A)
                 (A) (A) (A) (A) (A) (A) (A) (A) (A) (A) (A) (A)
                 (A) (A) (A) (A) (A) (A) (A) (A) (A) (A) (A) (A)
                 (A) (A) (A) (A) (A) (A) (A) (A) (A) (A) (A) (A)
                 (A) (A) (A) (A) (A) (A) (A) (A) (A) (A) (A) (A)
                 (A) (A) (A) (A) (A) (A) (A) (A) (A) (A) (A) (A)
                 (A) (A) (A) (A) (A) (A) (A) (A) (A) (A) (A) (A)
                 (A) (A) (A) (A) (A) (A) (A) (A) (A) (A) (A) (A)
                 (A) (A) (A) (A) (A) (A) (A) (A) (A) (A) (A) (A)
                 (A) (A) (A) (A) (A) (A) (A) (A) (A) (A) (A) (A)
                 (A) (A) (A) (A) (A) (A) (A) (A) (A) (A) (A) (A)
                 (A) (A) (A) (A) (A) (A) (A) (A) (A) (A) (A) (A)
                 (A) (A) (A) (A) (A) (A) (A) (A) (A) (A) (A) (A)
                 (A) (A) (A) (A) (A) (A) (A) (A) (A) (A) (A) (A)
                 (A) (A) (A) (A) (A) (A) (A)
 The electronic state is 2-A.
 Alpha  occ. eigenvalues --  -19.17945 -19.17877 -10.23923 -10.16972 -10.16851
 Alpha  occ. eigenvalues --  -10.16800 -10.16678 -10.16508 -10.15689 -10.15072
 Alpha  occ. eigenvalues --  -10.14952  -1.11985  -0.92526  -0.81279  -0.78981
 Alpha  occ. eigenvalues --   -0.74730  -0.70069  -0.68222  -0.67775  -0.59584
 Alpha  occ. eigenvalues --   -0.56596  -0.55480  -0.51457  -0.48841  -0.46928
 Alpha  occ. eigenvalues --   -0.45627  -0.44895  -0.43865  -0.43069  -0.41263
 Alpha  occ. eigenvalues --   -0.39929  -0.39719  -0.38535  -0.38114  -0.37930
 Alpha  occ. eigenvalues --   -0.37075  -0.35657  -0.35374  -0.33933  -0.32584
 Alpha  occ. eigenvalues --   -0.32187  -0.31404  -0.31267  -0.27079  -0.18374
 Alpha virt. eigenvalues --   -0.01685  -0.00897   0.00074   0.01115   0.01478
 Alpha virt. eigenvalues --    0.02233   0.02350   0.02542   0.03206   0.04109
 Alpha virt. eigenvalues --    0.04399   0.04493   0.04914   0.05847   0.06198
 Alpha virt. eigenvalues --    0.06768   0.07406   0.07875   0.08363   0.08571
 Alpha virt. eigenvalues --    0.09210   0.09880   0.10260   0.10819   0.11017
 Alpha virt. eigenvalues --    0.11416   0.11538   0.11994   0.12269   0.12737
 Alpha virt. eigenvalues --    0.13066   0.13430   0.13451   0.13783   0.14123
 Alpha virt. eigenvalues --    0.14383   0.14593   0.15166   0.15281   0.15616
 Alpha virt. eigenvalues --    0.15973   0.16286   0.16489   0.17369   0.17604
 Alpha virt. eigenvalues --    0.17783   0.18287   0.18374   0.18717   0.18993
 Alpha virt. eigenvalues --    0.19355   0.19623   0.20202   0.20894   0.21163
 Alpha virt. eigenvalues --    0.21373   0.22270   0.22454   0.22710   0.23037
 Alpha virt. eigenvalues --    0.23737   0.24505   0.24758   0.25713   0.25799
 Alpha virt. eigenvalues --    0.26125   0.26888   0.27884   0.28140   0.28601
 Alpha virt. eigenvalues --    0.28892   0.29651   0.30069   0.30616   0.31329
 Alpha virt. eigenvalues --    0.32198   0.32533   0.33362   0.33890   0.34492
 Alpha virt. eigenvalues --    0.35017   0.35439   0.35968   0.37133   0.37652
 Alpha virt. eigenvalues --    0.38214   0.38389   0.39298   0.41212   0.42872
 Alpha virt. eigenvalues --    0.43573   0.44804   0.45275   0.46832   0.47434
 Alpha virt. eigenvalues --    0.49732   0.50538   0.52014   0.52485   0.54453
 Alpha virt. eigenvalues --    0.54543   0.55825   0.57102   0.57366   0.57521
 Alpha virt. eigenvalues --    0.58304   0.58882   0.60642   0.61848   0.63353
 Alpha virt. eigenvalues --    0.63585   0.64380   0.64781   0.66405   0.66590
 Alpha virt. eigenvalues --    0.66998   0.67610   0.68698   0.68854   0.69091
 Alpha virt. eigenvalues --    0.70064   0.71458   0.72067   0.72695   0.73285
 Alpha virt. eigenvalues --    0.73764   0.75326   0.76359   0.77083   0.77836
 Alpha virt. eigenvalues --    0.78249   0.79157   0.79941   0.80331   0.80741
 Alpha virt. eigenvalues --    0.82475   0.83307   0.85209   0.87609   0.90509
 Alpha virt. eigenvalues --    0.94152   0.96084   1.00302   1.01553   1.01942
 Alpha virt. eigenvalues --    1.03367   1.04307   1.06309   1.08124   1.10934
 Alpha virt. eigenvalues --    1.12382   1.14596   1.15846   1.18400   1.18858
 Alpha virt. eigenvalues --    1.20912   1.23469   1.23941   1.26215   1.27718
 Alpha virt. eigenvalues --    1.29287   1.37855   1.38045   1.40024   1.43290
 Alpha virt. eigenvalues --    1.45352   1.46129   1.46660   1.47144   1.47493
 Alpha virt. eigenvalues --    1.48154   1.48885   1.50561   1.52087   1.53241
 Alpha virt. eigenvalues --    1.53574   1.54871   1.55581   1.56166   1.58002
 Alpha virt. eigenvalues --    1.58946   1.59901   1.60760   1.60951   1.62456
 Alpha virt. eigenvalues --    1.63472   1.64020   1.64538   1.65511   1.65750
 Alpha virt. eigenvalues --    1.67773   1.68361   1.68641   1.71308   1.72427
 Alpha virt. eigenvalues --    1.72689   1.74409   1.76072   1.77280   1.78342
 Alpha virt. eigenvalues --    1.79857   1.80430   1.80927   1.82481   1.82694
 Alpha virt. eigenvalues --    1.85804   1.88153   1.90294   1.92146   1.92990
 Alpha virt. eigenvalues --    1.95779   1.98388   1.98925   2.00679   2.02271
 Alpha virt. eigenvalues --    2.04414   2.06058   2.06809   2.08217   2.10926
 Alpha virt. eigenvalues --    2.13291   2.14287   2.15132   2.16607   2.18788
 Alpha virt. eigenvalues --    2.21349   2.21620   2.25598   2.29144   2.29870
 Alpha virt. eigenvalues --    2.32364   2.33376   2.36310   2.37722   2.39687
 Alpha virt. eigenvalues --    2.43072   2.44833   2.47082   2.48052   2.50014
 Alpha virt. eigenvalues --    2.51009   2.51175   2.51856   2.52383   2.53056
 Alpha virt. eigenvalues --    2.54234   2.54453   2.55123   2.56094   2.57012
 Alpha virt. eigenvalues --    2.58164   2.58392   2.59870   2.61011   2.62481
 Alpha virt. eigenvalues --    2.63534   2.64349   2.66169   2.68053   2.69863
 Alpha virt. eigenvalues --    2.71673   2.72145   2.74359   2.75428   2.76797
 Alpha virt. eigenvalues --    2.78152   2.79724   2.80489   2.82331   2.85466
 Alpha virt. eigenvalues --    2.86653   2.88558   2.89280   2.94782   2.96932
 Alpha virt. eigenvalues --    2.98313   2.99685   3.02006   3.02960   3.03486
 Alpha virt. eigenvalues --    3.06134   3.10635   3.11850   3.14249   3.16129
 Alpha virt. eigenvalues --    3.18968   3.22464   3.24173   3.30883   3.33562
 Alpha virt. eigenvalues --    3.42598   3.52241   3.58056   3.72845   3.77513
 Alpha virt. eigenvalues --    3.78514   3.79016   3.79619   3.81249   3.83155
 Alpha virt. eigenvalues --    3.84069   3.84549   3.86507   3.88945   3.90477
 Alpha virt. eigenvalues --    3.97643   4.05678   4.11505   4.20000   4.27196
 Alpha virt. eigenvalues --    4.29467   4.31176   4.40356   4.91420   5.05817
 Alpha virt. eigenvalues --    5.16698   5.39620   5.52949   5.69367  23.72603
 Alpha virt. eigenvalues --   23.84227  23.87882  23.91240  23.95753  23.97469
 Alpha virt. eigenvalues --   23.98489  23.98998  23.99295  49.86535  49.92428
  Beta  occ. eigenvalues --  -19.17941 -19.17878 -10.23767 -10.16946 -10.16765
  Beta  occ. eigenvalues --  -10.16672 -10.16503 -10.15769 -10.15601 -10.15073
  Beta  occ. eigenvalues --  -10.14941  -1.11974  -0.92467  -0.80663  -0.78786
  Beta  occ. eigenvalues --   -0.73712  -0.70031  -0.68020  -0.67746  -0.58453
  Beta  occ. eigenvalues --   -0.56321  -0.54975  -0.51146  -0.48681  -0.46575
  Beta  occ. eigenvalues --   -0.45367  -0.44713  -0.43614  -0.42608  -0.41064
  Beta  occ. eigenvalues --   -0.39738  -0.39669  -0.38301  -0.38051  -0.37871
  Beta  occ. eigenvalues --   -0.36804  -0.35421  -0.35083  -0.33670  -0.32265
  Beta  occ. eigenvalues --   -0.31952  -0.31264  -0.31030  -0.26922
  Beta virt. eigenvalues --   -0.04828  -0.01684  -0.00862   0.00117   0.01127
  Beta virt. eigenvalues --    0.01528   0.02233   0.02371   0.02548   0.03210
  Beta virt. eigenvalues --    0.04170   0.04441   0.04514   0.04914   0.05858
  Beta virt. eigenvalues --    0.06196   0.06793   0.07480   0.07927   0.08479
  Beta virt. eigenvalues --    0.08585   0.09285   0.09959   0.10283   0.10874
  Beta virt. eigenvalues --    0.11070   0.11437   0.11608   0.12033   0.12302
  Beta virt. eigenvalues --    0.12780   0.13144   0.13462   0.13521   0.13860
  Beta virt. eigenvalues --    0.14234   0.14394   0.14682   0.15178   0.15336
  Beta virt. eigenvalues --    0.15655   0.15996   0.16395   0.16600   0.17417
  Beta virt. eigenvalues --    0.17662   0.17796   0.18319   0.18392   0.18989
  Beta virt. eigenvalues --    0.19035   0.19470   0.19654   0.20266   0.20993
  Beta virt. eigenvalues --    0.21217   0.21486   0.22439   0.22546   0.22832
  Beta virt. eigenvalues --    0.23375   0.23933   0.24738   0.24920   0.25799
  Beta virt. eigenvalues --    0.26030   0.26335   0.26973   0.27988   0.28322
  Beta virt. eigenvalues --    0.28979   0.29035   0.29864   0.30358   0.30820
  Beta virt. eigenvalues --    0.31459   0.32428   0.32734   0.33513   0.33984
  Beta virt. eigenvalues --    0.34705   0.35099   0.35638   0.36215   0.37325
  Beta virt. eigenvalues --    0.37762   0.38397   0.38669   0.39374   0.41356
  Beta virt. eigenvalues --    0.43082   0.43637   0.44844   0.45333   0.46932
  Beta virt. eigenvalues --    0.47512   0.49883   0.50696   0.52146   0.52667
  Beta virt. eigenvalues --    0.54620   0.54663   0.56110   0.57170   0.57595
  Beta virt. eigenvalues --    0.57774   0.58511   0.59152   0.60918   0.62007
  Beta virt. eigenvalues --    0.63575   0.63827   0.64885   0.65470   0.66515
  Beta virt. eigenvalues --    0.66990   0.67467   0.67747   0.68860   0.68948
  Beta virt. eigenvalues --    0.69456   0.70270   0.71614   0.72280   0.72872
  Beta virt. eigenvalues --    0.73393   0.74499   0.75527   0.76564   0.77123
  Beta virt. eigenvalues --    0.77898   0.78371   0.79266   0.80227   0.80531
  Beta virt. eigenvalues --    0.80961   0.82840   0.83501   0.85723   0.87906
  Beta virt. eigenvalues --    0.90730   0.95029   0.96443   1.00723   1.01840
  Beta virt. eigenvalues --    1.02490   1.03581   1.04472   1.06478   1.08217
  Beta virt. eigenvalues --    1.11196   1.12471   1.14639   1.16513   1.18602
  Beta virt. eigenvalues --    1.19096   1.21079   1.23651   1.24235   1.26514
  Beta virt. eigenvalues --    1.28203   1.29497   1.38006   1.38360   1.40773
  Beta virt. eigenvalues --    1.43960   1.45523   1.46274   1.46875   1.47216
  Beta virt. eigenvalues --    1.47684   1.48319   1.49023   1.50707   1.52327
  Beta virt. eigenvalues --    1.53345   1.54045   1.55028   1.55758   1.56518
  Beta virt. eigenvalues --    1.58153   1.59103   1.60031   1.60853   1.61053
  Beta virt. eigenvalues --    1.62864   1.63587   1.64106   1.64696   1.65761
  Beta virt. eigenvalues --    1.65841   1.68512   1.68598   1.69707   1.71945
  Beta virt. eigenvalues --    1.72704   1.73035   1.74653   1.76216   1.77563
  Beta virt. eigenvalues --    1.78441   1.80286   1.80650   1.81097   1.82553
  Beta virt. eigenvalues --    1.82849   1.86024   1.88416   1.90746   1.92855
  Beta virt. eigenvalues --    1.93260   1.96163   1.98522   1.99226   2.01527
  Beta virt. eigenvalues --    2.02723   2.04502   2.06420   2.07113   2.08537
  Beta virt. eigenvalues --    2.11279   2.13515   2.14404   2.15254   2.16869
  Beta virt. eigenvalues --    2.18863   2.21946   2.22052   2.25937   2.29332
  Beta virt. eigenvalues --    2.30202   2.32787   2.33632   2.36552   2.37952
  Beta virt. eigenvalues --    2.40016   2.43560   2.44999   2.47191   2.48165
  Beta virt. eigenvalues --    2.50144   2.51063   2.51252   2.51966   2.52478
  Beta virt. eigenvalues --    2.53166   2.54312   2.54588   2.55299   2.56234
  Beta virt. eigenvalues --    2.57097   2.58279   2.58551   2.60014   2.61164
  Beta virt. eigenvalues --    2.62617   2.63608   2.64613   2.66404   2.68122
  Beta virt. eigenvalues --    2.69996   2.71829   2.72372   2.74547   2.75537
  Beta virt. eigenvalues --    2.76910   2.78258   2.79854   2.80680   2.82663
  Beta virt. eigenvalues --    2.85581   2.86933   2.88672   2.89577   2.96011
  Beta virt. eigenvalues --    2.97429   2.98738   3.00089   3.02603   3.03443
  Beta virt. eigenvalues --    3.04595   3.06666   3.11047   3.12742   3.14338
  Beta virt. eigenvalues --    3.16244   3.19165   3.22521   3.24220   3.31160
  Beta virt. eigenvalues --    3.33670   3.43130   3.52494   3.58129   3.72858
  Beta virt. eigenvalues --    3.77665   3.78553   3.79035   3.79646   3.81274
  Beta virt. eigenvalues --    3.83261   3.84094   3.84563   3.86623   3.88994
  Beta virt. eigenvalues --    3.90588   3.98243   4.06319   4.11607   4.20514
  Beta virt. eigenvalues --    4.27493   4.29691   4.31203   4.41140   4.91433
  Beta virt. eigenvalues --    5.05820   5.16712   5.39635   5.52959   5.69376
  Beta virt. eigenvalues --   23.72848  23.84285  23.88731  23.91698  23.95726
  Beta virt. eigenvalues --   23.97465  23.98507  23.99004  23.99325  49.86538
  Beta virt. eigenvalues --   49.92429
          Condensed to atoms (all electrons):
              1          2          3          4          5          6
     1  C    6.525814   0.463037   0.369883   0.399023   0.808931  -0.042109
     2  H    0.463037   0.541496  -0.038717  -0.027034  -0.011826  -0.004402
     3  H    0.369883  -0.038717   0.568285  -0.035907  -0.031197   0.010384
     4  H    0.399023  -0.027034  -0.035907   0.571287   0.026299  -0.007135
     5  C    0.808931  -0.011826  -0.031197   0.026299  10.172153   0.282022
     6  H   -0.042109  -0.004402   0.010384  -0.007135   0.282022   0.554052
     7  H    0.012829   0.001211  -0.016537   0.008717   0.488820  -0.053277
     8  C   -0.577688  -0.015248   0.002488  -0.011955  -1.797748  -0.045594
     9  H   -0.009915  -0.000470   0.002170  -0.001356  -0.107002   0.023963
    10  C    0.090258   0.004746   0.019001  -0.010686  -0.492568   0.078551
    11  H   -0.011993   0.000379  -0.000900   0.000885  -0.074594   0.000073
    12  H   -0.006682  -0.000765   0.000306   0.000211   0.021226  -0.000519
    13  C   -0.027868  -0.000946  -0.000315   0.001120  -0.432557  -0.010993
    14  H   -0.000071  -0.000048  -0.000059   0.000063  -0.045844   0.001249
    15  C   -0.005257  -0.000095   0.000505  -0.000319  -0.136990   0.006061
    16  H   -0.000196  -0.000074   0.000037  -0.000019  -0.012111   0.002003
    17  H   -0.000184   0.000001   0.000011  -0.000012  -0.003260   0.000311
    18  H    0.000906   0.000080  -0.000028   0.000018   0.012753  -0.001245
    19  C   -0.493715  -0.019391   0.045669  -0.036141  -0.678931   0.074527
    20  H   -0.041556  -0.000548   0.000467   0.002074   0.017600   0.001290
    21  H    0.003808  -0.000591   0.005474   0.000047   0.016861  -0.001332
    22  H    0.001405  -0.002837  -0.002024   0.000159  -0.069671  -0.003416
    23  C    0.006881   0.000441  -0.000775   0.000363   0.245161  -0.013001
    24  H    0.000304   0.000010  -0.000046   0.000028   0.005789  -0.000925
    25  H   -0.000436  -0.000061   0.000008   0.000007  -0.013863  -0.000081
    26  H   -0.001558  -0.000181   0.000415  -0.000149   0.005274   0.003362
    27  C   -0.897232  -0.043240  -0.068747  -0.014064  -1.279962  -0.057641
    28  O   -0.107396  -0.011544   0.021188  -0.017125  -0.085345   0.003101
    29  O   -0.047143   0.000614   0.005634  -0.001373  -0.185446   0.004999
    30  H    0.052387  -0.002877   0.001377  -0.007242  -0.023712   0.004530
              7          8          9         10         11         12
     1  C    0.012829  -0.577688  -0.009915   0.090258  -0.011993  -0.006682
     2  H    0.001211  -0.015248  -0.000470   0.004746   0.000379  -0.000765
     3  H   -0.016537   0.002488   0.002170   0.019001  -0.000900   0.000306
     4  H    0.008717  -0.011955  -0.001356  -0.010686   0.000885   0.000211
     5  C    0.488820  -1.797748  -0.107002  -0.492568  -0.074594   0.021226
     6  H   -0.053277  -0.045594   0.023963   0.078551   0.000073  -0.000519
     7  H    0.643721  -0.067802  -0.025290  -0.099658   0.007401  -0.004228
     8  C   -0.067802   8.079290   0.459648  -1.360039  -0.032218  -0.070970
     9  H   -0.025290   0.459648   0.587845  -0.032383   0.001932   0.010776
    10  C   -0.099658  -1.360039  -0.032383   9.403758   0.449451   0.386787
    11  H    0.007401  -0.032218   0.001932   0.449451   0.576742  -0.049287
    12  H   -0.004228  -0.070970   0.010776   0.386787  -0.049287   0.618752
    13  C    0.003246   0.347049  -0.039348  -1.952113  -0.020209  -0.100575
    14  H    0.001181  -0.007836   0.003196  -0.142159   0.018628  -0.015550
    15  C   -0.008574  -0.231250   0.008998   0.540544   0.013689   0.024976
    16  H   -0.000499   0.002045   0.001821  -0.086563   0.001775   0.001058
    17  H   -0.000400  -0.002341   0.000530   0.047940  -0.003128   0.000687
    18  H    0.000383  -0.011971  -0.001456  -0.018040   0.002993   0.001493
    19  C   -0.102533   0.453152   0.039743   0.167860  -0.003538  -0.002830
    20  H   -0.003438  -0.011239  -0.002095   0.005120   0.000699  -0.001219
    21  H   -0.001469   0.011312   0.001413  -0.000084  -0.000389  -0.000079
    22  H    0.004443   0.024119  -0.009897   0.012628  -0.002151   0.004834
    23  C    0.012897   0.123580  -0.022061  -0.078640  -0.040163  -0.000118
    24  H    0.001115   0.004494  -0.003468   0.019358  -0.005174  -0.001489
    25  H    0.000159   0.007335   0.001040  -0.068988   0.006024  -0.000200
    26  H   -0.004949   0.006716   0.000764  -0.014508   0.003417   0.001169
    27  C    0.047030   0.189758  -0.068853  -0.145097   0.013192   0.015212
    28  O   -0.006989  -0.089619   0.001268   0.166741  -0.007521  -0.023752
    29  O   -0.008310   0.039649  -0.002903   0.036633   0.006141   0.005139
    30  H   -0.002127   0.007337   0.000729  -0.002969  -0.002971   0.001904
             13         14         15         16         17         18
     1  C   -0.027868  -0.000071  -0.005257  -0.000196  -0.000184   0.000906
     2  H   -0.000946  -0.000048  -0.000095  -0.000074   0.000001   0.000080
     3  H   -0.000315  -0.000059   0.000505   0.000037   0.000011  -0.000028
     4  H    0.001120   0.000063  -0.000319  -0.000019  -0.000012   0.000018
     5  C   -0.432557  -0.045844  -0.136990  -0.012111  -0.003260   0.012753
     6  H   -0.010993   0.001249   0.006061   0.002003   0.000311  -0.001245
     7  H    0.003246   0.001181  -0.008574  -0.000499  -0.000400   0.000383
     8  C    0.347049  -0.007836  -0.231250   0.002045  -0.002341  -0.011971
     9  H   -0.039348   0.003196   0.008998   0.001821   0.000530  -0.001456
    10  C   -1.952113  -0.142159   0.540544  -0.086563   0.047940  -0.018040
    11  H   -0.020209   0.018628   0.013689   0.001775  -0.003128   0.002993
    12  H   -0.100575  -0.015550   0.024976   0.001058   0.000687   0.001493
    13  C    7.544512   0.586538  -0.333023   0.084717  -0.090369  -0.023428
    14  H    0.586538   0.632511  -0.057152   0.016122  -0.012157  -0.012358
    15  C   -0.333023  -0.057152   5.806172   0.384372   0.407469   0.389755
    16  H    0.084717   0.016122   0.384372   0.566151  -0.033221  -0.045253
    17  H   -0.090369  -0.012157   0.407469  -0.033221   0.569288  -0.021669
    18  H   -0.023428  -0.012358   0.389755  -0.045253  -0.021669   0.578873
    19  C    0.041463   0.001224   0.015814   0.001034   0.000760  -0.001699
    20  H   -0.000301   0.000161   0.000105  -0.000012   0.000007   0.000023
    21  H    0.003352   0.000338   0.000191   0.000060   0.000017  -0.000144
    22  H   -0.002065  -0.002125  -0.000327  -0.000203  -0.000046   0.000151
    23  C    0.006947  -0.102089  -0.202556  -0.028483  -0.010975   0.019945
    24  H   -0.070522  -0.006885  -0.008759   0.003161  -0.000648   0.001155
    25  H    0.042524   0.010818  -0.007336   0.009785   0.002392  -0.002261
    26  H   -0.046110  -0.008427   0.019081  -0.003927   0.002111  -0.002851
    27  C    0.039875   0.008131  -0.006135  -0.000214  -0.000633   0.001611
    28  O    0.010721   0.000973   0.000528   0.000297   0.000082   0.000618
    29  O    0.028306   0.000558  -0.002648  -0.000378  -0.000057  -0.000224
    30  H   -0.003359  -0.000004   0.000382   0.000068  -0.000010  -0.000136
             19         20         21         22         23         24
     1  C   -0.493715  -0.041556   0.003808   0.001405   0.006881   0.000304
     2  H   -0.019391  -0.000548  -0.000591  -0.002837   0.000441   0.000010
     3  H    0.045669   0.000467   0.005474  -0.002024  -0.000775  -0.000046
     4  H   -0.036141   0.002074   0.000047   0.000159   0.000363   0.000028
     5  C   -0.678931   0.017600   0.016861  -0.069671   0.245161   0.005789
     6  H    0.074527   0.001290  -0.001332  -0.003416  -0.013001  -0.000925
     7  H   -0.102533  -0.003438  -0.001469   0.004443   0.012897   0.001115
     8  C    0.453152  -0.011239   0.011312   0.024119   0.123580   0.004494
     9  H    0.039743  -0.002095   0.001413  -0.009897  -0.022061  -0.003468
    10  C    0.167860   0.005120  -0.000084   0.012628  -0.078640   0.019358
    11  H   -0.003538   0.000699  -0.000389  -0.002151  -0.040163  -0.005174
    12  H   -0.002830  -0.001219  -0.000079   0.004834  -0.000118  -0.001489
    13  C    0.041463  -0.000301   0.003352  -0.002065   0.006947  -0.070522
    14  H    0.001224   0.000161   0.000338  -0.002125  -0.102089  -0.006885
    15  C    0.015814   0.000105   0.000191  -0.000327  -0.202556  -0.008759
    16  H    0.001034  -0.000012   0.000060  -0.000203  -0.028483   0.003161
    17  H    0.000760   0.000007   0.000017  -0.000046  -0.010975  -0.000648
    18  H   -0.001699   0.000023  -0.000144   0.000151   0.019945   0.001155
    19  C    6.132919   0.468840   0.391646   0.393405  -0.014970  -0.001103
    20  H    0.468840   0.539180  -0.031449  -0.022873   0.000051  -0.000030
    21  H    0.391646  -0.031449   0.548347  -0.025739  -0.000435  -0.000009
    22  H    0.393405  -0.022873  -0.025739   0.519978   0.001474   0.000131
    23  C   -0.014970   0.000051  -0.000435   0.001474   5.573400   0.407232
    24  H   -0.001103  -0.000030  -0.000009   0.000131   0.407232   0.575829
    25  H    0.000702   0.000026   0.000023   0.000030   0.382403  -0.033815
    26  H    0.004913   0.000163   0.000044  -0.000195   0.405275  -0.026978
    27  C   -0.249113  -0.097146  -0.078551   0.001581   0.004665   0.002298
    28  O   -0.037292   0.021113  -0.007387  -0.001901  -0.002359  -0.000092
    29  O    0.074944   0.000123   0.002845  -0.001429   0.000008   0.000057
    30  H   -0.008075  -0.000240   0.000374   0.000253  -0.000214  -0.000007
             25         26         27         28         29         30
     1  C   -0.000436  -0.001558  -0.897232  -0.107396  -0.047143   0.052387
     2  H   -0.000061  -0.000181  -0.043240  -0.011544   0.000614  -0.002877
     3  H    0.000008   0.000415  -0.068747   0.021188   0.005634   0.001377
     4  H    0.000007  -0.000149  -0.014064  -0.017125  -0.001373  -0.007242
     5  C   -0.013863   0.005274  -1.279962  -0.085345  -0.185446  -0.023712
     6  H   -0.000081   0.003362  -0.057641   0.003101   0.004999   0.004530
     7  H    0.000159  -0.004949   0.047030  -0.006989  -0.008310  -0.002127
     8  C    0.007335   0.006716   0.189758  -0.089619   0.039649   0.007337
     9  H    0.001040   0.000764  -0.068853   0.001268  -0.002903   0.000729
    10  C   -0.068988  -0.014508  -0.145097   0.166741   0.036633  -0.002969
    11  H    0.006024   0.003417   0.013192  -0.007521   0.006141  -0.002971
    12  H   -0.000200   0.001169   0.015212  -0.023752   0.005139   0.001904
    13  C    0.042524  -0.046110   0.039875   0.010721   0.028306  -0.003359
    14  H    0.010818  -0.008427   0.008131   0.000973   0.000558  -0.000004
    15  C   -0.007336   0.019081  -0.006135   0.000528  -0.002648   0.000382
    16  H    0.009785  -0.003927  -0.000214   0.000297  -0.000378   0.000068
    17  H    0.002392   0.002111  -0.000633   0.000082  -0.000057  -0.000010
    18  H   -0.002261  -0.002851   0.001611   0.000618  -0.000224  -0.000136
    19  C    0.000702   0.004913  -0.249113  -0.037292   0.074944  -0.008075
    20  H    0.000026   0.000163  -0.097146   0.021113   0.000123  -0.000240
    21  H    0.000023   0.000044  -0.078551  -0.007387   0.002845   0.000374
    22  H    0.000030  -0.000195   0.001581  -0.001901  -0.001429   0.000253
    23  C    0.382403   0.405275   0.004665  -0.002359   0.000008  -0.000214
    24  H   -0.033815  -0.026978   0.002298  -0.000092   0.000057  -0.000007
    25  H    0.560643  -0.036704   0.000648   0.000300   0.000019  -0.000020
    26  H   -0.036704   0.560554  -0.014958   0.000499   0.000042   0.000030
    27  C    0.000648  -0.014958   8.503519   0.107888   0.029145  -0.015020
    28  O    0.000300   0.000499   0.107888   8.075615  -0.027623  -0.011593
    29  O    0.000019   0.000042   0.029145  -0.027623   8.064076   0.186620
    30  H   -0.000020   0.000030  -0.015020  -0.011593   0.186620   0.565573
 Mulliken atomic charges:
              1
     1  C   -0.464468
     2  H    0.168883
     3  H    0.141952
     4  H    0.160216
     5  C   -0.620263
     6  H    0.191192
     7  H    0.172929
     8  C    0.575545
     9  H    0.180663
    10  C   -0.924881
    11  H    0.150814
    12  H    0.183737
    13  C    0.413730
    14  H    0.131075
    15  C   -0.618222
    16  H    0.136646
    17  H    0.147502
    18  H    0.132006
    19  C   -0.659285
    20  H    0.155103
    21  H    0.161508
    22  H    0.182308
    23  C   -0.673883
    24  H    0.138989
    25  H    0.138879
    26  H    0.147666
    27  C    0.072052
    28  O    0.026607
    29  O   -0.208015
    30  H    0.259012
 Sum of Mulliken atomic charges =   0.00000
 Mulliken charges with hydrogens summed into heavy atoms:
              1
     1  C    0.006583
     5  C   -0.256142
     8  C    0.756208
    10  C   -0.590330
    13  C    0.544805
    15  C   -0.202067
    19  C   -0.160365
    23  C   -0.248349
    27  C    0.072052
    28  O    0.026607
    29  O    0.050997
 Sum of Mulliken charges with hydrogens summed into heavy atoms =   0.00000
          Atomic-Atomic Spin Densities.
              1          2          3          4          5          6
     1  C    0.074686  -0.000333   0.001380   0.014594   0.108451  -0.017488
     2  H   -0.000333   0.000102   0.000006  -0.000262  -0.000495   0.000089
     3  H    0.001380   0.000006  -0.000299   0.000450   0.002184  -0.000403
     4  H    0.014594  -0.000262   0.000450   0.005022   0.010040  -0.001488
     5  C    0.108451  -0.000495   0.002184   0.010040   0.228759  -0.048612
     6  H   -0.017488   0.000089  -0.000403  -0.001488  -0.048612   0.031195
     7  H   -0.009193  -0.000075   0.000135  -0.000738  -0.029842   0.010860
     8  C   -0.080663  -0.001412  -0.001363  -0.006683  -0.311067   0.041776
     9  H   -0.003070  -0.000029  -0.000224  -0.000249  -0.009351   0.000898
    10  C   -0.001954   0.000860  -0.000154   0.000264   0.024970  -0.010099
    11  H   -0.001558  -0.000054  -0.000033  -0.000018  -0.016653   0.004406
    12  H    0.007700   0.000102   0.000027   0.000462   0.072572  -0.007498
    13  C   -0.004127  -0.000157  -0.000020  -0.000112  -0.061048   0.010030
    14  H   -0.000944  -0.000009  -0.000008  -0.000046  -0.011815   0.001114
    15  C    0.000630   0.000035  -0.000011   0.000036   0.012303  -0.002017
    16  H   -0.000189  -0.000003  -0.000002  -0.000008  -0.002075   0.000314
    17  H    0.000020   0.000001   0.000000   0.000001   0.000570  -0.000051
    18  H    0.000227   0.000003   0.000003   0.000011   0.002638  -0.000265
    19  C   -0.035163   0.000054  -0.000570  -0.004001  -0.080349   0.009669
    20  H   -0.003228  -0.000042  -0.000059  -0.000479  -0.006464   0.000887
    21  H   -0.003375   0.000047  -0.000053  -0.000743  -0.004604   0.000454
    22  H    0.005463   0.000045   0.000097   0.000864   0.015450  -0.001790
    23  C    0.000830   0.000019   0.000017   0.000007   0.012063  -0.000736
    24  H    0.000035   0.000001   0.000001   0.000001   0.000155  -0.000057
    25  H    0.000024   0.000001   0.000003  -0.000001   0.000628  -0.000364
    26  H    0.000095  -0.000002  -0.000007   0.000004   0.003426  -0.000017
    27  C   -0.057833   0.001504  -0.001502  -0.016699   0.026790  -0.007266
    28  O    0.003019  -0.000043   0.000111   0.001427  -0.000055  -0.000250
    29  O    0.000633  -0.000028   0.000007   0.000319   0.000585   0.000484
    30  H   -0.002060   0.000034  -0.000024  -0.000381  -0.002983   0.000551
              7          8          9         10         11         12
     1  C   -0.009193  -0.080663  -0.003070  -0.001954  -0.001558   0.007700
     2  H   -0.000075  -0.001412  -0.000029   0.000860  -0.000054   0.000102
     3  H    0.000135  -0.001363  -0.000224  -0.000154  -0.000033   0.000027
     4  H   -0.000738  -0.006683  -0.000249   0.000264  -0.000018   0.000462
     5  C   -0.029842  -0.311067  -0.009351   0.024970  -0.016653   0.072572
     6  H    0.010860   0.041776   0.000898  -0.010099   0.004406  -0.007498
     7  H    0.022104   0.024692   0.007482  -0.006676   0.000824  -0.000754
     8  C    0.024692   1.564597   0.017966  -0.080577   0.011501  -0.148201
     9  H    0.007482   0.017966  -0.061879  -0.006956   0.001327  -0.007959
    10  C   -0.006676  -0.080577  -0.006956  -0.066515  -0.007592   0.075797
    11  H    0.000824   0.011501   0.001327  -0.007592   0.025620  -0.019614
    12  H   -0.000754  -0.148201  -0.007959   0.075797  -0.019614   0.137658
    13  C    0.001657   0.042164   0.011778  -0.049769   0.025636  -0.056891
    14  H    0.000310   0.011351   0.002119  -0.010037   0.002275  -0.009252
    15  C   -0.000019  -0.009116  -0.003067   0.016325  -0.007074   0.011730
    16  H    0.000032   0.002568   0.000270  -0.002308   0.000645  -0.001406
    17  H    0.000009  -0.001443  -0.000121   0.002313  -0.000224   0.000046
    18  H   -0.000035  -0.005053  -0.000416   0.004110  -0.000778   0.004532
    19  C    0.007340   0.093565   0.003496  -0.006337   0.001590  -0.010333
    20  H    0.000620   0.006951   0.000861  -0.000740   0.000054  -0.000534
    21  H    0.000407   0.004517   0.000231  -0.000043   0.000066  -0.000499
    22  H   -0.001664  -0.020763  -0.001651   0.001858  -0.000536   0.004254
    23  C    0.000252   0.002112  -0.000246  -0.011257  -0.002647   0.005980
    24  H   -0.000008   0.000610  -0.000076   0.000311   0.000096   0.000066
    25  H   -0.000138  -0.000714  -0.000400   0.002259  -0.000541   0.000708
    26  H    0.000294  -0.000230  -0.000028  -0.001686  -0.000143  -0.000312
    27  C   -0.009562  -0.101399  -0.008462   0.016028  -0.001868   0.013384
    28  O   -0.000578   0.007405   0.000474  -0.001867   0.000623  -0.002616
    29  O    0.000201   0.004698   0.000220  -0.001590  -0.000187  -0.000135
    30  H    0.000033   0.003037   0.000075  -0.000456   0.000113  -0.000442
             13         14         15         16         17         18
     1  C   -0.004127  -0.000944   0.000630  -0.000189   0.000020   0.000227
     2  H   -0.000157  -0.000009   0.000035  -0.000003   0.000001   0.000003
     3  H   -0.000020  -0.000008  -0.000011  -0.000002   0.000000   0.000003
     4  H   -0.000112  -0.000046   0.000036  -0.000008   0.000001   0.000011
     5  C   -0.061048  -0.011815   0.012303  -0.002075   0.000570   0.002638
     6  H    0.010030   0.001114  -0.002017   0.000314  -0.000051  -0.000265
     7  H    0.001657   0.000310  -0.000019   0.000032   0.000009  -0.000035
     8  C    0.042164   0.011351  -0.009116   0.002568  -0.001443  -0.005053
     9  H    0.011778   0.002119  -0.003067   0.000270  -0.000121  -0.000416
    10  C   -0.049769  -0.010037   0.016325  -0.002308   0.002313   0.004110
    11  H    0.025636   0.002275  -0.007074   0.000645  -0.000224  -0.000778
    12  H   -0.056891  -0.009252   0.011730  -0.001406   0.000046   0.004532
[...]
 278,0.00102874,0.00002817,-0.00035531,0.01338303,-0.00507734,0.0027520
 5,-0.00056533,0.00057827,0.00005679,0.00108948,0.00037293,0.00081790,0
 .00007671,-0.00004521,-0.00000075,-0.00054059,-0.00019930,-0.00046119,
 -0.00029270,0.00020855,0.00010728,-0.00001710,0.00001038,-0.00000429,0
 .00000464,0.00000386,-0.00000010,0.00000254,-0.00000254,0.00000105,-0.
 00000053,-0.00000767,0.00000767,0.06519028,-0.06550817,0.00759577,-0.0
 7335720,0.06751008,0.00000770,0.00001144,0.00000013,0.00000206,-0.0000
 0636,0.00000178,0.00000495,0.00000501,0.00000211,-0.00000018,-0.000001
 70,0.00000287,-0.00001144,0.00013139,-0.00005427,0.00006201,-0.0000488
 4,0.00002533,0.00005651,0.00001364,0.00002352,-0.00055414,-0.00036193,
 0.00013737,0.00006426,0.00006187,-0.00006809,0.00077691,-0.00239353,-0
 .00479407,0.00006100,-0.00030555,0.00013219,0.00169369,-0.00054057,0.0
 0011410,0.02750204,-0.00765983,0.00336053,-0.00022246,0.00081597,0.001
 09726,0.00068314,0.00082982,0.00106861,-0.00016272,-0.00004781,-0.0000
 6792,-0.00053293,-0.00018928,0.00003747,-0.00002952,0.00038590,0.00003
 746,-0.00002598,0.00001479,-0.00000366,0.00000834,0.00000611,0.0000023
 1,0.00000220,-0.00000344,0.00000648,-0.00000096,-0.00001346,0.00001656
 ,-0.02832109,0.00816330,-0.04996231,0.02887383,-0.00648512,0.05329965,
 0.00000067,0.00000271,0.00000200,-0.00000828,0.00000167,-0.00000480,0.
 00000069,0.00000309,0.00000209,0.00000430,-0.00000296,-0.00000476,-0.0
 0000259,-0.00000589,0.00004394,-0.00009293,0.00002880,-0.00003680,0.00
 001070,0.00001187,-0.00000214,-0.00008598,-0.00018478,-0.00017362,0.00
 008749,0.00013193,-0.00006928,0.00092863,-0.00127889,0.00093095,-0.000
 01629,0.00044827,-0.00033653,0.00011396,0.00010182,-0.00026399,-0.0003
 0307,-0.00724091,0.00916856,-0.00014372,0.00102548,0.00212914,0.000001
 48,-0.00003283,-0.00075991,0.00027037,0.00002862,-0.00021220,-0.000006
 39,0.00015217,-0.00009787,-0.00014616,-0.00011777,0.00002099,0.0000185
 0,-0.00000712,-0.00000263,0.00000185,0.00000304,0.00000070,0.00000518,
 0.00000012,-0.00000805,-0.00000240,-0.00000446,0.00000461,-0.04869846,
 0.01108757,-0.01401623,-0.00124006,0.01991560,-0.02459861,0.04822448,-
 0.00002032,0.00000819,0.00002000,-0.00000172,0.00000907,-0.00000557,0.
 00000013,-0.00000260,0.00000318,-0.00000949,0.00000152,-0.00000785,0.0
 0006644,-0.00002203,0.00012124,-0.00008065,0.00006637,-0.00006396,-0.0
 0000866,-0.00001189,-0.00000503,-0.00004701,-0.00010769,0.00015984,0.0
 0002393,0.00004506,-0.00008614,-0.00054892,0.00078962,-0.00019023,-0.0
 0027552,0.00004839,0.00030141,-0.00023601,0.00010266,0.00005575,-0.001
 21038,0.00888964,-0.01168199,0.00098708,-0.00036755,-0.00315486,-0.000
 02617,0.00156010,-0.00053961,0.00016586,0.00002030,0.00030840,-0.00004
 657,-0.00008968,0.00003037,0.00005339,0.00020039,0.00020665,0.00001561
 ,-0.00000483,-0.00000248,0.00000549,-0.00000024,0.00000014,-0.00000619
 ,0.00000585,-0.00000536,-0.00000079,-0.00000466,-0.00001653,0.01119235
 ,-0.14654675,0.12367546,0.00021005,-0.00577927,0.00546121,-0.01330325,
 0.15749658,0.00000888,-0.00001177,-0.00000865,0.00000373,-0.00000151,0
 .00000704,-0.00000289,-0.00000171,-0.00000244,0.00000611,-0.00000090,0
 .00000224,-0.00000338,0.00003821,-0.00004252,0.00006660,-0.00001798,0.
 00005182,0.00001980,0.00000146,0.00000921,0.00019807,0.00000041,0.0000
 0223,-0.00012060,-0.00013989,0.00002095,-0.00143631,0.00074669,0.00080
 698,0.00084488,-0.00055114,0.00060911,-0.00014048,-0.00019933,0.000431
 81,-0.00170357,0.01807215,-0.02439148,0.00222180,-0.00344123,-0.004026
 81,0.00004908,0.00162236,0.00101624,-0.00033780,-0.00130167,0.00019106
 ,-0.00001340,-0.00004587,-0.00003007,0.00011196,-0.00020987,0.00053945
 ,-0.00002058,-0.00000647,-0.00000995,-0.00000367,-0.00000252,0.0000023
 7,0.00000689,-0.00000258,0.00000400,-0.00000068,0.00000804,0.00000889,
 -0.01391080,0.12297550,-0.19849463,-0.00058512,0.00162914,-0.00265171,
 0.01361731,-0.13498089,0.22025298,0.00003128,-0.00002321,-0.00003653,-
 0.00000787,-0.00000235,0.00000043,-0.00000046,0.00000600,0.00000030,0.
 00002473,-0.00000716,0.00000579,-0.00008664,-0.00000043,-0.00008108,0.
 00000166,-0.00000291,0.00003372,0.00002433,0.00000955,0.00002596,-0.00
 043913,0.00003191,0.00013230,-0.00018928,0.00005237,0.00025082,0.00052
 764,0.00011760,-0.00042350,-0.00009726,0.00002888,0.00000339,0.0001846
 1,-0.00020336,-0.00007105,0.00582196,0.01016512,0.00147720,0.00025882,
 -0.00038186,-0.00064424,-0.00060214,0.00087431,0.00147251,-0.00012193,
 -0.00009003,0.00003177,0.00038222,0.00012838,0.00025822,0.00059554,0.0
 0038872,0.00038815,0.00001022,-0.00001954,-0.00000949,0.00000259,0.000
 00581,0.00000746,0.00001565,-0.00000214,-0.00001121,-0.00001143,-0.000
 00149,0.00002626,-0.12253459,-0.11494769,-0.02834401,-0.01591915,-0.02
 562136,-0.00544414,0.00109801,0.00314629,0.00111109,0.13103549,-0.0000
 3875,0.00004396,0.00006041,0.00001190,-0.00000855,-0.00000434,0.000011
 23,0.00000199,-0.00000173,-0.00003877,0.00000827,-0.00000522,0.0001905
 2,0.00017888,0.00012369,0.00004826,-0.00008340,-0.00003480,0.00004820,
 -0.00001382,-0.00002898,-0.00044314,0.00027227,0.00084177,0.00002199,0
 .00012185,-0.00014448,-0.00069500,0.00008667,0.00028363,0.00013808,-0.
 00011322,-0.00006664,0.00004802,0.00005472,-0.00005087,-0.00734754,-0.
 01201531,-0.00148674,0.00021673,0.00079603,-0.00017402,0.00211211,-0.0
 0018409,-0.00330425,0.00013433,0.00049300,0.00013260,-0.00014504,0.000
 14790,0.00010273,-0.00072200,-0.00071073,-0.00043829,-0.00005041,0.000
 05512,0.00001408,0.00000867,0.00000245,-0.00001115,-0.00002918,0.00000
 173,0.00002051,0.00001673,-0.00001355,-0.00003161,-0.11393305,-0.22047
 189,-0.04227498,0.00478652,0.00854688,0.00222268,-0.01076774,-0.016328
 58,-0.00416976,0.12632243,0.23921443,-0.00003248,0.00003090,0.00004112
 ,0.00000264,0.00000445,-0.00000528,0.00000290,-0.00000302,0.00000384,-
 0.00002479,0.00000268,-0.00000950,0.00015242,0.00020945,0.00010867,-0.
 00008619,0.00005444,-0.00007090,0.00000944,-0.00002537,0.00001213,0.00
 014034,-0.00020314,0.00034273,0.00023064,0.00019927,-0.00033894,-0.000
 73907,0.00067889,0.00108730,0.00016650,0.00003456,-0.00004557,-0.00017
 275,0.00016216,-0.00009999,-0.01614562,-0.02294504,-0.00507553,-0.0005
 6801,0.00069097,0.00076746,0.00300632,-0.00160143,-0.00475403,0.000107
 05,-0.00029120,0.00017497,0.00017464,0.00036062,0.00003830,-0.00075252
 ,-0.00177976,-0.00029778,0.00000040,0.00001272,0.00000331,0.00000997,0
 .00000118,-0.00000201,-0.00001663,0.00000618,0.00000199,0.00000833,-0.
 00001510,-0.00002629,-0.02783584,-0.04162786,-0.05721484,-0.00205808,-
 0.00291646,-0.00179363,0.01469324,0.02046666,0.00565490,0.02977153,0.0
 4851244,0.06159342,-0.14387930,0.01006721,-0.04173277,0.00566246,0.000
 47095,0.00364610,-0.00426524,0.00123240,-0.00215832,-0.02292442,-0.001
 05174,-0.01441831,-0.10299897,0.01417564,0.02990155,-0.00567526,0.0043
 7413,0.00622022,0.00641838,-0.00602076,-0.00383212,-0.03384183,0.01110
 464,0.00045623,-0.00019324,-0.00029933,0.00033528,0.00102778,0.0001409
 9,-0.00026462,-0.00038059,-0.00025259,0.00021545,-0.00054409,-0.000505
 81,-0.00024318,-0.00069081,0.00018059,-0.00017055,0.00017645,-0.000107
 22,0.00008505,0.00013213,-0.00019025,-0.00001772,-0.00004113,0.0000077
 4,-0.00001408,0.00013320,0.00004617,0.00001765,-0.00003348,0.00002442,
 0.00001794,-0.08012911,-0.00361101,0.01072524,-0.00303204,-0.00264395,
 0.00631238,-0.00558547,-0.01143726,0.02346448,0.00528794,0.01254573,-0
 .02601224,0.00011102,-0.00011083,0.00008635,0.00014775,-0.00003515,-0.
 00002001,-0.00007328,-0.00001307,0.00000694,-0.00006249,0.00010359,-0.
 00002860,0.45262361,0.00542987,-0.07263208,0.00437155,0.01507419,-0.00
 026633,0.00915916,-0.02489702,-0.00171802,-0.01756398,0.01435335,-0.00
 195672,0.00940386,0.00813247,-0.06954818,-0.01081857,-0.01281096,0.006
 30945,0.00869388,0.02063127,-0.01494235,-0.01681658,0.00853939,-0.0003
 3893,0.00743651,-0.00022456,-0.00016026,-0.00012983,0.00017903,0.00063
 963,-0.00103842,-0.00066704,0.00026238,0.00073098,-0.00143374,-0.00063
 438,-0.00117653,-0.00032564,-0.00081281,-0.00027802,0.00021688,-0.0001
 0520,0.00009170,-0.00023863,0.00013888,0.00000581,-0.00005805,-0.00003
 943,0.00008915,-0.00005598,-0.00010741,-0.00001638,-0.00002325,-0.0000
 1193,-0.00010956,-0.00514306,-0.08526390,0.03586680,-0.00474365,-0.013
 76060,0.02860282,0.00213364,0.00547255,-0.01500934,0.00120730,-0.00034
 235,-0.00323391,0.00022842,0.00015760,0.00008608,-0.00005892,-0.000072
 35,-0.00011031,0.00000573,0.00001082,0.00002819,0.00005879,-0.00023423
 ,-0.00007491,-0.00711746,0.40090144,-0.04481707,0.01039599,-0.10799204
 ,-0.02417822,-0.00087638,-0.01752804,-0.00164187,0.00050768,-0.0035382
 6,0.01423880,-0.00046236,0.00781330,0.01163645,-0.00109996,-0.08784752
 ,0.02300974,-0.01279828,-0.01908991,0.00445648,-0.00220544,-0.00475341
 ,-0.00444385,0.00785838,0.01254302,-0.00142270,-0.00025781,-0.00195002
 ,-0.00016744,0.00084059,-0.00073687,-0.00020531,0.00000954,0.00017487,
 -0.00081247,-0.00074953,-0.00044928,-0.00022578,-0.00072352,-0.0000695
 3,0.00008525,-0.00000801,0.00004743,-0.00026109,0.00013980,0.00003149,
 -0.00001308,-0.00002989,0.00003262,-0.00011630,-0.00008877,-0.00001687
 ,0.00003194,-0.00001891,-0.00004343,0.01315216,0.03040942,-0.16120714,
 -0.00184785,-0.00439147,0.00530739,0.00231666,0.00650024,-0.01496809,0
 .00283381,0.00785838,-0.01720709,0.00005193,0.00013559,-0.00003578,-0.
 00009980,-0.00004405,-0.00001324,-0.00000926,-0.00004747,0.00003204,0.
 00008245,-0.00014564,-0.00010038,0.01214840,-0.02046705,0.52150561,-0.
 00907648,-0.03684167,-0.01097348,0.00130754,0.00036929,0.00027068,-0.0
 0551783,-0.00076528,-0.00543709,0.00355920,-0.00033890,0.00158023,0.00
 979431,0.01987265,0.00536437,0.00054653,-0.00088998,-0.00017057,-0.003
 33862,0.00323288,0.00324916,0.00137831,-0.00034718,-0.00023588,-0.0000
 2605,0.00023745,0.00004657,-0.00157582,0.00031429,-0.00085847,0.000123
 30,-0.00010350,-0.00009996,0.00037609,0.00061896,0.00104361,0.00040440
 ,0.00020911,0.00067807,-0.00008721,0.00007379,-0.00006901,-0.00003969,
 0.00012536,0.00002042,0.00003357,-0.00001662,0.00001147,-0.00011639,-0
 .00002218,-0.00000982,0.00004403,-0.00000402,0.00000322,-0.00108315,-0
 .01005013,0.00357827,-0.00073606,-0.00009248,0.00022505,0.00024747,-0.
 00046373,-0.00057955,0.00006464,0.00063961,-0.00031572,-0.00036740,0.0
 0004546,-0.00014090,-0.00014767,0.00006548,0.00011406,0.00003190,-0.00
 002427,0.00001045,0.00005282,-0.00002903,-0.00002332,-0.06117615,-0.01
 230709,-0.01307391,0.08930462,-0.01298294,-0.02124521,-0.00787643,0.00
 094280,-0.00007462,0.00108631,-0.00314213,0.00115487,-0.00167643,-0.00
 004538,0.00131010,0.00076606,0.00034997,-0.03921883,-0.01106784,-0.001
 40359,0.00118345,0.00172079,0.00548832,-0.00252164,-0.00330228,-0.0032
 1463,0.00136819,-0.00101095,0.00010268,0.00002216,0.00014005,0.0005891
 3,-0.00068575,-0.00005618,0.00014992,-0.00010123,-0.00003975,0.0005798
 1,0.00034055,0.00035059,0.00004573,0.00034097,0.00008055,-0.00002283,-
 0.00000210,-0.00001118,0.00012673,-0.00010982,-0.00002536,0.00001243,0
 .00001762,-0.00003340,0.00004865,0.00006067,0.00001598,0.00000550,0.00
 002362,0.00005840,-0.00818962,-0.02850313,0.01344773,0.00002668,-0.000
 30692,0.00002851,0.00054785,0.00051491,-0.00107274,-0.00026559,0.00026
 957,-0.00114124,-0.00005915,-0.00008851,0.00000220,0.00005139,0.000024
 21,0.00002322,-0.00000607,0.00000360,-0.00001574,-0.00003113,0.0001055
 2,0.00003168,-0.01458300,-0.12613385,-0.06957375,0.04055933,0.32047540
 ,-0.00773794,-0.02875774,-0.00505596,0.00108879,0.00046081,-0.00070547
 ,-0.00462900,0.00067599,-0.00389627,0.00049541,0.00056544,0.00125603,-
 0.00358265,-0.02492928,-0.00404748,-0.00074738,0.00088830,-0.00034258,
 0.00404294,-0.00188309,-0.00270127,-0.00144688,0.00056280,-0.00056000,
 0.00004961,0.00008028,0.00012034,-0.00034051,-0.00052950,0.00034890,0.
 00021937,0.00010119,-0.00038065,0.00026464,0.00036014,0.00053226,0.000
 12040,0.00038636,0.00002446,-0.00009269,0.00003575,-0.00002872,0.00008
 516,-0.00004331,-0.00000535,0.00002265,0.00000691,-0.00003150,0.000004
 15,0.00003975,0.00000691,0.00001165,0.00001134,0.00004847,0.00925246,0
 .03444016,-0.00094768,0.00115382,0.00348228,-0.00485269,-0.00001112,0.
 00082582,0.00122764,0.00017789,0.00092414,0.00115793,-0.00011371,-0.00
 005452,-0.00004202,0.00000714,0.00003236,0.00004299,-0.00000148,-0.000
 00524,-0.00000549,-0.00001300,0.00007864,0.00002279,-0.00931020,-0.027
 89222,-0.10501647,-0.00539581,-0.02275270,0.30795472,-0.00093085,-0.00
 114816,-0.00069902,-0.00056337,-0.00094355,0.00214040,0.00060548,-0.00
 031006,0.00144441,-0.00011003,0.00005530,0.00000776,0.00038049,0.00222
 363,-0.00076843,0.00013373,0.00051539,-0.00076334,0.00008109,0.0000613
 0,-0.00021338,-0.00028440,0.00000302,-0.00011840,0.00008440,0.00003238
 ,0.00001013,-0.00052937,-0.00007066,0.00039530,-0.00023687,0.00021498,
 -0.00059468,0.00006970,0.00002119,0.00008646,0.00014272,0.00014222,-0.
 00011740,-0.00009055,0.00004790,-0.00002306,0.00002358,-0.00002432,0.0
 0001940,0.00002720,0.00000545,-0.00003420,-0.00002296,0.00003035,-0.00
 000324,0.00001778,0.00000067,0.00003916,0.00017768,-0.00131223,-0.0013
 0763,0.00105316,-0.00012332,0.00054038,0.00024643,0.00014418,-0.000631
 52,0.00030466,-0.00024034,0.00069143,-0.00002003,-0.00001866,-0.000021
 75,-0.00001514,0.00001275,0.00001105,0.00000850,-0.00001071,-0.0000058
 3,0.00000671,0.00002608,0.00000793,-0.00802600,-0.00604860,0.00553865,
 -0.03437555,0.01024492,0.01252068,0.36870053,-0.00014352,0.00130639,-0
 .00233474,-0.00145374,-0.00145804,0.00071493,0.00065246,0.00010116,0.0
 0112028,-0.00042801,-0.00018335,0.00039597,0.00108192,0.00054726,-0.00
 127431,0.00060080,-0.00249785,0.00042178,-0.00074054,0.00066277,0.0009
 8888,0.00005657,-0.00076037,-0.00004141,0.00013713,0.00019166,0.000128
 42,0.00020371,-0.00017334,-0.00008130,0.00004984,-0.00008836,-0.000052
 53,0.00005868,0.00001377,0.00042827,-0.00010211,0.00013105,0.00008413,
 -0.00002179,0.00004436,-0.00003969,0.00005696,-0.00009528,0.00001701,0
 .00003589,0.00003068,-0.00008567,0.00001352,0.00006279,0.00000423,0.00
 000356,-0.00001181,0.00006405,-0.00207334,-0.01079568,-0.00700675,-0.0
 0060031,-0.00069213,0.00341352,-0.00038117,0.00043190,-0.00019942,0.00
 044614,0.00038507,-0.00029006,-0.00002692,-0.00003900,0.00001618,0.000
 02618,0.00000857,0.00001208,-0.00001190,0.00001357,-0.00003128,-0.0000
 1440,0.00008081,0.00003902,-0.00918639,-0.02099051,0.04581426,-0.01453
 606,-0.09351027,0.06100994,-0.23132872,0.32716041,-0.00198361,-0.00139
 029,-0.00098935,0.00059308,-0.00065177,0.00265452,-0.00035928,-0.00095
 104,0.00098990,0.00024869,0.00005997,-0.00005442,0.00089441,-0.0011971
 6,0.00071745,-0.00092455,-0.00067169,0.00128700,-0.00002629,-0.0004056
 2,0.00038634,-0.00020044,0.00019271,0.00026247,0.00015127,-0.00011838,
 0.00005686,0.00022506,0.00020012,-0.00028949,-0.00003971,-0.00011043,0
 .00018389,0.00007146,0.00003904,-0.00014459,0.00004191,-0.00010517,0.0
 0006790,0.00004866,-0.00003391,0.00003139,-0.00001472,0.00001627,-0.00
 004395,-0.00000594,-0.00002054,0.00001945,-0.00001364,-0.00000286,0.00
 000630,0.00000603,0.00001212,0.00002561,0.00047930,0.00246278,0.006184
 61,-0.00007618,0.00018368,-0.00122853,-0.00040759,-0.00062392,0.000419
 14,-0.00001833,-0.00082525,0.00045713,-0.00000248,0.00004517,-0.000032
 07,-0.00001125,-0.00000444,0.00001093,-0.00000706,-0.00002970,0.000024
 74,0.00001071,-0.00001671,-0.00001837,0.00536748,0.01079247,-0.0007226
 9,0.04291760,0.06536115,-0.16838458,-0.06849540,-0.08124777,0.18197991
 ,0.00030197,-0.00007794,-0.00017711,-0.00010359,-0.00048634,-0.0005109
 4,-0.00020628,0.00031772,-0.00004995,-0.00059741,-0.00019724,0.0002731
 1,-0.00035877,-0.00053026,0.00022348,0.00004588,0.00017209,-0.00018092
 ,0.00014813,-0.00009848,-0.00019833,-0.00014553,-0.00008726,-0.0000664
 8,-0.00001169,0.00004942,-0.00001201,-0.00022013,-0.00016881,0.0005074
 7,0.00016432,0.00013334,-0.00027588,-0.00000844,-0.00002710,-0.0000666
 4,0.00010801,0.00010472,-0.00015777,-0.00007898,0.00001782,-0.00000908
 ,-0.00000002,0.00003338,0.00001152,-0.00000273,-0.00000186,0.00002271,
 -0.00000093,-0.00001782,-0.00000335,-0.00000432,-0.00000017,-0.0000264
 1,-0.00039178,-0.00124351,-0.00066322,-0.00014440,-0.00027196,0.000384
 95,0.00000726,0.00008298,0.00003568,-0.00001732,0.00013760,-0.00014279
 ,-0.00000207,-0.00001925,-0.00000884,-0.00000351,0.00000480,0.00000042
 ,0.00001289,0.00000306,0.00000149,-0.00000191,-0.00000575,-0.00000036,
 0.00183220,-0.00003667,0.00375327,0.01039535,-0.01592581,0.00390563,-0
 .32685871,0.25762559,0.02153080,0.31614251,0.00015201,0.00026620,0.000
 62987,-0.00022033,-0.00066291,-0.00107308,-0.00000665,0.00047607,-0.00
 031628,-0.00039315,-0.00013821,0.00012110,-0.00033060,0.00023312,0.000
 08601,0.00005095,-0.00001714,0.00015884,-0.00006148,0.00003994,0.00010
 549,-0.00002438,0.00004978,0.00018243,-0.00002445,-0.00001001,-0.00006
 805,-0.00012463,0.00010975,-0.00008288,0.00021508,-0.00009251,-0.00006
 402,0.00004942,-0.00003176,0.00003690,0.00009716,-0.00000162,0.0000176
 9,-0.00002541,0.00000262,-0.00000018,-0.00002979,0.00005492,-0.0000001
 9,-0.00000058,-0.00001002,0.00003194,-0.00002868,-0.00002465,-0.000003
 61,0.00001153,0.00000276,-0.00002118,-0.00045059,-0.00057470,-0.000225
 46,-0.00018105,0.00001562,0.00020464,-0.00005930,-0.00003288,0.0001622
 9,-0.00004728,0.00006709,-0.00020141,-0.00003484,0.00001254,-0.0000273
 4,-0.00003336,0.00000816,0.00000931,0.00001608,-0.00000594,0.00000993,
 0.00001289,-0.00003512,-0.00001498,0.00269160,-0.00382092,0.00351841,0
 .01046846,-0.01471352,0.00187919,0.22779764,-0.19987621,0.00904118,-0.
 23948628,0.21870956,-0.00028359,-0.00021248,0.00140738,0.00017457,-0.0
 0037401,-0.00041241,0.00006539,0.00016056,-0.00029073,0.00009420,0.000
 05637,-0.00001844,-0.00004352,-0.00045987,-0.00082205,-0.00002771,0.00
 003688,0.00057984,0.00004944,-0.00025240,0.00019750,-0.00013367,0.0000
 8579,0.00000180,0.00004323,-0.00006320,0.00001432,0.00013883,0.0001062
 0,-0.00014945,-0.00018125,-0.00003167,0.00014989,0.00001844,0.00005887
 ,-0.00008380,-0.00008821,-0.00004848,0.00005339,0.00004895,-0.00002602
 ,0.00000976,0.00000632,-0.00001457,0.00001253,-0.00001792,0.00000499,0
 .00000811,0.00002674,-0.00000683,0.00000040,-0.00000962,0.00000127,-0.
 00002498,-0.00007788,0.00115231,0.00037611,0.00029910,0.00004447,-0.00
 027474,0.00012769,0.00001241,-0.00002431,0.00001924,-0.00005974,0.0000
 9257,0.00001998,-0.00000794,0.00002571,0.00002145,-0.00000734,-0.00001
 077,-0.00000832,0.00001258,-0.00000430,-0.00001180,-0.00000297,0.00000
 008,-0.00078401,-0.00062334,-0.00420168,-0.02172975,0.03654276,-0.0157
 3925,0.05034414,-0.02198802,-0.02385750,-0.02810044,-0.01409657,0.0429
 8504\\-0.00000065,-0.00000342,0.00000191,-0.00000052,-0.00000378,0.000
 00188,-0.00000009,-0.00000343,0.00000360,-0.00000015,-0.00000284,0.000
 00202,-0.00000069,-0.00000144,0.00000228,-0.00000085,-0.00000247,0.000
 00129,0.00000064,-0.00000245,0.00000250,0.00000193,0.00000085,-0.00000
 269,0.00000142,0.00000150,0.00000270,0.00000105,-0.00000216,-0.0000017
 8,-0.00000145,-0.00000005,-0.00000002,0.00000003,0.00000478,-0.0000018
 7,-0.00000075,-0.00000016,-0.00000360,0.00000150,0.00000290,-0.0000001
 7,-0.00000043,0.00000247,-0.00000308,-0.00000054,0.00000274,-0.0000039
 4,-0.00000035,0.00000374,-0.00000360,-0.00000042,0.00000412,-0.0000034
 7,0.00000155,0.00000022,0.00000205,0.00000182,-0.00000024,0.00000373,0
 .00000134,0.00000054,0.00000189,0.00000130,0.00000173,0.00000214,-0.00
 000071,0.00000007,-0.00000049,0.00000014,0.00000158,-0.00000109,-0.000
 00054,0.00000064,-0.00000104,-0.00000019,0.00000053,0.00000154,0.00000
 102,0.00000014,0.00000159,-0.00000198,-0.00000048,-0.00000049,-0.00000
 157,-0.00000284,-0.00000226,-0.00000187,-0.00000279,-0.00000152\\\@
 Job cpu time:  0 days 11 hours  8 minutes 42.6 seconds.
 File lengths (MBytes):  RWF=  73727 Int=      0 D2E=      0 Chk=     32 Scr=      1
 Normal termination of Gaussian 09 at Sun Feb  9 04:47:57 2014.
