 Entering Gaussian System, Link 0=g09
 Initial command:
 /usr/caen/gaussian-09revc/g09/l1.exe /scratch/avioli_flux/hetanjin/scratch/Gau-1183.inp -scrdir=/scratch/avioli_flux/hetanjin/scratch/
 Entering Link 1 = /usr/caen/gaussian-09revc/g09/l1.exe PID=      1184.
  
 Copyright (c) 1988,1990,1992,1993,1995,1998,2003,2009,2011,
            Gaussian, Inc.  All Rights Reserved.
  
 This is part of the Gaussian(R) 09 program.  It is based on
 the Gaussian(R) 03 system (copyright 2003, Gaussian, Inc.),
 the Gaussian(R) 98 system (copyright 1998, Gaussian, Inc.),
 the Gaussian(R) 94 system (copyright 1995, Gaussian, Inc.),
 the Gaussian 92(TM) system (copyright 1992, Gaussian, Inc.),
 the Gaussian 90(TM) system (copyright 1990, Gaussian, Inc.),
 the Gaussian 88(TM) system (copyright 1988, Gaussian, Inc.),
 the Gaussian 86(TM) system (copyright 1986, Carnegie Mellon
 University), and the Gaussian 82(TM) system (copyright 1983,
 Carnegie Mellon University). Gaussian is a federally registered
 trademark of Gaussian, Inc.
  
 This software contains proprietary and confidential information,
 including trade secrets, belonging to Gaussian, Inc.
  
 This software is provided under written license and may be
 used, copied, transmitted, or stored only in accord with that
 written license.
  
 The following legend is applicable only to US Government
 contracts under FAR:
  
                    RESTRICTED RIGHTS LEGEND
  
 Use, reproduction and disclosure by the US Government is
 subject to restrictions as set forth in subparagraphs (a)
 and (c) of the Commercial Computer Software - Restricted
 Rights clause in FAR 52.227-19.
  
 Gaussian, Inc.
 340 Quinnipiac St., Bldg. 40, Wallingford CT 06492
  
  
 ---------------------------------------------------------------
 Warning -- This program may not be used in any manner that
 competes with the business of Gaussian, Inc. or will provide
 assistance to any competitor of Gaussian, Inc.  The licensee
 of this program is prohibited from giving any competitor of
 Gaussian, Inc. access to this program.  By using this program,
 the user acknowledges that Gaussian, Inc. is engaged in the
 business of creating and licensing software in the field of
 computational chemistry and represents and warrants to the
 licensee that it is not a competitor of Gaussian, Inc. and that
 it will not use this program in any manner prohibited above.
 ---------------------------------------------------------------
  

 Cite this work as:
 Gaussian 09, Revision C.01,
 M. J. Frisch, G. W. Trucks, H. B. Schlegel, G. E. Scuseria, 
 M. A. Robb, J. R. Cheeseman, G. Scalmani, V. Barone, B. Mennucci, 
 G. A. Petersson, H. Nakatsuji, M. Caricato, X. Li, H. P. Hratchian, 
 A. F. Izmaylov, J. Bloino, G. Zheng, J. L. Sonnenberg, M. Hada, 
 M. Ehara, K. Toyota, R. Fukuda, J. Hasegawa, M. Ishida, T. Nakajima, 
 Y. Honda, O. Kitao, H. Nakai, T. Vreven, J. A. Montgomery, Jr., 
 J. E. Peralta, F. Ogliaro, M. Bearpark, J. J. Heyd, E. Brothers, 
 K. N. Kudin, V. N. Staroverov, T. Keith, R. Kobayashi, J. Normand, 
 K. Raghavachari, A. Rendell, J. C. Burant, S. S. Iyengar, J. Tomasi, 
 M. Cossi, N. Rega, J. M. Millam, M. Klene, J. E. Knox, J. B. Cross, 
 V. Bakken, C. Adamo, J. Jaramillo, R. Gomperts, R. E. Stratmann, 
 O. Yazyev, A. J. Austin, R. Cammi, C. Pomelli, J. W. Ochterski, 
 R. L. Martin, K. Morokuma, V. G. Zakrzewski, G. A. Voth, 
 P. Salvador, J. J. Dannenberg, S. Dapprich, A. D. Daniels, 
 O. Farkas, J. B. Foresman, J. V. Ortiz, J. Cioslowski, 
 and D. J. Fox, Gaussian, Inc., Wallingford CT, 2010.
 
 ******************************************
 Gaussian 09:  EM64L-G09RevC.01 23-Sep-2011
                 9-Feb-2014 
 ******************************************
 %mem=30GB
 %nprocshared=8
 Will use up to    8 processors via shared memory.
 %chk=C9H18_3_26.chk
 -------------------------------------------------
 #p B3LYP/6-311++G(d,p) guess=mix stable=(opt,xqc)
 -------------------------------------------------
 1/38=1/1;
 2/12=2,17=6,18=5,40=1/2;
 3/5=4,6=6,7=1111,11=2,16=1,25=1,30=1,74=-5/1,2,3;
 4/13=-1/1;
 5/5=2,38=5/2;
 6/7=2,8=2,9=2,10=2,28=1/1;
 8/6=1,10=90,11=11/1;
 9/8=-3,42=1,46=1/14;
 5/5=2,8=3,13=1,17=40,38=5/2,8(-2);
 6/7=2,8=2,9=2,10=2,28=1/1;
 99/5=1,9=1/99;
 Leave Link    1 at Sun Feb  9 04:49:29 2014, MaxMem= 4026531840 cpu:       0.4
 (Enter /usr/caen/gaussian-09revc/g09/l101.exe)
 ---------------------------------------
 C9H18_3_26 using cbs-qb3 to cal. energy
 ---------------------------------------
 Charge =  0 Multiplicity = 1
 Symbolic Z-Matrix:
 C                     3.50597  -1.01968   0.17169 
 H                     3.21725  -2.03463  -0.11289 
 H                     3.60528  -0.9929    1.26226 
 H                     4.49105  -0.81097  -0.25695 
 C                    -1.34122  -0.89092   0.15976 
 H                    -1.29026  -0.85395   1.25491 
 H                    -1.61457  -1.92156  -0.10457 
 C                    -2.47366   0.04194  -0.32987 
 H                    -2.46349   0.02287  -1.4284 
 C                    -3.83977  -0.47792   0.13634 
 H                    -3.89965  -0.49061   1.23035 
 H                    -4.65174   0.15617  -0.23169 
 H                    -4.02267  -1.49649  -0.21913 
 C                    -2.25357   1.49139   0.12064 
 H                    -3.03716   2.14736  -0.27002 
 H                    -2.27326   1.56431   1.21409 
 H                    -1.28897   1.87578  -0.21906 
 C                     2.91778   1.4406    0.03936 
 H                     2.21045   2.18194  -0.34097 
 H                     2.99087   1.57311   1.12421 
 H                     3.90169   1.65554  -0.3888 
 C                     2.46739   0.01017  -0.3094 
 H                     2.3909   -0.06677  -1.40088 
 C                     1.10806  -0.28424   0.273 
 H                     1.04511  -0.24421   1.36232 
 C                     0.01087  -0.58498  -0.42218 
 H                     0.07809  -0.6232   -1.51076 
 
 NAtoms=     27 NQM=        0 NQMF=       0 NMMI=     27 NMMIF=      0
                NMic=       0 NMicF=      0.
                    Isotopes and Nuclear Properties:
 (Nuclear quadrupole moments (NQMom) in fm**2, nuclear magnetic moments (NMagM)
  in nuclear magnetons)

  Atom         1           2           3           4           5           6           7           8           9          10
 IAtWgt=          12           1           1           1          12           1           1          12           1          12
 AtmWgt=  12.0000000   1.0078250   1.0078250   1.0078250  12.0000000   1.0078250   1.0078250  12.0000000   1.0078250  12.0000000
 NucSpn=           0           1           1           1           0           1           1           0           1           0
 AtZEff=   0.0000000   0.0000000   0.0000000   0.0000000   0.0000000   0.0000000   0.0000000   0.0000000   0.0000000   0.0000000
 NQMom=    0.0000000   0.0000000   0.0000000   0.0000000   0.0000000   0.0000000   0.0000000   0.0000000   0.0000000   0.0000000
 NMagM=    0.0000000   2.7928460   2.7928460   2.7928460   0.0000000   2.7928460   2.7928460   0.0000000   2.7928460   0.0000000

  Atom        11          12          13          14          15          16          17          18          19          20
 IAtWgt=           1           1           1          12           1           1           1          12           1           1
 AtmWgt=   1.0078250   1.0078250   1.0078250  12.0000000   1.0078250   1.0078250   1.0078250  12.0000000   1.0078250   1.0078250
 NucSpn=           1           1           1           0           1           1           1           0           1           1
 AtZEff=   0.0000000   0.0000000   0.0000000   0.0000000   0.0000000   0.0000000   0.0000000   0.0000000   0.0000000   0.0000000
 NQMom=    0.0000000   0.0000000   0.0000000   0.0000000   0.0000000   0.0000000   0.0000000   0.0000000   0.0000000   0.0000000
 NMagM=    2.7928460   2.7928460   2.7928460   0.0000000   2.7928460   2.7928460   2.7928460   0.0000000   2.7928460   2.7928460

  Atom        21          22          23          24          25          26          27
 IAtWgt=           1          12           1          12           1          12           1
 AtmWgt=   1.0078250  12.0000000   1.0078250  12.0000000   1.0078250  12.0000000   1.0078250
 NucSpn=           1           0           1           0           1           0           1
 AtZEff=   0.0000000   0.0000000   0.0000000   0.0000000   0.0000000   0.0000000   0.0000000
 NQMom=    0.0000000   0.0000000   0.0000000   0.0000000   0.0000000   0.0000000   0.0000000
 NMagM=    2.7928460   0.0000000   2.7928460   0.0000000   2.7928460   0.0000000   2.7928460
 Leave Link  101 at Sun Feb  9 04:49:30 2014, MaxMem= 4026531840 cpu:       0.4
 (Enter /usr/caen/gaussian-09revc/g09/l202.exe)
                          Input orientation:                          
 ---------------------------------------------------------------------
 Center     Atomic      Atomic             Coordinates (Angstroms)
 Number     Number       Type             X           Y           Z
 ---------------------------------------------------------------------
      1          6           0        3.505970   -1.019677    0.171691
      2          1           0        3.217247   -2.034627   -0.112892
      3          1           0        3.605284   -0.992902    1.262257
      4          1           0        4.491052   -0.810969   -0.256946
      5          6           0       -1.341220   -0.890924    0.159757
      6          1           0       -1.290258   -0.853947    1.254910
      7          1           0       -1.614568   -1.921557   -0.104571
      8          6           0       -2.473658    0.041937   -0.329872
      9          1           0       -2.463493    0.022868   -1.428404
     10          6           0       -3.839773   -0.477917    0.136335
     11          1           0       -3.899646   -0.490605    1.230345
     12          1           0       -4.651744    0.156173   -0.231687
     13          1           0       -4.022671   -1.496485   -0.219132
     14          6           0       -2.253569    1.491390    0.120643
     15          1           0       -3.037164    2.147364   -0.270019
     16          1           0       -2.273261    1.564309    1.214089
     17          1           0       -1.288970    1.875776   -0.219060
     18          6           0        2.917779    1.440596    0.039363
     19          1           0        2.210454    2.181943   -0.340968
     20          1           0        2.990873    1.573105    1.124214
     21          1           0        3.901693    1.655542   -0.388798
     22          6           0        2.467385    0.010174   -0.309403
     23          1           0        2.390902   -0.066767   -1.400882
     24          6           0        1.108061   -0.284239    0.272995
     25          1           0        1.045111   -0.244208    1.362324
     26          6           0        0.010871   -0.584976   -0.422179
     27          1           0        0.078085   -0.623199   -1.510764
 ---------------------------------------------------------------------
                    Distance matrix (angstroms):
                    1          2          3          4          5
     1  C    0.000000
     2  H    1.092919   0.000000
     3  H    1.095406   1.768276   0.000000
     4  H    1.094384   1.772193   1.767954   0.000000
     5  C    4.848914   4.707655   5.068906   5.847686   0.000000
     6  H    4.919820   4.856180   4.897519   5.975877   1.096961
     7  H    5.206690   4.833145   5.475169   6.207674   1.098541
     8  C    6.093812   6.061815   6.368619   7.017119   1.546733
     9  H    6.267511   6.183419   6.715765   7.101640   2.148667
    10  C    7.365779   7.230974   7.547303   8.346750   2.532566
    11  H    7.499588   7.405299   7.521788   8.527513   2.802134
    12  H    8.251887   8.169133   8.469401   9.193841   3.494168
    13  H    7.553842   7.260668   7.786771   8.541361   2.774967
    14  C    6.283339   6.512846   6.465381   7.136760   2.551339
    15  H    7.282710   7.525383   7.505415   8.088630   3.506013
    16  H    6.415847   6.697678   6.410845   7.318594   2.829927
    17  H    5.614961   5.967287   5.863219   6.374064   2.793002
    18  C    2.533066   3.491423   2.808922   2.762704   4.856908
    19  H    3.491640   4.341096   3.820409   3.763736   4.723095
    20  H    2.809830   3.820655   2.642148   3.137188   5.076283
    21  H    2.761800   3.763235   3.134980   2.539371   5.854361
    22  C    1.539709   2.186806   2.184283   2.184549   3.941771
    23  H    2.150442   2.492837   3.069977   2.504607   4.128385
    24  C    2.510199   2.767929   2.777943   3.464522   2.525840
    25  H    2.841617   3.178056   2.669277   3.849385   2.749361
    26  C    3.571745   3.532420   3.990430   4.488919   1.503464
    27  H    3.839042   3.714904   4.501939   4.591470   2.208335
                    6          7          8          9         10
     6  H    0.000000
     7  H    1.758737   0.000000
     8  C    2.171308   2.155019   0.000000
     9  H    3.057034   2.500799   1.098745   0.000000
    10  C    2.809383   2.663394   1.534232   2.143208   0.000000
    11  H    2.634678   3.008522   2.179752   3.065149   1.095721
    12  H    3.811811   3.682059   2.183289   2.497668   1.093987
    13  H    3.170447   2.448014   2.185966   2.490343   1.094207
    14  C    2.777613   3.479548   1.533726   2.144801   2.528727
    15  H    3.792751   4.313615   2.180354   2.486853   2.775141
    16  H    2.610732   3.784706   2.177519   3.065126   2.790376
    17  H    3.102254   3.812986   2.186031   2.505052   3.488950
    18  C    4.944700   5.645083   5.582130   5.755205   7.025283
    19  H    4.900861   5.614747   5.149821   5.262120   6.626305
    20  H    4.922981   5.910386   5.858322   6.218457   7.200022
    21  H    5.996304   6.580696   6.576648   6.652969   8.047217
    22  C    4.160969   4.520606   4.941187   5.056272   6.341700
    23  H    4.606932   4.600485   4.982251   4.855300   6.430660
    24  C    2.653424   3.199387   3.646718   3.968006   4.953509
    25  H    2.416044   3.469751   3.914989   4.491079   5.041801
    26  C    2.139605   2.128233   2.564064   2.739423   3.892410
    27  H    3.094279   2.555032   2.889343   2.623701   4.252488
                   11         12         13         14         15
    11  H    0.000000
    12  H    1.766780   0.000000
    13  H    1.768591   1.768380   0.000000
    14  C    2.805229   2.767342   3.488920   0.000000
    15  H    3.154972   2.563821   3.775109   1.094047   0.000000
    16  H    2.620699   3.119342   3.805656   1.096052   1.768072
    17  H    3.810008   3.776962   4.341113   1.092521   1.769898
    18  C    7.185072   7.682505   7.540763   5.172236   6.004714
    19  H    6.851632   7.155798   7.238613   4.540644   5.248212
    20  H    7.193707   7.890232   7.772822   5.340225   6.213766
    21  H    8.251573   8.685279   8.529924   6.178489   6.957279
    22  C    6.569679   7.121050   6.663257   4.966523   5.905014
    23  H    6.831836   7.142519   6.676417   5.129718   5.970354
    24  C    5.102571   5.798622   5.294916   3.804816   4.836367
    25  H    4.952651   5.929193   5.454504   3.928786   5.004911
    26  C    4.246397   4.724994   4.140234   3.119878   4.096261
    27  H    4.832557   4.961325   4.387156   3.545361   4.349741
                   16         17         18         19         20
    16  H    0.000000
    17  H    1.766283   0.000000
    18  C    5.323738   4.237086   0.000000
    19  H    4.785747   3.514907   1.092957   0.000000
    20  H    5.264909   4.495893   1.095355   1.768190   0.000000
    21  H    6.380253   5.198105   1.094354   1.771913   1.767935
    22  C    5.216329   4.195097   1.539675   2.187142   2.184502
    23  H    5.590429   4.325695   2.150360   2.492524   3.070058
    24  C    3.966879   3.263976   2.510920   2.770248   2.778360
    25  H    3.782103   3.527470   2.845290   3.185190   2.673072
    26  C    3.537521   2.790366   3.572965   3.535619   3.991122
    27  H    4.211751   3.127653   3.837448   3.712714   4.500133
                   21         22         23         24         25
    21  H    0.000000
    22  C    2.184211   0.000000
    23  H    2.504626   1.096857   0.000000
    24  C    3.464838   1.507855   2.120104   0.000000
    25  H    3.851693   2.209580   3.078627   1.091880   0.000000
    26  C    4.489937   2.530095   2.625061   1.333242   2.090509
    27  H    4.590365   2.748306   2.381347   2.087472   3.055063
                   26         27
    26  C    0.000000
    27  H    1.091328   0.000000
 Stoichiometry    C9H18
 Framework group  C1[X(C9H18)]
 Deg. of freedom    75
 Full point group                 C1      NOp   1
 Largest Abelian subgroup         C1      NOp   1
 Largest concise Abelian subgroup C1      NOp   1
                         Standard orientation:                         
 ---------------------------------------------------------------------
 Center     Atomic      Atomic             Coordinates (Angstroms)
 Number     Number       Type             X           Y           Z
 ---------------------------------------------------------------------
      1          6           0        3.505970   -1.019677    0.171691
      2          1           0        3.217247   -2.034627   -0.112892
      3          1           0        3.605284   -0.992902    1.262257
      4          1           0        4.491052   -0.810969   -0.256946
      5          6           0       -1.341220   -0.890924    0.159757
      6          1           0       -1.290258   -0.853947    1.254910
      7          1           0       -1.614568   -1.921557   -0.104571
      8          6           0       -2.473658    0.041937   -0.329872
      9          1           0       -2.463493    0.022868   -1.428404
     10          6           0       -3.839773   -0.477917    0.136335
     11          1           0       -3.899646   -0.490605    1.230345
     12          1           0       -4.651744    0.156173   -0.231687
     13          1           0       -4.022671   -1.496485   -0.219132
     14          6           0       -2.253569    1.491390    0.120643
     15          1           0       -3.037164    2.147364   -0.270019
     16          1           0       -2.273261    1.564309    1.214089
     17          1           0       -1.288970    1.875776   -0.219060
     18          6           0        2.917779    1.440596    0.039363
     19          1           0        2.210454    2.181943   -0.340968
     20          1           0        2.990873    1.573105    1.124214
     21          1           0        3.901693    1.655542   -0.388798
     22          6           0        2.467385    0.010174   -0.309403
     23          1           0        2.390902   -0.066767   -1.400882
     24          6           0        1.108061   -0.284239    0.272995
     25          1           0        1.045111   -0.244208    1.362324
     26          6           0        0.010871   -0.584976   -0.422179
     27          1           0        0.078085   -0.623199   -1.510764
 ---------------------------------------------------------------------
 Rotational constants (GHZ):      3.6564202      0.5923261      0.5343511
 Leave Link  202 at Sun Feb  9 04:49:30 2014, MaxMem= 4026531840 cpu:       0.2
 (Enter /usr/caen/gaussian-09revc/g09/l301.exe)
 Standard basis: 6-311++G(d,p) (5D, 7F)
 Ernie: Thresh=  0.10000D-02 Tol=  0.10000D-05 Strict=F.
 There are   324 symmetry adapted basis functions of A   symmetry.
 Integral buffers will be    131072 words long.
 Raffenetti 2 integral format.
 Two-electron integral symmetry is turned on.
   324 basis functions,   486 primitive gaussians,   333 cartesian basis functions
    36 alpha electrons       36 beta electrons
       nuclear repulsion energy       449.2865680649 Hartrees.
 IExCor=  402 DFT=T Ex+Corr=B3LYP ExCW=0 ScaHFX=  0.200000
 ScaDFX=  0.800000  0.720000  1.000000  0.810000 ScalE2=  1.000000  1.000000
 IRadAn=      0 IRanWt=     -1 IRanGd=            0 ICorTp=0
 NAtoms=   27 NActive=   27 NUniq=   27 SFac= 1.00D+00 NAtFMM=   60 NAOKFM=F Big=F
 Leave Link  301 at Sun Feb  9 04:49:30 2014, MaxMem= 4026531840 cpu:       0.8
 (Enter /usr/caen/gaussian-09revc/g09/l302.exe)
 NPDir=0 NMtPBC=     1 NCelOv=     1 NCel=       1 NClECP=     1 NCelD=      1
         NCelK=      1 NCelE2=     1 NClLst=     1 CellRange=     0.0.
 One-electron integrals computed using PRISM.
 NBasis=   324 RedAO= T  NBF=   324
 NBsUse=   324 1.00D-06 NBFU=   324
 Precomputing XC quadrature grid using
 IXCGrd= 2 IRadAn=           0 IRanWt=          -1 IRanGd=           0 AccXCQ= 0.00D+00.
 NRdTot=    1762 NPtTot=      224548 NUsed=      237246 NTot=      237278
 NSgBfM=   333   333   333   333   333 NAtAll=    27    27.
 Leave Link  302 at Sun Feb  9 04:49:31 2014, MaxMem= 4026531840 cpu:       4.5
 (Enter /usr/caen/gaussian-09revc/g09/l303.exe)
 DipDrv:  MaxL=1.
 Leave Link  303 at Sun Feb  9 04:49:31 2014, MaxMem= 4026531840 cpu:       1.4
 (Enter /usr/caen/gaussian-09revc/g09/l401.exe)
 Harris functional with IExCor=  402 diagonalized for initial guess.
 ExpMin= 3.60D-02 ExpMax= 4.56D+03 ExpMxC= 6.82D+02 IAcc=3 IRadAn=         5 AccDes= 0.00D+00
 HarFok:  IExCor=  402 AccDes= 0.00D+00 IRadAn=         5 IDoV= 1
 ScaDFX=  1.000000  1.000000  1.000000  1.000000
 FoFCou: FMM=F IPFlag=           0 FMFlag=      100000 FMFlg1=           0
         NFxFlg=           0 DoJE=T BraDBF=F KetDBF=T FulRan=T
         Omega=  0.000000  0.000000  1.000000  0.000000  0.000000 ICntrl=     500 IOpCl=  0
         NMat0=    1 NMatS0=    1 NMatT0=    0 NMatD0=    1 NMtDS0=    0 NMtDT0=    0
         I1Cent=           4 NGrid=           0.
 Petite list used in FoFCou.
 Harris En= -353.998630557470    
 Mixing orbitals, IMix= 1 IMixAn=  0 NRI=1 NE=   36 Coef=  7.07106781D-01  7.07106781D-01
 Initial guess orbital symmetries:
       Occupied  (A) (A) (A) (A) (A) (A) (A) (A) (A) (A) (A) (A)
                 (A) (A) (A) (A) (A) (A) (A) (A) (A) (A) (A) (A)
                 (A) (A) (A) (A) (A) (A) (A) (A) (A) (A) (A) (A)
       Virtual   (A) (A) (A) (A) (A) (A) (A) (A) (A) (A) (A) (A)
                 (A) (A) (A) (A) (A) (A) (A) (A) (A) (A) (A) (A)
                 (A) (A) (A) (A) (A) (A) (A) (A) (A) (A) (A) (A)
                 (A) (A) (A) (A) (A) (A) (A) (A) (A) (A) (A) (A)
                 (A) (A) (A) (A) (A) (A) (A) (A) (A) (A) (A) (A)
                 (A) (A) (A) (A) (A) (A) (A) (A) (A) (A) (A) (A)
                 (A) (A) (A) (A) (A) (A) (A) (A) (A) (A) (A) (A)
                 (A) (A) (A) (A) (A) (A) (A) (A) (A) (A) (A) (A)
                 (A) (A) (A) (A) (A) (A) (A) (A) (A) (A) (A) (A)
                 (A) (A) (A) (A) (A) (A) (A) (A) (A) (A) (A) (A)
                 (A) (A) (A) (A) (A) (A) (A) (A) (A) (A) (A) (A)
                 (A) (A) (A) (A) (A) (A) (A) (A) (A) (A) (A) (A)
                 (A) (A) (A) (A) (A) (A) (A) (A) (A) (A) (A) (A)
                 (A) (A) (A) (A) (A) (A) (A) (A) (A) (A) (A) (A)
                 (A) (A) (A) (A) (A) (A) (A) (A) (A) (A) (A) (A)
                 (A) (A) (A) (A) (A) (A) (A) (A) (A) (A) (A) (A)
                 (A) (A) (A) (A) (A) (A) (A) (A) (A) (A) (A) (A)
                 (A) (A) (A) (A) (A) (A) (A) (A) (A) (A) (A) (A)
                 (A) (A) (A) (A) (A) (A) (A) (A) (A) (A) (A) (A)
                 (A) (A) (A) (A) (A) (A) (A) (A) (A) (A) (A) (A)
                 (A) (A) (A) (A) (A) (A) (A) (A) (A) (A) (A) (A)
                 (A) (A) (A) (A) (A) (A) (A) (A) (A) (A) (A) (A)
                 (A) (A) (A) (A) (A) (A) (A) (A) (A) (A) (A) (A)
                 (A) (A) (A) (A) (A) (A) (A) (A) (A) (A) (A) (A)
 The electronic state of the initial guess is 1-A.
 Leave Link  401 at Sun Feb  9 04:49:35 2014, MaxMem= 4026531840 cpu:      27.3
 (Enter /usr/caen/gaussian-09revc/g09/l502.exe)
 Closed shell SCF:
 Requested convergence on RMS density matrix=1.00D-08 within 128 cycles.
 Requested convergence on MAX density matrix=1.00D-06.
 Requested convergence on             energy=1.00D-06.
 No special actions if energy rises.
 Using DIIS extrapolation, IDIIS=  1040.
 Integral symmetry usage will be decided dynamically.
       236990 words used for storage of precomputed grid.
 Keep R1 ints in memory in canonical form, NReq=1565542152.
 IEnd=      592987 IEndB=      592987 NGot=  4026531840 MDV=  2479747222
 LenX=  2479747222 LenY=  2479635892
 Symmetry not used in FoFDir.
 MinBra= 0 MaxBra= 2 Meth= 1.
 IRaf=       0 NMat=   1 IRICut=       1 DoRegI=T DoRafI=F ISym2E= 0 JSym2E=0.

 Cycle   1  Pass 1  IDiag  1:
 E= -353.135308166230    
 DIIS: error= 4.35D-02 at cycle   1 NSaved=   1.
 NSaved= 1 IEnMin= 1 EnMin= -353.135308166230     IErMin= 1 ErrMin= 4.35D-02
 ErrMax= 4.35D-02 EMaxC= 1.00D-01 BMatC= 4.86D-01 BMatP= 4.86D-01
 IDIUse=3 WtCom= 5.65D-01 WtEn= 4.35D-01
 Coeff-Com:  0.100D+01
 Coeff-En:   0.100D+01
 Coeff:      0.100D+01
 Gap=    -0.278 Goal=   None    Shift=    0.000
 GapD=   -0.278 DampG=0.250 DampE=0.500 DampFc=0.2500 IDamp=-1.
 Damping current iteration by 2.50D-01
 RMSDP=2.56D-02 MaxDP=1.89D+00              OVMax= 8.37D-01

 Cycle   2  Pass 1  IDiag  1:
 E= -353.395604305387     Delta-E=       -0.260296139157 Rises=F Damp=T
 DIIS: error= 1.80D-02 at cycle   2 NSaved=   2.
 NSaved= 2 IEnMin= 2 EnMin= -353.395604305387     IErMin= 2 ErrMin= 1.80D-02
 ErrMax= 1.80D-02 EMaxC= 1.00D-01 BMatC= 9.80D-02 BMatP= 4.86D-01
 IDIUse=3 WtCom= 8.20D-01 WtEn= 1.80D-01
 Coeff-Com: -0.551D+00 0.155D+01
 Coeff-En:   0.000D+00 0.100D+01
 Coeff:     -0.451D+00 0.145D+01
 Gap=     0.310 Goal=   None    Shift=    0.000
 RMSDP=1.57D-02 MaxDP=1.67D+00 DE=-2.60D-01 OVMax= 4.56D-01

 Cycle   3  Pass 1  IDiag  1:
 E= -353.874516868029     Delta-E=       -0.478912562642 Rises=F Damp=F
 DIIS: error= 7.49D-03 at cycle   3 NSaved=   3.
 NSaved= 3 IEnMin= 3 EnMin= -353.874516868029     IErMin= 3 ErrMin= 7.49D-03
 ErrMax= 7.49D-03 EMaxC= 1.00D-01 BMatC= 2.16D-02 BMatP= 9.80D-02
 IDIUse=3 WtCom= 9.25D-01 WtEn= 7.49D-02
 Coeff-Com: -0.109D+00 0.473D+00 0.636D+00
 Coeff-En:   0.000D+00 0.000D+00 0.100D+01
 Coeff:     -0.101D+00 0.438D+00 0.663D+00
 Gap=     0.235 Goal=   None    Shift=    0.000
 RMSDP=2.38D-03 MaxDP=2.85D-01 DE=-4.79D-01 OVMax= 8.39D-02

 Cycle   4  Pass 1  IDiag  1:
 E= -353.886827520943     Delta-E=       -0.012310652914 Rises=F Damp=F
 DIIS: error= 5.38D-03 at cycle   4 NSaved=   4.
 NSaved= 4 IEnMin= 4 EnMin= -353.886827520943     IErMin= 4 ErrMin= 5.38D-03
 ErrMax= 5.38D-03 EMaxC= 1.00D-01 BMatC= 9.83D-03 BMatP= 2.16D-02
 IDIUse=3 WtCom= 9.46D-01 WtEn= 5.38D-02
 Coeff-Com:  0.939D-01-0.778D-01 0.409D+00 0.575D+00
 Coeff-En:   0.000D+00 0.000D+00 0.290D+00 0.710D+00
 Coeff:      0.889D-01-0.736D-01 0.403D+00 0.582D+00
 Gap=     0.237 Goal=   None    Shift=    0.000
 RMSDP=1.20D-03 MaxDP=1.07D-01 DE=-1.23D-02 OVMax= 3.86D-02

 Cycle   5  Pass 1  IDiag  1:
 E= -353.896642525419     Delta-E=       -0.009815004476 Rises=F Damp=F
 DIIS: error= 6.96D-04 at cycle   5 NSaved=   5.
 NSaved= 5 IEnMin= 5 EnMin= -353.896642525419     IErMin= 5 ErrMin= 6.96D-04
 ErrMax= 6.96D-04 EMaxC= 1.00D-01 BMatC= 2.11D-04 BMatP= 9.83D-03
 IDIUse=3 WtCom= 9.93D-01 WtEn= 6.96D-03
 Coeff-Com:  0.416D-01-0.473D-01 0.121D+00 0.168D+00 0.716D+00
 Coeff-En:   0.000D+00 0.000D+00 0.000D+00 0.000D+00 0.100D+01
 Coeff:      0.413D-01-0.470D-01 0.121D+00 0.167D+00 0.718D+00
 Gap=     0.238 Goal=   None    Shift=    0.000
 RMSDP=4.91D-04 MaxDP=4.28D-02 DE=-9.82D-03 OVMax= 6.98D-03

 Cycle   6  Pass 1  IDiag  1:
 E= -353.896765998769     Delta-E=       -0.000123473350 Rises=F Damp=F
 DIIS: error= 5.22D-04 at cycle   6 NSaved=   6.
 NSaved= 6 IEnMin= 6 EnMin= -353.896765998769     IErMin= 6 ErrMin= 5.22D-04
 ErrMax= 5.22D-04 EMaxC= 1.00D-01 BMatC= 1.03D-04 BMatP= 2.11D-04
 IDIUse=3 WtCom= 9.95D-01 WtEn= 5.22D-03
 Coeff-Com:  0.142D-01-0.201D-01 0.158D-01-0.956D-02 0.377D+00 0.622D+00
 Coeff-En:   0.000D+00 0.000D+00 0.000D+00 0.000D+00 0.244D+00 0.756D+00
 Coeff:      0.141D-01-0.200D-01 0.157D-01-0.951D-02 0.377D+00 0.623D+00
 Gap=     0.239 Goal=   None    Shift=    0.000
 RMSDP=1.01D-04 MaxDP=9.01D-03 DE=-1.23D-04 OVMax= 3.18D-03

 Cycle   7  Pass 1  IDiag  1:
 E= -353.896859767198     Delta-E=       -0.000093768429 Rises=F Damp=F
 DIIS: error= 1.34D-04 at cycle   7 NSaved=   7.
 NSaved= 7 IEnMin= 7 EnMin= -353.896859767198     IErMin= 7 ErrMin= 1.34D-04
 ErrMax= 1.34D-04 EMaxC= 1.00D-01 BMatC= 4.38D-06 BMatP= 1.03D-04
 IDIUse=3 WtCom= 9.99D-01 WtEn= 1.34D-03
 Coeff-Com:  0.233D-02-0.327D-02-0.595D-03-0.233D-01 0.851D-01 0.219D+00
 Coeff-Com:  0.721D+00
 Coeff-En:   0.000D+00 0.000D+00 0.000D+00 0.000D+00 0.000D+00 0.000D+00
 Coeff-En:   0.100D+01
 Coeff:      0.233D-02-0.326D-02-0.595D-03-0.233D-01 0.849D-01 0.219D+00
 Coeff:      0.721D+00
 Gap=     0.239 Goal=   None    Shift=    0.000
 RMSDP=5.40D-05 MaxDP=3.89D-03 DE=-9.38D-05 OVMax= 3.63D-04

 Cycle   8  Pass 1  IDiag  1:
 E= -353.896863685255     Delta-E=       -0.000003918057 Rises=F Damp=F
 DIIS: error= 3.80D-05 at cycle   8 NSaved=   8.
 NSaved= 8 IEnMin= 8 EnMin= -353.896863685255     IErMin= 8 ErrMin= 3.80D-05
 ErrMax= 3.80D-05 EMaxC= 1.00D-01 BMatC= 3.75D-07 BMatP= 4.38D-06
 IDIUse=1 WtCom= 1.00D+00 WtEn= 0.00D+00
 Coeff-Com:  0.241D-03-0.336D-03-0.866D-03-0.977D-02 0.900D-02 0.357D-01
 Coeff-Com:  0.286D+00 0.680D+00
 Coeff:      0.241D-03-0.336D-03-0.866D-03-0.977D-02 0.900D-02 0.357D-01
 Coeff:      0.286D+00 0.680D+00
 Gap=     0.239 Goal=   None    Shift=    0.000
 RMSDP=1.18D-05 MaxDP=9.21D-04 DE=-3.92D-06 OVMax= 1.79D-04

 Cycle   9  Pass 1  IDiag  1:
 E= -353.896864090641     Delta-E=       -0.000000405386 Rises=F Damp=F
 DIIS: error= 4.70D-06 at cycle   9 NSaved=   9.
 NSaved= 9 IEnMin= 9 EnMin= -353.896864090641     IErMin= 9 ErrMin= 4.70D-06
 ErrMax= 4.70D-06 EMaxC= 1.00D-01 BMatC= 8.74D-09 BMatP= 3.75D-07
 IDIUse=1 WtCom= 1.00D+00 WtEn= 0.00D+00
 Coeff-Com:  0.678D-04-0.834D-04-0.706D-04-0.217D-02 0.253D-04 0.178D-02
 Coeff-Com:  0.587D-01 0.201D+00 0.741D+00
 Coeff:      0.678D-04-0.834D-04-0.706D-04-0.217D-02 0.253D-04 0.178D-02
 Coeff:      0.587D-01 0.201D+00 0.741D+00
 Gap=     0.239 Goal=   None    Shift=    0.000
 RMSDP=1.21D-06 MaxDP=8.48D-05 DE=-4.05D-07 OVMax= 2.02D-05

 Cycle  10  Pass 1  IDiag  1:
 E= -353.896864097946     Delta-E=       -0.000000007305 Rises=F Damp=F
 DIIS: error= 1.66D-06 at cycle  10 NSaved=  10.
 NSaved=10 IEnMin=10 EnMin= -353.896864097946     IErMin=10 ErrMin= 1.66D-06
 ErrMax= 1.66D-06 EMaxC= 1.00D-01 BMatC= 1.52D-09 BMatP= 8.74D-09
 IDIUse=1 WtCom= 1.00D+00 WtEn= 0.00D+00
 Coeff-Com:  0.166D-04-0.145D-04 0.325D-04-0.332D-03-0.750D-03-0.226D-02
 Coeff-Com:  0.499D-02 0.413D-01 0.373D+00 0.584D+00
 Coeff:      0.166D-04-0.145D-04 0.325D-04-0.332D-03-0.750D-03-0.226D-02
 Coeff:      0.499D-02 0.413D-01 0.373D+00 0.584D+00
 Gap=     0.239 Goal=   None    Shift=    0.000
 RMSDP=4.15D-07 MaxDP=2.85D-05 DE=-7.30D-09 OVMax= 9.06D-06

 Cycle  11  Pass 1  IDiag  1:
 E= -353.896864099425     Delta-E=       -0.000000001479 Rises=F Damp=F
 DIIS: error= 4.11D-07 at cycle  11 NSaved=  11.
 NSaved=11 IEnMin=11 EnMin= -353.896864099425     IErMin=11 ErrMin= 4.11D-07
 ErrMax= 4.11D-07 EMaxC= 1.00D-01 BMatC= 4.68D-11 BMatP= 1.52D-09
 IDIUse=1 WtCom= 1.00D+00 WtEn= 0.00D+00
 Coeff-Com:  0.238D-05-0.674D-06 0.166D-04 0.523D-04-0.269D-03-0.969D-03
 Coeff-Com: -0.308D-02-0.274D-02 0.627D-01 0.191D+00 0.754D+00
 Coeff:      0.238D-05-0.674D-06 0.166D-04 0.523D-04-0.269D-03-0.969D-03
 Coeff:     -0.308D-02-0.274D-02 0.627D-01 0.191D+00 0.754D+00
 Gap=     0.239 Goal=   None    Shift=    0.000
 RMSDP=2.06D-07 MaxDP=1.98D-05 DE=-1.48D-09 OVMax= 2.08D-06

 Cycle  12  Pass 1  IDiag  1:
 E= -353.896864099480     Delta-E=       -0.000000000055 Rises=F Damp=F
 DIIS: error= 6.07D-08 at cycle  12 NSaved=  12.
 NSaved=12 IEnMin=12 EnMin= -353.896864099480     IErMin=12 ErrMin= 6.07D-08
 ErrMax= 6.07D-08 EMaxC= 1.00D-01 BMatC= 1.06D-12 BMatP= 4.68D-11
 IDIUse=1 WtCom= 1.00D+00 WtEn= 0.00D+00
 Coeff-Com:  0.367D-06 0.445D-06 0.408D-05 0.214D-04-0.351D-04-0.159D-03
 Coeff-Com: -0.927D-03-0.209D-02 0.568D-02 0.349D-01 0.221D+00 0.741D+00
 Coeff:      0.367D-06 0.445D-06 0.408D-05 0.214D-04-0.351D-04-0.159D-03
 Coeff:     -0.927D-03-0.209D-02 0.568D-02 0.349D-01 0.221D+00 0.741D+00
 Gap=     0.239 Goal=   None    Shift=    0.000
 RMSDP=4.07D-08 MaxDP=3.30D-06 DE=-5.47D-11 OVMax= 2.39D-07

 Cycle  13  Pass 1  IDiag  1:
 E= -353.896864099485     Delta-E=       -0.000000000005 Rises=F Damp=F
 DIIS: error= 2.22D-08 at cycle  13 NSaved=  13.
 NSaved=13 IEnMin=13 EnMin= -353.896864099485     IErMin=13 ErrMin= 2.22D-08
 ErrMax= 2.22D-08 EMaxC= 1.00D-01 BMatC= 1.57D-13 BMatP= 1.06D-12
 IDIUse=1 WtCom= 1.00D+00 WtEn= 0.00D+00
 Coeff-Com: -0.627D-07 0.302D-06 0.777D-06 0.841D-05-0.563D-05-0.317D-04
 Coeff-Com: -0.329D-03-0.937D-03-0.496D-03 0.708D-02 0.652D-01 0.340D+00
 Coeff-Com:  0.590D+00
 Coeff:     -0.627D-07 0.302D-06 0.777D-06 0.841D-05-0.563D-05-0.317D-04
 Coeff:     -0.329D-03-0.937D-03-0.496D-03 0.708D-02 0.652D-01 0.340D+00
 Coeff:      0.590D+00
 Gap=     0.239 Goal=   None    Shift=    0.000
 RMSDP=6.67D-09 MaxDP=6.49D-07 DE=-5.12D-12 OVMax= 7.63D-08

 SCF Done:  E(RB3LYP) =  -353.896864099     A.U. after   13 cycles
             Convg  =    0.6668D-08             -V/T =  2.0053
 KE= 3.520326533714D+02 PE=-1.717208714309D+03 EE= 5.619926287732D+02
 Leave Link  502 at Sun Feb  9 04:51:02 2014, MaxMem= 4026531840 cpu:     689.8
 (Enter /usr/caen/gaussian-09revc/g09/l601.exe)
 Copying SCF densities to generalized density rwf, IOpCl= 0 IROHF=0.

 **********************************************************************

            Population analysis using the SCF density.

 **********************************************************************

 Orbital symmetries:
       Occupied  (A) (A) (A) (A) (A) (A) (A) (A) (A) (A) (A) (A)
                 (A) (A) (A) (A) (A) (A) (A) (A) (A) (A) (A) (A)
                 (A) (A) (A) (A) (A) (A) (A) (A) (A) (A) (A) (A)
       Virtual   (A) (A) (A) (A) (A) (A) (A) (A) (A) (A) (A) (A)
                 (A) (A) (A) (A) (A) (A) (A) (A) (A) (A) (A) (A)
                 (A) (A) (A) (A) (A) (A) (A) (A) (A) (A) (A) (A)
                 (A) (A) (A) (A) (A) (A) (A) (A) (A) (A) (A) (A)
                 (A) (A) (A) (A) (A) (A) (A) (A) (A) (A) (A) (A)
                 (A) (A) (A) (A) (A) (A) (A) (A) (A) (A) (A) (A)
                 (A) (A) (A) (A) (A) (A) (A) (A) (A) (A) (A) (A)
                 (A) (A) (A) (A) (A) (A) (A) (A) (A) (A) (A) (A)
                 (A) (A) (A) (A) (A) (A) (A) (A) (A) (A) (A) (A)
                 (A) (A) (A) (A) (A) (A) (A) (A) (A) (A) (A) (A)
                 (A) (A) (A) (A) (A) (A) (A) (A) (A) (A) (A) (A)
                 (A) (A) (A) (A) (A) (A) (A) (A) (A) (A) (A) (A)
                 (A) (A) (A) (A) (A) (A) (A) (A) (A) (A) (A) (A)
                 (A) (A) (A) (A) (A) (A) (A) (A) (A) (A) (A) (A)
                 (A) (A) (A) (A) (A) (A) (A) (A) (A) (A) (A) (A)
                 (A) (A) (A) (A) (A) (A) (A) (A) (A) (A) (A) (A)
                 (A) (A) (A) (A) (A) (A) (A) (A) (A) (A) (A) (A)
                 (A) (A) (A) (A) (A) (A) (A) (A) (A) (A) (A) (A)
                 (A) (A) (A) (A) (A) (A) (A) (A) (A) (A) (A) (A)
                 (A) (A) (A) (A) (A) (A) (A) (A) (A) (A) (A) (A)
                 (A) (A) (A) (A) (A) (A) (A) (A) (A) (A) (A) (A)
                 (A) (A) (A) (A) (A) (A) (A) (A) (A) (A) (A) (A)
                 (A) (A) (A) (A) (A) (A) (A) (A) (A) (A) (A) (A)
                 (A) (A) (A) (A) (A) (A) (A) (A) (A) (A) (A) (A)
 The electronic state is 1-A.
 Alpha  occ. eigenvalues --  -10.17744 -10.17447 -10.16680 -10.16557 -10.16371
 Alpha  occ. eigenvalues --  -10.15830 -10.15810 -10.15672 -10.15313  -0.82343
 Alpha  occ. eigenvalues --   -0.80355  -0.75095  -0.68389  -0.68279  -0.67646
 Alpha  occ. eigenvalues --   -0.59113  -0.55806  -0.55123  -0.47421  -0.45611
 Alpha  occ. eigenvalues --   -0.44862  -0.43502  -0.42679  -0.41001  -0.40129
 Alpha  occ. eigenvalues --   -0.38575  -0.38539  -0.37488  -0.35982  -0.34771
 Alpha  occ. eigenvalues --   -0.34418  -0.33566  -0.33146  -0.32445  -0.31606
 Alpha  occ. eigenvalues --   -0.24659
 Alpha virt. eigenvalues --   -0.00792  -0.00016   0.00381   0.00548   0.01460
 Alpha virt. eigenvalues --    0.02134   0.02476   0.02539   0.03529   0.04130
 Alpha virt. eigenvalues --    0.04539   0.04929   0.05163   0.05574   0.06521
 Alpha virt. eigenvalues --    0.06895   0.07482   0.07659   0.08601   0.09126
 Alpha virt. eigenvalues --    0.09885   0.10024   0.10583   0.10882   0.11448
 Alpha virt. eigenvalues --    0.11834   0.12176   0.12423   0.12810   0.13151
 Alpha virt. eigenvalues --    0.13313   0.13711   0.14044   0.14233   0.14426
 Alpha virt. eigenvalues --    0.14472   0.15344   0.15536   0.15801   0.16324
 Alpha virt. eigenvalues --    0.16425   0.17298   0.17399   0.17577   0.18221
 Alpha virt. eigenvalues --    0.18453   0.18866   0.19115   0.19265   0.19980
 Alpha virt. eigenvalues --    0.20629   0.20822   0.21751   0.21963   0.22514
 Alpha virt. eigenvalues --    0.23487   0.23570   0.23671   0.24496   0.25231
 Alpha virt. eigenvalues --    0.25567   0.26153   0.27325   0.27686   0.28584
 Alpha virt. eigenvalues --    0.28915   0.29627   0.30243   0.30402   0.31179
 Alpha virt. eigenvalues --    0.31592   0.32058   0.32941   0.34071   0.34398
 Alpha virt. eigenvalues --    0.35496   0.37026   0.38325   0.39287   0.40956
 Alpha virt. eigenvalues --    0.43563   0.44526   0.45352   0.47099   0.47907
 Alpha virt. eigenvalues --    0.49052   0.50432   0.51238   0.51799   0.52666
 Alpha virt. eigenvalues --    0.53811   0.55444   0.56923   0.57519   0.58026
 Alpha virt. eigenvalues --    0.59511   0.61274   0.61967   0.63660   0.64544
 Alpha virt. eigenvalues --    0.64956   0.65469   0.66218   0.67006   0.67643
 Alpha virt. eigenvalues --    0.68181   0.68325   0.68576   0.69855   0.70507
 Alpha virt. eigenvalues --    0.70747   0.71348   0.73545   0.74088   0.74738
 Alpha virt. eigenvalues --    0.75278   0.75626   0.75952   0.77454   0.78169
 Alpha virt. eigenvalues --    0.78290   0.78537   0.79721   0.82213   0.83835
 Alpha virt. eigenvalues --    0.84213   0.88343   0.89819   0.93866   0.95111
 Alpha virt. eigenvalues --    0.97922   0.99112   1.01884   1.03628   1.05993
 Alpha virt. eigenvalues --    1.06762   1.09056   1.11265   1.17262   1.18217
 Alpha virt. eigenvalues --    1.19270   1.20955   1.22748   1.26045   1.26636
 Alpha virt. eigenvalues --    1.39004   1.40888   1.45309   1.45771   1.46127
 Alpha virt. eigenvalues --    1.46493   1.46836   1.48017   1.48482   1.49913
 Alpha virt. eigenvalues --    1.50784   1.53781   1.55536   1.57341   1.58260
 Alpha virt. eigenvalues --    1.58397   1.59194   1.60098   1.60430   1.61323
 Alpha virt. eigenvalues --    1.62365   1.62749   1.63874   1.64619   1.65455
 Alpha virt. eigenvalues --    1.66965   1.68079   1.70154   1.70649   1.72989
 Alpha virt. eigenvalues --    1.73270   1.74430   1.75272   1.76701   1.77659
 Alpha virt. eigenvalues --    1.79523   1.80448   1.81648   1.82075   1.85473
 Alpha virt. eigenvalues --    1.86797   1.90578   1.92890   1.93601   1.98950
 Alpha virt. eigenvalues --    2.00526   2.00969   2.04044   2.05082   2.08424
 Alpha virt. eigenvalues --    2.09326   2.11885   2.13578   2.14179   2.14474
 Alpha virt. eigenvalues --    2.16617   2.17736   2.19014   2.20801   2.25940
 Alpha virt. eigenvalues --    2.28337   2.31211   2.32147   2.34200   2.36514
 Alpha virt. eigenvalues --    2.38282   2.38906   2.41407   2.42497   2.46214
 Alpha virt. eigenvalues --    2.47345   2.49714   2.49889   2.51313   2.51746
 Alpha virt. eigenvalues --    2.52100   2.52623   2.53593   2.54154   2.55694
 Alpha virt. eigenvalues --    2.56514   2.59349   2.59971   2.60424   2.62723
 Alpha virt. eigenvalues --    2.63090   2.65652   2.66942   2.69054   2.70517
 Alpha virt. eigenvalues --    2.73669   2.74021   2.74282   2.75328   2.76748
 Alpha virt. eigenvalues --    2.79074   2.82671   2.83781   2.84573   2.88081
 Alpha virt. eigenvalues --    2.90524   2.93330   2.94624   2.97233   2.98023
 Alpha virt. eigenvalues --    2.99003   3.01675   3.04185   3.07562   3.11625
 Alpha virt. eigenvalues --    3.15573   3.16324   3.20145   3.31935   3.48109
 Alpha virt. eigenvalues --    3.49581   3.60305   3.77954   3.78423   3.79341
 Alpha virt. eigenvalues --    3.79431   3.81707   3.83505   3.83577   3.83842
 Alpha virt. eigenvalues --    3.87366   3.88144   4.01512   4.10009   4.20272
 Alpha virt. eigenvalues --    4.29171   4.29983   4.31025   4.42466  23.74933
 Alpha virt. eigenvalues --   23.82998  23.84944  23.92591  23.97140  23.97617
 Alpha virt. eigenvalues --   23.98749  23.99123  24.28089
          Condensed to atoms (all electrons):
              1          2          3          4          5          6
     1  C    5.537383   0.392111   0.406742   0.365928  -0.000390   0.002347
     2  H    0.392111   0.554088  -0.037642  -0.021910   0.000496   0.000018
     3  H    0.406742  -0.037642   0.556565  -0.032045  -0.006549  -0.000058
     4  H    0.365928  -0.021910  -0.032045   0.577867   0.000925   0.000295
     5  C   -0.000390   0.000496  -0.006549   0.000925   7.907912   0.531311
     6  H    0.002347   0.000018  -0.000058   0.000295   0.531311   0.580587
     7  H    0.001560  -0.000173  -0.000336  -0.000445   0.440586  -0.043558
     8  C    0.001688  -0.001576   0.001223   0.001104  -0.788922   0.004404
     9  H   -0.000090  -0.000020  -0.000055   0.000105  -0.126489   0.014722
    10  C    0.000709  -0.000097   0.000130  -0.000147   0.472295   0.020361
    11  H   -0.000041  -0.000016  -0.000020   0.000012  -0.063841   0.003294
    12  H   -0.000012   0.000006   0.000005  -0.000001   0.030803  -0.000884
    13  H    0.000135   0.000010   0.000004  -0.000007  -0.022011   0.001510
    14  C   -0.000927   0.000161   0.000013  -0.000245  -0.157443  -0.054640
    15  H   -0.000046  -0.000008   0.000008   0.000012   0.054849  -0.002990
    16  H    0.000092  -0.000048   0.000058   0.000007  -0.064374   0.006255
    17  H   -0.000773   0.000135   0.000040  -0.000083  -0.058861   0.002377
    18  C   -0.221463   0.013993  -0.019831   0.016152   0.031808   0.003920
    19  H    0.012190  -0.002689  -0.002428   0.001388  -0.004120  -0.000024
    20  H   -0.014329  -0.001663   0.005054   0.004251  -0.002700  -0.000827
    21  H    0.014372   0.000385   0.005375  -0.005743  -0.003768   0.000305
    22  C    0.092226   0.003815   0.044451  -0.089595  -0.747382  -0.005698
    23  H   -0.040275  -0.003363   0.008588  -0.008208   0.001519  -0.001140
    24  C   -0.006558  -0.065183  -0.081306   0.060439   1.039273   0.021822
    25  H   -0.016810   0.000055   0.002719  -0.002170   0.050542   0.004269
    26  C    0.124013   0.026746   0.004092  -0.008802  -1.936647  -0.237283
    27  H   -0.003418  -0.001087   0.001623  -0.000563   0.118175   0.008546
              7          8          9         10         11         12
     1  C    0.001560   0.001688  -0.000090   0.000709  -0.000041  -0.000012
     2  H   -0.000173  -0.001576  -0.000020  -0.000097  -0.000016   0.000006
     3  H   -0.000336   0.001223  -0.000055   0.000130  -0.000020   0.000005
     4  H   -0.000445   0.001104   0.000105  -0.000147   0.000012  -0.000001
     5  C    0.440586  -0.788922  -0.126489   0.472295  -0.063841   0.030803
     6  H   -0.043558   0.004404   0.014722   0.020361   0.003294  -0.000884
     7  H    0.618359  -0.169797  -0.015156   0.007891   0.000394  -0.001143
     8  C   -0.169797   6.142034   0.587908  -0.238642   0.051577  -0.060808
     9  H   -0.015156   0.587908   0.602730  -0.046707   0.015234  -0.010095
    10  C    0.007891  -0.238642  -0.046707   5.747396   0.386546   0.398029
    11  H    0.000394   0.051577   0.015234   0.386546   0.568223  -0.037289
    12  H   -0.001143  -0.060808  -0.010095   0.398029  -0.037289   0.576154
    13  H    0.004281  -0.026864  -0.009867   0.391867  -0.043417  -0.024632
    14  C    0.037107   0.014600  -0.116564  -0.151722  -0.028594  -0.008312
    15  H   -0.001252  -0.107082  -0.008303   0.003183   0.003088   0.001176
    16  H   -0.003806   0.068955   0.012974  -0.013649   0.009288   0.001045
    17  H    0.002011  -0.061201  -0.008889   0.001009  -0.003779   0.001618
    18  C   -0.001396  -0.014698   0.001525  -0.003050  -0.000036   0.000035
    19  H    0.000070  -0.000354   0.000482   0.000009   0.000003  -0.000020
    20  H    0.000071   0.000439  -0.000247   0.000034   0.000026  -0.000011
    21  H    0.000118  -0.000331  -0.000085   0.000055  -0.000005  -0.000003
    22  C   -0.014226   0.127108   0.001903  -0.031508   0.001265  -0.000645
    23  H   -0.000340   0.005731  -0.000156   0.000808   0.000053  -0.000019
    24  C   -0.057889   0.293498   0.051485   0.064091   0.006263  -0.001040
    25  H    0.001797  -0.012552   0.000754   0.006604   0.001024   0.000119
    26  C    0.050719  -0.143761  -0.092194  -0.366670  -0.005300  -0.001479
    27  H   -0.000847  -0.052680  -0.001298   0.010014   0.000017   0.001080
             13         14         15         16         17         18
     1  C    0.000135  -0.000927  -0.000046   0.000092  -0.000773  -0.221463
     2  H    0.000010   0.000161  -0.000008  -0.000048   0.000135   0.013993
     3  H    0.000004   0.000013   0.000008   0.000058   0.000040  -0.019831
     4  H   -0.000007  -0.000245   0.000012   0.000007  -0.000083   0.016152
     5  C   -0.022011  -0.157443   0.054849  -0.064374  -0.058861   0.031808
     6  H    0.001510  -0.054640  -0.002990   0.006255   0.002377   0.003920
     7  H    0.004281   0.037107  -0.001252  -0.003806   0.002011  -0.001396
     8  C   -0.026864   0.014600  -0.107082   0.068955  -0.061201  -0.014698
     9  H   -0.009867  -0.116564  -0.008303   0.012974  -0.008889   0.001525
    10  C    0.391867  -0.151722   0.003183  -0.013649   0.001009  -0.003050
    11  H   -0.043417  -0.028594   0.003088   0.009288  -0.003779  -0.000036
    12  H   -0.024632  -0.008312   0.001176   0.001045   0.001618   0.000035
    13  H    0.584032   0.013187   0.000231  -0.001236  -0.002528  -0.000135
    14  C    0.013187   5.611098   0.415838   0.362829   0.424457  -0.000516
    15  H    0.000231   0.415838   0.570555  -0.033846  -0.027412   0.000210
    16  H   -0.001236   0.362829  -0.033846   0.569958  -0.046041  -0.000197
    17  H   -0.002528   0.424457  -0.027412  -0.046041   0.573383  -0.000160
    18  C   -0.000135  -0.000516   0.000210  -0.000197  -0.000160   5.605113
    19  H   -0.000001   0.000202  -0.000146   0.001006  -0.003723   0.406859
    20  H    0.000008   0.000693   0.000121  -0.000721   0.001918   0.383851
    21  H    0.000004  -0.000079  -0.000012   0.000073  -0.000251   0.375320
    22  C    0.000411  -0.001175   0.000888   0.001404   0.013759  -0.000275
    23  H   -0.000003   0.001458   0.000004  -0.000251   0.002434  -0.076273
    24  C    0.001385  -0.048281  -0.012487   0.024073  -0.004624  -0.006005
    25  H   -0.000458  -0.000261   0.000147  -0.000172   0.002377  -0.027491
    26  C    0.003221   0.344223   0.008071  -0.034845   0.055305   0.153500
    27  H   -0.000516  -0.011103   0.002438  -0.000461  -0.003474   0.003851
             19         20         21         22         23         24
     1  C    0.012190  -0.014329   0.014372   0.092226  -0.040275  -0.006558
     2  H   -0.002689  -0.001663   0.000385   0.003815  -0.003363  -0.065183
     3  H   -0.002428   0.005054   0.005375   0.044451   0.008588  -0.081306
     4  H    0.001388   0.004251  -0.005743  -0.089595  -0.008208   0.060439
     5  C   -0.004120  -0.002700  -0.003768  -0.747382   0.001519   1.039273
     6  H   -0.000024  -0.000827   0.000305  -0.005698  -0.001140   0.021822
     7  H    0.000070   0.000071   0.000118  -0.014226  -0.000340  -0.057889
     8  C   -0.000354   0.000439  -0.000331   0.127108   0.005731   0.293498
     9  H    0.000482  -0.000247  -0.000085   0.001903  -0.000156   0.051485
    10  C    0.000009   0.000034   0.000055  -0.031508   0.000808   0.064091
    11  H    0.000003   0.000026  -0.000005   0.001265   0.000053   0.006263
    12  H   -0.000020  -0.000011  -0.000003  -0.000645  -0.000019  -0.001040
    13  H   -0.000001   0.000008   0.000004   0.000411  -0.000003   0.001385
    14  C    0.000202   0.000693  -0.000079  -0.001175   0.001458  -0.048281
    15  H   -0.000146   0.000121  -0.000012   0.000888   0.000004  -0.012487
    16  H    0.001006  -0.000721   0.000073   0.001404  -0.000251   0.024073
    17  H   -0.003723   0.001918  -0.000251   0.013759   0.002434  -0.004624
    18  C    0.406859   0.383851   0.375320  -0.000275  -0.076273  -0.006005
    19  H    0.564849  -0.043528  -0.018689  -0.022014  -0.006652  -0.044076
    20  H   -0.043528   0.559324  -0.031572   0.060919   0.008903  -0.075113
    21  H   -0.018689  -0.031572   0.573036  -0.097742  -0.005095   0.041379
    22  C   -0.022014   0.060919  -0.097742   6.668357   0.522971  -1.611270
    23  H   -0.006652   0.008903  -0.005095   0.522971   0.568662  -0.114587
    24  C   -0.044076  -0.075113   0.041379  -1.611270  -0.114587   8.647089
    25  H   -0.000222   0.004761  -0.002144   0.012205   0.013914   0.396686
    26  C    0.024452  -0.005836   0.012102   0.862291  -0.046320  -2.319537
    27  H   -0.001388   0.001143   0.001272  -0.034886   0.009556  -0.131726
             25         26         27
     1  C   -0.016810   0.124013  -0.003418
     2  H    0.000055   0.026746  -0.001087
     3  H    0.002719   0.004092   0.001623
     4  H   -0.002170  -0.008802  -0.000563
     5  C    0.050542  -1.936647   0.118175
     6  H    0.004269  -0.237283   0.008546
     7  H    0.001797   0.050719  -0.000847
     8  C   -0.012552  -0.143761  -0.052680
     9  H    0.000754  -0.092194  -0.001298
    10  C    0.006604  -0.366670   0.010014
    11  H    0.001024  -0.005300   0.000017
    12  H    0.000119  -0.001479   0.001080
    13  H   -0.000458   0.003221  -0.000516
    14  C   -0.000261   0.344223  -0.011103
    15  H    0.000147   0.008071   0.002438
    16  H   -0.000172  -0.034845  -0.000461
    17  H    0.002377   0.055305  -0.003474
    18  C   -0.027491   0.153500   0.003851
    19  H   -0.000222   0.024452  -0.001388
    20  H    0.004761  -0.005836   0.001143
    21  H   -0.002144   0.012102   0.001272
    22  C    0.012205   0.862291  -0.034886
    23  H    0.013914  -0.046320   0.009556
    24  C    0.396686  -2.319537  -0.131726
    25  H    0.591442  -0.174043   0.011378
    26  C   -0.174043   9.205608   0.327169
    27  H    0.011378   0.327169   0.598328
 Mulliken atomic charges:
              1
     1  C   -0.646364
     2  H    0.143456
     3  H    0.143582
     4  H    0.141479
     5  C   -0.696996
     6  H    0.140760
     7  H    0.145401
     8  C    0.379000
     9  H    0.146392
    10  C   -0.658841
    11  H    0.136032
    12  H    0.136324
    13  H    0.131384
    14  C   -0.646007
    15  H    0.132764
    16  H    0.141631
    17  H    0.140978
    18  C   -0.624613
    19  H    0.138564
    20  H    0.145031
    21  H    0.141724
    22  C    0.242441
    23  H    0.158081
    24  C   -0.067801
    25  H    0.135530
    26  C    0.171206
    27  H    0.148860
 Sum of Mulliken atomic charges =   0.00000
 Mulliken charges with hydrogens summed into heavy atoms:
              1
     1  C   -0.217847
     5  C   -0.410835
     8  C    0.525393
    10  C   -0.255101
    14  C   -0.230634
    18  C   -0.199294
    22  C    0.400522
    24  C    0.067729
    26  C    0.320066
 Sum of Mulliken charges with hydrogens summed into heavy atoms =   0.00000
 Electronic spatial extent (au):  <R**2>=           2235.4109
 Charge=              0.0000 electrons
 Dipole moment (field-independent basis, Debye):
    X=              0.0076    Y=             -0.0071    Z=             -0.1978  Tot=              0.1981
 Quadrupole moment (field-independent basis, Debye-Ang):
   XX=            -60.6052   YY=            -62.8970   ZZ=            -59.7147
   XY=              0.5936   XZ=              0.1571   YZ=              0.1750
 Traceless Quadrupole moment (field-independent basis, Debye-Ang):
   XX=              0.4671   YY=             -1.8247   ZZ=              1.3576
   XY=              0.5936   XZ=              0.1571   YZ=              0.1750
 Octapole moment (field-independent basis, Debye-Ang**2):
  XXX=              4.5908  YYY=             -1.2289  ZZZ=              0.7371  XYY=             -2.8170
  XXY=              2.4269  XXZ=             -4.3697  XZZ=              0.6905  YZZ=             -0.2450
  YYZ=             -2.2105  XYZ=              0.0590
 Hexadecapole moment (field-independent basis, Debye-Ang**3):
 XXXX=          -2601.5913 YYYY=           -454.9605 ZZZZ=           -156.2771 XXXY=             -4.0826
 XXXZ=             -2.0552 YYYX=              2.8680 YYYZ=              0.3459 ZZZX=              0.3350
 ZZZY=              1.4298 XXYY=           -513.2623 XXZZ=           -455.2241 YYZZ=           -104.4989
 XXYZ=             -1.5858 YYXZ=              1.7438 ZZXY=              0.4707
 N-N= 4.492865680649D+02 E-N=-1.717208714362D+03  KE= 3.520326533714D+02
 No NMR shielding tensors so no spin-rotation constants.
 Leave Link  601 at Sun Feb  9 04:51:03 2014, MaxMem= 4026531840 cpu:       2.0
 (Enter /usr/caen/gaussian-09revc/g09/l801.exe)
 Range of M.O.s used for correlation:     1   324
 NBasis=   324 NAE=    36 NBE=    36 NFC=     0 NFV=     0
 NROrb=    324 NOA=    36 NOB=    36 NVA=   288 NVB=   288

 **** Warning!!: The largest alpha MO coefficient is  0.14933914D+03

 Leave Link  801 at Sun Feb  9 04:51:03 2014, MaxMem= 4026531840 cpu:       0.2
 (Enter /usr/caen/gaussian-09revc/g09/l914.exe)
 RHF ground state
 Doing stability rather than CIS.
 MDV=  4026531840 DFT=T DoStab=T Mixed=T DoRPA=F DoScal=F NonHer=F
 Keep R1 and R2 ints in memory in canonical form, NReq=3294295389.
 Symmetry not used in FoFDir.
 MinBra= 0 MaxBra= 2 Meth= 1.
 IRaf=       0 NMat=   1 IRICut=       1 DoRegI=T DoRafI=F ISym2E= 0 JSym2E=0.
 Making orbital integer symmetry assigments:
 Orbital symmetries:
       Occupied  (A) (A) (A) (A) (A) (A) (A) (A) (A) (A) (A) (A)
                 (A) (A) (A) (A) (A) (A) (A) (A) (A) (A) (A) (A)
                 (A) (A) (A) (A) (A) (A) (A) (A) (A) (A) (A) (A)
       Virtual   (A) (A) (A) (A) (A) (A) (A) (A) (A) (A) (A) (A)
                 (A) (A) (A) (A) (A) (A) (A) (A) (A) (A) (A) (A)
                 (A) (A) (A) (A) (A) (A) (A) (A) (A) (A) (A) (A)
                 (A) (A) (A) (A) (A) (A) (A) (A) (A) (A) (A) (A)
                 (A) (A) (A) (A) (A) (A) (A) (A) (A) (A) (A) (A)
                 (A) (A) (A) (A) (A) (A) (A) (A) (A) (A) (A) (A)
                 (A) (A) (A) (A) (A) (A) (A) (A) (A) (A) (A) (A)
                 (A) (A) (A) (A) (A) (A) (A) (A) (A) (A) (A) (A)
                 (A) (A) (A) (A) (A) (A) (A) (A) (A) (A) (A) (A)
                 (A) (A) (A) (A) (A) (A) (A) (A) (A) (A) (A) (A)
                 (A) (A) (A) (A) (A) (A) (A) (A) (A) (A) (A) (A)
                 (A) (A) (A) (A) (A) (A) (A) (A) (A) (A) (A) (A)
                 (A) (A) (A) (A) (A) (A) (A) (A) (A) (A) (A) (A)
                 (A) (A) (A) (A) (A) (A) (A) (A) (A) (A) (A) (A)
                 (A) (A) (A) (A) (A) (A) (A) (A) (A) (A) (A) (A)
                 (A) (A) (A) (A) (A) (A) (A) (A) (A) (A) (A) (A)
                 (A) (A) (A) (A) (A) (A) (A) (A) (A) (A) (A) (A)
                 (A) (A) (A) (A) (A) (A) (A) (A) (A) (A) (A) (A)
                 (A) (A) (A) (A) (A) (A) (A) (A) (A) (A) (A) (A)
                 (A) (A) (A) (A) (A) (A) (A) (A) (A) (A) (A) (A)
                 (A) (A) (A) (A) (A) (A) (A) (A) (A) (A) (A) (A)
                 (A) (A) (A) (A) (A) (A) (A) (A) (A) (A) (A) (A)
                 (A) (A) (A) (A) (A) (A) (A) (A) (A) (A) (A) (A)
                 (A) (A) (A) (A) (A) (A) (A) (A) (A) (A) (A) (A)
    24 initial guesses have been made.
 Convergence on wavefunction:    0.001000000000000
 Davidson Disk Diagonalization:  ConvIn= 1.00D-03 SkipCon=T Conv= 1.00D-03.
 Max sub-space:   200 roots to seek:    24 dimension of matrix:  20736
 Iteration     1 Dimension    24 NMult    24
 CISAX:  IP=  8 NPass=   1 NMax=    24.
 CISAX will form    24 AO SS matrices at one time.
 NMat=    24 NSing=    12.
 New state      1 was old state      8
 Excitation Energies [eV] at current iteration:
 Root      1 :     3.862578093080306
 Root      2 :     5.798866256053825
 Root      3 :     5.854853569392471
 Root      4 :     6.025063065291064
 Root      5 :     6.070955133819153
 Root      6 :     6.119289183121374
 Root      7 :     6.142774152232196
 Root      8 :     6.326454486041363
 Root      9 :     6.446086355878648
 Root     10 :     6.679708772034820
 Root     11 :     6.709544392748206
 Root     12 :     6.768008688003455
 Root     13 :     6.778527775531141
 Root     14 :     6.813823872813014
 Root     15 :     6.876084920077394
 Root     16 :     7.001677891657881
 Root     17 :     7.030109785548758
 Root     18 :     7.228837762833097
 Root     19 :     7.257180166063356
 Root     20 :     7.326334081275321
 Root     21 :     7.362096298187425
 Root     22 :     7.407575271836769
 Root     23 :     7.415421342489696
 Root     24 :    11.673512912963010
 Iteration     2 Dimension    48 NMult    48
 CISAX:  IP=  8 NPass=   1 NMax=    24.
 CISAX will form    24 AO SS matrices at one time.
 NMat=    24 NSing=    12.
 Root      1 not converged, maximum delta is    0.114402869297157
 Excitation Energies [eV] at current iteration:
 Root      1 :     2.907825063142335   Change is   -0.954753029937970
 Root      2 :     5.749649620278848   Change is   -0.049216635774977
 Root      3 :     5.829108771652167   Change is   -0.025744797740304
 Root      4 :     5.951413988647797   Change is   -0.073649076643266
 Root      5 :     6.042975821999375   Change is   -0.027979311819778
 Root      6 :     6.092742325161830
 Iteration     3 Dimension    54 NMult    54
 CISAX:  IP=  1 NPass=   1 NMax=     6.
 CISAX will form     6 AO SS matrices at one time.
 NMat=     6 NSing=     3.
 Root      1 not converged, maximum delta is    0.010074493773532
 Excitation Energies [eV] at current iteration:
 Root      1 :     2.889043789348569   Change is   -0.018781273793766
 Root      2 :     5.747766973591971   Change is   -0.001882646686876
 Root      3 :     5.824782260908904   Change is   -0.004326510743263
 Root      4 :     5.949123203098020   Change is   -0.002290785549777
 Root      5 :     6.039012695532842   Change is   -0.003963126466533
 Root      6 :     6.092661783002914   Change is   -0.000080542158916
 Iteration     4 Dimension    60 NMult    60
 CISAX:  IP=  1 NPass=   1 NMax=     6.
 CISAX will form     6 AO SS matrices at one time.
 NMat=     6 NSing=     3.
 Root      1 has converged.
 Excitation Energies [eV] at current iteration:
 Root      1 :     2.888326434752966   Change is   -0.000717354595603
 Root      2 :     5.747649908786856   Change is   -0.000117064805115
 Root      3 :     5.824137387903391   Change is   -0.000644873005513
 Root      4 :     5.948838674265641   Change is   -0.000284528832380
 Root      5 :     6.038666656127594   Change is   -0.000346039405248
 Root      6 :     6.092626543667271   Change is   -0.000035239335643
 Convergence achieved on expansion vectors.
 ***********************************************************************
 Stability analysis using <AA,BB:AA,BB> singles matrix:
 ***********************************************************************

 Eigenvectors of the stability matrix:
 
 Eigenvector   1:      Triplet-A    Eigenvalue= 0.1061440  <S**2>=2.000
      36 -> 38         0.12285
      36 -> 40         0.48954
      36 -> 41        -0.35611
      36 -> 44        -0.13108
      36 -> 49         0.10533
 SavETr:  write IOETrn=   770 NScale= 10 NData=  16 NLR=1 LETran=      28.
 The wavefunction is stable under the perturbations considered.
 Leave Link  914 at Sun Feb  9 04:55:15 2014, MaxMem= 4026531840 cpu:    2010.1
 (Enter /usr/caen/gaussian-09revc/g09/l502.exe)
 The wavefunction is already stable.
 Leave Link  502 at Sun Feb  9 04:55:16 2014, MaxMem= 4026531840 cpu:       0.1
 (Enter /usr/caen/gaussian-09revc/g09/l508.exe)
 The wavefunction is already stable.
 Leave Link  508 at Sun Feb  9 04:55:16 2014, MaxMem= 4026531840 cpu:       0.0
 (Enter /usr/caen/gaussian-09revc/g09/l601.exe)
 Copying SCF densities to generalized density rwf, IOpCl= 0 IROHF=0.

 **********************************************************************

            Population analysis using the SCF density.

 **********************************************************************

 Orbital symmetries:
       Occupied  (A) (A) (A) (A) (A) (A) (A) (A) (A) (A) (A) (A)
                 (A) (A) (A) (A) (A) (A) (A) (A) (A) (A) (A) (A)
                 (A) (A) (A) (A) (A) (A) (A) (A) (A) (A) (A) (A)
       Virtual   (A) (A) (A) (A) (A) (A) (A) (A) (A) (A) (A) (A)
                 (A) (A) (A) (A) (A) (A) (A) (A) (A) (A) (A) (A)
                 (A) (A) (A) (A) (A) (A) (A) (A) (A) (A) (A) (A)
                 (A) (A) (A) (A) (A) (A) (A) (A) (A) (A) (A) (A)
                 (A) (A) (A) (A) (A) (A) (A) (A) (A) (A) (A) (A)
                 (A) (A) (A) (A) (A) (A) (A) (A) (A) (A) (A) (A)
                 (A) (A) (A) (A) (A) (A) (A) (A) (A) (A) (A) (A)
                 (A) (A) (A) (A) (A) (A) (A) (A) (A) (A) (A) (A)
                 (A) (A) (A) (A) (A) (A) (A) (A) (A) (A) (A) (A)
                 (A) (A) (A) (A) (A) (A) (A) (A) (A) (A) (A) (A)
                 (A) (A) (A) (A) (A) (A) (A) (A) (A) (A) (A) (A)
                 (A) (A) (A) (A) (A) (A) (A) (A) (A) (A) (A) (A)
                 (A) (A) (A) (A) (A) (A) (A) (A) (A) (A) (A) (A)
                 (A) (A) (A) (A) (A) (A) (A) (A) (A) (A) (A) (A)
                 (A) (A) (A) (A) (A) (A) (A) (A) (A) (A) (A) (A)
                 (A) (A) (A) (A) (A) (A) (A) (A) (A) (A) (A) (A)
                 (A) (A) (A) (A) (A) (A) (A) (A) (A) (A) (A) (A)
                 (A) (A) (A) (A) (A) (A) (A) (A) (A) (A) (A) (A)
                 (A) (A) (A) (A) (A) (A) (A) (A) (A) (A) (A) (A)
                 (A) (A) (A) (A) (A) (A) (A) (A) (A) (A) (A) (A)
                 (A) (A) (A) (A) (A) (A) (A) (A) (A) (A) (A) (A)
                 (A) (A) (A) (A) (A) (A) (A) (A) (A) (A) (A) (A)
                 (A) (A) (A) (A) (A) (A) (A) (A) (A) (A) (A) (A)
                 (A) (A) (A) (A) (A) (A) (A) (A) (A) (A) (A) (A)
 The electronic state is 1-A.
 Alpha  occ. eigenvalues --  -10.17744 -10.17447 -10.16680 -10.16557 -10.16371
 Alpha  occ. eigenvalues --  -10.15830 -10.15810 -10.15672 -10.15313  -0.82343
 Alpha  occ. eigenvalues --   -0.80355  -0.75095  -0.68389  -0.68279  -0.67646
 Alpha  occ. eigenvalues --   -0.59113  -0.55806  -0.55123  -0.47421  -0.45611
 Alpha  occ. eigenvalues --   -0.44862  -0.43502  -0.42679  -0.41001  -0.40129
 Alpha  occ. eigenvalues --   -0.38575  -0.38539  -0.37488  -0.35982  -0.34771
 Alpha  occ. eigenvalues --   -0.34418  -0.33566  -0.33146  -0.32445  -0.31606
 Alpha  occ. eigenvalues --   -0.24659
 Alpha virt. eigenvalues --   -0.00792  -0.00016   0.00381   0.00548   0.01460
 Alpha virt. eigenvalues --    0.02134   0.02476   0.02539   0.03529   0.04130
 Alpha virt. eigenvalues --    0.04539   0.04929   0.05163   0.05574   0.06521
 Alpha virt. eigenvalues --    0.06895   0.07482   0.07659   0.08601   0.09126
 Alpha virt. eigenvalues --    0.09885   0.10024   0.10583   0.10882   0.11448
 Alpha virt. eigenvalues --    0.11834   0.12176   0.12423   0.12810   0.13151
 Alpha virt. eigenvalues --    0.13313   0.13711   0.14044   0.14233   0.14426
 Alpha virt. eigenvalues --    0.14472   0.15344   0.15536   0.15801   0.16324
 Alpha virt. eigenvalues --    0.16425   0.17298   0.17399   0.17577   0.18221
 Alpha virt. eigenvalues --    0.18453   0.18866   0.19115   0.19265   0.19980
 Alpha virt. eigenvalues --    0.20629   0.20822   0.21751   0.21963   0.22514
 Alpha virt. eigenvalues --    0.23487   0.23570   0.23671   0.24496   0.25231
 Alpha virt. eigenvalues --    0.25567   0.26153   0.27325   0.27686   0.28584
 Alpha virt. eigenvalues --    0.28915   0.29627   0.30243   0.30402   0.31179
 Alpha virt. eigenvalues --    0.31592   0.32058   0.32941   0.34071   0.34398
 Alpha virt. eigenvalues --    0.35496   0.37026   0.38325   0.39287   0.40956
 Alpha virt. eigenvalues --    0.43563   0.44526   0.45352   0.47099   0.47907
 Alpha virt. eigenvalues --    0.49052   0.50432   0.51238   0.51799   0.52666
 Alpha virt. eigenvalues --    0.53811   0.55444   0.56923   0.57519   0.58026
 Alpha virt. eigenvalues --    0.59511   0.61274   0.61967   0.63660   0.64544
 Alpha virt. eigenvalues --    0.64956   0.65469   0.66218   0.67006   0.67643
 Alpha virt. eigenvalues --    0.68181   0.68325   0.68576   0.69855   0.70507
 Alpha virt. eigenvalues --    0.70747   0.71348   0.73545   0.74088   0.74738
 Alpha virt. eigenvalues --    0.75278   0.75626   0.75952   0.77454   0.78169
 Alpha virt. eigenvalues --    0.78290   0.78537   0.79721   0.82213   0.83835
 Alpha virt. eigenvalues --    0.84213   0.88343   0.89819   0.93866   0.95111
 Alpha virt. eigenvalues --    0.97922   0.99112   1.01884   1.03628   1.05993
 Alpha virt. eigenvalues --    1.06762   1.09056   1.11265   1.17262   1.18217
 Alpha virt. eigenvalues --    1.19270   1.20955   1.22748   1.26045   1.26636
 Alpha virt. eigenvalues --    1.39004   1.40888   1.45309   1.45771   1.46127
 Alpha virt. eigenvalues --    1.46493   1.46836   1.48017   1.48482   1.49913
 Alpha virt. eigenvalues --    1.50784   1.53781   1.55536   1.57341   1.58260
 Alpha virt. eigenvalues --    1.58397   1.59194   1.60098   1.60430   1.61323
 Alpha virt. eigenvalues --    1.62365   1.62749   1.63874   1.64619   1.65455
 Alpha virt. eigenvalues --    1.66965   1.68079   1.70154   1.70649   1.72989
 Alpha virt. eigenvalues --    1.73270   1.74430   1.75272   1.76701   1.77659
 Alpha virt. eigenvalues --    1.79523   1.80448   1.81648   1.82075   1.85473
 Alpha virt. eigenvalues --    1.86797   1.90578   1.92890   1.93601   1.98950
 Alpha virt. eigenvalues --    2.00526   2.00969   2.04044   2.05082   2.08424
 Alpha virt. eigenvalues --    2.09326   2.11885   2.13578   2.14179   2.14474
 Alpha virt. eigenvalues --    2.16617   2.17736   2.19014   2.20801   2.25940
 Alpha virt. eigenvalues --    2.28337   2.31211   2.32147   2.34200   2.36514
 Alpha virt. eigenvalues --    2.38282   2.38906   2.41407   2.42497   2.46214
 Alpha virt. eigenvalues --    2.47345   2.49714   2.49889   2.51313   2.51746
 Alpha virt. eigenvalues --    2.52100   2.52623   2.53593   2.54154   2.55694
 Alpha virt. eigenvalues --    2.56514   2.59349   2.59971   2.60424   2.62723
 Alpha virt. eigenvalues --    2.63090   2.65652   2.66942   2.69054   2.70517
 Alpha virt. eigenvalues --    2.73669   2.74021   2.74282   2.75328   2.76748
 Alpha virt. eigenvalues --    2.79074   2.82671   2.83781   2.84573   2.88081
 Alpha virt. eigenvalues --    2.90524   2.93330   2.94624   2.97233   2.98023
 Alpha virt. eigenvalues --    2.99003   3.01675   3.04185   3.07562   3.11625
 Alpha virt. eigenvalues --    3.15573   3.16324   3.20145   3.31935   3.48109
 Alpha virt. eigenvalues --    3.49581   3.60305   3.77954   3.78423   3.79341
 Alpha virt. eigenvalues --    3.79431   3.81707   3.83505   3.83577   3.83842
 Alpha virt. eigenvalues --    3.87366   3.88144   4.01512   4.10009   4.20272
 Alpha virt. eigenvalues --    4.29171   4.29983   4.31025   4.42466  23.74933
 Alpha virt. eigenvalues --   23.82998  23.84944  23.92591  23.97140  23.97617
 Alpha virt. eigenvalues --   23.98749  23.99123  24.28089
          Condensed to atoms (all electrons):
              1          2          3          4          5          6
     1  C    5.537383   0.392111   0.406742   0.365928  -0.000390   0.002347
     2  H    0.392111   0.554088  -0.037642  -0.021910   0.000496   0.000018
     3  H    0.406742  -0.037642   0.556565  -0.032045  -0.006549  -0.000058
     4  H    0.365928  -0.021910  -0.032045   0.577867   0.000925   0.000295
     5  C   -0.000390   0.000496  -0.006549   0.000925   7.907912   0.531311
     6  H    0.002347   0.000018  -0.000058   0.000295   0.531311   0.580587
     7  H    0.001560  -0.000173  -0.000336  -0.000445   0.440586  -0.043558
     8  C    0.001688  -0.001576   0.001223   0.001104  -0.788922   0.004404
     9  H   -0.000090  -0.000020  -0.000055   0.000105  -0.126489   0.014722
    10  C    0.000709  -0.000097   0.000130  -0.000147   0.472295   0.020361
    11  H   -0.000041  -0.000016  -0.000020   0.000012  -0.063841   0.003294
    12  H   -0.000012   0.000006   0.000005  -0.000001   0.030803  -0.000884
    13  H    0.000135   0.000010   0.000004  -0.000007  -0.022011   0.001510
    14  C   -0.000927   0.000161   0.000013  -0.000245  -0.157443  -0.054640
    15  H   -0.000046  -0.000008   0.000008   0.000012   0.054849  -0.002990
    16  H    0.000092  -0.000048   0.000058   0.000007  -0.064374   0.006255
    17  H   -0.000773   0.000135   0.000040  -0.000083  -0.058861   0.002377
    18  C   -0.221463   0.013993  -0.019831   0.016152   0.031808   0.003920
    19  H    0.012190  -0.002689  -0.002428   0.001388  -0.004120  -0.000024
    20  H   -0.014329  -0.001663   0.005054   0.004251  -0.002700  -0.000827
    21  H    0.014372   0.000385   0.005375  -0.005743  -0.003768   0.000305
    22  C    0.092226   0.003815   0.044451  -0.089595  -0.747382  -0.005698
    23  H   -0.040275  -0.003363   0.008588  -0.008208   0.001519  -0.001140
    24  C   -0.006558  -0.065183  -0.081306   0.060439   1.039273   0.021822
    25  H   -0.016810   0.000055   0.002719  -0.002170   0.050542   0.004269
    26  C    0.124013   0.026746   0.004092  -0.008802  -1.936647  -0.237283
    27  H   -0.003418  -0.001087   0.001623  -0.000563   0.118175   0.008546
              7          8          9         10         11         12
     1  C    0.001560   0.001688  -0.000090   0.000709  -0.000041  -0.000012
     2  H   -0.000173  -0.001576  -0.000020  -0.000097  -0.000016   0.000006
     3  H   -0.000336   0.001223  -0.000055   0.000130  -0.000020   0.000005
     4  H   -0.000445   0.001104   0.000105  -0.000147   0.000012  -0.000001
     5  C    0.440586  -0.788922  -0.126489   0.472295  -0.063841   0.030803
     6  H   -0.043558   0.004404   0.014722   0.020361   0.003294  -0.000884
     7  H    0.618359  -0.169797  -0.015156   0.007891   0.000394  -0.001143
     8  C   -0.169797   6.142034   0.587908  -0.238642   0.051577  -0.060808
     9  H   -0.015156   0.587908   0.602730  -0.046707   0.015234  -0.010095
    10  C    0.007891  -0.238642  -0.046707   5.747396   0.386546   0.398029
    11  H    0.000394   0.051577   0.015234   0.386546   0.568223  -0.037289
    12  H   -0.001143  -0.060808  -0.010095   0.398029  -0.037289   0.576154
    13  H    0.004281  -0.026864  -0.009867   0.391867  -0.043417  -0.024632
    14  C    0.037107   0.014600  -0.116564  -0.151722  -0.028594  -0.008312
    15  H   -0.001252  -0.107082  -0.008303   0.003183   0.003088   0.001176
    16  H   -0.003806   0.068955   0.012974  -0.013649   0.009288   0.001045
    17  H    0.002011  -0.061201  -0.008889   0.001009  -0.003779   0.001618
    18  C   -0.001396  -0.014698   0.001525  -0.003050  -0.000036   0.000035
    19  H    0.000070  -0.000354   0.000482   0.000009   0.000003  -0.000020
    20  H    0.000071   0.000439  -0.000247   0.000034   0.000026  -0.000011
    21  H    0.000118  -0.000331  -0.000085   0.000055  -0.000005  -0.000003
    22  C   -0.014226   0.127108   0.001903  -0.031508   0.001265  -0.000645
    23  H   -0.000340   0.005731  -0.000156   0.000808   0.000053  -0.000019
    24  C   -0.057889   0.293498   0.051485   0.064091   0.006263  -0.001040
    25  H    0.001797  -0.012552   0.000754   0.006604   0.001024   0.000119
    26  C    0.050719  -0.143761  -0.092194  -0.366670  -0.005300  -0.001479
    27  H   -0.000847  -0.052680  -0.001298   0.010014   0.000017   0.001080
             13         14         15         16         17         18
     1  C    0.000135  -0.000927  -0.000046   0.000092  -0.000773  -0.221463
     2  H    0.000010   0.000161  -0.000008  -0.000048   0.000135   0.013993
     3  H    0.000004   0.000013   0.000008   0.000058   0.000040  -0.019831
     4  H   -0.000007  -0.000245   0.000012   0.000007  -0.000083   0.016152
     5  C   -0.022011  -0.157443   0.054849  -0.064374  -0.058861   0.031808
     6  H    0.001510  -0.054640  -0.002990   0.006255   0.002377   0.003920
     7  H    0.004281   0.037107  -0.001252  -0.003806   0.002011  -0.001396
     8  C   -0.026864   0.014600  -0.107082   0.068955  -0.061201  -0.014698
     9  H   -0.009867  -0.116564  -0.008303   0.012974  -0.008889   0.001525
    10  C    0.391867  -0.151722   0.003183  -0.013649   0.001009  -0.003050
    11  H   -0.043417  -0.028594   0.003088   0.009288  -0.003779  -0.000036
    12  H   -0.024632  -0.008312   0.001176   0.001045   0.001618   0.000035
    13  H    0.584032   0.013187   0.000231  -0.001236  -0.002528  -0.000135
    14  C    0.013187   5.611098   0.415838   0.362829   0.424457  -0.000516
    15  H    0.000231   0.415838   0.570555  -0.033846  -0.027412   0.000210
    16  H   -0.001236   0.362829  -0.033846   0.569958  -0.046041  -0.000197
    17  H   -0.002528   0.424457  -0.027412  -0.046041   0.573383  -0.000160
    18  C   -0.000135  -0.000516   0.000210  -0.000197  -0.000160   5.605113
    19  H   -0.000001   0.000202  -0.000146   0.001006  -0.003723   0.406859
    20  H    0.000008   0.000693   0.000121  -0.000721   0.001918   0.383851
    21  H    0.000004  -0.000079  -0.000012   0.000073  -0.000251   0.375320
    22  C    0.000411  -0.001175   0.000888   0.001404   0.013759  -0.000275
    23  H   -0.000003   0.001458   0.000004  -0.000251   0.002434  -0.076273
    24  C    0.001385  -0.048281  -0.012487   0.024073  -0.004624  -0.006005
    25  H   -0.000458  -0.000261   0.000147  -0.000172   0.002377  -0.027491
    26  C    0.003221   0.344223   0.008071  -0.034845   0.055305   0.153500
    27  H   -0.000516  -0.011103   0.002438  -0.000461  -0.003474   0.003851
             19         20         21         22         23         24
     1  C    0.012190  -0.014329   0.014372   0.092226  -0.040275  -0.006558
     2  H   -0.002689  -0.001663   0.000385   0.003815  -0.003363  -0.065183
     3  H   -0.002428   0.005054   0.005375   0.044451   0.008588  -0.081306
     4  H    0.001388   0.004251  -0.005743  -0.089595  -0.008208   0.060439
     5  C   -0.004120  -0.002700  -0.003768  -0.747382   0.001519   1.039273
     6  H   -0.000024  -0.000827   0.000305  -0.005698  -0.001140   0.021822
     7  H    0.000070   0.000071   0.000118  -0.014226  -0.000340  -0.057889
     8  C   -0.000354   0.000439  -0.000331   0.127108   0.005731   0.293498
     9  H    0.000482  -0.000247  -0.000085   0.001903  -0.000156   0.051485
    10  C    0.000009   0.000034   0.000055  -0.031508   0.000808   0.064091
    11  H    0.000003   0.000026  -0.000005   0.001265   0.000053   0.006263
    12  H   -0.000020  -0.000011  -0.000003  -0.000645  -0.000019  -0.001040
    13  H   -0.000001   0.000008   0.000004   0.000411  -0.000003   0.001385
    14  C    0.000202   0.000693  -0.000079  -0.001175   0.001458  -0.048281
    15  H   -0.000146   0.000121  -0.000012   0.000888   0.000004  -0.012487
    16  H    0.001006  -0.000721   0.000073   0.001404  -0.000251   0.024073
    17  H   -0.003723   0.001918  -0.000251   0.013759   0.002434  -0.004624
    18  C    0.406859   0.383851   0.375320  -0.000275  -0.076273  -0.006005
    19  H    0.564849  -0.043528  -0.018689  -0.022014  -0.006652  -0.044076
    20  H   -0.043528   0.559324  -0.031572   0.060919   0.008903  -0.075113
    21  H   -0.018689  -0.031572   0.573036  -0.097742  -0.005095   0.041379
    22  C   -0.022014   0.060919  -0.097742   6.668357   0.522971  -1.611270
    23  H   -0.006652   0.008903  -0.005095   0.522971   0.568662  -0.114587
    24  C   -0.044076  -0.075113   0.041379  -1.611270  -0.114587   8.647089
    25  H   -0.000222   0.004761  -0.002144   0.012205   0.013914   0.396686
    26  C    0.024452  -0.005836   0.012102   0.862291  -0.046320  -2.319537
    27  H   -0.001388   0.001143   0.001272  -0.034886   0.009556  -0.131726
             25         26         27
     1  C   -0.016810   0.124013  -0.003418
     2  H    0.000055   0.026746  -0.001087
     3  H    0.002719   0.004092   0.001623
     4  H   -0.002170  -0.008802  -0.000563
     5  C    0.050542  -1.936647   0.118175
     6  H    0.004269  -0.237283   0.008546
     7  H    0.001797   0.050719  -0.000847
     8  C   -0.012552  -0.143761  -0.052680
     9  H    0.000754  -0.092194  -0.001298
    10  C    0.006604  -0.366670   0.010014
    11  H    0.001024  -0.005300   0.000017
    12  H    0.000119  -0.001479   0.001080
    13  H   -0.000458   0.003221  -0.000516
    14  C   -0.000261   0.344223  -0.011103
    15  H    0.000147   0.008071   0.002438
    16  H   -0.000172  -0.034845  -0.000461
    17  H    0.002377   0.055305  -0.003474
    18  C   -0.027491   0.153500   0.003851
    19  H   -0.000222   0.024452  -0.001388
    20  H    0.004761  -0.005836   0.001143
    21  H   -0.002144   0.012102   0.001272
    22  C    0.012205   0.862291  -0.034886
    23  H    0.013914  -0.046320   0.009556
    24  C    0.396686  -2.319537  -0.131726
    25  H    0.591442  -0.174043   0.011378
    26  C   -0.174043   9.205608   0.327169
    27  H    0.011378   0.327169   0.598328
 Mulliken atomic charges:
              1
     1  C   -0.646364
     2  H    0.143456
     3  H    0.143582
     4  H    0.141479
     5  C   -0.696996
     6  H    0.140760
     7  H    0.145401
     8  C    0.379000
     9  H    0.146392
    10  C   -0.658841
    11  H    0.136032
    12  H    0.136324
    13  H    0.131384
    14  C   -0.646007
    15  H    0.132764
    16  H    0.141631
    17  H    0.140978
    18  C   -0.624613
    19  H    0.138564
    20  H    0.145031
    21  H    0.141724
    22  C    0.242441
    23  H    0.158081
    24  C   -0.067801
    25  H    0.135530
    26  C    0.171206
    27  H    0.148860
 Sum of Mulliken atomic charges =   0.00000
 Mulliken charges with hydrogens summed into heavy atoms:
              1
     1  C   -0.217847
     5  C   -0.410835
     8  C    0.525393
    10  C   -0.255101
    14  C   -0.230634
    18  C   -0.199294
    22  C    0.400522
    24  C    0.067729
    26  C    0.320066
 Sum of Mulliken charges with hydrogens summed into heavy atoms =   0.00000
 Electronic spatial extent (au):  <R**2>=           2235.4109
 Charge=              0.0000 electrons
 Dipole moment (field-independent basis, Debye):
    X=              0.0076    Y=             -0.0071    Z=             -0.1978  Tot=              0.1981
 Quadrupole moment (field-independent basis, Debye-Ang):
   XX=            -60.6052   YY=            -62.8970   ZZ=            -59.7147
   XY=              0.5936   XZ=              0.1571   YZ=              0.1750
 Traceless Quadrupole moment (field-independent basis, Debye-Ang):
   XX=              0.4671   YY=             -1.8247   ZZ=              1.3576
   XY=              0.5936   XZ=              0.1571   YZ=              0.1750
 Octapole moment (field-independent basis, Debye-Ang**2):
  XXX=              4.5908  YYY=             -1.2289  ZZZ=              0.7371  XYY=             -2.8170
  XXY=              2.4269  XXZ=             -4.3697  XZZ=              0.6905  YZZ=             -0.2450
  YYZ=             -2.2105  XYZ=              0.0590
 Hexadecapole moment (field-independent basis, Debye-Ang**3):
 XXXX=          -2601.5913 YYYY=           -454.9605 ZZZZ=           -156.2771 XXXY=             -4.0826
 XXXZ=             -2.0552 YYYX=              2.8680 YYYZ=              0.3459 ZZZX=              0.3350
 ZZZY=              1.4298 XXYY=           -513.2623 XXZZ=           -455.2241 YYZZ=           -104.4989
 XXYZ=             -1.5858 YYXZ=              1.7438 ZZXY=              0.4707
[...]
 4,-0.00001365,0.00000534,0.00000817,-0.00002217,-0.00000100,-0.0000058
 6,-0.00000154,0.00000073,-0.00000655,0.00000303,0.00000069,0.00000166,
 -0.00000216,0.00000331,0.00000072,-0.00000050,0.00000090,0.00000230,-0
 .00000069,-0.00001713,-0.00001186,0.00000308,0.00000157,-0.00000208,-0
 .00000005,0.00001555,0.00001087,-0.00001344,-0.00000410,0.00000942,0.0
 0002249,-0.00115775,-0.04940586,-0.02572435,0.00005097,0.00253824,0.02
 193434,0.00338159,0.05400353,0.00002284,0.00066224,0.00063501,0.000039
 19,-0.00005683,0.00036029,0.00041469,-0.00060513,0.00047880,-0.0000426
 6,-0.00000836,-0.00005198,-0.00002560,0.00007620,-0.00006010,-0.000025
 30,-0.00000399,0.00003065,-0.00002067,-0.00000635,0.00000102,-0.000014
 23,-0.00004694,0.00002490,0.00000956,0.00001177,0.00001810,-0.00001118
 ,0.00002509,-0.00001342,-0.00000202,-0.00000349,0.00001078,-0.00001563
 ,-0.00000033,0.00000015,0.00000458,0.00000193,0.00000017,0.00001831,0.
 00001171,-0.00002321,0.00000013,0.00000956,0.00000710,-0.00003084,-0.0
 0001255,0.00003795,0.00000333,-0.00001725,-0.00003911,-0.01560089,-0.0
 2612981,-0.29823896,-0.00016373,-0.00086749,-0.01063467,0.01793196,0.0
 3085676,0.32551812,0.00062289,0.00111971,-0.00006168,0.00024221,0.0000
 1386,-0.00023833,0.00002038,-0.00001107,-0.00004470,0.00072472,-0.0003
 6793,0.00007067,-0.00018992,0.00034696,-0.00026533,-0.00000593,0.00001
 106,0.00003137,-0.00005532,-0.00003921,0.00002492,-0.00003266,-0.00014
 818,0.00020621,0.00000854,-0.00000225,-0.00001917,-0.00003121,0.000075
 88,-0.00005933,0.00000506,-0.00000214,0.00001258,-0.00005763,0.0000037
 8,0.00000528,0.00000169,-0.00001903,0.00000104,0.00003083,0.00002088,-
 0.00005618,-0.00005755,0.00002435,-0.00000167,0.00000779,-0.00000475,0
 .00000878,0.00002175,-0.00005873,0.00003701,-0.25527745,-0.04224687,0.
 09242364,-0.01794226,-0.00405842,0.00860290,0.00282752,0.00100162,-0.0
 0100488,0.27743200,-0.00124563,0.00167613,0.00057319,0.00016915,0.0004
 4054,-0.00028379,0.00010739,-0.00010240,0.00000303,0.00081417,-0.00035
 850,-0.00017116,-0.00033968,0.00076917,-0.00044311,-0.00000313,-0.0000
 0236,0.00004943,-0.00000011,-0.00002281,0.00000898,-0.00010805,-0.0002
 3734,0.00023070,0.00001241,0.00000535,-0.00000760,-0.00006798,0.000149
 28,-0.00005516,0.00000192,-0.00000639,0.00001351,-0.00007426,-0.000010
 29,0.00001128,0.00002038,-0.00000178,-0.00000220,-0.00010622,-0.000031
 16,-0.00000122,0.00000027,0.00004137,0.00000231,-0.00000994,-0.0000035
 6,0.00002396,0.00001004,-0.00004087,-0.00004060,-0.04123765,-0.0554595
 9,0.01907366,0.01898555,0.00444017,-0.01004861,0.00343223,-0.00027426,
 -0.00091140,0.04793500,0.06054449,0.00013505,0.00034973,-0.00010013,-0
 .00024984,0.00003638,-0.00006734,0.00015792,0.00001111,-0.00004920,-0.
 00009678,0.00025777,0.00026180,-0.00009491,0.00022912,-0.00009936,-0.0
 0000599,-0.00000910,0.00001334,0.00001835,0.00000356,0.00001459,-0.000
 04958,-0.00004514,0.00003925,0.00000214,0.00000265,-0.00000008,-0.0000
 1488,0.00001791,-0.00001549,-0.00000061,-0.00000092,0.00000201,-0.0000
 0896,-0.00000406,0.00000291,0.00000112,0.00000234,0.00000106,0.0000120
 6,-0.00000419,-0.00001520,0.00000391,0.00000430,0.00000986,-0.00001738
 ,-0.00000165,0.00001540,0.00000935,0.00000044,-0.00001730,0.09212459,0
 .01958287,-0.08795289,-0.01105851,-0.00317309,0.00463403,0.02959588,0.
 00582010,-0.01205149,-0.10169051,-0.01958715,0.09141585,-0.11583647,0.
 03966588,-0.01913874,0.00534757,-0.00634624,0.00350690,-0.00291641,0.0
 0166394,-0.00159661,-0.01982176,0.02027640,-0.01110848,0.00250737,-0.0
 0300790,-0.00125456,-0.00014346,-0.00000388,0.00014468,-0.00099137,-0.
 00015449,0.00023004,-0.00002735,0.00013927,-0.00018670,0.00000767,-0.0
 0000543,0.00000664,-0.00001446,-0.00007470,0.00001459,0.00000426,0.000
 00210,-0.00001763,0.00006684,0.00002027,-0.00000097,0.00002747,0.00003
 530,0.00001138,0.00000047,-0.00005327,0.00001733,0.00007688,-0.0000180
 6,0.00002568,-0.00002559,0.00001520,0.00001033,-0.00002906,0.00017403,
 -0.00004915,-0.08085680,-0.02262479,-0.00542374,0.00603904,0.01958531,
 0.00604920,-0.00165167,-0.00173251,-0.00093556,-0.00874483,-0.02737702
 ,-0.00824510,0.46638724,0.04657752,-0.11579055,0.02083665,0.02101391,-
 0.01911624,0.01066588,-0.00073778,-0.00025277,0.00007321,-0.00466649,0
 .00286872,-0.00163305,-0.00305201,0.01393947,-0.00132432,-0.00004038,-
 0.00016304,0.00015881,0.00258981,0.00034866,-0.00063962,-0.00208859,-0
 .00128314,0.00113326,0.00003395,-0.00004087,-0.00007766,-0.00039476,0.
 00056951,-0.00032731,0.00000383,0.00001980,0.00003734,-0.00024549,-0.0
 0014741,0.00008247,-0.00005064,-0.00007196,-0.00003997,0.00002108,-0.0
 0032621,0.00001042,0.00004645,0.00002258,0.00000082,-0.00002428,0.0000
 2710,0.00002371,0.00012754,0.00005145,-0.00003960,-0.02940870,-0.15560
 799,-0.02167700,-0.00771737,-0.01971579,-0.00598281,-0.00101772,-0.004
 28927,-0.00146157,-0.00078710,-0.00680522,-0.00243222,0.00892947,0.431
 31376,-0.02172049,0.02143338,-0.09050835,0.00738106,-0.00648506,0.0021
 0765,-0.02357152,0.02320282,-0.01161211,0.00954249,-0.01020744,0.00394
 515,-0.00173687,-0.00130763,-0.00342615,0.00001972,0.00007955,0.000611
 50,-0.00090759,-0.00029689,0.00057457,-0.00023289,-0.00046702,0.001007
 80,0.00008108,-0.00005680,-0.00005877,-0.00022629,0.00034035,-0.000220
 89,0.00000958,-0.00000593,0.00003190,-0.00020722,0.00001097,0.00003966
 ,0.00005488,-0.00000656,0.00001173,-0.00008148,0.00002386,-0.00023910,
 -0.00007665,0.00009434,0.00004846,-0.00003665,0.00000116,0.00007022,0.
 00003523,-0.00010892,0.00005282,-0.00673554,-0.02309518,-0.08593965,0.
 00458616,0.01177070,0.00202289,-0.01045953,-0.03206453,-0.00868752,0.0
 0372776,0.01378203,0.00272822,0.00013201,0.00888109,0.59329025,-0.0030
 8412,-0.00002399,-0.02337844,0.00087779,-0.00028800,0.00068123,-0.0027
 1915,0.00328654,-0.00159997,0.00042038,-0.00083977,0.00013222,-0.00013
 978,-0.00002753,-0.00000087,0.00006054,-0.00000119,-0.00029267,-0.0000
 2064,0.00000190,-0.00003306,0.00003651,0.00000497,-0.00002485,-0.00003
 940,0.00001634,-0.00002830,0.00001224,0.00000245,-0.00000448,0.0000071
 1,-0.00000018,-0.00000175,-0.00000160,-0.00000077,0.00000036,0.0000001
 5,-0.00000308,0.00000059,-0.00003370,0.00000636,0.00001354,-0.00000869
 ,0.00000399,-0.00001082,0.00001998,-0.00000695,-0.00001839,0.00000200,
 -0.00000872,0.00002107,-0.00103059,-0.00151046,-0.01010904,0.00034320,
 0.00022143,0.00059797,0.00000758,-0.00197300,-0.00050065,0.00002646,0.
 00044024,-0.00023816,-0.04939800,-0.00150826,-0.01728850,0.05880122,0.
 00308646,-0.00021210,0.02336424,-0.00085348,0.00065759,-0.00004219,0.0
 0342344,-0.00266442,0.00168590,-0.00039527,0.00073262,-0.00068566,0.00
 001258,-0.00014957,0.00004477,0.00000068,-0.00001876,-0.00005954,-0.00
 003572,-0.00001154,0.00002981,0.00004085,0.00000961,-0.00005252,-0.000
 00228,0.00001596,-0.00000047,0.00001109,-0.00000686,0.00000635,-0.0000
 0097,-0.00000248,0.00000184,0.00000444,0.00000118,-0.00000119,-0.00000
 261,-0.00000259,0.00000109,0.00002195,0.00001056,0.00000820,0.00000011
 ,-0.00000109,-0.00000150,-0.00001425,-0.00000950,0.00001086,-0.0000034
 2,-0.00001522,-0.00002419,-0.00295807,-0.00531559,-0.03197238,0.000775
 91,0.00116728,0.00029609,-0.00209843,-0.00571175,-0.00160964,-0.000032
 48,0.00120982,0.00060226,-0.00144663,-0.04799383,-0.01697909,0.0015688
 1,0.05721638,-0.00162959,0.00052759,-0.01030390,0.00018445,0.00053073,
 0.00040371,-0.00130821,0.00145777,0.00097863,-0.00048435,-0.00011984,0
 .00051427,0.00026158,0.00010914,0.00069359,-0.00032537,-0.00007509,0.0
 0012507,0.00011633,0.00002826,-0.00004482,0.00001580,0.00003471,-0.000
 08555,0.00003086,0.00000138,0.00003710,0.00001243,-0.00002876,0.000018
 90,-0.00000632,0.00000018,0.00000533,0.00001875,-0.00000151,-0.0000065
 6,-0.00000261,0.00000752,-0.00000268,0.00004082,-0.00000322,-0.0000047
 3,0.00002018,-0.00001032,0.00000885,-0.00002702,-0.00000045,0.00003063
 ,-0.00001032,0.00001381,-0.00004266,-0.00072887,-0.00175241,-0.0072767
 8,0.00035428,-0.00044547,0.00044444,-0.00033501,-0.00126883,0.00130799
 ,-0.00047468,-0.00015940,0.00045391,-0.01512817,-0.01650666,-0.2926132
 8,0.01774356,0.01804759,0.31960239,-0.03318465,0.00244006,0.00614828,0
 .00168589,-0.00180536,0.00031382,0.00152180,-0.00114737,0.00110921,-0.
 00231282,0.00209477,-0.00058831,-0.02989960,-0.00872091,-0.01413457,0.
 00176898,0.00060260,-0.00217475,-0.00154717,0.00012204,0.00052735,0.00
 005060,-0.00341831,0.00159987,-0.00031319,0.00014494,-0.00037641,-0.00
 053281,0.00089024,-0.00053354,0.00006799,-0.00000882,0.00003680,-0.000
 43704,0.00001320,0.00015782,0.00012318,0.00011806,-0.00000831,-0.00000
 593,-0.00036678,0.00002862,0.00025539,0.00016819,-0.00006481,0.0000693
 7,0.00005081,-0.00008550,-0.00029811,0.00093826,-0.00002596,-0.0162447
 1,-0.01306745,0.00182308,0.00093020,0.00191140,-0.00004166,0.00063310,
 0.00131297,0.00083256,-0.00001201,-0.00057067,0.00027249,-0.17111662,-
 0.02153438,0.04654385,-0.00093547,-0.00007275,0.00089703,0.69175793,0.
 01988113,0.00525376,-0.00981848,0.00066384,0.00072528,-0.00030431,-0.0
 0056872,0.00048082,-0.00004110,0.00376934,-0.00282506,0.00163887,-0.00
 983082,0.00160180,-0.00310329,0.00062460,-0.00022303,-0.00043036,-0.00
 077156,0.00006890,0.00025495,0.00137190,-0.00210873,0.00079120,-0.0001
 0645,0.00008054,-0.00013117,-0.00001462,0.00036333,-0.00026166,0.00003
 112,-0.00002832,0.00000544,-0.00012546,0.00002458,0.00001900,0.0000578
 9,0.00012494,0.00002592,-0.00012213,-0.00034436,0.00033886,0.00030054,
 0.00029904,0.00000029,0.00003736,0.00002969,-0.00006935,0.00057679,0.0
 0038979,-0.00033447,-0.03208519,-0.01024679,0.01244423,-0.00055522,0.0
 0135410,0.00023106,0.00046582,0.00132598,0.00044380,-0.00254507,-0.005
 53074,-0.00126905,-0.02180454,-0.07402659,0.00872811,0.00145513,0.0000
 9371,-0.00066959,0.13630166,0.19242552,-0.00921991,-0.00431850,0.00628
 279,0.00055517,-0.00003363,-0.00001633,-0.00154928,0.00004899,0.000405
 94,-0.00363428,0.00219751,-0.00028462,0.00789477,0.00199088,0.01097895
 ,0.00137837,0.00050321,0.00103262,0.00324924,0.00162892,-0.00037231,0.
 00263955,0.00101096,-0.00169903,0.00006214,-0.00002136,0.00051418,0.00
 079701,-0.00073130,0.00072635,-0.00011871,-0.00001834,-0.00004027,0.00
 044542,-0.00000550,-0.00012782,-0.00011952,-0.00001176,-0.00003077,0.0
 0002463,-0.00015839,0.00074893,0.00020488,-0.00001392,-0.00016265,0.00
 001408,0.00002235,-0.00021144,0.00001789,0.00018232,-0.00022993,-0.007
 60617,0.00100883,0.00487700,0.00056152,0.00020669,-0.00008852,-0.00142
 473,-0.00083833,0.00042105,-0.00202334,-0.00306886,0.00015593,0.044638
 98,0.00841863,-0.11248737,0.03149885,0.00661191,-0.01616406,0.12639661
 ,0.05864846,0.66762049,0.00184584,-0.00058724,0.00080952,-0.00007809,0
 .00015928,-0.00002352,-0.00027437,0.00020561,-0.00085720,0.00017388,-0
 .00006905,-0.00041171,0.00097823,0.00200816,-0.00218178,-0.00021383,-0
 .00014691,0.00087590,0.00028279,0.00011970,0.00018711,-0.00027867,-0.0
 0013145,0.00001838,0.00003615,-0.00003606,0.00018359,-0.00004260,0.000
 06888,-0.00003085,-0.00003735,-0.00000306,0.00003228,-0.00002458,-0.00
 002415,0.00001629,0.00000426,0.00000442,-0.00000418,0.00001017,-0.0000
 6584,-0.00001337,0.00002994,0.00000869,0.00003757,-0.00006323,0.000059
 47,0.00005498,0.00001779,0.00002704,-0.00007379,0.00110841,0.00107240,
 0.00052433,-0.00000792,-0.00009018,-0.00006346,-0.00011369,-0.00047468
 ,-0.00080453,0.00004159,0.00008642,-0.00034962,-0.00066666,0.00088339,
 0.02740213,-0.00449747,-0.00126285,0.00223608,-0.05581982,-0.00295959,
 0.01800278,0.05736357,-0.00045333,0.00027378,-0.00031426,0.00007561,-0
 .00014464,-0.00011964,0.00012117,0.00016993,-0.00009152,-0.00014583,-0
 .00007595,0.00007861,0.00253182,-0.00713762,-0.00019474,-0.00015173,0.
 00020517,0.00023400,-0.00124789,-0.00025949,-0.00021845,0.00052217,0.0
 0083885,-0.00012167,0.00010762,-0.00010445,0.00017740,0.00015718,-0.00
 023643,0.00017807,-0.00003001,0.00000295,-0.00000621,0.00011736,0.0000
 5816,-0.00002389,0.00000303,-0.00001038,0.00000336,0.00005567,0.000170
 52,-0.00006431,-0.00008676,-0.00007045,-0.00002032,0.00010526,-0.00001
 094,-0.00003203,-0.00009275,-0.00008912,0.00017914,0.00081863,0.001011
 90,0.00063483,0.00001778,-0.00020514,0.00010434,-0.00024213,-0.0000538
 3,-0.00027787,0.00021557,0.00005860,-0.00022923,-0.00052962,0.00190012
 ,0.00574641,-0.00124573,0.00102507,0.00047273,-0.00312738,-0.04040526,
 -0.00993418,0.00683264,0.02746614,-0.00054875,0.00025928,0.00035659,0.
 00003624,-0.00002757,-0.00005392,0.00060045,-0.00034501,0.00051368,0.0
 0017868,-0.00012754,0.00030299,0.00179466,0.00086214,0.00074284,-0.000
 94577,-0.00012991,0.00093137,0.00008973,0.00005729,0.00023631,-0.00011
 448,-0.00008405,0.00032247,0.00021487,-0.00007211,0.00008656,-0.000069
 33,0.00010358,-0.00000730,-0.00002388,-0.00000308,0.00001957,-0.000040
 31,-0.00001738,0.00000007,0.00001791,0.00001426,-0.00000561,0.00000300
 ,-0.00007766,-0.00007560,0.00005303,0.00003573,0.00005607,-0.00010480,
 0.00000895,0.00012367,0.00000483,0.00002766,-0.00014249,-0.00040901,-0
 .00050657,0.00033187,0.00001660,0.00005617,-0.00007003,0.00039998,0.00
 068123,0.00048561,0.00007608,0.00021785,0.00030121,-0.00138530,-0.0010
 5487,-0.01196596,0.00220179,0.00045391,-0.00005762,0.01393080,-0.01114
 015,-0.31027334,-0.01605952,0.01261193,0.33651628,-0.00037917,-0.00276
 082,0.00126355,-0.00003100,0.00059873,0.00015194,-0.00033950,0.0001520
 5,-0.00029858,-0.00024386,0.00079948,-0.00034032,-0.17639439,-0.028204
 96,0.05000070,-0.00004396,-0.00003330,0.00034435,-0.01348386,-0.004688
 17,0.00310147,-0.03161887,-0.00025132,0.00504349,0.00155503,-0.0010980
 0,0.00137410,-0.00204532,0.00279542,-0.00085891,-0.00014925,0.00008328
 ,0.00013268,-0.00056049,-0.00046386,0.00051601,0.00024257,-0.00013647,
 -0.00016033,0.00083922,-0.00007643,0.00023566,-0.00014289,-0.00105118,
 -0.00015332,-0.00009725,0.00009030,0.00016416,-0.00016146,-0.00035955,
 0.00043430,-0.00150783,0.00266185,0.00109480,0.00021555,-0.00083768,0.
 00024220,-0.00025107,-0.00031152,-0.00027637,0.00039452,-0.00094291,-0
 .00027162,-0.02923478,-0.00888959,-0.01389011,0.00147857,0.00028706,-0
 .00231115,-0.38947376,-0.09174058,-0.18581656,0.00311673,-0.00088344,0
 .00254560,0.69395081,0.00086075,-0.00091576,0.00026189,-0.00038673,0.0
 0066137,0.00005029,-0.00013248,0.00002293,-0.00005180,0.00049305,0.000
 43169,-0.00012016,-0.02614780,-0.07925701,0.01152526,0.00159263,-0.000
 12765,-0.00086732,-0.02922380,-0.00486694,0.01299068,0.01403470,0.0078
 3916,-0.01073743,-0.00052885,0.00047569,-0.00010013,0.00228282,-0.0029
 9099,0.00164357,-0.00009599,-0.00012517,-0.00003453,0.00132469,0.00073
 345,-0.00018202,0.00030769,0.00044430,0.00022524,0.00176649,-0.0003653
 8,0.00016835,0.00026064,0.00000464,-0.00005988,-0.00012305,0.00001718,
 -0.00017955,0.00073432,-0.00031385,-0.00016264,-0.00066548,0.00000960,
 0.00010366,0.00016064,0.00036076,0.00000990,-0.00001110,-0.00005605,-0
 .00002830,-0.00034302,-0.00011041,0.00001289,-0.00748747,0.00143323,-0
 .00285025,0.00054973,-0.00028817,-0.00052290,-0.09244950,-0.07499295,-
 0.05505028,-0.00219550,0.00582949,-0.00063157,0.13858809,0.18699868,0.
 00251289,0.00058874,-0.00116263,-0.00027079,0.00013994,0.00008887,0.00
 019996,-0.00003988,0.00041119,0.00101749,-0.00043921,0.00038802,0.0456
 9018,0.01093940,-0.11255150,0.03149206,0.00768492,-0.01484315,-0.00892
 954,-0.00184795,0.00436076,-0.00861648,-0.00662750,0.00664766,-0.00141
 221,-0.00000504,0.00017252,-0.00256680,0.00267125,-0.00166405,-0.00004
 545,0.00002317,0.00049428,-0.00142235,0.00004252,0.00076132,0.00033713
 ,0.00016529,-0.00001721,-0.00010149,0.00015707,-0.00053309,-0.00033629
 ,0.00028792,0.00016989,-0.00005297,0.00006168,0.00013393,0.00006724,-0
 .00033000,0.00038391,0.00250493,0.00052542,-0.00113282,-0.00017628,-0.
 00031147,0.00011792,0.00013716,0.00016371,0.00039539,0.00075668,0.0008
 5024,0.00030186,0.00764778,0.00192651,0.01070805,0.00154588,0.00044997
 ,0.00085976,-0.18457328,-0.05507255,-0.23327755,-0.02698231,-0.0075767
 9,-0.01791144,0.12261663,0.05598375,0.66797611,-0.00038655,-0.00007946
 ,0.00007590,-0.00001731,0.00002583,0.00000183,0.00004515,-0.00002620,0
 .00015564,-0.00007898,0.00006063,-0.00003774,-0.00062567,0.00164182,0.
 02741367,-0.00462064,-0.00133090,0.00208870,0.00081067,-0.00041595,-0.
 00060589,0.00183517,-0.00064382,0.00133660,-0.00027616,0.00023183,-0.0
 0096276,-0.00016026,-0.00005858,-0.00021928,0.00015396,0.00002312,-0.0
 0024637,-0.00007377,0.00003105,-0.00010555,0.00000745,-0.00001012,0.00
 003636,-0.00006880,0.00007795,-0.00011039,0.00001285,0.00009067,-0.000
 01280,0.00004939,-0.00013095,-0.00013010,0.00003550,0.00015154,0.00006
 418,0.00013477,-0.00011198,0.00005204,0.00002983,0.00000122,-0.0000104
 5,0.00004402,0.00009773,0.00019759,-0.00000116,0.00006808,0.00005959,0
 .00101050,0.00193660,-0.00234464,-0.00018512,-0.00005415,0.00083952,0.
 00326927,-0.00230718,-0.02686938,-0.00289106,-0.00344491,-0.00246310,-
 0.05563431,-0.00316548,0.01896024,0.05758130,0.00083461,0.00049411,0.0
 0002478,0.00007709,-0.00002404,-0.00004798,0.00010591,-0.00006641,0.00
 014820,0.00018286,-0.00021998,0.00021024,-0.00045130,0.00240440,0.0069
 3289,-0.00160970,0.00128773,0.00056783,0.00082667,0.00031795,-0.000342
 37,-0.00043145,0.00032555,-0.00019468,0.00005376,0.00013976,-0.0000699
 0,-0.00001908,-0.00000712,0.00000556,0.00003778,-0.00001289,-0.0000027
 2,-0.00000979,-0.00000431,-0.00002682,-0.00004711,-0.00006077,-0.00000
 315,0.00007706,0.00002272,0.00001001,-0.00005055,-0.00003136,-0.000009
 41,-0.00005460,-0.00001935,0.00003506,-0.00002473,-0.00016056,-0.00009
 110,-0.00108319,0.00003201,0.00006891,-0.00003466,-0.00004804,0.000056
 98,-0.00002238,-0.00005421,-0.00005176,-0.00010240,-0.00033725,-0.0001
 7764,0.00215939,-0.00686351,-0.00016345,-0.00012025,0.00026370,0.00033
 304,-0.00081952,0.00609001,-0.00827533,-0.00348954,0.00979301,-0.00117
 252,-0.00332647,-0.04085183,-0.01041110,0.00734162,0.02759070,-0.00015
 573,-0.00007120,0.00030579,-0.00005137,0.00004609,-0.00006162,0.000198
 34,-0.00007797,0.00006954,-0.00009220,0.00006379,-0.00000960,-0.000988
 47,-0.00077841,-0.01083129,0.00194792,0.00074413,0.00013334,0.00034028
 ,0.00042441,0.00031979,-0.00054808,0.00037395,-0.00006868,0.00061524,-
 0.00035588,0.00061899,0.00016156,-0.00020713,0.00039491,-0.00022611,-0
 .00000743,0.00005611,0.00014559,-0.00000640,0.00000954,-0.00003187,0.0
 0000534,-0.00003146,0.00023760,-0.00001204,0.00007699,0.00001613,-0.00
 008552,0.00001943,-0.00008183,0.00009129,0.00008816,-0.00005467,-0.000
 10568,-0.00012704,-0.00005797,0.00001159,0.00032278,-0.00001905,-0.000
 06231,-0.00005880,0.00014569,0.00017852,0.00006738,-0.00004513,-0.0000
 5991,0.00001724,0.00203517,0.00094787,0.00050827,-0.00090711,-0.000186
 43,0.00111810,0.00198893,-0.00092466,-0.01829824,-0.00252509,-0.001195
 71,-0.00076384,0.01511564,-0.01139672,-0.31127802,-0.01716341,0.012646
 43,0.33740220\\0.00000020,0.00000209,0.00000197,0.00000127,0.00000201,
 0.00000070,0.,0.00000140,0.00000157,0.00000075,0.00000244,0.00000252,0
 .00000055,-0.00000088,-0.00000159,-0.00000026,-0.00000155,-0.00000147,
 0.00000133,-0.00000093,-0.00000236,0.00000133,0.00000067,-0.00000091,0
 .00000091,-0.00000076,-0.00000156,0.00000107,-0.00000282,-0.00000340,-
 0.00000035,-0.00000317,-0.00000296,-0.00000032,-0.00000251,-0.00000313
 ,0.,-0.00000210,-0.00000357,-0.00000057,-0.00000132,-0.00000057,-0.000
 00110,-0.00000207,-0.00000078,-0.00000160,-0.00000117,-0.00000078,-0.0
 0000123,-0.00000120,0.00000013,-0.00000060,0.00000238,0.00000305,-0.00
 000056,0.00000138,0.00000274,-0.00000222,0.00000066,0.00000315,-0.0000
 0109,0.00000144,0.00000355,0.00000158,0.00000266,0.00000128,0.00000099
 ,0.00000225,0.00000175,-0.00000302,-0.00000049,-0.00000075,-0.00000090
 ,-0.00000052,0.00000040,0.00000252,0.00000115,0.00000117,0.00000132,0.
 00000095,-0.00000014\\\@
 Job cpu time:  0 days  2 hours 32 minutes 57.1 seconds.
 File lengths (MBytes):  RWF=  30874 Int=      0 D2E=      0 Chk=     21 Scr=      1
 Normal termination of Gaussian 09 at Sun Feb  9 06:42:32 2014.
