 Entering Gaussian System, Link 0=g09
 Initial command:
 /usr/caen/gaussian-09revc/g09/l1.exe /scratch/avioli_flux/hetanjin/scratch/Gau-51906.inp -scrdir=/scratch/avioli_flux/hetanjin/scratch/
 Entering Link 1 = /usr/caen/gaussian-09revc/g09/l1.exe PID=     51907.
  
 Copyright (c) 1988,1990,1992,1993,1995,1998,2003,2009,2011,
            Gaussian, Inc.  All Rights Reserved.
  
 This is part of the Gaussian(R) 09 program.  It is based on
 the Gaussian(R) 03 system (copyright 2003, Gaussian, Inc.),
 the Gaussian(R) 98 system (copyright 1998, Gaussian, Inc.),
 the Gaussian(R) 94 system (copyright 1995, Gaussian, Inc.),
 the Gaussian 92(TM) system (copyright 1992, Gaussian, Inc.),
 the Gaussian 90(TM) system (copyright 1990, Gaussian, Inc.),
 the Gaussian 88(TM) system (copyright 1988, Gaussian, Inc.),
 the Gaussian 86(TM) system (copyright 1986, Carnegie Mellon
 University), and the Gaussian 82(TM) system (copyright 1983,
 Carnegie Mellon University). Gaussian is a federally registered
 trademark of Gaussian, Inc.
  
 This software contains proprietary and confidential information,
 including trade secrets, belonging to Gaussian, Inc.
  
 This software is provided under written license and may be
 used, copied, transmitted, or stored only in accord with that
 written license.
  
 The following legend is applicable only to US Government
 contracts under FAR:
  
                    RESTRICTED RIGHTS LEGEND
  
 Use, reproduction and disclosure by the US Government is
 subject to restrictions as set forth in subparagraphs (a)
 and (c) of the Commercial Computer Software - Restricted
 Rights clause in FAR 52.227-19.
  
 Gaussian, Inc.
 340 Quinnipiac St., Bldg. 40, Wallingford CT 06492
  
  
 ---------------------------------------------------------------
 Warning -- This program may not be used in any manner that
 competes with the business of Gaussian, Inc. or will provide
 assistance to any competitor of Gaussian, Inc.  The licensee
 of this program is prohibited from giving any competitor of
 Gaussian, Inc. access to this program.  By using this program,
 the user acknowledges that Gaussian, Inc. is engaged in the
 business of creating and licensing software in the field of
 computational chemistry and represents and warrants to the
 licensee that it is not a competitor of Gaussian, Inc. and that
 it will not use this program in any manner prohibited above.
 ---------------------------------------------------------------
  

 Cite this work as:
 Gaussian 09, Revision C.01,
 M. J. Frisch, G. W. Trucks, H. B. Schlegel, G. E. Scuseria, 
 M. A. Robb, J. R. Cheeseman, G. Scalmani, V. Barone, B. Mennucci, 
 G. A. Petersson, H. Nakatsuji, M. Caricato, X. Li, H. P. Hratchian, 
 A. F. Izmaylov, J. Bloino, G. Zheng, J. L. Sonnenberg, M. Hada, 
 M. Ehara, K. Toyota, R. Fukuda, J. Hasegawa, M. Ishida, T. Nakajima, 
 Y. Honda, O. Kitao, H. Nakai, T. Vreven, J. A. Montgomery, Jr., 
 J. E. Peralta, F. Ogliaro, M. Bearpark, J. J. Heyd, E. Brothers, 
 K. N. Kudin, V. N. Staroverov, T. Keith, R. Kobayashi, J. Normand, 
 K. Raghavachari, A. Rendell, J. C. Burant, S. S. Iyengar, J. Tomasi, 
 M. Cossi, N. Rega, J. M. Millam, M. Klene, J. E. Knox, J. B. Cross, 
 V. Bakken, C. Adamo, J. Jaramillo, R. Gomperts, R. E. Stratmann, 
 O. Yazyev, A. J. Austin, R. Cammi, C. Pomelli, J. W. Ochterski, 
 R. L. Martin, K. Morokuma, V. G. Zakrzewski, G. A. Voth, 
 P. Salvador, J. J. Dannenberg, S. Dapprich, A. D. Daniels, 
 O. Farkas, J. B. Foresman, J. V. Ortiz, J. Cioslowski, 
 and D. J. Fox, Gaussian, Inc., Wallingford CT, 2010.
 
 ******************************************
 Gaussian 09:  EM64L-G09RevC.01 23-Sep-2011
                 9-Feb-2014 
 ******************************************
 %mem=30GB
 %nprocshared=8
 Will use up to    8 processors via shared memory.
 %chk=C9H18OOH_3_26_e.chk
 --------------------------------------------------
 #p UB3LYP/6-311++G(d,p) guess=mix stable=(opt,xqc)
 --------------------------------------------------
 1/38=1/1;
 2/12=2,17=6,18=5,40=1/2;
 3/5=4,6=6,7=1111,11=2,16=1,25=1,30=1,74=-5,116=2/1,2,3;
 4/13=-1/1;
 5/5=2,38=5/2;
 6/7=2,8=2,9=2,10=2,28=1/1;
 8/6=1,10=90,11=11/1;
 9/8=-3,42=1,46=1/14;
 5/5=2,8=3,13=1,17=40,38=5/2,8(-2);
 6/7=2,8=2,9=2,10=2,28=1/1;
 99/5=1,9=1/99;
 Leave Link    1 at Sun Feb  9 06:43:57 2014, MaxMem= 4026531840 cpu:       1.8
 (Enter /usr/caen/gaussian-09revc/g09/l101.exe)
 --------------------------------------------
 C9H18OOH_3_26_e using cbs-qb3 to cal. energy
 --------------------------------------------
 Charge =  0 Multiplicity = 2
 Symbolic Z-Matrix:
 C                    -3.54039  -0.12524  -0.08616 
 H                    -3.66475   0.82228  -0.61614 
 H                    -3.65622   0.05443   0.98702 
 H                    -4.35576  -0.78175  -0.40289 
 C                    -2.18635  -0.77486  -0.40484 
 H                    -2.12732  -0.90012  -1.49412 
 C                     0.3258   -0.29943  -0.68619 
 H                     0.19854  -0.07061  -1.75969 
 H                     0.44141  -1.38815  -0.63794 
 C                     1.54222   0.37631  -0.14741 
 H                     1.43262   1.36877   0.27736 
 C                     2.90806  -0.22909  -0.27231 
 H                     2.96402  -0.75348  -1.23926 
 C                     4.00797   0.84299  -0.25085 
 H                     3.99108   1.39379   0.69556 
 H                     4.99998   0.39429  -0.35778 
 H                     3.87295   1.56553  -1.06011 
 C                    -2.10692  -2.16524   0.24729 
 H                    -2.17151  -2.08604   1.33783 
 H                    -2.93668  -2.79352  -0.08779 
 H                    -1.18058  -2.69118   0.00496 
 C                     3.16456  -1.29281   0.82333 
 H                     4.13541  -1.77695   0.67461 
 H                     3.16207  -0.83073   1.8151 
 H                     2.39673  -2.07125   0.81367 
 C                    -0.98137   0.09619   0.01793 
 H                    -0.84839   0.05159   1.10338 
 O                    -1.15797   1.48902  -0.32357 
 O                    -1.70222   2.19454   0.82474 
 H                    -2.57364   2.45165   0.49217 
 
 NAtoms=     30 NQM=        0 NQMF=       0 NMMI=     30 NMMIF=      0
                NMic=       0 NMicF=      0.
                    Isotopes and Nuclear Properties:
 (Nuclear quadrupole moments (NQMom) in fm**2, nuclear magnetic moments (NMagM)
  in nuclear magnetons)

  Atom         1           2           3           4           5           6           7           8           9          10
 IAtWgt=          12           1           1           1          12           1          12           1           1          12
 AtmWgt=  12.0000000   1.0078250   1.0078250   1.0078250  12.0000000   1.0078250  12.0000000   1.0078250   1.0078250  12.0000000
 NucSpn=           0           1           1           1           0           1           0           1           1           0
 AtZEff=   0.0000000   0.0000000   0.0000000   0.0000000   0.0000000   0.0000000   0.0000000   0.0000000   0.0000000   0.0000000
 NQMom=    0.0000000   0.0000000   0.0000000   0.0000000   0.0000000   0.0000000   0.0000000   0.0000000   0.0000000   0.0000000
 NMagM=    0.0000000   2.7928460   2.7928460   2.7928460   0.0000000   2.7928460   0.0000000   2.7928460   2.7928460   0.0000000

  Atom        11          12          13          14          15          16          17          18          19          20
 IAtWgt=           1          12           1          12           1           1           1          12           1           1
 AtmWgt=   1.0078250  12.0000000   1.0078250  12.0000000   1.0078250   1.0078250   1.0078250  12.0000000   1.0078250   1.0078250
 NucSpn=           1           0           1           0           1           1           1           0           1           1
 AtZEff=   0.0000000   0.0000000   0.0000000   0.0000000   0.0000000   0.0000000   0.0000000   0.0000000   0.0000000   0.0000000
 NQMom=    0.0000000   0.0000000   0.0000000   0.0000000   0.0000000   0.0000000   0.0000000   0.0000000   0.0000000   0.0000000
 NMagM=    2.7928460   0.0000000   2.7928460   0.0000000   2.7928460   2.7928460   2.7928460   0.0000000   2.7928460   2.7928460

  Atom        21          22          23          24          25          26          27          28          29          30
 IAtWgt=           1          12           1           1           1          12           1          16          16           1
 AtmWgt=   1.0078250  12.0000000   1.0078250   1.0078250   1.0078250  12.0000000   1.0078250  15.9949146  15.9949146   1.0078250
 NucSpn=           1           0           1           1           1           0           1           0           0           1
 AtZEff=   0.0000000   0.0000000   0.0000000   0.0000000   0.0000000   0.0000000   0.0000000   0.0000000   0.0000000   0.0000000
 NQMom=    0.0000000   0.0000000   0.0000000   0.0000000   0.0000000   0.0000000   0.0000000   0.0000000   0.0000000   0.0000000
 NMagM=    2.7928460   0.0000000   2.7928460   2.7928460   2.7928460   0.0000000   2.7928460   0.0000000   0.0000000   2.7928460
 Leave Link  101 at Sun Feb  9 06:43:58 2014, MaxMem= 4026531840 cpu:       0.4
 (Enter /usr/caen/gaussian-09revc/g09/l202.exe)
                          Input orientation:                          
 ---------------------------------------------------------------------
 Center     Atomic      Atomic             Coordinates (Angstroms)
 Number     Number       Type             X           Y           Z
 ---------------------------------------------------------------------
      1          6           0       -3.540389   -0.125237   -0.086158
      2          1           0       -3.664753    0.822281   -0.616136
      3          1           0       -3.656218    0.054427    0.987016
      4          1           0       -4.355759   -0.781746   -0.402894
      5          6           0       -2.186350   -0.774859   -0.404837
      6          1           0       -2.127320   -0.900122   -1.494115
      7          6           0        0.325803   -0.299425   -0.686185
      8          1           0        0.198538   -0.070606   -1.759686
      9          1           0        0.441413   -1.388145   -0.637942
     10          6           0        1.542224    0.376305   -0.147408
     11          1           0        1.432623    1.368766    0.277355
     12          6           0        2.908064   -0.229089   -0.272313
     13          1           0        2.964022   -0.753476   -1.239256
     14          6           0        4.007968    0.842994   -0.250854
     15          1           0        3.991078    1.393792    0.695562
     16          1           0        4.999976    0.394288   -0.357779
     17          1           0        3.872946    1.565534   -1.060113
     18          6           0       -2.106916   -2.165242    0.247288
     19          1           0       -2.171514   -2.086043    1.337828
     20          1           0       -2.936680   -2.793517   -0.087786
     21          1           0       -1.180576   -2.691182    0.004957
     22          6           0        3.164558   -1.292813    0.823332
     23          1           0        4.135414   -1.776954    0.674613
     24          1           0        3.162070   -0.830728    1.815098
     25          1           0        2.396726   -2.071246    0.813672
     26          6           0       -0.981372    0.096192    0.017931
     27          1           0       -0.848387    0.051590    1.103384
     28          8           0       -1.157968    1.489023   -0.323574
     29          8           0       -1.702220    2.194538    0.824735
     30          1           0       -2.573637    2.451651    0.492167
 ---------------------------------------------------------------------
                    Distance matrix (angstroms):
                    1          2          3          4          5
     1  C    0.000000
     2  H    1.092764   0.000000
     3  H    1.094257   1.777574   0.000000
     4  H    1.093688   1.759507   1.766463   0.000000
     5  C    1.535248   2.186591   2.187574   2.169421   0.000000
     6  H    2.139989   2.470065   3.066709   2.484093   1.098045
     7  C    3.916352   4.145801   4.333740   4.714861   2.572179
     8  H    4.096737   4.126739   4.734886   4.805021   2.831833
     9  H    4.213567   4.663374   4.638112   4.841056   2.708431
    10  C    5.107666   5.247019   5.330509   6.016025   3.910718
    11  H    5.205289   5.203865   5.303528   6.212311   4.261159
    12  C    6.451975   6.665247   6.689999   7.285987   5.125279
    13  H    6.635637   6.841926   7.031115   7.367462   5.217571
    14  C    7.611983   7.681439   7.803455   8.521433   6.403962
    15  H    7.722793   7.788384   7.769169   8.695358   6.638866
    16  H    8.560463   8.679139   8.766623   9.429468   7.280962
    17  H    7.665822   7.587256   7.947483   8.582147   6.528545
    18  C    2.515482   3.478168   2.806148   2.719208   1.537772
    19  H    2.783220   3.808686   2.628503   3.082569   2.180895
    20  H    2.735724   3.726022   3.127894   2.481995   2.176809
    21  H    3.487276   4.347564   3.825129   3.727476   2.202682
    22  C    6.866347   7.292817   6.954483   7.636752   5.514426
    23  H    7.888276   8.322539   8.010061   8.616930   6.491079
    24  H    7.002532   7.432957   6.925191   7.838344   5.791099
    25  H    6.312367   6.867196   6.417684   6.981325   4.916296
    26  C    2.570687   2.851277   2.845289   3.512030   1.545780
    27  H    2.948415   3.388603   2.810243   3.907042   2.178966
    28  O    2.887582   2.610385   3.164959   3.922824   2.487837
    29  O    3.096764   2.794769   2.902502   4.172123   3.250161
    30  H    2.812369   2.252491   2.676479   3.798941   3.371198
                    6          7          8          9         10
     6  H    0.000000
     7  C    2.651679   0.000000
     8  H    2.483594   1.104970   0.000000
     9  H    2.751288   1.095903   1.747343   0.000000
    10  C    4.111987   1.492170   2.145848   2.136748   0.000000
    11  H    4.578117   2.221783   2.782857   3.069336   1.085087
    12  C    5.224766   2.616163   3.094984   2.749811   1.499207
    13  H    5.099826   2.733542   2.895697   2.669820   2.118973
    14  C    6.498147   3.879816   4.197975   4.224705   2.511651
    15  H    6.891409   4.267370   4.749322   4.702928   2.782582
    16  H    7.332469   4.736769   5.023473   4.902658   3.464192
    17  H    6.501616   4.024937   4.082601   4.547292   2.771202
    18  C    2.152540   3.204804   3.705477   2.807400   4.464467
    19  H    3.070548   3.677666   4.390185   3.349346   4.696907
    20  H    2.493546   4.149985   4.476504   3.699899   5.487432
    21  H    2.520206   2.909872   3.447222   2.177630   4.104428
    22  C    5.790401   3.365114   4.118622   3.091913   2.521955
    23  H    6.685361   4.306739   4.933197   3.939494   3.469420
    24  H    6.239660   3.818784   4.705251   3.705414   2.816427
    25  H    5.211948   3.110891   3.931509   2.529241   2.764843
    26  C    2.142924   1.536554   2.140077   2.158180   2.544472
    27  H    3.047692   2.168984   3.050927   2.601660   2.717525
    28  O    2.831576   2.351937   2.516936   3.306802   2.925784
    29  O    3.890334   3.551846   3.927212   4.423822   3.844145
    30  H    3.921594   4.166976   4.372365   5.011158   4.653647
                   11         12         13         14         15
    11  H    0.000000
    12  C    2.243257   0.000000
    13  H    3.024765   1.101404   0.000000
    14  C    2.681015   1.536103   2.148366   0.000000
    15  H    2.592531   2.177945   3.067430   1.095156   0.000000
    16  H    3.752201   2.184491   2.497894   1.094006   1.768166
    17  H    2.789752   2.184559   2.497207   1.093250   1.768006
    18  C    5.001845   5.400805   5.469672   6.832967   7.074829
    19  H    5.103931   5.642955   5.898375   7.020624   7.106286
    20  H    6.045555   6.385247   6.348695   7.840851   8.132713
    21  H    4.835927   4.780770   4.741357   6.283059   6.626459
    22  C    3.222063   1.548462   2.141347   2.535131   2.813771
    23  H    4.166347   2.190649   2.466285   2.781521   3.174099
    24  H    3.192713   2.187184   3.061743   2.790170   2.624710
    25  H    3.612591   2.198721   2.504567   3.496014   3.816071
    26  C    2.741189   3.913791   4.227125   5.052076   5.183455
    27  H    2.760486   4.010268   4.546488   5.103378   5.038675
    28  O    2.662093   4.414426   4.781012   5.206682   5.249798
    29  O    3.287669   5.322800   5.892763   5.965720   5.750784
    30  H    4.155587   6.149784   6.628449   6.815965   6.652512
                   16         17         18         19         20
    16  H    0.000000
    17  H    1.770674   0.000000
    18  C    7.577943   7.168454   0.000000
    19  H    7.775435   7.457857   1.095319   0.000000
    20  H    8.557190   8.143571   1.093395   1.765892   0.000000
    21  H    6.917436   6.692689   1.092448   1.767681   1.761526
    22  C    2.758640   3.495615   5.374142   5.419187   6.348807
    23  H    2.554915   3.774969   6.268976   6.349231   7.185344
    24  H    3.098380   3.809758   5.656958   5.500066   6.683432
    25  H    3.772011   4.349306   4.540090   4.598236   5.457062
    26  C    6.000545   5.185128   2.536442   2.814377   3.490677
    27  H    6.037863   5.409596   2.689078   2.524897   3.724847
    28  O    6.254589   5.085119   3.818382   4.070458   4.643227
    29  O    7.039792   5.918680   4.416436   4.336689   5.218935
    30  H    7.893970   6.689784   4.646880   4.633305   5.289606
                   21         22         23         24         25
    21  H    0.000000
    22  C    4.637388   0.000000
    23  H    5.435439   1.095021   0.000000
    24  H    5.059296   1.094134   1.772977   0.000000
    25  H    3.719601   1.093443   1.768893   1.768471   0.000000
    26  C    2.794513   4.445980   5.488297   4.610542   4.091765
    27  H    2.973162   4.241412   5.325945   4.167588   3.888589
    28  O    4.193156   5.266710   6.299435   5.349569   5.157974
    29  O    4.981406   5.987249   7.062100   5.813293   5.915944
    30  H    5.350395   6.859852   7.932575   6.739621   6.727888
                   26         27         28         29         30
    26  C    0.000000
    27  H    1.094478   0.000000
    28  O    1.444919   2.048966   0.000000
    29  O    2.360850   2.323554   1.453470   0.000000
    30  H    2.882429   3.018338   1.896366   0.967510   0.000000
 Stoichiometry    C9H19O2(2)
 Framework group  C1[X(C9H19O2)]
 Deg. of freedom    84
 Full point group                 C1      NOp   1
 Largest Abelian subgroup         C1      NOp   1
 Largest concise Abelian subgroup C1      NOp   1
                         Standard orientation:                         
 ---------------------------------------------------------------------
 Center     Atomic      Atomic             Coordinates (Angstroms)
 Number     Number       Type             X           Y           Z
 ---------------------------------------------------------------------
      1          6           0        3.540389    0.125237   -0.086158
      2          1           0        3.664753   -0.822281   -0.616136
      3          1           0        3.656218   -0.054427    0.987016
      4          1           0        4.355759    0.781746   -0.402894
      5          6           0        2.186350    0.774859   -0.404837
      6          1           0        2.127320    0.900122   -1.494115
      7          6           0       -0.325803    0.299425   -0.686185
      8          1           0       -0.198538    0.070606   -1.759686
      9          1           0       -0.441413    1.388145   -0.637942
     10          6           0       -1.542224   -0.376305   -0.147408
     11          1           0       -1.432623   -1.368766    0.277355
     12          6           0       -2.908064    0.229089   -0.272313
     13          1           0       -2.964022    0.753476   -1.239256
     14          6           0       -4.007968   -0.842994   -0.250854
     15          1           0       -3.991078   -1.393792    0.695562
     16          1           0       -4.999976   -0.394288   -0.357779
     17          1           0       -3.872946   -1.565534   -1.060113
     18          6           0        2.106916    2.165242    0.247288
     19          1           0        2.171514    2.086043    1.337828
     20          1           0        2.936680    2.793517   -0.087786
     21          1           0        1.180576    2.691182    0.004957
     22          6           0       -3.164558    1.292813    0.823332
     23          1           0       -4.135414    1.776954    0.674613
     24          1           0       -3.162070    0.830728    1.815098
     25          1           0       -2.396726    2.071246    0.813672
     26          6           0        0.981372   -0.096192    0.017931
     27          1           0        0.848387   -0.051590    1.103384
     28          8           0        1.157968   -1.489023   -0.323574
     29          8           0        1.702220   -2.194538    0.824735
     30          1           0        2.573637   -2.451651    0.492167
 ---------------------------------------------------------------------
 Rotational constants (GHZ):      1.6729151      0.5015589      0.4173543
 Leave Link  202 at Sun Feb  9 06:43:58 2014, MaxMem= 4026531840 cpu:       0.2
 (Enter /usr/caen/gaussian-09revc/g09/l301.exe)
 Standard basis: 6-311++G(d,p) (5D, 7F)
 Ernie: Thresh=  0.10000D-02 Tol=  0.10000D-05 Strict=F.
 There are   375 symmetry adapted basis functions of A   symmetry.
 Integral buffers will be    131072 words long.
 Raffenetti 2 integral format.
 Two-electron integral symmetry is turned on.
   375 basis functions,   567 primitive gaussians,   386 cartesian basis functions
    45 alpha electrons       44 beta electrons
       nuclear repulsion energy       658.6506703962 Hartrees.
 IExCor=  402 DFT=T Ex+Corr=B3LYP ExCW=0 ScaHFX=  0.200000
 ScaDFX=  0.800000  0.720000  1.000000  0.810000 ScalE2=  1.000000  1.000000
 IRadAn=      0 IRanWt=     -1 IRanGd=            0 ICorTp=0
 NAtoms=   30 NActive=   30 NUniq=   30 SFac= 1.00D+00 NAtFMM=   60 NAOKFM=F Big=F
 Leave Link  301 at Sun Feb  9 06:43:58 2014, MaxMem= 4026531840 cpu:       0.8
 (Enter /usr/caen/gaussian-09revc/g09/l302.exe)
 NPDir=0 NMtPBC=     1 NCelOv=     1 NCel=       1 NClECP=     1 NCelD=      1
         NCelK=      1 NCelE2=     1 NClLst=     1 CellRange=     0.0.
 One-electron integrals computed using PRISM.
 NBasis=   375 RedAO= T  NBF=   375
 NBsUse=   375 1.00D-06 NBFU=   375
 Precomputing XC quadrature grid using
 IXCGrd= 2 IRadAn=           0 IRanWt=          -1 IRanGd=           0 AccXCQ= 0.00D+00.
 NRdTot=    1962 NPtTot=      250122 NUsed=      264259 NTot=      264291
 NSgBfM=   386   386   386   386   386 NAtAll=    30    30.
 Leave Link  302 at Sun Feb  9 06:43:59 2014, MaxMem= 4026531840 cpu:       4.5
 (Enter /usr/caen/gaussian-09revc/g09/l303.exe)
 DipDrv:  MaxL=1.
 Leave Link  303 at Sun Feb  9 06:44:00 2014, MaxMem= 4026531840 cpu:       1.4
 (Enter /usr/caen/gaussian-09revc/g09/l401.exe)
 Harris functional with IExCor=  402 diagonalized for initial guess.
 ExpMin= 3.60D-02 ExpMax= 8.59D+03 ExpMxC= 1.30D+03 IAcc=3 IRadAn=         5 AccDes= 0.00D+00
 HarFok:  IExCor=  402 AccDes= 0.00D+00 IRadAn=         5 IDoV= 1
 ScaDFX=  1.000000  1.000000  1.000000  1.000000
 FoFCou: FMM=F IPFlag=           0 FMFlag=      100000 FMFlg1=           0
         NFxFlg=           0 DoJE=T BraDBF=F KetDBF=T FulRan=T
         Omega=  0.000000  0.000000  1.000000  0.000000  0.000000 ICntrl=     500 IOpCl=  0
         NMat0=    1 NMatS0=    1 NMatT0=    0 NMatD0=    1 NMtDS0=    0 NMtDT0=    0
         I1Cent=           4 NGrid=           0.
 Petite list used in FoFCou.
 Harris En= -504.910466071867    
 Mixing orbitals, IMix= 1 IMixAn=  0 NRI=1 NE=   45 Coef=  7.07106781D-01  7.07106781D-01
 Mixing orbitals, IMix= 1 IMixAn=  0 NRI=1 NE=   44 Coef= -7.07106781D-01  7.07106781D-01
 Initial guess orbital symmetries:
 Alpha Orbitals:
       Occupied  (A) (A) (A) (A) (A) (A) (A) (A) (A) (A) (A) (A)
                 (A) (A) (A) (A) (A) (A) (A) (A) (A) (A) (A) (A)
                 (A) (A) (A) (A) (A) (A) (A) (A) (A) (A) (A) (A)
                 (A) (A) (A) (A) (A) (A) (A) (A) (A)
       Virtual   (A) (A) (A) (A) (A) (A) (A) (A) (A) (A) (A) (A)
                 (A) (A) (A) (A) (A) (A) (A) (A) (A) (A) (A) (A)
                 (A) (A) (A) (A) (A) (A) (A) (A) (A) (A) (A) (A)
                 (A) (A) (A) (A) (A) (A) (A) (A) (A) (A) (A) (A)
                 (A) (A) (A) (A) (A) (A) (A) (A) (A) (A) (A) (A)
                 (A) (A) (A) (A) (A) (A) (A) (A) (A) (A) (A) (A)
                 (A) (A) (A) (A) (A) (A) (A) (A) (A) (A) (A) (A)
                 (A) (A) (A) (A) (A) (A) (A) (A) (A) (A) (A) (A)
                 (A) (A) (A) (A) (A) (A) (A) (A) (A) (A) (A) (A)
                 (A) (A) (A) (A) (A) (A) (A) (A) (A) (A) (A) (A)
                 (A) (A) (A) (A) (A) (A) (A) (A) (A) (A) (A) (A)
                 (A) (A) (A) (A) (A) (A) (A) (A) (A) (A) (A) (A)
                 (A) (A) (A) (A) (A) (A) (A) (A) (A) (A) (A) (A)
                 (A) (A) (A) (A) (A) (A) (A) (A) (A) (A) (A) (A)
                 (A) (A) (A) (A) (A) (A) (A) (A) (A) (A) (A) (A)
                 (A) (A) (A) (A) (A) (A) (A) (A) (A) (A) (A) (A)
                 (A) (A) (A) (A) (A) (A) (A) (A) (A) (A) (A) (A)
                 (A) (A) (A) (A) (A) (A) (A) (A) (A) (A) (A) (A)
                 (A) (A) (A) (A) (A) (A) (A) (A) (A) (A) (A) (A)
                 (A) (A) (A) (A) (A) (A) (A) (A) (A) (A) (A) (A)
                 (A) (A) (A) (A) (A) (A) (A) (A) (A) (A) (A) (A)
                 (A) (A) (A) (A) (A) (A) (A) (A) (A) (A) (A) (A)
                 (A) (A) (A) (A) (A) (A) (A) (A) (A) (A) (A) (A)
                 (A) (A) (A) (A) (A) (A) (A) (A) (A) (A) (A) (A)
                 (A) (A) (A) (A) (A) (A) (A) (A) (A) (A) (A) (A)
                 (A) (A) (A) (A) (A) (A) (A) (A) (A) (A) (A) (A)
                 (A) (A) (A) (A) (A) (A) (A) (A) (A) (A) (A) (A)
                 (A) (A) (A) (A) (A) (A)
 Beta  Orbitals:
       Occupied  (A) (A) (A) (A) (A) (A) (A) (A) (A) (A) (A) (A)
                 (A) (A) (A) (A) (A) (A) (A) (A) (A) (A) (A) (A)
                 (A) (A) (A) (A) (A) (A) (A) (A) (A) (A) (A) (A)
                 (A) (A) (A) (A) (A) (A) (A) (A)
       Virtual   (A) (A) (A) (A) (A) (A) (A) (A) (A) (A) (A) (A)
                 (A) (A) (A) (A) (A) (A) (A) (A) (A) (A) (A) (A)
                 (A) (A) (A) (A) (A) (A) (A) (A) (A) (A) (A) (A)
                 (A) (A) (A) (A) (A) (A) (A) (A) (A) (A) (A) (A)
                 (A) (A) (A) (A) (A) (A) (A) (A) (A) (A) (A) (A)
                 (A) (A) (A) (A) (A) (A) (A) (A) (A) (A) (A) (A)
                 (A) (A) (A) (A) (A) (A) (A) (A) (A) (A) (A) (A)
                 (A) (A) (A) (A) (A) (A) (A) (A) (A) (A) (A) (A)
                 (A) (A) (A) (A) (A) (A) (A) (A) (A) (A) (A) (A)
                 (A) (A) (A) (A) (A) (A) (A) (A) (A) (A) (A) (A)
                 (A) (A) (A) (A) (A) (A) (A) (A) (A) (A) (A) (A)
                 (A) (A) (A) (A) (A) (A) (A) (A) (A) (A) (A) (A)
                 (A) (A) (A) (A) (A) (A) (A) (A) (A) (A) (A) (A)
                 (A) (A) (A) (A) (A) (A) (A) (A) (A) (A) (A) (A)
                 (A) (A) (A) (A) (A) (A) (A) (A) (A) (A) (A) (A)
                 (A) (A) (A) (A) (A) (A) (A) (A) (A) (A) (A) (A)
                 (A) (A) (A) (A) (A) (A) (A) (A) (A) (A) (A) (A)
                 (A) (A) (A) (A) (A) (A) (A) (A) (A) (A) (A) (A)
                 (A) (A) (A) (A) (A) (A) (A) (A) (A) (A) (A) (A)
                 (A) (A) (A) (A) (A) (A) (A) (A) (A) (A) (A) (A)
                 (A) (A) (A) (A) (A) (A) (A) (A) (A) (A) (A) (A)
                 (A) (A) (A) (A) (A) (A) (A) (A) (A) (A) (A) (A)
                 (A) (A) (A) (A) (A) (A) (A) (A) (A) (A) (A) (A)
                 (A) (A) (A) (A) (A) (A) (A) (A) (A) (A) (A) (A)
                 (A) (A) (A) (A) (A) (A) (A) (A) (A) (A) (A) (A)
                 (A) (A) (A) (A) (A) (A) (A) (A) (A) (A) (A) (A)
                 (A) (A) (A) (A) (A) (A) (A) (A) (A) (A) (A) (A)
                 (A) (A) (A) (A) (A) (A) (A)
 The electronic state of the initial guess is 2-A.
 Initial guess <Sx>= 0.0000 <Sy>= 0.0000 <Sz>= 0.5000 <S**2>= 1.0000 S= 0.6180
 Leave Link  401 at Sun Feb  9 06:44:04 2014, MaxMem= 4026531840 cpu:      28.1
 (Enter /usr/caen/gaussian-09revc/g09/l502.exe)
 UHF open shell SCF:
 Requested convergence on RMS density matrix=1.00D-08 within 128 cycles.
 Requested convergence on MAX density matrix=1.00D-06.
 Requested convergence on             energy=1.00D-06.
 No special actions if energy rises.
 Using DIIS extrapolation, IDIIS=  1040.
 Integral symmetry usage will be decided dynamically.
       263976 words used for storage of precomputed grid.
 IEnd=      735110 IEndB=      735110 NGot=  4026531840 MDV=  4025962753
 LenX=  4025962753 LenY=  4025813316
 Fock matrices will be formed incrementally for  20 cycles.

 Cycle   1  Pass 1  IDiag  1:
 FoFCou: FMM=F IPFlag=           0 FMFlag=      100000 FMFlg1=           0
         NFxFlg=           0 DoJE=F BraDBF=F KetDBF=F FulRan=T
         Omega=  0.000000  0.000000  1.000000  0.000000  0.000000 ICntrl=       0 IOpCl=  1
         NMat0=    1 NMatS0=    1 NMatT0=    0 NMatD0=    1 NMtDS0=    0 NMtDT0=    0
         I1Cent=           0 NGrid=           0.
 Symmetry not used in FoFCou.
 E= -504.338587278323    
 DIIS: error= 3.05D-02 at cycle   1 NSaved=   1.
 NSaved= 1 IEnMin= 1 EnMin= -504.338587278323     IErMin= 1 ErrMin= 3.05D-02
 ErrMax= 3.05D-02 EMaxC= 1.00D-01 BMatC= 1.59D+00 BMatP= 1.59D+00
 IDIUse=3 WtCom= 6.95D-01 WtEn= 3.05D-01
 Coeff-Com:  0.100D+01
 Coeff-En:   0.100D+01
 Coeff:      0.100D+01
 Gap=     0.029 Goal=   None    Shift=    0.000
 Gap=     0.019 Goal=   None    Shift=    0.000
 GapD=    0.019 DampG=0.250 DampE=0.500 DampFc=0.2500 IDamp=-1.
 Damping current iteration by 2.50D-01
 RMSDP=3.98D-02 MaxDP=5.51D+00              OVMax= 5.39D-01

 Cycle   2  Pass 1  IDiag  1:
 RMSU=  9.64D-03    CP:  1.00D+00
 E= -504.483410566806     Delta-E=       -0.144823288483 Rises=F Damp=T
 DIIS: error= 1.25D-02 at cycle   2 NSaved=   2.
 NSaved= 2 IEnMin= 2 EnMin= -504.483410566806     IErMin= 2 ErrMin= 1.25D-02
 ErrMax= 1.25D-02 EMaxC= 1.00D-01 BMatC= 3.84D-01 BMatP= 1.59D+00
 IDIUse=3 WtCom= 8.75D-01 WtEn= 1.25D-01
 Coeff-Com: -0.631D+00 0.163D+01
 Coeff-En:   0.000D+00 0.100D+01
 Coeff:     -0.552D+00 0.155D+01
 Gap=     0.010 Goal=   None    Shift=    0.000
 Gap=     0.235 Goal=   None    Shift=    0.000
 RMSDP=1.77D-02 MaxDP=2.99D+00 DE=-1.45D-01 OVMax= 8.84D-01

 Cycle   3  Pass 1  IDiag  1:
 RMSU=  6.70D-03    CP:  5.76D-01 -2.71D-02
 E= -504.418930315723     Delta-E=        0.064480251084 Rises=F Damp=F
 DIIS: error= 4.07D-02 at cycle   3 NSaved=   3.
 NSaved= 3 IEnMin= 2 EnMin= -504.483410566806     IErMin= 2 ErrMin= 1.25D-02
 ErrMax= 4.07D-02 EMaxC= 1.00D-01 BMatC= 1.26D+00 BMatP= 3.84D-01
 IDIUse=2 WtCom= 0.00D+00 WtEn= 1.00D+00
 Coeff-En:   0.000D+00 0.584D+00 0.416D+00
 Coeff:      0.000D+00 0.584D+00 0.416D+00
 Gap=     0.047 Goal=   None    Shift=    0.000
 Gap=    -0.105 Goal=   None    Shift=    0.000
 RMSDP=1.10D-02 MaxDP=1.30D+00 DE= 6.45D-02 OVMax= 9.83D-01

 Cycle   4  Pass 1  IDiag  1:
 RMSU=  5.89D-03    CP:  7.48D-01  1.36D-01  1.77D-01
 E= -504.080152390933     Delta-E=        0.338777924790 Rises=F Damp=F
 DIIS: error= 3.10D-02 at cycle   4 NSaved=   4.
 NSaved= 4 IEnMin= 2 EnMin= -504.483410566806     IErMin= 2 ErrMin= 1.25D-02
 ErrMax= 3.10D-02 EMaxC= 1.00D-01 BMatC= 2.29D+00 BMatP= 3.84D-01
 IDIUse=2 WtCom= 0.00D+00 WtEn= 1.00D+00
 Coeff-En:   0.000D+00 0.000D+00 0.602D+00 0.398D+00
 Coeff:      0.000D+00 0.000D+00 0.602D+00 0.398D+00
 Gap=    -0.041 Goal=   None    Shift=    0.000
 Gap=     0.345 Goal=   None    Shift=    0.000
 RMSDP=9.06D-03 MaxDP=8.63D-01 DE= 3.39D-01 OVMax= 9.93D-01

 Cycle   5  Pass 1  IDiag  1:
 RMSU=  2.36D-03    CP:  6.40D-01  3.23D-03  8.63D-01  2.50D-01
 E= -504.827163744201     Delta-E=       -0.747011353268 Rises=F Damp=F
 DIIS: error= 7.21D-03 at cycle   5 NSaved=   5.
 NSaved= 5 IEnMin= 5 EnMin= -504.827163744201     IErMin= 5 ErrMin= 7.21D-03
 ErrMax= 7.21D-03 EMaxC= 1.00D-01 BMatC= 8.97D-02 BMatP= 3.84D-01
 IDIUse=3 WtCom= 9.28D-01 WtEn= 7.21D-02
 Coeff-Com: -0.229D+00 0.425D+00 0.210D+00 0.757D-01 0.518D+00
 Coeff-En:   0.000D+00 0.000D+00 0.000D+00 0.000D+00 0.100D+01
 Coeff:     -0.213D+00 0.395D+00 0.195D+00 0.703D-01 0.553D+00
 Gap=     0.131 Goal=   None    Shift=    0.000
 Gap=     0.164 Goal=   None    Shift=    0.000
 RMSDP=2.44D-03 MaxDP=3.13D-01 DE=-7.47D-01 OVMax= 5.11D-02

 Cycle   6  Pass 1  IDiag  1:
 RMSU=  1.28D-03    CP:  5.91D-01 -1.96D-02  8.71D-01  2.81D-01  7.14D-01
 E= -504.843562603286     Delta-E=       -0.016398859085 Rises=F Damp=F
 DIIS: error= 6.42D-03 at cycle   6 NSaved=   6.
 NSaved= 6 IEnMin= 6 EnMin= -504.843562603286     IErMin= 6 ErrMin= 6.42D-03
 ErrMax= 6.42D-03 EMaxC= 1.00D-01 BMatC= 3.82D-02 BMatP= 8.97D-02
 IDIUse=3 WtCom= 9.36D-01 WtEn= 6.42D-02
 Coeff-Com: -0.151D+00 0.222D+00 0.629D-01 0.661D-02 0.378D+00 0.481D+00
 Coeff-En:   0.000D+00 0.000D+00 0.000D+00 0.000D+00 0.166D+00 0.834D+00
 Coeff:     -0.141D+00 0.208D+00 0.588D-01 0.618D-02 0.364D+00 0.504D+00
 Gap=     0.163 Goal=   None    Shift=    0.000
 Gap=     0.198 Goal=   None    Shift=    0.000
 RMSDP=9.37D-04 MaxDP=1.36D-01 DE=-1.64D-02 OVMax= 3.46D-02

 Cycle   7  Pass 1  IDiag  1:
 RMSU=  5.27D-04    CP:  5.98D-01 -1.04D-02  8.62D-01  2.82D-01  7.62D-01
                    CP:  7.49D-01
 E= -504.850923986434     Delta-E=       -0.007361383148 Rises=F Damp=F
 DIIS: error= 1.93D-03 at cycle   7 NSaved=   7.
 NSaved= 7 IEnMin= 7 EnMin= -504.850923986434     IErMin= 7 ErrMin= 1.93D-03
 ErrMax= 1.93D-03 EMaxC= 1.00D-01 BMatC= 3.19D-03 BMatP= 3.82D-02
 IDIUse=3 WtCom= 9.81D-01 WtEn= 1.93D-02
 Coeff-Com: -0.701D-02 0.166D-01 0.292D-02 0.394D-02 0.115D-01 0.188D+00
 Coeff-Com:  0.784D+00
 Coeff-En:   0.000D+00 0.000D+00 0.000D+00 0.000D+00 0.000D+00 0.000D+00
 Coeff-En:   0.100D+01
 Coeff:     -0.688D-02 0.163D-01 0.286D-02 0.387D-02 0.113D-01 0.185D+00
 Coeff:      0.788D+00
 Gap=     0.166 Goal=   None    Shift=    0.000
 Gap=     0.213 Goal=   None    Shift=    0.000
 RMSDP=4.26D-04 MaxDP=6.16D-02 DE=-7.36D-03 OVMax= 1.36D-02

 Cycle   8  Pass 1  IDiag  1:
 RMSU=  2.54D-04    CP:  5.95D-01 -8.87D-03  8.60D-01  2.88D-01  7.38D-01
                    CP:  8.86D-01  1.06D+00
 E= -504.851535524404     Delta-E=       -0.000611537970 Rises=F Damp=F
 DIIS: error= 9.16D-04 at cycle   8 NSaved=   8.
 NSaved= 8 IEnMin= 8 EnMin= -504.851535524404     IErMin= 8 ErrMin= 9.16D-04
 ErrMax= 9.16D-04 EMaxC= 1.00D-01 BMatC= 1.45D-03 BMatP= 3.19D-03
 IDIUse=3 WtCom= 9.91D-01 WtEn= 9.16D-03
 Coeff-Com:  0.294D-01-0.319D-01-0.761D-02 0.817D-02-0.968D-01-0.295D-01
 Coeff-Com:  0.502D+00 0.627D+00
 Coeff-En:   0.000D+00 0.000D+00 0.000D+00 0.000D+00 0.000D+00 0.000D+00
 Coeff-En:   0.993D-01 0.901D+00
 Coeff:      0.291D-01-0.316D-01-0.754D-02 0.810D-02-0.959D-01-0.293D-01
 Coeff:      0.498D+00 0.629D+00
 Gap=     0.173 Goal=   None    Shift=    0.000
 Gap=     0.215 Goal=   None    Shift=    0.000
 RMSDP=3.04D-04 MaxDP=4.17D-02 DE=-6.12D-04 OVMax= 1.01D-02

 Cycle   9  Pass 1  IDiag  1:
 RMSU=  1.28D-04    CP:  5.93D-01 -1.27D-02  8.55D-01  2.79D-01  7.17D-01
                    CP:  8.75D-01  1.18D+00  4.30D-01
 E= -504.851861480833     Delta-E=       -0.000325956429 Rises=F Damp=F
 DIIS: error= 1.76D-04 at cycle   9 NSaved=   9.
 NSaved= 9 IEnMin= 9 EnMin= -504.851861480833     IErMin= 9 ErrMin= 1.76D-04
 ErrMax= 1.76D-04 EMaxC= 1.00D-01 BMatC= 8.96D-05 BMatP= 1.45D-03
 IDIUse=3 WtCom= 9.98D-01 WtEn= 1.76D-03
 Coeff-Com:  0.834D-02-0.102D-01-0.324D-02 0.434D-02-0.230D-01-0.225D-01
 Coeff-Com:  0.220D-01 0.175D+00 0.849D+00
 Coeff-En:   0.000D+00 0.000D+00 0.000D+00 0.000D+00 0.000D+00 0.000D+00
 Coeff-En:   0.000D+00 0.000D+00 0.100D+01
 Coeff:      0.833D-02-0.101D-01-0.323D-02 0.433D-02-0.229D-01-0.225D-01
 Coeff:      0.220D-01 0.175D+00 0.849D+00
 Gap=     0.172 Goal=   None    Shift=    0.000
 Gap=     0.217 Goal=   None    Shift=    0.000
 RMSDP=7.70D-05 MaxDP=1.18D-02 DE=-3.26D-04 OVMax= 1.45D-03

 Cycle  10  Pass 1  IDiag  1:
 RMSU=  3.21D-05    CP:  5.94D-01 -1.18D-02  8.55D-01  2.83D-01  7.20D-01
                    CP:  8.83D-01  1.18D+00  5.43D-01  9.01D-01
 E= -504.851885087213     Delta-E=       -0.000023606380 Rises=F Damp=F
 DIIS: error= 9.40D-05 at cycle  10 NSaved=  10.
 NSaved=10 IEnMin=10 EnMin= -504.851885087213     IErMin=10 ErrMin= 9.40D-05
 ErrMax= 9.40D-05 EMaxC= 1.00D-01 BMatC= 2.14D-05 BMatP= 8.96D-05
 IDIUse=1 WtCom= 1.00D+00 WtEn= 0.00D+00
 Coeff-Com:  0.847D-03-0.148D-02-0.128D-02 0.209D-02 0.708D-03-0.409D-02
 Coeff-Com: -0.389D-01 0.119D-01 0.325D+00 0.706D+00
 Coeff:      0.847D-03-0.148D-02-0.128D-02 0.209D-02 0.708D-03-0.409D-02
 Coeff:     -0.389D-01 0.119D-01 0.325D+00 0.706D+00
 Gap=     0.172 Goal=   None    Shift=    0.000
 Gap=     0.217 Goal=   None    Shift=    0.000
 RMSDP=2.05D-05 MaxDP=1.73D-03 DE=-2.36D-05 OVMax= 4.53D-04

 Cycle  11  Pass 1  IDiag  1:
 RMSU=  1.03D-05    CP:  5.94D-01 -1.20D-02  8.55D-01  2.82D-01  7.20D-01
                    CP:  8.85D-01  1.17D+00  5.39D-01  9.53D-01  8.77D-01
 E= -504.851889472774     Delta-E=       -0.000004385561 Rises=F Damp=F
 DIIS: error= 4.35D-05 at cycle  11 NSaved=  11.
 NSaved=11 IEnMin=11 EnMin= -504.851889472774     IErMin=11 ErrMin= 4.35D-05
 ErrMax= 4.35D-05 EMaxC= 1.00D-01 BMatC= 5.28D-06 BMatP= 2.14D-05
 IDIUse=1 WtCom= 1.00D+00 WtEn= 0.00D+00
 Coeff-Com: -0.112D-02 0.100D-02-0.173D-03 0.618D-03 0.586D-02 0.340D-02
 Coeff-Com: -0.182D-01-0.309D-01-0.732D-01 0.295D+00 0.818D+00
 Coeff:     -0.112D-02 0.100D-02-0.173D-03 0.618D-03 0.586D-02 0.340D-02
 Coeff:     -0.182D-01-0.309D-01-0.732D-01 0.295D+00 0.818D+00
 Gap=     0.172 Goal=   None    Shift=    0.000
 Gap=     0.217 Goal=   None    Shift=    0.000
 RMSDP=1.41D-05 MaxDP=1.32D-03 DE=-4.39D-06 OVMax= 2.18D-04

 Cycle  12  Pass 1  IDiag  1:
 RMSU=  7.31D-06    CP:  5.94D-01 -1.19D-02  8.54D-01  2.83D-01  7.21D-01
                    CP:  8.85D-01  1.17D+00  5.41D-01  9.66D-01  1.00D+00
                    CP:  8.71D-01
 E= -504.851890873843     Delta-E=       -0.000001401069 Rises=F Damp=F
 DIIS: error= 1.61D-05 at cycle  12 NSaved=  12.
 NSaved=12 IEnMin=12 EnMin= -504.851890873843     IErMin=12 ErrMin= 1.61D-05
 ErrMax= 1.61D-05 EMaxC= 1.00D-01 BMatC= 5.81D-07 BMatP= 5.28D-06
 IDIUse=1 WtCom= 1.00D+00 WtEn= 0.00D+00
 Coeff-Com:  0.104D-03-0.222D-03-0.134D-03 0.129D-03 0.697D-03 0.596D-03
 Coeff-Com:  0.410D-02-0.552D-02-0.702D-01-0.411D-01 0.236D+00 0.876D+00
 Coeff:      0.104D-03-0.222D-03-0.134D-03 0.129D-03 0.697D-03 0.596D-03
 Coeff:      0.410D-02-0.552D-02-0.702D-01-0.411D-01 0.236D+00 0.876D+00
 Gap=     0.172 Goal=   None    Shift=    0.000
 Gap=     0.218 Goal=   None    Shift=    0.000
 RMSDP=4.61D-06 MaxDP=3.42D-04 DE=-1.40D-06 OVMax= 8.28D-05

 Cycle  13  Pass 1  IDiag  1:
 RMSU=  2.01D-06    CP:  5.94D-01 -1.18D-02  8.54D-01  2.83D-01  7.21D-01
                    CP:  8.84D-01  1.17D+00  5.44D-01  9.57D-01  1.03D+00
                    CP:  9.87D-01  9.97D-01
 E= -504.851891020687     Delta-E=       -0.000000146844 Rises=F Damp=F
 DIIS: error= 3.18D-06 at cycle  13 NSaved=  13.
 NSaved=13 IEnMin=13 EnMin= -504.851891020687     IErMin=13 ErrMin= 3.18D-06
 ErrMax= 3.18D-06 EMaxC= 1.00D-01 BMatC= 4.55D-08 BMatP= 5.81D-07
 IDIUse=1 WtCom= 1.00D+00 WtEn= 0.00D+00
 Coeff-Com:  0.182D-03-0.239D-03-0.835D-04 0.300D-04-0.215D-03-0.292D-04
 Coeff-Com:  0.350D-02 0.461D-03-0.214D-01-0.417D-01 0.227D-01 0.341D+00
 Coeff-Com:  0.696D+00
 Coeff:      0.182D-03-0.239D-03-0.835D-04 0.300D-04-0.215D-03-0.292D-04
 Coeff:      0.350D-02 0.461D-03-0.214D-01-0.417D-01 0.227D-01 0.341D+00
 Coeff:      0.696D+00
 Gap=     0.172 Goal=   None    Shift=    0.000
 Gap=     0.218 Goal=   None    Shift=    0.000
 RMSDP=1.35D-06 MaxDP=1.75D-04 DE=-1.47D-07 OVMax= 2.73D-05

 Cycle  14  Pass 1  IDiag  1:
 RMSU=  5.33D-07    CP:  5.94D-01 -1.18D-02  8.54D-01  2.83D-01  7.21D-01
                    CP:  8.84D-01  1.17D+00  5.44D-01  9.58D-01  1.03D+00
                    CP:  9.77D-01  1.06D+00  9.72D-01
 E= -504.851891032538     Delta-E=       -0.000000011850 Rises=F Damp=F
 DIIS: error= 1.34D-06 at cycle  14 NSaved=  14.
 NSaved=14 IEnMin=14 EnMin= -504.851891032538     IErMin=14 ErrMin= 1.34D-06
 ErrMax= 1.34D-06 EMaxC= 1.00D-01 BMatC= 5.77D-09 BMatP= 4.55D-08
 IDIUse=1 WtCom= 1.00D+00 WtEn= 0.00D+00
 Coeff-Com:  0.636D-04-0.750D-04-0.276D-04 0.571D-05-0.148D-03-0.613D-05
 Coeff-Com:  0.104D-02 0.801D-03 0.928D-05-0.118D-01-0.212D-01 0.262D-01
 Coeff-Com:  0.272D+00 0.733D+00
 Coeff:      0.636D-04-0.750D-04-0.276D-04 0.571D-05-0.148D-03-0.613D-05
 Coeff:      0.104D-02 0.801D-03 0.928D-05-0.118D-01-0.212D-01 0.262D-01
 Coeff:      0.272D+00 0.733D+00
 Gap=     0.172 Goal=   None    Shift=    0.000
 Gap=     0.218 Goal=   None    Shift=    0.000
 RMSDP=4.03D-07 MaxDP=3.64D-05 DE=-1.19D-08 OVMax= 1.33D-05

 Cycle  15  Pass 1  IDiag  1:
 RMSU=  1.86D-07    CP:  5.94D-01 -1.18D-02  8.54D-01  2.83D-01  7.21D-01
                    CP:  8.84D-01  1.17D+00  5.44D-01  9.58D-01  1.03D+00
                    CP:  9.79D-01  1.07D+00  9.93D-01  1.24D+00
 E= -504.851891034404     Delta-E=       -0.000000001866 Rises=F Damp=F
 DIIS: error= 7.40D-07 at cycle  15 NSaved=  15.
 NSaved=15 IEnMin=15 EnMin= -504.851891034404     IErMin=15 ErrMin= 7.40D-07
 ErrMax= 7.40D-07 EMaxC= 1.00D-01 BMatC= 6.46D-10 BMatP= 5.77D-09
 IDIUse=1 WtCom= 1.00D+00 WtEn= 0.00D+00
 Coeff-Com: -0.147D-04 0.242D-04 0.210D-05-0.389D-05-0.148D-04 0.215D-04
 Coeff-Com: -0.209D-03 0.226D-03 0.376D-02 0.299D-02-0.120D-01-0.503D-01
 Coeff-Com: -0.364D-01 0.216D+00 0.876D+00
 Coeff:     -0.147D-04 0.242D-04 0.210D-05-0.389D-05-0.148D-04 0.215D-04
 Coeff:     -0.209D-03 0.226D-03 0.376D-02 0.299D-02-0.120D-01-0.503D-01
 Coeff:     -0.364D-01 0.216D+00 0.876D+00
 Gap=     0.172 Goal=   None    Shift=    0.000
 Gap=     0.218 Goal=   None    Shift=    0.000
 RMSDP=2.27D-07 MaxDP=2.21D-05 DE=-1.87D-09 OVMax= 8.76D-06

 Cycle  16  Pass 1  IDiag  1:
 RMSU=  1.06D-07    CP:  5.94D-01 -1.18D-02  8.54D-01  2.83D-01  7.21D-01
                    CP:  8.84D-01  1.17D+00  5.43D-01  9.58D-01  1.03D+00
                    CP:  9.78D-01  1.08D+00  1.03D+00  1.23D+00  8.17D-01
 E= -504.851891034770     Delta-E=       -0.000000000367 Rises=F Damp=F
 DIIS: error= 4.13D-07 at cycle  16 NSaved=  16.
 NSaved=16 IEnMin=16 EnMin= -504.851891034770     IErMin=16 ErrMin= 4.13D-07
 ErrMax= 4.13D-07 EMaxC= 1.00D-01 BMatC= 9.72D-11 BMatP= 6.46D-10
 IDIUse=1 WtCom= 1.00D+00 WtEn= 0.00D+00
 Coeff-Com: -0.745D-05 0.693D-05 0.444D-05-0.256D-05 0.104D-04-0.912D-05
 Coeff-Com: -0.193D-03-0.332D-04 0.657D-03 0.217D-02 0.118D-02-0.125D-01
 Coeff-Com: -0.516D-01-0.940D-01 0.145D+00 0.101D+01
 Coeff:     -0.745D-05 0.693D-05 0.444D-05-0.256D-05 0.104D-04-0.912D-05
 Coeff:     -0.193D-03-0.332D-04 0.657D-03 0.217D-02 0.118D-02-0.125D-01
 Coeff:     -0.516D-01-0.940D-01 0.145D+00 0.101D+01
 Gap=     0.172 Goal=   None    Shift=    0.000
 Gap=     0.218 Goal=   None    Shift=    0.000
 RMSDP=1.06D-07 MaxDP=9.96D-06 DE=-3.67D-10 OVMax= 4.95D-06

 Cycle  17  Pass 1  IDiag  1:
 RMSU=  3.99D-08    CP:  5.94D-01 -1.18D-02  8.54D-01  2.83D-01  7.21D-01
                    CP:  8.84D-01  1.17D+00  5.44D-01  9.58D-01  1.03D+00
                    CP:  9.78D-01  1.08D+00  1.03D+00  1.29D+00  1.01D+00
                    CP:  1.09D+00
 E= -504.851891034865     Delta-E=       -0.000000000095 Rises=F Damp=F
 DIIS: error= 1.71D-07 at cycle  17 NSaved=  17.
 NSaved=17 IEnMin=17 EnMin= -504.851891034865     IErMin=17 ErrMin= 1.71D-07
 ErrMax= 1.71D-07 EMaxC= 1.00D-01 BMatC= 3.67D-11 BMatP= 9.72D-11
 IDIUse=1 WtCom= 1.00D+00 WtEn= 0.00D+00
 Coeff-Com: -0.116D-05 0.471D-06 0.169D-05-0.129D-05 0.625D-05-0.115D-04
 Coeff-Com: -0.405D-04-0.629D-04-0.409D-03 0.350D-03 0.285D-02 0.505D-02
 Coeff-Com: -0.110D-01-0.737D-01-0.116D+00 0.371D+00 0.822D+00
 Coeff:     -0.116D-05 0.471D-06 0.169D-05-0.129D-05 0.625D-05-0.115D-04
 Coeff:     -0.405D-04-0.629D-04-0.409D-03 0.350D-03 0.285D-02 0.505D-02
 Coeff:     -0.110D-01-0.737D-01-0.116D+00 0.371D+00 0.822D+00
 Gap=     0.172 Goal=   None    Shift=    0.000
 Gap=     0.218 Goal=   None    Shift=    0.000
 RMSDP=4.51D-08 MaxDP=4.66D-06 DE=-9.48D-11 OVMax= 1.88D-06

 Cycle  18  Pass 1  IDiag  1:
 RMSU=  1.47D-08    CP:  5.94D-01 -1.18D-02  8.54D-01  2.83D-01  7.21D-01
                    CP:  8.84D-01  1.17D+00  5.44D-01  9.58D-01  1.03D+00
                    CP:  9.78D-01  1.08D+00  1.03D+00  1.29D+00  1.01D+00
                    CP:  1.26D+00  1.08D+00
 E= -504.851891034884     Delta-E=       -0.000000000019 Rises=F Damp=F
 DIIS: error= 5.29D-08 at cycle  18 NSaved=  18.
 NSaved=18 IEnMin=18 EnMin= -504.851891034884     IErMin=18 ErrMin= 5.29D-08
 ErrMax= 5.29D-08 EMaxC= 1.00D-01 BMatC= 8.54D-12 BMatP= 3.67D-11
 IDIUse=1 WtCom= 1.00D+00 WtEn= 0.00D+00
 Coeff-Com:  0.708D-07 0.219D-06 0.415D-06-0.584D-06 0.288D-05-0.193D-05
 Coeff-Com:  0.148D-04-0.336D-04-0.315D-03-0.202D-03 0.113D-02 0.469D-02
 Coeff-Com:  0.539D-02-0.127D-01-0.798D-01-0.570D-01 0.350D+00 0.789D+00
 Coeff:      0.708D-07 0.219D-06 0.415D-06-0.584D-06 0.288D-05-0.193D-05
 Coeff:      0.148D-04-0.336D-04-0.315D-03-0.202D-03 0.113D-02 0.469D-02
 Coeff:      0.539D-02-0.127D-01-0.798D-01-0.570D-01 0.350D+00 0.789D+00
 Gap=     0.172 Goal=   None    Shift=    0.000
 Gap=     0.218 Goal=   None    Shift=    0.000
 RMSDP=1.90D-08 MaxDP=2.14D-06 DE=-1.86D-11 OVMax= 8.45D-07

 Cycle  19  Pass 1  IDiag  1:
 RMSU=  5.85D-09    CP:  5.94D-01 -1.18D-02  8.54D-01  2.83D-01  7.21D-01
                    CP:  8.84D-01  1.17D+00  5.44D-01  9.58D-01  1.03D+00
                    CP:  9.78D-01  1.07D+00  1.03D+00  1.28D+00  1.01D+00
                    CP:  1.32D+00  1.21D+00  1.09D+00
 E= -504.851891034886     Delta-E=       -0.000000000002 Rises=F Damp=F
 DIIS: error= 2.00D-08 at cycle  19 NSaved=  19.
 NSaved=19 IEnMin=19 EnMin= -504.851891034886     IErMin=19 ErrMin= 2.00D-08
 ErrMax= 2.00D-08 EMaxC= 1.00D-01 BMatC= 7.51D-13 BMatP= 8.54D-12
 IDIUse=1 WtCom= 1.00D+00 WtEn= 0.00D+00
 Coeff-Com: -0.438D-07 0.311D-06 0.151D-08-0.155D-06 0.905D-07 0.204D-05
 Coeff-Com:  0.564D-05-0.277D-05-0.142D-04-0.510D-04-0.110D-03 0.208D-03
 Coeff-Com:  0.240D-02 0.723D-02 0.100D-02-0.620D-01-0.562D-01 0.153D+00
 Coeff-Com:  0.955D+00
 Coeff:     -0.438D-07 0.311D-06 0.151D-08-0.155D-06 0.905D-07 0.204D-05
 Coeff:      0.564D-05-0.277D-05-0.142D-04-0.510D-04-0.110D-03 0.208D-03
 Coeff:      0.240D-02 0.723D-02 0.100D-02-0.620D-01-0.562D-01 0.153D+00
 Coeff:      0.955D+00
 Gap=     0.172 Goal=   None    Shift=    0.000
 Gap=     0.218 Goal=   None    Shift=    0.000
 RMSDP=7.01D-09 MaxDP=9.05D-07 DE=-2.05D-12 OVMax= 3.12D-07

 SCF Done:  E(UB3LYP) =  -504.851891035     A.U. after   19 cycles
             Convg  =    0.7007D-08             -V/T =  2.0045
 <Sx>= 0.0000 <Sy>= 0.0000 <Sz>= 0.5000 <S**2>= 0.7540 S= 0.5020
 <L.S>= 0.000000000000E+00
 KE= 5.025995146329D+02 PE=-2.493350281275D+03 EE= 8.272482052114D+02
 Annihilation of the first spin contaminant:
 S**2 before annihilation     0.7540,   after     0.7500
 Leave Link  502 at Sun Feb  9 06:48:20 2014, MaxMem= 4026531840 cpu:    2039.2
 (Enter /usr/caen/gaussian-09revc/g09/l601.exe)
 Copying SCF densities to generalized density rwf, IOpCl= 1 IROHF=0.

 **********************************************************************

            Population analysis using the SCF density.

 **********************************************************************

 Orbital symmetries:
 Alpha Orbitals:
       Occupied  (A) (A) (A) (A) (A) (A) (A) (A) (A) (A) (A) (A)
                 (A) (A) (A) (A) (A) (A) (A) (A) (A) (A) (A) (A)
                 (A) (A) (A) (A) (A) (A) (A) (A) (A) (A) (A) (A)
                 (A) (A) (A) (A) (A) (A) (A) (A) (A)
       Virtual   (A) (A) (A) (A) (A) (A) (A) (A) (A) (A) (A) (A)
                 (A) (A) (A) (A) (A) (A) (A) (A) (A) (A) (A) (A)
                 (A) (A) (A) (A) (A) (A) (A) (A) (A) (A) (A) (A)
                 (A) (A) (A) (A) (A) (A) (A) (A) (A) (A) (A) (A)
                 (A) (A) (A) (A) (A) (A) (A) (A) (A) (A) (A) (A)
                 (A) (A) (A) (A) (A) (A) (A) (A) (A) (A) (A) (A)
                 (A) (A) (A) (A) (A) (A) (A) (A) (A) (A) (A) (A)
                 (A) (A) (A) (A) (A) (A) (A) (A) (A) (A) (A) (A)
                 (A) (A) (A) (A) (A) (A) (A) (A) (A) (A) (A) (A)
                 (A) (A) (A) (A) (A) (A) (A) (A) (A) (A) (A) (A)
                 (A) (A) (A) (A) (A) (A) (A) (A) (A) (A) (A) (A)
                 (A) (A) (A) (A) (A) (A) (A) (A) (A) (A) (A) (A)
                 (A) (A) (A) (A) (A) (A) (A) (A) (A) (A) (A) (A)
                 (A) (A) (A) (A) (A) (A) (A) (A) (A) (A) (A) (A)
                 (A) (A) (A) (A) (A) (A) (A) (A) (A) (A) (A) (A)
                 (A) (A) (A) (A) (A) (A) (A) (A) (A) (A) (A) (A)
                 (A) (A) (A) (A) (A) (A) (A) (A) (A) (A) (A) (A)
                 (A) (A) (A) (A) (A) (A) (A) (A) (A) (A) (A) (A)
                 (A) (A) (A) (A) (A) (A) (A) (A) (A) (A) (A) (A)
                 (A) (A) (A) (A) (A) (A) (A) (A) (A) (A) (A) (A)
                 (A) (A) (A) (A) (A) (A) (A) (A) (A) (A) (A) (A)
                 (A) (A) (A) (A) (A) (A) (A) (A) (A) (A) (A) (A)
                 (A) (A) (A) (A) (A) (A) (A) (A) (A) (A) (A) (A)
                 (A) (A) (A) (A) (A) (A) (A) (A) (A) (A) (A) (A)
                 (A) (A) (A) (A) (A) (A) (A) (A) (A) (A) (A) (A)
                 (A) (A) (A) (A) (A) (A) (A) (A) (A) (A) (A) (A)
                 (A) (A) (A) (A) (A) (A) (A) (A) (A) (A) (A) (A)
                 (A) (A) (A) (A) (A) (A)
 Beta  Orbitals:
       Occupied  (A) (A) (A) (A) (A) (A) (A) (A) (A) (A) (A) (A)
                 (A) (A) (A) (A) (A) (A) (A) (A) (A) (A) (A) (A)
                 (A) (A) (A) (A) (A) (A) (A) (A) (A) (A) (A) (A)
                 (A) (A) (A) (A) (A) (A) (A) (A)
       Virtual   (A) (A) (A) (A) (A) (A) (A) (A) (A) (A) (A) (A)
                 (A) (A) (A) (A) (A) (A) (A) (A) (A) (A) (A) (A)
                 (A) (A) (A) (A) (A) (A) (A) (A) (A) (A) (A) (A)
                 (A) (A) (A) (A) (A) (A) (A) (A) (A) (A) (A) (A)
                 (A) (A) (A) (A) (A) (A) (A) (A) (A) (A) (A) (A)
                 (A) (A) (A) (A) (A) (A) (A) (A) (A) (A) (A) (A)
                 (A) (A) (A) (A) (A) (A) (A) (A) (A) (A) (A) (A)
                 (A) (A) (A) (A) (A) (A) (A) (A) (A) (A) (A) (A)
                 (A) (A) (A) (A) (A) (A) (A) (A) (A) (A) (A) (A)
                 (A) (A) (A) (A) (A) (A) (A) (A) (A) (A) (A) (A)
                 (A) (A) (A) (A) (A) (A) (A) (A) (A) (A) (A) (A)
                 (A) (A) (A) (A) (A) (A) (A) (A) (A) (A) (A) (A)
                 (A) (A) (A) (A) (A) (A) (A) (A) (A) (A) (A) (A)
                 (A) (A) (A) (A) (A) (A) (A) (A) (A) (A) (A) (A)
                 (A) (A) (A) (A) (A) (A) (A) (A) (A) (A) (A) (A)
                 (A) (A) (A) (A) (A) (A) (A) (A) (A) (A) (A) (A)
                 (A) (A) (A) (A) (A) (A) (A) (A) (A) (A) (A) (A)
                 (A) (A) (A) (A) (A) (A) (A) (A) (A) (A) (A) (A)
                 (A) (A) (A) (A) (A) (A) (A) (A) (A) (A) (A) (A)
                 (A) (A) (A) (A) (A) (A) (A) (A) (A) (A) (A) (A)
                 (A) (A) (A) (A) (A) (A) (A) (A) (A) (A) (A) (A)
                 (A) (A) (A) (A) (A) (A) (A) (A) (A) (A) (A) (A)
                 (A) (A) (A) (A) (A) (A) (A) (A) (A) (A) (A) (A)
                 (A) (A) (A) (A) (A) (A) (A) (A) (A) (A) (A) (A)
                 (A) (A) (A) (A) (A) (A) (A) (A) (A) (A) (A) (A)
                 (A) (A) (A) (A) (A) (A) (A) (A) (A) (A) (A) (A)
                 (A) (A) (A) (A) (A) (A) (A) (A) (A) (A) (A) (A)
                 (A) (A) (A) (A) (A) (A) (A)
 The electronic state is 2-A.
 Alpha  occ. eigenvalues --  -19.17945 -19.17894 -10.22666 -10.18341 -10.17731
 Alpha  occ. eigenvalues --  -10.17661 -10.16889 -10.16737 -10.16634 -10.15977
 Alpha  occ. eigenvalues --  -10.15584  -1.12089  -0.92317  -0.81700  -0.80533
 Alpha  occ. eigenvalues --   -0.75418  -0.69342  -0.68406  -0.66890  -0.60917
 Alpha  occ. eigenvalues --   -0.57552  -0.55413  -0.54353  -0.48876  -0.46756
 Alpha  occ. eigenvalues --   -0.45803  -0.45052  -0.44489  -0.43439  -0.41792
 Alpha  occ. eigenvalues --   -0.40527  -0.39362  -0.38891  -0.38752  -0.38152
 Alpha  occ. eigenvalues --   -0.36828  -0.36401  -0.35179  -0.34322  -0.33836
 Alpha  occ. eigenvalues --   -0.32955  -0.32704  -0.30916  -0.26669  -0.18540
 Alpha virt. eigenvalues --   -0.01357  -0.01062   0.00033   0.00612   0.01047
 Alpha virt. eigenvalues --    0.01675   0.02303   0.02425   0.03441   0.04087
 Alpha virt. eigenvalues --    0.04205   0.04459   0.05150   0.05235   0.05951
 Alpha virt. eigenvalues --    0.06582   0.07025   0.07667   0.07766   0.08436
 Alpha virt. eigenvalues --    0.08579   0.09321   0.09736   0.10206   0.10506
 Alpha virt. eigenvalues --    0.11231   0.11597   0.12148   0.12291   0.12586
 Alpha virt. eigenvalues --    0.12886   0.13026   0.13275   0.13962   0.14243
 Alpha virt. eigenvalues --    0.14523   0.14599   0.14878   0.14999   0.15157
 Alpha virt. eigenvalues --    0.15748   0.16199   0.16502   0.17146   0.17276
 Alpha virt. eigenvalues --    0.17478   0.17577   0.18332   0.18485   0.18773
 Alpha virt. eigenvalues --    0.19210   0.19590   0.19746   0.20589   0.21211
 Alpha virt. eigenvalues --    0.21509   0.21722   0.21953   0.22475   0.23366
 Alpha virt. eigenvalues --    0.23596   0.23670   0.24397   0.24752   0.25516
 Alpha virt. eigenvalues --    0.25949   0.26423   0.26874   0.27619   0.27881
 Alpha virt. eigenvalues --    0.28423   0.29467   0.30429   0.30738   0.31204
 Alpha virt. eigenvalues --    0.31798   0.32266   0.32671   0.33218   0.33587
 Alpha virt. eigenvalues --    0.34507   0.34565   0.35336   0.35534   0.37975
 Alpha virt. eigenvalues --    0.38792   0.39585   0.40138   0.41267   0.41883
 Alpha virt. eigenvalues --    0.42813   0.44314   0.44676   0.46253   0.47285
 Alpha virt. eigenvalues --    0.48566   0.50928   0.51515   0.52570   0.53198
 Alpha virt. eigenvalues --    0.54346   0.55014   0.56394   0.56680   0.56756
 Alpha virt. eigenvalues --    0.58011   0.58401   0.59156   0.59750   0.62021
 Alpha virt. eigenvalues --    0.62379   0.63323   0.64232   0.64974   0.66136
 Alpha virt. eigenvalues --    0.66544   0.67116   0.67956   0.69077   0.69156
 Alpha virt. eigenvalues --    0.69840   0.70634   0.71377   0.72226   0.72687
 Alpha virt. eigenvalues --    0.74640   0.74751   0.75414   0.76063   0.77289
 Alpha virt. eigenvalues --    0.77681   0.78472   0.78648   0.79162   0.79427
 Alpha virt. eigenvalues --    0.80354   0.81180   0.88139   0.88486   0.91904
 Alpha virt. eigenvalues --    0.93584   0.96093   0.97698   0.98648   1.01549
 Alpha virt. eigenvalues --    1.02496   1.04723   1.05494   1.08000   1.09830
 Alpha virt. eigenvalues --    1.10342   1.15200   1.16014   1.17054   1.18263
 Alpha virt. eigenvalues --    1.20448   1.22035   1.23853   1.25723   1.28414
 Alpha virt. eigenvalues --    1.30557   1.33297   1.37492   1.39213   1.40447
 Alpha virt. eigenvalues --    1.43863   1.44631   1.45287   1.46456   1.46972
 Alpha virt. eigenvalues --    1.47238   1.47771   1.49185   1.50263   1.52247
 Alpha virt. eigenvalues --    1.53461   1.54019   1.54669   1.56194   1.56279
 Alpha virt. eigenvalues --    1.58042   1.59166   1.59704   1.60368   1.62004
 Alpha virt. eigenvalues --    1.62732   1.62775   1.64042   1.64245   1.65882
 Alpha virt. eigenvalues --    1.66684   1.67517   1.68639   1.70430   1.72243
 Alpha virt. eigenvalues --    1.72663   1.73201   1.74389   1.75215   1.76765
 Alpha virt. eigenvalues --    1.78229   1.79161   1.81685   1.81937   1.82347
 Alpha virt. eigenvalues --    1.83344   1.86554   1.88415   1.89461   1.91645
 Alpha virt. eigenvalues --    1.94924   1.98702   1.99943   2.01136   2.02458
 Alpha virt. eigenvalues --    2.04355   2.06014   2.06158   2.07266   2.09815
 Alpha virt. eigenvalues --    2.10195   2.12882   2.14845   2.15382   2.16599
 Alpha virt. eigenvalues --    2.17453   2.20993   2.25095   2.25664   2.29212
 Alpha virt. eigenvalues --    2.32394   2.33293   2.34463   2.35489   2.37093
 Alpha virt. eigenvalues --    2.39751   2.41867   2.47308   2.47543   2.49231
 Alpha virt. eigenvalues --    2.49982   2.50356   2.50730   2.51581   2.52853
 Alpha virt. eigenvalues --    2.53029   2.54385   2.54736   2.56057   2.57294
 Alpha virt. eigenvalues --    2.58763   2.59993   2.60680   2.61960   2.62604
 Alpha virt. eigenvalues --    2.64293   2.65670   2.67234   2.67840   2.67930
 Alpha virt. eigenvalues --    2.70307   2.70860   2.72312   2.73486   2.74843
 Alpha virt. eigenvalues --    2.75995   2.76169   2.78794   2.81503   2.85302
 Alpha virt. eigenvalues --    2.85865   2.87372   2.90102   2.90651   2.93157
 Alpha virt. eigenvalues --    2.95133   2.96238   2.96536   2.99665   3.00334
 Alpha virt. eigenvalues --    3.05006   3.07439   3.09920   3.11679   3.16139
 Alpha virt. eigenvalues --    3.17717   3.20310   3.23213   3.28280   3.34465
 Alpha virt. eigenvalues --    3.36960   3.48515   3.55757   3.71620   3.77711
 Alpha virt. eigenvalues --    3.78422   3.78630   3.79515   3.81173   3.82409
 Alpha virt. eigenvalues --    3.83051   3.83844   3.84421   3.88688   3.92028
 Alpha virt. eigenvalues --    3.96869   4.02594   4.10689   4.22231   4.27575
 Alpha virt. eigenvalues --    4.29057   4.32117   4.40947   4.90664   5.04858
 Alpha virt. eigenvalues --    5.14272   5.38224   5.51932   5.69728  23.79815
 Alpha virt. eigenvalues --   23.83486  23.84701  23.86610  23.92363  23.97615
 Alpha virt. eigenvalues --   23.97990  23.98401  23.99268  49.86220  49.90889
  Beta  occ. eigenvalues --  -19.17945 -19.17889 -10.22629 -10.18335 -10.17815
  Beta  occ. eigenvalues --  -10.17746 -10.16736 -10.16634 -10.15852 -10.15563
  Beta  occ. eigenvalues --  -10.15509  -1.12083  -0.92290  -0.81123  -0.80136
  Beta  occ. eigenvalues --   -0.75016  -0.69304  -0.68229  -0.65957  -0.60439
  Beta  occ. eigenvalues --   -0.57427  -0.54608  -0.54057  -0.48790  -0.46500
  Beta  occ. eigenvalues --   -0.45683  -0.44826  -0.43916  -0.43310  -0.41405
  Beta  occ. eigenvalues --   -0.40487  -0.39241  -0.38794  -0.38488  -0.37827
  Beta  occ. eigenvalues --   -0.36563  -0.36102  -0.35139  -0.34002  -0.33622
  Beta  occ. eigenvalues --   -0.32658  -0.32502  -0.30847  -0.26593
  Beta virt. eigenvalues --   -0.04834  -0.01353  -0.01008   0.00063   0.00619
  Beta virt. eigenvalues --    0.01071   0.01687   0.02335   0.02446   0.03555
  Beta virt. eigenvalues --    0.04093   0.04233   0.04500   0.05155   0.05300
  Beta virt. eigenvalues --    0.05959   0.06610   0.07050   0.07699   0.07799
  Beta virt. eigenvalues --    0.08439   0.08637   0.09365   0.09749   0.10332
  Beta virt. eigenvalues --    0.10628   0.11279   0.11600   0.12153   0.12326
  Beta virt. eigenvalues --    0.12600   0.12931   0.13088   0.13310   0.13979
  Beta virt. eigenvalues --    0.14281   0.14554   0.14696   0.15001   0.15143
  Beta virt. eigenvalues --    0.15343   0.15789   0.16229   0.16639   0.17152
  Beta virt. eigenvalues --    0.17285   0.17527   0.17773   0.18378   0.18619
  Beta virt. eigenvalues --    0.18876   0.19289   0.19623   0.19814   0.20705
  Beta virt. eigenvalues --    0.21299   0.21636   0.21899   0.22180   0.22497
  Beta virt. eigenvalues --    0.23443   0.23619   0.23808   0.24607   0.24867
  Beta virt. eigenvalues --    0.25591   0.26109   0.26538   0.26943   0.27833
  Beta virt. eigenvalues --    0.28091   0.28624   0.29620   0.30595   0.30892
  Beta virt. eigenvalues --    0.31516   0.31952   0.32569   0.32991   0.33318
  Beta virt. eigenvalues --    0.33690   0.34576   0.34624   0.35445   0.35762
  Beta virt. eigenvalues --    0.38106   0.39022   0.39704   0.40295   0.41392
  Beta virt. eigenvalues --    0.41965   0.42878   0.44351   0.44701   0.46391
  Beta virt. eigenvalues --    0.47331   0.48636   0.51015   0.51623   0.52648
  Beta virt. eigenvalues --    0.53534   0.54466   0.55409   0.56635   0.56901
  Beta virt. eigenvalues --    0.56932   0.58064   0.58851   0.59414   0.59875
  Beta virt. eigenvalues --    0.62169   0.63234   0.63583   0.64652   0.65971
  Beta virt. eigenvalues --    0.66264   0.66672   0.67411   0.68044   0.69279
  Beta virt. eigenvalues --    0.69641   0.70186   0.70887   0.72131   0.72415
  Beta virt. eigenvalues --    0.72863   0.74677   0.74834   0.75687   0.76227
  Beta virt. eigenvalues --    0.77382   0.77930   0.78688   0.78799   0.79300
  Beta virt. eigenvalues --    0.79507   0.80694   0.81299   0.88484   0.88715
  Beta virt. eigenvalues --    0.92143   0.94520   0.96268   0.98311   0.99262
  Beta virt. eigenvalues --    1.01794   1.02632   1.04833   1.05884   1.08193
  Beta virt. eigenvalues --    1.09945   1.10514   1.15279   1.16068   1.17198
  Beta virt. eigenvalues --    1.18300   1.20661   1.22269   1.23945   1.26281
  Beta virt. eigenvalues --    1.29037   1.30797   1.33618   1.38068   1.39532
  Beta virt. eigenvalues --    1.40709   1.44134   1.44747   1.45414   1.46489
  Beta virt. eigenvalues --    1.47019   1.47490   1.47816   1.49275   1.50416
  Beta virt. eigenvalues --    1.52353   1.53771   1.54676   1.55047   1.56219
  Beta virt. eigenvalues --    1.56716   1.58202   1.59313   1.59930   1.60481
  Beta virt. eigenvalues --    1.62214   1.62829   1.62967   1.64446   1.64734
  Beta virt. eigenvalues --    1.66204   1.66887   1.67834   1.68940   1.70687
  Beta virt. eigenvalues --    1.72574   1.72909   1.73584   1.74718   1.75590
  Beta virt. eigenvalues --    1.76950   1.78495   1.79423   1.81785   1.82430
  Beta virt. eigenvalues --    1.82847   1.83613   1.87068   1.89072   1.90105
  Beta virt. eigenvalues --    1.92077   1.95226   1.98926   2.00244   2.01295
  Beta virt. eigenvalues --    2.02620   2.04447   2.06267   2.06904   2.07453
  Beta virt. eigenvalues --    2.10206   2.10445   2.13406   2.14929   2.15447
  Beta virt. eigenvalues --    2.16693   2.18020   2.21333   2.25398   2.26003
  Beta virt. eigenvalues --    2.29611   2.32576   2.33398   2.34971   2.35716
  Beta virt. eigenvalues --    2.37214   2.39939   2.42230   2.47362   2.47626
  Beta virt. eigenvalues --    2.49266   2.50026   2.50441   2.50791   2.51747
  Beta virt. eigenvalues --    2.52999   2.53099   2.54519   2.54812   2.56148
  Beta virt. eigenvalues --    2.57423   2.59026   2.60098   2.60799   2.62252
  Beta virt. eigenvalues --    2.62699   2.64729   2.65709   2.67373   2.68018
  Beta virt. eigenvalues --    2.68318   2.70465   2.70942   2.72402   2.73659
  Beta virt. eigenvalues --    2.75048   2.76033   2.76272   2.78883   2.81618
  Beta virt. eigenvalues --    2.85650   2.86211   2.87551   2.90863   2.91173
  Beta virt. eigenvalues --    2.93661   2.95322   2.96333   2.98189   3.00188
  Beta virt. eigenvalues --    3.01271   3.05233   3.08296   3.10061   3.11948
  Beta virt. eigenvalues --    3.16243   3.17805   3.20328   3.23373   3.28544
  Beta virt. eigenvalues --    3.34601   3.37151   3.48787   3.56077   3.71650
  Beta virt. eigenvalues --    3.77803   3.78477   3.78695   3.79524   3.81287
  Beta virt. eigenvalues --    3.82437   3.83113   3.83921   3.84565   3.88737
  Beta virt. eigenvalues --    3.92297   3.97418   4.02637   4.11145   4.22717
  Beta virt. eigenvalues --    4.27703   4.29176   4.32291   4.41826   4.90667
  Beta virt. eigenvalues --    5.04859   5.14297   5.38229   5.51934   5.69732
  Beta virt. eigenvalues --   23.79901  23.83608  23.84760  23.87752  23.92404
  Beta virt. eigenvalues --   23.97618  23.98131  23.98402  23.99296  49.86221
  Beta virt. eigenvalues --   49.90893
          Condensed to atoms (all electrons):
              1          2          3          4          5          6
     1  C    6.005852   0.317702   0.347087   0.454748  -0.569701  -0.075767
     2  H    0.317702   0.606082  -0.036788  -0.035289   0.021351  -0.005669
     3  H    0.347087  -0.036788   0.544653  -0.042895   0.118272   0.013103
     4  H    0.454748  -0.035289  -0.042895   0.597737  -0.183900  -0.019825
     5  C   -0.569701   0.021351   0.118272  -0.183900   8.897271   0.565759
     6  H   -0.075767  -0.005669   0.013103  -0.019825   0.565759   0.572643
     7  C   -0.159049   0.052488  -0.016261  -0.006061   0.250687  -0.110727
     8  H   -0.006723   0.000007   0.001100   0.002203  -0.054716   0.018493
     9  H    0.019192  -0.001405  -0.001635   0.001254   0.099729  -0.007833
    10  C   -0.028423  -0.005353   0.001180   0.003336  -0.461412   0.014587
    11  H   -0.005068   0.001416  -0.000021  -0.000136   0.019740  -0.001548
    12  C    0.026217  -0.005532  -0.001564   0.002406   0.002711   0.006477
    13  H   -0.001341   0.000062   0.000122  -0.000198  -0.001099   0.000720
    14  C    0.002535  -0.000195  -0.000259   0.000166  -0.007672  -0.001398
    15  H   -0.000233  -0.000032   0.000051  -0.000014   0.001682   0.000153
    16  H    0.000048  -0.000022  -0.000010   0.000007   0.000217   0.000037
    17  H    0.000119   0.000027  -0.000024   0.000009  -0.001183  -0.000140
    18  C   -0.218825   0.023556  -0.038636   0.013509  -0.046868  -0.122659
    19  H   -0.018680   0.000191   0.011946  -0.000420   0.039794   0.007439
    20  H   -0.011816  -0.000186   0.004051  -0.000655  -0.001763  -0.004466
    21  H    0.024926  -0.002838  -0.005286   0.003576  -0.097085  -0.016763
    22  C   -0.006129   0.000012   0.000494  -0.000585   0.027647   0.001968
    23  H   -0.000075  -0.000049   0.000025  -0.000004   0.003446   0.000255
    24  H    0.000201   0.000036  -0.000006   0.000020  -0.004581  -0.000354
    25  H   -0.000201   0.000018   0.000078   0.000033   0.002408   0.000181
    26  C    0.425051  -0.068300  -0.061830   0.060051  -2.629635  -0.021078
    27  H    0.022933  -0.000509   0.007843  -0.003069  -0.157164   0.025935
    28  O    0.029618   0.025932  -0.004967  -0.002094  -0.338215  -0.008717
    29  O    0.053427  -0.021036  -0.010793   0.010901  -0.007605  -0.004810
    30  H    0.026964  -0.001751  -0.004158   0.001557  -0.029589   0.002461
              7          8          9         10         11         12
     1  C   -0.159049  -0.006723   0.019192  -0.028423  -0.005068   0.026217
     2  H    0.052488   0.000007  -0.001405  -0.005353   0.001416  -0.005532
     3  H   -0.016261   0.001100  -0.001635   0.001180  -0.000021  -0.001564
     4  H   -0.006061   0.002203   0.001254   0.003336  -0.000136   0.002406
     5  C    0.250687  -0.054716   0.099729  -0.461412   0.019740   0.002711
     6  H   -0.110727   0.018493  -0.007833   0.014587  -0.001548   0.006477
     7  C    8.836560   0.385510   0.607277  -0.926924   0.035042  -0.577313
     8  H    0.385510   0.612748  -0.090044   0.022762   0.011128   0.021908
     9  H    0.607277  -0.090044   0.686184  -0.250639   0.001174  -0.004486
    10  C   -0.926924   0.022762  -0.250639   8.543744   0.397729  -1.649820
    11  H    0.035042   0.011128   0.001174   0.397729   0.494542  -0.121153
    12  C   -0.577313   0.021908  -0.004486  -1.649820  -0.121153   7.514342
    13  H   -0.012312   0.011905  -0.012175  -0.127723   0.004278   0.521277
    14  C   -0.102817  -0.007662  -0.001096   0.214331  -0.017331  -0.076735
    15  H   -0.015880   0.001342  -0.000357  -0.102576  -0.000644   0.109333
    16  H   -0.005776  -0.000872   0.000434   0.046783   0.000973  -0.097273
    17  H    0.022131  -0.001466   0.000277  -0.041686  -0.002210  -0.009703
    18  C    0.394093  -0.010029  -0.005371   0.083924   0.004355  -0.019692
    19  H    0.021935   0.004743  -0.003187   0.004188   0.000451  -0.003784
    20  H   -0.000673  -0.002869   0.002190  -0.006884   0.000222   0.000103
    21  H    0.018935  -0.000789   0.000448   0.003909   0.000088  -0.002705
    22  C    0.191368  -0.016733   0.003481  -0.097697  -0.002434   0.085563
    23  H   -0.009029   0.000232  -0.003404   0.002391  -0.001798  -0.036683
    24  H   -0.004851   0.001606  -0.003491  -0.020424   0.001504   0.002539
    25  H    0.006652   0.004350  -0.000737  -0.035436   0.001078  -0.002318
    26  C   -1.484176  -0.096445  -0.182169   0.025831  -0.050260   0.117616
    27  H   -0.210314   0.009404  -0.007686   0.005357  -0.013781   0.016300
    28  O   -0.246592  -0.021697   0.031940  -0.039523  -0.004270   0.043905
    29  O   -0.043252   0.008258  -0.009395   0.073677   0.009273   0.008615
    30  H   -0.020474  -0.001008   0.000507   0.014068  -0.001813   0.001102
             13         14         15         16         17         18
     1  C   -0.001341   0.002535  -0.000233   0.000048   0.000119  -0.218825
     2  H    0.000062  -0.000195  -0.000032  -0.000022   0.000027   0.023556
     3  H    0.000122  -0.000259   0.000051  -0.000010  -0.000024  -0.038636
     4  H   -0.000198   0.000166  -0.000014   0.000007   0.000009   0.013509
     5  C   -0.001099  -0.007672   0.001682   0.000217  -0.001183  -0.046868
     6  H    0.000720  -0.001398   0.000153   0.000037  -0.000140  -0.122659
     7  C   -0.012312  -0.102817  -0.015880  -0.005776   0.022131   0.394093
     8  H    0.011905  -0.007662   0.001342  -0.000872  -0.001466  -0.010029
     9  H   -0.012175  -0.001096  -0.000357   0.000434   0.000277  -0.005371
    10  C   -0.127723   0.214331  -0.102576   0.046783  -0.041686   0.083924
    11  H    0.004278  -0.017331  -0.000644   0.000973  -0.002210   0.004355
    12  C    0.521277  -0.076735   0.109333  -0.097273  -0.009703  -0.019692
    13  H    0.600511  -0.074900   0.012775  -0.013287  -0.006609   0.000654
    14  C   -0.074900   5.658023   0.380531   0.398278   0.399990   0.000850
    15  H    0.012775   0.380531   0.558254  -0.032856  -0.038086  -0.000157
    16  H   -0.013287   0.398278  -0.032856   0.567789  -0.023849  -0.000088
    17  H   -0.006609   0.399990  -0.038086  -0.023849   0.557052   0.000035
    18  C    0.000654   0.000850  -0.000157  -0.000088   0.000035   5.802672
    19  H   -0.000274  -0.000099   0.000001  -0.000005   0.000010   0.388900
    20  H    0.000111  -0.000131   0.000020   0.000001  -0.000023   0.390926
    21  H   -0.000032   0.001921  -0.000081   0.000033   0.000041   0.417174
    22  C   -0.096394  -0.149136  -0.026149   0.001567   0.016248   0.004668
    23  H    0.002368   0.000259   0.005015   0.001219  -0.000772  -0.000148
    24  H    0.010405  -0.017685   0.008903  -0.000565  -0.001289   0.000469
    25  H   -0.009733   0.012478  -0.003546   0.001962  -0.002704   0.004144
    26  C    0.022714  -0.039843   0.004581   0.000619  -0.002742  -0.289334
    27  H    0.001073   0.001405   0.000044  -0.000161   0.000335  -0.117065
    28  O   -0.002102   0.004693  -0.000372   0.000276  -0.000309   0.011218
    29  O    0.000088   0.000069   0.000325   0.000061  -0.000312   0.018534
    30  H    0.000040   0.000283   0.000067   0.000006  -0.000012  -0.003466
             19         20         21         22         23         24
     1  C   -0.018680  -0.011816   0.024926  -0.006129  -0.000075   0.000201
     2  H    0.000191  -0.000186  -0.002838   0.000012  -0.000049   0.000036
     3  H    0.011946   0.004051  -0.005286   0.000494   0.000025  -0.000006
     4  H   -0.000420  -0.000655   0.003576  -0.000585  -0.000004   0.000020
     5  C    0.039794  -0.001763  -0.097085   0.027647   0.003446  -0.004581
     6  H    0.007439  -0.004466  -0.016763   0.001968   0.000255  -0.000354
     7  C    0.021935  -0.000673   0.018935   0.191368  -0.009029  -0.004851
     8  H    0.004743  -0.002869  -0.000789  -0.016733   0.000232   0.001606
     9  H   -0.003187   0.002190   0.000448   0.003481  -0.003404  -0.003491
    10  C    0.004188  -0.006884   0.003909  -0.097697   0.002391  -0.020424
    11  H    0.000451   0.000222   0.000088  -0.002434  -0.001798   0.001504
    12  C   -0.003784   0.000103  -0.002705   0.085563  -0.036683   0.002539
    13  H   -0.000274   0.000111  -0.000032  -0.096394   0.002368   0.010405
    14  C   -0.000099  -0.000131   0.001921  -0.149136   0.000259  -0.017685
    15  H    0.000001   0.000020  -0.000081  -0.026149   0.005015   0.008903
    16  H   -0.000005   0.000001   0.000033   0.001567   0.001219  -0.000565
    17  H    0.000010  -0.000023   0.000041   0.016248  -0.000772  -0.001289
    18  C    0.388900   0.390926   0.417174   0.004668  -0.000148   0.000469
    19  H    0.547938  -0.032031  -0.041284  -0.001320  -0.000122  -0.000036
    20  H   -0.032031   0.563037  -0.023136   0.000736   0.000111  -0.000017
    21  H   -0.041284  -0.023136   0.603668   0.001753  -0.000237   0.000824
    22  C   -0.001320   0.000736   0.001753   5.547767   0.384806   0.393746
    23  H   -0.000122   0.000111  -0.000237   0.384806   0.586157  -0.033964
    24  H   -0.000036  -0.000017   0.000824   0.393746  -0.033964   0.547143
    25  H    0.001011  -0.000071  -0.001276   0.389833  -0.031146  -0.036371
    26  C   -0.087375  -0.012260  -0.001855   0.003509   0.002307   0.005430
    27  H    0.011359  -0.006791  -0.011356  -0.010458  -0.000139  -0.002359
    28  O   -0.000803  -0.003120  -0.000406  -0.003784   0.000084  -0.000284
    29  O   -0.000612   0.000108   0.001425   0.000533  -0.000022   0.000248
    30  H    0.000754  -0.000602   0.000010   0.000084   0.000013  -0.000008
             25         26         27         28         29         30
     1  C   -0.000201   0.425051   0.022933   0.029618   0.053427   0.026964
     2  H    0.000018  -0.068300  -0.000509   0.025932  -0.021036  -0.001751
     3  H    0.000078  -0.061830   0.007843  -0.004967  -0.010793  -0.004158
     4  H    0.000033   0.060051  -0.003069  -0.002094   0.010901   0.001557
     5  C    0.002408  -2.629635  -0.157164  -0.338215  -0.007605  -0.029589
     6  H    0.000181  -0.021078   0.025935  -0.008717  -0.004810   0.002461
     7  C    0.006652  -1.484176  -0.210314  -0.246592  -0.043252  -0.020474
     8  H    0.004350  -0.096445   0.009404  -0.021697   0.008258  -0.001008
     9  H   -0.000737  -0.182169  -0.007686   0.031940  -0.009395   0.000507
    10  C   -0.035436   0.025831   0.005357  -0.039523   0.073677   0.014068
    11  H    0.001078  -0.050260  -0.013781  -0.004270   0.009273  -0.001813
    12  C   -0.002318   0.117616   0.016300   0.043905   0.008615   0.001102
    13  H   -0.009733   0.022714   0.001073  -0.002102   0.000088   0.000040
    14  C    0.012478  -0.039843   0.001405   0.004693   0.000069   0.000283
    15  H   -0.003546   0.004581   0.000044  -0.000372   0.000325   0.000067
    16  H    0.001962   0.000619  -0.000161   0.000276   0.000061   0.000006
    17  H   -0.002704  -0.002742   0.000335  -0.000309  -0.000312  -0.000012
    18  C    0.004144  -0.289334  -0.117065   0.011218   0.018534  -0.003466
    19  H    0.001011  -0.087375   0.011359  -0.000803  -0.000612   0.000754
    20  H   -0.000071  -0.012260  -0.006791  -0.003120   0.000108  -0.000602
    21  H   -0.001276  -0.001855  -0.011356  -0.000406   0.001425   0.000010
    22  C    0.389833   0.003509  -0.010458  -0.003784   0.000533   0.000084
    23  H   -0.031146   0.002307  -0.000139   0.000084  -0.000022   0.000013
    24  H   -0.036371   0.005430  -0.002359  -0.000284   0.000248  -0.000008
    25  H    0.601513  -0.023851  -0.001891   0.000058   0.000586  -0.000006
    26  C   -0.023851   9.619530   0.670244   0.547704   0.005990   0.011467
    27  H   -0.001891   0.670244   0.612326  -0.007514  -0.053539  -0.000814
    28  O    0.000058   0.547704  -0.007514   7.993574   0.013097  -0.024824
    29  O    0.000586   0.005990  -0.053539   0.013097   7.907891   0.222647
    30  H   -0.000006   0.011467  -0.000814  -0.024824   0.222647   0.563949
 Mulliken atomic charges:
              1
     1  C   -0.654587
     2  H    0.136073
     3  H    0.175128
     4  H    0.143634
     5  C    0.541476
     6  H    0.171543
     7  C   -0.870196
     8  H    0.193352
     9  H    0.131023
    10  C    0.336725
    11  H    0.239473
    12  C    0.128349
    13  H    0.169073
    14  C   -0.578855
    15  H    0.137908
    16  H    0.154453
    17  H    0.136846
    18  C   -0.687342
    19  H    0.149372
    20  H    0.145878
    21  H    0.126399
    22  C   -0.644962
    23  H    0.128901
    24  H    0.153210
    25  H    0.122905
    26  C   -0.471494
    27  H    0.220050
    28  O    0.007494
    29  O   -0.184378
    30  H    0.242549
 Sum of Mulliken atomic charges =   0.00000
 Mulliken charges with hydrogens summed into heavy atoms:
              1
     1  C   -0.199751
     5  C    0.713019
     7  C   -0.545821
    10  C    0.576198
    12  C    0.297422
    14  C   -0.149647
    18  C   -0.265694
    22  C   -0.239946
    26  C   -0.251444
    28  O    0.007494
    29  O    0.058171
 Sum of Mulliken charges with hydrogens summed into heavy atoms =   0.00000
          Atomic-Atomic Spin Densities.
              1          2          3          4          5          6
     1  C    0.007446   0.000428  -0.000228  -0.001844  -0.008404  -0.002800
     2  H    0.000428   0.000377  -0.000049  -0.000401  -0.000835  -0.000494
     3  H   -0.000228  -0.000049   0.000026   0.000085   0.000400   0.000079
     4  H   -0.001844  -0.000401   0.000085   0.001202   0.001014   0.000767
     5  C   -0.008404  -0.000835   0.000400   0.001014   0.023132   0.000306
     6  H   -0.002800  -0.000494   0.000079   0.000767   0.000306   0.001344
     7  C   -0.003355   0.000790  -0.000073  -0.000102  -0.009088  -0.002442
     8  H   -0.002918  -0.000739   0.000314   0.000502  -0.013088   0.006597
     9  H    0.002356   0.000280  -0.000195  -0.000344   0.003828  -0.003353
    10  C    0.003049  -0.000268   0.000258   0.000801   0.031403   0.001961
    11  H    0.000204   0.000027   0.000013  -0.000011  -0.001408  -0.000042
    12  C   -0.000604  -0.000186   0.000079   0.000108  -0.004187   0.000716
    13  H   -0.000079  -0.000038   0.000025   0.000028  -0.000648   0.000565
    14  C    0.000296   0.000040  -0.000027  -0.000008   0.000759  -0.000271
    15  H   -0.000022  -0.000007   0.000006   0.000002   0.000019   0.000047
    16  H    0.000011   0.000003  -0.000003  -0.000001   0.000025  -0.000040
    17  H   -0.000005   0.000001  -0.000001   0.000000   0.000005  -0.000011
    18  C    0.001732   0.000277  -0.000171  -0.000065  -0.000470   0.001181
    19  H   -0.000179   0.000013  -0.000002  -0.000044  -0.000611  -0.000191
    20  H    0.000705   0.000021  -0.000043  -0.000003   0.000130  -0.000039
    21  H    0.001525   0.000207  -0.000086  -0.000414  -0.001924  -0.001312
    22  C   -0.000009   0.000075  -0.000071  -0.000073  -0.001254  -0.000794
    23  H   -0.000049  -0.000006   0.000006   0.000003  -0.000207   0.000087
    24  H    0.000002  -0.000004   0.000002   0.000005   0.000166   0.000031
    25  H   -0.000038  -0.000010   0.000008   0.000011   0.000046   0.000050
    26  C    0.001561   0.000183  -0.000131  -0.001029  -0.028555  -0.000410
    27  H   -0.002263  -0.000398   0.000211   0.000389   0.004753   0.000956
    28  O    0.001354   0.000775  -0.000153  -0.000505  -0.005734  -0.001557
    29  O    0.000587  -0.000219  -0.000035   0.000178   0.002891   0.000157
    30  H   -0.000079  -0.000127   0.000077   0.000061   0.000894   0.000103
              7          8          9         10         11         12
     1  C   -0.003355  -0.002918   0.002356   0.003049   0.000204  -0.000604
     2  H    0.000790  -0.000739   0.000280  -0.000268   0.000027  -0.000186
     3  H   -0.000073   0.000314  -0.000195   0.000258   0.000013   0.000079
     4  H   -0.000102   0.000502  -0.000344   0.000801  -0.000011   0.000108
     5  C   -0.009088  -0.013088   0.003828   0.031403  -0.001408  -0.004187
     6  H   -0.002442   0.006597  -0.003353   0.001961  -0.000042   0.000716
     7  C   -0.106913  -0.029480   0.023631   0.038970  -0.004102  -0.059748
     8  H   -0.029480   0.131613  -0.034142  -0.028770  -0.001994   0.023685
[...]
 00104911,0.00147086,0.00014001,-0.00007321,-0.00011669,0.00003889,-0.0
 0001305,0.00913914,0.01999508,0.00068408,-0.00227505,0.00410428,0.0004
 5037,0.00180470,0.00040818,0.00003881,-0.00006239,-0.00045109,-0.00007
 794,-0.00010179,-0.00008116,0.00016880,0.00017089,-0.00023060,0.000041
 58,-0.00002042,-0.00003974,-0.00002034,0.00000760,0.00001955,-0.000009
 35,0.00000081,0.00000855,-0.00000113,0.00001455,-0.00000122,0.00122681
 ,-0.10468018,-0.10908272,-0.00083108,-0.00712010,-0.01156503,-0.001999
 15,0.11257185,-0.00000609,-0.00001453,-0.00000719,0.00000005,0.0000027
 5,-0.00000112,-0.00000439,0.00000232,0.00000733,-0.00000820,0.00000177
 ,0.00000036,-0.00002309,0.00002015,0.00003287,0.00001494,0.00000128,0.
 00001937,-0.00013482,0.00003899,0.00003083,0.00011701,0.00000975,0.000
 09680,0.00012264,0.00006407,-0.00002003,0.00129176,-0.00100375,0.00157
 457,-0.00041045,0.00042688,-0.00026308,-0.00031112,-0.01002287,-0.0233
 4327,-0.00104280,0.00400021,-0.00283495,-0.00044210,-0.00145333,0.0010
 0098,0.00054164,0.00097147,0.00042245,0.00005234,0.00007938,-0.0000334
 9,-0.00009432,0.00011963,0.00051083,0.00001758,-0.00000854,-0.00001942
 ,-0.00001443,0.00000270,0.00001677,-0.00000437,-0.00000159,0.00000611,
 -0.00000545,0.00001318,-0.00000870,0.00297054,-0.10880311,-0.24637730,
 0.00022420,-0.00121308,-0.00256122,-0.00242773,0.11648994,0.27093541,0
 .00001496,0.00002718,0.00000509,-0.00000930,0.00000492,-0.00000366,-0.
 00000342,-0.00000527,-0.00000024,0.00001638,0.00000018,0.00000135,0.00
 000769,-0.00002768,-0.00001932,0.00000289,0.00000041,0.00000131,0.0000
 6219,0.00004375,-0.00024382,0.00006825,0.00003186,0.00006789,0.0000458
 2,0.00021513,-0.00006817,0.00028963,0.00079087,0.00001335,0.00004902,-
 0.00000352,-0.00001943,0.00378268,0.00484605,0.00046073,0.00018540,-0.
 00026741,0.00065177,0.00027343,0.00078915,-0.00026834,-0.00007230,0.00
 002879,-0.00008837,0.00046090,0.00013038,-0.00020976,0.00045825,-0.000
 00860,-0.00017263,0.00003161,0.00001262,0.00000105,-0.00000480,-0.0000
 0362,-0.00000287,0.00001721,0.00000416,-0.00000051,-0.00002607,-0.0000
 2610,-0.00000665,-0.17983276,-0.13029680,0.00003928,-0.01976965,-0.020
 43798,-0.00061038,0.00030945,0.00150403,-0.00038704,0.19359319,0.00000
 893,0.00000184,-0.00001369,-0.00000775,0.00002433,-0.00000253,0.000003
 96,-0.00000028,0.00000450,-0.00001227,-0.00000686,-0.00000047,0.000043
 17,-0.00000672,0.00001177,-0.00000523,-0.00000049,-0.00002045,0.000197
 07,-0.00049780,-0.00006823,-0.00001559,0.00022677,0.00004110,0.0004128
 5,0.00030164,0.00048892,-0.00130642,0.00055845,-0.00082818,0.00007428,
 0.00005066,0.00009413,-0.01367048,-0.01486163,-0.00141484,0.00023871,0
 .00099598,0.00000109,0.00191345,-0.00221108,0.00432160,0.00025895,0.00
 042646,-0.00004227,-0.00011602,0.00023784,-0.00004255,-0.00125222,-0.0
 0087756,0.00018112,0.00002926,-0.00006935,-0.00002483,0.00004110,0.000
 00033,-0.00002306,-0.00006348,0.00001435,-0.00002173,-0.00000189,0.000
 09576,0.00006474,-0.12935500,-0.17309964,-0.00094413,0.01033774,0.0112
 5004,0.00008172,-0.01057709,-0.01073400,0.00026991,0.14260540,0.188087
 23,0.00000276,0.00001098,0.00000758,-0.00000093,-0.00000279,-0.0000023
 3,0.00000417,-0.00000643,-0.00000581,0.00000830,0.00000037,0.00000090,
 -0.00000218,-0.00001538,-0.00003390,-0.00001668,0.00000755,-0.00002107
 ,0.00004913,0.00056431,0.00001808,0.00003823,-0.00009791,-0.00002544,-
 0.00033249,-0.00008469,-0.00019550,0.00073385,-0.00079004,0.00041197,-
 0.00004391,-0.00006518,0.00005505,0.01807152,0.01690965,0.00010993,0.0
 0042515,-0.00076865,0.00085309,-0.00166118,0.00293785,-0.00380856,-0.0
 0001515,0.00036375,0.00018329,-0.00024626,-0.00027299,-0.00007449,0.00
 099224,0.00140188,0.00020158,-0.00004816,0.00002838,0.00003650,0.00004
 665,-0.00001849,-0.00003699,0.00000957,0.00000382,-0.00001753,-0.00001
 044,-0.00002765,0.00003966,-0.00029272,-0.00121077,-0.04617596,0.00297
 459,0.00302912,-0.00100043,-0.02139891,-0.01958781,0.00086555,0.000800
 41,-0.00213676,0.04853932,-0.02949046,-0.01468072,-0.00760870,0.000716
 44,-0.00046590,-0.00025600,0.00177023,-0.00051022,-0.00048173,-0.00297
 047,0.00260729,0.00097683,-0.12888336,-0.02586456,-0.02544064,-0.00282
 843,-0.00168091,-0.00152868,-0.13288533,0.00927145,0.04368389,0.000212
 87,0.00141862,0.00081233,-0.00092663,0.00004655,0.00021854,-0.03296595
 ,0.00392500,0.00844019,0.00145135,0.00139457,-0.00011404,-0.00113496,-
 0.00321809,-0.00005022,0.00026598,0.00007562,0.00028513,-0.00061596,0.
 00042369,0.00000318,-0.00002441,0.00001868,-0.00002425,-0.00015019,-0.
 00019602,-0.00004703,-0.00002144,0.00002428,-0.00000199,0.00430960,-0.
 00429826,0.00368425,0.00030296,0.00095145,-0.00098431,0.00036956,0.003
 41715,-0.00152214,-0.00049227,0.00158902,0.00032802,0.00000356,-0.0001
 5650,0.00006430,0.00020106,-0.00003622,0.00002044,0.00002052,0.0000660
 6,0.00005031,-0.00002304,0.00029067,-0.00019417,0.44515405,0.00554628,
 0.01137496,0.00615464,0.00198549,-0.00156369,0.00155909,0.00027510,0.0
 0085101,-0.00095170,0.00482071,-0.00277858,-0.00039052,-0.02941742,-0.
 08526695,-0.01963001,-0.00353394,-0.00253202,-0.00074369,0.00874762,-0
 .07683530,-0.00942789,-0.00682464,0.00192241,0.00455232,0.02515513,-0.
 00788403,-0.01632574,-0.00789698,0.00726798,0.00953095,-0.00167843,-0.
 00099464,-0.00029955,-0.00118600,-0.00174500,-0.00217099,0.00009095,-0
 .00028863,0.00009448,-0.00060759,0.00058523,0.00016335,0.00001971,0.00
 000435,-0.00014296,-0.00031313,-0.00018464,-0.00001313,-0.00000759,-0.
 00003311,0.00011124,-0.02051607,-0.02458056,-0.00517897,0.00000621,0.0
 0153421,-0.00146236,0.00081406,-0.00281953,0.00134621,-0.00023870,0.00
 039654,-0.00040462,-0.00045949,0.00000089,0.00025419,-0.00015138,0.000
 16131,-0.00012974,0.00003952,0.00001571,-0.00003666,0.00002949,-0.0001
 1632,-0.00006780,0.00727983,0.40520835,0.00596250,0.00606161,0.0027074
 2,-0.00073255,-0.00018217,-0.00011720,0.00113734,0.00045933,0.00047729
 ,0.00303193,-0.00045277,0.00036608,-0.02263037,-0.01794763,-0.09592121
 ,-0.02793259,-0.02032372,-0.01319168,0.03911766,-0.00576930,-0.1029969
 0,0.02993993,-0.00912939,-0.02180162,-0.00508434,0.00179576,0.00058541
 ,-0.00804694,0.00693363,0.00667150,-0.00054366,-0.00105090,0.00054784,
 -0.00217928,-0.00221249,-0.00153902,0.00015007,-0.00002787,-0.00008822
 ,-0.00073288,0.00063552,-0.00011669,-0.00001835,-0.00008490,-0.0000566
 2,-0.00035471,-0.00019878,0.00000375,0.00005657,-0.00001185,0.00000939
 ,0.01040339,0.00664188,0.00338966,0.00154555,0.00182881,-0.00009752,0.
 00037382,0.00326046,-0.00135580,-0.00025321,-0.00030575,0.00040470,-0.
 00017033,-0.00005548,0.00044319,-0.00003339,0.00016500,-0.00022372,-0.
 00020225,-0.00018457,-0.00018015,0.00004340,0.00009210,0.00023640,0.00
 107008,-0.00032902,0.61929230,0.00141395,-0.00021470,-0.00063321,-0.00
 001158,0.00007074,-0.00001093,-0.00043550,0.00020590,0.00064217,0.0000
 0980,0.00008237,0.00038622,-0.00413569,-0.00158477,-0.02662412,-0.0035
 6976,-0.00264783,-0.00144499,0.00108800,-0.00361788,0.02801037,-0.0044
 3289,0.00135189,0.00284455,0.00076146,0.00007859,-0.00079701,0.0018492
 3,0.00066131,0.00021538,-0.00005136,-0.00038335,0.00002534,-0.00012227
 ,0.00009962,0.00023238,0.00010281,-0.00010675,-0.00012553,0.00002017,-
 0.00003791,-0.00000277,-0.00002025,-0.00001481,-0.00000880,0.00002455,
 0.00000622,0.00000277,0.00000085,0.00002226,-0.00000596,0.00108226,0.0
 0135036,-0.00064795,0.00002245,-0.00031336,0.00077431,0.00003439,0.000
 36732,0.00029196,0.00003316,-0.00015410,0.00014643,0.00004790,-0.00006
 006,-0.00003196,0.00003196,-0.00001773,-0.00000686,-0.00005310,-0.0000
 0522,-0.00004311,0.00002334,0.00002354,0.00001718,-0.05298022,-0.00157
 968,-0.03481355,0.05937680,0.00040989,-0.00014085,0.00015138,-0.000146
 53,0.00002615,-0.00001796,-0.00006897,0.00018880,0.00030243,-0.0000137
 3,0.00007935,0.00012472,-0.00374912,0.00043711,-0.01623885,-0.00277317
 ,-0.00141148,-0.00119378,-0.00081319,0.00225177,-0.00894168,0.00174755
 ,-0.00009654,-0.00101905,-0.00048028,0.00020496,0.00030020,-0.00072121
 ,0.00013764,0.00044823,0.00013019,-0.00001542,0.00011011,-0.00000772,-
 0.00008744,-0.00002557,-0.00001033,0.00000343,0.00000594,-0.00001734,-
 0.00000677,0.00002247,-0.00000424,0.00000033,-0.00000064,0.00000463,-0
 .00000300,-0.00000741,-0.00000453,-0.00000849,-0.00000332,-0.00007737,
 0.00107646,-0.00156727,-0.00022489,0.00001105,0.00051748,0.00017135,0.
 00009956,0.00015659,0.00010739,-0.00002913,-0.00002150,0.00004227,0.00
 007076,0.00001504,-0.00000898,-0.00002725,0.00000939,0.00001142,0.0000
 0726,0.00000464,-0.00001055,-0.00003815,-0.00002253,0.00089407,-0.0443
 4278,0.00585619,-0.00079200,0.06412144,0.00003800,-0.00000407,0.000265
 61,0.00010374,-0.00007423,0.00006527,-0.00055599,0.00020188,0.00015824
 ,-0.00015049,0.00000752,0.00010241,-0.00119610,-0.00070738,-0.00951861
 ,-0.00135508,-0.00061818,0.00045956,0.00041012,0.00065912,-0.01288258,
 0.00174947,-0.00088022,-0.00049863,0.00018269,-0.00038222,-0.00005567,
 -0.00141962,-0.00056343,0.00107731,0.00030473,0.00041460,-0.00008785,0
 .00015838,0.00006278,0.00006106,-0.00010141,0.00006831,0.00004470,0.00
 002215,-0.00001654,0.00001791,0.00001332,0.00001540,0.00000642,0.00000
 047,0.00000988,-0.00000857,-0.00000691,-0.00002019,0.00001108,0.000513
 59,0.00068036,0.00066293,-0.00020779,-0.00074091,0.00068236,0.00007302
 ,0.00000590,0.00044972,-0.00001249,-0.00019665,-0.00007719,-0.00000173
 ,0.00009597,-0.00004975,-0.00003741,-0.00001596,0.00003629,0.00006058,
 0.00002366,0.00005108,0.00000707,-0.00007923,-0.00005087,-0.03595450,0
 .01698396,-0.29642034,0.03719958,-0.01980731,0.32132494,0.00044243,0.0
 0006052,-0.00010162,0.00023958,-0.00150964,0.00034878,-0.00039597,-0.0
 0025560,0.00057186,0.00056788,-0.00062906,0.00058493,0.00601913,-0.021
 73452,0.00762803,0.00025996,0.00001692,-0.00000193,-0.01006528,0.02835
 514,-0.00041694,0.00077034,-0.00001790,-0.00022404,-0.00270967,0.00079
 307,0.00234832,-0.00226418,-0.00008466,-0.00147089,0.00004529,0.001619
 06,0.00018232,0.00070683,0.00093355,0.00056657,-0.00032940,0.00015013,
 0.00000635,0.00014528,-0.00001659,-0.00007484,0.00004501,-0.00002793,0
 .00002184,-0.00004569,0.00004306,0.00001083,0.00002854,-0.00002055,-0.
 00001180,-0.00379728,-0.00290610,-0.00283512,-0.00012508,0.00022339,0.
 00008875,0.00019518,-0.00164726,0.00063416,0.00017955,-0.00026289,-0.0
 0008474,-0.00011718,0.00001438,0.00005403,-0.00008012,0.00006588,-0.00
 004929,0.00003299,-0.00002133,-0.00000436,0.00003759,-0.00002969,0.000
 02075,-0.05262502,0.01086753,-0.00120332,-0.00126922,0.00830020,-0.001
 13717,0.13380337,0.00277237,0.00003049,-0.00018172,-0.00128634,0.00036
 181,-0.00017508,-0.00033103,-0.00005563,0.00061704,0.00023783,0.000395
 08,-0.00009468,-0.00073451,-0.03796272,0.01001068,0.00061064,0.0008749
 5,-0.00099870,0.01831540,-0.02283742,-0.00423750,-0.00091276,0.0005348
 5,0.00094930,0.00100232,0.00034628,-0.00059245,-0.00264173,0.00000185,
 -0.00085438,0.00041147,0.00069354,0.00058947,0.00003530,-0.00003397,0.
 00018324,-0.00008857,0.00014676,0.00014802,-0.00002282,0.00008002,0.00
 000190,0.00004165,0.00000056,0.00004496,-0.00004294,0.00000124,0.00000
 152,0.00003856,0.00001943,-0.00005502,-0.00677837,-0.00156301,-0.00472
 353,0.00011346,0.00027182,0.00016464,0.00024623,-0.00251064,0.00121356
 ,0.00036388,0.00012687,-0.00007386,-0.00013640,-0.00014800,0.00005084,
 0.00003199,0.00006528,-0.00005003,0.00000015,-0.00000408,0.00000385,0.
 00003194,0.00016554,-0.00002707,-0.01048609,-0.15691023,0.06420043,0.0
 0761967,-0.02565523,0.00809630,-0.06665366,0.32314215,-0.00130221,0.00
 069275,-0.00015085,0.00061088,-0.00110569,0.00061501,0.00016677,-0.000
 06622,-0.00014383,0.00016797,-0.00063105,-0.00000717,0.00148368,-0.002
 27719,0.00500293,0.00114909,0.00071492,0.00103434,0.00571545,-0.020446
 02,0.00224698,-0.00054619,-0.00114520,0.00077230,0.00361645,-0.0019698
 9,-0.00164634,-0.00069137,-0.00008009,0.00057181,0.00020004,0.00051278
 ,-0.00000075,0.00012811,0.00005297,0.00005322,-0.00014637,0.00006150,0
 .00007983,0.00000463,0.00006492,0.00002052,0.00002614,0.00001589,-0.00
 000394,-0.00002555,-0.00000716,0.00000010,-0.00000039,-0.00001848,0.00
 001993,0.00024694,-0.00004027,0.00042215,-0.00032358,-0.00047597,0.000
 46058,0.00010668,0.00026518,0.00042221,0.00004305,-0.00008867,-0.00011
 166,-0.00001185,-0.00000431,-0.00000569,-0.00003271,0.00001018,0.00002
 990,0.00007020,0.00003783,0.00004497,0.00001601,-0.00003876,-0.0000805
 2,0.01366706,0.02357151,-0.09976940,-0.00406018,0.03932605,-0.00914798
 ,-0.09021338,0.00320606,0.26776721,-0.00263717,-0.00065291,-0.00047776
 ,-0.00051012,-0.00183060,0.00082419,0.00043617,0.00036831,-0.00137855,
 0.00061123,-0.00100165,-0.00056564,-0.00044814,-0.00063863,-0.00000094
 ,0.00030444,0.00013447,-0.00012107,0.00142119,0.00841561,-0.00166510,0
 .00052712,-0.00054514,-0.00054213,-0.00242585,0.00064442,0.00101897,0.
 00139584,0.00064731,0.00039004,-0.00023079,-0.00033144,0.00003157,0.00
 004033,-0.00023871,-0.00015488,0.00005446,-0.00002893,-0.00006568,-0.0
 0007777,0.00011763,-0.00003721,-0.00000768,-0.00003254,-0.00002127,-0.
 00009893,-0.00001400,-0.00000263,0.00003390,-0.00000115,0.00000389,0.0
 0014298,0.00015538,0.00020679,-0.00007501,-0.00001671,-0.00006722,0.00
 014886,0.00020419,0.00000669,0.00015054,-0.00031465,0.00000765,-0.0000
 6615,0.00000400,0.00008588,-0.00009337,0.00005174,-0.00003775,-0.00001
 336,-0.00003378,-0.00004225,0.00002175,-0.00007390,0.00007129,-0.01414
 112,0.00693677,0.01207530,0.00106811,-0.00162099,0.00072157,-0.0613757
 8,0.05538531,0.06929988,0.49063413,-0.00241762,-0.00152377,0.00099474,
 -0.00039651,-0.00012346,-0.00005269,0.00003113,-0.00024850,-0.00166898
 ,-0.00003562,-0.00051308,-0.00097688,0.00110759,0.00040257,0.00076807,
 0.00008826,0.00002202,-0.00009923,-0.00263767,-0.00755075,0.00087817,0
 .00010150,-0.00011180,-0.00022128,0.00201906,0.00007348,-0.00089410,-0
 .00058122,-0.00036917,-0.00048938,0.00044455,0.00020095,0.00033214,0.0
 0006660,0.00032186,0.00022427,-0.00010630,0.00004770,0.00005011,0.0000
 8189,-0.00015646,0.00003818,0.00002501,0.00002048,0.00004950,0.0000795
 4,0.00004935,0.00000405,-0.00000175,0.00001993,-0.00005521,0.00000785,
 0.00035743,0.00012070,-0.00000643,-0.00003633,0.00003071,-0.00011765,0
 .00001970,0.00001681,0.00005740,0.00003956,-0.00004758,0.00000022,-0.0
 0001304,-0.00006005,0.00007144,-0.00002873,0.00001228,-0.00000140,0.00
 001640,0.00003553,-0.00000315,0.00010881,-0.00005087,0.02196263,-0.018
 65173,-0.03746049,-0.00026280,0.00293258,-0.00271564,0.02946985,-0.071
 55158,-0.04493903,-0.15621812,0.12516319,0.00013217,0.00041401,-0.0005
 7337,-0.00055995,-0.00030217,-0.00031966,-0.00055606,-0.00022486,0.000
 53960,-0.00001762,0.00004708,0.00025789,0.00196746,-0.00139955,0.00016
 195,0.00000310,0.00033836,0.00017767,-0.00371094,0.00043212,0.00155104
 ,-0.00048389,0.00060925,0.00070069,0.00030961,0.00054231,0.00028665,-0
 .00022941,-0.00017276,-0.00007469,0.00021553,0.00007485,0.00001130,0.0
 0000031,0.00019765,0.00009383,-0.00002483,0.00000976,0.00000203,0.0000
 3793,-0.00008610,-0.00002502,0.00000585,0.00001188,0.00002019,0.000050
 63,0.00001302,0.00000738,-0.00002002,-0.00000452,0.00000194,-0.0004419
 6,-0.00005861,-0.00006507,0.00005033,-0.00007179,0.00005741,-0.0001565
 1,-0.00015459,0.00001976,-0.00005957,0.00012076,-0.00000040,0.00001220
 ,-0.00000106,-0.00005410,0.00003914,-0.00002539,0.00001469,0.00000197,
 0.00001379,0.00002128,-0.00000964,0.00003053,-0.00001473,-0.00285645,-
 0.00808468,0.00145312,-0.00139677,0.00199678,0.00330936,0.04394483,-0.
 05697496,-0.16582078,0.11558655,0.04790989,0.26478179,-0.00023787,-0.0
 0104926,0.00071478,0.00020747,0.00028317,-0.00125877,0.00006308,-0.000
 55586,0.00005576,-0.00030937,0.00021668,-0.00012121,0.00132802,-0.0000
 3447,0.00001174,-0.00018090,0.00008157,0.00000675,0.00010061,0.0000859
 3,-0.00008392,-0.00001967,0.00006507,0.00007468,0.00008450,-0.00007931
 ,0.00006104,-0.00002291,-0.00000111,0.00003844,-0.00005662,-0.00002418
 ,-0.00004277,-0.00004423,0.00000143,0.00000627,0.00001586,-0.00000862,
 -0.00000580,0.00000377,-0.00001441,-0.00000174,-0.00000902,0.00000645,
 -0.00000324,0.00002206,-0.00000627,0.00000080,-0.00001320,-0.00000011,
 0.00001005,-0.00050184,-0.00000940,0.00000545,0.00006613,-0.00000166,0
 .00000206,-0.00004923,-0.00015383,0.00000684,-0.00003853,0.00013977,-0
 .00004268,0.00001931,0.00000376,-0.00001727,0.00002182,-0.00001495,0.0
 0000663,-0.00000479,0.00000437,0.00000311,-0.00001028,0.00000797,-0.00
 000263,-0.00161894,0.00179666,0.00002418,0.00009063,-0.00027380,0.0005
 7819,-0.00831907,0.00285706,0.00063476,-0.41478979,0.10717171,-0.15183
 401,0.42420301,0.00084523,-0.00089933,0.00039323,-0.00100898,0.0004897
 8,-0.00174920,-0.00063322,-0.00112177,0.00098880,-0.00020455,0.0011489
 7,0.00029749,0.00081472,-0.00030807,-0.00044711,-0.00025233,0.00008549
 ,0.00015499,-0.00014316,-0.00179429,-0.00006255,-0.00005418,0.00007998
 ,0.00000847,0.00045295,-0.00016660,-0.00024540,-0.00018208,-0.00002398
 ,0.00015649,0.00004928,0.00002436,-0.00009183,0.00001368,-0.00002211,-
 0.00004351,-0.00001297,0.00000616,0.00000671,-0.00001257,0.00003688,0.
 00000060,0.00000505,0.00000040,-0.00001419,-0.00001746,-0.00000950,-0.
 00000023,0.00000053,-0.00000798,0.00001912,-0.00027393,0.00002538,0.00
 009608,0.00004309,-0.00002660,0.00000170,0.00000031,-0.00005234,-0.000
 00328,-0.00014364,0.00024386,-0.00003730,-0.00000393,0.00001298,0.0000
 1100,-0.00001674,0.00000901,0.00000096,0.00001142,0.00000059,-0.000000
 96,-0.00000563,-0.00002616,-0.00000386,0.00593687,-0.00179520,-0.00220
 366,-0.00014683,0.00021387,-0.00050346,0.01490470,-0.00802600,0.004801
 47,0.09052870,-0.02891762,0.01479899,-0.11049435,0.04081984,0.00038684
 ,-0.00160672,0.00172763,-0.00093480,0.00016653,-0.00076963,0.00014972,
 0.00055996,-0.00067794,-0.00013917,0.00035721,-0.00060083,0.00000108,0
 .00025507,0.00000611,0.00015572,-0.00010343,-0.00004229,-0.00006676,-0
 .00200393,0.00059587,-0.00016685,0.00012190,0.00010984,0.00060611,-0.0
 0022895,-0.00026568,-0.00024422,-0.00019595,-0.00010870,0.00001309,0.0
 0007033,-0.00005666,0.00000758,0.00004123,0.00003134,-0.00001878,0.000
 01238,0.00001934,0.00001386,-0.00002596,0.00000644,0.00001076,0.000006
 29,0.00000964,0.00000984,0.00001121,0.00000249,0.00000087,0.00000376,-
 0.00000842,-0.00020846,-0.00000194,0.00003349,-0.00001848,0.00001952,-
 0.00003263,-0.00001972,-0.00005513,0.00000664,-0.00003078,0.00010415,-
 0.00004845,0.00000502,-0.00000769,-0.00001776,0.00001040,-0.00000209,0
 .00000958,0.00001017,0.00000258,0.00001232,0.00000215,0.00001850,-0.00
 001476,0.00376031,0.00146808,-0.00271194,-0.00013494,-0.00048076,0.000
 01180,0.04081710,-0.02044284,-0.00267508,-0.19515019,0.03826626,-0.106
 52177,0.15117251,-0.01632957,0.11197000\\-0.00000090,0.00000188,-0.000
 00391,0.00000184,0.00000301,-0.00000047,0.00000042,-0.00000143,-0.0000
 0172,-0.00000022,0.00000180,-0.00000224,-0.00000132,-0.00000082,0.0000
 0131,0.00000053,0.00000188,-0.00000147,0.00000080,0.00000048,0.0000009
 6,-0.00000045,0.00000146,-0.00000152,0.00000085,0.00000238,-0.00000224
 ,-0.00000066,-0.00000178,0.00000645,-0.00000012,-0.00000058,0.00000083
 ,0.00000016,0.00000043,0.00000040,0.00000135,0.00000019,0.00000128,0.0
 0000014,-0.00000256,0.00000209,0.00000028,-0.00000133,0.00000345,0.,-0
 .00000104,0.00000323,0.00000128,-0.00000010,0.00000352,-0.00000141,0.0
 0000018,-0.00000276,-0.00000092,-0.00000086,-0.00000259,-0.00000057,0.
 00000082,-0.00000386,-0.00000105,0.00000104,-0.00000285,-0.00000201,-0
 .00000008,0.00000030,-0.00000082,-0.00000234,-0.00000022,-0.00000081,-
 0.00000280,0.00000089,0.00000079,-0.00000281,0.00000018,0.00000210,0.0
 0000170,-0.00000221,-0.00000017,-0.00000119,-0.00000020,-0.00000012,0.
 00000074,0.00000032,-0.00000078,0.00000124,0.00000290,0.00000181,0.000
 00048,0.00000016\\\@
 Job cpu time:  0 days  6 hours 59 minutes  2.4 seconds.
 File lengths (MBytes):  RWF=  72648 Int=      0 D2E=      0 Chk=     32 Scr=      1
 Normal termination of Gaussian 09 at Sun Feb  9 17:28:39 2014.
