 Entering Gaussian System, Link 0=g09
 Initial command:
 /usr/caen/gaussian-09revc/g09/l1.exe /scratch/avioli_flux/hetanjin/scratch/Gau-97908.inp -scrdir=/scratch/avioli_flux/hetanjin/scratch/
 Entering Link 1 = /usr/caen/gaussian-09revc/g09/l1.exe PID=     97909.
  
 Copyright (c) 1988,1990,1992,1993,1995,1998,2003,2009,2011,
            Gaussian, Inc.  All Rights Reserved.
  
 This is part of the Gaussian(R) 09 program.  It is based on
 the Gaussian(R) 03 system (copyright 2003, Gaussian, Inc.),
 the Gaussian(R) 98 system (copyright 1998, Gaussian, Inc.),
 the Gaussian(R) 94 system (copyright 1995, Gaussian, Inc.),
 the Gaussian 92(TM) system (copyright 1992, Gaussian, Inc.),
 the Gaussian 90(TM) system (copyright 1990, Gaussian, Inc.),
 the Gaussian 88(TM) system (copyright 1988, Gaussian, Inc.),
 the Gaussian 86(TM) system (copyright 1986, Carnegie Mellon
 University), and the Gaussian 82(TM) system (copyright 1983,
 Carnegie Mellon University). Gaussian is a federally registered
 trademark of Gaussian, Inc.
  
 This software contains proprietary and confidential information,
 including trade secrets, belonging to Gaussian, Inc.
  
 This software is provided under written license and may be
 used, copied, transmitted, or stored only in accord with that
 written license.
  
 The following legend is applicable only to US Government
 contracts under FAR:
  
                    RESTRICTED RIGHTS LEGEND
  
 Use, reproduction and disclosure by the US Government is
 subject to restrictions as set forth in subparagraphs (a)
 and (c) of the Commercial Computer Software - Restricted
 Rights clause in FAR 52.227-19.
  
 Gaussian, Inc.
 340 Quinnipiac St., Bldg. 40, Wallingford CT 06492
  
  
 ---------------------------------------------------------------
 Warning -- This program may not be used in any manner that
 competes with the business of Gaussian, Inc. or will provide
 assistance to any competitor of Gaussian, Inc.  The licensee
 of this program is prohibited from giving any competitor of
 Gaussian, Inc. access to this program.  By using this program,
 the user acknowledges that Gaussian, Inc. is engaged in the
 business of creating and licensing software in the field of
 computational chemistry and represents and warrants to the
 licensee that it is not a competitor of Gaussian, Inc. and that
 it will not use this program in any manner prohibited above.
 ---------------------------------------------------------------
  

 Cite this work as:
 Gaussian 09, Revision C.01,
 M. J. Frisch, G. W. Trucks, H. B. Schlegel, G. E. Scuseria, 
 M. A. Robb, J. R. Cheeseman, G. Scalmani, V. Barone, B. Mennucci, 
 G. A. Petersson, H. Nakatsuji, M. Caricato, X. Li, H. P. Hratchian, 
 A. F. Izmaylov, J. Bloino, G. Zheng, J. L. Sonnenberg, M. Hada, 
 M. Ehara, K. Toyota, R. Fukuda, J. Hasegawa, M. Ishida, T. Nakajima, 
 Y. Honda, O. Kitao, H. Nakai, T. Vreven, J. A. Montgomery, Jr., 
 J. E. Peralta, F. Ogliaro, M. Bearpark, J. J. Heyd, E. Brothers, 
 K. N. Kudin, V. N. Staroverov, T. Keith, R. Kobayashi, J. Normand, 
 K. Raghavachari, A. Rendell, J. C. Burant, S. S. Iyengar, J. Tomasi, 
 M. Cossi, N. Rega, J. M. Millam, M. Klene, J. E. Knox, J. B. Cross, 
 V. Bakken, C. Adamo, J. Jaramillo, R. Gomperts, R. E. Stratmann, 
 O. Yazyev, A. J. Austin, R. Cammi, C. Pomelli, J. W. Ochterski, 
 R. L. Martin, K. Morokuma, V. G. Zakrzewski, G. A. Voth, 
 P. Salvador, J. J. Dannenberg, S. Dapprich, A. D. Daniels, 
 O. Farkas, J. B. Foresman, J. V. Ortiz, J. Cioslowski, 
 and D. J. Fox, Gaussian, Inc., Wallingford CT, 2010.
 
 ******************************************
 Gaussian 09:  EM64L-G09RevC.01 23-Sep-2011
                 4-Mar-2014 
 ******************************************
 %mem=30GB
 %nprocshared=8
 Will use up to    8 processors via shared memory.
 %chk=C9H18O_12_6.chk
 --------------------------
 #p cbs-qb3 opt=calcfc freq
 --------------------------
 1/10=4,14=-1,18=20,19=15,26=3,38=1/1,3;
 2/9=110,12=2,17=6,18=5,40=1/2;
 3/5=4,6=6,7=700,11=2,16=1,25=1,30=1,71=2,74=-5/1,2,3;
 4//1;
 5/5=2,38=5/2;
 8/6=4,10=90,11=11/1;
 11/6=1,8=1,9=11,15=111,16=1/1,2,10;
 10/6=1,7=6,13=1/2;
 6/7=2,8=2,9=2,10=2,28=1/1;
 7/10=1,18=20,25=1/1,2,3,16;
 1/10=4,14=-1,18=20,19=15/3(2);
 2/9=110/2;
 99//99;
 2/9=110/2;
 3/5=4,6=6,7=700,11=2,16=1,25=1,30=1,71=1,74=-5/1,2,3;
 4/5=5,16=3/1;
 5/5=2,38=5/2;
 7//1,2,3,16;
 1/14=-1,18=20,19=15/3(-5);
 2/9=110/2;
 6/7=2,8=2,9=2,10=2,19=2,28=1/1;
 99/9=1/99;
 Leave Link    1 at Tue Mar  4 13:37:53 2014, MaxMem= 4026531840 cpu:      20.6
 (Enter /usr/caen/gaussian-09revc/g09/l101.exe)
 ----------------------------------------
 C9H18O_12_6 using cbs-qb3 to cal. energy
 ----------------------------------------
 Charge =  0 Multiplicity = 1
 Symbolic Z-Matrix:
 C                     3.57153  -1.06087   0.29135 
 H                     3.6323   -1.88088  -0.43088 
 H                     3.46126  -1.49713   1.28879 
 H                     4.50917  -0.50292   0.26468 
 C                     2.39853  -0.15603  -0.02109 
 C                     1.03717  -0.83002   0.07423 
 H                     1.0457   -1.70151  -0.59277 
 H                     0.94873  -1.23215   1.09216 
 C                    -0.18703   0.04035  -0.22663 
 H                    -0.17758   0.34288  -1.28065 
 H                    -0.12182   0.95608   0.36685 
 C                    -1.5039   -0.69181   0.06289 
 H                    -1.54738  -0.9549    1.12876 
 H                    -1.50605  -1.64347  -0.4841 
 C                    -2.78079   0.08524  -0.30936 
 H                    -2.69389   0.38003  -1.36456 
 C                    -4.01687  -0.81563  -0.177 
 H                    -4.1509   -1.1446    0.85953 
 H                    -4.92696  -0.28754  -0.47655 
 H                    -3.9277   -1.71018  -0.80075 
 C                     2.62395   1.04078  -0.8477 
 H                     3.62156   1.24014  -1.23369 
 H                     1.81233   1.478    -1.42205 
 C                    -2.95522   1.36286   0.52493 
 H                    -3.87241   1.88977   0.24535 
 H                    -3.02391   1.12183   1.59183 
 H                    -2.12369   2.05953   0.39439 
 O                     2.48963   1.15472   0.57799 
 
 NAtoms=     28 NQM=        0 NQMF=       0 NMMI=     28 NMMIF=      0
                NMic=       0 NMicF=      0.
                    Isotopes and Nuclear Properties:
 (Nuclear quadrupole moments (NQMom) in fm**2, nuclear magnetic moments (NMagM)
  in nuclear magnetons)

  Atom         1           2           3           4           5           6           7           8           9          10
 IAtWgt=          12           1           1           1          12          12           1           1          12           1
 AtmWgt=  12.0000000   1.0078250   1.0078250   1.0078250  12.0000000  12.0000000   1.0078250   1.0078250  12.0000000   1.0078250
 NucSpn=           0           1           1           1           0           0           1           1           0           1
 AtZEff=   0.0000000   0.0000000   0.0000000   0.0000000   0.0000000   0.0000000   0.0000000   0.0000000   0.0000000   0.0000000
 NQMom=    0.0000000   0.0000000   0.0000000   0.0000000   0.0000000   0.0000000   0.0000000   0.0000000   0.0000000   0.0000000
 NMagM=    0.0000000   2.7928460   2.7928460   2.7928460   0.0000000   0.0000000   2.7928460   2.7928460   0.0000000   2.7928460

  Atom        11          12          13          14          15          16          17          18          19          20
 IAtWgt=           1          12           1           1          12           1          12           1           1           1
 AtmWgt=   1.0078250  12.0000000   1.0078250   1.0078250  12.0000000   1.0078250  12.0000000   1.0078250   1.0078250   1.0078250
 NucSpn=           1           0           1           1           0           1           0           1           1           1
 AtZEff=   0.0000000   0.0000000   0.0000000   0.0000000   0.0000000   0.0000000   0.0000000   0.0000000   0.0000000   0.0000000
 NQMom=    0.0000000   0.0000000   0.0000000   0.0000000   0.0000000   0.0000000   0.0000000   0.0000000   0.0000000   0.0000000
 NMagM=    2.7928460   0.0000000   2.7928460   2.7928460   0.0000000   2.7928460   0.0000000   2.7928460   2.7928460   2.7928460

  Atom        21          22          23          24          25          26          27          28
 IAtWgt=          12           1           1          12           1           1           1          16
 AtmWgt=  12.0000000   1.0078250   1.0078250  12.0000000   1.0078250   1.0078250   1.0078250  15.9949146
 NucSpn=           0           1           1           0           1           1           1           0
 AtZEff=   0.0000000   0.0000000   0.0000000   0.0000000   0.0000000   0.0000000   0.0000000   0.0000000
 NQMom=    0.0000000   0.0000000   0.0000000   0.0000000   0.0000000   0.0000000   0.0000000   0.0000000
 NMagM=    0.0000000   2.7928460   2.7928460   0.0000000   2.7928460   2.7928460   2.7928460   0.0000000
 Leave Link  101 at Tue Mar  4 13:37:54 2014, MaxMem= 4026531840 cpu:       2.8
 (Enter /usr/caen/gaussian-09revc/g09/l103.exe)

 GradGradGradGradGradGradGradGradGradGradGradGradGradGradGradGradGradGrad
 Berny optimization.
 Initialization pass.
                           ----------------------------
                           !    Initial Parameters    !
                           ! (Angstroms and Degrees)  !
 --------------------------                            --------------------------
 ! Name  Definition              Value          Derivative Info.                !
 --------------------------------------------------------------------------------
 ! R1    R(1,2)                  1.0944         calculate D2E/DX2 analytically  !
 ! R2    R(1,3)                  1.0942         calculate D2E/DX2 analytically  !
 ! R3    R(1,4)                  1.0914         calculate D2E/DX2 analytically  !
 ! R4    R(1,5)                  1.514          calculate D2E/DX2 analytically  !
 ! R5    R(5,6)                  1.522          calculate D2E/DX2 analytically  !
 ! R6    R(5,21)                 1.4719         calculate D2E/DX2 analytically  !
 ! R7    R(5,28)                 1.444          calculate D2E/DX2 analytically  !
 ! R8    R(6,7)                  1.0975         calculate D2E/DX2 analytically  !
 ! R9    R(6,8)                  1.098          calculate D2E/DX2 analytically  !
 ! R10   R(6,9)                  1.5319         calculate D2E/DX2 analytically  !
 ! R11   R(9,10)                 1.0966         calculate D2E/DX2 analytically  !
 ! R12   R(9,11)                 1.0932         calculate D2E/DX2 analytically  !
 ! R13   R(9,12)                 1.5343         calculate D2E/DX2 analytically  !
 ! R14   R(12,13)                1.0987         calculate D2E/DX2 analytically  !
 ! R15   R(12,14)                1.0977         calculate D2E/DX2 analytically  !
 ! R16   R(12,15)                1.5404         calculate D2E/DX2 analytically  !
 ! R17   R(15,16)                1.099          calculate D2E/DX2 analytically  !
 ! R18   R(15,17)                1.5352         calculate D2E/DX2 analytically  !
 ! R19   R(15,24)                1.5358         calculate D2E/DX2 analytically  !
 ! R20   R(17,18)                1.0957         calculate D2E/DX2 analytically  !
 ! R21   R(17,19)                1.094          calculate D2E/DX2 analytically  !
 ! R22   R(17,20)                1.0942         calculate D2E/DX2 analytically  !
 ! R23   R(21,22)                1.0881         calculate D2E/DX2 analytically  !
 ! R24   R(21,23)                1.0862         calculate D2E/DX2 analytically  !
 ! R25   R(21,28)                1.4365         calculate D2E/DX2 analytically  !
 ! R26   R(24,25)                1.0941         calculate D2E/DX2 analytically  !
 ! R27   R(24,26)                1.0959         calculate D2E/DX2 analytically  !
 ! R28   R(24,27)                1.0926         calculate D2E/DX2 analytically  !
 ! A1    A(2,1,3)              107.9634         calculate D2E/DX2 analytically  !
 ! A2    A(2,1,4)              108.6153         calculate D2E/DX2 analytically  !
 ! A3    A(2,1,5)              110.7707         calculate D2E/DX2 analytically  !
 ! A4    A(3,1,4)              108.22           calculate D2E/DX2 analytically  !
 ! A5    A(3,1,5)              110.3835         calculate D2E/DX2 analytically  !
 ! A6    A(4,1,5)              110.7956         calculate D2E/DX2 analytically  !
 ! A7    A(1,5,6)              114.5441         calculate D2E/DX2 analytically  !
 ! A8    A(1,5,21)             118.8936         calculate D2E/DX2 analytically  !
 ! A9    A(1,5,28)             114.078          calculate D2E/DX2 analytically  !
 ! A10   A(6,5,21)             122.155          calculate D2E/DX2 analytically  !
 ! A11   A(6,5,28)             115.619          calculate D2E/DX2 analytically  !
 ! A12   A(5,6,7)              107.8556         calculate D2E/DX2 analytically  !
 ! A13   A(5,6,8)              106.9935         calculate D2E/DX2 analytically  !
 ! A14   A(5,6,9)              116.7999         calculate D2E/DX2 analytically  !
 ! A15   A(7,6,8)              105.8563         calculate D2E/DX2 analytically  !
 ! A16   A(7,6,9)              109.7562         calculate D2E/DX2 analytically  !
 ! A17   A(8,6,9)              109.0127         calculate D2E/DX2 analytically  !
 ! A18   A(6,9,10)             109.7933         calculate D2E/DX2 analytically  !
 ! A19   A(6,9,11)             108.7624         calculate D2E/DX2 analytically  !
 ! A20   A(6,9,12)             112.1921         calculate D2E/DX2 analytically  !
 ! A21   A(10,9,11)            106.8696         calculate D2E/DX2 analytically  !
 ! A22   A(10,9,12)            108.6877         calculate D2E/DX2 analytically  !
 ! A23   A(11,9,12)            110.3952         calculate D2E/DX2 analytically  !
 ! A24   A(9,12,13)            109.3471         calculate D2E/DX2 analytically  !
 ! A25   A(9,12,14)            108.7457         calculate D2E/DX2 analytically  !
 ! A26   A(9,12,15)            115.1604         calculate D2E/DX2 analytically  !
 ! A27   A(13,12,14)           106.0066         calculate D2E/DX2 analytically  !
 ! A28   A(13,12,15)           108.8091         calculate D2E/DX2 analytically  !
 ! A29   A(14,12,15)           108.3792         calculate D2E/DX2 analytically  !
 ! A30   A(12,15,16)           107.5646         calculate D2E/DX2 analytically  !
 ! A31   A(12,15,17)           110.522          calculate D2E/DX2 analytically  !
 ! A32   A(12,15,24)           112.489          calculate D2E/DX2 analytically  !
 ! A33   A(16,15,17)           107.6874         calculate D2E/DX2 analytically  !
 ! A34   A(16,15,24)           107.9024         calculate D2E/DX2 analytically  !
 ! A35   A(17,15,24)           110.4791         calculate D2E/DX2 analytically  !
 ! A36   A(15,17,18)           110.8679         calculate D2E/DX2 analytically  !
 ! A37   A(15,17,19)           111.2799         calculate D2E/DX2 analytically  !
 ! A38   A(15,17,20)           111.4057         calculate D2E/DX2 analytically  !
 ! A39   A(18,17,19)           107.5888         calculate D2E/DX2 analytically  !
 ! A40   A(18,17,20)           107.6853         calculate D2E/DX2 analytically  !
 ! A41   A(19,17,20)           107.839          calculate D2E/DX2 analytically  !
 ! A42   A(5,21,22)            119.2493         calculate D2E/DX2 analytically  !
 ! A43   A(5,21,23)            120.6526         calculate D2E/DX2 analytically  !
 ! A44   A(22,21,23)           115.0718         calculate D2E/DX2 analytically  !
 ! A45   A(22,21,28)           115.0405         calculate D2E/DX2 analytically  !
 ! A46   A(23,21,28)           115.0245         calculate D2E/DX2 analytically  !
 ! A47   A(15,24,25)           110.9174         calculate D2E/DX2 analytically  !
 ! A48   A(15,24,26)           110.6704         calculate D2E/DX2 analytically  !
 ! A49   A(15,24,27)           112.2768         calculate D2E/DX2 analytically  !
 ! A50   A(25,24,26)           107.5858         calculate D2E/DX2 analytically  !
 ! A51   A(25,24,27)           107.4804         calculate D2E/DX2 analytically  !
 ! A52   A(26,24,27)           107.7127         calculate D2E/DX2 analytically  !
 ! D1    D(2,1,5,6)             62.8502         calculate D2E/DX2 analytically  !
 ! D2    D(2,1,5,21)           -94.1178         calculate D2E/DX2 analytically  !
 ! D3    D(2,1,5,28)          -160.7062         calculate D2E/DX2 analytically  !
 ! D4    D(3,1,5,6)            -56.6752         calculate D2E/DX2 analytically  !
 ! D5    D(3,1,5,21)           146.3568         calculate D2E/DX2 analytically  !
 ! D6    D(3,1,5,28)            79.7684         calculate D2E/DX2 analytically  !
 ! D7    D(4,1,5,6)           -176.537          calculate D2E/DX2 analytically  !
 ! D8    D(4,1,5,21)            26.495          calculate D2E/DX2 analytically  !
 ! D9    D(4,1,5,28)           -40.0934         calculate D2E/DX2 analytically  !
 ! D10   D(1,5,6,7)            -56.1291         calculate D2E/DX2 analytically  !
 ! D11   D(1,5,6,8)             57.3618         calculate D2E/DX2 analytically  !
 ! D12   D(1,5,6,9)            179.7749         calculate D2E/DX2 analytically  !
 ! D13   D(21,5,6,7)           100.0045         calculate D2E/DX2 analytically  !
 ! D14   D(21,5,6,8)          -146.5045         calculate D2E/DX2 analytically  !
 ! D15   D(21,5,6,9)           -24.0915         calculate D2E/DX2 analytically  !
 ! D16   D(28,5,6,7)           168.114          calculate D2E/DX2 analytically  !
 ! D17   D(28,5,6,8)           -78.395          calculate D2E/DX2 analytically  !
 ! D18   D(28,5,6,9)            44.018          calculate D2E/DX2 analytically  !
 ! D19   D(1,5,21,22)            1.2422         calculate D2E/DX2 analytically  !
 ! D20   D(1,5,21,23)          154.9366         calculate D2E/DX2 analytically  !
 ! D21   D(6,5,21,22)         -153.8996         calculate D2E/DX2 analytically  !
 ! D22   D(6,5,21,23)           -0.2052         calculate D2E/DX2 analytically  !
 ! D23   D(5,6,9,10)            65.9148         calculate D2E/DX2 analytically  !
 ! D24   D(5,6,9,11)           -50.6992         calculate D2E/DX2 analytically  !
 ! D25   D(5,6,9,12)          -173.1157         calculate D2E/DX2 analytically  !
 ! D26   D(7,6,9,10)           -57.2073         calculate D2E/DX2 analytically  !
 ! D27   D(7,6,9,11)          -173.8213         calculate D2E/DX2 analytically  !
 ! D28   D(7,6,9,12)            63.7622         calculate D2E/DX2 analytically  !
 ! D29   D(8,6,9,10)          -172.7271         calculate D2E/DX2 analytically  !
 ! D30   D(8,6,9,11)            70.6589         calculate D2E/DX2 analytically  !
 ! D31   D(8,6,9,12)           -51.7575         calculate D2E/DX2 analytically  !
 ! D32   D(6,9,12,13)           61.2597         calculate D2E/DX2 analytically  !
 ! D33   D(6,9,12,14)          -54.0672         calculate D2E/DX2 analytically  !
 ! D34   D(6,9,12,15)         -175.889          calculate D2E/DX2 analytically  !
 ! D35   D(10,9,12,13)        -177.1357         calculate D2E/DX2 analytically  !
 ! D36   D(10,9,12,14)          67.5374         calculate D2E/DX2 analytically  !
 ! D37   D(10,9,12,15)         -54.2844         calculate D2E/DX2 analytically  !
 ! D38   D(11,9,12,13)         -60.2256         calculate D2E/DX2 analytically  !
 ! D39   D(11,9,12,14)        -175.5525         calculate D2E/DX2 analytically  !
 ! D40   D(11,9,12,15)          62.6257         calculate D2E/DX2 analytically  !
 ! D41   D(9,12,15,16)          54.1539         calculate D2E/DX2 analytically  !
 ! D42   D(9,12,15,17)         171.4614         calculate D2E/DX2 analytically  !
 ! D43   D(9,12,15,24)         -64.5321         calculate D2E/DX2 analytically  !
 ! D44   D(13,12,15,16)        177.2918         calculate D2E/DX2 analytically  !
 ! D45   D(13,12,15,17)        -65.4007         calculate D2E/DX2 analytically  !
 ! D46   D(13,12,15,24)         58.6058         calculate D2E/DX2 analytically  !
 ! D47   D(14,12,15,16)        -67.8655         calculate D2E/DX2 analytically  !
 ! D48   D(14,12,15,17)         49.442          calculate D2E/DX2 analytically  !
 ! D49   D(14,12,15,24)        173.4485         calculate D2E/DX2 analytically  !
 ! D50   D(12,15,17,18)         62.5401         calculate D2E/DX2 analytically  !
 ! D51   D(12,15,17,19)       -177.7546         calculate D2E/DX2 analytically  !
 ! D52   D(12,15,17,20)        -57.3704         calculate D2E/DX2 analytically  !
 ! D53   D(16,15,17,18)        179.7719         calculate D2E/DX2 analytically  !
 ! D54   D(16,15,17,19)        -60.5229         calculate D2E/DX2 analytically  !
 ! D55   D(16,15,17,20)         59.8614         calculate D2E/DX2 analytically  !
 ! D56   D(24,15,17,18)        -62.614          calculate D2E/DX2 analytically  !
 ! D57   D(24,15,17,19)         57.0913         calculate D2E/DX2 analytically  !
 ! D58   D(24,15,17,20)        177.4755         calculate D2E/DX2 analytically  !
 ! D59   D(12,15,24,25)       -179.5622         calculate D2E/DX2 analytically  !
 ! D60   D(12,15,24,26)        -60.2279         calculate D2E/DX2 analytically  !
 ! D61   D(12,15,24,27)         60.1671         calculate D2E/DX2 analytically  !
 ! D62   D(16,15,24,25)         61.9499         calculate D2E/DX2 analytically  !
 ! D63   D(16,15,24,26)       -178.7158         calculate D2E/DX2 analytically  !
 ! D64   D(16,15,24,27)        -58.3207         calculate D2E/DX2 analytically  !
 ! D65   D(17,15,24,25)        -55.5319         calculate D2E/DX2 analytically  !
 ! D66   D(17,15,24,26)         63.8023         calculate D2E/DX2 analytically  !
 ! D67   D(17,15,24,27)       -175.8026         calculate D2E/DX2 analytically  !
 --------------------------------------------------------------------------------
 Trust Radius=3.00D-01 FncErr=1.00D-07 GrdErr=1.00D-06
 Number of steps in this run=    157 maximum allowed number of steps=    168.
 GradGradGradGradGradGradGradGradGradGradGradGradGradGradGradGradGradGrad

 Leave Link  103 at Tue Mar  4 13:37:54 2014, MaxMem= 4026531840 cpu:       0.2
 (Enter /usr/caen/gaussian-09revc/g09/l202.exe)
                          Input orientation:                          
 ---------------------------------------------------------------------
 Center     Atomic      Atomic             Coordinates (Angstroms)
 Number     Number       Type             X           Y           Z
 ---------------------------------------------------------------------
      1          6           0        3.571531   -1.060868    0.291348
      2          1           0        3.632298   -1.880878   -0.430876
      3          1           0        3.461259   -1.497133    1.288786
      4          1           0        4.509167   -0.502924    0.264678
      5          6           0        2.398526   -0.156030   -0.021092
      6          6           0        1.037171   -0.830017    0.074230
      7          1           0        1.045702   -1.701505   -0.592766
      8          1           0        0.948734   -1.232145    1.092156
      9          6           0       -0.187027    0.040348   -0.226632
     10          1           0       -0.177583    0.342879   -1.280654
     11          1           0       -0.121817    0.956080    0.366845
     12          6           0       -1.503902   -0.691808    0.062889
     13          1           0       -1.547384   -0.954896    1.128760
     14          1           0       -1.506049   -1.643467   -0.484101
     15          6           0       -2.780790    0.085237   -0.309358
     16          1           0       -2.693893    0.380029   -1.364555
     17          6           0       -4.016867   -0.815630   -0.177002
     18          1           0       -4.150898   -1.144595    0.859529
     19          1           0       -4.926960   -0.287543   -0.476553
     20          1           0       -3.927695   -1.710178   -0.800753
     21          6           0        2.623945    1.040784   -0.847696
     22          1           0        3.621556    1.240142   -1.233689
     23          1           0        1.812332    1.477998   -1.422049
     24          6           0       -2.955215    1.362857    0.524934
     25          1           0       -3.872409    1.889769    0.245352
     26          1           0       -3.023911    1.121831    1.591833
     27          1           0       -2.123692    2.059529    0.394388
     28          8           0        2.489625    1.154721    0.577993
 ---------------------------------------------------------------------
                    Distance matrix (angstroms):
                    1          2          3          4          5
     1  C    0.000000
     2  H    1.094402   0.000000
     3  H    1.094244   1.770241   0.000000
     4  H    1.091409   1.775233   1.770695   0.000000
     5  C    1.514031   2.159911   2.154934   2.157963   0.000000
     6  C    2.554097   2.845018   2.792202   3.492566   1.522049
     7  H    2.751706   2.597857   3.068700   3.763960   2.132003
     8  H    2.747671   3.153093   2.534100   3.727354   2.121142
     9  C    3.950663   4.280195   4.239143   4.752975   2.601133
    10  H    4.300878   4.492484   4.819630   5.006901   2.910626
    11  H    4.208871   4.772638   4.439219   4.856454   2.781980
    12  C    5.093959   5.295115   5.177277   6.019418   3.939931
    13  H    5.188042   5.488079   5.040450   6.134552   4.186950
    14  H    5.169387   5.144104   5.276238   6.168009   4.203873
    15  C    6.482776   6.708806   6.634842   7.336138   5.192940
    16  H    6.638805   6.782636   6.960593   7.437612   5.293863
    17  C    7.606792   7.727155   7.650840   8.543192   6.451097
    18  H    7.743756   7.923724   7.632397   8.704155   6.681894
    19  H    8.568083   8.706417   8.656890   9.467645   7.340810
    20  H    7.606095   7.570960   7.681680   8.589135   6.560817
    21  C    2.571436   3.118754   3.421502   2.678521   1.471887
    22  H    2.760958   3.222637   3.725755   2.463988   2.217090
    23  H    3.532188   3.946739   4.349597   3.747268   2.230774
    24  C    6.966162   7.404777   7.066410   7.698433   5.591753
    25  H    8.007535   8.425894   8.145093   8.716431   6.601584
    26  H    7.067906   7.577119   7.000589   7.819746   5.799765
    27  H    6.494849   7.024193   6.681427   7.111808   5.052898
    28  O    2.482241   3.396819   2.912324   2.631445   1.444046
                    6          7          8          9         10
     6  C    0.000000
     7  H    1.097473   0.000000
     8  H    1.098044   1.751760   0.000000
     9  C    1.531899   2.165116   2.156013   0.000000
    10  H    2.164953   2.479742   3.062600   1.096621   0.000000
    11  H    2.149190   3.057239   2.541748   1.093175   1.758800
    12  C    2.544854   2.819548   2.714181   1.534286   2.152860
    13  H    2.794200   3.200808   2.511735   2.162908   3.060368
    14  H    2.727893   2.554723   2.946138   2.154377   2.518906
    15  C    3.944826   4.232589   4.196318   2.595470   2.790427
    16  H    4.177936   4.348909   4.680092   2.773919   2.517982
    17  C    5.060299   5.156282   5.142124   3.924645   4.159362
    18  H    5.256588   5.424386   5.105686   4.277395   4.751862
    19  H    6.014025   6.138850   6.154421   4.757829   4.858044
    20  H    5.117634   4.977752   5.252731   4.169719   4.302172
    21  C    2.620629   3.174270   3.425721   3.047648   2.919432
    22  H    3.560233   3.962208   4.320386   4.118127   3.903940
    23  H    2.857737   3.374118   3.796301   2.737388   2.295267
    24  C    4.577224   5.162064   4.721927   3.158599   3.466373
    25  H    5.615202   6.147154   5.805760   4.150321   4.286409
    26  H    4.754494   5.413451   4.644652   3.538973   4.118195
    27  H    4.294535   5.016464   4.556512   2.865908   3.088688
    28  O    2.510495   3.407876   2.887185   3.008939   3.350769
                   11         12         13         14         15
    11  H    0.000000
    12  C    2.172115   0.000000
    13  H    2.502915   1.098721   0.000000
    14  H    3.065592   1.097660   1.754183   0.000000
    15  C    2.878499   1.540393   2.161331   2.154975   0.000000
    16  H    3.153594   2.145346   3.051742   2.506134   1.099042
    17  C    4.313484   2.527424   2.796919   2.661547   1.535241
    18  H    4.570456   2.801114   2.624263   3.008229   2.180821
    19  H    5.034612   3.488804   3.800516   3.679840   2.184712
    20  H    4.791338   2.767260   3.155844   2.443172   2.186407
    21  C    3.003580   4.568387   5.028827   4.939054   5.514892
    22  H    4.081083   5.628842   6.092397   5.930381   6.571014
    23  H    2.685791   4.232081   4.869629   4.651338   4.926929
    24  C    2.866811   2.557625   2.778232   3.486577   1.535832
    25  H    3.866972   3.508227   3.778660   4.314570   2.180750
    26  H    3.154397   2.817336   2.589858   3.776279   2.179028
    27  H    2.286014   2.839698   3.155660   3.855568   2.196558
    28  O    2.627484   4.429815   4.588166   4.992325   5.450547
                   16         17         18         19         20
    16  H    0.000000
    17  C    2.142462   0.000000
    18  H    3.064946   1.095709   0.000000
    19  H    2.494151   1.094018   1.766897   0.000000
    20  H    2.491808   1.094181   1.768118   1.768481   0.000000
    21  C    5.383599   6.927950   7.320451   7.675830   7.105912
    22  H    6.375093   7.980494   8.395211   8.716892   8.116835
    23  H    4.638416   6.386739   6.902442   7.030587   6.595331
    24  C    2.145789   2.523019   2.798022   2.759452   3.485213
    25  H    2.502002   2.741976   3.108397   2.524661   3.749268
    26  H    3.065846   2.805084   2.634968   3.144225   3.815962
    27  H    2.497945   3.489576   3.819991   3.758403   4.346663
    28  O    5.589499   6.840083   7.032970   7.628757   7.161744
                   21         22         23         24         25
    21  C    0.000000
    22  H    1.088100   0.000000
    23  H    1.086164   1.834488   0.000000
    24  C    5.754552   6.808945   5.151068   0.000000
    25  H    6.642149   7.666100   5.938524   1.094097   0.000000
    26  H    6.152735   7.222174   5.709605   1.095941   1.767113
    27  H    5.012053   6.027429   4.373775   1.092623   1.763247
    28  O    1.436528   2.137933   2.136212   5.449075   6.412989
                   26         27         28
    26  H    0.000000
    27  H    1.767356   0.000000
    28  O    5.606071   4.704794   0.000000
 Stoichiometry    C9H18O
 Framework group  C1[X(C9H18O)]
 Deg. of freedom    78
 Full point group                 C1      NOp   1
 Largest Abelian subgroup         C1      NOp   1
 Largest concise Abelian subgroup C1      NOp   1
                         Standard orientation:                         
 ---------------------------------------------------------------------
 Center     Atomic      Atomic             Coordinates (Angstroms)
 Number     Number       Type             X           Y           Z
 ---------------------------------------------------------------------
      1          6           0       -3.571531   -1.060868   -0.291348
      2          1           0       -3.632298   -1.880878    0.430876
      3          1           0       -3.461259   -1.497133   -1.288786
      4          1           0       -4.509167   -0.502924   -0.264678
      5          6           0       -2.398526   -0.156030    0.021092
      6          6           0       -1.037171   -0.830017   -0.074230
      7          1           0       -1.045702   -1.701505    0.592766
      8          1           0       -0.948734   -1.232145   -1.092156
      9          6           0        0.187027    0.040348    0.226632
     10          1           0        0.177583    0.342879    1.280654
     11          1           0        0.121817    0.956080   -0.366845
     12          6           0        1.503902   -0.691808   -0.062889
     13          1           0        1.547384   -0.954896   -1.128760
     14          1           0        1.506049   -1.643467    0.484101
     15          6           0        2.780790    0.085237    0.309358
     16          1           0        2.693893    0.380029    1.364555
     17          6           0        4.016867   -0.815630    0.177002
     18          1           0        4.150898   -1.144595   -0.859529
     19          1           0        4.926960   -0.287543    0.476553
     20          1           0        3.927695   -1.710178    0.800753
     21          6           0       -2.623945    1.040784    0.847696
     22          1           0       -3.621556    1.240142    1.233689
     23          1           0       -1.812332    1.477998    1.422049
     24          6           0        2.955215    1.362857   -0.524934
     25          1           0        3.872409    1.889769   -0.245352
     26          1           0        3.023911    1.121831   -1.591833
     27          1           0        2.123692    2.059529   -0.394388
     28          8           0       -2.489625    1.154721   -0.577993
 ---------------------------------------------------------------------
 Rotational constants (GHZ):      3.1174911      0.4883313      0.4500941
 Leave Link  202 at Tue Mar  4 13:37:54 2014, MaxMem= 4026531840 cpu:       0.5
 (Enter /usr/caen/gaussian-09revc/g09/l301.exe)
 Standard basis: 6-311G(2d,d,p) (5D, 7F)
 Ernie: Thresh=  0.10000D-02 Tol=  0.10000D-05 Strict=F.
 There are   288 symmetry adapted basis functions of A   symmetry.
 Integral buffers will be    131072 words long.
 Raffenetti 2 integral format.
 Two-electron integral symmetry is turned on.
   288 basis functions,   464 primitive gaussians,   298 cartesian basis functions
    40 alpha electrons       40 beta electrons
       nuclear repulsion energy       548.5394904333 Hartrees.
 IExCor=  402 DFT=T Ex+Corr=B3LYP ExCW=0 ScaHFX=  0.200000
 ScaDFX=  0.800000  0.720000  1.000000  0.810000 ScalE2=  1.000000  1.000000
 IRadAn=      0 IRanWt=     -1 IRanGd=            0 ICorTp=0
 NAtoms=   28 NActive=   28 NUniq=   28 SFac= 1.00D+00 NAtFMM=   60 NAOKFM=F Big=F
 Leave Link  301 at Tue Mar  4 13:37:55 2014, MaxMem= 4026531840 cpu:       0.8
 (Enter /usr/caen/gaussian-09revc/g09/l302.exe)
 NPDir=0 NMtPBC=     1 NCelOv=     1 NCel=       1 NClECP=     1 NCelD=      1
         NCelK=      1 NCelE2=     1 NClLst=     1 CellRange=     0.0.
 One-electron integrals computed using PRISM.
 NBasis=   288 RedAO= T  NBF=   288
 NBsUse=   288 1.00D-06 NBFU=   288
 Precomputing XC quadrature grid using
 IXCGrd= 2 IRadAn=           0 IRanWt=          -1 IRanGd=           0 AccXCQ= 0.00D+00.
 NRdTot=    1783 NPtTot=      227338 NUsed=      240196 NTot=      240228
 NSgBfM=   298   298   298   298   298 NAtAll=    28    28.
 Leave Link  302 at Tue Mar  4 13:37:56 2014, MaxMem= 4026531840 cpu:       5.6
 (Enter /usr/caen/gaussian-09revc/g09/l303.exe)
 DipDrv:  MaxL=1.
 Leave Link  303 at Tue Mar  4 13:37:57 2014, MaxMem= 4026531840 cpu:       2.4
 (Enter /usr/caen/gaussian-09revc/g09/l401.exe)
 Harris functional with IExCor=  402 diagonalized for initial guess.
 ExpMin= 1.03D-01 ExpMax= 8.59D+03 ExpMxC= 1.30D+03 IAcc=1 IRadAn=         1 AccDes= 0.00D+00
 HarFok:  IExCor=  402 AccDes= 0.00D+00 IRadAn=         1 IDoV= 1
 ScaDFX=  1.000000  1.000000  1.000000  1.000000
 FoFCou: FMM=F IPFlag=           0 FMFlag=      100000 FMFlg1=           0
         NFxFlg=           0 DoJE=T BraDBF=F KetDBF=T FulRan=T
         Omega=  0.000000  0.000000  1.000000  0.000000  0.000000 ICntrl=     500 IOpCl=  0
         NMat0=    1 NMatS0=    1 NMatT0=    0 NMatD0=    1 NMtDS0=    0 NMtDT0=    0
         I1Cent=           4 NGrid=           0.
 Petite list used in FoFCou.
 Harris En= -429.186776905478    
 Initial guess orbital symmetries:
       Occupied  (A) (A) (A) (A) (A) (A) (A) (A) (A) (A) (A) (A)
                 (A) (A) (A) (A) (A) (A) (A) (A) (A) (A) (A) (A)
                 (A) (A) (A) (A) (A) (A) (A) (A) (A) (A) (A) (A)
                 (A) (A) (A) (A)
       Virtual   (A) (A) (A) (A) (A) (A) (A) (A) (A) (A) (A) (A)
                 (A) (A) (A) (A) (A) (A) (A) (A) (A) (A) (A) (A)
                 (A) (A) (A) (A) (A) (A) (A) (A) (A) (A) (A) (A)
                 (A) (A) (A) (A) (A) (A) (A) (A) (A) (A) (A) (A)
                 (A) (A) (A) (A) (A) (A) (A) (A) (A) (A) (A) (A)
                 (A) (A) (A) (A) (A) (A) (A) (A) (A) (A) (A) (A)
                 (A) (A) (A) (A) (A) (A) (A) (A) (A) (A) (A) (A)
                 (A) (A) (A) (A) (A) (A) (A) (A) (A) (A) (A) (A)
                 (A) (A) (A) (A) (A) (A) (A) (A) (A) (A) (A) (A)
                 (A) (A) (A) (A) (A) (A) (A) (A) (A) (A) (A) (A)
                 (A) (A) (A) (A) (A) (A) (A) (A) (A) (A) (A) (A)
                 (A) (A) (A) (A) (A) (A) (A) (A) (A) (A) (A) (A)
                 (A) (A) (A) (A) (A) (A) (A) (A) (A) (A) (A) (A)
                 (A) (A) (A) (A) (A) (A) (A) (A) (A) (A) (A) (A)
                 (A) (A) (A) (A) (A) (A) (A) (A) (A) (A) (A) (A)
                 (A) (A) (A) (A) (A) (A) (A) (A) (A) (A) (A) (A)
                 (A) (A) (A) (A) (A) (A) (A) (A) (A) (A) (A) (A)
                 (A) (A) (A) (A) (A) (A) (A) (A) (A) (A) (A) (A)
                 (A) (A) (A) (A) (A) (A) (A) (A) (A) (A) (A) (A)
                 (A) (A) (A) (A) (A) (A) (A) (A) (A) (A) (A) (A)
                 (A) (A) (A) (A) (A) (A) (A) (A)
 The electronic state of the initial guess is 1-A.
 Leave Link  401 at Tue Mar  4 13:38:00 2014, MaxMem= 4026531840 cpu:      11.8
 (Enter /usr/caen/gaussian-09revc/g09/l502.exe)
 Closed shell SCF:
 Requested convergence on RMS density matrix=1.00D-08 within 128 cycles.
 Requested convergence on MAX density matrix=1.00D-06.
 Requested convergence on             energy=1.00D-06.
 No special actions if energy rises.
 Using DIIS extrapolation, IDIIS=  1040.
 Integral symmetry usage will be decided dynamically.
       239931 words used for storage of precomputed grid.
 Keep R1 ints in memory in canonical form, NReq=1006312517.
 IEnd=      529127 IEndB=      529127 NGot=  4026531840 MDV=  3033690352
 LenX=  3033690352 LenY=  3033601107
 Symmetry not used in FoFDir.
 MinBra= 0 MaxBra= 2 Meth= 1.
 IRaf=       0 NMat=   1 IRICut=       1 DoRegI=T DoRafI=F ISym2E= 0 JSym2E=0.
 Integral accuracy reduced to 1.0D-05 until final iterations.

 Cycle   1  Pass 0  IDiag  1:
 E= -428.756980004506    
 DIIS: error= 3.77D-02 at cycle   1 NSaved=   1.
 NSaved= 1 IEnMin= 1 EnMin= -428.756980004506     IErMin= 1 ErrMin= 3.77D-02
 ErrMax= 3.77D-02 EMaxC= 1.00D-01 BMatC= 3.59D-01 BMatP= 3.59D-01
 IDIUse=3 WtCom= 6.23D-01 WtEn= 3.77D-01
 Coeff-Com:  0.100D+01
 Coeff-En:   0.100D+01
 Coeff:      0.100D+01
 Gap=     0.322 Goal=   None    Shift=    0.000
 GapD=    0.322 DampG=1.000 DampE=0.500 DampFc=0.5000 IDamp=-1.
 Damping current iteration by 5.00D-01
 RMSDP=3.55D-03 MaxDP=1.20D-01              OVMax= 1.97D-01

 Cycle   2  Pass 0  IDiag  1:
 E= -428.911417149065     Delta-E=       -0.154437144560 Rises=F Damp=T
 DIIS: error= 4.54D-03 at cycle   2 NSaved=   2.
 NSaved= 2 IEnMin= 2 EnMin= -428.911417149065     IErMin= 2 ErrMin= 4.54D-03
 ErrMax= 4.54D-03 EMaxC= 1.00D-01 BMatC= 1.73D-02 BMatP= 3.59D-01
 IDIUse=3 WtCom= 9.55D-01 WtEn= 4.54D-02
 Coeff-Com:  0.647D-01 0.935D+00
 Coeff-En:   0.142D+00 0.858D+00
 Coeff:      0.682D-01 0.932D+00
 Gap=     0.344 Goal=   None    Shift=    0.000
 RMSDP=6.67D-04 MaxDP=1.78D-02 DE=-1.54D-01 OVMax= 1.12D-01

 Cycle   3  Pass 0  IDiag  1:
 E= -429.108117251508     Delta-E=       -0.196700102443 Rises=F Damp=F
 DIIS: error= 4.83D-03 at cycle   3 NSaved=   3.
 NSaved= 3 IEnMin= 3 EnMin= -429.108117251508     IErMin= 2 ErrMin= 4.54D-03
 ErrMax= 4.83D-03 EMaxC= 1.00D-01 BMatC= 5.92D-03 BMatP= 1.73D-02
 IDIUse=3 WtCom= 9.52D-01 WtEn= 4.83D-02
 Coeff-Com: -0.173D-01 0.329D+00 0.689D+00
 Coeff-En:   0.000D+00 0.000D+00 0.100D+01
 Coeff:     -0.164D-01 0.313D+00 0.704D+00
 Gap=     0.299 Goal=   None    Shift=    0.000
 RMSDP=3.16D-04 MaxDP=1.02D-02 DE=-1.97D-01 OVMax= 1.95D-02

 Cycle   4  Pass 0  IDiag  1:
 E= -429.110534006988     Delta-E=       -0.002416755480 Rises=F Damp=F
 DIIS: error= 5.60D-03 at cycle   4 NSaved=   4.
 NSaved= 4 IEnMin= 4 EnMin= -429.110534006988     IErMin= 2 ErrMin= 4.54D-03
 ErrMax= 5.60D-03 EMaxC= 1.00D-01 BMatC= 3.58D-03 BMatP= 5.92D-03
 IDIUse=3 WtCom= 9.44D-01 WtEn= 5.60D-02
 Coeff-Com: -0.175D-01 0.982D-01 0.456D+00 0.463D+00
 Coeff-En:   0.000D+00 0.000D+00 0.358D+00 0.642D+00
 Coeff:     -0.165D-01 0.927D-01 0.451D+00 0.473D+00
 Gap=     0.308 Goal=   None    Shift=    0.000
 RMSDP=1.52D-04 MaxDP=7.66D-03 DE=-2.42D-03 OVMax= 1.06D-02

 Cycle   5  Pass 0  IDiag  1:
 E= -429.113177717459     Delta-E=       -0.002643710470 Rises=F Damp=F
 DIIS: error= 1.29D-03 at cycle   5 NSaved=   5.
 NSaved= 5 IEnMin= 5 EnMin= -429.113177717459     IErMin= 5 ErrMin= 1.29D-03
 ErrMax= 1.29D-03 EMaxC= 1.00D-01 BMatC= 1.51D-04 BMatP= 3.58D-03
 IDIUse=3 WtCom= 9.87D-01 WtEn= 1.29D-02
 Coeff-Com: -0.716D-02 0.247D-01 0.181D+00 0.246D+00 0.555D+00
 Coeff-En:   0.000D+00 0.000D+00 0.000D+00 0.000D+00 0.100D+01
 Coeff:     -0.707D-02 0.244D-01 0.179D+00 0.243D+00 0.561D+00
 Gap=     0.305 Goal=   None    Shift=    0.000
 RMSDP=3.98D-05 MaxDP=1.55D-03 DE=-2.64D-03 OVMax= 2.42D-03

 Cycle   6  Pass 0  IDiag  1:
 E= -429.113282907952     Delta-E=       -0.000105190493 Rises=F Damp=F
 DIIS: error= 2.08D-04 at cycle   6 NSaved=   6.
 NSaved= 6 IEnMin= 6 EnMin= -429.113282907952     IErMin= 6 ErrMin= 2.08D-04
 ErrMax= 2.08D-04 EMaxC= 1.00D-01 BMatC= 1.37D-05 BMatP= 1.51D-04
 IDIUse=3 WtCom= 9.98D-01 WtEn= 2.08D-03
 Coeff-Com: -0.175D-02 0.218D-02 0.477D-01 0.811D-01 0.297D+00 0.574D+00
 Coeff-En:   0.000D+00 0.000D+00 0.000D+00 0.000D+00 0.267D-01 0.973D+00
 Coeff:     -0.175D-02 0.217D-02 0.477D-01 0.809D-01 0.296D+00 0.575D+00
 Gap=     0.305 Goal=   None    Shift=    0.000
 RMSDP=9.40D-06 MaxDP=5.64D-04 DE=-1.05D-04 OVMax= 5.94D-04

 Initial convergence to 1.0D-05 achieved.  Increase integral accuracy.
 Cycle   7  Pass 1  IDiag  1:
 E= -429.113363041956     Delta-E=       -0.000080134004 Rises=F Damp=F
 DIIS: error= 1.69D-05 at cycle   1 NSaved=   1.
 NSaved= 1 IEnMin= 1 EnMin= -429.113363041956     IErMin= 1 ErrMin= 1.69D-05
 ErrMax= 1.69D-05 EMaxC= 1.00D-01 BMatC= 3.12D-07 BMatP= 3.12D-07
 IDIUse=1 WtCom= 1.00D+00 WtEn= 0.00D+00
 Coeff-Com:  0.100D+01
 Coeff:      0.100D+01
 Gap=     0.305 Goal=   None    Shift=    0.000
 RMSDP=9.40D-06 MaxDP=5.64D-04 DE=-8.01D-05 OVMax= 1.67D-04

 Cycle   8  Pass 1  IDiag  1:
 E= -429.113363203848     Delta-E=       -0.000000161892 Rises=F Damp=F
 DIIS: error= 2.04D-05 at cycle   2 NSaved=   2.
 NSaved= 2 IEnMin= 2 EnMin= -429.113363203848     IErMin= 1 ErrMin= 1.69D-05
 ErrMax= 2.04D-05 EMaxC= 1.00D-01 BMatC= 2.04D-07 BMatP= 3.12D-07
 IDIUse=1 WtCom= 1.00D+00 WtEn= 0.00D+00
 Coeff-Com:  0.434D+00 0.566D+00
 Coeff:      0.434D+00 0.566D+00
 Gap=     0.305 Goal=   None    Shift=    0.000
 RMSDP=1.71D-06 MaxDP=8.05D-05 DE=-1.62D-07 OVMax= 1.04D-04

 Cycle   9  Pass 1  IDiag  1:
 E= -429.113363378233     Delta-E=       -0.000000174385 Rises=F Damp=F
 DIIS: error= 1.20D-05 at cycle   3 NSaved=   3.
 NSaved= 3 IEnMin= 3 EnMin= -429.113363378233     IErMin= 3 ErrMin= 1.20D-05
 ErrMax= 1.20D-05 EMaxC= 1.00D-01 BMatC= 2.99D-08 BMatP= 2.04D-07
 IDIUse=1 WtCom= 1.00D+00 WtEn= 0.00D+00
 Coeff-Com:  0.400D-01 0.275D+00 0.685D+00
 Coeff:      0.400D-01 0.275D+00 0.685D+00
 Gap=     0.305 Goal=   None    Shift=    0.000
 RMSDP=5.53D-07 MaxDP=2.18D-05 DE=-1.74D-07 OVMax= 3.22D-05

 Cycle  10  Pass 1  IDiag  1:
 E= -429.113363399676     Delta-E=       -0.000000021443 Rises=F Damp=F
 DIIS: error= 7.51D-06 at cycle   4 NSaved=   4.
 NSaved= 4 IEnMin= 4 EnMin= -429.113363399676     IErMin= 4 ErrMin= 7.51D-06
 ErrMax= 7.51D-06 EMaxC= 1.00D-01 BMatC= 5.99D-09 BMatP= 2.99D-08
 IDIUse=1 WtCom= 1.00D+00 WtEn= 0.00D+00
 Coeff-Com: -0.956D-02 0.122D+00 0.412D+00 0.476D+00
 Coeff:     -0.956D-02 0.122D+00 0.412D+00 0.476D+00
 Gap=     0.305 Goal=   None    Shift=    0.000
 RMSDP=2.19D-07 MaxDP=1.07D-05 DE=-2.14D-08 OVMax= 1.57D-05

 Cycle  11  Pass 1  IDiag  1:
 E= -429.113363403808     Delta-E=       -0.000000004132 Rises=F Damp=F
 DIIS: error= 1.53D-06 at cycle   5 NSaved=   5.
 NSaved= 5 IEnMin= 5 EnMin= -429.113363403808     IErMin= 5 ErrMin= 1.53D-06
 ErrMax= 1.53D-06 EMaxC= 1.00D-01 BMatC= 3.57D-10 BMatP= 5.99D-09
 IDIUse=1 WtCom= 1.00D+00 WtEn= 0.00D+00
 Coeff-Com: -0.843D-02 0.498D-01 0.185D+00 0.273D+00 0.501D+00
 Coeff:     -0.843D-02 0.498D-01 0.185D+00 0.273D+00 0.501D+00
 Gap=     0.305 Goal=   None    Shift=    0.000
 RMSDP=5.53D-08 MaxDP=1.62D-06 DE=-4.13D-09 OVMax= 2.77D-06

 Cycle  12  Pass 1  IDiag  1:
 E= -429.113363404100     Delta-E=       -0.000000000292 Rises=F Damp=F
 DIIS: error= 1.58D-07 at cycle   6 NSaved=   6.
 NSaved= 6 IEnMin= 6 EnMin= -429.113363404100     IErMin= 6 ErrMin= 1.58D-07
 ErrMax= 1.58D-07 EMaxC= 1.00D-01 BMatC= 6.75D-12 BMatP= 3.57D-10
 IDIUse=1 WtCom= 1.00D+00 WtEn= 0.00D+00
 Coeff-Com: -0.230D-02 0.958D-02 0.381D-01 0.633D-01 0.181D+00 0.711D+00
 Coeff:     -0.230D-02 0.958D-02 0.381D-01 0.633D-01 0.181D+00 0.711D+00
 Gap=     0.305 Goal=   None    Shift=    0.000
 RMSDP=1.03D-08 MaxDP=3.22D-07 DE=-2.92D-10 OVMax= 5.33D-07

 Cycle  13  Pass 1  IDiag  1:
 E= -429.113363404107     Delta-E=       -0.000000000007 Rises=F Damp=F
 DIIS: error= 3.68D-08 at cycle   7 NSaved=   7.
 NSaved= 7 IEnMin= 7 EnMin= -429.113363404107     IErMin= 7 ErrMin= 3.68D-08
 ErrMax= 3.68D-08 EMaxC= 1.00D-01 BMatC= 6.65D-13 BMatP= 6.75D-12
 IDIUse=1 WtCom= 1.00D+00 WtEn= 0.00D+00
 Coeff-Com: -0.420D-03 0.913D-03 0.433D-02 0.943D-02 0.455D-01 0.308D+00
 Coeff-Com:  0.632D+00
 Coeff:     -0.420D-03 0.913D-03 0.433D-02 0.943D-02 0.455D-01 0.308D+00
 Coeff:      0.632D+00
 Gap=     0.305 Goal=   None    Shift=    0.000
 RMSDP=3.06D-09 MaxDP=1.06D-07 DE=-7.05D-12 OVMax= 2.16D-07

 SCF Done:  E(RB3LYP) =  -429.113363404     A.U. after   13 cycles
             Convg  =    0.3057D-08             -V/T =  2.0046
 KE= 4.271378154364D+02 PE=-2.093953732534D+03 EE= 6.891630632602D+02
 Leave Link  502 at Tue Mar  4 13:39:04 2014, MaxMem= 4026531840 cpu:     411.1
 (Enter /usr/caen/gaussian-09revc/g09/l801.exe)
 Range of M.O.s used for correlation:     1   288
 NBasis=   288 NAE=    40 NBE=    40 NFC=     0 NFV=     0
 NROrb=    288 NOA=    40 NOB=    40 NVA=   248 NVB=   248
 Leave Link  801 at Tue Mar  4 13:39:04 2014, MaxMem= 4026531840 cpu:       0.2
 (Enter /usr/caen/gaussian-09revc/g09/l1101.exe)
 Using compressed storage, NAtomX=    28.
 Will process  29 centers per pass.
 Leave Link 1101 at Tue Mar  4 13:39:06 2014, MaxMem= 4026531840 cpu:       9.2
 (Enter /usr/caen/gaussian-09revc/g09/l1102.exe)
 Symmetrizing basis deriv contribution to polar:
 IMax=3 JMax=2 DiffMx= 0.00D+00
 Leave Link 1102 at Tue Mar  4 13:39:07 2014, MaxMem= 4026531840 cpu:       1.5
 (Enter /usr/caen/gaussian-09revc/g09/l1110.exe)
 Forming Gx(P) for the SCF density, NAtomX=    28.
 Integral derivatives from FoFDir/FoFCou, PRISM(SPDF).
 Do as many integral derivatives as possible in FoFDir.
 G2DrvN: MDV=    4026531512.
 G2DrvN: will do    29 centers at a time, making    1 passes doing MaxLOS=2.
 Calling FoFCou, ICntrl=  3107 FMM=F I1Cent=   0 AccDes= 0.00D+00.
 FoFCou: FMM=F IPFlag=           0 FMFlag=      100000 FMFlg1=           0
         NFxFlg=           0 DoJE=F BraDBF=F KetDBF=F FulRan=T
         Omega=  0.000000  0.000000  1.000000  0.000000  0.000000 ICntrl=    3107 IOpCl=  0
         NMat0=    1 NMatS0=    1 NMatT0=    0 NMatD0=    1 NMtDS0=    0 NMtDT0=    0
         I1Cent=           0 NGrid=           0.
 Symmetry not used in FoFCou.
 FoFDir/FoFCou used for L=0 through L=2.
 End of G2Drv Frequency-dependent properties file   721 does not exist.
 End of G2Drv Frequency-dependent properties file   722 does not exist.
 Leave Link 1110 at Tue Mar  4 13:40:21 2014, MaxMem= 4026531840 cpu:     517.7
 (Enter /usr/caen/gaussian-09revc/g09/l1002.exe)
 Minotr:  Closed shell wavefunction.
          IDoAtm=1111111111111111111111111111
          Direct CPHF calculation.
          Differentiating once with respect to nuclear coordinates.
          Requested convergence is 1.0D-06 RMS, and 1.0D-05 maximum.
          Secondary convergence is 1.0D-12 RMS, and 1.0D-12 maximum.
          NewPWx=T KeepS1=F KeepF1=F KeepIn=T MapXYZ=F SortEE=F KeepMc=T.
          MDV=    4026531556 using IRadAn=       2.
 Generate precomputed XC quadrature information.
          Keep R1 ints in memory in canonical form, NReq=993246445.
 Symmetry not used in FoFDir.
 MinBra= 0 MaxBra= 2 Meth= 1.
 IRaf=       0 NMat=   1 IRICut=       1 DoRegI=T DoRafI=F ISym2E= 0 JSym2E=0.
          Solving linear equations simultaneously, MaxMat=       0.
          There are    87 degrees of freedom in the 1st order CPHF.  IDoFFX=5.
     81 vectors produced by pass  0 Test12= 1.14D-10 1.15D-07 XBig12= 1.24D-01 7.18D-02.
 AX will form    81 AO Fock derivatives at one time.
     81 vectors produced by pass  1 Test12= 1.14D-10 1.15D-07 XBig12= 9.96D-03 1.66D-02.
     81 vectors produced by pass  2 Test12= 1.14D-10 1.15D-07 XBig12= 4.91D-05 1.01D-03.
     81 vectors produced by pass  3 Test12= 1.14D-10 1.15D-07 XBig12= 1.53D-07 4.11D-05.
     31 vectors produced by pass  4 Test12= 1.14D-10 1.15D-07 XBig12= 1.99D-10 1.61D-06.
 Inverted reduced A of dimension   355 with in-core refinement.
 End of Minotr Frequency-dependent properties file   721 does not exist.
 End of Minotr Frequency-dependent properties file   722 does not exist.
 Leave Link 1002 at Tue Mar  4 13:42:18 2014, MaxMem= 4026531840 cpu:     814.2
 (Enter /usr/caen/gaussian-09revc/g09/l601.exe)
 Copying SCF densities to generalized density rwf, IOpCl= 0 IROHF=0.

 **********************************************************************

            Population analysis using the SCF density.

 **********************************************************************

 Orbital symmetries:
       Occupied  (A) (A) (A) (A) (A) (A) (A) (A) (A) (A) (A) (A)
                 (A) (A) (A) (A) (A) (A) (A) (A) (A) (A) (A) (A)
                 (A) (A) (A) (A) (A) (A) (A) (A) (A) (A) (A) (A)
                 (A) (A) (A) (A)
       Virtual   (A) (A) (A) (A) (A) (A) (A) (A) (A) (A) (A) (A)
                 (A) (A) (A) (A) (A) (A) (A) (A) (A) (A) (A) (A)
                 (A) (A) (A) (A) (A) (A) (A) (A) (A) (A) (A) (A)
                 (A) (A) (A) (A) (A) (A) (A) (A) (A) (A) (A) (A)
                 (A) (A) (A) (A) (A) (A) (A) (A) (A) (A) (A) (A)
                 (A) (A) (A) (A) (A) (A) (A) (A) (A) (A) (A) (A)
                 (A) (A) (A) (A) (A) (A) (A) (A) (A) (A) (A) (A)
                 (A) (A) (A) (A) (A) (A) (A) (A) (A) (A) (A) (A)
                 (A) (A) (A) (A) (A) (A) (A) (A) (A) (A) (A) (A)
                 (A) (A) (A) (A) (A) (A) (A) (A) (A) (A) (A) (A)
                 (A) (A) (A) (A) (A) (A) (A) (A) (A) (A) (A) (A)
                 (A) (A) (A) (A) (A) (A) (A) (A) (A) (A) (A) (A)
                 (A) (A) (A) (A) (A) (A) (A) (A) (A) (A) (A) (A)
                 (A) (A) (A) (A) (A) (A) (A) (A) (A) (A) (A) (A)
                 (A) (A) (A) (A) (A) (A) (A) (A) (A) (A) (A) (A)
                 (A) (A) (A) (A) (A) (A) (A) (A) (A) (A) (A) (A)
                 (A) (A) (A) (A) (A) (A) (A) (A) (A) (A) (A) (A)
                 (A) (A) (A) (A) (A) (A) (A) (A) (A) (A) (A) (A)
                 (A) (A) (A) (A) (A) (A) (A) (A) (A) (A) (A) (A)
                 (A) (A) (A) (A) (A) (A) (A) (A) (A) (A) (A) (A)
                 (A) (A) (A) (A) (A) (A) (A) (A)
 The electronic state is 1-A.
 Alpha  occ. eigenvalues --  -19.12076 -10.23045 -10.21483 -10.17265 -10.17177
 Alpha  occ. eigenvalues --  -10.16642 -10.16404 -10.16314 -10.15563 -10.15433
 Alpha  occ. eigenvalues --   -1.06566  -0.81730  -0.78361  -0.74291  -0.68389
 Alpha  occ. eigenvalues --   -0.68287  -0.65998  -0.60962  -0.56176  -0.55555
 Alpha  occ. eigenvalues --   -0.49657  -0.47767  -0.46588  -0.45270  -0.43592
 Alpha  occ. eigenvalues --   -0.43003  -0.41646  -0.40432  -0.38500  -0.38449
 Alpha  occ. eigenvalues --   -0.37916  -0.36858  -0.35933  -0.35148  -0.34099
 Alpha  occ. eigenvalues --   -0.32334  -0.32038  -0.31448  -0.29407  -0.26544
 Alpha virt. eigenvalues --    0.03990   0.04717   0.05654   0.06619   0.07230
 Alpha virt. eigenvalues --    0.08365   0.08390   0.09883   0.10310   0.10997
 Alpha virt. eigenvalues --    0.11565   0.11815   0.12676   0.13482   0.14173
 Alpha virt. eigenvalues --    0.14816   0.15314   0.16751   0.17255   0.18259
 Alpha virt. eigenvalues --    0.18736   0.20909   0.21869   0.22647   0.23410
 Alpha virt. eigenvalues --    0.24941   0.27028   0.27167   0.29577   0.30246
 Alpha virt. eigenvalues --    0.31079   0.32001   0.33760   0.35051   0.35495
 Alpha virt. eigenvalues --    0.37661   0.39799   0.40228   0.42793   0.43167
 Alpha virt. eigenvalues --    0.44386   0.45943   0.46904   0.48771   0.50702
 Alpha virt. eigenvalues --    0.52553   0.54511   0.54772   0.55847   0.56634
 Alpha virt. eigenvalues --    0.57044   0.57321   0.57867   0.58088   0.58811
 Alpha virt. eigenvalues --    0.58964   0.59791   0.60103   0.60796   0.60952
 Alpha virt. eigenvalues --    0.61231   0.61986   0.62767   0.63616   0.64158
 Alpha virt. eigenvalues --    0.64613   0.65450   0.66495   0.66905   0.68430
 Alpha virt. eigenvalues --    0.70047   0.71058   0.75085   0.78311   0.82369
 Alpha virt. eigenvalues --    0.85060   0.88976   0.89793   0.94365   0.96707
 Alpha virt. eigenvalues --    0.98077   0.99391   1.02349   1.05124   1.08304
 Alpha virt. eigenvalues --    1.08912   1.10250   1.13326   1.16123   1.17488
 Alpha virt. eigenvalues --    1.19785   1.21887   1.23506   1.26337   1.31573
 Alpha virt. eigenvalues --    1.33332   1.36341   1.37221   1.38442   1.39819
 Alpha virt. eigenvalues --    1.41331   1.41826   1.44745   1.45444   1.45713
 Alpha virt. eigenvalues --    1.46769   1.47352   1.48483   1.49658   1.51111
 Alpha virt. eigenvalues --    1.51860   1.52484   1.53080   1.53791   1.54672
 Alpha virt. eigenvalues --    1.57041   1.57924   1.59004   1.60257   1.60630
 Alpha virt. eigenvalues --    1.62720   1.63682   1.65262   1.65659   1.67721
 Alpha virt. eigenvalues --    1.68145   1.68979   1.70391   1.72010   1.73673
 Alpha virt. eigenvalues --    1.74301   1.75881   1.77043   1.78422   1.79234
 Alpha virt. eigenvalues --    1.80073   1.83749   1.85800   1.87456   1.88443
 Alpha virt. eigenvalues --    1.91325   1.93610   1.96288   1.97560   1.98295
 Alpha virt. eigenvalues --    2.00993   2.02982   2.03288   2.05817   2.06536
 Alpha virt. eigenvalues --    2.07711   2.09875   2.11733   2.14014   2.15449
 Alpha virt. eigenvalues --    2.18239   2.21796   2.22708   2.26869   2.29277
 Alpha virt. eigenvalues --    2.29956   2.31965   2.32338   2.34893   2.36291
 Alpha virt. eigenvalues --    2.37865   2.38368   2.42301   2.43661   2.44717
 Alpha virt. eigenvalues --    2.46111   2.46602   2.47196   2.48803   2.49878
 Alpha virt. eigenvalues --    2.50300   2.51015   2.52032   2.52167   2.54142
 Alpha virt. eigenvalues --    2.55390   2.56318   2.57114   2.59860   2.62165
 Alpha virt. eigenvalues --    2.62740   2.64240   2.64605   2.65629   2.68091
 Alpha virt. eigenvalues --    2.69866   2.70532   2.73263   2.74705   2.76482
 Alpha virt. eigenvalues --    2.76579   2.78232   2.80012   2.83669   2.84899
 Alpha virt. eigenvalues --    2.88736   2.89803   2.90983   2.93111   2.95943
 Alpha virt. eigenvalues --    3.00924   3.03213   3.10185   3.10683   3.13523
 Alpha virt. eigenvalues --    3.17451   3.18574   3.26552   3.34353   3.44707
 Alpha virt. eigenvalues --    3.48571   3.66322   3.73500   3.76440   3.77774
 Alpha virt. eigenvalues --    3.78392   3.79372   3.80908   3.82225   3.83338
 Alpha virt. eigenvalues --    3.83829   3.85400   3.92271   3.97187   4.07558
 Alpha virt. eigenvalues --    4.17842   4.29537   4.30133   4.38127   4.52684
 Alpha virt. eigenvalues --    4.95435   5.43233   5.47321  23.73637  23.81710
 Alpha virt. eigenvalues --   23.83887  23.87830  23.88559  23.90897  23.93651
 Alpha virt. eigenvalues --   23.94012  23.94679  49.89824
          Condensed to atoms (all electrons):
              1          2          3          4          5          6
     1  C    4.774574   0.396065   0.402650   0.398594   0.380501  -0.053192
     2  H    0.396065   0.592575  -0.031247  -0.023563  -0.040441  -0.000721
     3  H    0.402650  -0.031247   0.576957  -0.027321  -0.036002  -0.007396
     4  H    0.398594  -0.023563  -0.027321   0.567036  -0.029280   0.008025
     5  C    0.380501  -0.040441  -0.036002  -0.029280   5.181181   0.355845
     6  C   -0.053192  -0.000721  -0.007396   0.008025   0.355845   4.877844
     7  H   -0.001330   0.000455  -0.000141  -0.000278  -0.039428   0.395812
     8  H   -0.007280  -0.000037   0.005328  -0.000119  -0.042017   0.402700
     9  C    0.005893  -0.000187  -0.000086  -0.000395  -0.038862   0.366381
    10  H   -0.000394   0.000089   0.000013   0.000022  -0.003754  -0.036900
    11  H    0.000530  -0.000176   0.000173  -0.000086  -0.011280  -0.040465
    12  C   -0.000158  -0.000009  -0.000040   0.000011   0.005383  -0.048502
    13  H   -0.000016   0.000004  -0.000017   0.000000  -0.000066  -0.005599
    14  H   -0.000003  -0.000007   0.000004   0.000001   0.000190  -0.005272
    15  C    0.000003   0.000000   0.000000   0.000000  -0.000244   0.006390
    16  H    0.000000   0.000000   0.000000   0.000000  -0.000013  -0.000186
    17  C    0.000000   0.000000   0.000000   0.000000   0.000003  -0.000241
    18  H    0.000000   0.000000   0.000000   0.000000   0.000000  -0.000009
    19  H    0.000000   0.000000   0.000000   0.000000   0.000000   0.000013
    20  H    0.000000   0.000000   0.000000   0.000000   0.000001  -0.000025
    21  C   -0.048641  -0.004416   0.008934  -0.005552   0.280798  -0.049116
    22  H   -0.001269  -0.000886   0.000247  -0.001344  -0.018807   0.000821
    23  H    0.001840   0.000721  -0.000402   0.000728  -0.018746   0.000285
    24  C    0.000000   0.000000   0.000000   0.000000   0.000026  -0.000031
    25  H    0.000000   0.000000   0.000000   0.000000  -0.000001   0.000012
    26  H    0.000000   0.000000   0.000000   0.000000  -0.000001  -0.000079
    27  H   -0.000001   0.000000   0.000000   0.000000   0.000071  -0.000065
    28  O   -0.027542   0.004770  -0.002600   0.004804   0.134293  -0.040549
              7          8          9         10         11         12
     1  C   -0.001330  -0.007280   0.005893  -0.000394   0.000530  -0.000158
     2  H    0.000455  -0.000037  -0.000187   0.000089  -0.000176  -0.000009
     3  H   -0.000141   0.005328  -0.000086   0.000013   0.000173  -0.000040
     4  H   -0.000278  -0.000119  -0.000395   0.000022  -0.000086   0.000011
     5  C   -0.039428  -0.042017  -0.038862  -0.003754  -0.011280   0.005383
     6  C    0.395812   0.402700   0.366381  -0.036900  -0.040465  -0.048502
     7  H    0.608688  -0.036764  -0.034277  -0.010055   0.009769  -0.003616
     8  H   -0.036764   0.600803  -0.041515   0.009451  -0.005165  -0.005939
     9  C   -0.034277  -0.041515   4.959103   0.396939   0.400641   0.365091
    10  H   -0.010055   0.009451   0.396939   0.616900  -0.038665  -0.040379
    11  H    0.009769  -0.005165   0.400641  -0.038665   0.572671  -0.032692
    12  C   -0.003616  -0.005939   0.365091  -0.040379  -0.032692   4.958710
    13  H   -0.000698   0.005093  -0.042546   0.009507  -0.007938   0.402533
    14  H    0.004853  -0.001033  -0.039019  -0.007226   0.008019   0.406314
    15  C   -0.000173   0.000276  -0.055827  -0.003820  -0.004124   0.371399
    16  H    0.000065   0.000010  -0.007596   0.005861  -0.000157  -0.048493
    17  C   -0.000012  -0.000006   0.007557   0.000072  -0.000030  -0.066400
    18  H    0.000008  -0.000012  -0.000062   0.000018   0.000023  -0.006947
    19  H    0.000001   0.000001  -0.000406  -0.000008   0.000016   0.008580
    20  H   -0.000011   0.000007   0.000065   0.000020  -0.000009  -0.006006
    21  C   -0.004800   0.009652  -0.010855   0.002828  -0.001191   0.000040
    22  H    0.000540  -0.000321   0.000452  -0.000255   0.000924   0.000007
    23  H   -0.000393   0.000227  -0.000214   0.003883  -0.006415  -0.000129
    24  C   -0.000016  -0.000063  -0.004850  -0.001046   0.001239  -0.066930
    25  H    0.000002  -0.000002   0.000043  -0.000100  -0.000091   0.008251
    26  H    0.000006  -0.000014  -0.000747   0.000087   0.000539  -0.006702
    27  H   -0.000034   0.000018   0.003454   0.000594  -0.001097  -0.005922
    28  O    0.004492  -0.002824  -0.002176  -0.002155   0.025251   0.000064
             13         14         15         16         17         18
     1  C   -0.000016  -0.000003   0.000003   0.000000   0.000000   0.000000
     2  H    0.000004  -0.000007   0.000000   0.000000   0.000000   0.000000
     3  H   -0.000017   0.000004   0.000000   0.000000   0.000000   0.000000
     4  H    0.000000   0.000001   0.000000   0.000000   0.000000   0.000000
     5  C   -0.000066   0.000190  -0.000244  -0.000013   0.000003   0.000000
     6  C   -0.005599  -0.005272   0.006390  -0.000186  -0.000241  -0.000009
     7  H   -0.000698   0.004853  -0.000173   0.000065  -0.000012   0.000008
     8  H    0.005093  -0.001033   0.000276   0.000010  -0.000006  -0.000012
     9  C   -0.042546  -0.039019  -0.055827  -0.007596   0.007557  -0.000062
    10  H    0.009507  -0.007226  -0.003820   0.005861   0.000072   0.000018
    11  H   -0.007938   0.008019  -0.004124  -0.000157  -0.000030   0.000023
    12  C    0.402533   0.406314   0.371399  -0.048493  -0.066400  -0.006947
    13  H    0.606832  -0.036995  -0.037767   0.010039  -0.004415   0.004887
    14  H   -0.036995   0.612612  -0.040992  -0.006014  -0.007124  -0.000691
    15  C   -0.037767  -0.040992   5.033124   0.410162   0.376857  -0.038270
    16  H    0.010039  -0.006014   0.410162   0.624853  -0.041474   0.009704
    17  C   -0.004415  -0.007124   0.376857  -0.041474   4.866448   0.402192
    18  H    0.004887  -0.000691  -0.038270   0.009704   0.402192   0.594947
    19  H   -0.000313   0.000168  -0.032303  -0.006921   0.401774  -0.031368
    20  H   -0.000519   0.004772  -0.033013  -0.006318   0.401807  -0.031237
    21  C   -0.000012  -0.000065   0.000013  -0.000014   0.000000   0.000000
    22  H    0.000002  -0.000001   0.000000   0.000002   0.000000   0.000000
    23  H    0.000001   0.000028  -0.000046  -0.000047  -0.000001   0.000000
    24  C   -0.009334   0.009130   0.359406  -0.047386  -0.066594  -0.006337
    25  H   -0.000182  -0.000454  -0.032384  -0.006489  -0.006362  -0.000659
    26  H    0.005426  -0.000075  -0.039631   0.009653  -0.005125   0.005035
    27  H   -0.000202  -0.000069  -0.032301  -0.005928   0.007755  -0.000155
    28  O   -0.000003  -0.000002   0.000017   0.000007   0.000000   0.000000
             19         20         21         22         23         24
     1  C    0.000000   0.000000  -0.048641  -0.001269   0.001840   0.000000
     2  H    0.000000   0.000000  -0.004416  -0.000886   0.000721   0.000000
     3  H    0.000000   0.000000   0.008934   0.000247  -0.000402   0.000000
     4  H    0.000000   0.000000  -0.005552  -0.001344   0.000728   0.000000
     5  C    0.000000   0.000001   0.280798  -0.018807  -0.018746   0.000026
     6  C    0.000013  -0.000025  -0.049116   0.000821   0.000285  -0.000031
     7  H    0.000001  -0.000011  -0.004800   0.000540  -0.000393  -0.000016
     8  H    0.000001   0.000007   0.009652  -0.000321   0.000227  -0.000063
     9  C   -0.000406   0.000065  -0.010855   0.000452  -0.000214  -0.004850
    10  H   -0.000008   0.000020   0.002828  -0.000255   0.003883  -0.001046
    11  H    0.000016  -0.000009  -0.001191   0.000924  -0.006415   0.001239
    12  C    0.008580  -0.006006   0.000040   0.000007  -0.000129  -0.066930
    13  H   -0.000313  -0.000519  -0.000012   0.000002   0.000001  -0.009334
    14  H    0.000168   0.004772  -0.000065  -0.000001   0.000028   0.009130
    15  C   -0.032303  -0.033013   0.000013   0.000000  -0.000046   0.359406
    16  H   -0.006921  -0.006318  -0.000014   0.000002  -0.000047  -0.047386
    17  C    0.401774   0.401807   0.000000   0.000000  -0.000001  -0.066594
    18  H   -0.031368  -0.031237   0.000000   0.000000   0.000000  -0.006337
    19  H    0.587237  -0.028268   0.000000   0.000000   0.000000  -0.005154
    20  H   -0.028268   0.589386   0.000000   0.000000   0.000000   0.008482
    21  C    0.000000   0.000000   4.863635   0.395685   0.394315  -0.000006
    22  H    0.000000   0.000000   0.395685   0.595384  -0.052568   0.000000
    23  H    0.000000   0.000000   0.394315  -0.052568   0.593875   0.000029
    24  C   -0.005154   0.008482  -0.000006   0.000000   0.000029   4.888398
    25  H    0.004094   0.000062   0.000000   0.000000   0.000000   0.402782
    26  H   -0.000657  -0.000177  -0.000001   0.000000  -0.000001   0.400777
    27  H   -0.000002  -0.000519   0.000009  -0.000007   0.000193   0.404687
    28  O    0.000000   0.000000   0.187249  -0.023786  -0.026581  -0.000010
             25         26         27         28
     1  C    0.000000   0.000000  -0.000001  -0.027542
     2  H    0.000000   0.000000   0.000000   0.004770
     3  H    0.000000   0.000000   0.000000  -0.002600
     4  H    0.000000   0.000000   0.000000   0.004804
     5  C   -0.000001  -0.000001   0.000071   0.134293
     6  C    0.000012  -0.000079  -0.000065  -0.040549
     7  H    0.000002   0.000006  -0.000034   0.004492
     8  H   -0.000002  -0.000014   0.000018  -0.002824
     9  C    0.000043  -0.000747   0.003454  -0.002176
    10  H   -0.000100   0.000087   0.000594  -0.002155
    11  H   -0.000091   0.000539  -0.001097   0.025251
    12  C    0.008251  -0.006702  -0.005922   0.000064
    13  H   -0.000182   0.005426  -0.000202  -0.000003
    14  H   -0.000454  -0.000075  -0.000069  -0.000002
    15  C   -0.032384  -0.039631  -0.032301   0.000017
    16  H   -0.006489   0.009653  -0.005928   0.000007
    17  C   -0.006362  -0.005125   0.007755   0.000000
    18  H   -0.000659   0.005035  -0.000155   0.000000
    19  H    0.004094  -0.000657  -0.000002   0.000000
    20  H    0.000062  -0.000177  -0.000519   0.000000
    21  C    0.000000  -0.000001   0.000009   0.187249
    22  H    0.000000   0.000000  -0.000007  -0.023786
    23  H    0.000000  -0.000001   0.000193  -0.026581
    24  C    0.402782   0.400777   0.404687  -0.000010
    25  H    0.587384  -0.031046  -0.028109   0.000000
    26  H   -0.031046   0.593226  -0.030605   0.000000
    27  H   -0.028109  -0.030605   0.580565  -0.000199
    28  O    0.000000   0.000000  -0.000199   8.098413
 Mulliken atomic charges:
              1
     1  C   -0.220823
     2  H    0.107012
     3  H    0.110946
     4  H    0.108717
     5  C   -0.059350
     6  C   -0.125778
     7  H    0.107337
     8  H    0.109548
     9  C   -0.225998
    10  H    0.098474
    11  H    0.129784
    12  C   -0.187520
    13  H    0.102297
    14  H    0.098950
    15  C   -0.206753
    16  H    0.106680
    17  C   -0.266681
    18  H    0.098933
    19  H    0.103518
    20  H    0.101502
    21  C   -0.018488
    22  H    0.105179
    23  H    0.109417
    24  C   -0.267198
    25  H    0.103248
    26  H    0.100112
    27  H    0.107868
    28  O   -0.330933
 Sum of Mulliken atomic charges =   0.00000
 Mulliken charges with hydrogens summed into heavy atoms:
              1
     1  C    0.105851
     5  C   -0.059350
     6  C    0.091107
     9  C    0.002259
    12  C    0.013727
    15  C   -0.100073
    17  C    0.037272
    21  C    0.196108
    24  C    0.044030
    28  O   -0.330933
 Sum of Mulliken charges with hydrogens summed into heavy atoms =   0.00000
 APT atomic charges:
              1
     1  C   -1.250248
     2  H    0.381672
     3  H    0.326634
     4  H    0.663237
     5  C   -0.082678
     6  C   -0.617027
     7  H    0.348288
     8  H    0.299660
     9  C   -0.512655
    10  H    0.286656
    11  H    0.258281
    12  C   -0.536062
    13  H    0.288249
    14  H    0.332689
    15  C   -0.386403
    16  H    0.292301
    17  C   -1.390611
    18  H    0.335942
    19  H    0.689294
    20  H    0.324834
    21  C   -0.660808
    22  H    0.726838
    23  H    0.104187
    24  C   -1.057819
    25  H    0.691467
    26  H    0.311769
    27  H    0.066008
    28  O   -0.233694
 Sum of APT charges=   0.00000
 APT Atomic charges with hydrogens summed into heavy atoms:
              1
     1  C    0.121294
     2  H    0.000000
     3  H    0.000000
     4  H    0.000000
     5  C   -0.082678
     6  C    0.030922
     7  H    0.000000
     8  H    0.000000
     9  C    0.032283
    10  H    0.000000
    11  H    0.000000
    12  C    0.084875
    13  H    0.000000
    14  H    0.000000
    15  C   -0.094102
    16  H    0.000000
    17  C   -0.040542
    18  H    0.000000
    19  H    0.000000
    20  H    0.000000
    21  C    0.170217
    22  H    0.000000
    23  H    0.000000
    24  C    0.011425
    25  H    0.000000
    26  H    0.000000
    27  H    0.000000
    28  O   -0.233694
 Sum of APT charges=   0.00000
 Electronic spatial extent (au):  <R**2>=           2591.6952
 Charge=              0.0000 electrons
 Dipole moment (field-independent basis, Debye):
    X=              0.0469    Y=             -1.2285    Z=              1.4777  Tot=              1.9222
 Quadrupole moment (field-independent basis, Debye-Ang):
   XX=            -65.0611   YY=            -67.0434   ZZ=            -65.4082
   XY=              3.3731   XZ=             -3.5774   YZ=              2.7544
 Traceless Quadrupole moment (field-independent basis, Debye-Ang):
   XX=              0.7765   YY=             -1.2058   ZZ=              0.4294
   XY=              3.3731   XZ=             -3.5774   YZ=              2.7544
 Octapole moment (field-independent basis, Debye-Ang**2):
  XXX=            -26.3136  YYY=              2.9318  ZZZ=             -2.1485  XYY=             -3.3976
  XXY=             -2.1024  XXZ=             11.2314  XZZ=             -3.7892  YZZ=              0.1515
  YYZ=              4.2585  XYZ=             -6.3166
 Hexadecapole moment (field-independent basis, Debye-Ang**3):
 XXXX=          -2894.8675 YYYY=           -457.6668 ZZZZ=           -193.5091 XXXY=             12.5038
 XXXZ=            -19.6190 YYYX=             -7.8598 YYYZ=             -1.5746 ZZZX=              2.8100
 ZZZY=              3.1004 XXYY=           -575.9825 XXZZ=           -523.1863 YYZZ=           -106.6335
 XXYZ=             21.2195 YYXZ=             -4.4723 ZZXY=             -4.0306
 N-N= 5.485394904333D+02 E-N=-2.093953737718D+03  KE= 4.271378154364D+02
  Exact polarizability:   0.000   0.000   0.000   0.000   0.000   0.000
 Approx polarizability: 140.085  -1.057 147.522  -1.274   4.466 144.062
 No NMR shielding tensors so no spin-rotation constants.
 Leave Link  601 at Tue Mar  4 13:42:19 2014, MaxMem= 4026531840 cpu:       7.0
 (Enter /usr/caen/gaussian-09revc/g09/l701.exe)
 Compute integral second derivatives.
 ... and contract with generalized density number  0.
 Leave Link  701 at Tue Mar  4 13:42:20 2014, MaxMem= 4026531840 cpu:       5.1
 (Enter /usr/caen/gaussian-09revc/g09/l702.exe)
 L702 exits ... SP integral derivatives will be done elsewhere.
 Leave Link  702 at Tue Mar  4 13:42:21 2014, MaxMem= 4026531840 cpu:       0.1
 (Enter /usr/caen/gaussian-09revc/g09/l703.exe)
 Compute integral second derivatives, UseDBF=F ICtDFT=           0.
 Integral derivatives from FoFDir, PRISM(SPDF).
 Calling FoFJK, ICntrl=    100147 FMM=F ISym2X=0 I1Cent= 0 IOpClX= 0 NMat=1 NMatS=1 NMatT=0.
 FoFCou: FMM=F IPFlag=           0 FMFlag=      100000 FMFlg1=         800
         NFxFlg=           0 DoJE=F BraDBF=F KetDBF=F FulRan=T
         Omega=  0.000000  0.000000  1.000000  0.000000  0.000000 ICntrl=  100147 IOpCl=  0
         NMat0=    1 NMatS0=    1 NMatT0=    0 NMatD0=    1 NMtDS0=    0 NMtDT0=    0
         I1Cent=           0 NGrid=           0.
 Symmetry not used in FoFCou.
 Leave Link  703 at Tue Mar  4 13:43:27 2014, MaxMem= 4026531840 cpu:     502.0
 (Enter /usr/caen/gaussian-09revc/g09/l716.exe)
 Dipole        = 1.84355184D-02-4.83325625D-01 5.81377329D-01
 Polarizability= 0.00000000D+00 0.00000000D+00 0.00000000D+00
                 0.00000000D+00 0.00000000D+00 0.00000000D+00
 ***** Axes restored to original set *****
 -------------------------------------------------------------------
 Center     Atomic                   Forces (Hartrees/Bohr)
 Number     Number              X              Y              Z
 -------------------------------------------------------------------
      1        6           0.000023926   -0.000007705   -0.000188728
      2        1           0.000135678   -0.000076380    0.000087145
      3        1           0.000028406    0.000137165   -0.000005453
      4        1          -0.000165882    0.000094492    0.000114285
      5        6          -0.000112801    0.001497714    0.000327564
      6        6           0.000252191   -0.000256000   -0.000235953
      7        1          -0.000188506   -0.000078840    0.000018242
      8        1          -0.000055454    0.000084664   -0.000010556
      9        6          -0.000073408    0.000048944    0.000093162
     10        1           0.000042245   -0.000029146    0.000086504
     11        1           0.000435612    0.000043063   -0.000038502
     12        6          -0.000016787   -0.000063520    0.000020441
     13        1           0.000010376    0.000010838   -0.000056013
     14        1           0.000016201    0.000061563    0.000028336
     15        6          -0.000047161    0.000031281    0.000046371
     16        1           0.000003633   -0.000025917    0.000057600
     17        6          -0.000059532   -0.000039901    0.000023011
     18        1           0.000027625    0.000031459   -0.000084935
     19        1           0.000077851   -0.000047837    0.000010460
     20        1           0.000014730    0.000064965    0.000048090
     21        6          -0.000103362    0.000295999    0.000886912
     22        1           0.000017351   -0.000189203   -0.000182591
     23        1           0.000004044   -0.000193030   -0.000255966
     24        6          -0.000007592    0.000081893   -0.000005258
     25        1           0.000068382   -0.000045606    0.000008265
     26        1           0.000012860    0.000002324   -0.000109906
     27        1          -0.000003252   -0.000127638   -0.000007606
     28        8          -0.000337372   -0.001305638   -0.000674919
 -------------------------------------------------------------------
 Cartesian Forces:  Max     0.001497714 RMS     0.000275657
 Leave Link  716 at Tue Mar  4 13:43:27 2014, MaxMem= 4026531840 cpu:       1.3
 (Enter /usr/caen/gaussian-09revc/g09/l103.exe)

 GradGradGradGradGradGradGradGradGradGradGradGradGradGradGradGradGradGrad
 Berny optimization.
 Red2BG is reusing G-inverse.
 Internal  Forces:  Max     0.001449695 RMS     0.000228868
 Search for a local minimum.
 Step number   1 out of a maximum of  157
 All quantities printed in internal units (Hartrees-Bohrs-Radians)
 RMS Force = .22887D-03 SwitMx=.10000D-02 MixMth= 2
 Mixed Optimization -- En-DIIS/RFO-DIIS
 Second derivative matrix not updated -- analytic derivatives used.
 ITU=  0
     Eigenvalues ---    0.00134   0.00178   0.00211   0.00232   0.00282
     Eigenvalues ---    0.00290   0.00360   0.02080   0.02913   0.03239
     Eigenvalues ---    0.03336   0.03570   0.03808   0.03864   0.03919
     Eigenvalues ---    0.04034   0.04257   0.04347   0.04435   0.04536
     Eigenvalues ---    0.04567   0.04616   0.04668   0.04705   0.04745
     Eigenvalues ---    0.06941   0.07454   0.07669   0.09655   0.10208
     Eigenvalues ---    0.10671   0.11173   0.11672   0.11826   0.12214
     Eigenvalues ---    0.12357   0.12694   0.12909   0.13235   0.13517
     Eigenvalues ---    0.14067   0.14148   0.14841   0.15234   0.17530
     Eigenvalues ---    0.18004   0.18808   0.20958   0.21919   0.22447
     Eigenvalues ---    0.24793   0.25206   0.26798   0.27439   0.27824
     Eigenvalues ---    0.28776   0.30045   0.30408   0.31665   0.31770
     Eigenvalues ---    0.32058   0.32197   0.32415   0.32725   0.32751
     Eigenvalues ---    0.32865   0.32908   0.33088   0.33111   0.33317
     Eigenvalues ---    0.33498   0.33719   0.33880   0.33996   0.34191
     Eigenvalues ---    0.34275   0.34577   0.35510
 RFO step:  Lambda=-7.77859023D-05 EMin= 1.33777198D-03
 Linear search not attempted -- first point.
 Iteration  1 RMS(Cart)=  0.02522988 RMS(Int)=  0.00019821
 Iteration  2 RMS(Cart)=  0.00045088 RMS(Int)=  0.00000408
 Iteration  3 RMS(Cart)=  0.00000010 RMS(Int)=  0.00000408
 Variable       Old X    -DE/DX   Delta X   Delta X   Delta X     New X
                                 (Linear)    (Quad)   (Total)
    R1        2.06812   0.00002   0.00000  -0.00006  -0.00006   2.06806
    R2        2.06782  -0.00007   0.00000  -0.00010  -0.00010   2.06772
    R3        2.06246  -0.00010   0.00000  -0.00023  -0.00023   2.06224
    R4        2.86110  -0.00006   0.00000  -0.00005  -0.00005   2.86106
    R5        2.87626  -0.00038   0.00000   0.00017   0.00017   2.87643
    R6        2.78146  -0.00028   0.00000  -0.00095  -0.00095   2.78051
    R7        2.72885  -0.00132   0.00000  -0.00477  -0.00477   2.72408
    R8        2.07392   0.00006   0.00000  -0.00012  -0.00012   2.07380
    R9        2.07500  -0.00004   0.00000  -0.00006  -0.00006   2.07494
   R10        2.89487  -0.00040   0.00000  -0.00002  -0.00002   2.89485
   R11        2.07231  -0.00009   0.00000  -0.00019  -0.00019   2.07212
   R12        2.06580   0.00004   0.00000  -0.00019  -0.00019   2.06561
   R13        2.89938  -0.00009   0.00000  -0.00073  -0.00073   2.89865
   R14        2.07628  -0.00006   0.00000  -0.00016  -0.00016   2.07612
   R15        2.07428  -0.00007   0.00000  -0.00015  -0.00015   2.07412
   R16        2.91092  -0.00009   0.00000  -0.00010  -0.00010   2.91082
   R17        2.07689  -0.00006   0.00000  -0.00016  -0.00016   2.07673
   R18        2.90119  -0.00007   0.00000  -0.00027  -0.00027   2.90091
   R19        2.90230  -0.00011   0.00000  -0.00032  -0.00032   2.90198
   R20        2.07059  -0.00010   0.00000  -0.00028  -0.00028   2.07031
   R21        2.06739  -0.00008   0.00000  -0.00024  -0.00024   2.06715
   R22        2.06770  -0.00009   0.00000  -0.00021  -0.00021   2.06749
   R23        2.05621   0.00005   0.00000   0.00008   0.00008   2.05629
   R24        2.05255   0.00005   0.00000   0.00015   0.00015   2.05271
   R25        2.71464  -0.00024   0.00000  -0.00150  -0.00150   2.71315
   R26        2.06754  -0.00009   0.00000  -0.00024  -0.00024   2.06730
   R27        2.07103  -0.00010   0.00000  -0.00026  -0.00026   2.07077
   R28        2.06476  -0.00008   0.00000  -0.00034  -0.00034   2.06442
    A1        1.88432  -0.00005   0.00000   0.00029   0.00029   1.88460
    A2        1.89569   0.00002   0.00000   0.00098   0.00098   1.89667
    A3        1.93331   0.00033   0.00000   0.00345   0.00345   1.93676
    A4        1.88880   0.00003   0.00000  -0.00134  -0.00135   1.88745
    A5        1.92656  -0.00008   0.00000  -0.00143  -0.00143   1.92512
    A6        1.93375  -0.00024   0.00000  -0.00195  -0.00195   1.93179
    A7        1.99917   0.00050   0.00000   0.00268   0.00268   2.00185
    A8        2.07509  -0.00023   0.00000  -0.00029  -0.00029   2.07480
    A9        1.99104  -0.00009   0.00000  -0.00177  -0.00177   1.98927
   A10        2.13201  -0.00024   0.00000  -0.00163  -0.00164   2.13037
   A11        2.01793  -0.00043   0.00000  -0.00149  -0.00149   2.01644
   A12        1.88244   0.00070   0.00000   0.00547   0.00548   1.88792
   A13        1.86739   0.00037   0.00000   0.00030   0.00027   1.86766
   A14        2.03854  -0.00145   0.00000  -0.00813  -0.00814   2.03040
   A15        1.84754  -0.00021   0.00000   0.00089   0.00089   1.84843
   A16        1.91561   0.00040   0.00000   0.00389   0.00390   1.91951
[...]
 .00009418,-0.00013857,-0.00140049,0.00091082,-0.00048035,-0.00012108,-
 0.00017812,-0.00011411,-0.00101025,0.00022726,0.00017825,-0.00011086,-
 0.00013358,-0.00009141,0.00004996,-0.00002813,-0.00007745,0.00018171,-
 0.00003261,0.00000319,-0.00009196,-0.00002677,0.00002432,-0.00005411,0
 .00001585,0.00001217,-0.00001004,-0.00002571,0.00000184,0.00000831,0.0
 0000462,-0.00000886,0.00000616,0.00185182,-0.19810158,0.48530545,0.000
 34885,0.00061574,-0.00064400,0.00005993,-0.00006937,0.00006220,0.00017
 443,0.00010901,0.00001850,0.00053838,-0.00005918,0.00002038,-0.0015659
 9,0.00269412,-0.00008073,0.00030016,0.00054365,-0.00005796,-0.00006727
 ,-0.00006334,-0.00001251,0.00004902,-0.00003635,0.00004777,-0.00015220
 ,-0.00007907,-0.00034000,0.00013119,-0.00006885,0.00038170,0.00017611,
 -0.00000684,-0.00010131,0.00014916,0.00000705,0.00017934,-0.00011020,-
 0.00005416,0.00003830,-0.00004225,-0.00004712,-0.00001700,0.00005322,-
 0.00006170,0.00002452,0.00001072,0.00001035,0.00000416,-0.00001820,0.0
 0003870,-0.00000339,0.00000234,-0.00000608,0.00000656,-0.00003611,0.00
 000340,-0.00000374,0.00000769,-0.00000815,-0.00000204,-0.29148079,-0.0
 4761280,0.07230549,0.30179628,-0.00081871,0.00095399,-0.00184635,0.000
 07475,-0.00021297,0.00003793,0.00013558,0.00052348,-0.00026337,0.00081
 512,0.00010680,0.00032285,-0.02829110,-0.00267075,0.00543896,0.0011036
 6,-0.00053543,0.00451526,0.00002266,-0.00001303,-0.00017528,-0.0015260
 3,-0.00088267,0.00008134,0.00057817,-0.00035825,0.00041062,0.00002308,
 0.00008675,-0.00029609,-0.00017378,0.00004169,0.00002172,-0.00017976,0
 .00013157,-0.00007336,0.00004412,0.00003930,-0.00008308,0.00004125,0.0
 0001490,0.00001267,-0.00000371,-0.00004175,0.00001196,-0.00001866,0.00
 001123,-0.00001794,-0.00001357,0.00002345,-0.00000644,0.00000466,-0.00
 000122,-0.00000018,-0.00001515,-0.00000177,0.00000019,0.00000403,-0.00
 000170,0.00000129,-0.04820908,-0.05537878,0.02277853,0.05105868,0.0509
 9906,0.00111334,0.00065334,0.00052012,-0.00034313,0.00017963,-0.000030
 13,-0.00018381,-0.00012536,-0.00002702,-0.00037023,0.00019490,-0.00030
 886,0.00111587,-0.00173861,-0.00769020,-0.00041407,-0.00015228,0.00058
 803,0.00024730,0.00013625,0.00015369,-0.00008033,-0.00020756,0.0002008
 4,-0.00023024,-0.00022874,-0.00030860,0.00018231,0.00006424,0.00038582
 ,-0.00019856,0.00009316,-0.00013109,0.00011100,-0.00002840,0.00025164,
 -0.00009744,-0.00006195,0.00002647,0.00000394,-0.00000946,-0.00000629,
 0.00001295,0.00001162,-0.00002505,0.00001048,0.00000321,0.00001492,0.0
 0000294,-0.00000035,0.00000727,-0.00000274,-0.00000238,0.00000154,0.00
 000180,-0.00000036,-0.00000145,-0.00000066,-0.00000046,-0.00000131,0.0
 6883933,0.01720167,-0.06699788,-0.08515411,-0.02426612,0.08556494,-0.0
 0049763,-0.00018665,0.00038336,-0.00002093,-0.00004342,-0.00006666,0.0
 0042569,-0.00007053,0.00015751,0.00038759,-0.00007214,0.00022618,0.004
 73753,-0.00277802,0.00380124,0.00001828,-0.00026555,-0.00074975,-0.000
 09189,0.00000249,-0.00001757,0.00007055,0.00016072,-0.00000660,-0.0007
 0838,-0.00084009,0.00002116,-0.00128261,-0.00098039,0.00064391,-0.0000
 3848,0.00015921,0.00024159,-0.00009217,-0.00004511,0.00016117,-0.00001
 290,-0.00001775,0.00001256,0.00005013,0.00004941,0.00000653,0.00000244
 ,0.00004694,-0.00002204,-0.00000456,-0.00000878,0.00000317,0.00001554,
 -0.00002291,0.00000460,-0.00000271,0.00000241,0.00000009,0.00001934,0.
 00000015,0.00000023,-0.00000400,0.00000258,-0.00000124,-0.21670643,0.0
 8306782,-0.10757449,-0.01614256,0.01107691,-0.01371348,0.22135785,-0.0
 0205591,-0.00052122,0.00435767,0.00000116,-0.00001463,-0.00019137,0.00
 119088,-0.00126473,0.00045684,-0.00008923,0.00003797,0.00000055,0.0248
 1226,-0.00572515,0.01035006,0.00069943,0.00058334,-0.00120217,-0.00013
 792,-0.00014647,0.00004094,0.00013544,0.00024762,-0.00009200,-0.000022
 34,0.00001567,0.00088025,-0.00122902,-0.00003861,-0.00052709,-0.000035
 15,-0.00005422,-0.00003944,-0.00024874,0.00007626,-0.00049464,0.000223
 95,0.00010452,-0.00006820,0.00003258,0.00001710,0.00002859,-0.00008792
 ,0.00005931,0.00002064,-0.00002548,-0.00000093,-0.00001601,0.00001829,
 -0.00003890,-0.00000539,-0.00000148,0.00000628,-0.00000777,0.00003111,
 -0.00000141,0.00000606,-0.00001165,-0.00000588,0.00000082,0.08223200,-
 0.08757926,0.06212724,-0.00596564,0.00344672,-0.00297309,-0.08620723,0
 .08388784,0.00016181,-0.00037510,0.00102348,-0.00018469,0.00023536,0.0
 0008989,-0.00002969,-0.00040456,0.00029264,-0.00018104,-0.00009672,-0.
 00012057,0.00129675,-0.00270722,-0.00731929,-0.00083385,0.00068754,0.0
 0013787,0.00035637,0.00009917,0.00003136,0.00010023,-0.00010115,0.0000
 5020,-0.00067473,0.00022893,-0.00030105,0.00011628,0.00003582,0.000762
 33,-0.00002605,-0.00002903,-0.00041717,0.00028465,-0.00015911,0.000158
 14,-0.00013036,-0.00007738,0.00008699,-0.00008836,-0.00009002,-0.00001
 923,0.00005020,-0.00001879,0.00002207,0.00001186,0.00000654,0.00001140
 ,-0.00000524,0.00001195,-0.00000529,-0.00000113,-0.00000305,0.00000480
 ,-0.00001454,0.00000298,-0.00000098,-0.00000007,-0.00000927,-0.0000030
 6,-0.10442303,0.05601925,-0.11378716,0.00676694,-0.00328151,0.00858418
 ,0.11549372,-0.06648018,0.13815562,-0.00004077,-0.00004422,0.00000831,
 0.00001690,-0.00001518,-0.00000461,0.00001471,-0.00000603,0.00001301,-
 0.00002886,0.00000235,-0.00000336,0.00015340,0.00012827,-0.00001271,-0
 .00006501,-0.00001163,0.00017091,0.00003342,-0.00017306,-0.00012532,0.
 00008091,-0.00001548,0.00005423,0.00041441,0.00086591,0.00019849,-0.00
 006950,-0.00000840,0.00029271,-0.00086634,0.00055404,-0.00003294,-0.00
 366273,0.02575977,0.01615712,0.00112745,-0.00096451,0.00048910,-0.0048
 5494,0.00318161,-0.00091686,-0.07956246,0.00864991,0.00590370,-0.00040
 612,0.00235766,0.00152066,0.00132260,-0.02485949,-0.01614056,0.0008478
 3,0.00062311,-0.00027981,0.00069745,-0.00066955,-0.00045000,-0.0046116
 4,-0.00442334,0.00000625,-0.00010099,0.00005827,-0.00000914,0.00000472
 ,-0.00002789,0.00000715,-0.00000214,0.00003015,0.00004201,0.56890671,-
 0.00002848,-0.00003319,-0.00001477,0.00000569,-0.00001121,0.00000297,0
 .00000325,-0.00000731,0.00000875,-0.00000801,0.00001100,-0.00000223,-0
 .00011544,0.00021589,0.00005968,-0.00055827,-0.00052690,-0.00030029,0.
 00015790,-0.00012330,0.00008628,0.00002510,-0.00003600,0.00004760,0.00
 047461,0.00110040,0.00067909,0.00012891,0.00001174,-0.00016497,-0.0000
 5119,-0.00058757,-0.00076747,0.00773494,-0.01935204,-0.00913908,-0.001
 13583,0.00072174,-0.00082580,0.00212499,-0.00031402,0.00038124,0.00572
 487,-0.14278850,-0.04472439,-0.00066884,0.00539435,0.00311560,-0.00340
 982,-0.02425229,-0.01350903,0.00131700,0.00093579,-0.00053891,0.001583
 12,0.00134043,0.00022386,-0.00228488,-0.00166343,0.00032083,-0.0000572
 1,0.00004511,0.00004938,0.00002497,-0.00001153,-0.00000633,-0.00001379
 ,0.00000393,0.00004034,0.01429713,0.49494058,-0.00005667,-0.00005170,0
 .00002383,0.00000745,0.00000264,-0.00000438,0.00000529,0.00000815,-0.0
 0000641,-0.00002973,0.00000296,-0.00000749,0.00006888,0.00013174,-0.00
 002496,-0.00019819,-0.00015066,0.00033531,-0.00001032,0.00001554,-0.00
 006744,0.00001478,0.00002194,-0.00002617,-0.00003169,0.00027032,-0.000
 19187,-0.00009415,0.00002588,0.00011009,0.00016278,0.00001960,0.000289
 78,0.00182572,0.00505498,0.00457163,-0.00064991,0.00141031,0.00092411,
 -0.00230480,0.00244611,0.00023270,0.00539785,-0.04704942,-0.11172309,0
 .00322856,-0.02896432,-0.01942170,-0.00239822,-0.00030465,0.00139884,0
 .00054397,0.00142408,0.00091798,0.00012512,-0.00002951,-0.00012216,0.0
 0103684,0.00173309,0.00075299,-0.00000217,-0.00000286,-0.00004730,-0.0
 0001881,-0.00000772,0.00000357,0.00000698,0.00001467,-0.00001377,0.008
 83650,-0.04945318,0.52207751,-0.00004416,-0.00003829,0.00000876,0.0000
 0600,0.00000560,0.00000053,0.00000976,0.00000115,-0.00000067,-0.000029
 96,-0.00000231,-0.00000446,0.00015083,0.00006009,-0.00002806,0.0000686
 6,0.00007882,0.00018862,-0.00010459,0.00006762,-0.00002590,-0.00000997
 ,0.00000353,-0.00001750,0.00003624,-0.00007542,-0.00038552,-0.00001396
 ,0.00003816,0.00010866,0.00033833,0.00025241,0.00019899,0.00091500,-0.
 00013579,0.00107558,0.00005485,-0.00012258,-0.00008269,-0.00014999,0.0
 0022903,-0.00008131,-0.00336425,0.00080681,-0.00073212,-0.00000586,0.0
 0009621,0.00054149,0.00065262,-0.00101655,-0.00019576,-0.00001349,0.00
 000764,0.00003716,0.00062065,0.00010490,-0.00006600,0.00020417,-0.0000
 3606,0.00019968,0.00001705,-0.00001312,-0.00004693,-0.00003700,-0.0000
 0587,0.00000626,0.00002191,0.00002535,-0.00002126,-0.22783545,0.104602
 99,-0.05595406,0.24697842,0.00003345,0.00003403,-0.00000391,-0.0000068
 0,0.00000069,0.00000029,-0.00000674,-0.00000117,-0.00000190,0.00002088
 ,-0.00000155,0.00000265,-0.00003774,-0.00010415,0.00000056,0.00021115,
 0.00024656,0.00005870,-0.00009642,0.00008226,0.00000848,-0.00003401,0.
 00000427,-0.00002011,-0.00070121,-0.00032206,-0.00010215,0.00006887,0.
 00002687,-0.00002671,0.00020542,0.00027739,0.00022464,-0.00117725,-0.0
 0423294,-0.00422090,-0.00035331,0.00027835,-0.00009038,0.00166988,-0.0
 0099194,0.00008059,0.02270155,-0.01412086,0.00846658,-0.00030635,0.001
 06449,-0.00013688,0.00146487,0.00096861,0.00097750,-0.00004858,-0.0000
 9356,-0.00000121,-0.00092806,-0.00023848,-0.00035015,-0.00020492,0.000
 49937,-0.00007986,0.00002000,-0.00001413,-0.00000135,0.00001031,0.0000
 1001,-0.00000048,-0.00000225,-0.00001395,-0.00000304,0.10322073,-0.105
 93390,0.03239224,-0.11518317,0.11623443,0.00000933,0.00001203,-0.00000
 595,-0.00000266,0.00000171,0.00000295,0.00000035,-0.00000287,0.0000003
 4,0.00000484,-0.00000181,0.00000134,-0.00000039,-0.00003781,-0.0000060
 0,0.00004946,0.00004434,-0.00004996,-0.00000855,0.00002351,0.00003305,
 0.00000209,-0.00002488,0.00000252,-0.00021214,-0.00019910,0.00009658,-
 0.00000908,0.00003533,0.00000653,0.00003942,0.00010327,-0.00007087,-0.
 00042761,-0.00286928,-0.00205768,0.00011134,-0.00033182,0.00033037,0.0
 0082071,-0.00069551,0.00050821,0.01660368,-0.00962305,0.00455719,0.000
 24520,0.00078685,0.00062690,0.00049350,0.00059968,0.00043631,-0.000197
 39,0.00005238,-0.00005695,-0.00021090,0.00004201,0.00017511,0.00020656
 ,0.00019378,-0.00010744,0.00000752,-0.00000394,-0.00000093,-0.00000064
 ,0.00000299,0.00000278,-0.00000111,-0.00000310,0.00000138,-0.05641218,
 0.03314776,-0.06414541,0.06174604,-0.03315232,0.06676078,0.00000423,-0
 .00000137,0.00000020,-0.00000015,-0.00000311,-0.00000313,-0.00000496,0
 .00000546,-0.00000298,0.00000309,0.00000185,0.00000110,-0.00002954,0.0
 0001708,0.00001538,0.00000774,0.00000397,0.00000779,0.00000834,0.00000
 544,-0.00000474,-0.00003157,0.00004772,-0.00002783,-0.00022122,0.00004
 192,-0.00008136,0.00010998,-0.00007415,-0.00016923,-0.00003576,-0.0001
 0754,0.00013894,0.00036340,-0.00061335,0.00125204,0.00012366,0.0002856
 1,-0.00024726,0.00001354,-0.00002850,-0.00022079,-0.00149018,-0.000683
 43,0.00387217,0.00058250,0.00074090,0.00045406,0.00012287,0.00023447,-
 0.00094733,0.00027788,-0.00015242,0.00000963,0.00001943,0.00004606,-0.
 00012933,-0.00010910,0.00003203,0.00015755,0.00003180,0.00000074,0.000
 04815,0.00000241,0.00000381,-0.00001395,-0.00000369,-0.00000427,-0.000
 01439,-0.04828360,-0.00389549,0.01419633,0.00233822,0.00621337,-0.0271
 6571,0.04707446,-0.00000539,-0.00000742,-0.00000054,0.00000117,0.00000
 075,-0.00000176,0.00000101,0.00000524,-0.00000197,-0.00000477,-0.00000
 142,0.00000087,0.00001831,0.00001048,0.00001548,0.00004819,0.00001902,
 0.00004249,-0.00001200,0.00001246,-0.00000802,0.00001381,0.00000873,-0
 .00000522,0.00002371,0.00002284,0.00003815,-0.00011461,-0.00009532,0.0
 0002175,0.00001443,0.00000097,0.00010870,-0.00070064,0.00178887,-0.000
 84098,-0.00001281,-0.00007998,0.00071714,-0.00030949,0.00021432,0.0002
 8903,0.00167246,0.00554109,-0.02803803,0.00059538,-0.00434717,-0.00361
 233,0.00072564,0.00174652,-0.00055825,-0.00010884,-0.00013874,0.000574
 63,-0.00007242,-0.00010250,0.00009118,0.00018508,0.00019655,0.00033047
 ,0.00002203,-0.00000531,0.00002391,-0.00000907,0.00000070,-0.00000605,
 0.00000126,0.00000020,-0.00001606,-0.00379843,-0.06173888,0.06006822,-
 0.00192748,-0.00446413,0.01462510,0.00348389,0.06663672,0.00001655,0.0
 0002136,-0.00000491,-0.00000304,0.00000240,0.00000166,0.00000083,-0.00
 000728,0.00000637,0.00001003,-0.00000195,0.00000077,-0.00001257,-0.000
 05954,-0.00002384,0.00002987,0.00004720,-0.00003334,0.00000517,-0.0000
 0488,0.00000569,0.00003808,-0.00004321,0.00003190,0.00018907,-0.000159
 85,0.00004951,-0.00017327,-0.00000364,0.00014332,0.00006390,0.00003982
 ,-0.00017571,-0.00075966,0.00115723,0.00055802,0.00070983,-0.00065961,
 0.00068794,-0.00008606,-0.00006625,0.00045560,0.00139207,0.00365462,-0
 .02050707,0.00029649,-0.00392250,-0.00073101,0.00044110,0.00110461,0.0
 0063216,-0.00062863,-0.00067662,0.00049076,0.00002100,-0.00003729,-0.0
 0004316,-0.00000387,-0.00012459,0.00047623,-0.00003506,0.00000151,-0.0
 0004310,0.00000908,-0.00000129,0.00001113,0.00000033,-0.00001179,0.000
 01358,0.01417283,0.05972727,-0.28417761,0.00036929,0.00199773,-0.00746
 559,-0.01636003,-0.06308655,0.31282773,0.00001686,0.00001840,-0.000005
 46,-0.00000252,-0.00000168,0.00000219,-0.00000342,0.00000017,-0.000003
 28,0.00001166,-0.00000007,0.00000050,0.00000653,-0.00006602,0.00000836
 ,0.00011851,0.00017927,0.00004457,-0.00005091,0.00004982,-0.00000326,-
 0.00000800,0.00000753,-0.00000831,-0.00099017,0.00043566,0.00000574,-0
 .00005570,-0.00004054,0.00003772,-0.00114809,0.00108153,0.00045125,0.0
 0004986,-0.00018608,-0.00048453,-0.00004303,0.00003579,-0.00001438,0.0
 0012376,-0.00016408,0.00005979,0.00383995,0.00311483,-0.00128252,0.000
 30087,-0.00040942,-0.00058674,0.00049283,0.00038111,-0.00033612,-0.000
 02873,0.00013225,0.00004238,0.00042071,0.00013730,0.00021533,0.0002463
 0,-0.00000952,0.00021339,0.00003819,0.00000669,0.00002944,0.00000962,-
 0.00000530,-0.00001195,-0.00000728,-0.00001180,0.00000078,-0.20320223,
 -0.12609702,0.02638934,-0.02066575,-0.01678659,0.00430510,-0.00089944,
 0.00029119,0.00027850,0.22143960,-0.00002812,-0.00002697,0.00000915,0.
 00000123,0.00001212,0.00000265,0.00000495,0.00000337,-0.00000647,-0.00
 002159,-0.00000617,-0.00000362,0.00016747,-0.00002152,-0.00005100,0.00
 035147,0.00038548,0.00034167,-0.00023044,0.00016922,-0.00001726,-0.000
 05716,0.00002386,-0.00006509,-0.00006415,-0.00056825,-0.00059967,0.000
 13344,-0.00001505,-0.00000732,0.00105387,0.00064600,0.00051091,-0.0011
 3089,0.00020370,0.00040876,0.00008159,-0.00005894,-0.00001477,0.000024
 47,0.00017449,-0.00006753,-0.02126329,-0.01539105,0.00565872,0.0001493
 6,0.00117489,-0.00017617,0.00227537,-0.00404747,-0.00400409,0.00031494
 ,0.00026549,0.00004361,-0.00009879,0.00025480,-0.00009374,-0.00155311,
 -0.00106169,-0.00005325,0.00004014,-0.00004669,-0.00004942,-0.00004456
 ,0.00000662,0.00001147,0.00002522,0.00002461,-0.00003266,-0.12446543,-
 0.14726364,0.02101503,0.01219150,0.01072786,-0.00275769,-0.00558357,-0
 .00521076,0.00108205,0.13786388,0.15960122,-0.00000218,-0.00001040,-0.
 00000955,0.00000317,-0.00000507,-0.00000119,-0.00000129,0.00000636,-0.
 00000127,-0.00000308,0.00000107,0.00000245,0.00000794,0.00003767,0.000
 03792,0.00003342,-0.00001475,-0.00010586,0.00000530,-0.00002458,-0.000
 00078,-0.00003637,0.00005102,-0.00002620,0.00031622,0.00008261,0.00044
 052,0.00009477,-0.00010822,-0.00027130,0.00002614,-0.00008563,0.000205
 62,0.00003080,0.00067246,0.00039486,0.00011425,0.00002231,0.00000330,-
 0.00014006,0.00006350,-0.00008055,-0.01614749,-0.01076663,0.00231042,-
 0.00046354,0.00075195,0.00055587,0.00103718,-0.00304775,-0.00199471,-0
 .00012864,-0.00037127,0.00028946,0.00032027,0.00014930,-0.00008358,-0.
 00079574,-0.00104512,0.00042457,0.00004529,0.00000350,0.00009693,-0.00
 000690,0.00000565,-0.00002066,0.00000081,0.00000299,-0.00002420,0.0266
 0193,0.02163796,-0.05165273,-0.00687599,-0.00605928,0.00039556,0.02529
 731,0.01926745,-0.00326098,-0.02933343,-0.02115849,0.05248655,0.002331
 94,0.01958228,0.02175943,-0.00365046,0.00484557,-0.00192085,0.00156247
 ,-0.00112878,-0.00042427,0.00299106,-0.00086434,0.00105227,-0.06201333
 ,0.00150531,-0.00349527,0.00273441,-0.02313569,-0.02377386,-0.00566636
 ,-0.00399359,0.00081152,0.00224592,0.00154056,0.00051603,-0.00005036,0
 .00102637,0.00068398,-0.00005313,-0.00028310,-0.00050831,-0.00018978,-
 0.00199986,-0.00103921,0.00074223,-0.00114026,-0.00099795,-0.00007509,
 -0.00001007,0.00015829,-0.00051210,-0.00012473,0.00014904,0.00026547,-
 0.00002404,0.00019504,0.00000330,0.00001159,-0.00000655,-0.00002806,0.
 00008140,-0.00003561,0.00000831,-0.00001661,0.00002779,-0.00010287,0.0
 0002338,-0.00000422,0.00003172,-0.00001313,0.00000497,-0.06300869,0.00
 438669,0.01379787,0.00583836,0.01430211,0.02916003,0.00851149,-0.01329
 879,-0.01805317,-0.00002774,0.00011880,-0.00009766,-0.00013829,0.00003
 293,0.00000320,0.00002563,-0.00002159,0.00001820,-0.00000996,-0.000137
 82,-0.00000007,0.10823390,0.00446227,-0.03196227,-0.02254856,0.0050290
 6,-0.00306246,0.00335152,-0.00199053,0.00181739,0.00137314,-0.00053320
 ,0.00177261,-0.00023957,-0.00460201,-0.16249093,-0.04205508,-0.0051852
 3,-0.02558644,-0.01935789,-0.00485966,-0.00112072,0.00184085,0.0014325
 3,0.00146078,0.00168657,0.00262017,-0.00120118,-0.00004997,-0.00022943
 ,-0.00007317,-0.00020741,-0.00138510,0.00113281,0.00070132,-0.00046586
 ,0.00084230,0.00036166,0.00001880,-0.00007293,-0.00001283,0.00039611,0
 .00043303,0.00010702,0.00000134,-0.00014278,0.00012604,-0.00001797,0.0
 0001669,-0.00001232,-0.00005898,0.00011134,-0.00000737,0.00000982,-0.0
 0001892,0.00000363,-0.00007564,-0.00000852,-0.00001300,0.00003994,0.00
 003708,0.00002584,0.01085819,-0.02099952,-0.04924360,-0.00092369,0.003
 71356,0.01125850,-0.00304048,0.00689398,0.01651698,-0.00024626,-0.0000
 7723,-0.00004345,-0.00001516,0.00007763,0.00003243,-0.00001713,-0.0000
 1382,0.00003102,0.00004269,0.00004446,-0.00005862,-0.00126459,0.228477
 24,0.00063315,0.00367009,0.00734054,-0.00087051,0.00194670,0.00107323,
 0.00178179,-0.00170872,0.00192462,0.00130331,-0.00038897,-0.00028989,-
 0.00781191,-0.08781628,-0.06702012,-0.00073328,-0.00081376,0.00146133,
 0.00020523,0.00088579,0.00140516,-0.00227282,-0.00114916,0.00170385,0.
 00032056,-0.00125957,-0.00104275,0.00054628,0.00000649,0.00090074,-0.0
 0119159,0.00089882,-0.00001754,-0.00027106,0.00048556,0.00065841,-0.00
 016850,-0.00015660,0.00005738,0.00024184,0.00026740,0.00000563,0.00000
 430,-0.00008509,-0.00011800,0.00002259,0.00000605,0.00008476,-0.000026
 34,0.00005557,0.00002490,-0.00000976,-0.00002231,0.00002141,-0.0000243
 7,-0.00000930,-0.00001118,0.00002159,0.00003700,0.00000979,0.01884139,
 -0.00177839,-0.21722924,0.00657820,-0.00332324,-0.02076840,0.00098780,
 -0.00617510,-0.02741416,-0.00008742,-0.00008216,-0.00000586,0.00003717
 ,0.00004065,0.00002886,-0.00006258,-0.00003881,0.00007395,-0.00001440,
 0.00007419,-0.00011046,-0.01798067,0.09643315,0.31725302\\-0.00000134,
 -0.00001130,-0.00000788,-0.00000451,-0.00000675,-0.00001205,-0.0000021
 8,-0.00001586,-0.00000987,-0.00000075,-0.00001276,-0.00000498,-0.00000
 020,-0.00000490,-0.00000169,-0.00000197,-0.00000307,-0.00000480,-0.000
 00443,0.00000009,-0.00000944,-0.00000226,-0.00000896,-0.00000725,-0.00
 000046,0.00000075,0.00000080,0.00000033,0.00000675,0.00000237,0.000002
 80,-0.00000271,0.00000525,-0.00000109,0.00000194,-0.00000261,-0.000001
 23,-0.00000344,-0.00000391,-0.00000397,0.00000528,-0.00000760,-0.00000
 008,0.00000696,0.00000243,0.00000037,0.00001275,0.00000432,-0.00000184
 ,0.00000927,-0.00000130,-0.00000171,0.00000397,-0.00000323,-0.00000058
 ,0.00001296,0.00000215,-0.00000402,0.00001270,-0.00000629,0.00000185,-
 0.00000191,0.00000503,0.00000252,-0.00000255,0.00000462,0.00000236,0.0
 0000274,0.00000703,0.00000396,0.00000272,0.00000961,0.00000485,0.00000
 647,0.00001315,0.00000389,-0.00000268,0.00000836,0.00000518,0.00000194
 ,0.00001306,0.00000451,-0.00001042,0.00000470\\\@
 Job cpu time:  0 days  2 hours 22 minutes 49.8 seconds.
 File lengths (MBytes):  RWF=  42000 Int=      0 D2E=      0 Chk=     16 Scr=      1
 Normal termination of Gaussian 09 at Tue Mar  4 16:47:56 2014.
