 Entering Gaussian System, Link 0=g09
 Initial command:
 /usr/caen/gaussian-09revc/g09/l1.exe /scratch/avioli_flux/hetanjin/scratch/Gau-79396.inp -scrdir=/scratch/avioli_flux/hetanjin/scratch/
 Entering Link 1 = /usr/caen/gaussian-09revc/g09/l1.exe PID=     79397.
  
 Copyright (c) 1988,1990,1992,1993,1995,1998,2003,2009,2011,
            Gaussian, Inc.  All Rights Reserved.
  
 This is part of the Gaussian(R) 09 program.  It is based on
 the Gaussian(R) 03 system (copyright 2003, Gaussian, Inc.),
 the Gaussian(R) 98 system (copyright 1998, Gaussian, Inc.),
 the Gaussian(R) 94 system (copyright 1995, Gaussian, Inc.),
 the Gaussian 92(TM) system (copyright 1992, Gaussian, Inc.),
 the Gaussian 90(TM) system (copyright 1990, Gaussian, Inc.),
 the Gaussian 88(TM) system (copyright 1988, Gaussian, Inc.),
 the Gaussian 86(TM) system (copyright 1986, Carnegie Mellon
 University), and the Gaussian 82(TM) system (copyright 1983,
 Carnegie Mellon University). Gaussian is a federally registered
 trademark of Gaussian, Inc.
  
 This software contains proprietary and confidential information,
 including trade secrets, belonging to Gaussian, Inc.
  
 This software is provided under written license and may be
 used, copied, transmitted, or stored only in accord with that
 written license.
  
 The following legend is applicable only to US Government
 contracts under FAR:
  
                    RESTRICTED RIGHTS LEGEND
  
 Use, reproduction and disclosure by the US Government is
 subject to restrictions as set forth in subparagraphs (a)
 and (c) of the Commercial Computer Software - Restricted
 Rights clause in FAR 52.227-19.
  
 Gaussian, Inc.
 340 Quinnipiac St., Bldg. 40, Wallingford CT 06492
  
  
 ---------------------------------------------------------------
 Warning -- This program may not be used in any manner that
 competes with the business of Gaussian, Inc. or will provide
 assistance to any competitor of Gaussian, Inc.  The licensee
 of this program is prohibited from giving any competitor of
 Gaussian, Inc. access to this program.  By using this program,
 the user acknowledges that Gaussian, Inc. is engaged in the
 business of creating and licensing software in the field of
 computational chemistry and represents and warrants to the
 licensee that it is not a competitor of Gaussian, Inc. and that
 it will not use this program in any manner prohibited above.
 ---------------------------------------------------------------
  

 Cite this work as:
 Gaussian 09, Revision C.01,
 M. J. Frisch, G. W. Trucks, H. B. Schlegel, G. E. Scuseria, 
 M. A. Robb, J. R. Cheeseman, G. Scalmani, V. Barone, B. Mennucci, 
 G. A. Petersson, H. Nakatsuji, M. Caricato, X. Li, H. P. Hratchian, 
 A. F. Izmaylov, J. Bloino, G. Zheng, J. L. Sonnenberg, M. Hada, 
 M. Ehara, K. Toyota, R. Fukuda, J. Hasegawa, M. Ishida, T. Nakajima, 
 Y. Honda, O. Kitao, H. Nakai, T. Vreven, J. A. Montgomery, Jr., 
 J. E. Peralta, F. Ogliaro, M. Bearpark, J. J. Heyd, E. Brothers, 
 K. N. Kudin, V. N. Staroverov, T. Keith, R. Kobayashi, J. Normand, 
 K. Raghavachari, A. Rendell, J. C. Burant, S. S. Iyengar, J. Tomasi, 
 M. Cossi, N. Rega, J. M. Millam, M. Klene, J. E. Knox, J. B. Cross, 
 V. Bakken, C. Adamo, J. Jaramillo, R. Gomperts, R. E. Stratmann, 
 O. Yazyev, A. J. Austin, R. Cammi, C. Pomelli, J. W. Ochterski, 
 R. L. Martin, K. Morokuma, V. G. Zakrzewski, G. A. Voth, 
 P. Salvador, J. J. Dannenberg, S. Dapprich, A. D. Daniels, 
 O. Farkas, J. B. Foresman, J. V. Ortiz, J. Cioslowski, 
 and D. J. Fox, Gaussian, Inc., Wallingford CT, 2010.
 
 ******************************************
 Gaussian 09:  EM64L-G09RevC.01 23-Sep-2011
                11-Mar-2014 
 ******************************************
 %mem=30GB
 %nprocshared=8
 Will use up to    8 processors via shared memory.
 %chk=C9H18O_23_26.chk
 --------------------------
 #p cbs-qb3 opt=calcfc freq
 --------------------------
 1/10=4,14=-1,18=20,19=15,26=3,38=1/1,3;
 2/9=110,12=2,17=6,18=5,40=1/2;
 3/5=4,6=6,7=700,11=2,16=1,25=1,30=1,71=2,74=-5/1,2,3;
 4//1;
 5/5=2,38=5/2;
 8/6=4,10=90,11=11/1;
 11/6=1,8=1,9=11,15=111,16=1/1,2,10;
 10/6=1,7=6,13=1/2;
 6/7=2,8=2,9=2,10=2,28=1/1;
 7/10=1,18=20,25=1/1,2,3,16;
 1/10=4,14=-1,18=20,19=15/3(2);
 2/9=110/2;
 99//99;
 2/9=110/2;
 3/5=4,6=6,7=700,11=2,16=1,25=1,30=1,71=1,74=-5/1,2,3;
 4/5=5,16=3/1;
 5/5=2,38=5/2;
 7//1,2,3,16;
 1/14=-1,18=20,19=15/3(-5);
 2/9=110/2;
 6/7=2,8=2,9=2,10=2,19=2,28=1/1;
 99/9=1/99;
 Leave Link    1 at Tue Mar 11 10:41:22 2014, MaxMem= 4026531840 cpu:       1.2
 (Enter /usr/caen/gaussian-09revc/g09/l101.exe)
 -----------------------------------------
 C9H18O_23_26 using cbs-qb3 to cal. energy
 -----------------------------------------
 Charge =  0 Multiplicity = 1
 Symbolic Z-Matrix:
 C                     3.66608  -0.34172   0.82172 
 H                     3.42588  -1.15719   1.5062 
 H                     4.00792   0.51725   1.40768 
 H                     4.49377  -0.66438   0.18258 
 C                     1.11348  -0.27679   0.49649 
 H                     1.0812   -0.76371   1.47381 
 C                    -0.16486   0.4446    0.14377 
 H                    -0.06969   0.92595  -0.8331 
 H                    -0.31601   1.24121   0.88175 
 C                    -1.37083  -0.50763   0.12706 
 H                    -1.49353  -0.95894   1.12129 
 H                    -1.1443   -1.33154  -0.55843 
 C                    -2.7041    0.13742  -0.29548 
 H                    -2.54733   0.61066  -1.2748 
 C                    -3.78745  -0.93717  -0.46374 
 H                    -3.98203  -1.44646   0.48664 
 H                    -4.73075  -0.50007  -0.8044 
 H                    -3.48618  -1.69575  -1.192 
 C                     2.71374   1.12656  -1.03059 
 H                     2.98207   2.05955  -0.52498 
 H                     3.54764   0.8475   -1.68197 
 H                     1.84391   1.30901  -1.6601 
 C                    -3.17088   1.22369   0.6845 
 H                    -4.12393   1.65463   0.36387 
 H                    -3.31767   0.80503   1.68676 
 H                    -2.45331   2.04396   0.76717 
 C                     2.46298   0.0273   -0.02122 
 O                     1.71667  -1.10928  -0.51538 
 
 NAtoms=     28 NQM=        0 NQMF=       0 NMMI=     28 NMMIF=      0
                NMic=       0 NMicF=      0.
                    Isotopes and Nuclear Properties:
 (Nuclear quadrupole moments (NQMom) in fm**2, nuclear magnetic moments (NMagM)
  in nuclear magnetons)

  Atom         1           2           3           4           5           6           7           8           9          10
 IAtWgt=          12           1           1           1          12           1          12           1           1          12
 AtmWgt=  12.0000000   1.0078250   1.0078250   1.0078250  12.0000000   1.0078250  12.0000000   1.0078250   1.0078250  12.0000000
 NucSpn=           0           1           1           1           0           1           0           1           1           0
 AtZEff=   0.0000000   0.0000000   0.0000000   0.0000000   0.0000000   0.0000000   0.0000000   0.0000000   0.0000000   0.0000000
 NQMom=    0.0000000   0.0000000   0.0000000   0.0000000   0.0000000   0.0000000   0.0000000   0.0000000   0.0000000   0.0000000
 NMagM=    0.0000000   2.7928460   2.7928460   2.7928460   0.0000000   2.7928460   0.0000000   2.7928460   2.7928460   0.0000000

  Atom        11          12          13          14          15          16          17          18          19          20
 IAtWgt=           1           1          12           1          12           1           1           1          12           1
 AtmWgt=   1.0078250   1.0078250  12.0000000   1.0078250  12.0000000   1.0078250   1.0078250   1.0078250  12.0000000   1.0078250
 NucSpn=           1           1           0           1           0           1           1           1           0           1
 AtZEff=   0.0000000   0.0000000   0.0000000   0.0000000   0.0000000   0.0000000   0.0000000   0.0000000   0.0000000   0.0000000
 NQMom=    0.0000000   0.0000000   0.0000000   0.0000000   0.0000000   0.0000000   0.0000000   0.0000000   0.0000000   0.0000000
 NMagM=    2.7928460   2.7928460   0.0000000   2.7928460   0.0000000   2.7928460   2.7928460   2.7928460   0.0000000   2.7928460

  Atom        21          22          23          24          25          26          27          28
 IAtWgt=           1           1          12           1           1           1          12          16
 AtmWgt=   1.0078250   1.0078250  12.0000000   1.0078250   1.0078250   1.0078250  12.0000000  15.9949146
 NucSpn=           1           1           0           1           1           1           0           0
 AtZEff=   0.0000000   0.0000000   0.0000000   0.0000000   0.0000000   0.0000000   0.0000000   0.0000000
 NQMom=    0.0000000   0.0000000   0.0000000   0.0000000   0.0000000   0.0000000   0.0000000   0.0000000
 NMagM=    2.7928460   2.7928460   0.0000000   2.7928460   2.7928460   2.7928460   0.0000000   0.0000000
 Leave Link  101 at Tue Mar 11 10:41:23 2014, MaxMem= 4026531840 cpu:       3.5
 (Enter /usr/caen/gaussian-09revc/g09/l103.exe)

 GradGradGradGradGradGradGradGradGradGradGradGradGradGradGradGradGradGrad
 Berny optimization.
 Initialization pass.
                           ----------------------------
                           !    Initial Parameters    !
                           ! (Angstroms and Degrees)  !
 --------------------------                            --------------------------
 ! Name  Definition              Value          Derivative Info.                !
 --------------------------------------------------------------------------------
 ! R1    R(1,2)                  1.0914         calculate D2E/DX2 analytically  !
 ! R2    R(1,3)                  1.0946         calculate D2E/DX2 analytically  !
 ! R3    R(1,4)                  1.0944         calculate D2E/DX2 analytically  !
 ! R4    R(1,27)                 1.5146         calculate D2E/DX2 analytically  !
 ! R5    R(5,6)                  1.0924         calculate D2E/DX2 analytically  !
 ! R6    R(5,7)                  1.5096         calculate D2E/DX2 analytically  !
 ! R7    R(5,27)                 1.477          calculate D2E/DX2 analytically  !
 ! R8    R(5,28)                 1.4425         calculate D2E/DX2 analytically  !
 ! R9    R(7,8)                  1.0932         calculate D2E/DX2 analytically  !
 ! R10   R(7,9)                  1.0964         calculate D2E/DX2 analytically  !
 ! R11   R(7,10)                 1.5367         calculate D2E/DX2 analytically  !
 ! R12   R(10,11)                1.0987         calculate D2E/DX2 analytically  !
 ! R13   R(10,12)                1.0955         calculate D2E/DX2 analytically  !
 ! R14   R(10,13)                1.5402         calculate D2E/DX2 analytically  !
 ! R15   R(13,14)                1.0989         calculate D2E/DX2 analytically  !
 ! R16   R(13,15)                1.5352         calculate D2E/DX2 analytically  !
 ! R17   R(13,23)                1.5357         calculate D2E/DX2 analytically  !
 ! R18   R(15,16)                1.0957         calculate D2E/DX2 analytically  !
 ! R19   R(15,17)                1.094          calculate D2E/DX2 analytically  !
 ! R20   R(15,18)                1.0939         calculate D2E/DX2 analytically  !
 ! R21   R(19,20)                1.0946         calculate D2E/DX2 analytically  !
 ! R22   R(19,21)                1.0943         calculate D2E/DX2 analytically  !
 ! R23   R(19,22)                1.0891         calculate D2E/DX2 analytically  !
 ! R24   R(19,27)                1.5133         calculate D2E/DX2 analytically  !
 ! R25   R(23,24)                1.094          calculate D2E/DX2 analytically  !
 ! R26   R(23,25)                1.0961         calculate D2E/DX2 analytically  !
 ! R27   R(23,26)                1.093          calculate D2E/DX2 analytically  !
 ! R28   R(27,28)                1.4467         calculate D2E/DX2 analytically  !
 ! A1    A(2,1,3)              108.6234         calculate D2E/DX2 analytically  !
 ! A2    A(2,1,4)              108.2053         calculate D2E/DX2 analytically  !
 ! A3    A(2,1,27)             110.8698         calculate D2E/DX2 analytically  !
 ! A4    A(3,1,4)              107.9278         calculate D2E/DX2 analytically  !
 ! A5    A(3,1,27)             110.7815         calculate D2E/DX2 analytically  !
 ! A6    A(4,1,27)             110.338          calculate D2E/DX2 analytically  !
 ! A7    A(6,5,7)              113.3917         calculate D2E/DX2 analytically  !
 ! A8    A(6,5,27)             115.6173         calculate D2E/DX2 analytically  !
 ! A9    A(6,5,28)             112.5013         calculate D2E/DX2 analytically  !
 ! A10   A(7,5,27)             126.3986         calculate D2E/DX2 analytically  !
 ! A11   A(7,5,28)             117.7736         calculate D2E/DX2 analytically  !
 ! A12   A(5,7,8)              110.2109         calculate D2E/DX2 analytically  !
 ! A13   A(5,7,9)              107.859          calculate D2E/DX2 analytically  !
 ! A14   A(5,7,10)             111.7761         calculate D2E/DX2 analytically  !
 ! A15   A(8,7,9)              107.0719         calculate D2E/DX2 analytically  !
 ! A16   A(8,7,10)             109.3576         calculate D2E/DX2 analytically  !
 ! A17   A(9,7,10)             110.4482         calculate D2E/DX2 analytically  !
 ! A18   A(7,10,11)            109.4102         calculate D2E/DX2 analytically  !
 ! A19   A(7,10,12)            108.0935         calculate D2E/DX2 analytically  !
 ! A20   A(7,10,13)            115.0119         calculate D2E/DX2 analytically  !
 ! A21   A(11,10,12)           106.2843         calculate D2E/DX2 analytically  !
 ! A22   A(11,10,13)           108.8811         calculate D2E/DX2 analytically  !
 ! A23   A(12,10,13)           108.8038         calculate D2E/DX2 analytically  !
 ! A24   A(10,13,14)           107.539          calculate D2E/DX2 analytically  !
 ! A25   A(10,13,15)           110.3519         calculate D2E/DX2 analytically  !
 ! A26   A(10,13,23)           112.6003         calculate D2E/DX2 analytically  !
 ! A27   A(14,13,15)           107.7247         calculate D2E/DX2 analytically  !
 ! A28   A(14,13,23)           107.9055         calculate D2E/DX2 analytically  !
 ! A29   A(15,13,23)           110.5232         calculate D2E/DX2 analytically  !
 ! A30   A(13,15,16)           110.8319         calculate D2E/DX2 analytically  !
 ! A31   A(13,15,17)           111.2797         calculate D2E/DX2 analytically  !
 ! A32   A(13,15,18)           111.3483         calculate D2E/DX2 analytically  !
 ! A33   A(16,15,17)           107.6186         calculate D2E/DX2 analytically  !
 ! A34   A(16,15,18)           107.7013         calculate D2E/DX2 analytically  !
 ! A35   A(17,15,18)           107.8925         calculate D2E/DX2 analytically  !
 ! A36   A(20,19,21)           107.7888         calculate D2E/DX2 analytically  !
 ! A37   A(20,19,22)           108.6624         calculate D2E/DX2 analytically  !
 ! A38   A(20,19,27)           110.5904         calculate D2E/DX2 analytically  !
 ! A39   A(21,19,22)           107.8941         calculate D2E/DX2 analytically  !
 ! A40   A(21,19,27)           109.7577         calculate D2E/DX2 analytically  !
 ! A41   A(22,19,27)           112.0166         calculate D2E/DX2 analytically  !
 ! A42   A(13,23,24)           110.8799         calculate D2E/DX2 analytically  !
 ! A43   A(13,23,25)           110.7362         calculate D2E/DX2 analytically  !
 ! A44   A(13,23,26)           112.308          calculate D2E/DX2 analytically  !
 ! A45   A(24,23,25)           107.5649         calculate D2E/DX2 analytically  !
 ! A46   A(24,23,26)           107.3665         calculate D2E/DX2 analytically  !
 ! A47   A(25,23,26)           107.7839         calculate D2E/DX2 analytically  !
 ! A48   A(1,27,5)             118.7179         calculate D2E/DX2 analytically  !
 ! A49   A(1,27,19)            114.6175         calculate D2E/DX2 analytically  !
 ! A50   A(1,27,28)            114.1071         calculate D2E/DX2 analytically  !
 ! A51   A(5,27,19)            122.3255         calculate D2E/DX2 analytically  !
 ! A52   A(19,27,28)           115.3618         calculate D2E/DX2 analytically  !
 ! D1    D(2,1,27,5)            24.4632         calculate D2E/DX2 analytically  !
 ! D2    D(2,1,27,19)         -178.3562         calculate D2E/DX2 analytically  !
 ! D3    D(2,1,27,28)          -42.2019         calculate D2E/DX2 analytically  !
 ! D4    D(3,1,27,5)           -96.2165         calculate D2E/DX2 analytically  !
 ! D5    D(3,1,27,19)           60.9641         calculate D2E/DX2 analytically  !
 ! D6    D(3,1,27,28)         -162.8815         calculate D2E/DX2 analytically  !
 ! D7    D(4,1,27,5)           144.325          calculate D2E/DX2 analytically  !
 ! D8    D(4,1,27,19)          -58.4944         calculate D2E/DX2 analytically  !
 ! D9    D(4,1,27,28)           77.66           calculate D2E/DX2 analytically  !
 ! D10   D(6,5,7,8)            179.0107         calculate D2E/DX2 analytically  !
 ! D11   D(6,5,7,9)             62.4409         calculate D2E/DX2 analytically  !
 ! D12   D(6,5,7,10)           -59.1579         calculate D2E/DX2 analytically  !
 ! D13   D(27,5,7,8)            24.3014         calculate D2E/DX2 analytically  !
 ! D14   D(27,5,7,9)           -92.2684         calculate D2E/DX2 analytically  !
 ! D15   D(27,5,7,10)          146.1328         calculate D2E/DX2 analytically  !
 ! D16   D(28,5,7,8)           -46.6363         calculate D2E/DX2 analytically  !
 ! D17   D(28,5,7,9)          -163.206          calculate D2E/DX2 analytically  !
 ! D18   D(28,5,7,10)           75.1952         calculate D2E/DX2 analytically  !
 ! D19   D(6,5,27,1)            -0.3205         calculate D2E/DX2 analytically  !
 ! D20   D(6,5,27,19)         -155.66           calculate D2E/DX2 analytically  !
 ! D21   D(7,5,27,1)           153.9042         calculate D2E/DX2 analytically  !
 ! D22   D(7,5,27,19)           -1.4354         calculate D2E/DX2 analytically  !
 ! D23   D(5,7,10,11)           60.1134         calculate D2E/DX2 analytically  !
 ! D24   D(5,7,10,12)          -55.2204         calculate D2E/DX2 analytically  !
 ! D25   D(5,7,10,13)         -176.998          calculate D2E/DX2 analytically  !
 ! D26   D(8,7,10,11)         -177.5654         calculate D2E/DX2 analytically  !
 ! D27   D(8,7,10,12)           67.1008         calculate D2E/DX2 analytically  !
 ! D28   D(8,7,10,13)          -54.6768         calculate D2E/DX2 analytically  !
 ! D29   D(9,7,10,11)          -59.9793         calculate D2E/DX2 analytically  !
 ! D30   D(9,7,10,12)         -175.3131         calculate D2E/DX2 analytically  !
 ! D31   D(9,7,10,13)           62.9093         calculate D2E/DX2 analytically  !
 ! D32   D(7,10,13,14)          54.9258         calculate D2E/DX2 analytically  !
 ! D33   D(7,10,13,15)         172.1698         calculate D2E/DX2 analytically  !
 ! D34   D(7,10,13,23)         -63.813          calculate D2E/DX2 analytically  !
 ! D35   D(11,10,13,14)        178.0969         calculate D2E/DX2 analytically  !
 ! D36   D(11,10,13,15)        -64.6591         calculate D2E/DX2 analytically  !
 ! D37   D(11,10,13,23)         59.3581         calculate D2E/DX2 analytically  !
 ! D38   D(12,10,13,14)        -66.4664         calculate D2E/DX2 analytically  !
 ! D39   D(12,10,13,15)         50.7776         calculate D2E/DX2 analytically  !
 ! D40   D(12,10,13,23)        174.7948         calculate D2E/DX2 analytically  !
 ! D41   D(10,13,15,16)         62.6499         calculate D2E/DX2 analytically  !
 ! D42   D(10,13,15,17)       -177.6314         calculate D2E/DX2 analytically  !
 ! D43   D(10,13,15,18)        -57.2185         calculate D2E/DX2 analytically  !
 ! D44   D(14,13,15,16)        179.779          calculate D2E/DX2 analytically  !
 ! D45   D(14,13,15,17)        -60.5024         calculate D2E/DX2 analytically  !
 ! D46   D(14,13,15,18)         59.9106         calculate D2E/DX2 analytically  !
 ! D47   D(23,13,15,16)        -62.5567         calculate D2E/DX2 analytically  !
 ! D48   D(23,13,15,17)         57.162          calculate D2E/DX2 analytically  !
 ! D49   D(23,13,15,18)        177.575          calculate D2E/DX2 analytically  !
 ! D50   D(10,13,23,24)       -179.383          calculate D2E/DX2 analytically  !
 ! D51   D(10,13,23,25)        -60.0564         calculate D2E/DX2 analytically  !
 ! D52   D(10,13,23,26)         60.4967         calculate D2E/DX2 analytically  !
 ! D53   D(14,13,23,24)         62.0927         calculate D2E/DX2 analytically  !
 ! D54   D(14,13,23,25)       -178.5807         calculate D2E/DX2 analytically  !
 ! D55   D(14,13,23,26)        -58.0276         calculate D2E/DX2 analytically  !
 ! D56   D(15,13,23,24)        -55.4606         calculate D2E/DX2 analytically  !
 ! D57   D(15,13,23,25)         63.8661         calculate D2E/DX2 analytically  !
 ! D58   D(15,13,23,26)       -175.5808         calculate D2E/DX2 analytically  !
 ! D59   D(20,19,27,1)         -62.6777         calculate D2E/DX2 analytically  !
 ! D60   D(20,19,27,5)          93.5877         calculate D2E/DX2 analytically  !
 ! D61   D(20,19,27,28)        161.7286         calculate D2E/DX2 analytically  !
 ! D62   D(21,19,27,1)          56.1197         calculate D2E/DX2 analytically  !
 ! D63   D(21,19,27,5)        -147.615          calculate D2E/DX2 analytically  !
 ! D64   D(21,19,27,28)        -79.474          calculate D2E/DX2 analytically  !
 ! D65   D(22,19,27,1)         175.9479         calculate D2E/DX2 analytically  !
 ! D66   D(22,19,27,5)         -27.7867         calculate D2E/DX2 analytically  !
 ! D67   D(22,19,27,28)         40.3542         calculate D2E/DX2 analytically  !
 --------------------------------------------------------------------------------
 Trust Radius=3.00D-01 FncErr=1.00D-07 GrdErr=1.00D-06
 Number of steps in this run=    157 maximum allowed number of steps=    168.
 GradGradGradGradGradGradGradGradGradGradGradGradGradGradGradGradGradGrad

 Leave Link  103 at Tue Mar 11 10:41:23 2014, MaxMem= 4026531840 cpu:       0.2
 (Enter /usr/caen/gaussian-09revc/g09/l202.exe)
                          Input orientation:                          
 ---------------------------------------------------------------------
 Center     Atomic      Atomic             Coordinates (Angstroms)
 Number     Number       Type             X           Y           Z
 ---------------------------------------------------------------------
      1          6           0        3.666078   -0.341721    0.821715
      2          1           0        3.425879   -1.157190    1.506198
      3          1           0        4.007920    0.517253    1.407675
      4          1           0        4.493772   -0.664380    0.182580
      5          6           0        1.113484   -0.276788    0.496491
      6          1           0        1.081201   -0.763706    1.473814
      7          6           0       -0.164860    0.444602    0.143769
      8          1           0       -0.069685    0.925949   -0.833100
      9          1           0       -0.316012    1.241205    0.881749
     10          6           0       -1.370833   -0.507632    0.127061
     11          1           0       -1.493532   -0.958937    1.121290
     12          1           0       -1.144295   -1.331538   -0.558434
     13          6           0       -2.704096    0.137419   -0.295483
     14          1           0       -2.547329    0.610656   -1.274797
     15          6           0       -3.787446   -0.937174   -0.463742
     16          1           0       -3.982030   -1.446462    0.486644
     17          1           0       -4.730747   -0.500069   -0.804404
     18          1           0       -3.486176   -1.695748   -1.191996
     19          6           0        2.713735    1.126564   -1.030585
     20          1           0        2.982068    2.059551   -0.524976
     21          1           0        3.547636    0.847495   -1.681972
     22          1           0        1.843907    1.309012   -1.660098
     23          6           0       -3.170878    1.223685    0.684502
     24          1           0       -4.123934    1.654626    0.363868
     25          1           0       -3.317674    0.805034    1.686755
     26          1           0       -2.453314    2.043956    0.767172
     27          6           0        2.462981    0.027300   -0.021220
     28          8           0        1.716669   -1.109279   -0.515377
 ---------------------------------------------------------------------
                    Distance matrix (angstroms):
                    1          2          3          4          5
     1  C    0.000000
     2  H    1.091422   0.000000
     3  H    1.094551   1.775454   0.000000
     4  H    1.094386   1.770656   1.770075   0.000000
     5  C    2.574048   2.672412   3.136641   3.416887   0.000000
     6  H    2.699054   2.377687   3.195452   3.650040   1.092379
     7  C    3.969131   4.161173   4.360600   4.788966   1.509629
     8  H    4.278005   4.693693   4.670650   4.938207   2.148087
     9  H    4.285592   4.488205   4.415551   5.220547   2.120421
    10  C    5.087292   5.033129   5.623286   5.866962   2.522221
    11  H    5.205024   4.938427   5.703256   6.067598   2.766267
    12  H    5.101396   5.017927   5.816264   5.725557   2.706091
    13  C    6.485123   6.519100   6.935141   7.258149   3.920804
    14  H    6.626372   6.821908   7.083479   7.302518   4.162520
    15  C    7.586961   7.480717   8.147717   8.310880   5.037586
    16  H    7.734745   7.483334   8.279117   8.517237   5.228049
    17  H    8.554298   8.503013   9.071523   9.278625   5.991429
    18  H    7.552692   7.439543   8.235116   8.162889   5.101109
    19  C    2.548300   3.486825   2.826886   2.801389   2.619573
    20  H    2.836821   3.830151   2.676975   3.194634   3.161247
    21  H    2.774295   3.768025   3.141153   2.580212   3.454679
    22  H    3.493511   4.313956   3.836804   3.783057   2.774735
    23  C    7.015219   7.061229   7.249632   7.909714   4.543405
    24  H    8.054770   8.137008   8.277089   8.926114   5.583771
    25  H    7.129946   7.025556   7.336554   8.089525   4.714046
    26  H    6.568210   6.734865   6.669978   7.479227   4.263938
    27  C    1.514648   2.159443   2.160702   2.155010   1.477036
    28  O    2.485388   2.647727   3.404933   2.897823   1.442481
                    6          7          8          9         10
     6  H    0.000000
     7  C    2.186709   0.000000
     8  H    3.082422   1.093173   0.000000
     9  H    2.514441   1.096375   1.760900   0.000000
    10  C    2.809233   1.536685   2.161030   2.177299   0.000000
    11  H    2.606077   2.165834   3.065905   2.506902   1.098737
    12  H    3.066806   2.146405   2.515249   3.062546   1.095465
    13  C    4.274449   2.595192   2.801952   2.882215   1.540203
    14  H    4.754994   2.777780   2.536380   3.166553   2.144742
    15  C    5.242894   3.924475   4.174853   4.313529   2.524594
    16  H    5.203553   4.273695   4.761985   4.562823   2.798044
    17  H    6.248081   4.758021   4.874408   5.036371   3.486647
    18  H    5.369933   4.170912   4.321402   4.793334   2.761559
    19  C    3.536991   3.182843   2.797619   3.584624   4.549114
    20  H    3.947054   3.599783   3.270044   3.677757   5.095422
    21  H    4.317205   4.156715   3.716416   4.653542   5.412976
    22  H    3.833965   2.834834   2.119551   3.336290   4.102278
    23  C    4.759508   3.152064   3.465424   2.861726   2.558977
    24  H    5.845831   4.145705   4.289596   3.865150   3.508704
    25  H    4.675082   3.528591   4.112630   3.138193   2.818852
    26  H    4.568928   2.860697   3.080990   2.285956   2.844663
    27  C    2.184063   2.665879   2.807333   3.164130   3.873793
    28  O    2.116630   2.527681   2.726566   3.407129   3.210510
                   11         12         13         14         15
    11  H    0.000000
    12  H    1.755640   0.000000
    13  C    2.162107   2.158693   0.000000
    14  H    3.052105   2.500759   1.098902   0.000000
    15  C    2.788340   2.674086   1.535157   2.142773   0.000000
    16  H    2.614016   3.026241   2.180256   3.064764   1.095660
    17  H    3.794525   3.689780   2.184652   2.494453   1.094042
    18  H    3.140830   2.453254   2.185380   2.491544   1.093870
    19  C    5.165363   4.598868   5.556229   5.291937   6.844390
    20  H    5.643798   5.341112   6.006640   5.765046   7.403407
    21  H    6.044406   5.293840   6.442881   6.113140   7.646735
    22  H    4.900838   4.137091   4.890719   4.463083   6.179705
    23  C    2.787133   3.490142   1.535653   2.145570   2.523476
    24  H    3.784629   4.318109   2.180046   2.502155   2.741458
    25  H    2.599777   3.785418   2.179783   3.066269   2.807243
    26  H    3.172373   3.855479   2.197046   2.496563   3.490300
    27  C    4.234618   3.891976   5.175522   5.197592   6.339864
    28  O    3.606476   2.869907   4.598453   4.660105   5.507047
                   16         17         18         19         20
    16  H    0.000000
    17  H    1.767213   0.000000
    18  H    1.768006   1.768851   0.000000
    19  C    7.331829   7.623477   6.813985   0.000000
    20  H    7.862198   8.131251   7.509019   1.094581   0.000000
    21  H    8.164619   8.433130   7.495510   1.094338   1.768498
    22  H    6.792840   6.872486   6.136570   1.089116   1.774041
    23  C    2.797642   2.760681   3.484788   6.130222   6.326156
    24  H    3.106760   2.525033   3.748660   6.998362   7.172815
    25  H    2.636450   3.147371   3.817003   6.623082   6.793550
    26  H    3.820823   3.758805   4.346324   5.547246   5.586883
    27  C    6.630842   7.255427   6.303339   1.513300   2.157143
    28  O    5.795939   6.482580   5.279333   2.501714   3.412156
                   21         22         23         24         25
    21  H    0.000000
    22  H    1.765267   0.000000
    23  C    7.133032   5.536470   0.000000
    24  H    7.980596   6.311182   1.093998   0.000000
    25  H    7.647392   6.172304   1.096051   1.766888   0.000000
    26  H    6.590996   4.989779   1.092967   1.762159   1.768524
    27  C    2.146461   2.170705   5.802564   6.795876   6.077666
    28  O    2.922730   2.678564   5.547121   6.521111   5.818813
                   26         27         28
    26  H    0.000000
    27  C    5.372003   0.000000
    28  O    5.382990   1.446715   0.000000
 Stoichiometry    C9H18O
 Framework group  C1[X(C9H18O)]
 Deg. of freedom    78
 Full point group                 C1      NOp   1
 Largest Abelian subgroup         C1      NOp   1
 Largest concise Abelian subgroup C1      NOp   1
                         Standard orientation:                         
 ---------------------------------------------------------------------
 Center     Atomic      Atomic             Coordinates (Angstroms)
 Number     Number       Type             X           Y           Z
 ---------------------------------------------------------------------
      1          6           0        3.666078   -0.341721    0.821715
      2          1           0        3.425879   -1.157190    1.506198
      3          1           0        4.007920    0.517253    1.407675
      4          1           0        4.493772   -0.664380    0.182580
      5          6           0        1.113484   -0.276788    0.496491
      6          1           0        1.081201   -0.763706    1.473814
      7          6           0       -0.164860    0.444602    0.143769
      8          1           0       -0.069685    0.925949   -0.833100
      9          1           0       -0.316012    1.241205    0.881749
     10          6           0       -1.370833   -0.507632    0.127061
     11          1           0       -1.493532   -0.958937    1.121290
     12          1           0       -1.144295   -1.331538   -0.558434
     13          6           0       -2.704096    0.137419   -0.295483
     14          1           0       -2.547329    0.610656   -1.274797
     15          6           0       -3.787446   -0.937174   -0.463742
     16          1           0       -3.982030   -1.446462    0.486644
     17          1           0       -4.730747   -0.500069   -0.804404
     18          1           0       -3.486176   -1.695748   -1.191996
     19          6           0        2.713735    1.126564   -1.030585
     20          1           0        2.982068    2.059551   -0.524976
     21          1           0        3.547636    0.847495   -1.681972
     22          1           0        1.843907    1.309012   -1.660098
     23          6           0       -3.170878    1.223685    0.684502
     24          1           0       -4.123934    1.654626    0.363868
     25          1           0       -3.317674    0.805034    1.686755
     26          1           0       -2.453314    2.043956    0.767172
     27          6           0        2.462981    0.027300   -0.021220
     28          8           0        1.716669   -1.109279   -0.515377
 ---------------------------------------------------------------------
 Rotational constants (GHZ):      3.1616546      0.4963533      0.4782180
 Leave Link  202 at Tue Mar 11 10:41:23 2014, MaxMem= 4026531840 cpu:       0.6
 (Enter /usr/caen/gaussian-09revc/g09/l301.exe)
 Standard basis: 6-311G(2d,d,p) (5D, 7F)
 Ernie: Thresh=  0.10000D-02 Tol=  0.10000D-05 Strict=F.
 There are   288 symmetry adapted basis functions of A   symmetry.
 Integral buffers will be    131072 words long.
 Raffenetti 2 integral format.
 Two-electron integral symmetry is turned on.
   288 basis functions,   464 primitive gaussians,   298 cartesian basis functions
    40 alpha electrons       40 beta electrons
       nuclear repulsion energy       552.2725908626 Hartrees.
 IExCor=  402 DFT=T Ex+Corr=B3LYP ExCW=0 ScaHFX=  0.200000
 ScaDFX=  0.800000  0.720000  1.000000  0.810000 ScalE2=  1.000000  1.000000
 IRadAn=      0 IRanWt=     -1 IRanGd=            0 ICorTp=0
 NAtoms=   28 NActive=   28 NUniq=   28 SFac= 1.00D+00 NAtFMM=   60 NAOKFM=F Big=F
 Leave Link  301 at Tue Mar 11 10:41:24 2014, MaxMem= 4026531840 cpu:       0.9
 (Enter /usr/caen/gaussian-09revc/g09/l302.exe)
 NPDir=0 NMtPBC=     1 NCelOv=     1 NCel=       1 NClECP=     1 NCelD=      1
         NCelK=      1 NCelE2=     1 NClLst=     1 CellRange=     0.0.
 One-electron integrals computed using PRISM.
 NBasis=   288 RedAO= T  NBF=   288
 NBsUse=   288 1.00D-06 NBFU=   288
 Precomputing XC quadrature grid using
 IXCGrd= 2 IRadAn=           0 IRanWt=          -1 IRanGd=           0 AccXCQ= 0.00D+00.
 NRdTot=    1784 NPtTot=      226754 NUsed=      239619 NTot=      239651
 NSgBfM=   298   298   298   298   298 NAtAll=    28    28.
 Leave Link  302 at Tue Mar 11 10:41:25 2014, MaxMem= 4026531840 cpu:       4.3
 (Enter /usr/caen/gaussian-09revc/g09/l303.exe)
 DipDrv:  MaxL=1.
 Leave Link  303 at Tue Mar 11 10:41:26 2014, MaxMem= 4026531840 cpu:       1.7
 (Enter /usr/caen/gaussian-09revc/g09/l401.exe)
 Harris functional with IExCor=  402 diagonalized for initial guess.
 ExpMin= 1.03D-01 ExpMax= 8.59D+03 ExpMxC= 1.30D+03 IAcc=1 IRadAn=         1 AccDes= 0.00D+00
 HarFok:  IExCor=  402 AccDes= 0.00D+00 IRadAn=         1 IDoV= 1
 ScaDFX=  1.000000  1.000000  1.000000  1.000000
 FoFCou: FMM=F IPFlag=           0 FMFlag=      100000 FMFlg1=           0
         NFxFlg=           0 DoJE=T BraDBF=F KetDBF=T FulRan=T
         Omega=  0.000000  0.000000  1.000000  0.000000  0.000000 ICntrl=     500 IOpCl=  0
         NMat0=    1 NMatS0=    1 NMatT0=    0 NMatD0=    1 NMtDS0=    0 NMtDT0=    0
         I1Cent=           4 NGrid=           0.
 Petite list used in FoFCou.
 Harris En= -429.199895520303    
 Initial guess orbital symmetries:
       Occupied  (A) (A) (A) (A) (A) (A) (A) (A) (A) (A) (A) (A)
                 (A) (A) (A) (A) (A) (A) (A) (A) (A) (A) (A) (A)
                 (A) (A) (A) (A) (A) (A) (A) (A) (A) (A) (A) (A)
                 (A) (A) (A) (A)
       Virtual   (A) (A) (A) (A) (A) (A) (A) (A) (A) (A) (A) (A)
                 (A) (A) (A) (A) (A) (A) (A) (A) (A) (A) (A) (A)
                 (A) (A) (A) (A) (A) (A) (A) (A) (A) (A) (A) (A)
                 (A) (A) (A) (A) (A) (A) (A) (A) (A) (A) (A) (A)
                 (A) (A) (A) (A) (A) (A) (A) (A) (A) (A) (A) (A)
                 (A) (A) (A) (A) (A) (A) (A) (A) (A) (A) (A) (A)
                 (A) (A) (A) (A) (A) (A) (A) (A) (A) (A) (A) (A)
                 (A) (A) (A) (A) (A) (A) (A) (A) (A) (A) (A) (A)
                 (A) (A) (A) (A) (A) (A) (A) (A) (A) (A) (A) (A)
                 (A) (A) (A) (A) (A) (A) (A) (A) (A) (A) (A) (A)
                 (A) (A) (A) (A) (A) (A) (A) (A) (A) (A) (A) (A)
                 (A) (A) (A) (A) (A) (A) (A) (A) (A) (A) (A) (A)
                 (A) (A) (A) (A) (A) (A) (A) (A) (A) (A) (A) (A)
                 (A) (A) (A) (A) (A) (A) (A) (A) (A) (A) (A) (A)
                 (A) (A) (A) (A) (A) (A) (A) (A) (A) (A) (A) (A)
                 (A) (A) (A) (A) (A) (A) (A) (A) (A) (A) (A) (A)
                 (A) (A) (A) (A) (A) (A) (A) (A) (A) (A) (A) (A)
                 (A) (A) (A) (A) (A) (A) (A) (A) (A) (A) (A) (A)
                 (A) (A) (A) (A) (A) (A) (A) (A) (A) (A) (A) (A)
                 (A) (A) (A) (A) (A) (A) (A) (A) (A) (A) (A) (A)
                 (A) (A) (A) (A) (A) (A) (A) (A)
 The electronic state of the initial guess is 1-A.
 Leave Link  401 at Tue Mar 11 10:41:27 2014, MaxMem= 4026531840 cpu:       6.5
 (Enter /usr/caen/gaussian-09revc/g09/l502.exe)
 Closed shell SCF:
 Requested convergence on RMS density matrix=1.00D-08 within 128 cycles.
 Requested convergence on MAX density matrix=1.00D-06.
 Requested convergence on             energy=1.00D-06.
 No special actions if energy rises.
 Using DIIS extrapolation, IDIIS=  1040.
 Integral symmetry usage will be decided dynamically.
       239354 words used for storage of precomputed grid.
 Keep R1 ints in memory in canonical form, NReq=1006311940.
 IEnd=      528550 IEndB=      528550 NGot=  4026531840 MDV=  3033690929
 LenX=  3033690929 LenY=  3033601684
 Symmetry not used in FoFDir.
 MinBra= 0 MaxBra= 2 Meth= 1.
 IRaf=       0 NMat=   1 IRICut=       1 DoRegI=T DoRafI=F ISym2E= 0 JSym2E=0.
 Integral accuracy reduced to 1.0D-05 until final iterations.

 Cycle   1  Pass 0  IDiag  1:
 E= -428.751757737635    
 DIIS: error= 3.88D-02 at cycle   1 NSaved=   1.
 NSaved= 1 IEnMin= 1 EnMin= -428.751757737635     IErMin= 1 ErrMin= 3.88D-02
 ErrMax= 3.88D-02 EMaxC= 1.00D-01 BMatC= 3.75D-01 BMatP= 3.75D-01
 IDIUse=3 WtCom= 6.12D-01 WtEn= 3.88D-01
 Coeff-Com:  0.100D+01
 Coeff-En:   0.100D+01
 Coeff:      0.100D+01
 Gap=     0.325 Goal=   None    Shift=    0.000
 GapD=    0.325 DampG=1.000 DampE=0.500 DampFc=0.5000 IDamp=-1.
 Damping current iteration by 5.00D-01
 RMSDP=3.55D-03 MaxDP=1.21D-01              OVMax= 1.94D-01

 Cycle   2  Pass 0  IDiag  1:
 E= -428.912811129376     Delta-E=       -0.161053391741 Rises=F Damp=T
 DIIS: error= 5.18D-03 at cycle   2 NSaved=   2.
 NSaved= 2 IEnMin= 2 EnMin= -428.912811129376     IErMin= 2 ErrMin= 5.18D-03
 ErrMax= 5.18D-03 EMaxC= 1.00D-01 BMatC= 1.70D-02 BMatP= 3.75D-01
 IDIUse=3 WtCom= 9.48D-01 WtEn= 5.18D-02
 Coeff-Com:  0.633D-01 0.937D+00
 Coeff-En:   0.138D+00 0.862D+00
 Coeff:      0.672D-01 0.933D+00
 Gap=     0.316 Goal=   None    Shift=    0.000
 RMSDP=6.65D-04 MaxDP=1.86D-02 DE=-1.61D-01 OVMax= 1.07D-01

 Cycle   3  Pass 0  IDiag  1:
 E= -429.115697136852     Delta-E=       -0.202886007476 Rises=F Damp=F
 DIIS: error= 4.64D-03 at cycle   3 NSaved=   3.
 NSaved= 3 IEnMin= 3 EnMin= -429.115697136852     IErMin= 3 ErrMin= 4.64D-03
 ErrMax= 4.64D-03 EMaxC= 1.00D-01 BMatC= 5.32D-03 BMatP= 1.70D-02
 IDIUse=3 WtCom= 9.54D-01 WtEn= 4.64D-02
 Coeff-Com: -0.156D-01 0.316D+00 0.700D+00
 Coeff-En:   0.000D+00 0.000D+00 0.100D+01
 Coeff:     -0.148D-01 0.301D+00 0.714D+00
 Gap=     0.297 Goal=   None    Shift=    0.000
 RMSDP=3.12D-04 MaxDP=9.12D-03 DE=-2.03D-01 OVMax= 1.74D-02

 Cycle   4  Pass 0  IDiag  1:
 E= -429.117757424186     Delta-E=       -0.002060287333 Rises=F Damp=F
 DIIS: error= 5.27D-03 at cycle   4 NSaved=   4.
 NSaved= 4 IEnMin= 4 EnMin= -429.117757424186     IErMin= 3 ErrMin= 4.64D-03
 ErrMax= 5.27D-03 EMaxC= 1.00D-01 BMatC= 3.31D-03 BMatP= 5.32D-03
 IDIUse=3 WtCom= 9.47D-01 WtEn= 5.27D-02
 Coeff-Com: -0.158D-01 0.917D-01 0.459D+00 0.465D+00
 Coeff-En:   0.000D+00 0.000D+00 0.369D+00 0.631D+00
 Coeff:     -0.150D-01 0.869D-01 0.455D+00 0.474D+00
 Gap=     0.303 Goal=   None    Shift=    0.000
 RMSDP=1.55D-04 MaxDP=7.40D-03 DE=-2.06D-03 OVMax= 9.98D-03

 Cycle   5  Pass 0  IDiag  1:
 E= -429.120247098112     Delta-E=       -0.002489673927 Rises=F Damp=F
 DIIS: error= 1.19D-03 at cycle   5 NSaved=   5.
 NSaved= 5 IEnMin= 5 EnMin= -429.120247098112     IErMin= 5 ErrMin= 1.19D-03
 ErrMax= 1.19D-03 EMaxC= 1.00D-01 BMatC= 1.53D-04 BMatP= 3.31D-03
 IDIUse=3 WtCom= 9.88D-01 WtEn= 1.19D-02
 Coeff-Com: -0.664D-02 0.233D-01 0.187D+00 0.252D+00 0.544D+00
 Coeff-En:   0.000D+00 0.000D+00 0.000D+00 0.000D+00 0.100D+01
 Coeff:     -0.656D-02 0.230D-01 0.184D+00 0.249D+00 0.550D+00
 Gap=     0.300 Goal=   None    Shift=    0.000
 RMSDP=4.16D-05 MaxDP=1.57D-03 DE=-2.49D-03 OVMax= 2.43D-03

 Cycle   6  Pass 0  IDiag  1:
 E= -429.120351606848     Delta-E=       -0.000104508735 Rises=F Damp=F
 DIIS: error= 2.47D-04 at cycle   6 NSaved=   6.
 NSaved= 6 IEnMin= 6 EnMin= -429.120351606848     IErMin= 6 ErrMin= 2.47D-04
 ErrMax= 2.47D-04 EMaxC= 1.00D-01 BMatC= 1.55D-05 BMatP= 1.53D-04
 IDIUse=3 WtCom= 9.98D-01 WtEn= 2.47D-03
 Coeff-Com: -0.166D-02 0.210D-02 0.513D-01 0.866D-01 0.304D+00 0.558D+00
 Coeff-En:   0.000D+00 0.000D+00 0.000D+00 0.000D+00 0.505D-01 0.949D+00
 Coeff:     -0.165D-02 0.209D-02 0.512D-01 0.864D-01 0.303D+00 0.559D+00
 Gap=     0.301 Goal=   None    Shift=    0.000
 RMSDP=1.08D-05 MaxDP=5.99D-04 DE=-1.05D-04 OVMax= 6.18D-04

 Cycle   7  Pass 0  IDiag  1:
 E= -429.120364875761     Delta-E=       -0.000013268913 Rises=F Damp=F
 DIIS: error= 1.44D-05 at cycle   7 NSaved=   7.
 NSaved= 7 IEnMin= 7 EnMin= -429.120364875761     IErMin= 7 ErrMin= 1.44D-05
 ErrMax= 1.44D-05 EMaxC= 1.00D-01 BMatC= 1.40D-07 BMatP= 1.55D-05
 IDIUse=1 WtCom= 1.00D+00 WtEn= 0.00D+00
 Coeff-Com: -0.197D-03-0.262D-03 0.945D-02 0.183D-01 0.726D-01 0.169D+00
 Coeff-Com:  0.731D+00
 Coeff:     -0.197D-03-0.262D-03 0.945D-02 0.183D-01 0.726D-01 0.169D+00
 Coeff:      0.731D+00
 Gap=     0.301 Goal=   None    Shift=    0.000
 RMSDP=1.62D-06 MaxDP=4.36D-05 DE=-1.33D-05 OVMax= 7.29D-05

 Initial convergence to 1.0D-05 achieved.  Increase integral accuracy.
 Cycle   8  Pass 1  IDiag  1:
 E= -429.120460117940     Delta-E=       -0.000095242179 Rises=F Damp=F
 DIIS: error= 1.28D-05 at cycle   1 NSaved=   1.
 NSaved= 1 IEnMin= 1 EnMin= -429.120460117940     IErMin= 1 ErrMin= 1.28D-05
 ErrMax= 1.28D-05 EMaxC= 1.00D-01 BMatC= 1.51D-07 BMatP= 1.51D-07
 IDIUse=1 WtCom= 1.00D+00 WtEn= 0.00D+00
 Coeff-Com:  0.100D+01
 Coeff:      0.100D+01
 Gap=     0.301 Goal=   None    Shift=    0.000
 RMSDP=1.62D-06 MaxDP=4.36D-05 DE=-9.52D-05 OVMax= 8.71D-05

 Cycle   9  Pass 1  IDiag  1:
 E= -429.120460283985     Delta-E=       -0.000000166045 Rises=F Damp=F
 DIIS: error= 9.92D-06 at cycle   2 NSaved=   2.
 NSaved= 2 IEnMin= 2 EnMin= -429.120460283985     IErMin= 2 ErrMin= 9.92D-06
 ErrMax= 9.92D-06 EMaxC= 1.00D-01 BMatC= 3.41D-08 BMatP= 1.51D-07
 IDIUse=1 WtCom= 1.00D+00 WtEn= 0.00D+00
 Coeff-Com:  0.242D+00 0.758D+00
 Coeff:      0.242D+00 0.758D+00
 Gap=     0.301 Goal=   None    Shift=    0.000
 RMSDP=9.01D-07 MaxDP=3.80D-05 DE=-1.66D-07 OVMax= 4.54D-05

 Cycle  10  Pass 1  IDiag  1:
 E= -429.120460300830     Delta-E=       -0.000000016845 Rises=F Damp=F
 DIIS: error= 7.08D-06 at cycle   3 NSaved=   3.
 NSaved= 3 IEnMin= 3 EnMin= -429.120460300830     IErMin= 3 ErrMin= 7.08D-06
 ErrMax= 7.08D-06 EMaxC= 1.00D-01 BMatC= 1.75D-08 BMatP= 3.41D-08
 IDIUse=1 WtCom= 1.00D+00 WtEn= 0.00D+00
 Coeff-Com: -0.188D-01 0.416D+00 0.603D+00
 Coeff:     -0.188D-01 0.416D+00 0.603D+00
 Gap=     0.301 Goal=   None    Shift=    0.000
 RMSDP=3.98D-07 MaxDP=1.74D-05 DE=-1.68D-08 OVMax= 2.67D-05

 Cycle  11  Pass 1  IDiag  1:
 E= -429.120460317422     Delta-E=       -0.000000016592 Rises=F Damp=F
 DIIS: error= 1.05D-06 at cycle   4 NSaved=   4.
 NSaved= 4 IEnMin= 4 EnMin= -429.120460317422     IErMin= 4 ErrMin= 1.05D-06
 ErrMax= 1.05D-06 EMaxC= 1.00D-01 BMatC= 3.93D-10 BMatP= 1.75D-08
 IDIUse=1 WtCom= 1.00D+00 WtEn= 0.00D+00
 Coeff-Com: -0.135D-01 0.189D+00 0.293D+00 0.532D+00
 Coeff:     -0.135D-01 0.189D+00 0.293D+00 0.532D+00
 Gap=     0.301 Goal=   None    Shift=    0.000
 RMSDP=6.99D-08 MaxDP=3.37D-06 DE=-1.66D-08 OVMax= 6.56D-06

 Cycle  12  Pass 1  IDiag  1:
 E= -429.120460317780     Delta-E=       -0.000000000358 Rises=F Damp=F
 DIIS: error= 2.67D-07 at cycle   5 NSaved=   5.
 NSaved= 5 IEnMin= 5 EnMin= -429.120460317780     IErMin= 5 ErrMin= 2.67D-07
 ErrMax= 2.67D-07 EMaxC= 1.00D-01 BMatC= 2.55D-11 BMatP= 3.93D-10
 IDIUse=1 WtCom= 1.00D+00 WtEn= 0.00D+00
 Coeff-Com: -0.419D-02 0.462D-01 0.739D-01 0.238D+00 0.647D+00
 Coeff:     -0.419D-02 0.462D-01 0.739D-01 0.238D+00 0.647D+00
 Gap=     0.301 Goal=   None    Shift=    0.000
 RMSDP=1.87D-08 MaxDP=9.25D-07 DE=-3.58D-10 OVMax= 1.52D-06

 Cycle  13  Pass 1  IDiag  1:
 E= -429.120460317804     Delta-E=       -0.000000000023 Rises=F Damp=F
 DIIS: error= 1.24D-07 at cycle   6 NSaved=   6.
 NSaved= 6 IEnMin= 6 EnMin= -429.120460317804     IErMin= 6 ErrMin= 1.24D-07
 ErrMax= 1.24D-07 EMaxC= 1.00D-01 BMatC= 2.21D-12 BMatP= 2.55D-11
 IDIUse=1 WtCom= 1.00D+00 WtEn= 0.00D+00
 Coeff-Com: -0.749D-03 0.504D-02 0.836D-02 0.589D-01 0.286D+00 0.642D+00
 Coeff:     -0.749D-03 0.504D-02 0.836D-02 0.589D-01 0.286D+00 0.642D+00
 Gap=     0.301 Goal=   None    Shift=    0.000
 RMSDP=5.57D-09 MaxDP=1.98D-07 DE=-2.34D-11 OVMax= 2.72D-07

 SCF Done:  E(RB3LYP) =  -429.120460318     A.U. after   13 cycles
             Convg  =    0.5572D-08             -V/T =  2.0046
 KE= 4.271443589074D+02 PE=-2.101430190930D+03 EE= 6.928927808421D+02
 Leave Link  502 at Tue Mar 11 10:42:03 2014, MaxMem= 4026531840 cpu:     282.1
 (Enter /usr/caen/gaussian-09revc/g09/l801.exe)
 Range of M.O.s used for correlation:     1   288
 NBasis=   288 NAE=    40 NBE=    40 NFC=     0 NFV=     0
 NROrb=    288 NOA=    40 NOB=    40 NVA=   248 NVB=   248
 Leave Link  801 at Tue Mar 11 10:42:04 2014, MaxMem= 4026531840 cpu:       0.3
 (Enter /usr/caen/gaussian-09revc/g09/l1101.exe)
 Using compressed storage, NAtomX=    28.
 Will process  29 centers per pass.
 Leave Link 1101 at Tue Mar 11 10:42:05 2014, MaxMem= 4026531840 cpu:       3.6
 (Enter /usr/caen/gaussian-09revc/g09/l1102.exe)
 Symmetrizing basis deriv contribution to polar:
 IMax=3 JMax=2 DiffMx= 0.00D+00
 Leave Link 1102 at Tue Mar 11 10:42:05 2014, MaxMem= 4026531840 cpu:       1.4
 (Enter /usr/caen/gaussian-09revc/g09/l1110.exe)
 Forming Gx(P) for the SCF density, NAtomX=    28.
 Integral derivatives from FoFDir/FoFCou, PRISM(SPDF).
 Do as many integral derivatives as possible in FoFDir.
 G2DrvN: MDV=    4026531512.
 G2DrvN: will do    29 centers at a time, making    1 passes doing MaxLOS=2.
 Calling FoFCou, ICntrl=  3107 FMM=F I1Cent=   0 AccDes= 0.00D+00.
 FoFCou: FMM=F IPFlag=           0 FMFlag=      100000 FMFlg1=           0
         NFxFlg=           0 DoJE=F BraDBF=F KetDBF=F FulRan=T
         Omega=  0.000000  0.000000  1.000000  0.000000  0.000000 ICntrl=    3107 IOpCl=  0
         NMat0=    1 NMatS0=    1 NMatT0=    0 NMatD0=    1 NMtDS0=    0 NMtDT0=    0
         I1Cent=           0 NGrid=           0.
 Symmetry not used in FoFCou.
 FoFDir/FoFCou used for L=0 through L=2.
 End of G2Drv Frequency-dependent properties file   721 does not exist.
 End of G2Drv Frequency-dependent properties file   722 does not exist.
 Leave Link 1110 at Tue Mar 11 10:43:24 2014, MaxMem= 4026531840 cpu:     623.7
 (Enter /usr/caen/gaussian-09revc/g09/l1002.exe)
 Minotr:  Closed shell wavefunction.
          IDoAtm=1111111111111111111111111111
          Direct CPHF calculation.
          Differentiating once with respect to nuclear coordinates.
          Requested convergence is 1.0D-06 RMS, and 1.0D-05 maximum.
          Secondary convergence is 1.0D-12 RMS, and 1.0D-12 maximum.
          NewPWx=T KeepS1=F KeepF1=F KeepIn=T MapXYZ=F SortEE=F KeepMc=T.
          MDV=    4026531556 using IRadAn=       2.
 Generate precomputed XC quadrature information.
          Keep R1 ints in memory in canonical form, NReq=993246438.
 Symmetry not used in FoFDir.
 MinBra= 0 MaxBra= 2 Meth= 1.
 IRaf=       0 NMat=   1 IRICut=       1 DoRegI=T DoRafI=F ISym2E= 0 JSym2E=0.
          Solving linear equations simultaneously, MaxMat=       0.
          There are    87 degrees of freedom in the 1st order CPHF.  IDoFFX=5.
     81 vectors produced by pass  0 Test12= 1.14D-10 1.15D-07 XBig12= 1.04D-01 5.83D-02.
 AX will form    81 AO Fock derivatives at one time.
     81 vectors produced by pass  1 Test12= 1.14D-10 1.15D-07 XBig12= 1.06D-02 1.48D-02.
     81 vectors produced by pass  2 Test12= 1.14D-10 1.15D-07 XBig12= 5.00D-05 8.51D-04.
     81 vectors produced by pass  3 Test12= 1.14D-10 1.15D-07 XBig12= 1.30D-07 3.61D-05.
     31 vectors produced by pass  4 Test12= 1.14D-10 1.15D-07 XBig12= 1.38D-10 1.40D-06.
 Inverted reduced A of dimension   355 with in-core refinement.
 End of Minotr Frequency-dependent properties file   721 does not exist.
 End of Minotr Frequency-dependent properties file   722 does not exist.
 Leave Link 1002 at Tue Mar 11 10:44:46 2014, MaxMem= 4026531840 cpu:     651.6
 (Enter /usr/caen/gaussian-09revc/g09/l601.exe)
 Copying SCF densities to generalized density rwf, IOpCl= 0 IROHF=0.

 **********************************************************************

            Population analysis using the SCF density.

 **********************************************************************

 Orbital symmetries:
       Occupied  (A) (A) (A) (A) (A) (A) (A) (A) (A) (A) (A) (A)
                 (A) (A) (A) (A) (A) (A) (A) (A) (A) (A) (A) (A)
                 (A) (A) (A) (A) (A) (A) (A) (A) (A) (A) (A) (A)
                 (A) (A) (A) (A)
       Virtual   (A) (A) (A) (A) (A) (A) (A) (A) (A) (A) (A) (A)
                 (A) (A) (A) (A) (A) (A) (A) (A) (A) (A) (A) (A)
                 (A) (A) (A) (A) (A) (A) (A) (A) (A) (A) (A) (A)
                 (A) (A) (A) (A) (A) (A) (A) (A) (A) (A) (A) (A)
                 (A) (A) (A) (A) (A) (A) (A) (A) (A) (A) (A) (A)
                 (A) (A) (A) (A) (A) (A) (A) (A) (A) (A) (A) (A)
                 (A) (A) (A) (A) (A) (A) (A) (A) (A) (A) (A) (A)
                 (A) (A) (A) (A) (A) (A) (A) (A) (A) (A) (A) (A)
                 (A) (A) (A) (A) (A) (A) (A) (A) (A) (A) (A) (A)
                 (A) (A) (A) (A) (A) (A) (A) (A) (A) (A) (A) (A)
                 (A) (A) (A) (A) (A) (A) (A) (A) (A) (A) (A) (A)
                 (A) (A) (A) (A) (A) (A) (A) (A) (A) (A) (A) (A)
                 (A) (A) (A) (A) (A) (A) (A) (A) (A) (A) (A) (A)
                 (A) (A) (A) (A) (A) (A) (A) (A) (A) (A) (A) (A)
                 (A) (A) (A) (A) (A) (A) (A) (A) (A) (A) (A) (A)
                 (A) (A) (A) (A) (A) (A) (A) (A) (A) (A) (A) (A)
                 (A) (A) (A) (A) (A) (A) (A) (A) (A) (A) (A) (A)
                 (A) (A) (A) (A) (A) (A) (A) (A) (A) (A) (A) (A)
                 (A) (A) (A) (A) (A) (A) (A) (A) (A) (A) (A) (A)
                 (A) (A) (A) (A) (A) (A) (A) (A) (A) (A) (A) (A)
                 (A) (A) (A) (A) (A) (A) (A) (A)
 The electronic state is 1-A.
 Alpha  occ. eigenvalues --  -19.11513 -10.22838 -10.21738 -10.17378 -10.16999
 Alpha  occ. eigenvalues --  -10.16578 -10.16469 -10.16354 -10.15716 -10.15549
 Alpha  occ. eigenvalues --   -1.06038  -0.81533  -0.76954  -0.75801  -0.70101
 Alpha  occ. eigenvalues --   -0.68449  -0.66353  -0.60022  -0.56290  -0.55146
 Alpha  occ. eigenvalues --   -0.49017  -0.47163  -0.46711  -0.44408  -0.43261
 Alpha  occ. eigenvalues --   -0.42771  -0.42014  -0.40295  -0.39449  -0.38591
 Alpha  occ. eigenvalues --   -0.38308  -0.36669  -0.36410  -0.35398  -0.34344
 Alpha  occ. eigenvalues --   -0.33207  -0.32462  -0.32229  -0.28165  -0.26132
 Alpha virt. eigenvalues --    0.03949   0.04647   0.05714   0.07207   0.07918
 Alpha virt. eigenvalues --    0.08004   0.08650   0.09830   0.10256   0.10533
 Alpha virt. eigenvalues --    0.11304   0.12144   0.12583   0.14433   0.14508
 Alpha virt. eigenvalues --    0.15157   0.15526   0.15760   0.17476   0.18524
 Alpha virt. eigenvalues --    0.18772   0.19579   0.21841   0.22811   0.23587
 Alpha virt. eigenvalues --    0.24863   0.26653   0.27827   0.27894   0.29289
 Alpha virt. eigenvalues --    0.30947   0.32385   0.34101   0.34828   0.36708
 Alpha virt. eigenvalues --    0.37278   0.38978   0.40226   0.40629   0.42434
 Alpha virt. eigenvalues --    0.44796   0.45282   0.45927   0.49792   0.50143
 Alpha virt. eigenvalues --    0.53056   0.54048   0.54329   0.55321   0.55647
 Alpha virt. eigenvalues --    0.56307   0.56983   0.57308   0.58033   0.58595
 Alpha virt. eigenvalues --    0.58822   0.59450   0.59810   0.60289   0.60706
 Alpha virt. eigenvalues --    0.61043   0.61428   0.62262   0.63009   0.63570
 Alpha virt. eigenvalues --    0.64452   0.65479   0.65577   0.66063   0.69439
 Alpha virt. eigenvalues --    0.70189   0.72145   0.76434   0.79645   0.82985
 Alpha virt. eigenvalues --    0.83907   0.88326   0.90091   0.91782   0.94694
 Alpha virt. eigenvalues --    0.98784   0.98932   1.02835   1.04218   1.06136
 Alpha virt. eigenvalues --    1.07458   1.09992   1.13074   1.13732   1.17980
 Alpha virt. eigenvalues --    1.19576   1.21518   1.25926   1.27626   1.33573
 Alpha virt. eigenvalues --    1.34417   1.36718   1.37440   1.38453   1.41009
 Alpha virt. eigenvalues --    1.42019   1.44780   1.45281   1.45581   1.45826
 Alpha virt. eigenvalues --    1.46531   1.47430   1.48744   1.50278   1.50586
 Alpha virt. eigenvalues --    1.51409   1.51743   1.53627   1.53886   1.54554
 Alpha virt. eigenvalues --    1.55629   1.56807   1.57760   1.59269   1.60276
 Alpha virt. eigenvalues --    1.60871   1.63751   1.64554   1.65625   1.66864
 Alpha virt. eigenvalues --    1.67525   1.67986   1.70283   1.71431   1.73591
 Alpha virt. eigenvalues --    1.74227   1.75730   1.77695   1.78485   1.78969
 Alpha virt. eigenvalues --    1.80716   1.83322   1.86173   1.87633   1.88886
 Alpha virt. eigenvalues --    1.90270   1.92689   1.94662   1.96315   1.98152
 Alpha virt. eigenvalues --    1.99447   2.02141   2.04450   2.05335   2.07610
 Alpha virt. eigenvalues --    2.09194   2.10006   2.12429   2.15259   2.15571
 Alpha virt. eigenvalues --    2.18570   2.23518   2.24276   2.26474   2.28067
 Alpha virt. eigenvalues --    2.30776   2.30980   2.34049   2.34726   2.35129
 Alpha virt. eigenvalues --    2.36863   2.37429   2.41291   2.42263   2.43686
 Alpha virt. eigenvalues --    2.46479   2.48059   2.48199   2.48645   2.49559
 Alpha virt. eigenvalues --    2.50063   2.50832   2.51601   2.51826   2.52444
 Alpha virt. eigenvalues --    2.53814   2.55310   2.56345   2.56788   2.58584
 Alpha virt. eigenvalues --    2.59621   2.62808   2.64046   2.65701   2.67304
 Alpha virt. eigenvalues --    2.68599   2.71285   2.73934   2.74827   2.76032
 Alpha virt. eigenvalues --    2.77350   2.81181   2.82505   2.84526   2.86078
 Alpha virt. eigenvalues --    2.88616   2.90192   2.92931   2.93602   2.96227
 Alpha virt. eigenvalues --    3.03313   3.04588   3.09870   3.12093   3.12608
 Alpha virt. eigenvalues --    3.18082   3.20884   3.24681   3.37257   3.42967
 Alpha virt. eigenvalues --    3.46512   3.68668   3.76341   3.77521   3.78050
 Alpha virt. eigenvalues --    3.79198   3.80419   3.81373   3.81759   3.83445
 Alpha virt. eigenvalues --    3.84807   3.86926   3.88554   3.97433   4.06091
 Alpha virt. eigenvalues --    4.17205   4.26727   4.29468   4.34655   4.57290
 Alpha virt. eigenvalues --    4.97369   5.44288   5.46839  23.70437  23.81930
 Alpha virt. eigenvalues --   23.83734  23.87459  23.89279  23.93504  23.94236
 Alpha virt. eigenvalues --   23.94442  23.94915  49.91562
          Condensed to atoms (all electrons):
              1          2          3          4          5          6
     1  C    4.820152   0.397154   0.387136   0.401270  -0.059228   0.002175
     2  H    0.397154   0.567502  -0.023918  -0.027101  -0.004434   0.000317
     3  H    0.387136  -0.023918   0.597707  -0.031084  -0.003781  -0.000750
     4  H    0.401270  -0.027101  -0.031084   0.578647   0.008186   0.000155
     5  C   -0.059228  -0.004434  -0.003781   0.008186   5.017556   0.384865
     6  H    0.002175   0.000317  -0.000750   0.000155   0.384865   0.593499
     7  C    0.000396   0.000628   0.000696  -0.000315   0.367718  -0.047450
     8  H    0.000411  -0.000029  -0.000018  -0.000002  -0.037921   0.007687
     9  H    0.000517  -0.000077  -0.000221  -0.000017  -0.033321   0.001535
    10  C   -0.000309   0.000006  -0.000006   0.000024  -0.048102  -0.009000
    11  H   -0.000004   0.000006   0.000002  -0.000001  -0.003780   0.003803
    12  H    0.000062  -0.000023  -0.000015   0.000011  -0.009848   0.001041
    13  C    0.000002   0.000001   0.000000   0.000000   0.006206   0.000020
    14  H    0.000000   0.000000   0.000000   0.000000  -0.000207  -0.000015
    15  C    0.000000   0.000000   0.000000   0.000000  -0.000288  -0.000009
    16  H    0.000000   0.000000   0.000000   0.000000  -0.000015  -0.000011
    17  H    0.000000   0.000000   0.000000   0.000000   0.000014   0.000000
    18  H    0.000000   0.000000   0.000000   0.000000  -0.000002   0.000001
    19  C   -0.058007   0.007426  -0.000768  -0.006851  -0.040193   0.001625
    20  H    0.000274  -0.000265   0.000110  -0.000271  -0.005580   0.000624
    21  H   -0.007489  -0.000060  -0.000221   0.005013   0.008284  -0.000308
    22  H    0.007621  -0.000538  -0.000305  -0.000062  -0.006379   0.000419
    23  C    0.000000   0.000000   0.000000   0.000000  -0.000016   0.000006
    24  H    0.000000   0.000000   0.000000   0.000000   0.000016  -0.000001
    25  H    0.000000   0.000000   0.000000   0.000000  -0.000079  -0.000008
    26  H    0.000000   0.000000   0.000000   0.000000  -0.000024   0.000040
    27  C    0.365863  -0.027872  -0.034510  -0.035671   0.274542  -0.019273
    28  O   -0.033202   0.003666   0.004682  -0.002142   0.173984  -0.022894
              7          8          9         10         11         12
     1  C    0.000396   0.000411   0.000517  -0.000309  -0.000004   0.000062
     2  H    0.000628  -0.000029  -0.000077   0.000006   0.000006  -0.000023
     3  H    0.000696  -0.000018  -0.000221  -0.000006   0.000002  -0.000015
     4  H   -0.000315  -0.000002  -0.000017   0.000024  -0.000001   0.000011
     5  C    0.367718  -0.037921  -0.033321  -0.048102  -0.003780  -0.009848
     6  H   -0.047450   0.007687   0.001535  -0.009000   0.003803   0.001041
     7  C    4.909879   0.406782   0.385727   0.352810  -0.042054  -0.039827
     8  H    0.406782   0.586761  -0.030435  -0.043955   0.009063  -0.006115
     9  H    0.385727  -0.030435   0.607449  -0.040737  -0.007918   0.009666
    10  C    0.352810  -0.043955  -0.040737   5.007369   0.399077   0.406993
    11  H   -0.042054   0.009063  -0.007918   0.399077   0.610308  -0.034351
    12  H   -0.039827  -0.006115   0.009666   0.406993  -0.034351   0.578459
    13  C   -0.049680  -0.003083  -0.006059   0.367184  -0.039247  -0.038378
    14  H   -0.007351   0.005799  -0.000649  -0.046767   0.009978  -0.006041
    15  C    0.007425  -0.000006  -0.000138  -0.066923  -0.004508  -0.006173
    16  H   -0.000074   0.000020   0.000013  -0.007146   0.004793  -0.000581
    17  H   -0.000407  -0.000006   0.000017   0.008620  -0.000286   0.000104
    18  H    0.000054   0.000013  -0.000015  -0.005144  -0.000529   0.004163
    19  C   -0.001619  -0.003255   0.000062   0.000353  -0.000034   0.000036
    20  H   -0.000368   0.000661   0.000281  -0.000126   0.000003  -0.000004
    21  H    0.000151  -0.000194  -0.000092   0.000043   0.000001   0.000020
    22  H   -0.003817   0.003946   0.000766  -0.000262  -0.000020   0.000192
    23  C   -0.005389  -0.000877   0.002522  -0.069199  -0.008823   0.008085
    24  H    0.000010  -0.000076  -0.000095   0.008150  -0.000207  -0.000392
    25  H   -0.000778   0.000087   0.000553  -0.006202   0.005571  -0.000050
    26  H    0.001688   0.000625  -0.000050  -0.006071  -0.000100  -0.000235
    27  C   -0.044502  -0.001498  -0.003925   0.005967   0.000344  -0.000749
    28  O   -0.034548   0.002098   0.004400  -0.005886  -0.000198   0.009724
             13         14         15         16         17         18
     1  C    0.000002   0.000000   0.000000   0.000000   0.000000   0.000000
     2  H    0.000001   0.000000   0.000000   0.000000   0.000000   0.000000
     3  H    0.000000   0.000000   0.000000   0.000000   0.000000   0.000000
     4  H    0.000000   0.000000   0.000000   0.000000   0.000000   0.000000
     5  C    0.006206  -0.000207  -0.000288  -0.000015   0.000014  -0.000002
     6  H    0.000020  -0.000015  -0.000009  -0.000011   0.000000   0.000001
     7  C   -0.049680  -0.007351   0.007425  -0.000074  -0.000407   0.000054
     8  H   -0.003083   0.005799  -0.000006   0.000020  -0.000006   0.000013
     9  H   -0.006059  -0.000649  -0.000138   0.000013   0.000017  -0.000015
    10  C    0.367184  -0.046767  -0.066923  -0.007146   0.008620  -0.005144
    11  H   -0.039247   0.009978  -0.004508   0.004793  -0.000286  -0.000529
    12  H   -0.038378  -0.006041  -0.006173  -0.000581   0.000104   0.004163
    13  C    5.033840   0.409437   0.378204  -0.038417  -0.032552  -0.032617
    14  H    0.409437   0.620038  -0.040354   0.009570  -0.006881  -0.006267
    15  C    0.378204  -0.040354   4.862717   0.402572   0.401650   0.402279
    16  H   -0.038417   0.009570   0.402572   0.595269  -0.031507  -0.030828
    17  H   -0.032552  -0.006881   0.401650  -0.031507   0.587830  -0.027734
    18  H   -0.032617  -0.006267   0.402279  -0.030828  -0.027734   0.583084
    19  C    0.000006  -0.000022   0.000000   0.000000   0.000000   0.000000
    20  H    0.000001  -0.000001   0.000000   0.000000   0.000000   0.000000
    21  H   -0.000002   0.000001   0.000000   0.000000   0.000000   0.000000
    22  H    0.000000  -0.000042  -0.000001   0.000000   0.000000  -0.000001
    23  C    0.358845  -0.047606  -0.066971  -0.006501  -0.005286   0.008600
    24  H   -0.031915  -0.006397  -0.006202  -0.000644   0.004102   0.000040
    25  H   -0.040211   0.009653  -0.004906   0.005023  -0.000674  -0.000198
    26  H   -0.031812  -0.005788   0.007887  -0.000151   0.000002  -0.000513
    27  C   -0.000242   0.000046   0.000004   0.000000   0.000000   0.000001
    28  O    0.000012  -0.000031  -0.000002   0.000001   0.000000  -0.000017
             19         20         21         22         23         24
     1  C   -0.058007   0.000274  -0.007489   0.007621   0.000000   0.000000
     2  H    0.007426  -0.000265  -0.000060  -0.000538   0.000000   0.000000
     3  H   -0.000768   0.000110  -0.000221  -0.000305   0.000000   0.000000
     4  H   -0.006851  -0.000271   0.005013  -0.000062   0.000000   0.000000
     5  C   -0.040193  -0.005580   0.008284  -0.006379  -0.000016   0.000016
     6  H    0.001625   0.000624  -0.000308   0.000419   0.000006  -0.000001
     7  C   -0.001619  -0.000368   0.000151  -0.003817  -0.005389   0.000010
     8  H   -0.003255   0.000661  -0.000194   0.003946  -0.000877  -0.000076
     9  H    0.000062   0.000281  -0.000092   0.000766   0.002522  -0.000095
    10  C    0.000353  -0.000126   0.000043  -0.000262  -0.069199   0.008150
    11  H   -0.000034   0.000003   0.000001  -0.000020  -0.008823  -0.000207
    12  H    0.000036  -0.000004   0.000020   0.000192   0.008085  -0.000392
    13  C    0.000006   0.000001  -0.000002   0.000000   0.358845  -0.031915
    14  H   -0.000022  -0.000001   0.000001  -0.000042  -0.047606  -0.006397
    15  C    0.000000   0.000000   0.000000  -0.000001  -0.066971  -0.006202
    16  H    0.000000   0.000000   0.000000   0.000000  -0.006501  -0.000644
    17  H    0.000000   0.000000   0.000000   0.000000  -0.005286   0.004102
    18  H    0.000000   0.000000   0.000000  -0.000001   0.008600   0.000040
    19  C    4.793423   0.395027   0.401008   0.399466   0.000000   0.000000
    20  H    0.395027   0.592644  -0.031339  -0.023833   0.000001   0.000000
    21  H    0.401008  -0.031339   0.577413  -0.026561   0.000000   0.000000
    22  H    0.399466  -0.023833  -0.026561   0.565104   0.000003   0.000000
    23  C    0.000000   0.000001   0.000000   0.000003   4.894343   0.403283
    24  H    0.000000   0.000000   0.000000   0.000000   0.403283   0.584395
    25  H    0.000000   0.000000   0.000000   0.000000   0.400111  -0.030761
    26  H    0.000002   0.000000   0.000000   0.000002   0.403193  -0.028466
    27  C    0.367307  -0.039089  -0.034469  -0.026690  -0.000005  -0.000001
    28  O   -0.033832   0.004662  -0.002056   0.004278   0.000000   0.000000
             25         26         27         28
     1  C    0.000000   0.000000   0.365863  -0.033202
     2  H    0.000000   0.000000  -0.027872   0.003666
     3  H    0.000000   0.000000  -0.034510   0.004682
     4  H    0.000000   0.000000  -0.035671  -0.002142
     5  C   -0.000079  -0.000024   0.274542   0.173984
     6  H   -0.000008   0.000040  -0.019273  -0.022894
     7  C   -0.000778   0.001688  -0.044502  -0.034548
     8  H    0.000087   0.000625  -0.001498   0.002098
     9  H    0.000553  -0.000050  -0.003925   0.004400
    10  C   -0.006202  -0.006071   0.005967  -0.005886
    11  H    0.005571  -0.000100   0.000344  -0.000198
    12  H   -0.000050  -0.000235  -0.000749   0.009724
    13  C   -0.040211  -0.031812  -0.000242   0.000012
    14  H    0.009653  -0.005788   0.000046  -0.000031
    15  C   -0.004906   0.007887   0.000004  -0.000002
    16  H    0.005023  -0.000151   0.000000   0.000001
    17  H   -0.000674   0.000002   0.000000   0.000000
    18  H   -0.000198  -0.000513   0.000001  -0.000017
    19  C    0.000000   0.000002   0.367307  -0.033832
    20  H    0.000000   0.000000  -0.039089   0.004662
    21  H    0.000000   0.000000  -0.034469  -0.002056
    22  H    0.000000   0.000002  -0.026690   0.004278
    23  C    0.400111   0.403193  -0.000005   0.000000
    24  H   -0.030761  -0.028466  -0.000001   0.000000
    25  H    0.594750  -0.031271   0.000004   0.000001
    26  H   -0.031271   0.587901  -0.000010  -0.000001
    27  C    0.000004  -0.000010   5.152079   0.142632
    28  O    0.000001  -0.000001   0.142632   8.120676
 Mulliken atomic charges:
              1
     1  C   -0.224793
     2  H    0.107611
     3  H    0.105264
     4  H    0.110212
     5  C    0.011827
     6  H    0.101908
     7  C   -0.155782
     8  H    0.103516
     9  H    0.110241
    10  C   -0.200762
    11  H    0.099111
    12  H    0.124226
    13  C   -0.209544
    14  H    0.109897
    15  C   -0.266260
    16  H    0.098612
    17  H    0.102994
    18  H    0.105628
    19  C   -0.221160
    20  H    0.106591
    21  H    0.110859
    22  H    0.106713
    23  C   -0.268319
    24  H    0.105160
    25  H    0.099386
    26  H    0.103154
    27  C   -0.040284
    28  O   -0.336007
 Sum of Mulliken atomic charges =   0.00000
 Mulliken charges with hydrogens summed into heavy atoms:
              1
     1  C    0.098294
     5  C    0.113735
     7  C    0.057976
    10  C    0.022575
    13  C   -0.099646
    15  C    0.040974
    19  C    0.103002
    23  C    0.039381
    27  C   -0.040284
    28  O   -0.336007
 Sum of Mulliken charges with hydrogens summed into heavy atoms =   0.00000
 APT atomic charges:
              1
     1  C   -1.258126
     2  H    0.273653
     3  H    0.447582
     4  H    0.629026
     5  C   -0.286909
     6  H    0.340787
     7  C   -0.528342
     8  H    0.263214
     9  H    0.326807
    10  C   -0.483591
    11  H    0.311629
    12  H    0.273926
    13  C   -0.357702
    14  H    0.273026
    15  C   -1.332347
    16  H    0.355030
    17  H    0.695051
    18  H    0.254061
    19  C   -1.062354
    20  H    0.429155
    21  H    0.630280
    22  H    0.063944
    23  C   -1.160098
    24  H    0.700162
    25  H    0.335834
    26  H    0.110303
    27  C   -0.011030
    28  O   -0.232970
 Sum of APT charges=   0.00000
 APT Atomic charges with hydrogens summed into heavy atoms:
              1
     1  C    0.092135
     2  H    0.000000
     3  H    0.000000
     4  H    0.000000
     5  C    0.053878
     6  H    0.000000
     7  C    0.061678
     8  H    0.000000
     9  H    0.000000
    10  C    0.101964
    11  H    0.000000
    12  H    0.000000
    13  C   -0.084676
    14  H    0.000000
    15  C   -0.028205
    16  H    0.000000
    17  H    0.000000
    18  H    0.000000
    19  C    0.061025
    20  H    0.000000
    21  H    0.000000
    22  H    0.000000
    23  C   -0.013799
    24  H    0.000000
    25  H    0.000000
    26  H    0.000000
    27  C   -0.011030
    28  O   -0.232970
 Sum of APT charges=   0.00000
 Electronic spatial extent (au):  <R**2>=           2529.7002
 Charge=              0.0000 electrons
 Dipole moment (field-independent basis, Debye):
    X=              0.0847    Y=              1.6072    Z=              0.9083  Tot=              1.8480
 Quadrupole moment (field-independent basis, Debye-Ang):
   XX=            -63.0414   YY=            -68.0174   ZZ=            -65.1149
   XY=              2.8361   XZ=              1.7019   YZ=             -2.0259
 Traceless Quadrupole moment (field-independent basis, Debye-Ang):
   XX=              2.3498   YY=             -2.6261   ZZ=              0.2763
   XY=              2.8361   XZ=              1.7019   YZ=             -2.0259
 Octapole moment (field-independent basis, Debye-Ang**2):
  XXX=             25.3815  YYY=             -0.8216  ZZZ=             -1.4489  XYY=              1.1800
  XXY=              4.6294  XXZ=             -1.7203  XZZ=              3.6942  YZZ=             -2.0521
  YYZ=              1.2741  XYZ=             -1.4482
 Hexadecapole moment (field-independent basis, Debye-Ang**3):
 XXXX=          -2833.2644 YYYY=           -382.9979 ZZZZ=           -272.1259 XXXY=            -15.7810
 XXXZ=             -3.2668 YYYX=              0.8546 YYYZ=              1.9693 ZZZX=             -3.6248
 ZZZY=             -2.0504 XXYY=           -553.5837 XXZZ=           -522.8856 YYZZ=           -107.0332
 XXYZ=             -6.8042 YYXZ=              7.1661 ZZXY=              0.2460
 N-N= 5.522725908626D+02 E-N=-2.101430198062D+03  KE= 4.271443589074D+02
  Exact polarizability:   0.000   0.000   0.000   0.000   0.000   0.000
 Approx polarizability: 151.797   2.826 140.711  -3.783   0.530 141.344
 No NMR shielding tensors so no spin-rotation constants.
 Leave Link  601 at Tue Mar 11 10:44:48 2014, MaxMem= 4026531840 cpu:       6.8
 (Enter /usr/caen/gaussian-09revc/g09/l701.exe)
 Compute integral second derivatives.
 ... and contract with generalized density number  0.
 Leave Link  701 at Tue Mar 11 10:44:49 2014, MaxMem= 4026531840 cpu:       4.9
 (Enter /usr/caen/gaussian-09revc/g09/l702.exe)
 L702 exits ... SP integral derivatives will be done elsewhere.
 Leave Link  702 at Tue Mar 11 10:44:50 2014, MaxMem= 4026531840 cpu:       0.2
 (Enter /usr/caen/gaussian-09revc/g09/l703.exe)
 Compute integral second derivatives, UseDBF=F ICtDFT=           0.
 Integral derivatives from FoFDir, PRISM(SPDF).
 Calling FoFJK, ICntrl=    100147 FMM=F ISym2X=0 I1Cent= 0 IOpClX= 0 NMat=1 NMatS=1 NMatT=0.
 FoFCou: FMM=F IPFlag=           0 FMFlag=      100000 FMFlg1=         800
         NFxFlg=           0 DoJE=F BraDBF=F KetDBF=F FulRan=T
         Omega=  0.000000  0.000000  1.000000  0.000000  0.000000 ICntrl=  100147 IOpCl=  0
         NMat0=    1 NMatS0=    1 NMatT0=    0 NMatD0=    1 NMtDS0=    0 NMtDT0=    0
         I1Cent=           0 NGrid=           0.
 Symmetry not used in FoFCou.
 Leave Link  703 at Tue Mar 11 10:46:16 2014, MaxMem= 4026531840 cpu:     687.6
 (Enter /usr/caen/gaussian-09revc/g09/l716.exe)
 Dipole        = 3.33244855D-02 6.32323753D-01 3.57339346D-01
 Polarizability= 0.00000000D+00 0.00000000D+00 0.00000000D+00
                 0.00000000D+00 0.00000000D+00 0.00000000D+00
 ***** Axes restored to original set *****
 -------------------------------------------------------------------
 Center     Atomic                   Forces (Hartrees/Bohr)
 Number     Number              X              Y              Z
 -------------------------------------------------------------------
      1        6           0.000026886    0.000040140    0.000057321
      2        1          -0.000071502    0.000007490   -0.000185326
      3        1           0.000123222   -0.000112541    0.000053941
      4        1          -0.000084852   -0.000098017    0.000013030
      5        6           0.000756872   -0.000965552   -0.000484198
      6        1          -0.000013300    0.000210690    0.000104755
      7        6           0.000134241    0.000070978    0.000058850
      8        1          -0.000044984   -0.000057411    0.000009277
      9        1          -0.000165555    0.000026404   -0.000063443
     10        6          -0.000009894    0.000091208    0.000020341
     11        1          -0.000002027   -0.000001415   -0.000079974
     12        1           0.000272389    0.000128489   -0.000024744
     13        6          -0.000078864   -0.000048549    0.000010971
     14        1           0.000003311   -0.000006356    0.000062970
     15        6          -0.000071619   -0.000028080   -0.000001901
     16        1           0.000025764    0.000059227   -0.000072668
     17        1           0.000072512   -0.000020514    0.000015893
     18        1           0.000023855    0.000071280    0.000059036
     19        6           0.000034702    0.000199630    0.000115785
     20        1           0.000033337    0.000083254   -0.000145811
     21        1          -0.000087641   -0.000051903   -0.000016891
     22        1           0.000041071   -0.000179036    0.000069733
     23        6          -0.000046942    0.000054430    0.000033253
     24        1           0.000074647   -0.000035477    0.000017441
     25        1           0.000025171    0.000032470   -0.000096761
     26        1          -0.000031849   -0.000086866   -0.000013627
     27        6          -0.001008121   -0.000659079   -0.000361330
     28        8           0.000069172    0.001275105    0.000844077
 -------------------------------------------------------------------
 Cartesian Forces:  Max     0.001275105 RMS     0.000271512
 Leave Link  716 at Tue Mar 11 10:46:16 2014, MaxMem= 4026531840 cpu:       1.4
 (Enter /usr/caen/gaussian-09revc/g09/l103.exe)

 GradGradGradGradGradGradGradGradGradGradGradGradGradGradGradGradGradGrad
 Berny optimization.
 Red2BG is reusing G-inverse.
 Internal  Forces:  Max     0.000897514 RMS     0.000160693
 Search for a local minimum.
 Step number   1 out of a maximum of  157
 All quantities printed in internal units (Hartrees-Bohrs-Radians)
 RMS Force = .16069D-03 SwitMx=.10000D-02 MixMth= 2
 Mixed Optimization -- En-DIIS/RFO-DIIS
 Second derivative matrix not updated -- analytic derivatives used.
 ITU=  0
     Eigenvalues ---    0.00102   0.00150   0.00167   0.00182   0.00245
     Eigenvalues ---    0.00272   0.00360   0.01811   0.02612   0.02667
     Eigenvalues ---    0.03283   0.03510   0.03730   0.03847   0.03920
     Eigenvalues ---    0.04249   0.04334   0.04416   0.04445   0.04479
     Eigenvalues ---    0.04562   0.04609   0.04618   0.04661   0.04745
     Eigenvalues ---    0.06892   0.07389   0.08154   0.09740   0.10776
     Eigenvalues ---    0.11589   0.11856   0.12102   0.12221   0.12371
     Eigenvalues ---    0.12463   0.12572   0.12786   0.13255   0.14064
     Eigenvalues ---    0.14194   0.14364   0.14829   0.15110   0.15337
     Eigenvalues ---    0.17241   0.17972   0.18583   0.20770   0.21862
     Eigenvalues ---    0.22713   0.26465   0.27056   0.27672   0.27950
     Eigenvalues ---    0.29119   0.29815   0.30288   0.31070   0.31957
     Eigenvalues ---    0.32277   0.32549   0.32723   0.32883   0.32954
     Eigenvalues ---    0.32988   0.33057   0.33148   0.33219   0.33350
     Eigenvalues ---    0.33436   0.33590   0.33845   0.33976   0.34125
     Eigenvalues ---    0.34250   0.34413   0.36016
 RFO step:  Lambda=-7.93908156D-05 EMin= 1.01863483D-03
 Linear search not attempted -- first point.
 Iteration  1 RMS(Cart)=  0.03755774 RMS(Int)=  0.00038456
 Iteration  2 RMS(Cart)=  0.00072427 RMS(Int)=  0.00000261
 Iteration  3 RMS(Cart)=  0.00000011 RMS(Int)=  0.00000261
 Variable       Old X    -DE/DX   Delta X   Delta X   Delta X     New X
                                 (Linear)    (Quad)   (Total)
    R1        2.06249  -0.00011   0.00000  -0.00025  -0.00025   2.06224
    R2        2.06840  -0.00001   0.00000  -0.00021  -0.00021   2.06819
    R3        2.06809  -0.00005   0.00000  -0.00008  -0.00008   2.06800
    R4        2.86227   0.00000   0.00000   0.00044   0.00044   2.86271
    R5        2.06430   0.00000   0.00000   0.00002   0.00002   2.06432
    R6        2.85279  -0.00004   0.00000   0.00042   0.00042   2.85320
    R7        2.79119  -0.00051   0.00000  -0.00010  -0.00010   2.79109
    R8        2.72589  -0.00082   0.00000  -0.00391  -0.00391   2.72199
    R9        2.06580  -0.00004   0.00000  -0.00005  -0.00005   2.06575
   R10        2.07185   0.00000   0.00000  -0.00023  -0.00023   2.07162
   R11        2.90391  -0.00030   0.00000  -0.00025  -0.00025   2.90366
   R12        2.07631  -0.00007   0.00000  -0.00023  -0.00023   2.07609
   R13        2.07013  -0.00002   0.00000  -0.00022  -0.00022   2.06990
   R14        2.91056  -0.00002   0.00000  -0.00055  -0.00055   2.91001
   R15        2.07662  -0.00006   0.00000  -0.00007  -0.00007   2.07655
   R16        2.90103  -0.00008   0.00000  -0.00028  -0.00028   2.90074
   R17        2.90196  -0.00009   0.00000  -0.00031  -0.00031   2.90166
   R18        2.07050  -0.00009   0.00000  -0.00031  -0.00031   2.07019
   R19        2.06744  -0.00008   0.00000  -0.00023  -0.00023   2.06721
   R20        2.06712  -0.00008   0.00000  -0.00023  -0.00023   2.06689
   R21        2.06846   0.00001   0.00000  -0.00016  -0.00016   2.06830
   R22        2.06800  -0.00005   0.00000  -0.00005  -0.00005   2.06795
   R23        2.05813  -0.00010   0.00000  -0.00029  -0.00029   2.05784
   R24        2.85972   0.00004   0.00000  -0.00004  -0.00004   2.85968
   R25        2.06736  -0.00008   0.00000  -0.00022  -0.00022   2.06714
   R26        2.07124  -0.00010   0.00000  -0.00028  -0.00028   2.07096
   R27        2.06541  -0.00009   0.00000  -0.00022  -0.00022   2.06519
   R28        2.73390  -0.00090   0.00000  -0.00379  -0.00379   2.73011
    A1        1.89584   0.00000   0.00000   0.00070   0.00071   1.89654
    A2        1.88854   0.00003   0.00000  -0.00131  -0.00132   1.88722
    A3        1.93504  -0.00025   0.00000  -0.00242  -0.00243   1.93262
    A4        1.88369  -0.00005   0.00000   0.00058   0.00058   1.88428
    A5        1.93350   0.00032   0.00000   0.00390   0.00390   1.93740
    A6        1.92576  -0.00005   0.00000  -0.00145  -0.00146   1.92431
    A7        1.97906   0.00008   0.00000   0.00022   0.00021   1.97927
    A8        2.01790   0.00014   0.00000   0.00106   0.00106   2.01896
    A9        1.96352   0.00013   0.00000   0.00297   0.00297   1.96648
   A10        2.20607  -0.00018   0.00000   0.00068   0.00068   2.20675
   A11        2.05554  -0.00014   0.00000  -0.00557  -0.00556   2.04998
   A12        1.92354   0.00013   0.00000   0.00176   0.00175   1.92529
   A13        1.88249   0.00033   0.00000   0.00336   0.00336   1.88586
   A14        1.95086  -0.00054   0.00000  -0.00509  -0.00509   1.94577
   A15        1.86876  -0.00009   0.00000  -0.00022  -0.00022   1.86854
   A16        1.90865   0.00002   0.00000  -0.00215  -0.00215   1.90650
[...]
 01,0.00015039,-0.00021360,0.00021949,-0.00009602,-0.00006554,0.0000093
 0,-0.00002012,0.00000714,-0.00000829,0.00000303,0.00009347,-0.00002419
 ,0.00001462,-0.00000957,0.00001859,0.00002860,-0.00003623,0.00001480,-
 0.00000481,0.00000150,-0.00000389,0.00002595,0.00000647,0.00000488,-0.
 00000678,0.00000214,-0.00000128,0.11463746,-0.04499161,-0.13975342,0.0
 1030469,-0.00396310,-0.00888649,-0.12821437,0.04653548,0.15224780,0.00
 054133,-0.00041161,0.00048982,0.00022091,-0.00021156,0.00010186,-0.000
 03757,-0.00006574,0.00013365,0.00023417,-0.00028427,0.00008423,0.00002
 741,0.00023463,-0.00016971,0.00009454,0.00025442,0.00012924,-0.0013799
 8,-0.00043468,0.00080303,-0.00196645,-0.00053998,0.00149637,-0.0000051
 9,0.00002628,0.00005387,0.00006279,-0.00008369,0.00003781,-0.00002728,
 -0.00004424,-0.00000126,-0.00000896,-0.00002404,-0.00000233,0.00002144
 ,0.00004972,-0.00000373,-0.00001295,-0.00000514,-0.00000026,0.00001442
 ,-0.00001846,-0.00000040,-0.00000165,0.00000132,0.00000223,0.00001335,
 0.00000301,0.00000265,-0.00000359,0.00000368,-0.00000097,-0.22667530,0
 .03506722,-0.12460116,-0.00571504,0.00112499,-0.00264868,-0.01884390,0
 .00282164,-0.01343169,0.24763939,-0.00199821,-0.00327720,0.00277818,0.
 00101277,-0.00014751,0.00106390,0.00005335,0.00027387,0.00015777,-0.00
 033355,0.00014790,-0.00017282,0.00040086,0.00136626,0.00082676,0.00002
 728,-0.00001157,-0.00011013,-0.00025551,-0.00042691,0.00006468,-0.0005
 0171,0.00085745,0.00002516,0.00012793,0.00001948,-0.00024125,-0.000053
 70,0.00006656,-0.00005999,0.00005931,0.00001942,-0.00002094,-0.0000420
 3,-0.00005469,-0.00000286,-0.00004180,-0.00000607,-0.00001168,-0.00001
 890,0.00001888,-0.00000226,-0.00000150,-0.00000445,0.00000357,0.000000
 70,0.00000139,-0.00000487,0.00001117,-0.00000228,0.00000264,-0.0000049
 7,-0.00000982,-0.00000565,0.03270085,-0.05261035,0.02256743,-0.0234721
 4,0.00600398,-0.01495046,0.00796274,-0.00224200,0.00573686,-0.03691278
 ,0.05355890,0.00235135,0.00343045,-0.00225300,-0.00122859,0.00066975,-
 0.00052597,0.00035894,-0.00015923,0.00029792,-0.00014365,0.00011669,0.
 00016940,-0.00149388,-0.00040722,-0.00045064,0.00018603,-0.00015155,0.
 00009221,-0.00013435,0.00046281,-0.00085594,0.00142291,-0.00027650,0.0
 0076315,-0.00001813,-0.00006017,0.00018609,0.00025921,-0.00008492,0.00
 054291,-0.00023432,-0.00018042,0.00002481,-0.00004759,-0.00004439,-0.0
 0004770,0.00009026,-0.00004627,0.00001871,0.00002065,0.00001581,0.0000
 2456,-0.00002345,0.00003497,0.00000886,-0.00000018,-0.00000787,0.00000
 437,-0.00003310,-0.00000186,-0.00000930,0.00000765,-0.00000944,-0.0000
 0504,-0.12151295,0.02483015,-0.13053225,-0.01033725,0.00258685,-0.0079
 0584,0.01625140,-0.00268750,0.01216459,0.13358681,-0.02807896,0.140086
 12,-0.00002198,-0.00005204,0.00000079,0.00001095,-0.00000527,0.0000097
 4,-0.00003080,-0.00000631,-0.00002115,-0.00001347,0.00000753,0.0000028
 3,0.00031601,0.00028098,0.00029157,0.00006357,-0.00002602,0.00003374,0
 .00038025,0.00068825,0.00031853,-0.00012475,-0.00007600,0.00026550,-0.
 00088735,0.00035435,-0.00005157,-0.01255515,0.02361109,0.01992737,0.00
 151126,-0.00119376,0.00050413,-0.00495582,0.00207270,-0.00156849,-0.08
 804531,0.02235997,0.02186408,-0.00213981,0.00435312,0.00412536,0.00749
 039,-0.01665786,-0.01591077,0.00049217,0.00030070,-0.00017106,0.000600
 19,-0.00077474,-0.00055790,-0.00334779,-0.00466976,-0.00142768,-0.0000
 2461,0.00000147,-0.00001161,-0.00003337,-0.00003206,-0.00000080,-0.000
 00357,-0.00001584,0.00001518,0.00000661,0.00002814,0.00001068,0.554399
 20,0.00000209,0.00003064,0.00001276,-0.00000378,-0.00000512,-0.0000002
 7,0.00000456,0.00000222,0.00000441,0.00000099,-0.00000534,-0.00000752,
 -0.00070123,-0.00032990,-0.00054213,0.00004601,-0.00000284,0.00007299,
 0.00035380,0.00095432,0.00106580,0.00015746,0.00007235,-0.00002532,-0.
 00010347,-0.00029660,-0.00086097,0.01022740,-0.01300775,-0.00839707,-0
 .00075388,0.00029448,-0.00095418,0.00166569,0.00002100,0.00049849,0.01
 925538,-0.12231391,-0.04287625,-0.00407054,0.00897775,0.00780391,0.004
 41517,-0.02465935,-0.02030886,0.00122183,0.00100148,-0.00032042,0.0013
 5362,0.00133273,0.00059465,-0.00262705,-0.00302440,-0.00070147,0.00003
 093,0.00001504,0.00001661,-0.00002237,-0.00000113,-0.00000895,0.000016
 67,-0.00001387,-0.00000736,0.00000026,0.00000790,0.00003179,0.02673425
 ,0.51899531,-0.00003509,-0.00002521,0.00004944,0.00001065,0.00000586,0
 .00000610,-0.00002126,-0.00001045,-0.00001484,-0.00003233,0.00001224,-
 0.00000742,-0.00009059,-0.00024169,0.00041248,-0.00000312,0.00003584,-
 0.00003545,-0.00004300,0.00061941,0.00002702,-0.00009025,-0.00001926,0
 .00006867,0.00002101,-0.00002528,0.00016163,0.00032747,0.00555509,0.00
 697328,-0.00095170,0.00101230,0.00092182,-0.00307839,0.00216308,-0.000
 00715,0.02102258,-0.04482562,-0.12298010,0.01018816,-0.02271006,-0.021
 43577,-0.00070123,-0.00768157,-0.00490516,0.00045725,0.00157406,0.0011
 3481,0.00047777,0.00011704,-0.00010137,-0.00031251,0.00054097,0.000851
 92,-0.00003273,0.00000396,-0.00001753,-0.00000939,-0.00002264,0.000004
 29,-0.00001657,-0.00000519,0.00001713,0.00000475,0.00001263,-0.0000173
 9,0.02657604,-0.04384110,0.51234568,-0.00002143,-0.00001358,0.00004183
 ,0.00001270,-0.00000238,0.00000288,-0.00001493,-0.00001025,-0.00001600
 ,-0.00003520,0.00001339,0.00000257,0.00021721,-0.00010690,0.00021425,-
 0.00002244,0.00001662,-0.00001755,0.00019508,0.00015085,-0.00032979,-0
 .00003148,0.00000004,0.00006577,0.00021744,0.00015239,0.00021411,0.000
 64452,0.00085379,0.00241841,0.00013478,-0.00007806,-0.00011509,-0.0005
 8271,0.00039488,-0.00022681,-0.00975321,0.00343178,-0.00367364,0.00001
 434,-0.00028014,0.00040551,0.00059500,-0.00106940,-0.00053672,0.000014
 27,-0.00000246,0.00004675,0.00076007,0.00025563,0.00012671,0.00019180,
 -0.00016273,0.00022743,-0.00002634,0.00000852,0.00000654,-0.00000448,-
 0.00001990,-0.00000372,-0.00003090,0.00000031,0.00002018,0.00000985,0.
 00001481,-0.00003491,-0.24190213,0.08629275,-0.07059533,0.26290366,0.0
 0001324,0.00000793,-0.00001642,-0.00000522,-0.00000008,-0.00000183,0.0
 0000943,0.00000413,0.00000642,0.00001423,-0.00000458,0.00000136,0.0001
 8060,0.00009122,0.00007194,-0.00003380,-0.00000255,-0.00001985,-0.0006
 1634,-0.00028852,-0.00035476,0.00006611,0.00002973,-0.00000690,0.00015
 679,0.00027965,0.00036310,0.00026919,-0.00309634,-0.00429116,-0.000376
 26,0.00028054,-0.00014429,0.00152203,-0.00048839,0.00017525,0.01920341
 ,-0.00962992,0.00850520,-0.00044595,0.00086521,-0.00005949,0.00124404,
 0.00062469,0.00114052,0.00000117,-0.00010314,-0.00001357,-0.00084691,-
 0.00013607,-0.00055105,-0.00027118,0.00040240,0.00000222,0.00000501,-0
 .00000644,0.00000003,0.00000710,0.00001073,0.00000026,0.00000613,0.000
 00365,-0.00000692,-0.00000232,-0.00000578,0.00000327,0.08525641,-0.084
 42966,0.03103068,-0.09572018,0.09085591,0.00000641,0.00000806,-0.00000
 579,0.00000039,-0.00000315,-0.00000158,0.00000603,0.00000115,0.0000015
 4,0.00000129,-0.00000104,0.00000401,0.00006190,0.00000956,-0.00005267,
 0.00000059,-0.00001662,0.00000903,-0.00028802,-0.00029789,-0.00010873,
 -0.00000897,0.00003890,0.00002527,0.00008069,0.00021824,0.00006772,0.0
 0055556,-0.00300775,-0.00301253,0.00007697,-0.00033451,0.00024673,0.00
 104956,-0.00067330,0.00056919,0.01980266,-0.00891619,0.00692406,-0.000
 05377,0.00082920,0.00083173,0.00061380,0.00059252,0.00074437,-0.000190
 17,0.00000770,-0.00007686,-0.00032282,-0.00003594,0.00007817,0.0001621
 3,0.00029777,-0.00001261,0.00000431,0.00000186,0.00000492,0.00000426,0
 .00000394,-0.00000172,-0.00000230,0.00000212,-0.00000040,0.00000042,-0
 .00000241,-0.00000355,-0.07129205,0.03189283,-0.07239656,0.07731755,-0
 .03167334,0.07669137,0.00000178,0.00000695,-0.00000385,-0.00000454,0.0
 0000661,-0.00000199,-0.00000050,-0.00000073,0.00000448,0.00000664,-0.0
 0000288,-0.00000421,-0.00002969,0.00001053,0.00000740,-0.00004331,0.00
 004208,-0.00003833,-0.00019783,0.00005962,-0.00008104,0.00018516,0.000
 00476,-0.00014687,-0.00009399,-0.00014107,0.00007995,0.00059144,-0.001
 14289,0.00118236,0.00004267,0.00038201,-0.00041882,0.00012105,0.000024
 81,-0.00029764,-0.00298374,-0.00434884,0.01063301,-0.00010949,0.001836
 28,0.00152558,0.00010165,-0.00010252,-0.00098142,0.00041671,0.00005926
 ,-0.00007256,0.00003253,0.00009913,-0.00010751,-0.00014174,-0.00001926
 ,0.00000731,0.00001479,-0.00000447,0.00000125,0.00000334,0.00000371,0.
 00000164,0.00000404,0.00000374,-0.00000670,-0.00000299,-0.00000391,-0.
 00000052,-0.05202914,-0.01537150,0.03187836,0.00506767,0.01176391,-0.0
 2608831,0.05212157,-0.00000075,0.00000314,0.00000395,0.00000098,0.0000
 0575,-0.00000045,-0.00000523,-0.00000464,-0.00000045,-0.00000455,0.000
 00082,-0.00000223,0.00006878,0.00000014,0.00007886,-0.00000918,0.00002
 760,-0.00002154,-0.00005519,0.00006810,0.00005387,-0.00003962,-0.00010
 657,-0.00007131,-0.00000409,-0.00006964,0.00011097,-0.00062713,0.00147
 741,-0.00052043,-0.00020374,-0.00000232,0.00052759,-0.00032462,0.00010
 613,0.00013285,0.00330582,0.00889834,-0.02146356,0.00166126,-0.0026563
 1,-0.00363891,0.00046628,0.00167793,-0.00049986,-0.00004218,-0.0000259
 8,0.00052104,-0.00007140,-0.00011343,0.00003112,0.00008631,0.00018163,
 0.00030522,-0.00000166,0.00000343,0.00000284,0.00000647,-0.00000272,0.
 00000431,-0.00000719,0.00000368,0.00000083,-0.00000324,-0.00000679,-0.
 00001473,-0.01519478,-0.09015295,0.09429052,-0.00235436,-0.00574904,0.
 01014816,0.01527835,0.09642524,0.00000457,-0.00000625,-0.00001091,-0.0
 0000037,-0.00000683,0.00000296,0.00000525,0.00000461,0.00000127,0.0000
 0727,-0.00000165,0.00000255,-0.00000670,0.00008144,-0.00004818,0.00004
 103,-0.00003793,0.00003307,0.00019878,-0.00015740,0.00004789,-0.000180
 46,-0.00006674,0.00006373,0.00009203,0.00006704,-0.00010508,-0.0010604
 7,0.00100146,0.00070427,0.00068173,-0.00064738,0.00075424,-0.00017346,
 -0.00015211,0.00040214,0.00365178,0.00876381,-0.02196687,0.00140915,-0
 .00397650,-0.00172117,0.00023581,0.00131010,0.00060616,-0.00055305,-0.
 00094059,0.00038788,0.00002591,-0.00002383,-0.00003708,-0.00004674,-0.
 00018618,0.00050168,-0.00001456,-0.00000113,-0.00000734,0.00000125,0.0
 0000418,0.00000158,0.00000661,-0.00000205,-0.00000093,0.00000097,-0.00
 000341,0.00001091,0.03182729,0.09399903,-0.25131483,0.00129710,0.00398
 552,-0.00892643,-0.03727166,-0.10174554,0.27695680,0.00000810,-0.00000
 268,-0.00002032,-0.00000491,0.00000133,-0.00000288,0.00000758,0.000006
 31,0.00000648,0.00001440,-0.00000416,0.00000197,0.00002682,0.00013809,
 0.00005213,0.00001478,-0.00002289,0.00000189,-0.00111240,0.00044540,-0
 .00006690,0.00001110,-0.00006766,0.00003633,-0.00139174,0.00070868,0.0
 0023315,0.00031582,-0.00012867,-0.00056361,-0.00007449,0.00006514,-0.0
 0000899,0.00015645,-0.00017967,0.00008995,0.00829771,0.00878417,0.0000
 5328,0.00047641,-0.00054693,-0.00070325,-0.00037928,0.00129156,0.00080
 580,-0.00008630,0.00012516,0.00000828,0.00033337,0.00009007,0.00030928
 ,0.00051822,0.00034965,0.00029345,0.00000561,-0.00000451,-0.00000919,0
 .00000601,0.00000947,0.00000513,0.00001002,0.00000205,-0.00000585,-0.0
 0000311,-0.00000955,0.00001187,-0.15898728,-0.12831178,-0.01479678,-0.
 01842181,-0.02135677,-0.00149753,-0.00308550,-0.00189700,-0.00020399,0
 .17334572,-0.00000838,-0.00000698,0.00002342,0.00000935,-0.00000256,-0
 .00000256,-0.00000394,-0.00000461,-0.00000909,-0.00002452,0.00000817,0
 .00000724,0.00054490,0.00006667,0.00039488,-0.00007225,0.00002095,-0.0
 0006070,-0.00029792,-0.00036527,-0.00087667,0.00006105,-0.00000547,0.0
 0000602,0.00083468,0.00090231,0.00079858,-0.00106724,-0.00012705,0.000
 10601,0.00005431,-0.00002351,-0.00002515,0.00005556,0.00015372,-0.0000
 2226,-0.01528595,-0.01544114,0.00029782,0.00023682,0.00106411,-0.00007
 430,0.00320974,-0.00233201,-0.00371052,0.00026196,0.00039690,0.0001094
 4,-0.00011978,0.00023867,-0.00001726,-0.00115570,-0.00101623,-0.000429
 35,-0.00001997,0.00000223,0.00000552,0.00000993,-0.00000655,0.00000122
 ,-0.00003301,0.00000662,0.00001378,0.00000682,0.00000124,-0.00004300,-
 0.12713226,-0.19323506,-0.01759374,0.00807492,0.01035245,0.00082177,-0
 .00841593,-0.01000084,-0.00124013,0.14051335,0.20897755,0.00000544,0.0
 0001026,-0.00000498,-0.00000089,0.00000496,-0.00000293,-0.00000370,-0.
 00000286,0.00000166,-0.00000052,-0.00000269,-0.00000060,0.00013690,0.0
 0005504,-0.00005150,-0.00005176,0.00005203,-0.00003515,0.00003073,0.00
 006144,0.00036153,0.00012650,-0.00005085,-0.00023748,0.00000073,0.0000
 8358,0.00031614,-0.00032045,0.00061675,0.00046332,0.00010890,0.0000201
 4,0.00001323,-0.00011053,0.00005788,-0.00008645,-0.01600732,-0.0152314
 4,-0.00194911,-0.00052254,0.00070804,0.00054804,0.00241984,-0.00275648
 ,-0.00285026,-0.00006777,-0.00035280,0.00023510,0.00032530,0.00027551,
 0.00003992,-0.00080510,-0.00136979,0.00009805,0.00001403,0.00000224,0.
 00001364,0.00000700,-0.00000003,0.00000465,-0.00001046,0.00000566,-0.0
 0000457,-0.00000291,-0.00000910,-0.00002056,-0.01457774,-0.01708663,-0
 .04956997,-0.00682931,-0.00825741,-0.00168325,0.02022729,0.02177513,0.
 00362684,0.01593896,0.02138546,0.05075221,-0.15146395,0.03782741,-0.04
 577551,0.00493554,-0.00307706,0.00481435,-0.00648994,0.00158888,-0.002
 59463,-0.02446605,0.00659648,-0.01491944,-0.23289210,-0.01648749,0.094
 93339,-0.00054021,0.00287236,-0.00086057,-0.01636586,-0.01137583,0.000
 03023,0.00079620,-0.00023858,0.00076246,0.00154712,0.00011930,0.000331
 05,-0.00145653,0.00348032,0.00012171,-0.00003431,-0.00017317,0.0002461
 6,0.00014778,0.00032396,0.00006253,-0.00016741,-0.00074148,0.00026770,
 0.00002345,-0.00000400,-0.00003379,-0.00014733,0.00014698,-0.00008007,
 -0.00000612,0.00001355,-0.00000081,0.00004211,-0.00007795,0.00000629,-
 0.00002510,0.00000350,-0.00001518,-0.08319482,-0.00328475,0.01065985,-
 0.00354258,-0.00589234,0.00534516,-0.00604213,-0.02043211,0.01980864,0
 .00490199,0.02064776,-0.02018004,0.00001860,-0.00016260,0.00000283,0.0
 0011636,0.00002800,0.00003654,-0.00003734,0.00001446,0.00000066,-0.000
 01694,0.00017698,0.00000920,0.58778398,0.03021443,-0.08613703,0.025842
 74,0.02086673,-0.00837255,0.01325842,-0.02280328,0.00614816,-0.0145406
 4,0.00860439,-0.00346226,0.00670325,-0.05127334,-0.02167126,0.06218009
 ,-0.00971730,-0.01070837,-0.00386374,0.01228453,0.00839263,-0.00478129
 ,-0.00038569,0.00094109,0.00066265,0.00040346,-0.00038616,-0.00064569,
 0.00092093,-0.00163272,0.00128885,0.00008439,-0.00009064,-0.00028921,-
 0.00060238,-0.00035800,-0.00004629,0.00025890,0.00068040,-0.00036782,-
 0.00005664,0.00001509,0.00005057,0.00019641,-0.00018724,0.00011203,-0.
 00001299,0.00000355,-0.00001831,0.00012605,0.00005035,0.00001704,-0.00
 006845,-0.00002196,-0.00004120,-0.00883335,-0.12580991,0.07009254,-0.0
 0453245,-0.01758480,0.01770365,0.00019099,0.00590834,-0.00580727,-0.00
 104406,-0.00485579,0.00136343,0.00013002,0.00003810,0.00014585,0.00007
 847,-0.00004488,-0.00001672,-0.00001291,-0.00000187,-0.00000745,-0.000
 06218,0.00002096,-0.00002466,0.06297758,0.40486385,-0.05087258,0.02808
 220,-0.11273693,-0.01779026,0.00452136,-0.01298100,-0.01082006,0.00440
 968,-0.00831229,0.01708558,-0.00544692,0.01163295,0.06019271,0.0428176
 5,-0.06373738,0.02344818,0.01269764,-0.00372561,-0.00445503,-0.0144592
 0,-0.00222661,-0.00109163,0.00093751,-0.00080638,0.00146664,-0.0005497
 0,0.00007803,-0.00395540,0.00297853,-0.00143366,-0.00003188,-0.0000045
 4,0.00022565,0.00008524,0.00002820,-0.00015038,-0.00094198,-0.00134289
 ,0.00039420,0.00009315,0.00002194,-0.00006145,-0.00038796,0.00035457,-
 0.00012161,0.00000863,0.00000339,0.00001578,-0.00019621,-0.00011626,-0
 .00004945,0.00002339,-0.00002798,-0.00002314,0.00989855,0.06127360,-0.
 14446059,-0.00307751,-0.01281491,0.01209819,0.00425795,0.01668885,-0.0
 1665791,0.00354500,0.01244041,-0.01391540,0.00003028,-0.00005386,-0.00
 008351,-0.00005536,0.00003874,0.00001293,0.00000913,0.00000853,0.00000
 363,0.00002794,-0.00000912,0.00002948,-0.00328656,-0.12772396,0.424498
 42,-0.01436590,-0.03470537,-0.02229537,0.00220174,-0.00003577,0.001478
 68,-0.00685434,0.00218937,-0.00359107,0.00301349,0.00015048,0.00290134
 ,-0.05238107,0.02817523,0.01692350,-0.00338666,0.00462052,0.01199589,-
 0.00653559,0.02812902,0.02699614,0.00194711,-0.00165542,-0.00030865,-0
 .00667726,0.00306107,-0.00140421,0.00436547,-0.00132080,0.00071467,-0.
 00034631,0.00010102,0.00031379,0.00004816,-0.00001254,-0.00009125,0.00
 071588,0.00041710,0.00005744,-0.00001306,0.00002263,0.00000613,0.00005
 210,-0.00001495,-0.00002446,0.00001076,-0.00001855,0.00003033,-0.00009
 239,0.00003809,-0.00000907,0.00007030,-0.00001341,0.00001913,-0.005502
 04,-0.01661038,-0.00403641,0.00011973,-0.00120970,0.00249221,0.0003872
 8,0.00184689,-0.00082620,0.00089577,0.00060257,0.00086514,-0.00018685,
 0.00034936,-0.00015660,-0.00024766,-0.00007187,-0.00003712,0.00004876,
 -0.00004279,0.00002426,0.00001561,-0.00041352,-0.00003983,-0.07342444,
 -0.03793228,-0.02320994,0.15612141,-0.00771834,0.00248088,-0.00097503,
 -0.00047997,0.00142844,-0.00155539,0.00111823,0.00235697,0.00091272,-0
 .00188239,0.00125241,0.00020423,0.06469644,-0.10413497,-0.07365660,0.0
 0026151,0.01279540,0.00055159,0.00557204,-0.01551057,-0.01609616,-0.00
 136444,0.00059664,-0.00056056,0.00401101,-0.00058518,0.00128810,-0.002
 01478,-0.00107763,-0.00028523,0.00010123,0.00005346,-0.00001320,0.0013
 6496,0.00157530,0.00105243,0.00033811,0.00078808,0.00054024,-0.0000516
 9,-0.00002244,-0.00006398,0.00022893,-0.00019840,0.00000816,0.00001748
 ,-0.00000136,-0.00002791,0.00007416,0.00008103,0.00002151,0.00004945,0
 .00008181,0.00011551,-0.01120935,-0.03094893,-0.01542663,-0.00210060,-
 0.00303507,0.00575468,-0.00077579,0.00222118,0.00075543,0.00049186,0.0
 0131799,-0.00129196,-0.00034227,-0.00026545,-0.00011772,0.00008120,0.0
 0017714,0.00010509,-0.00001486,0.00001375,-0.00001408,0.00006403,0.000
 35472,0.00003065,-0.07487015,-0.14573709,-0.02475345,0.02435400,0.2739
 4188,-0.00609504,-0.01848309,-0.00921804,0.00142201,-0.00118675,0.0006
 2449,-0.00410281,0.00146156,-0.00101682,-0.00075066,0.00082429,0.00120
 151,0.04605708,-0.05489878,-0.13647278,0.00706400,-0.02966226,-0.02391
 449,0.00777532,-0.00046895,0.00290804,0.00150081,-0.00087387,0.0020759
 9,-0.00163470,0.00128206,0.00171260,-0.00051652,-0.00168647,0.00023146
 ,-0.00026060,-0.00007441,0.00007463,0.00082685,0.00118130,0.00059325,0
 .00036916,0.00094729,0.00038313,0.00001146,-0.00006706,0.00001627,0.00
 028362,-0.00022967,-0.00002350,-0.00001511,-0.00000386,0.00001631,0.00
 009623,0.00007944,0.00003048,0.00000375,0.00007467,0.00006281,0.005055
 08,0.01901669,0.01584558,0.00218609,0.00446703,-0.00261439,-0.00096716
 ,-0.00214410,0.00246971,0.00039040,-0.00200322,0.00214801,-0.00021228,
 -0.00000093,-0.00008723,0.00002660,0.00007251,0.00007163,-0.00003634,-
 0.00001678,0.00003121,0.00000338,0.00014267,-0.00000703,-0.04969214,-0
 .04124687,-0.06750596,-0.00878848,0.12349756,0.21036312\\0.00000068,0.
 00000708,0.00000353,0.00000091,0.00000757,0.00000217,-0.00000141,0.000
 00853,0.00000205,0.00000123,0.00000888,0.00000331,-0.00000068,0.000003
 82,-0.00000023,-0.00000029,0.00000326,0.00000162,0.00000126,-0.0000014
 0,-0.00000085,-0.00000131,-0.00000116,0.00000045,-0.00000226,0.0000005
 9,-0.00000005,0.00000196,-0.00000321,0.00000034,0.00000130,-0.00000125
 ,-0.00000024,0.00000285,-0.00000150,-0.00000018,-0.00000039,-0.0000058
 8,-0.00000223,-0.00000030,-0.00000499,-0.00000183,0.00000202,-0.000007
 62,-0.00000147,0.00000311,-0.00000596,-0.00000144,0.00000167,-0.000008
 51,-0.00000245,0.00000437,-0.00000644,-0.00000119,-0.00000005,0.000005
 43,0.00000038,-0.00000293,0.00000587,0.00000026,-0.00000010,0.00000571
 ,0.00000235,-0.00000080,0.00000307,0.00000044,-0.00000209,-0.00000423,
 -0.00000230,-0.00000285,-0.00000734,-0.00000339,-0.00000239,-0.0000045
 2,-0.00000182,-0.00000360,-0.00000409,-0.00000239,-0.00000133,0.000003
 86,0.00000285,0.00000142,0.00000443,0.00000232\\\@
 Job cpu time:  0 days  4 hours 22 minutes 49.0 seconds.
 File lengths (MBytes):  RWF=  42153 Int=      0 D2E=      0 Chk=     16 Scr=      1
 Normal termination of Gaussian 09 at Tue Mar 11 16:13:01 2014.
