 Entering Gaussian System, Link 0=g09
 Initial command:
 /usr/caen/gaussian-09revc/g09/l1.exe /scratch/avioli_flux/hetanjin/scratch/Gau-130841.inp -scrdir=/scratch/avioli_flux/hetanjin/scratch/
 Entering Link 1 = /usr/caen/gaussian-09revc/g09/l1.exe PID=    130842.
  
 Copyright (c) 1988,1990,1992,1993,1995,1998,2003,2009,2011,
            Gaussian, Inc.  All Rights Reserved.
  
 This is part of the Gaussian(R) 09 program.  It is based on
 the Gaussian(R) 03 system (copyright 2003, Gaussian, Inc.),
 the Gaussian(R) 98 system (copyright 1998, Gaussian, Inc.),
 the Gaussian(R) 94 system (copyright 1995, Gaussian, Inc.),
 the Gaussian 92(TM) system (copyright 1992, Gaussian, Inc.),
 the Gaussian 90(TM) system (copyright 1990, Gaussian, Inc.),
 the Gaussian 88(TM) system (copyright 1988, Gaussian, Inc.),
 the Gaussian 86(TM) system (copyright 1986, Carnegie Mellon
 University), and the Gaussian 82(TM) system (copyright 1983,
 Carnegie Mellon University). Gaussian is a federally registered
 trademark of Gaussian, Inc.
  
 This software contains proprietary and confidential information,
 including trade secrets, belonging to Gaussian, Inc.
  
 This software is provided under written license and may be
 used, copied, transmitted, or stored only in accord with that
 written license.
  
 The following legend is applicable only to US Government
 contracts under FAR:
  
                    RESTRICTED RIGHTS LEGEND
  
 Use, reproduction and disclosure by the US Government is
 subject to restrictions as set forth in subparagraphs (a)
 and (c) of the Commercial Computer Software - Restricted
 Rights clause in FAR 52.227-19.
  
 Gaussian, Inc.
 340 Quinnipiac St., Bldg. 40, Wallingford CT 06492
  
  
 ---------------------------------------------------------------
 Warning -- This program may not be used in any manner that
 competes with the business of Gaussian, Inc. or will provide
 assistance to any competitor of Gaussian, Inc.  The licensee
 of this program is prohibited from giving any competitor of
 Gaussian, Inc. access to this program.  By using this program,
 the user acknowledges that Gaussian, Inc. is engaged in the
 business of creating and licensing software in the field of
 computational chemistry and represents and warrants to the
 licensee that it is not a competitor of Gaussian, Inc. and that
 it will not use this program in any manner prohibited above.
 ---------------------------------------------------------------
  

 Cite this work as:
 Gaussian 09, Revision C.01,
 M. J. Frisch, G. W. Trucks, H. B. Schlegel, G. E. Scuseria, 
 M. A. Robb, J. R. Cheeseman, G. Scalmani, V. Barone, B. Mennucci, 
 G. A. Petersson, H. Nakatsuji, M. Caricato, X. Li, H. P. Hratchian, 
 A. F. Izmaylov, J. Bloino, G. Zheng, J. L. Sonnenberg, M. Hada, 
 M. Ehara, K. Toyota, R. Fukuda, J. Hasegawa, M. Ishida, T. Nakajima, 
 Y. Honda, O. Kitao, H. Nakai, T. Vreven, J. A. Montgomery, Jr., 
 J. E. Peralta, F. Ogliaro, M. Bearpark, J. J. Heyd, E. Brothers, 
 K. N. Kudin, V. N. Staroverov, T. Keith, R. Kobayashi, J. Normand, 
 K. Raghavachari, A. Rendell, J. C. Burant, S. S. Iyengar, J. Tomasi, 
 M. Cossi, N. Rega, J. M. Millam, M. Klene, J. E. Knox, J. B. Cross, 
 V. Bakken, C. Adamo, J. Jaramillo, R. Gomperts, R. E. Stratmann, 
 O. Yazyev, A. J. Austin, R. Cammi, C. Pomelli, J. W. Ochterski, 
 R. L. Martin, K. Morokuma, V. G. Zakrzewski, G. A. Voth, 
 P. Salvador, J. J. Dannenberg, S. Dapprich, A. D. Daniels, 
 O. Farkas, J. B. Foresman, J. V. Ortiz, J. Cioslowski, 
 and D. J. Fox, Gaussian, Inc., Wallingford CT, 2010.
 
 ******************************************
 Gaussian 09:  EM64L-G09RevC.01 23-Sep-2011
                 9-Feb-2014 
 ******************************************
 %mem=30GB
 %nprocshared=8
 Will use up to    8 processors via shared memory.
 %chk=C9H18OOH_3_26_f.chk
 --------------------------------------------------
 #p UB3LYP/6-311++G(d,p) guess=mix stable=(opt,xqc)
 --------------------------------------------------
 1/38=1/1;
 2/12=2,17=6,18=5,40=1/2;
 3/5=4,6=6,7=1111,11=2,16=1,25=1,30=1,74=-5,116=2/1,2,3;
 4/13=-1/1;
 5/5=2,38=5/2;
 6/7=2,8=2,9=2,10=2,28=1/1;
 8/6=1,10=90,11=11/1;
 9/8=-3,42=1,46=1/14;
 5/5=2,8=3,13=1,17=40,38=5/2,8(-2);
 6/7=2,8=2,9=2,10=2,28=1/1;
 99/5=1,9=1/99;
 Leave Link    1 at Sun Feb  9 07:13:43 2014, MaxMem= 4026531840 cpu:       0.8
 (Enter /usr/caen/gaussian-09revc/g09/l101.exe)
 --------------------------------------------
 C9H18OOH_3_26_f using cbs-qb3 to cal. energy
 --------------------------------------------
 Charge =  0 Multiplicity = 2
 Symbolic Z-Matrix:
 C                    -3.51433  -0.1408   -0.36373 
 H                    -3.54368   0.77662  -0.95691 
 H                    -3.79061   0.0981    0.66798 
 H                    -4.28062  -0.80963  -0.76588 
 C                    -2.13576  -0.81289  -0.4359 
 H                    -1.91154  -0.99525  -1.49518 
 C                     0.39397  -0.36135  -0.34412 
 H                     0.48622  -0.12683  -1.41058 
 H                     0.47533  -1.44813  -0.25756 
 C                     1.54269   0.3153    0.43434 
 H                     1.42759   0.05667   1.50049 
 H                     1.41243   1.3982    0.36388 
 C                     2.91279  -0.07504  -0.04113 
 C                     3.87294   0.97968  -0.48957 
 H                     4.39778   1.44613   0.36392 
 H                     4.65061   0.57068  -1.1435 
 H                     3.3672    1.79002  -1.02354 
 C                    -2.17392  -2.16791   0.28969 
 H                    -2.40839  -2.03348   1.35128 
 H                    -2.94656  -2.81141  -0.13998 
 H                    -1.22565  -2.70587   0.2221 
 C                     3.4497   -1.42651   0.3121 
 H                     4.18453  -1.77883  -0.41988 
 H                     3.96537  -1.41412   1.2893 
 H                     2.6605   -2.18085   0.38654 
 C                    -0.99912   0.07343   0.12344 
 H                    -1.04435   0.08742   1.21793 
 O                    -1.10954   1.44864  -0.31343 
 O                    -1.80771   2.2192    0.70055 
 H                    -2.63195   2.43438   0.24176 
 
 NAtoms=     30 NQM=        0 NQMF=       0 NMMI=     30 NMMIF=      0
                NMic=       0 NMicF=      0.
                    Isotopes and Nuclear Properties:
 (Nuclear quadrupole moments (NQMom) in fm**2, nuclear magnetic moments (NMagM)
  in nuclear magnetons)

  Atom         1           2           3           4           5           6           7           8           9          10
 IAtWgt=          12           1           1           1          12           1          12           1           1          12
 AtmWgt=  12.0000000   1.0078250   1.0078250   1.0078250  12.0000000   1.0078250  12.0000000   1.0078250   1.0078250  12.0000000
 NucSpn=           0           1           1           1           0           1           0           1           1           0
 AtZEff=   0.0000000   0.0000000   0.0000000   0.0000000   0.0000000   0.0000000   0.0000000   0.0000000   0.0000000   0.0000000
 NQMom=    0.0000000   0.0000000   0.0000000   0.0000000   0.0000000   0.0000000   0.0000000   0.0000000   0.0000000   0.0000000
 NMagM=    0.0000000   2.7928460   2.7928460   2.7928460   0.0000000   2.7928460   0.0000000   2.7928460   2.7928460   0.0000000

  Atom        11          12          13          14          15          16          17          18          19          20
 IAtWgt=           1           1          12          12           1           1           1          12           1           1
 AtmWgt=   1.0078250   1.0078250  12.0000000  12.0000000   1.0078250   1.0078250   1.0078250  12.0000000   1.0078250   1.0078250
 NucSpn=           1           1           0           0           1           1           1           0           1           1
 AtZEff=   0.0000000   0.0000000   0.0000000   0.0000000   0.0000000   0.0000000   0.0000000   0.0000000   0.0000000   0.0000000
 NQMom=    0.0000000   0.0000000   0.0000000   0.0000000   0.0000000   0.0000000   0.0000000   0.0000000   0.0000000   0.0000000
 NMagM=    2.7928460   2.7928460   0.0000000   0.0000000   2.7928460   2.7928460   2.7928460   0.0000000   2.7928460   2.7928460

  Atom        21          22          23          24          25          26          27          28          29          30
 IAtWgt=           1          12           1           1           1          12           1          16          16           1
 AtmWgt=   1.0078250  12.0000000   1.0078250   1.0078250   1.0078250  12.0000000   1.0078250  15.9949146  15.9949146   1.0078250
 NucSpn=           1           0           1           1           1           0           1           0           0           1
 AtZEff=   0.0000000   0.0000000   0.0000000   0.0000000   0.0000000   0.0000000   0.0000000   0.0000000   0.0000000   0.0000000
 NQMom=    0.0000000   0.0000000   0.0000000   0.0000000   0.0000000   0.0000000   0.0000000   0.0000000   0.0000000   0.0000000
 NMagM=    2.7928460   0.0000000   2.7928460   2.7928460   2.7928460   0.0000000   2.7928460   0.0000000   0.0000000   2.7928460
 Leave Link  101 at Sun Feb  9 07:13:43 2014, MaxMem= 4026531840 cpu:       0.5
 (Enter /usr/caen/gaussian-09revc/g09/l202.exe)
                          Input orientation:                          
 ---------------------------------------------------------------------
 Center     Atomic      Atomic             Coordinates (Angstroms)
 Number     Number       Type             X           Y           Z
 ---------------------------------------------------------------------
      1          6           0       -3.514329   -0.140797   -0.363727
      2          1           0       -3.543676    0.776618   -0.956907
      3          1           0       -3.790607    0.098099    0.667981
      4          1           0       -4.280620   -0.809629   -0.765876
      5          6           0       -2.135757   -0.812893   -0.435898
      6          1           0       -1.911541   -0.995254   -1.495183
      7          6           0        0.393968   -0.361351   -0.344115
      8          1           0        0.486224   -0.126825   -1.410577
      9          1           0        0.475325   -1.448134   -0.257560
     10          6           0        1.542689    0.315296    0.434344
     11          1           0        1.427586    0.056667    1.500494
     12          1           0        1.412429    1.398197    0.363882
     13          6           0        2.912787   -0.075042   -0.041128
     14          6           0        3.872938    0.979682   -0.489569
     15          1           0        4.397779    1.446133    0.363920
     16          1           0        4.650613    0.570679   -1.143501
     17          1           0        3.367195    1.790019   -1.023544
     18          6           0       -2.173921   -2.167909    0.289689
     19          1           0       -2.408394   -2.033479    1.351283
     20          1           0       -2.946558   -2.811406   -0.139975
     21          1           0       -1.225646   -2.705865    0.222098
     22          6           0        3.449703   -1.426513    0.312096
     23          1           0        4.184532   -1.778825   -0.419876
     24          1           0        3.965366   -1.414118    1.289301
     25          1           0        2.660500   -2.180850    0.386544
     26          6           0       -0.999115    0.073434    0.123443
     27          1           0       -1.044349    0.087422    1.217932
     28          8           0       -1.109537    1.448644   -0.313428
     29          8           0       -1.807711    2.219196    0.700552
     30          1           0       -2.631949    2.434382    0.241759
 ---------------------------------------------------------------------
                    Distance matrix (angstroms):
                    1          2          3          4          5
     1  C    0.000000
     2  H    1.092874   0.000000
     3  H    1.094451   1.778096   0.000000
     4  H    1.093738   1.759477   1.766360   0.000000
     5  C    1.535377   2.186374   2.187918   2.170100   0.000000
     6  H    2.139911   2.468428   3.066853   2.485735   1.098004
     7  C    3.914564   4.144337   4.329677   4.714935   2.571347
     8  H    4.135277   4.154771   4.760491   4.858463   2.880186
     9  H    4.199731   4.646609   4.630944   4.825462   2.693155
    10  C    5.139880   5.293345   5.342828   6.051191   3.944756
    11  H    5.285531   5.592012   5.284348   6.202461   4.147669
    12  H    5.212568   5.166606   5.371621   6.209803   4.256547
    13  C    6.435543   6.576465   6.743019   7.267048   5.117427
    14  C    7.472819   7.434097   7.800451   8.352155   6.270616
    15  H    8.102424   8.078338   8.304174   9.037672   6.959167
    16  H    8.232893   8.199000   8.646328   9.045152   6.962025
    17  H    7.177658   6.985096   7.547051   8.081685   6.115796
    18  C    2.516511   3.478573   2.809194   2.719802   1.537531
    19  H    2.783271   3.809626   2.630787   3.079838   2.181325
    20  H    2.739449   3.727981   3.135352   2.485676   2.176930
    21  H    3.487239   4.346378   3.826232   3.728897   2.201046
    22  C    7.113898   7.441203   7.407644   7.829461   5.668632
    23  H    7.871388   8.157444   8.264933   8.527476   6.393695
    24  H    7.765287   8.138211   7.926409   8.519709   6.368790
    25  H    6.546238   7.003091   6.847598   7.168505   5.054879
    26  C    2.570901   2.852440   2.844215   3.512686   1.546090
    27  H    2.941858   3.384014   2.800802   3.900467   2.176440
    28  O    2.883033   2.605900   3.158365   3.919218   2.486499
    29  O    3.100774   2.800317   2.903789   4.176059   3.254642
    30  H    2.788683   2.239694   2.642418   3.775851   3.354135
                    6          7          8          9         10
     6  H    0.000000
     7  C    2.653707   0.000000
     8  H    2.551589   1.095835   0.000000
     9  H    2.726525   1.093256   1.753689   0.000000
    10  C    4.168012   1.543829   2.171479   2.174323   0.000000
    11  H    4.607644   2.155386   3.064990   2.502395   1.103093
    12  H    4.498167   2.152796   2.516397   3.060385   1.092981
    13  C    5.122032   2.553081   2.786805   2.805966   1.501867
    14  C    6.194500   3.731321   3.680006   4.182331   2.593277
    15  H    7.015993   4.449586   4.574199   4.914129   3.071692
    16  H    6.755567   4.430206   4.230836   4.721602   3.494854
    17  H    5.987090   3.732304   3.481965   4.408546   2.762077
    18  C    2.151681   3.203032   3.759428   2.799297   4.472183
    19  H    3.070365   3.677447   4.431931   3.353631   4.687065
    20  H    2.491236   4.147717   4.539317   3.685325   5.500859
    21  H    2.519066   2.905253   3.499653   2.169161   4.103187
    22  C    5.674080   3.301924   3.665924   3.028514   2.585642
    23  H    6.239581   4.047635   4.169901   3.727455   3.477696
    24  H    6.516658   4.065864   4.588125   3.817633   3.096964
    25  H    5.084299   2.996933   3.489432   2.393059   2.735422
    26  C    2.143494   1.532426   2.144657   2.152744   2.572144
    27  H    3.047163   2.170287   3.049199   2.616184   2.712693
    28  O    2.830617   2.353200   2.496456   3.302458   2.979588
    29  O    3.894191   3.549358   3.901643   4.424878   3.862756
    30  H    3.911312   4.161195   4.360390   4.997840   4.685639
                   11         12         13         14         15
    11  H    0.000000
    12  H    1.758357   0.000000
    13  C    2.144707   2.141387   0.000000
    14  C    3.285126   2.637733   1.495136   0.000000
    15  H    3.470513   2.985735   2.164079   1.105205   0.000000
    16  H    4.200336   3.666446   2.156901   1.095303   1.761438
    17  H    3.624550   2.428906   2.156404   1.094327   1.762219
    18  C    4.402913   5.058115   5.510366   6.861419   7.500270
    19  H    4.371009   5.229727   5.838600   7.205762   7.707566
    20  H    5.481799   6.080740   6.467564   7.810255   8.504107
    21  H    4.038009   4.880867   4.910921   6.331294   6.991574
    22  C    2.775080   3.483124   1.496503   2.571297   3.025496
    23  H    3.828525   4.288625   2.159551   2.776924   3.325683
    24  H    2.940772   3.909348   2.161270   2.983823   3.037161
    25  H    2.787013   3.790484   2.163557   3.496647   4.021648
    26  C    2.790238   2.761947   3.918176   4.993393   5.573921
    27  H    2.488222   2.912609   4.155785   5.281231   5.673816
    28  O    3.415393   2.611820   4.309856   5.007595   5.548814
    29  O    3.972856   3.340163   5.300634   5.934859   6.262512
    30  H    4.870089   4.176791   6.092728   6.705561   7.099904
                   16         17         18         19         20
    16  H    0.000000
    17  H    1.774357   0.000000
    18  C    7.491873   6.934965   0.000000
    19  H    7.926864   7.322320   1.095459   0.000000
    20  H    8.376310   7.862397   1.093466   1.765968   0.000000
    21  H    6.865204   6.546662   1.092333   1.768065   1.761753
    22  C    2.747676   3.483794   5.672329   5.980436   6.560065
    23  H    2.502206   3.710674   6.409742   6.831437   7.210895
    24  H    3.213644   3.996693   6.265642   6.404082   7.195133
    25  H    3.724580   4.272653   4.835408   5.161989   5.666915
    26  C    5.811353   4.829794   2.536025   2.816512   3.490591
    27  H    6.184052   5.233046   2.687766   2.525197   3.723643
    28  O    5.885505   4.545540   3.817868   4.072281   4.642495
    29  O    6.915785   5.471412   4.421494   4.343906   5.225937
    30  H    7.643824   6.164894   4.625275   4.608991   5.269060
                   21         22         23         24         25
    21  H    0.000000
    22  C    4.848065   0.000000
    23  H    5.526442   1.095391   0.000000
    24  H    5.454735   1.104985   1.761344   0.000000
    25  H    3.924897   1.094261   1.770483   1.762250   0.000000
    26  C    2.790260   4.698661   5.531388   5.312072   4.306251
    27  H    2.971028   4.827944   5.788479   5.230388   4.422914
    28  O    4.190491   5.426277   6.201214   6.043078   5.279807
    29  O    4.982363   6.409563   7.290165   6.846606   6.278847
    30  H    5.329185   7.204023   8.040727   7.709271   7.023628
                   26         27         28         29         30
    26  C    0.000000
    27  H    1.095513   0.000000
    28  O    1.447153   2.049936   0.000000
    29  O    2.364567   2.322685   1.452361   0.000000
    30  H    2.873016   2.996933   1.896747   0.967556   0.000000
 Stoichiometry    C9H19O2(2)
 Framework group  C1[X(C9H19O2)]
 Deg. of freedom    84
 Full point group                 C1      NOp   1
 Largest Abelian subgroup         C1      NOp   1
 Largest concise Abelian subgroup C1      NOp   1
                         Standard orientation:                         
 ---------------------------------------------------------------------
 Center     Atomic      Atomic             Coordinates (Angstroms)
 Number     Number       Type             X           Y           Z
 ---------------------------------------------------------------------
      1          6           0        3.514329    0.140797   -0.363727
      2          1           0        3.543676   -0.776618   -0.956907
      3          1           0        3.790607   -0.098099    0.667981
      4          1           0        4.280620    0.809629   -0.765876
      5          6           0        2.135757    0.812893   -0.435898
      6          1           0        1.911541    0.995254   -1.495183
      7          6           0       -0.393968    0.361351   -0.344115
      8          1           0       -0.486224    0.126825   -1.410577
      9          1           0       -0.475325    1.448134   -0.257560
     10          6           0       -1.542689   -0.315296    0.434344
     11          1           0       -1.427586   -0.056667    1.500494
     12          1           0       -1.412429   -1.398197    0.363882
     13          6           0       -2.912787    0.075042   -0.041128
     14          6           0       -3.872938   -0.979682   -0.489569
     15          1           0       -4.397779   -1.446133    0.363920
     16          1           0       -4.650613   -0.570679   -1.143501
     17          1           0       -3.367195   -1.790019   -1.023544
     18          6           0        2.173921    2.167909    0.289689
     19          1           0        2.408394    2.033479    1.351283
     20          1           0        2.946558    2.811406   -0.139975
     21          1           0        1.225646    2.705865    0.222098
     22          6           0       -3.449703    1.426513    0.312096
     23          1           0       -4.184532    1.778825   -0.419876
     24          1           0       -3.965366    1.414118    1.289301
     25          1           0       -2.660500    2.180850    0.386544
     26          6           0        0.999115   -0.073434    0.123443
     27          1           0        1.044349   -0.087422    1.217932
     28          8           0        1.109537   -1.448644   -0.313428
     29          8           0        1.807711   -2.219196    0.700552
     30          1           0        2.631949   -2.434382    0.241759
 ---------------------------------------------------------------------
 Rotational constants (GHZ):      1.6752480      0.5009302      0.4099178
 Leave Link  202 at Sun Feb  9 07:13:43 2014, MaxMem= 4026531840 cpu:       0.3
 (Enter /usr/caen/gaussian-09revc/g09/l301.exe)
 Standard basis: 6-311++G(d,p) (5D, 7F)
 Ernie: Thresh=  0.10000D-02 Tol=  0.10000D-05 Strict=F.
 There are   375 symmetry adapted basis functions of A   symmetry.
 Integral buffers will be    131072 words long.
 Raffenetti 2 integral format.
 Two-electron integral symmetry is turned on.
   375 basis functions,   567 primitive gaussians,   386 cartesian basis functions
    45 alpha electrons       44 beta electrons
       nuclear repulsion energy       658.3805132948 Hartrees.
 IExCor=  402 DFT=T Ex+Corr=B3LYP ExCW=0 ScaHFX=  0.200000
 ScaDFX=  0.800000  0.720000  1.000000  0.810000 ScalE2=  1.000000  1.000000
 IRadAn=      0 IRanWt=     -1 IRanGd=            0 ICorTp=0
 NAtoms=   30 NActive=   30 NUniq=   30 SFac= 1.00D+00 NAtFMM=   60 NAOKFM=F Big=F
 Leave Link  301 at Sun Feb  9 07:13:43 2014, MaxMem= 4026531840 cpu:       0.5
 (Enter /usr/caen/gaussian-09revc/g09/l302.exe)
 NPDir=0 NMtPBC=     1 NCelOv=     1 NCel=       1 NClECP=     1 NCelD=      1
         NCelK=      1 NCelE2=     1 NClLst=     1 CellRange=     0.0.
 One-electron integrals computed using PRISM.
 NBasis=   375 RedAO= T  NBF=   375
 NBsUse=   375 1.00D-06 NBFU=   375
 Precomputing XC quadrature grid using
 IXCGrd= 2 IRadAn=           0 IRanWt=          -1 IRanGd=           0 AccXCQ= 0.00D+00.
 NRdTot=    1960 NPtTot=      249976 NUsed=      264099 NTot=      264131
 NSgBfM=   386   386   386   386   386 NAtAll=    30    30.
 Leave Link  302 at Sun Feb  9 07:13:45 2014, MaxMem= 4026531840 cpu:       7.3
 (Enter /usr/caen/gaussian-09revc/g09/l303.exe)
 DipDrv:  MaxL=1.
 Leave Link  303 at Sun Feb  9 07:13:45 2014, MaxMem= 4026531840 cpu:       1.3
 (Enter /usr/caen/gaussian-09revc/g09/l401.exe)
 Harris functional with IExCor=  402 diagonalized for initial guess.
 ExpMin= 3.60D-02 ExpMax= 8.59D+03 ExpMxC= 1.30D+03 IAcc=3 IRadAn=         5 AccDes= 0.00D+00
 HarFok:  IExCor=  402 AccDes= 0.00D+00 IRadAn=         5 IDoV= 1
 ScaDFX=  1.000000  1.000000  1.000000  1.000000
 FoFCou: FMM=F IPFlag=           0 FMFlag=      100000 FMFlg1=           0
         NFxFlg=           0 DoJE=T BraDBF=F KetDBF=T FulRan=T
         Omega=  0.000000  0.000000  1.000000  0.000000  0.000000 ICntrl=     500 IOpCl=  0
         NMat0=    1 NMatS0=    1 NMatT0=    0 NMatD0=    1 NMtDS0=    0 NMtDT0=    0
         I1Cent=           4 NGrid=           0.
 Petite list used in FoFCou.
 Harris En= -504.920451011082    
 Mixing orbitals, IMix= 1 IMixAn=  0 NRI=1 NE=   45 Coef=  7.07106781D-01  7.07106781D-01
 Mixing orbitals, IMix= 1 IMixAn=  0 NRI=1 NE=   44 Coef= -7.07106781D-01  7.07106781D-01
 Initial guess orbital symmetries:
 Alpha Orbitals:
       Occupied  (A) (A) (A) (A) (A) (A) (A) (A) (A) (A) (A) (A)
                 (A) (A) (A) (A) (A) (A) (A) (A) (A) (A) (A) (A)
                 (A) (A) (A) (A) (A) (A) (A) (A) (A) (A) (A) (A)
                 (A) (A) (A) (A) (A) (A) (A) (A) (A)
       Virtual   (A) (A) (A) (A) (A) (A) (A) (A) (A) (A) (A) (A)
                 (A) (A) (A) (A) (A) (A) (A) (A) (A) (A) (A) (A)
                 (A) (A) (A) (A) (A) (A) (A) (A) (A) (A) (A) (A)
                 (A) (A) (A) (A) (A) (A) (A) (A) (A) (A) (A) (A)
                 (A) (A) (A) (A) (A) (A) (A) (A) (A) (A) (A) (A)
                 (A) (A) (A) (A) (A) (A) (A) (A) (A) (A) (A) (A)
                 (A) (A) (A) (A) (A) (A) (A) (A) (A) (A) (A) (A)
                 (A) (A) (A) (A) (A) (A) (A) (A) (A) (A) (A) (A)
                 (A) (A) (A) (A) (A) (A) (A) (A) (A) (A) (A) (A)
                 (A) (A) (A) (A) (A) (A) (A) (A) (A) (A) (A) (A)
                 (A) (A) (A) (A) (A) (A) (A) (A) (A) (A) (A) (A)
                 (A) (A) (A) (A) (A) (A) (A) (A) (A) (A) (A) (A)
                 (A) (A) (A) (A) (A) (A) (A) (A) (A) (A) (A) (A)
                 (A) (A) (A) (A) (A) (A) (A) (A) (A) (A) (A) (A)
                 (A) (A) (A) (A) (A) (A) (A) (A) (A) (A) (A) (A)
                 (A) (A) (A) (A) (A) (A) (A) (A) (A) (A) (A) (A)
                 (A) (A) (A) (A) (A) (A) (A) (A) (A) (A) (A) (A)
                 (A) (A) (A) (A) (A) (A) (A) (A) (A) (A) (A) (A)
                 (A) (A) (A) (A) (A) (A) (A) (A) (A) (A) (A) (A)
                 (A) (A) (A) (A) (A) (A) (A) (A) (A) (A) (A) (A)
                 (A) (A) (A) (A) (A) (A) (A) (A) (A) (A) (A) (A)
                 (A) (A) (A) (A) (A) (A) (A) (A) (A) (A) (A) (A)
                 (A) (A) (A) (A) (A) (A) (A) (A) (A) (A) (A) (A)
                 (A) (A) (A) (A) (A) (A) (A) (A) (A) (A) (A) (A)
                 (A) (A) (A) (A) (A) (A) (A) (A) (A) (A) (A) (A)
                 (A) (A) (A) (A) (A) (A) (A) (A) (A) (A) (A) (A)
                 (A) (A) (A) (A) (A) (A) (A) (A) (A) (A) (A) (A)
                 (A) (A) (A) (A) (A) (A)
 Beta  Orbitals:
       Occupied  (A) (A) (A) (A) (A) (A) (A) (A) (A) (A) (A) (A)
                 (A) (A) (A) (A) (A) (A) (A) (A) (A) (A) (A) (A)
                 (A) (A) (A) (A) (A) (A) (A) (A) (A) (A) (A) (A)
                 (A) (A) (A) (A) (A) (A) (A) (A)
       Virtual   (A) (A) (A) (A) (A) (A) (A) (A) (A) (A) (A) (A)
                 (A) (A) (A) (A) (A) (A) (A) (A) (A) (A) (A) (A)
                 (A) (A) (A) (A) (A) (A) (A) (A) (A) (A) (A) (A)
                 (A) (A) (A) (A) (A) (A) (A) (A) (A) (A) (A) (A)
                 (A) (A) (A) (A) (A) (A) (A) (A) (A) (A) (A) (A)
                 (A) (A) (A) (A) (A) (A) (A) (A) (A) (A) (A) (A)
                 (A) (A) (A) (A) (A) (A) (A) (A) (A) (A) (A) (A)
                 (A) (A) (A) (A) (A) (A) (A) (A) (A) (A) (A) (A)
                 (A) (A) (A) (A) (A) (A) (A) (A) (A) (A) (A) (A)
                 (A) (A) (A) (A) (A) (A) (A) (A) (A) (A) (A) (A)
                 (A) (A) (A) (A) (A) (A) (A) (A) (A) (A) (A) (A)
                 (A) (A) (A) (A) (A) (A) (A) (A) (A) (A) (A) (A)
                 (A) (A) (A) (A) (A) (A) (A) (A) (A) (A) (A) (A)
                 (A) (A) (A) (A) (A) (A) (A) (A) (A) (A) (A) (A)
                 (A) (A) (A) (A) (A) (A) (A) (A) (A) (A) (A) (A)
                 (A) (A) (A) (A) (A) (A) (A) (A) (A) (A) (A) (A)
                 (A) (A) (A) (A) (A) (A) (A) (A) (A) (A) (A) (A)
                 (A) (A) (A) (A) (A) (A) (A) (A) (A) (A) (A) (A)
                 (A) (A) (A) (A) (A) (A) (A) (A) (A) (A) (A) (A)
                 (A) (A) (A) (A) (A) (A) (A) (A) (A) (A) (A) (A)
                 (A) (A) (A) (A) (A) (A) (A) (A) (A) (A) (A) (A)
                 (A) (A) (A) (A) (A) (A) (A) (A) (A) (A) (A) (A)
                 (A) (A) (A) (A) (A) (A) (A) (A) (A) (A) (A) (A)
                 (A) (A) (A) (A) (A) (A) (A) (A) (A) (A) (A) (A)
                 (A) (A) (A) (A) (A) (A) (A) (A) (A) (A) (A) (A)
                 (A) (A) (A) (A) (A) (A) (A) (A) (A) (A) (A) (A)
                 (A) (A) (A) (A) (A) (A) (A) (A) (A) (A) (A) (A)
                 (A) (A) (A) (A) (A) (A) (A)
 The electronic state of the initial guess is 2-A.
 Initial guess <Sx>= 0.0000 <Sy>= 0.0000 <Sz>= 0.5000 <S**2>= 1.0000 S= 0.6180
 Leave Link  401 at Sun Feb  9 07:13:51 2014, MaxMem= 4026531840 cpu:      39.8
 (Enter /usr/caen/gaussian-09revc/g09/l502.exe)
 UHF open shell SCF:
 Requested convergence on RMS density matrix=1.00D-08 within 128 cycles.
 Requested convergence on MAX density matrix=1.00D-06.
 Requested convergence on             energy=1.00D-06.
 No special actions if energy rises.
 Using DIIS extrapolation, IDIIS=  1040.
 Integral symmetry usage will be decided dynamically.
       263816 words used for storage of precomputed grid.
 IEnd=      734950 IEndB=      734950 NGot=  4026531840 MDV=  4025962913
 LenX=  4025962913 LenY=  4025813476
 Fock matrices will be formed incrementally for  20 cycles.

 Cycle   1  Pass 1  IDiag  1:
 FoFCou: FMM=F IPFlag=           0 FMFlag=      100000 FMFlg1=           0
         NFxFlg=           0 DoJE=F BraDBF=F KetDBF=F FulRan=T
         Omega=  0.000000  0.000000  1.000000  0.000000  0.000000 ICntrl=       0 IOpCl=  1
         NMat0=    1 NMatS0=    1 NMatT0=    0 NMatD0=    1 NMtDS0=    0 NMtDT0=    0
         I1Cent=           0 NGrid=           0.
 Symmetry not used in FoFCou.
 E= -504.340971694149    
 DIIS: error= 2.71D-02 at cycle   1 NSaved=   1.
 NSaved= 1 IEnMin= 1 EnMin= -504.340971694149     IErMin= 1 ErrMin= 2.71D-02
 ErrMax= 2.71D-02 EMaxC= 1.00D-01 BMatC= 1.60D+00 BMatP= 1.60D+00
 IDIUse=3 WtCom= 7.29D-01 WtEn= 2.71D-01
 Coeff-Com:  0.100D+01
 Coeff-En:   0.100D+01
 Coeff:      0.100D+01
 Gap=     0.028 Goal=   None    Shift=    0.000
 Gap=     0.023 Goal=   None    Shift=    0.000
 GapD=    0.023 DampG=0.250 DampE=0.500 DampFc=0.2500 IDamp=-1.
 Damping current iteration by 2.50D-01
 RMSDP=9.18D-02 MaxDP=1.04D+01              OVMax= 5.90D-01

 Cycle   2  Pass 1  IDiag  1:
 RMSU=  2.12D-02    CP:  1.16D+00
 E= -504.493195744010     Delta-E=       -0.152224049861 Rises=F Damp=T
 DIIS: error= 1.26D-02 at cycle   2 NSaved=   2.
 NSaved= 2 IEnMin= 2 EnMin= -504.493195744010     IErMin= 2 ErrMin= 1.26D-02
 ErrMax= 1.26D-02 EMaxC= 1.00D-01 BMatC= 3.88D-01 BMatP= 1.60D+00
 IDIUse=3 WtCom= 8.74D-01 WtEn= 1.26D-01
 Coeff-Com: -0.721D+00 0.172D+01
 Coeff-En:   0.000D+00 0.100D+01
 Coeff:     -0.630D+00 0.163D+01
 Gap=     0.049 Goal=   None    Shift=    0.000
 Gap=     0.087 Goal=   None    Shift=    0.000
 RMSDP=3.05D-02 MaxDP=4.54D+00 DE=-1.52D-01 OVMax= 7.21D-01

 Cycle   3  Pass 1  IDiag  1:
 RMSU=  6.24D-03    CP:  6.77D-01 -8.79D-02
 E= -504.782468707037     Delta-E=       -0.289272963027 Rises=F Damp=F
 DIIS: error= 1.49D-02 at cycle   3 NSaved=   3.
 NSaved= 3 IEnMin= 3 EnMin= -504.782468707037     IErMin= 2 ErrMin= 1.26D-02
 ErrMax= 1.49D-02 EMaxC= 1.00D-01 BMatC= 2.56D-01 BMatP= 3.88D-01
 IDIUse=3 WtCom= 8.51D-01 WtEn= 1.49D-01
 Coeff-Com: -0.471D+00 0.108D+01 0.394D+00
 Coeff-En:   0.000D+00 0.000D+00 0.100D+01
 Coeff:     -0.401D+00 0.917D+00 0.484D+00
 Gap=     0.119 Goal=   None    Shift=    0.000
 Gap=     0.173 Goal=   None    Shift=    0.000
 RMSDP=3.70D-03 MaxDP=5.05D-01 DE=-2.89D-01 OVMax= 2.59D-01

 Cycle   4  Pass 1  IDiag  1:
 RMSU=  2.05D-03    CP:  6.65D-01 -5.36D-02  8.51D-01
 E= -504.846849437363     Delta-E=       -0.064380730326 Rises=F Damp=F
 DIIS: error= 4.70D-03 at cycle   4 NSaved=   4.
 NSaved= 4 IEnMin= 4 EnMin= -504.846849437363     IErMin= 4 ErrMin= 4.70D-03
 ErrMax= 4.70D-03 EMaxC= 1.00D-01 BMatC= 3.67D-02 BMatP= 2.56D-01
 IDIUse=3 WtCom= 9.53D-01 WtEn= 4.70D-02
 Coeff-Com: -0.863D-01 0.173D+00 0.258D+00 0.655D+00
 Coeff-En:   0.000D+00 0.000D+00 0.000D+00 0.100D+01
 Coeff:     -0.822D-01 0.165D+00 0.246D+00 0.672D+00
 Gap=     0.149 Goal=   None    Shift=    0.000
 Gap=     0.209 Goal=   None    Shift=    0.000
 RMSDP=2.36D-03 MaxDP=2.96D-01 DE=-6.44D-02 OVMax= 7.11D-02

 Cycle   5  Pass 1  IDiag  1:
 RMSU=  1.53D-03    CP:  6.25D-01 -6.93D-02  8.92D-01  8.42D-01
 E= -504.855253278457     Delta-E=       -0.008403841094 Rises=F Damp=F
 DIIS: error= 2.92D-03 at cycle   5 NSaved=   5.
 NSaved= 5 IEnMin= 5 EnMin= -504.855253278457     IErMin= 5 ErrMin= 2.92D-03
 ErrMax= 2.92D-03 EMaxC= 1.00D-01 BMatC= 7.27D-03 BMatP= 3.67D-02
 IDIUse=3 WtCom= 9.71D-01 WtEn= 2.92D-02
 Coeff-Com: -0.415D-01 0.720D-01 0.743D-01 0.321D+00 0.574D+00
 Coeff-En:   0.000D+00 0.000D+00 0.000D+00 0.000D+00 0.100D+01
 Coeff:     -0.403D-01 0.698D-01 0.722D-01 0.312D+00 0.586D+00
 Gap=     0.159 Goal=   None    Shift=    0.000
 Gap=     0.215 Goal=   None    Shift=    0.000
 RMSDP=7.65D-04 MaxDP=8.04D-02 DE=-8.40D-03 OVMax= 1.92D-02

 Cycle   6  Pass 1  IDiag  1:
 RMSU=  5.44D-04    CP:  6.27D-01 -7.21D-02  8.85D-01  8.75D-01  9.47D-01
 E= -504.856264140860     Delta-E=       -0.001010862403 Rises=F Damp=F
 DIIS: error= 1.65D-03 at cycle   6 NSaved=   6.
 NSaved= 6 IEnMin= 6 EnMin= -504.856264140860     IErMin= 6 ErrMin= 1.65D-03
 ErrMax= 1.65D-03 EMaxC= 1.00D-01 BMatC= 2.92D-03 BMatP= 7.27D-03
 IDIUse=3 WtCom= 9.83D-01 WtEn= 1.65D-02
 Coeff-Com:  0.533D-02-0.157D-01-0.384D-01 0.150D-02 0.423D+00 0.624D+00
 Coeff-En:   0.000D+00 0.000D+00 0.000D+00 0.000D+00 0.246D+00 0.754D+00
 Coeff:      0.524D-02-0.154D-01-0.377D-01 0.147D-02 0.420D+00 0.626D+00
 Gap=     0.160 Goal=   None    Shift=    0.000
 Gap=     0.225 Goal=   None    Shift=    0.000
 RMSDP=2.42D-04 MaxDP=1.67D-02 DE=-1.01D-03 OVMax= 8.05D-03

 Cycle   7  Pass 1  IDiag  1:
 RMSU=  1.34D-04    CP:  6.26D-01 -7.28D-02  8.85D-01  8.86D-01  1.03D+00
                    CP:  9.19D-01
 E= -504.856898493904     Delta-E=       -0.000634353044 Rises=F Damp=F
 DIIS: error= 2.65D-04 at cycle   7 NSaved=   7.
 NSaved= 7 IEnMin= 7 EnMin= -504.856898493904     IErMin= 7 ErrMin= 2.65D-04
 ErrMax= 2.65D-04 EMaxC= 1.00D-01 BMatC= 9.49D-05 BMatP= 2.92D-03
 IDIUse=3 WtCom= 9.97D-01 WtEn= 2.65D-03
 Coeff-Com:  0.260D-03 0.664D-03-0.166D-01-0.303D-01 0.493D-01 0.174D+00
 Coeff-Com:  0.823D+00
 Coeff-En:   0.000D+00 0.000D+00 0.000D+00 0.000D+00 0.000D+00 0.000D+00
 Coeff-En:   0.100D+01
 Coeff:      0.259D-03 0.662D-03-0.165D-01-0.302D-01 0.492D-01 0.173D+00
 Coeff:      0.823D+00
 Gap=     0.160 Goal=   None    Shift=    0.000
 Gap=     0.225 Goal=   None    Shift=    0.000
 RMSDP=9.25D-05 MaxDP=8.02D-03 DE=-6.34D-04 OVMax= 2.12D-03

 Cycle   8  Pass 1  IDiag  1:
 RMSU=  6.84D-05    CP:  6.25D-01 -7.22D-02  8.86D-01  8.86D-01  1.02D+00
                    CP:  9.03D-01  8.41D-01
 E= -504.856919206591     Delta-E=       -0.000020712687 Rises=F Damp=F
 DIIS: error= 1.08D-04 at cycle   8 NSaved=   8.
 NSaved= 8 IEnMin= 8 EnMin= -504.856919206591     IErMin= 8 ErrMin= 1.08D-04
 ErrMax= 1.08D-04 EMaxC= 1.00D-01 BMatC= 2.67D-05 BMatP= 9.49D-05
 IDIUse=3 WtCom= 9.99D-01 WtEn= 1.08D-03
 Coeff-Com: -0.385D-03 0.181D-02-0.149D-02-0.889D-02-0.295D-01-0.103D-01
 Coeff-Com:  0.382D+00 0.667D+00
 Coeff-En:   0.000D+00 0.000D+00 0.000D+00 0.000D+00 0.000D+00 0.000D+00
 Coeff-En:   0.000D+00 0.100D+01
 Coeff:     -0.385D-03 0.181D-02-0.149D-02-0.888D-02-0.295D-01-0.103D-01
 Coeff:      0.382D+00 0.667D+00
 Gap=     0.160 Goal=   None    Shift=    0.000
 Gap=     0.225 Goal=   None    Shift=    0.000
 RMSDP=3.08D-05 MaxDP=2.91D-03 DE=-2.07D-05 OVMax= 9.66D-04

 Cycle   9  Pass 1  IDiag  1:
 RMSU=  1.62D-05    CP:  6.26D-01 -7.21D-02  8.85D-01  8.87D-01  1.02D+00
                    CP:  8.95D-01  8.97D-01  1.00D+00
 E= -504.856925294704     Delta-E=       -0.000006088113 Rises=F Damp=F
 DIIS: error= 3.35D-05 at cycle   9 NSaved=   9.
 NSaved= 9 IEnMin= 9 EnMin= -504.856925294704     IErMin= 9 ErrMin= 3.35D-05
 ErrMax= 3.35D-05 EMaxC= 1.00D-01 BMatC= 2.37D-06 BMatP= 2.67D-05
 IDIUse=1 WtCom= 1.00D+00 WtEn= 0.00D+00
 Coeff-Com: -0.246D-03 0.659D-03 0.153D-02 0.476D-04-0.164D-01-0.277D-01
 Coeff-Com:  0.215D-01 0.249D+00 0.772D+00
 Coeff:     -0.246D-03 0.659D-03 0.153D-02 0.476D-04-0.164D-01-0.277D-01
 Coeff:      0.215D-01 0.249D+00 0.772D+00
 Gap=     0.160 Goal=   None    Shift=    0.000
 Gap=     0.226 Goal=   None    Shift=    0.000
 RMSDP=1.44D-05 MaxDP=1.49D-03 DE=-6.09D-06 OVMax= 1.94D-04

 Cycle  10  Pass 1  IDiag  1:
 RMSU=  7.37D-06    CP:  6.26D-01 -7.21D-02  8.85D-01  8.88D-01  1.01D+00
                    CP:  8.91D-01  9.26D-01  1.05D+00  8.42D-01
 E= -504.856925928721     Delta-E=       -0.000000634017 Rises=F Damp=F
 DIIS: error= 1.18D-05 at cycle  10 NSaved=  10.
 NSaved=10 IEnMin=10 EnMin= -504.856925928721     IErMin=10 ErrMin= 1.18D-05
 ErrMax= 1.18D-05 EMaxC= 1.00D-01 BMatC= 3.01D-07 BMatP= 2.37D-06
 IDIUse=1 WtCom= 1.00D+00 WtEn= 0.00D+00
 Coeff-Com: -0.578D-04 0.852D-04 0.682D-03 0.401D-03-0.363D-02-0.926D-02
 Coeff-Com: -0.312D-01 0.308D-01 0.295D+00 0.717D+00
 Coeff:     -0.578D-04 0.852D-04 0.682D-03 0.401D-03-0.363D-02-0.926D-02
 Coeff:     -0.312D-01 0.308D-01 0.295D+00 0.717D+00
 Gap=     0.160 Goal=   None    Shift=    0.000
 Gap=     0.225 Goal=   None    Shift=    0.000
 RMSDP=5.36D-06 MaxDP=8.41D-04 DE=-6.34D-07 OVMax= 8.45D-05

 Cycle  11  Pass 1  IDiag  1:
 RMSU=  2.19D-06    CP:  6.26D-01 -7.21D-02  8.85D-01  8.87D-01  1.01D+00
                    CP:  8.90D-01  9.22D-01  1.07D+00  9.25D-01  7.58D-01
 E= -504.856926009312     Delta-E=       -0.000000080590 Rises=F Damp=F
 DIIS: error= 5.67D-06 at cycle  11 NSaved=  11.
 NSaved=11 IEnMin=11 EnMin= -504.856926009312     IErMin=11 ErrMin= 5.67D-06
 ErrMax= 5.67D-06 EMaxC= 1.00D-01 BMatC= 8.13D-08 BMatP= 3.01D-07
 IDIUse=1 WtCom= 1.00D+00 WtEn= 0.00D+00
 Coeff-Com:  0.180D-05-0.430D-04 0.124D-03 0.173D-03 0.758D-03-0.756D-04
 Coeff-Com: -0.203D-01-0.274D-01 0.144D-01 0.372D+00 0.660D+00
 Coeff:      0.180D-05-0.430D-04 0.124D-03 0.173D-03 0.758D-03-0.756D-04
 Coeff:     -0.203D-01-0.274D-01 0.144D-01 0.372D+00 0.660D+00
 Gap=     0.160 Goal=   None    Shift=    0.000
 Gap=     0.226 Goal=   None    Shift=    0.000
 RMSDP=1.64D-06 MaxDP=1.17D-04 DE=-8.06D-08 OVMax= 3.09D-05

 Cycle  12  Pass 1  IDiag  1:
 RMSU=  8.02D-07    CP:  6.26D-01 -7.21D-02  8.85D-01  8.87D-01  1.01D+00
                    CP:  8.89D-01  9.19D-01  1.08D+00  9.20D-01  8.06D-01
                    CP:  7.66D-01
 E= -504.856926031359     Delta-E=       -0.000000022047 Rises=F Damp=F
 DIIS: error= 1.37D-06 at cycle  12 NSaved=  12.
 NSaved=12 IEnMin=12 EnMin= -504.856926031359     IErMin=12 ErrMin= 1.37D-06
 ErrMax= 1.37D-06 EMaxC= 1.00D-01 BMatC= 5.17D-09 BMatP= 8.13D-08
 IDIUse=1 WtCom= 1.00D+00 WtEn= 0.00D+00
 Coeff-Com:  0.869D-05-0.246D-04-0.623D-04 0.344D-04 0.765D-03 0.121D-02
 Coeff-Com: -0.213D-02-0.140D-01-0.345D-01 0.171D-01 0.207D+00 0.824D+00
 Coeff:      0.869D-05-0.246D-04-0.623D-04 0.344D-04 0.765D-03 0.121D-02
 Coeff:     -0.213D-02-0.140D-01-0.345D-01 0.171D-01 0.207D+00 0.824D+00
 Gap=     0.160 Goal=   None    Shift=    0.000
 Gap=     0.226 Goal=   None    Shift=    0.000
 RMSDP=5.97D-07 MaxDP=5.00D-05 DE=-2.20D-08 OVMax= 1.09D-05

 Cycle  13  Pass 1  IDiag  1:
 RMSU=  2.42D-07    CP:  6.26D-01 -7.21D-02  8.85D-01  8.87D-01  1.01D+00
                    CP:  8.89D-01  9.20D-01  1.08D+00  9.17D-01  8.30D-01
                    CP:  8.01D-01  8.24D-01
 E= -504.856926033111     Delta-E=       -0.000000001753 Rises=F Damp=F
 DIIS: error= 4.38D-07 at cycle  13 NSaved=  13.
 NSaved=13 IEnMin=13 EnMin= -504.856926033111     IErMin=13 ErrMin= 4.38D-07
 ErrMax= 4.38D-07 EMaxC= 1.00D-01 BMatC= 5.30D-10 BMatP= 5.17D-09
 IDIUse=1 WtCom= 1.00D+00 WtEn= 0.00D+00
 Coeff-Com:  0.218D-05-0.383D-05-0.305D-04 0.187D-04 0.189D-03 0.383D-03
 Coeff-Com:  0.903D-03-0.245D-02-0.110D-01-0.258D-01 0.690D-02 0.251D+00
 Coeff-Com:  0.780D+00
 Coeff:      0.218D-05-0.383D-05-0.305D-04 0.187D-04 0.189D-03 0.383D-03
 Coeff:      0.903D-03-0.245D-02-0.110D-01-0.258D-01 0.690D-02 0.251D+00
 Coeff:      0.780D+00
 Gap=     0.160 Goal=   None    Shift=    0.000
 Gap=     0.226 Goal=   None    Shift=    0.000
 RMSDP=2.35D-07 MaxDP=2.60D-05 DE=-1.75D-09 OVMax= 5.09D-06

 Cycle  14  Pass 1  IDiag  1:
 RMSU=  8.09D-08    CP:  6.26D-01 -7.21D-02  8.85D-01  8.87D-01  1.01D+00
                    CP:  8.89D-01  9.19D-01  1.08D+00  9.18D-01  8.23D-01
                    CP:  8.03D-01  8.89D-01  8.45D-01
 E= -504.856926033300     Delta-E=       -0.000000000189 Rises=F Damp=F
 DIIS: error= 2.05D-07 at cycle  14 NSaved=  14.
 NSaved=14 IEnMin=14 EnMin= -504.856926033300     IErMin=14 ErrMin= 2.05D-07
 ErrMax= 2.05D-07 EMaxC= 1.00D-01 BMatC= 7.76D-11 BMatP= 5.30D-10
 IDIUse=1 WtCom= 1.00D+00 WtEn= 0.00D+00
 Coeff-Com:  0.178D-05-0.218D-05-0.293D-05 0.165D-05-0.324D-04-0.307D-04
 Coeff-Com:  0.603D-03 0.115D-02 0.108D-02-0.107D-01-0.264D-01-0.353D-01
 Coeff-Com:  0.239D+00 0.831D+00
 Coeff:      0.178D-05-0.218D-05-0.293D-05 0.165D-05-0.324D-04-0.307D-04
 Coeff:      0.603D-03 0.115D-02 0.108D-02-0.107D-01-0.264D-01-0.353D-01
 Coeff:      0.239D+00 0.831D+00
 Gap=     0.160 Goal=   None    Shift=    0.000
 Gap=     0.226 Goal=   None    Shift=    0.000
 RMSDP=7.62D-08 MaxDP=1.27D-05 DE=-1.89D-10 OVMax= 1.97D-06

 Cycle  15  Pass 1  IDiag  1:
 RMSU=  2.71D-08    CP:  6.26D-01 -7.21D-02  8.85D-01  8.87D-01  1.01D+00
                    CP:  8.89D-01  9.19D-01  1.08D+00  9.17D-01  8.22D-01
                    CP:  7.98D-01  8.94D-01  8.96D-01  1.07D+00
 E= -504.856926033320     Delta-E=       -0.000000000020 Rises=F Damp=F
 DIIS: error= 1.04D-07 at cycle  15 NSaved=  15.
 NSaved=15 IEnMin=15 EnMin= -504.856926033320     IErMin=15 ErrMin= 1.04D-07
 ErrMax= 1.04D-07 EMaxC= 1.00D-01 BMatC= 1.55D-11 BMatP= 7.76D-11
 IDIUse=1 WtCom= 1.00D+00 WtEn= 0.00D+00
 Coeff-Com:  0.602D-06-0.462D-06 0.329D-05-0.564D-05-0.367D-04-0.544D-04
 Coeff-Com:  0.106D-03 0.794D-03 0.176D-02-0.700D-04-0.102D-01-0.496D-01
 Coeff-Com: -0.330D-01 0.321D+00 0.770D+00
 Coeff:      0.602D-06-0.462D-06 0.329D-05-0.564D-05-0.367D-04-0.544D-04
 Coeff:      0.106D-03 0.794D-03 0.176D-02-0.700D-04-0.102D-01-0.496D-01
 Coeff:     -0.330D-01 0.321D+00 0.770D+00
 Gap=     0.160 Goal=   None    Shift=    0.000
 Gap=     0.226 Goal=   None    Shift=    0.000
 RMSDP=2.60D-08 MaxDP=3.59D-06 DE=-1.96D-11 OVMax= 9.23D-07

 Cycle  16  Pass 1  IDiag  1:
 RMSU=  9.00D-09    CP:  6.26D-01 -7.21D-02  8.85D-01  8.87D-01  1.01D+00
                    CP:  8.89D-01  9.19D-01  1.08D+00  9.17D-01  8.22D-01
                    CP:  7.97D-01  8.90D-01  9.24D-01  1.06D+00  1.09D+00
 E= -504.856926033334     Delta-E=       -0.000000000014 Rises=F Damp=F
 DIIS: error= 2.71D-08 at cycle  16 NSaved=  16.
 NSaved=16 IEnMin=16 EnMin= -504.856926033334     IErMin=16 ErrMin= 2.71D-08
 ErrMax= 2.71D-08 EMaxC= 1.00D-01 BMatC= 1.55D-12 BMatP= 1.55D-11
 IDIUse=1 WtCom= 1.00D+00 WtEn= 0.00D+00
 Coeff-Com: -0.148D-06 0.452D-06 0.160D-05-0.289D-05-0.108D-04-0.139D-04
 Coeff-Com: -0.187D-04 0.154D-03 0.418D-03 0.990D-03-0.599D-03-0.113D-01
 Coeff-Com: -0.348D-01 0.860D-02 0.239D+00 0.798D+00
 Coeff:     -0.148D-06 0.452D-06 0.160D-05-0.289D-05-0.108D-04-0.139D-04
 Coeff:     -0.187D-04 0.154D-03 0.418D-03 0.990D-03-0.599D-03-0.113D-01
 Coeff:     -0.348D-01 0.860D-02 0.239D+00 0.798D+00
 Gap=     0.160 Goal=   None    Shift=    0.000
 Gap=     0.226 Goal=   None    Shift=    0.000
 RMSDP=1.23D-08 MaxDP=9.55D-07 DE=-1.36D-11 OVMax= 4.45D-07

 Cycle  17  Pass 1  IDiag  1:
 RMSU=  5.43D-09    CP:  6.26D-01 -7.21D-02  8.85D-01  8.87D-01  1.01D+00
                    CP:  8.89D-01  9.19D-01  1.08D+00  9.17D-01  8.22D-01
                    CP:  7.98D-01  8.89D-01  9.17D-01  1.10D+00  1.04D+00
                    CP:  9.55D-01
 E= -504.856926033333     Delta-E=        0.000000000000 Rises=F Damp=F
 DIIS: error= 1.36D-08 at cycle  17 NSaved=  17.
 NSaved=17 IEnMin=16 EnMin= -504.856926033334     IErMin=17 ErrMin= 1.36D-08
 ErrMax= 1.36D-08 EMaxC= 1.00D-01 BMatC= 2.58D-13 BMatP= 1.55D-12
 IDIUse=1 WtCom= 1.00D+00 WtEn= 0.00D+00
 Coeff-Com: -0.144D-06 0.201D-06-0.756D-07 0.963D-07 0.182D-05 0.253D-05
 Coeff-Com: -0.182D-04-0.758D-04-0.138D-03 0.228D-03 0.131D-02 0.484D-02
 Coeff-Com: -0.284D-02-0.500D-01-0.628D-01 0.201D+00 0.909D+00
 Coeff:     -0.144D-06 0.201D-06-0.756D-07 0.963D-07 0.182D-05 0.253D-05
 Coeff:     -0.182D-04-0.758D-04-0.138D-03 0.228D-03 0.131D-02 0.484D-02
 Coeff:     -0.284D-02-0.500D-01-0.628D-01 0.201D+00 0.909D+00
 Gap=     0.160 Goal=   None    Shift=    0.000
 Gap=     0.226 Goal=   None    Shift=    0.000
 RMSDP=7.32D-09 MaxDP=8.80D-07 DE= 2.27D-13 OVMax= 2.63D-07

 SCF Done:  E(UB3LYP) =  -504.856926033     A.U. after   17 cycles
             Convg  =    0.7320D-08             -V/T =  2.0045
 <Sx>= 0.0000 <Sy>= 0.0000 <Sz>= 0.5000 <S**2>= 0.7541 S= 0.5021
 <L.S>= 0.000000000000E+00
 KE= 5.026065072605D+02 PE=-2.492873277987D+03 EE= 8.270293313988D+02
 Annihilation of the first spin contaminant:
 S**2 before annihilation     0.7541,   after     0.7500
 Leave Link  502 at Sun Feb  9 07:17:47 2014, MaxMem= 4026531840 cpu:    1855.4
 (Enter /usr/caen/gaussian-09revc/g09/l601.exe)
 Copying SCF densities to generalized density rwf, IOpCl= 1 IROHF=0.

 **********************************************************************

            Population analysis using the SCF density.

 **********************************************************************

 Orbital symmetries:
 Alpha Orbitals:
       Occupied  (A) (A) (A) (A) (A) (A) (A) (A) (A) (A) (A) (A)
                 (A) (A) (A) (A) (A) (A) (A) (A) (A) (A) (A) (A)
                 (A) (A) (A) (A) (A) (A) (A) (A) (A) (A) (A) (A)
                 (A) (A) (A) (A) (A) (A) (A) (A) (A)
       Virtual   (A) (A) (A) (A) (A) (A) (A) (A) (A) (A) (A) (A)
                 (A) (A) (A) (A) (A) (A) (A) (A) (A) (A) (A) (A)
                 (A) (A) (A) (A) (A) (A) (A) (A) (A) (A) (A) (A)
                 (A) (A) (A) (A) (A) (A) (A) (A) (A) (A) (A) (A)
                 (A) (A) (A) (A) (A) (A) (A) (A) (A) (A) (A) (A)
                 (A) (A) (A) (A) (A) (A) (A) (A) (A) (A) (A) (A)
                 (A) (A) (A) (A) (A) (A) (A) (A) (A) (A) (A) (A)
                 (A) (A) (A) (A) (A) (A) (A) (A) (A) (A) (A) (A)
                 (A) (A) (A) (A) (A) (A) (A) (A) (A) (A) (A) (A)
                 (A) (A) (A) (A) (A) (A) (A) (A) (A) (A) (A) (A)
                 (A) (A) (A) (A) (A) (A) (A) (A) (A) (A) (A) (A)
                 (A) (A) (A) (A) (A) (A) (A) (A) (A) (A) (A) (A)
                 (A) (A) (A) (A) (A) (A) (A) (A) (A) (A) (A) (A)
                 (A) (A) (A) (A) (A) (A) (A) (A) (A) (A) (A) (A)
                 (A) (A) (A) (A) (A) (A) (A) (A) (A) (A) (A) (A)
                 (A) (A) (A) (A) (A) (A) (A) (A) (A) (A) (A) (A)
                 (A) (A) (A) (A) (A) (A) (A) (A) (A) (A) (A) (A)
                 (A) (A) (A) (A) (A) (A) (A) (A) (A) (A) (A) (A)
                 (A) (A) (A) (A) (A) (A) (A) (A) (A) (A) (A) (A)
                 (A) (A) (A) (A) (A) (A) (A) (A) (A) (A) (A) (A)
                 (A) (A) (A) (A) (A) (A) (A) (A) (A) (A) (A) (A)
                 (A) (A) (A) (A) (A) (A) (A) (A) (A) (A) (A) (A)
                 (A) (A) (A) (A) (A) (A) (A) (A) (A) (A) (A) (A)
                 (A) (A) (A) (A) (A) (A) (A) (A) (A) (A) (A) (A)
                 (A) (A) (A) (A) (A) (A) (A) (A) (A) (A) (A) (A)
                 (A) (A) (A) (A) (A) (A) (A) (A) (A) (A) (A) (A)
                 (A) (A) (A) (A) (A) (A) (A) (A) (A) (A) (A) (A)
                 (A) (A) (A) (A) (A) (A)
 Beta  Orbitals:
       Occupied  (A) (A) (A) (A) (A) (A) (A) (A) (A) (A) (A) (A)
                 (A) (A) (A) (A) (A) (A) (A) (A) (A) (A) (A) (A)
                 (A) (A) (A) (A) (A) (A) (A) (A) (A) (A) (A) (A)
                 (A) (A) (A) (A) (A) (A) (A) (A)
       Virtual   (A) (A) (A) (A) (A) (A) (A) (A) (A) (A) (A) (A)
                 (A) (A) (A) (A) (A) (A) (A) (A) (A) (A) (A) (A)
                 (A) (A) (A) (A) (A) (A) (A) (A) (A) (A) (A) (A)
                 (A) (A) (A) (A) (A) (A) (A) (A) (A) (A) (A) (A)
                 (A) (A) (A) (A) (A) (A) (A) (A) (A) (A) (A) (A)
                 (A) (A) (A) (A) (A) (A) (A) (A) (A) (A) (A) (A)
                 (A) (A) (A) (A) (A) (A) (A) (A) (A) (A) (A) (A)
                 (A) (A) (A) (A) (A) (A) (A) (A) (A) (A) (A) (A)
                 (A) (A) (A) (A) (A) (A) (A) (A) (A) (A) (A) (A)
                 (A) (A) (A) (A) (A) (A) (A) (A) (A) (A) (A) (A)
                 (A) (A) (A) (A) (A) (A) (A) (A) (A) (A) (A) (A)
                 (A) (A) (A) (A) (A) (A) (A) (A) (A) (A) (A) (A)
                 (A) (A) (A) (A) (A) (A) (A) (A) (A) (A) (A) (A)
                 (A) (A) (A) (A) (A) (A) (A) (A) (A) (A) (A) (A)
                 (A) (A) (A) (A) (A) (A) (A) (A) (A) (A) (A) (A)
                 (A) (A) (A) (A) (A) (A) (A) (A) (A) (A) (A) (A)
                 (A) (A) (A) (A) (A) (A) (A) (A) (A) (A) (A) (A)
                 (A) (A) (A) (A) (A) (A) (A) (A) (A) (A) (A) (A)
                 (A) (A) (A) (A) (A) (A) (A) (A) (A) (A) (A) (A)
                 (A) (A) (A) (A) (A) (A) (A) (A) (A) (A) (A) (A)
                 (A) (A) (A) (A) (A) (A) (A) (A) (A) (A) (A) (A)
                 (A) (A) (A) (A) (A) (A) (A) (A) (A) (A) (A) (A)
                 (A) (A) (A) (A) (A) (A) (A) (A) (A) (A) (A) (A)
                 (A) (A) (A) (A) (A) (A) (A) (A) (A) (A) (A) (A)
                 (A) (A) (A) (A) (A) (A) (A) (A) (A) (A) (A) (A)
                 (A) (A) (A) (A) (A) (A) (A) (A) (A) (A) (A) (A)
                 (A) (A) (A) (A) (A) (A) (A) (A) (A) (A) (A) (A)
                 (A) (A) (A) (A) (A) (A) (A)
 The electronic state is 2-A.
 Alpha  occ. eigenvalues --  -19.17872 -19.17767 -10.22470 -10.18256 -10.17436
 Alpha  occ. eigenvalues --  -10.17184 -10.16680 -10.16607 -10.16412 -10.16165
 Alpha  occ. eigenvalues --  -10.15941  -1.12005  -0.92147  -0.81531  -0.80427
 Alpha  occ. eigenvalues --   -0.75176  -0.69340  -0.69208  -0.67515  -0.61027
 Alpha  occ. eigenvalues --   -0.57419  -0.54458  -0.53251  -0.48884  -0.46517
 Alpha  occ. eigenvalues --   -0.45674  -0.45306  -0.44022  -0.43281  -0.42440
 Alpha  occ. eigenvalues --   -0.40554  -0.39558  -0.39137  -0.38776  -0.38690
 Alpha  occ. eigenvalues --   -0.36603  -0.36194  -0.35159  -0.34928  -0.33871
 Alpha  occ. eigenvalues --   -0.33172  -0.32743  -0.30712  -0.26555  -0.17281
 Alpha virt. eigenvalues --   -0.01318  -0.01088  -0.00064   0.00615   0.01196
 Alpha virt. eigenvalues --    0.01680   0.02355   0.02768   0.03413   0.04287
 Alpha virt. eigenvalues --    0.04333   0.04585   0.04679   0.05132   0.05772
 Alpha virt. eigenvalues --    0.06911   0.07424   0.07544   0.07955   0.08068
 Alpha virt. eigenvalues --    0.08337   0.08780   0.09788   0.10147   0.10704
 Alpha virt. eigenvalues --    0.11024   0.11394   0.12246   0.12416   0.12619
 Alpha virt. eigenvalues --    0.13119   0.13434   0.13582   0.13781   0.14143
 Alpha virt. eigenvalues --    0.14268   0.14639   0.14923   0.14966   0.15406
 Alpha virt. eigenvalues --    0.15821   0.16465   0.16730   0.17061   0.17283
 Alpha virt. eigenvalues --    0.17341   0.17814   0.18470   0.18761   0.19215
 Alpha virt. eigenvalues --    0.19469   0.19780   0.19950   0.20208   0.21056
 Alpha virt. eigenvalues --    0.21308   0.21607   0.21957   0.22617   0.23398
 Alpha virt. eigenvalues --    0.23690   0.23961   0.24301   0.25047   0.25399
 Alpha virt. eigenvalues --    0.26056   0.26911   0.27697   0.28129   0.28507
 Alpha virt. eigenvalues --    0.28952   0.29528   0.29871   0.30188   0.31025
 Alpha virt. eigenvalues --    0.31216   0.32005   0.32808   0.33606   0.34084
 Alpha virt. eigenvalues --    0.34748   0.34995   0.35656   0.36610   0.37902
 Alpha virt. eigenvalues --    0.39052   0.39314   0.39540   0.40881   0.41586
 Alpha virt. eigenvalues --    0.42855   0.44087   0.44561   0.44763   0.46652
 Alpha virt. eigenvalues --    0.47876   0.50553   0.51082   0.51905   0.53473
 Alpha virt. eigenvalues --    0.54009   0.54607   0.55577   0.56384   0.57203
 Alpha virt. eigenvalues --    0.57934   0.59230   0.60056   0.60691   0.62407
 Alpha virt. eigenvalues --    0.63197   0.64312   0.64697   0.65930   0.66167
 Alpha virt. eigenvalues --    0.66443   0.67493   0.67882   0.68477   0.68884
 Alpha virt. eigenvalues --    0.69251   0.70337   0.70925   0.71735   0.73144
 Alpha virt. eigenvalues --    0.73660   0.74250   0.75129   0.75672   0.76442
 Alpha virt. eigenvalues --    0.77377   0.77971   0.78533   0.79486   0.80892
 Alpha virt. eigenvalues --    0.81321   0.81612   0.85182   0.87915   0.91228
 Alpha virt. eigenvalues --    0.93681   0.96160   0.97323   0.98591   1.01369
 Alpha virt. eigenvalues --    1.03524   1.03908   1.04741   1.08499   1.09374
 Alpha virt. eigenvalues --    1.11594   1.14272   1.15661   1.16813   1.18698
 Alpha virt. eigenvalues --    1.20335   1.22148   1.25464   1.26186   1.30094
 Alpha virt. eigenvalues --    1.31806   1.33964   1.37584   1.39088   1.40726
 Alpha virt. eigenvalues --    1.43501   1.44298   1.44879   1.46473   1.46685
 Alpha virt. eigenvalues --    1.47407   1.47765   1.49359   1.49751   1.51659
 Alpha virt. eigenvalues --    1.53173   1.55196   1.56085   1.56724   1.57149
 Alpha virt. eigenvalues --    1.57415   1.59361   1.60397   1.61236   1.61822
 Alpha virt. eigenvalues --    1.62233   1.63450   1.64113   1.65154   1.65755
 Alpha virt. eigenvalues --    1.66253   1.66607   1.68779   1.70108   1.71499
 Alpha virt. eigenvalues --    1.73247   1.73884   1.74255   1.74657   1.77099
 Alpha virt. eigenvalues --    1.78219   1.78939   1.79573   1.81525   1.82563
 Alpha virt. eigenvalues --    1.86107   1.86743   1.88765   1.90888   1.92878
 Alpha virt. eigenvalues --    1.94895   1.96532   1.98911   1.99349   2.01584
 Alpha virt. eigenvalues --    2.04603   2.05892   2.06543   2.08732   2.10931
 Alpha virt. eigenvalues --    2.11422   2.14255   2.14734   2.16490   2.18489
 Alpha virt. eigenvalues --    2.20219   2.21085   2.22644   2.27256   2.30369
 Alpha virt. eigenvalues --    2.32047   2.33527   2.35089   2.36348   2.38422
 Alpha virt. eigenvalues --    2.41845   2.44060   2.45939   2.47481   2.49181
 Alpha virt. eigenvalues --    2.49657   2.49948   2.50978   2.51393   2.52883
 Alpha virt. eigenvalues --    2.53809   2.54232   2.54724   2.56265   2.57297
 Alpha virt. eigenvalues --    2.58334   2.59114   2.60477   2.60797   2.62432
 Alpha virt. eigenvalues --    2.62678   2.65327   2.65900   2.67634   2.69380
 Alpha virt. eigenvalues --    2.69883   2.70412   2.71516   2.73164   2.75383
 Alpha virt. eigenvalues --    2.76047   2.77391   2.77830   2.80409   2.82777
 Alpha virt. eigenvalues --    2.86526   2.86900   2.90824   2.92521   2.93505
 Alpha virt. eigenvalues --    2.95475   2.97379   2.99557   2.99669   3.02025
 Alpha virt. eigenvalues --    3.05202   3.09419   3.10181   3.12255   3.17070
 Alpha virt. eigenvalues --    3.19459   3.21042   3.22050   3.27968   3.34551
 Alpha virt. eigenvalues --    3.37812   3.54550   3.63558   3.72033   3.74683
 Alpha virt. eigenvalues --    3.77911   3.78541   3.79442   3.80105   3.82429
 Alpha virt. eigenvalues --    3.83427   3.84559   3.85137   3.87239   3.88625
 Alpha virt. eigenvalues --    3.93752   4.02886   4.12905   4.25156   4.28349
 Alpha virt. eigenvalues --    4.29761   4.31286   4.37064   4.90775   5.05117
 Alpha virt. eigenvalues --    5.14789   5.38679   5.51591   5.70065  23.78570
 Alpha virt. eigenvalues --   23.81035  23.84604  23.89022  23.91980  23.97674
 Alpha virt. eigenvalues --   23.98063  23.98393  23.99420  49.86291  49.91432
  Beta  occ. eigenvalues --  -19.17872 -19.17768 -10.22460 -10.18255 -10.17082
  Beta  occ. eigenvalues --  -10.16680 -10.16606 -10.16493 -10.16248 -10.16055
  Beta  occ. eigenvalues --  -10.16018  -1.12004  -0.92135  -0.81018  -0.79572
  Beta  occ. eigenvalues --   -0.74699  -0.69329  -0.68982  -0.67394  -0.60761
  Beta  occ. eigenvalues --   -0.57389  -0.54354  -0.51725  -0.48784  -0.46194
  Beta  occ. eigenvalues --   -0.45557  -0.45146  -0.43538  -0.42700  -0.41621
  Beta  occ. eigenvalues --   -0.40516  -0.39304  -0.39030  -0.38609  -0.38158
  Beta  occ. eigenvalues --   -0.36498  -0.35963  -0.35114  -0.34631  -0.33735
  Beta  occ. eigenvalues --   -0.32944  -0.32463  -0.30651  -0.26538
  Beta virt. eigenvalues --   -0.03988  -0.01316  -0.00994  -0.00003   0.00615
  Beta virt. eigenvalues --    0.01208   0.01690   0.02362   0.02818   0.03441
  Beta virt. eigenvalues --    0.04313   0.04333   0.04611   0.04689   0.05219
  Beta virt. eigenvalues --    0.05785   0.06948   0.07489   0.07577   0.07963
  Beta virt. eigenvalues --    0.08080   0.08348   0.08809   0.09791   0.10217
  Beta virt. eigenvalues --    0.10699   0.11049   0.11423   0.12247   0.12442
  Beta virt. eigenvalues --    0.12642   0.13221   0.13508   0.13591   0.13837
  Beta virt. eigenvalues --    0.14216   0.14332   0.14724   0.14939   0.14975
  Beta virt. eigenvalues --    0.15484   0.15847   0.16552   0.16783   0.17066
  Beta virt. eigenvalues --    0.17322   0.17395   0.17981   0.18582   0.18902
  Beta virt. eigenvalues --    0.19396   0.19573   0.19834   0.20011   0.20302
  Beta virt. eigenvalues --    0.21160   0.21386   0.21649   0.22151   0.22728
  Beta virt. eigenvalues --    0.23657   0.23712   0.24128   0.24415   0.25110
  Beta virt. eigenvalues --    0.25558   0.26344   0.27068   0.27851   0.28372
  Beta virt. eigenvalues --    0.28793   0.29255   0.29982   0.30204   0.30298
  Beta virt. eigenvalues --    0.31230   0.31536   0.32020   0.32890   0.33707
  Beta virt. eigenvalues --    0.34146   0.34996   0.35102   0.35808   0.36814
  Beta virt. eigenvalues --    0.38069   0.39318   0.39458   0.39701   0.40920
  Beta virt. eigenvalues --    0.41609   0.42940   0.44336   0.44593   0.44865
  Beta virt. eigenvalues --    0.46880   0.48102   0.50647   0.51302   0.51991
  Beta virt. eigenvalues --    0.53543   0.54129   0.54738   0.55645   0.56412
  Beta virt. eigenvalues --    0.57342   0.58245   0.59400   0.60256   0.60833
  Beta virt. eigenvalues --    0.62821   0.64046   0.64664   0.65844   0.66067
  Beta virt. eigenvalues --    0.66482   0.66725   0.67585   0.68196   0.68920
  Beta virt. eigenvalues --    0.69030   0.69746   0.70519   0.71199   0.71939
  Beta virt. eigenvalues --    0.73434   0.73792   0.74532   0.75169   0.75838
  Beta virt. eigenvalues --    0.76628   0.77520   0.78082   0.78773   0.79618
  Beta virt. eigenvalues --    0.80997   0.81592   0.81675   0.85449   0.88010
  Beta virt. eigenvalues --    0.92367   0.93735   0.96235   0.98289   0.99181
  Beta virt. eigenvalues --    1.01534   1.03811   1.03963   1.05048   1.08634
  Beta virt. eigenvalues --    1.09406   1.11820   1.14393   1.15936   1.16868
  Beta virt. eigenvalues --    1.18755   1.20475   1.22217   1.25746   1.26294
  Beta virt. eigenvalues --    1.30337   1.31910   1.34239   1.38097   1.39497
  Beta virt. eigenvalues --    1.41186   1.44106   1.45028   1.45298   1.46495
  Beta virt. eigenvalues --    1.47042   1.47524   1.48067   1.49395   1.50130
  Beta virt. eigenvalues --    1.51711   1.53738   1.55267   1.56155   1.56975
  Beta virt. eigenvalues --    1.57233   1.58148   1.59538   1.60786   1.61437
  Beta virt. eigenvalues --    1.62025   1.62535   1.63751   1.64384   1.65525
  Beta virt. eigenvalues --    1.66370   1.66527   1.67743   1.68940   1.70364
  Beta virt. eigenvalues --    1.71714   1.73320   1.74029   1.74416   1.74916
  Beta virt. eigenvalues --    1.77327   1.78337   1.79452   1.79875   1.81708
  Beta virt. eigenvalues --    1.82633   1.86703   1.86866   1.89474   1.90998
  Beta virt. eigenvalues --    1.93712   1.95449   1.97507   1.99077   1.99764
  Beta virt. eigenvalues --    2.01900   2.04657   2.06131   2.06777   2.08849
  Beta virt. eigenvalues --    2.11111   2.11664   2.14454   2.14976   2.16506
  Beta virt. eigenvalues --    2.18736   2.20477   2.21450   2.22844   2.28019
  Beta virt. eigenvalues --    2.30702   2.32539   2.34068   2.35546   2.36590
  Beta virt. eigenvalues --    2.38613   2.42117   2.44388   2.46334   2.47540
  Beta virt. eigenvalues --    2.49321   2.49823   2.50044   2.51122   2.51545
  Beta virt. eigenvalues --    2.52991   2.53915   2.54354   2.55008   2.56353
  Beta virt. eigenvalues --    2.57502   2.58629   2.59441   2.60672   2.60916
  Beta virt. eigenvalues --    2.62806   2.63031   2.65386   2.66132   2.67762
  Beta virt. eigenvalues --    2.69476   2.70010   2.70687   2.71616   2.73498
  Beta virt. eigenvalues --    2.75547   2.76196   2.77664   2.78026   2.80564
  Beta virt. eigenvalues --    2.82947   2.86832   2.87155   2.91196   2.92752
  Beta virt. eigenvalues --    2.93675   2.95714   2.98326   2.99690   3.01681
  Beta virt. eigenvalues --    3.02531   3.06620   3.09503   3.10731   3.12474
  Beta virt. eigenvalues --    3.17374   3.19650   3.21169   3.22406   3.28051
  Beta virt. eigenvalues --    3.34625   3.37929   3.54613   3.63840   3.72044
  Beta virt. eigenvalues --    3.74983   3.77927   3.78750   3.79473   3.80147
  Beta virt. eigenvalues --    3.82445   3.83434   3.84782   3.85380   3.87448
  Beta virt. eigenvalues --    3.88649   3.93777   4.02892   4.13001   4.25504
  Beta virt. eigenvalues --    4.28388   4.31064   4.31751   4.37696   4.90777
  Beta virt. eigenvalues --    5.05118   5.14789   5.38681   5.51593   5.70067
  Beta virt. eigenvalues --   23.79460  23.81652  23.84662  23.88990  23.92063
  Beta virt. eigenvalues --   23.97649  23.98013  23.98393  23.99343  49.86292
  Beta virt. eigenvalues --   49.91432
          Condensed to atoms (all electrons):
              1          2          3          4          5          6
     1  C    6.057330   0.315960   0.346442   0.455393  -0.421205  -0.072081
     2  H    0.315960   0.607062  -0.037214  -0.035287  -0.016843  -0.003776
     3  H    0.346442  -0.037214   0.546771  -0.040234   0.115911   0.012879
     4  H    0.455393  -0.035287  -0.040234   0.591595  -0.194170  -0.018427
     5  C   -0.421205  -0.016843   0.115911  -0.194170   9.460902   0.600852
     6  H   -0.072081  -0.003776   0.012879  -0.018427   0.600852   0.571275
     7  C   -0.268301   0.053284  -0.026569  -0.008735  -0.720084  -0.099407
     8  H   -0.010764  -0.000229   0.000729   0.001606  -0.052151   0.009580
     9  H    0.029386  -0.005021  -0.001482   0.001148   0.156697   0.003352
    10  C   -0.034830  -0.003693  -0.000514   0.005632  -0.026772  -0.001927
    11  H   -0.004735  -0.000233   0.000760  -0.000307  -0.011439   0.001315
    12  H   -0.001002   0.001485  -0.000109  -0.000083   0.011832  -0.000935
    13  C   -0.022621   0.002920  -0.003792   0.000801  -0.315803  -0.015441
    14  C    0.005440  -0.001008  -0.000344   0.000234   0.038392  -0.001194
    15  H   -0.000125  -0.000040   0.000013  -0.000002   0.001087   0.000124
    16  H    0.000014   0.000012  -0.000010   0.000002  -0.000993  -0.000107
    17  H   -0.000339   0.000126  -0.000014  -0.000010  -0.004200  -0.000248
    18  C   -0.295908   0.032670  -0.038639   0.010041  -0.344957  -0.131677
    19  H   -0.017841  -0.000686   0.012464  -0.001025   0.015474   0.009514
    20  H   -0.011829  -0.000823   0.003971  -0.001886   0.018332  -0.005476
    21  H    0.018774  -0.001189  -0.004974   0.004999  -0.136084  -0.018870
    22  C   -0.005348   0.001072   0.000048  -0.000157  -0.070074  -0.002218
    23  H    0.000170  -0.000006   0.000006   0.000001  -0.001132   0.000007
    24  H   -0.000103   0.000031  -0.000034   0.000014  -0.002147  -0.000133
    25  H   -0.001139   0.000067   0.000039  -0.000141   0.002337  -0.000174
    26  C    0.423158  -0.054736  -0.046987   0.074798  -2.126397  -0.017475
    27  H    0.044112   0.003478   0.004568  -0.000361  -0.099442   0.021419
    28  O    0.032257   0.027185  -0.003246  -0.001850  -0.372380  -0.008373
    29  O    0.033056  -0.016932  -0.010750   0.009865  -0.046162  -0.006711
    30  H    0.033071  -0.001100  -0.004036   0.001718  -0.022952   0.002399
              7          8          9         10         11         12
     1  C   -0.268301  -0.010764   0.029386  -0.034830  -0.004735  -0.001002
     2  H    0.053284  -0.000229  -0.005021  -0.003693  -0.000233   0.001485
     3  H   -0.026569   0.000729  -0.001482  -0.000514   0.000760  -0.000109
     4  H   -0.008735   0.001606   0.001148   0.005632  -0.000307  -0.000083
     5  C   -0.720084  -0.052151   0.156697  -0.026772  -0.011439   0.011832
     6  H   -0.099407   0.009580   0.003352  -0.001927   0.001315  -0.000935
     7  C    9.493413   0.562240   0.281941  -1.517648  -0.097276  -0.142471
     8  H    0.562240   0.562123  -0.074955  -0.130639   0.019434  -0.004897
     9  H    0.281941  -0.074955   0.706927  -0.018398  -0.025935   0.007718
    10  C   -1.517648  -0.130639  -0.018398   9.057679   0.458778   0.620518
    11  H   -0.097276   0.019434  -0.025935   0.458778   0.664834  -0.051769
    12  H   -0.142471  -0.004897   0.007718   0.620518  -0.051769   0.545219
    13  C    1.245860   0.128825  -0.049469  -2.282757  -0.028731  -0.196697
    14  C    0.224870  -0.004731   0.030860  -0.537480  -0.004553  -0.045652
    15  H   -0.044756  -0.000906   0.001422   0.000759   0.013655  -0.000652
    16  H    0.005799  -0.000287  -0.001361   0.020812  -0.005040   0.002307
    17  H    0.031130   0.003098  -0.001890  -0.046308   0.000028  -0.006327
    18  C    0.646266   0.006021  -0.057015   0.086355   0.001475   0.001632
    19  H    0.032971   0.004757  -0.007646  -0.003452   0.001184  -0.000780
    20  H   -0.013789  -0.002465   0.003218   0.002343   0.000000   0.000249
    21  H    0.069173   0.004610  -0.006144  -0.003163   0.000711   0.000440
    22  C    0.136712   0.013273  -0.079036   0.009106  -0.041545   0.021526
    23  H    0.000880   0.000080  -0.002072   0.021681  -0.004833  -0.001203
    24  H    0.000889  -0.000189   0.000976  -0.053661   0.022769  -0.004358
    25  H    0.032622   0.005967  -0.001408  -0.042922  -0.008864   0.001987
    26  C   -3.004623  -0.225640  -0.036268   1.152353  -0.016028   0.057312
    27  H   -0.160264  -0.005597   0.020070  -0.092784  -0.001581  -0.001170
    28  O   -0.307708  -0.021601   0.034806   0.008597  -0.009593   0.004850
    29  O    0.076761   0.011534  -0.012670   0.050921   0.006028  -0.001691
    30  H   -0.010989  -0.002267   0.001562   0.002768   0.000170  -0.000134
             13         14         15         16         17         18
     1  C   -0.022621   0.005440  -0.000125   0.000014  -0.000339  -0.295908
     2  H    0.002920  -0.001008  -0.000040   0.000012   0.000126   0.032670
     3  H   -0.003792  -0.000344   0.000013  -0.000010  -0.000014  -0.038639
     4  H    0.000801   0.000234  -0.000002   0.000002  -0.000010   0.010041
     5  C   -0.315803   0.038392   0.001087  -0.000993  -0.004200  -0.344957
     6  H   -0.015441  -0.001194   0.000124  -0.000107  -0.000248  -0.131677
     7  C    1.245860   0.224870  -0.044756   0.005799   0.031130   0.646266
     8  H    0.128825  -0.004731  -0.000906  -0.000287   0.003098   0.006021
     9  H   -0.049469   0.030860   0.001422  -0.001361  -0.001890  -0.057015
    10  C   -2.282757  -0.537480   0.000759   0.020812  -0.046308   0.086355
    11  H   -0.028731  -0.004553   0.013655  -0.005040   0.000028   0.001475
    12  H   -0.196697  -0.045652  -0.000652   0.002307  -0.006327   0.001632
    13  C    8.504167   0.107615  -0.020982  -0.089333  -0.028600   0.043659
    14  C    0.107615   6.270553   0.352291   0.391198   0.431497  -0.005811
    15  H   -0.020982   0.352291   0.633945  -0.058107  -0.047774   0.000168
    16  H   -0.089333   0.391198  -0.058107   0.593423  -0.018299  -0.000054
    17  H   -0.028600   0.431497  -0.047774  -0.018299   0.560330   0.000301
    18  C    0.043659  -0.005811   0.000168  -0.000054   0.000301   5.933998
    19  H    0.010634   0.000106   0.000019   0.000011   0.000031   0.395873
    20  H   -0.004295   0.000163   0.000024  -0.000021  -0.000050   0.384434
    21  H   -0.004919  -0.000776  -0.000188   0.000104   0.000142   0.439542
    22  C   -0.003298  -0.602299   0.014545   0.011690   0.000274   0.022689
    23  H   -0.089430   0.026658  -0.004390   0.007867   0.000416  -0.000441
    24  H   -0.024033   0.022999   0.019386  -0.004302  -0.001458   0.000782
    25  H   -0.026248   0.008752  -0.002740   0.002308  -0.002621   0.003123
    26  C   -1.661904  -0.114273   0.003976  -0.003445  -0.019912  -0.352171
    27  H   -0.042366  -0.004227  -0.000831   0.000123   0.000173  -0.122066
    28  O   -0.016559   0.007923   0.000042  -0.000032  -0.000846   0.019883
    29  O    0.019957  -0.000658   0.000120  -0.000005  -0.000061   0.020896
    30  H   -0.003657   0.000619   0.000005  -0.000004   0.000061  -0.002891
             19         20         21         22         23         24
     1  C   -0.017841  -0.011829   0.018774  -0.005348   0.000170  -0.000103
     2  H   -0.000686  -0.000823  -0.001189   0.001072  -0.000006   0.000031
     3  H    0.012464   0.003971  -0.004974   0.000048   0.000006  -0.000034
     4  H   -0.001025  -0.001886   0.004999  -0.000157   0.000001   0.000014
     5  C    0.015474   0.018332  -0.136084  -0.070074  -0.001132  -0.002147
     6  H    0.009514  -0.005476  -0.018870  -0.002218   0.000007  -0.000133
     7  C    0.032971  -0.013789   0.069173   0.136712   0.000880   0.000889
     8  H    0.004757  -0.002465   0.004610   0.013273   0.000080  -0.000189
     9  H   -0.007646   0.003218  -0.006144  -0.079036  -0.002072   0.000976
    10  C   -0.003452   0.002343  -0.003163   0.009106   0.021681  -0.053661
    11  H    0.001184   0.000000   0.000711  -0.041545  -0.004833   0.022769
    12  H   -0.000780   0.000249   0.000440   0.021526  -0.001203  -0.004358
    13  C    0.010634  -0.004295  -0.004919  -0.003298  -0.089430  -0.024033
    14  C    0.000106   0.000163  -0.000776  -0.602299   0.026658   0.022999
    15  H    0.000019   0.000024  -0.000188   0.014545  -0.004390   0.019386
    16  H    0.000011  -0.000021   0.000104   0.011690   0.007867  -0.004302
    17  H    0.000031  -0.000050   0.000142   0.000274   0.000416  -0.001458
    18  C    0.395873   0.384434   0.439542   0.022689  -0.000441   0.000782
    19  H    0.549363  -0.032052  -0.037895  -0.000328  -0.000043   0.000072
    20  H   -0.032052   0.564847  -0.026646  -0.001292  -0.000034  -0.000052
    21  H   -0.037895  -0.026646   0.603344   0.008418   0.000148   0.000058
    22  C   -0.000328  -0.001292   0.008418   6.122640   0.399754   0.372008
    23  H   -0.000043  -0.000034   0.000148   0.399754   0.577924  -0.056511
    24  H    0.000072  -0.000052   0.000058   0.372008  -0.056511   0.614480
    25  H    0.001127   0.000386  -0.003606   0.410548  -0.017751  -0.044625
    26  C   -0.085908  -0.011301  -0.025867  -0.018433   0.005876  -0.005381
    27  H    0.010449  -0.008438  -0.012496   0.002482   0.000456   0.000455
    28  O   -0.002158  -0.003641   0.001169  -0.001893  -0.000017   0.000062
    29  O    0.000701  -0.000354   0.001820   0.000275   0.000004  -0.000032
    30  H    0.000874  -0.000532  -0.000021  -0.000496  -0.000006  -0.000008
             25         26         27         28         29         30
     1  C   -0.001139   0.423158   0.044112   0.032257   0.033056   0.033071
     2  H    0.000067  -0.054736   0.003478   0.027185  -0.016932  -0.001100
     3  H    0.000039  -0.046987   0.004568  -0.003246  -0.010750  -0.004036
     4  H   -0.000141   0.074798  -0.000361  -0.001850   0.009865   0.001718
     5  C    0.002337  -2.126397  -0.099442  -0.372380  -0.046162  -0.022952
     6  H   -0.000174  -0.017475   0.021419  -0.008373  -0.006711   0.002399
     7  C    0.032622  -3.004623  -0.160264  -0.307708   0.076761  -0.010989
     8  H    0.005967  -0.225640  -0.005597  -0.021601   0.011534  -0.002267
     9  H   -0.001408  -0.036268   0.020070   0.034806  -0.012670   0.001562
    10  C   -0.042922   1.152353  -0.092784   0.008597   0.050921   0.002768
    11  H   -0.008864  -0.016028  -0.001581  -0.009593   0.006028   0.000170
    12  H    0.001987   0.057312  -0.001170   0.004850  -0.001691  -0.000134
    13  C   -0.026248  -1.661904  -0.042366  -0.016559   0.019957  -0.003657
    14  C    0.008752  -0.114273  -0.004227   0.007923  -0.000658   0.000619
    15  H   -0.002740   0.003976  -0.000831   0.000042   0.000120   0.000005
    16  H    0.002308  -0.003445   0.000123  -0.000032  -0.000005  -0.000004
    17  H   -0.002621  -0.019912   0.000173  -0.000846  -0.000061   0.000061
    18  C    0.003123  -0.352171  -0.122066   0.019883   0.020896  -0.002891
    19  H    0.001127  -0.085908   0.010449  -0.002158   0.000701   0.000874
    20  H    0.000386  -0.011301  -0.008438  -0.003641  -0.000354  -0.000532
    21  H   -0.003606  -0.025867  -0.012496   0.001169   0.001820  -0.000021
    22  C    0.410548  -0.018433   0.002482  -0.001893   0.000275  -0.000496
    23  H   -0.017751   0.005876   0.000456  -0.000017   0.000004  -0.000006
    24  H   -0.044625  -0.005381   0.000455   0.000062  -0.000032  -0.000008
    25  H    0.593821  -0.051439  -0.004978  -0.000056   0.000316  -0.000007
    26  C   -0.051439  11.307413   0.663133   0.627269  -0.041764   0.013051
    27  H   -0.004978   0.663133   0.627058  -0.005008  -0.050991  -0.006550
    28  O   -0.000056   0.627269  -0.005008   7.996491   0.017199  -0.025781
    29  O    0.000316  -0.041764  -0.050991   0.017199   7.902382   0.221986
    30  H   -0.000007   0.013051  -0.006550  -0.025781   0.221986   0.561822
 Mulliken atomic charges:
              1
     1  C   -0.626393
     2  H    0.133464
     3  H    0.174347
     4  H    0.144826
     5  C    0.563573
     6  H    0.171933
     7  C   -0.472194
     8  H    0.203442
     9  H    0.100689
    10  C   -0.701352
    11  H    0.121322
    12  H    0.182857
    13  C    0.866498
    14  C   -0.597163
    15  H    0.139910
    16  H    0.145732
    17  H    0.151350
    18  C   -0.698178
    19  H    0.144190
    20  H    0.147013
    21  H    0.129388
    22  C   -0.720641
    23  H    0.135942
    24  H    0.142044
    25  H    0.145319
    26  C   -0.408385
    27  H    0.221174
    28  O    0.003008
    29  O   -0.185040
    30  H    0.241324
 Sum of Mulliken atomic charges =   0.00000
 Mulliken charges with hydrogens summed into heavy atoms:
              1
     1  C   -0.173756
     5  C    0.735507
     7  C   -0.168062
    10  C   -0.397173
    13  C    0.866498
    14  C   -0.160171
    18  C   -0.277587
    22  C   -0.297336
    26  C   -0.187211
    28  O    0.003008
    29  O    0.056284
 Sum of Mulliken charges with hydrogens summed into heavy atoms =   0.00000
          Atomic-Atomic Spin Densities.
              1          2          3          4          5          6
     1  C    0.002318   0.000257   0.000324  -0.000314  -0.012641  -0.000216
     2  H    0.000257  -0.000087   0.000005   0.000049   0.000571   0.000083
     3  H    0.000324   0.000005  -0.000049   0.000037  -0.000412  -0.000034
     4  H   -0.000314   0.000049   0.000037   0.000018  -0.001030  -0.000069
     5  C   -0.012641   0.000571  -0.000412  -0.001030  -0.001143  -0.000792
     6  H   -0.000216   0.000083  -0.000034  -0.000069  -0.000792   0.000161
     7  C    0.004195  -0.000561   0.000238   0.000227   0.018012   0.004091
     8  H   -0.000240  -0.000011   0.000009   0.000009   0.000156   0.000047
     9  H   -0.000542   0.000037  -0.000037  -0.000040   0.000436  -0.000141
    10  C    0.001545  -0.000145  -0.000154   0.000313  -0.000282  -0.001170
    11  H   -0.001775  -0.000029  -0.000078   0.000008  -0.000338   0.000231
    12  H    0.000524   0.000010   0.000011   0.000012   0.000082  -0.000106
    13  C    0.004438  -0.000247   0.000099   0.000176   0.022172   0.001518
    14  C    0.000478  -0.000011   0.000036  -0.000015   0.000746   0.000187
    15  H   -0.000098  -0.000002  -0.000004   0.000001  -0.000179   0.000009
    16  H    0.000066   0.000000   0.000001   0.000000   0.000278   0.000000
    17  H    0.000051   0.000002   0.000001   0.000000   0.000112   0.000001
    18  C   -0.003194  -0.000108  -0.000213   0.000225   0.005631  -0.000326
    19  H   -0.000218  -0.000013  -0.000011  -0.000013   0.000950   0.000077
    20  H   -0.000024   0.000006  -0.000013   0.000017  -0.000046  -0.000098
    21  H    0.000222  -0.000003   0.000036  -0.000023  -0.000928   0.000059
    22  C   -0.000275   0.000023  -0.000019  -0.000001  -0.001980  -0.000292
    23  H    0.000027   0.000001   0.000002  -0.000003   0.000100  -0.000009
    24  H   -0.000153  -0.000002  -0.000007   0.000003  -0.000591   0.000023
    25  H    0.000460  -0.000002   0.000012   0.000003   0.001852  -0.000009
    26  C    0.005419   0.000257   0.000177   0.000450  -0.033430  -0.003075
    27  H   -0.000858   0.000021  -0.000029   0.000008  -0.000429  -0.000069
    28  O    0.000459  -0.000016  -0.000016  -0.000008   0.000726  -0.000012
    29  O   -0.000050  -0.000050   0.000015   0.000037   0.000864   0.000072
    30  H    0.000137  -0.000010   0.000016   0.000008  -0.000138   0.000002
              7          8          9         10         11         12
     1  C    0.004195  -0.000240  -0.000542   0.001545  -0.001775   0.000524
     2  H   -0.000561  -0.000011   0.000037  -0.000145  -0.000029   0.000010
     3  H    0.000238   0.000009  -0.000037  -0.000154  -0.000078   0.000011
     4  H    0.000227   0.000009  -0.000040   0.000313   0.000008   0.000012
     5  C    0.018012   0.000156   0.000436  -0.000282  -0.000338   0.000082
     6  H    0.004091   0.000047  -0.000141  -0.001170   0.000231  -0.000106
     7  C    0.145018  -0.003378   0.002363  -0.118279  -0.055665   0.008151
     8  H   -0.003378  -0.003582   0.000924   0.005190   0.000201   0.000178
     9  H    0.002363   0.000924  -0.000590  -0.001677   0.002968  -0.000502
    10  C   -0.118279   0.005190  -0.001677  -0.136436   0.081499  -0.006030
    11  H   -0.055665   0.000201   0.002968   0.081499   0.105298  -0.007095
    12  H    0.008151   0.000178  -0.000502  -0.006030  -0.007095   0.001242
    13  C   -0.026492   0.001927   0.005854   0.164228  -0.077733  -0.002158
    14  C    0.038294  -0.003726   0.000610  -0.012825  -0.027024   0.010952
    15  H   -0.021554   0.000139   0.000705   0.070913   0.015296  -0.004740
    16  H    0.012723  -0.000169  -0.000352  -0.024631  -0.003826   0.001217
    17  H    0.012286   0.000030  -0.000329  -0.028789  -0.003185   0.001789
    18  C   -0.005337   0.000831   0.000241   0.004692   0.003594  -0.000533
    19  H   -0.000354  -0.000033   0.000219   0.000234   0.000449  -0.000044
    20  H   -0.000016   0.000063  -0.000047   0.000066   0.000052  -0.000007
    21  H   -0.000079  -0.000100  -0.000458  -0.000210  -0.001108   0.000096
    22  C    0.003991   0.002252  -0.005084  -0.038805   0.002817  -0.002612
    23  H    0.008610  -0.000156  -0.000776  -0.025076  -0.004387   0.001005
    24  H   -0.020104   0.000167   0.001275   0.062010   0.021875  -0.002667
    25  H    0.014351  -0.000561   0.000151  -0.018186  -0.009893   0.001355
    26  C   -0.016428  -0.000219  -0.006311  -0.013934   0.008819  -0.001597
    27  H    0.000452   0.000023  -0.000190   0.001419   0.001280  -0.000057
    28  O    0.000987   0.000226  -0.000165  -0.002059  -0.001080   0.000130
    29  O   -0.002726   0.000080  -0.000031   0.000859   0.000088   0.000096
    30  H    0.000040  -0.000011  -0.000019  -0.000122  -0.000095   0.000053
             13         14         15         16         17         18
     1  C    0.004438   0.000478  -0.000098   0.000066   0.000051  -0.003194
     2  H   -0.000247  -0.000011  -0.000002   0.000000   0.000002  -0.000108
     3  H    0.000099   0.000036  -0.000004   0.000001   0.000001  -0.000213
     4  H    0.000176  -0.000015   0.000001   0.000000   0.000000   0.000225
     5  C    0.022172   0.000746  -0.000179   0.000278   0.000112   0.005631
     6  H    0.001518   0.000187   0.000009   0.000000   0.000001  -0.000326
     7  C   -0.026492   0.038294  -0.021554   0.012723   0.012286  -0.005337
     8  H    0.001927  -0.003726   0.000139  -0.000169   0.000030   0.000831
     9  H    0.005854   0.000610   0.000705  -0.000352  -0.000329   0.000241
[...]
 7,0.00019746,-0.00083909,0.00013845,0.00000774,-0.00029206,0.01819538,
 0.00003881,0.02385553,-0.00017811,0.00102415,-0.00124315,-0.00071285,-
 0.00068011,-0.00026967,0.00002567,-0.00023092,0.00013547,-0.00011080,-
 0.00008817,-0.00025517,0.00004108,-0.00002286,0.00000306,-0.00000783,0
 .00000527,0.00000275,0.00000052,0.00000917,-0.00000135,-0.00000557,0.0
 0000600,-0.00000377,-0.01715073,-0.04670585,-0.02413392,-0.00652627,-0
 .00199563,-0.00967997,0.01919005,0.05285836,-0.00002482,-0.00004963,-0
 .00001550,0.00000938,0.00000510,0.00000244,-0.00000001,0.00000755,0.00
 000850,-0.00003133,-0.00000090,-0.00000761,-0.00006075,0.00008667,0.00
 004300,0.00000460,-0.00000220,0.00001190,-0.00038645,0.00011416,0.0002
 3106,0.00010943,0.00000177,0.00003899,-0.00006072,-0.00010914,-0.00006
 016,0.00030423,-0.00015995,-0.00113068,-0.00048896,0.00006216,0.000084
 45,-0.00007996,0.00001034,0.00001762,-0.00740138,0.00904063,-0.0058576
 8,-0.00009303,-0.00000522,0.00095247,0.00049309,0.00073610,-0.00039139
 ,-0.00003834,-0.00017808,-0.00034127,0.00011842,0.00032988,0.00002503,
 -0.00000533,0.00000332,-0.00001452,-0.00000563,0.00000544,0.00001291,-
 0.00001608,-0.00001322,-0.00000301,0.00000213,0.00002095,-0.00000790,-
 0.10188581,-0.03520062,-0.19820347,-0.01255968,-0.00533097,-0.02113302
 ,0.11849358,0.03068891,0.22026365,0.00001419,0.00002805,0.00000853,-0.
 00000806,0.00000244,-0.00000515,-0.00000317,-0.00000517,-0.00000148,0.
 00001810,0.00000068,0.00000473,0.00001681,-0.00002770,-0.00003536,-0.0
 0000231,0.00000255,0.00000104,0.00022738,0.00016543,-0.00033279,-0.000
 00513,0.00001621,0.00003314,-0.00047523,0.00001296,-0.00013759,0.00024
 734,0.00020740,0.00048336,0.00013913,0.00008026,-0.00009398,0.00019552
 ,-0.00019192,-0.00007851,0.01135195,0.00970735,-0.00373510,-0.00094863
 ,0.00213653,-0.00087288,0.00002621,0.00011683,-0.00005478,0.00013407,-
 0.00005835,-0.00029389,0.00043638,0.00038137,-0.00040444,0.00002738,0.
 00000461,0.00001560,0.00000303,-0.00000299,-0.00000541,0.00001831,0.00
 000706,0.00000039,-0.00002179,-0.00002198,-0.00000094,-0.16962313,-0.1
 2099053,0.04138450,-0.01295555,-0.01262548,0.00220589,-0.01328406,-0.0
 1193379,0.00369853,0.18437498,0.00000955,0.00000279,-0.00000439,-0.000
 00377,0.00001670,-0.00000134,0.00000058,0.00000221,0.00000300,-0.00000
 817,-0.00000645,-0.00000118,0.00002837,-0.00000936,0.00000641,0.000006
 46,-0.00000234,-0.00000359,0.00037035,-0.00047832,-0.00004451,-0.00016
 187,0.00012080,-0.00012620,0.00027481,0.00031533,0.00027153,-0.0011908
 2,0.00143884,0.00072491,0.00056991,-0.00015483,-0.00090191,-0.00022193
 ,0.00030527,-0.00025634,-0.01922783,-0.01891080,0.00869285,0.00383591,
 -0.00328113,0.00033110,-0.00023144,-0.00008606,-0.00020150,0.00003155,
 0.00028903,0.00001001,-0.00081343,-0.00095134,0.00064897,0.00004508,-0
 .00004303,-0.00001183,0.00000809,0.00000193,-0.00000064,-0.00003622,0.
 00000525,-0.00001235,-0.00000786,0.00005855,0.00002148,-0.12062469,-0.
 16888798,0.03705561,0.00867870,0.00929416,-0.00153970,-0.00459371,-0.0
 0389307,0.00013572,0.13304507,0.18459627,-0.00000619,-0.00000236,-0.00
 000098,0.00000278,-0.00000764,0.00000090,0.00000534,-0.00000374,-0.000
 00501,0.00000193,0.00000244,0.00000172,-0.00002273,0.00001293,-0.00001
 068,-0.00001107,0.00000730,-0.00002005,0.00009006,0.00049437,0.0000279
 3,-0.00001288,-0.00001084,-0.00001582,-0.00046519,-0.00022266,-0.00002
 647,0.00004661,-0.00093459,0.00020051,0.00001968,-0.00024642,-0.000067
 31,0.00012433,-0.00002826,-0.00014633,0.00721695,0.00844447,-0.0049220
 0,-0.00100259,0.00197933,0.00014326,0.00018355,0.00045564,-0.00003657,
 -0.00040552,-0.00014679,0.00038201,0.00015570,0.00070258,0.00006565,-0
 .00004854,0.00002531,0.00000644,0.00002911,-0.00001496,-0.00001701,0.0
 0000704,0.00000014,-0.00000381,0.00000103,-0.00002185,0.00003253,0.040
 73750,0.03663462,-0.05625023,0.01477243,0.01659379,-0.00454228,-0.0194
 4423,-0.01865109,0.00556204,-0.04189740,-0.04478319,0.05963652,-0.0283
 7825,-0.01494586,-0.01312788,0.00094328,-0.00049250,0.00001095,0.00149
 539,-0.00060087,-0.00022109,-0.00343255,0.00269602,0.00017096,-0.12009
 834,-0.02137842,-0.02928503,0.00229953,0.00206458,0.00124854,-0.151658
 54,0.01395060,0.03087582,-0.00588272,0.00248425,0.00297506,-0.00003765
 ,-0.00059441,0.00045395,-0.02920488,0.00437267,0.00524701,0.00184574,0
 .00054635,0.00161744,0.00082845,0.00072892,0.00067633,-0.00275970,-0.0
 0232386,-0.00159434,-0.00045331,0.00028252,-0.00011609,-0.00002068,-0.
 00009570,0.00009759,-0.00001554,-0.00009977,0.00001626,-0.00001230,-0.
 00016288,0.00008152,0.00098487,-0.00605310,0.00307833,0.00020317,0.000
 61841,-0.00095993,0.00058438,0.00258828,-0.00113543,-0.00043812,0.0016
 0669,0.00012100,-0.00012191,-0.00035266,0.00014842,0.00006070,0.000001
 54,-0.00004561,0.00012652,0.00018877,-0.00003014,0.00002968,0.00037722
 ,-0.00021966,0.45506719,0.00544879,0.01187802,0.00730936,0.00159085,-0
 .00160705,0.00195064,0.00039000,0.00081057,-0.00087265,0.00486730,-0.0
 0301171,0.00061269,-0.02499832,-0.08500846,-0.02425826,-0.00378216,-0.
 00288513,-0.00173169,0.01689017,-0.07602304,-0.00809909,-0.00935809,0.
 00185996,0.00219457,0.02860050,-0.00942267,-0.01147126,-0.01141760,0.0
 0565101,0.00577235,0.00054947,0.00020819,0.00026114,-0.00164000,-0.001
 61955,-0.00009338,-0.00125583,-0.00192201,-0.00113020,-0.00031689,0.00
 069505,-0.00000343,-0.00012774,-0.00015066,-0.00009212,-0.00007425,-0.
 00018459,0.00020023,0.00009398,-0.00004231,0.00022523,-0.01938585,-0.0
 2373682,-0.00848153,0.00037749,0.00153177,-0.00142394,0.00045980,-0.00
 277529,0.00154193,-0.00029165,0.00026254,-0.00043347,-0.00005229,-0.00
 024150,0.00002662,-0.00001004,0.00007121,0.00002606,-0.00013904,0.0001
 4468,-0.00021333,-0.00007073,0.00006105,-0.00013640,0.00457776,0.40387
 627,-0.00002876,0.00287962,0.00108542,-0.00055158,-0.00021623,-0.00029
 765,0.00132664,0.00032692,0.00065664,0.00213956,0.00004221,0.00098773,
 -0.02798777,-0.02197984,-0.10477004,-0.02538571,-0.01978315,-0.0174528
 3,0.03130672,-0.00296854,-0.09403091,0.03158390,-0.00995934,-0.0129106
 6,-0.00425793,0.00176308,-0.00049795,-0.01539152,0.00612236,0.00580070
 ,-0.00164602,0.00033797,-0.00020140,0.00035951,-0.00034591,0.00054710,
 -0.00133287,-0.00145025,-0.00088653,-0.00046103,0.00035548,0.00000136,
 -0.00013279,-0.00019039,-0.00004053,-0.00010080,-0.00011520,0.00010210
 ,0.00000301,-0.00014984,-0.00000297,0.01048419,0.00588029,0.00601876,0
 .00164926,0.00189753,0.00000841,0.00080167,0.00384488,-0.00160405,-0.0
 0044672,0.00005470,0.00040453,-0.00010511,-0.00022128,0.00016329,-0.00
 005011,0.00013381,-0.00002615,-0.00012765,-0.00002716,-0.00010427,0.00
 013634,-0.00000947,0.00011079,-0.03297286,0.00578044,0.61051631,0.0015
 1295,-0.00025887,-0.00038999,-0.00002407,0.00008715,-0.00003130,-0.000
 28917,0.00027603,0.00059260,-0.00002390,0.00009055,0.00036728,0.000703
 64,-0.00181426,-0.02538833,-0.00307497,-0.00248782,-0.00208076,-0.0043
 1388,-0.00335053,0.02967556,-0.00482001,0.00183662,0.00179141,0.000749
 20,0.00022845,-0.00061833,0.00157322,-0.00022827,0.00157769,-0.0003425
 4,0.00021392,-0.00090833,-0.00003590,-0.00014406,-0.00004641,0.0000765
 2,0.00008620,-0.00041246,0.00014184,-0.00008840,-0.00001349,0.00000576
 ,0.00002998,-0.00000905,0.00005265,0.00003409,-0.00002592,0.00001191,0
 .00006749,-0.00000011,0.00115789,0.00118268,-0.00062873,-0.00009864,-0
 .00023225,0.00066009,-0.00000233,0.00037595,0.00019202,0.00000859,-0.0
 0009032,0.00019282,0.00005575,0.00002147,-0.00002993,0.00004167,-0.000
 01774,-0.00000508,-0.00002263,-0.00000732,0.00000424,-0.00001249,0.000
 01500,0.00003839,-0.04898960,-0.00452332,0.01473701,0.05520718,0.00035
 000,-0.00011057,0.00025189,-0.00014361,0.00002142,-0.00003635,-0.00007
 519,0.00022100,0.00029435,-0.00002590,0.00007705,0.00011386,-0.0006095
 2,0.00025868,-0.01636180,-0.00254155,-0.00132679,-0.00156757,0.0008684
 6,0.00246490,-0.01017598,0.00192601,-0.00025891,-0.00046814,-0.0005544
 5,0.00020658,0.00037425,-0.00071362,0.00018334,0.00029748,0.00007173,0
 .00010030,0.00021498,0.00015419,0.00002625,0.00018264,-0.00006579,-0.0
 0009236,-0.00003558,-0.00003396,-0.00000412,0.00002430,0.00000626,0.00
 000149,0.00000646,-0.00000850,-0.00000260,-0.00000653,-0.00000258,-0.0
 0002218,-0.00000690,0.00025480,0.00096409,-0.00150101,-0.00037055,-0.0
 0016662,0.00050878,0.00013376,0.00009545,0.00018438,0.00010583,-0.0000
 1599,-0.00003516,0.00000257,0.00002217,0.00000321,-0.00000967,-0.00000
 956,-0.00000048,0.00000626,-0.00000212,0.00000793,0.00000337,-0.000012
 52,-0.00001436,0.00030076,-0.04368123,0.00066750,0.00289024,0.06282257
 ,0.00030055,-0.00003042,0.00020039,0.00008949,-0.00005671,0.00007699,-
 0.00063704,0.00028643,0.00016688,-0.00017263,0.00003209,0.00014625,0.0
 0076828,-0.00134991,-0.01480371,-0.00203007,-0.00106293,-0.00016310,0.
 00216186,-0.00001478,-0.00852641,0.00072836,-0.00085144,0.00039172,0.0
 0035866,-0.00032912,-0.00001356,-0.00131674,0.00006348,0.00072226,0.00
 059564,0.00014422,0.00079028,0.00009683,0.00006790,-0.00003660,-0.0000
 1556,-0.00029387,0.00016864,-0.00012053,0.00009620,0.00004036,0.000007
 90,0.00000387,0.00001651,-0.00005178,-0.00002488,0.00002220,0.00000066
 ,-0.00002458,-0.00000367,0.00067329,0.00091868,0.00071312,-0.00043120,
 -0.00072342,0.00077146,-0.00001527,0.00008169,0.00050565,0.00001078,-0
 .00023487,-0.00008588,0.00000235,0.00003261,0.00001630,-0.00002770,0.0
 0000210,0.00000951,0.00002065,-0.00000106,0.00001477,-0.00000427,-0.00
 002443,-0.00003416,0.01304866,0.01135938,-0.29772935,-0.01570521,-0.01
 438916,0.32416003,0.00055310,-0.00010515,-0.00000711,-0.00019188,-0.00
 112250,0.00036453,-0.00040565,-0.00015059,0.00052579,0.00039236,-0.000
 53594,0.00069518,0.00360733,-0.02173351,0.00796630,0.00013906,0.000027
 51,-0.00018427,-0.00928205,0.03106480,-0.00372301,0.00079098,0.0001913
 5,-0.00002305,-0.00361701,0.00131942,0.00193959,-0.00142391,-0.0009696
 6,-0.00081822,-0.00011494,0.00039501,-0.00000536,-0.00064313,0.0022260
 7,-0.00035405,0.00061638,0.00101291,-0.00023252,0.00001935,0.00001092,
 0.00001782,0.00000126,-0.00002443,-0.00000866,-0.00008316,0.00003082,0
 .00003007,0.00000005,-0.00000801,-0.00006842,-0.00335837,-0.00288582,-
 0.00360073,-0.00004966,0.00032021,-0.00001193,0.00001282,-0.00170991,0
 .00062481,0.00016979,-0.00023881,-0.00002817,-0.00027435,0.00001753,0.
 00019678,-0.00013449,0.00010078,0.00000426,-0.00004636,-0.00000689,-0.
 00001886,0.00004057,-0.00009878,0.00003972,-0.05630668,0.00381130,0.00
 864210,-0.00044890,0.00016710,0.00082410,0.16838208,0.00267746,-0.0000
 5058,0.00031186,-0.00104016,0.00041246,-0.00035176,-0.00045037,-0.0000
 2782,0.00056627,0.00025041,0.00037889,-0.00006555,-0.00364850,-0.03720
 162,0.01031825,0.00077121,0.00075205,-0.00088129,0.01816463,-0.0242931
 7,-0.00003937,-0.00078231,0.00052169,0.00071057,0.00103483,0.00019517,
 -0.00035792,-0.00196995,-0.00058407,0.00017903,0.00002421,-0.00002153,
 -0.00026075,0.00065085,0.00105484,0.00022852,-0.00022030,0.00049022,-0
 .00034457,0.00003517,-0.00006187,-0.00003054,0.00002183,-0.00000760,0.
 00001848,-0.00003987,0.00004373,-0.00000331,0.00000466,0.00001523,-0.0
 0008963,-0.00574022,-0.00150490,-0.00582096,0.00007743,0.00025132,0.00
 019431,-0.00005611,-0.00245871,0.00128336,0.00037881,0.00012449,-0.000
 00177,-0.00022036,-0.00009779,0.00020039,-0.00004639,0.00008240,-0.000
 02117,0.00002439,0.00004990,-0.00002997,0.00004887,0.00013770,-0.00006
 484,-0.02440867,-0.15276308,0.06100947,0.00545881,-0.02494955,0.009583
 66,-0.06319362,0.32315345,-0.00113808,0.00072148,-0.00040740,0.0004969
 9,-0.00152975,0.00083846,0.00002979,-0.00014726,-0.00001161,0.00021446
 ,-0.00077482,0.00017764,0.00122386,-0.00556005,0.00666756,0.00101043,0
 .00072434,0.00119379,0.00286822,-0.01433171,0.00326961,-0.00051154,-0.
 00109583,0.00054382,0.00317627,-0.00195834,-0.00047870,-0.00105569,-0.
 00023287,0.00019452,0.00025366,-0.00006115,0.00016382,-0.00013141,0.00
 079129,-0.00002563,0.00014439,0.00026700,0.00003883,-0.00006067,0.0001
 0828,-0.00005581,-0.00001951,-0.00003612,0.00000090,-0.00005215,-0.000
 00985,0.00003767,0.00001430,-0.00000855,0.00000493,-0.00033686,-0.0005
 4853,-0.00009951,-0.00043348,-0.00040322,0.00039637,0.00004066,0.00000
 560,0.00053066,0.00009208,-0.00015588,-0.00010902,-0.00013079,-0.00006
 472,0.00010038,-0.00006221,0.00005016,0.00001353,0.00000748,0.00005032
 ,-0.00003019,0.00000600,0.00001014,-0.00005722,0.02264712,0.02572128,-
 0.09710892,-0.00163409,0.04025501,-0.01077712,-0.10751402,-0.00723186,
 0.23048897,-0.00260399,-0.00072163,-0.00085204,-0.00061327,-0.00172469
 ,0.00078524,0.00075312,0.00028438,-0.00136100,0.00069146,-0.00100965,-
 0.00046551,-0.00081306,-0.00038844,-0.00012503,0.00032442,0.00007332,-
 0.00008247,0.00272223,0.00788597,-0.00139870,0.00076817,-0.00061810,-0
 .00053482,-0.00252226,0.00067363,0.00028914,0.00098161,0.00071557,0.00
 030254,-0.00018681,0.00011463,-0.00019982,0.00005843,-0.00033574,0.000
 29854,0.00010454,-0.00023069,-0.00008738,0.00000264,0.00006801,-0.0000
 1896,-0.00007550,-0.00006290,-0.00002931,-0.00005800,0.00001241,0.0000
 4189,0.00005955,0.00003969,-0.00001920,0.00015590,0.00016971,0.0002492
 3,-0.00006465,-0.00000598,-0.00009065,0.00017231,0.00021738,0.00003397
 ,0.00014317,-0.00032654,0.00004712,0.00002414,-0.00007063,0.00002279,-
 0.00005237,0.00002745,0.00003555,-0.00007561,0.00000856,-0.00006526,0.
 00004865,-0.00007549,0.00006229,-0.01456481,0.00826955,0.00788246,0.00
 119487,-0.00194011,0.00026769,-0.08324008,0.06602271,0.08216293,0.4454
 1413,-0.00256417,-0.00139150,0.00062470,-0.00037142,-0.00005293,-0.000
 18880,0.00029194,-0.00039051,-0.00166577,0.00014444,-0.00048033,-0.000
 94731,0.00110798,0.00028475,0.00095050,0.00009012,0.00001508,-0.000089
 14,-0.00331221,-0.00779434,0.00023881,0.00008696,-0.00007371,-0.000150
 92,0.00229651,0.00001297,-0.00039660,-0.00021259,-0.00044458,-0.000115
 18,0.00005154,0.00007046,0.00000638,0.00036631,0.00031839,0.00013904,-
 0.00001564,0.00023527,0.00017660,0.00005300,-0.00015199,0.00009482,0.0
 0009503,0.00007817,0.00002091,0.00003062,0.00003227,-0.00004883,-0.000
 03753,0.00000622,-0.00006201,-0.00002443,0.00035503,0.00009537,-0.0000
 1251,-0.00003794,0.00003167,-0.00012039,0.00000609,-0.00000635,0.00006
 406,0.00004831,-0.00004045,-0.00004914,0.00004663,-0.00002538,0.000026
 62,-0.00002197,-0.00002932,0.00004556,0.00000206,0.00004932,-0.0000348
 1,0.00008565,-0.00006569,0.02783977,-0.02024169,-0.03262312,0.00037365
 ,0.00301419,-0.00280162,0.03688675,-0.07523895,-0.04190474,-0.15656896
 ,0.12848939,-0.00016049,0.00032327,-0.00073269,-0.00060375,-0.00060623
 ,-0.00028080,-0.00051512,-0.00018490,0.00018420,0.00006849,-0.00011554
 ,0.00018736,0.00180602,-0.00154665,0.00053493,0.00004225,0.00036738,0.
 00015681,-0.00338967,0.00185126,0.00037365,-0.00061747,0.00048875,0.00
 052149,-0.00014587,0.00070579,0.00044793,0.00006476,0.00002287,0.00014
 850,0.00007393,0.00003871,0.00003297,0.00015090,0.00001589,-0.00009660
 ,0.00004393,0.00007659,0.00001705,-0.00001416,-0.00000014,0.00000690,0
 .00003290,0.00001704,0.00001244,0.00001511,-0.00000810,-0.00000592,-0.
 00001980,-0.00003280,0.00000676,-0.00038605,-0.00003682,-0.00011597,0.
 00001965,-0.00007274,0.00005578,-0.00012860,-0.00011056,0.00000107,-0.
 00003249,0.00006290,-0.00000688,-0.00002235,0.00002998,-0.00003110,0.0
 0000826,-0.00000855,-0.00000657,0.00000970,-0.00001121,0.00002550,-0.0
 0001896,-0.00001242,0.00000134,-0.00645224,-0.00627870,0.00307177,-0.0
 0171884,0.00174051,0.00315150,0.05646567,-0.04977370,-0.13972933,0.151
 26647,0.02759185,0.30656634,-0.00039296,-0.00074296,0.00034001,0.00057
 304,0.00027714,-0.00104187,-0.00000286,-0.00068858,0.00021251,-0.00028
 615,0.00017867,-0.00006660,0.00132570,-0.00009440,0.00028722,-0.000216
 24,0.00011112,-0.00002919,0.00010094,0.00036534,-0.00016942,-0.0000048
 3,0.00003274,0.00005156,-0.00002997,-0.00003180,0.00008700,0.00004750,
 0.00006788,0.00003179,-0.00000968,0.00000776,-0.00000921,-0.00003858,-
 0.00006362,-0.00000893,-0.00002729,-0.00001102,0.00000772,-0.00001153,
 0.00000099,-0.00001254,0.00000362,0.00000797,0.00000607,0.00001797,-0.
 00001025,-0.00000832,-0.00000499,-0.00001146,0.00002191,-0.00045345,0.
 00000109,-0.00008648,0.00006602,-0.00000651,0.00002273,-0.00005010,-0.
 00014097,-0.00000123,-0.00002308,0.00012293,-0.00004367,0.00001110,0.0
 0001410,-0.00001641,0.00001491,-0.00001186,-0.00000639,0.00001145,-0.0
 0000536,0.00001492,-0.00001014,-0.00000064,0.00000159,-0.00209331,0.00
 151683,-0.00007317,0.00000540,-0.00014634,0.00057227,-0.01510450,0.006
 17057,-0.00130813,-0.34874894,0.09347294,-0.19584217,0.36533094,0.0008
 9314,-0.00085944,0.00048436,-0.00050472,0.00030770,-0.00197965,-0.0009
 4299,-0.00121195,0.00083200,-0.00024310,0.00118055,0.00025680,0.000851
 96,-0.00034412,-0.00026734,-0.00027446,0.00010383,0.00011054,-0.000161
 98,-0.00181402,-0.00003105,-0.00007852,0.00007751,0.00001233,0.0005036
 0,-0.00021814,-0.00014737,-0.00023835,0.00003306,0.00001984,0.00001235
 ,-0.00003024,0.00003786,0.00002369,0.00000359,-0.00005074,0.00000944,0
 .00000088,-0.00002918,-0.00001372,0.00003968,-0.00001715,-0.00002201,-
 0.00001728,-0.00001128,-0.00000853,-0.00000943,0.00001284,0.00001367,0
 .00000020,0.00001543,-0.00028177,0.00003399,0.00004062,0.00004090,-0.0
 0003156,0.00001265,-0.00000107,-0.00005046,-0.00000051,-0.00012691,0.0
 0024801,-0.00006929,-0.00000844,-0.00000350,0.00001777,-0.00000751,0.0
 0000961,0.00000510,-0.00000491,0.00000320,-0.00001272,-0.00000359,-0.0
 0001430,0.00000275,0.00628359,-0.00173352,-0.00105656,-0.00002512,0.00
 017561,-0.00045912,0.01520112,-0.00840230,0.00735038,0.07949657,-0.026
 78049,0.02546629,-0.10038230,0.03930332,-0.00007489,-0.00177896,0.0020
 7114,-0.00061394,0.00024012,-0.00126792,0.00031474,0.00041771,-0.00065
 829,-0.00005951,0.00040361,-0.00068572,0.00026389,0.00026057,0.0000285
 9,0.00012710,-0.00009229,-0.00001869,-0.00023314,-0.00183692,0.0005222
 6,-0.00016118,0.00011850,0.00008721,0.00060334,-0.00027137,-0.00008044
 ,-0.00014164,-0.00011264,-0.00012577,0.00003544,-0.00007748,0.00005964
 ,-0.00007992,0.00004677,-0.00013003,-0.00002560,0.00002024,0.00005604,
 0.00000261,-0.00001999,0.00001133,0.00001446,0.00001147,0.00000232,0.0
 0000803,0.00000213,-0.00000616,-0.00001249,0.00000008,-0.00000420,-0.0
 0031110,0.00000688,-0.00001619,0.00000157,0.00002104,-0.00003686,-0.00
 003102,-0.00008439,0.00000138,-0.00002087,0.00012987,-0.00006836,0.000
 00332,0.00000603,-0.00000004,0.00000953,-0.00000400,-0.00000433,0.0000
 1350,0.00000030,0.00000634,-0.00000514,0.00002328,-0.00001571,0.003645
 34,0.00173752,-0.00181069,-0.00018275,-0.00052850,0.00008873,0.0382616
 7,-0.01923522,0.00422901,-0.23841770,0.05114124,-0.17449842,0.19706639
 ,-0.03054560,0.17226384\\0.00000007,0.00000177,-0.00000035,0.00000053,
 0.00000222,0.00000050,0.00000014,0.00000099,-0.00000012,-0.00000010,0.
 00000240,-0.00000079,-0.00000020,0.00000127,-0.00000065,-0.00000008,0.
 00000193,-0.00000071,0.00000024,0.00000020,-0.00000010,0.00000021,0.00
 000079,0.00000022,-0.00000045,0.00000001,-0.00000085,0.00000028,-0.000
 00088,0.00000064,-0.00000012,-0.00000170,0.00000027,0.00000063,-0.0000
 0093,0.00000142,0.00000002,-0.00000130,0.00000015,0.00000044,-0.000001
 10,0.00000135,0.00000070,-0.00000174,0.00000180,0.00000035,-0.00000078
 ,0.00000106,0.00000087,-0.00000013,0.00000167,-0.00000084,0.00000079,-
 0.00000165,-0.00000086,0.00000011,-0.00000167,-0.00000098,0.00000145,-
 0.00000224,-0.00000098,0.00000042,-0.00000198,-0.00000049,-0.00000149,
 -0.00000072,-0.00000058,-0.00000135,-0.00000065,-0.00000059,-0.0000028
 6,-0.00000019,-0.00000089,-0.00000159,-0.00000108,0.00000014,0.0000003
 7,0.00000013,0.,-0.00000050,0.00000007,0.00000075,0.00000062,0.0000011
 8,0.00000078,0.00000019,0.00000163,0.00000100,0.00000081,0.00000165\\\
 @
 Job cpu time:  0 days  7 hours 28 minutes  1.3 seconds.
 File lengths (MBytes):  RWF=  72689 Int=      0 D2E=      0 Chk=     32 Scr=      1
 Normal termination of Gaussian 09 at Sun Feb  9 17:38:16 2014.
