 Entering Gaussian System, Link 0=g09
 Initial command:
 /usr/caen/gaussian-09revc/g09/l1.exe /scratch/avioli_flux/hetanjin/scratch/Gau-21922.inp -scrdir=/scratch/avioli_flux/hetanjin/scratch/
 Entering Link 1 = /usr/caen/gaussian-09revc/g09/l1.exe PID=     21923.
  
 Copyright (c) 1988,1990,1992,1993,1995,1998,2003,2009,2011,
            Gaussian, Inc.  All Rights Reserved.
  
 This is part of the Gaussian(R) 09 program.  It is based on
 the Gaussian(R) 03 system (copyright 2003, Gaussian, Inc.),
 the Gaussian(R) 98 system (copyright 1998, Gaussian, Inc.),
 the Gaussian(R) 94 system (copyright 1995, Gaussian, Inc.),
 the Gaussian 92(TM) system (copyright 1992, Gaussian, Inc.),
 the Gaussian 90(TM) system (copyright 1990, Gaussian, Inc.),
 the Gaussian 88(TM) system (copyright 1988, Gaussian, Inc.),
 the Gaussian 86(TM) system (copyright 1986, Carnegie Mellon
 University), and the Gaussian 82(TM) system (copyright 1983,
 Carnegie Mellon University). Gaussian is a federally registered
 trademark of Gaussian, Inc.
  
 This software contains proprietary and confidential information,
 including trade secrets, belonging to Gaussian, Inc.
  
 This software is provided under written license and may be
 used, copied, transmitted, or stored only in accord with that
 written license.
  
 The following legend is applicable only to US Government
 contracts under FAR:
  
                    RESTRICTED RIGHTS LEGEND
  
 Use, reproduction and disclosure by the US Government is
 subject to restrictions as set forth in subparagraphs (a)
 and (c) of the Commercial Computer Software - Restricted
 Rights clause in FAR 52.227-19.
  
 Gaussian, Inc.
 340 Quinnipiac St., Bldg. 40, Wallingford CT 06492
  
  
 ---------------------------------------------------------------
 Warning -- This program may not be used in any manner that
 competes with the business of Gaussian, Inc. or will provide
 assistance to any competitor of Gaussian, Inc.  The licensee
 of this program is prohibited from giving any competitor of
 Gaussian, Inc. access to this program.  By using this program,
 the user acknowledges that Gaussian, Inc. is engaged in the
 business of creating and licensing software in the field of
 computational chemistry and represents and warrants to the
 licensee that it is not a competitor of Gaussian, Inc. and that
 it will not use this program in any manner prohibited above.
 ---------------------------------------------------------------
  

 Cite this work as:
 Gaussian 09, Revision C.01,
 M. J. Frisch, G. W. Trucks, H. B. Schlegel, G. E. Scuseria, 
 M. A. Robb, J. R. Cheeseman, G. Scalmani, V. Barone, B. Mennucci, 
 G. A. Petersson, H. Nakatsuji, M. Caricato, X. Li, H. P. Hratchian, 
 A. F. Izmaylov, J. Bloino, G. Zheng, J. L. Sonnenberg, M. Hada, 
 M. Ehara, K. Toyota, R. Fukuda, J. Hasegawa, M. Ishida, T. Nakajima, 
 Y. Honda, O. Kitao, H. Nakai, T. Vreven, J. A. Montgomery, Jr., 
 J. E. Peralta, F. Ogliaro, M. Bearpark, J. J. Heyd, E. Brothers, 
 K. N. Kudin, V. N. Staroverov, T. Keith, R. Kobayashi, J. Normand, 
 K. Raghavachari, A. Rendell, J. C. Burant, S. S. Iyengar, J. Tomasi, 
 M. Cossi, N. Rega, J. M. Millam, M. Klene, J. E. Knox, J. B. Cross, 
 V. Bakken, C. Adamo, J. Jaramillo, R. Gomperts, R. E. Stratmann, 
 O. Yazyev, A. J. Austin, R. Cammi, C. Pomelli, J. W. Ochterski, 
 R. L. Martin, K. Morokuma, V. G. Zakrzewski, G. A. Voth, 
 P. Salvador, J. J. Dannenberg, S. Dapprich, A. D. Daniels, 
 O. Farkas, J. B. Foresman, J. V. Ortiz, J. Cioslowski, 
 and D. J. Fox, Gaussian, Inc., Wallingford CT, 2010.
 
 ******************************************
 Gaussian 09:  EM64L-G09RevC.01 23-Sep-2011
                 8-Feb-2014 
 ******************************************
 %mem=30GB
 %nprocshared=8
 Will use up to    8 processors via shared memory.
 %chk=C9H18OOH_2_26_f.chk
 --------------------------------------------------
 #p UB3LYP/6-311++G(d,p) guess=mix stable=(opt,xqc)
 --------------------------------------------------
 1/38=1/1;
 2/12=2,17=6,18=5,40=1/2;
 3/5=4,6=6,7=1111,11=2,16=1,25=1,30=1,74=-5,116=2/1,2,3;
 4/13=-1/1;
 5/5=2,38=5/2;
 6/7=2,8=2,9=2,10=2,28=1/1;
 8/6=1,10=90,11=11/1;
 9/8=-3,42=1,46=1/14;
 5/5=2,8=3,13=1,17=40,38=5/2,8(-2);
 6/7=2,8=2,9=2,10=2,28=1/1;
 99/5=1,9=1/99;
 Leave Link    1 at Sat Feb  8 14:48:32 2014, MaxMem= 4026531840 cpu:       1.2
 (Enter /usr/caen/gaussian-09revc/g09/l101.exe)
 --------------------------------------------
 C9H18OOH_2_26_f using cbs-qb3 to cal. energy
 --------------------------------------------
 Charge =  0 Multiplicity = 2
 Symbolic Z-Matrix:
 C                     3.2791    0.36407   0.96808 
 H                     3.26064  -0.52656   1.59881 
 H                     3.25492   1.24085   1.62063 
 H                     4.21809   0.38094   0.40806 
 C                     0.7586    0.288     0.79276 
 H                     0.8074   -0.60688   1.42082 
 H                     0.71651   1.14344   1.47811 
 C                    -0.51834   0.23608  -0.05308 
 H                    -0.42766  -0.55644  -0.80096 
 H                    -0.65112   1.17353  -0.60289 
 C                    -1.77841  -0.01931   0.80815 
 H                    -1.82802   0.75852   1.58607 
 H                    -1.64851  -0.97254   1.33467 
 C                    -3.05746  -0.03798   0.02223 
 C                    -3.78481  -1.32611  -0.19301 
 H                    -4.44983  -1.57132   0.65498 
 H                    -4.42116  -1.29183  -1.08384 
 H                    -3.09504  -2.16933  -0.30038 
 C                     2.14433   1.59909  -0.9159 
 H                     2.0072    2.51195  -0.33082 
 H                     3.11334   1.65198  -1.41703 
 H                     1.36556   1.55423  -1.67799 
 C                    -3.75706   1.25175  -0.26773 
 H                    -4.3425    1.20165  -1.19235 
 H                    -4.46634   1.52271   0.53512 
 H                    -3.05537   2.08706  -0.3576 
 C                     2.08346   0.38057   0.01084 
 O                     2.18858  -0.71233  -0.94276 
 O                     2.11826  -1.98543  -0.23506 
 H                     2.97062  -2.36691  -0.48477 
 
 NAtoms=     30 NQM=        0 NQMF=       0 NMMI=     30 NMMIF=      0
                NMic=       0 NMicF=      0.
                    Isotopes and Nuclear Properties:
 (Nuclear quadrupole moments (NQMom) in fm**2, nuclear magnetic moments (NMagM)
  in nuclear magnetons)

  Atom         1           2           3           4           5           6           7           8           9          10
 IAtWgt=          12           1           1           1          12           1           1          12           1           1
 AtmWgt=  12.0000000   1.0078250   1.0078250   1.0078250  12.0000000   1.0078250   1.0078250  12.0000000   1.0078250   1.0078250
 NucSpn=           0           1           1           1           0           1           1           0           1           1
 AtZEff=   0.0000000   0.0000000   0.0000000   0.0000000   0.0000000   0.0000000   0.0000000   0.0000000   0.0000000   0.0000000
 NQMom=    0.0000000   0.0000000   0.0000000   0.0000000   0.0000000   0.0000000   0.0000000   0.0000000   0.0000000   0.0000000
 NMagM=    0.0000000   2.7928460   2.7928460   2.7928460   0.0000000   2.7928460   2.7928460   0.0000000   2.7928460   2.7928460

  Atom        11          12          13          14          15          16          17          18          19          20
 IAtWgt=          12           1           1          12          12           1           1           1          12           1
 AtmWgt=  12.0000000   1.0078250   1.0078250  12.0000000  12.0000000   1.0078250   1.0078250   1.0078250  12.0000000   1.0078250
 NucSpn=           0           1           1           0           0           1           1           1           0           1
 AtZEff=   0.0000000   0.0000000   0.0000000   0.0000000   0.0000000   0.0000000   0.0000000   0.0000000   0.0000000   0.0000000
 NQMom=    0.0000000   0.0000000   0.0000000   0.0000000   0.0000000   0.0000000   0.0000000   0.0000000   0.0000000   0.0000000
 NMagM=    0.0000000   2.7928460   2.7928460   0.0000000   0.0000000   2.7928460   2.7928460   2.7928460   0.0000000   2.7928460

  Atom        21          22          23          24          25          26          27          28          29          30
 IAtWgt=           1           1          12           1           1           1          12          16          16           1
 AtmWgt=   1.0078250   1.0078250  12.0000000   1.0078250   1.0078250   1.0078250  12.0000000  15.9949146  15.9949146   1.0078250
 NucSpn=           1           1           0           1           1           1           0           0           0           1
 AtZEff=   0.0000000   0.0000000   0.0000000   0.0000000   0.0000000   0.0000000   0.0000000   0.0000000   0.0000000   0.0000000
 NQMom=    0.0000000   0.0000000   0.0000000   0.0000000   0.0000000   0.0000000   0.0000000   0.0000000   0.0000000   0.0000000
 NMagM=    2.7928460   2.7928460   0.0000000   2.7928460   2.7928460   2.7928460   0.0000000   0.0000000   0.0000000   2.7928460
 Leave Link  101 at Sat Feb  8 14:48:32 2014, MaxMem= 4026531840 cpu:       0.5
 (Enter /usr/caen/gaussian-09revc/g09/l202.exe)
                          Input orientation:                          
 ---------------------------------------------------------------------
 Center     Atomic      Atomic             Coordinates (Angstroms)
 Number     Number       Type             X           Y           Z
 ---------------------------------------------------------------------
      1          6           0        3.279102    0.364067    0.968075
      2          1           0        3.260635   -0.526559    1.598808
      3          1           0        3.254922    1.240849    1.620628
      4          1           0        4.218086    0.380944    0.408055
      5          6           0        0.758596    0.287996    0.792755
      6          1           0        0.807402   -0.606882    1.420816
      7          1           0        0.716511    1.143440    1.478109
      8          6           0       -0.518339    0.236081   -0.053082
      9          1           0       -0.427658   -0.556443   -0.800963
     10          1           0       -0.651122    1.173527   -0.602891
     11          6           0       -1.778408   -0.019309    0.808146
     12          1           0       -1.828020    0.758519    1.586073
     13          1           0       -1.648514   -0.972536    1.334669
     14          6           0       -3.057457   -0.037975    0.022226
     15          6           0       -3.784805   -1.326111   -0.193005
     16          1           0       -4.449826   -1.571324    0.654984
     17          1           0       -4.421158   -1.291827   -1.083840
     18          1           0       -3.095045   -2.169328   -0.300378
     19          6           0        2.144330    1.599092   -0.915902
     20          1           0        2.007198    2.511951   -0.330817
     21          1           0        3.113342    1.651975   -1.417033
     22          1           0        1.365556    1.554231   -1.677989
     23          6           0       -3.757061    1.251753   -0.267732
     24          1           0       -4.342497    1.201650   -1.192346
     25          1           0       -4.466337    1.522714    0.535119
     26          1           0       -3.055367    2.087062   -0.357602
     27          6           0        2.083457    0.380565    0.010838
     28          8           0        2.188584   -0.712325   -0.942757
     29          8           0        2.118263   -1.985426   -0.235061
     30          1           0        2.970621   -2.366908   -0.484771
 ---------------------------------------------------------------------
                    Distance matrix (angstroms):
                    1          2          3          4          5
     1  C    0.000000
     2  H    1.091503   0.000000
     3  H    1.093232   1.767552   0.000000
     4  H    1.093434   1.777123   1.771286   0.000000
     5  C    2.527741   2.751985   2.797311   3.482055   0.000000
     6  H    2.693885   2.460993   3.073172   3.692459   1.094372
     7  H    2.726615   3.045658   2.544274   3.739979   1.096935
     8  C    3.934425   4.194163   4.248336   4.761025   1.532546
     9  H    4.209145   4.400375   4.759806   4.891151   2.158753
    10  H    4.309271   4.799960   4.495081   5.035810   2.172394
    11  C    5.074541   5.125856   5.251908   6.023140   2.555594
    12  H    5.159478   5.248428   5.105892   6.171360   2.746148
    13  H    5.118818   4.936437   5.387442   6.091594   2.770702
    14  C    6.419365   6.530131   6.635993   7.297800   3.906691
    15  C    7.355514   7.313556   7.709494   8.204973   4.921337
    16  H    7.973713   7.837956   8.258567   8.888477   5.532062
    17  H    8.139186   8.172648   8.523544   8.925270   5.731256
    18  H    6.975444   6.833759   7.459333   7.777381   4.699354
    19  C    2.522373   3.476823   2.792085   2.745398   2.561004
    20  H    2.813941   3.811443   2.642093   3.158346   2.787005
    21  H    2.715681   3.723305   3.068624   2.483329   3.505486
    22  H    3.475601   4.319538   3.814287   3.723588   2.841888
    23  C    7.198805   7.476257   7.261813   8.050961   4.737575
    24  H    7.966036   8.281598   8.101551   8.747481   5.549463
    25  H    7.843579   8.064555   7.802283   8.760079   5.375019
    26  H    6.697136   7.109883   6.667025   7.510006   4.371072
    27  C    1.531712   2.174919   2.168834   2.171272   1.541175
    28  O    2.449312   2.764662   3.394541   2.671855   2.461201
    29  O    2.883609   2.606987   3.891584   3.228399   2.841399
    30  H    3.108721   2.795048   4.186818   3.147062   3.684242
                    6          7          8          9         10
     6  H    0.000000
     7  H    1.753616   0.000000
     8  C    2.154194   2.166264   0.000000
     9  H    2.542483   3.064783   1.093455   0.000000
    10  H    3.064725   2.490359   1.094864   1.755553   0.000000
    11  C    2.721584   2.832924   1.547486   2.168472   2.164407
    12  H    2.972722   2.575744   2.162183   3.063997   2.519699
    13  H    2.484481   3.176676   2.159607   2.494904   3.058515
    14  C    4.149319   4.214045   2.554975   2.803978   2.765675
    15  C    4.920373   5.399366   3.623510   3.497490   4.029413
    16  H    5.399546   5.893939   4.384594   4.396317   4.852485
    17  H    5.837833   6.236165   4.316128   4.070485   4.530171
    18  H    4.542338   5.354008   3.533633   3.157046   4.151982
    19  C    3.480510   2.824460   3.113208   3.357777   2.844931
    20  H    3.772910   2.609772   3.411020   3.945200   2.988657
    21  H    4.298044   3.792790   4.129676   4.218452   3.881099
    22  H    3.818971   3.248225   2.815476   2.905122   2.316843
    23  C    5.209610   4.803388   3.401027   3.826073   3.124949
    24  H    6.051517   5.720864   4.105415   4.309296   3.738248
    25  H    5.756037   5.281571   4.193816   4.734864   3.996607
    26  H    5.033993   4.299688   3.155214   3.753604   2.583623
    27  C    2.142757   2.145554   2.606589   2.800483   2.912623
    28  O    2.739573   3.386954   3.003070   2.624715   3.425767
    29  O    2.522037   3.832710   3.452518   2.973878   4.217081
    30  H    3.377643   4.610472   4.374328   3.863426   5.066128
                   11         12         13         14         15
    11  C    0.000000
    12  H    1.101203   0.000000
    13  H    1.096695   1.758402   0.000000
    14  C    1.501328   2.142787   2.140334   0.000000
    15  C    2.595316   3.367463   2.650008   1.494876   0.000000
    16  H    3.093329   3.628906   2.944124   2.165695   1.105200
    17  H    3.490421   4.249320   3.693059   2.157593   1.095312
    18  H    2.754077   3.706257   2.489607   2.155957   1.094675
    19  C    4.580332   4.769277   5.105292   5.533413   6.650867
    20  H    4.694180   4.632266   5.317868   5.681328   6.949605
    21  H    5.627951   5.850980   6.093865   6.557908   7.612600
    22  H    4.305973   4.635319   4.954319   4.998889   6.085044
    23  C    2.586152   2.720491   3.458485   1.495634   2.579096
    24  H    3.473796   3.773403   4.286074   2.159440   2.774757
    25  H    3.110842   2.940955   3.847815   2.164198   3.018353
    26  H    2.725141   2.655048   3.768840   2.158716   3.494127
    27  C    3.963534   4.233659   4.184617   5.157936   6.114801
    28  O    4.391237   4.969051   4.469642   5.376512   6.051466
    29  O    4.487532   5.139933   4.204594   5.535959   5.939922
    30  H    5.453085   6.089634   5.156650   6.482183   6.841357
                   16         17         18         19         20
    16  H    0.000000
    17  H    1.761377   0.000000
    18  H    1.762316   1.772681   0.000000
    19  C    7.483456   7.175740   6.483125   0.000000
    20  H    7.703123   7.507299   6.924463   1.092905   0.000000
    21  H    8.478468   8.096029   7.375184   1.092206   1.772845
    22  H    7.002180   6.476042   5.971571   1.090540   1.773078
    23  C    3.049769   2.752609   3.484699   5.947032   5.900742
    24  H    3.333697   2.497076   3.703409   6.504868   6.540470
    25  H    3.096403   3.247262   4.026124   6.768472   6.605686
    26  H    4.043963   3.716140   4.256960   5.252301   5.080434
    27  C    6.848984   6.804795   5.780631   1.532110   2.159942
    28  O    6.881798   6.636597   5.518355   2.311997   3.286842
    29  O    6.641043   6.630651   5.216960   3.648697   4.499767
    30  H    7.549505   7.493536   6.071684   4.074038   4.975455
                   21         22         23         24         25
    21  H    0.000000
    22  H    1.769861   0.000000
    23  C    6.977357   5.321797   0.000000
    24  H    7.472805   5.739515   1.095517   0.000000
    25  H    7.828099   6.237773   1.105017   1.761407   0.000000
    26  H    6.274127   4.644555   1.094620   1.771286   1.762463
    27  C    2.171627   2.178304   5.911702   6.588985   6.669271
    28  O    2.582640   2.520956   6.297933   6.810331   7.174085
    29  O    3.951952   3.895867   6.708191   7.267411   7.500479
    30  H    4.128063   4.401742   7.642219   8.168045   8.454447
                   26         27         28         29         30
    26  H    0.000000
    27  C    5.427282   0.000000
    28  O    5.973106   1.454236   0.000000
    29  O    6.585334   2.378990   1.458275   0.000000
    30  H    7.494435   2.929385   1.886525   0.966643   0.000000
 Stoichiometry    C9H19O2(2)
 Framework group  C1[X(C9H19O2)]
 Deg. of freedom    84
 Full point group                 C1      NOp   1
 Largest Abelian subgroup         C1      NOp   1
 Largest concise Abelian subgroup C1      NOp   1
                         Standard orientation:                         
 ---------------------------------------------------------------------
 Center     Atomic      Atomic             Coordinates (Angstroms)
 Number     Number       Type             X           Y           Z
 ---------------------------------------------------------------------
      1          6           0       -3.279102   -0.364067    0.968075
      2          1           0       -3.260635    0.526559    1.598808
      3          1           0       -3.254922   -1.240849    1.620628
      4          1           0       -4.218086   -0.380944    0.408055
      5          6           0       -0.758596   -0.287996    0.792755
      6          1           0       -0.807402    0.606882    1.420816
      7          1           0       -0.716511   -1.143440    1.478109
      8          6           0        0.518339   -0.236081   -0.053082
      9          1           0        0.427658    0.556443   -0.800963
     10          1           0        0.651122   -1.173527   -0.602891
     11          6           0        1.778408    0.019309    0.808146
     12          1           0        1.828020   -0.758519    1.586073
     13          1           0        1.648514    0.972536    1.334669
     14          6           0        3.057457    0.037975    0.022226
     15          6           0        3.784805    1.326111   -0.193005
     16          1           0        4.449826    1.571324    0.654984
     17          1           0        4.421158    1.291827   -1.083840
     18          1           0        3.095045    2.169328   -0.300378
     19          6           0       -2.144330   -1.599092   -0.915902
     20          1           0       -2.007198   -2.511951   -0.330817
     21          1           0       -3.113342   -1.651975   -1.417033
     22          1           0       -1.365556   -1.554231   -1.677989
     23          6           0        3.757061   -1.251753   -0.267732
     24          1           0        4.342497   -1.201650   -1.192346
     25          1           0        4.466337   -1.522714    0.535119
     26          1           0        3.055367   -2.087062   -0.357602
     27          6           0       -2.083457   -0.380565    0.010838
     28          8           0       -2.188584    0.712325   -0.942757
     29          8           0       -2.118263    1.985426   -0.235061
     30          1           0       -2.970621    2.366908   -0.484771
 ---------------------------------------------------------------------
 Rotational constants (GHZ):      1.9110003      0.4462625      0.4064068
 Leave Link  202 at Sat Feb  8 14:48:33 2014, MaxMem= 4026531840 cpu:       0.7
 (Enter /usr/caen/gaussian-09revc/g09/l301.exe)
 Standard basis: 6-311++G(d,p) (5D, 7F)
 Ernie: Thresh=  0.10000D-02 Tol=  0.10000D-05 Strict=F.
 There are   375 symmetry adapted basis functions of A   symmetry.
 Integral buffers will be    131072 words long.
 Raffenetti 2 integral format.
 Two-electron integral symmetry is turned on.
   375 basis functions,   567 primitive gaussians,   386 cartesian basis functions
    45 alpha electrons       44 beta electrons
       nuclear repulsion energy       657.5808445841 Hartrees.
 IExCor=  402 DFT=T Ex+Corr=B3LYP ExCW=0 ScaHFX=  0.200000
 ScaDFX=  0.800000  0.720000  1.000000  0.810000 ScalE2=  1.000000  1.000000
 IRadAn=      0 IRanWt=     -1 IRanGd=            0 ICorTp=0
 NAtoms=   30 NActive=   30 NUniq=   30 SFac= 1.00D+00 NAtFMM=   60 NAOKFM=F Big=F
 Leave Link  301 at Sat Feb  8 14:48:33 2014, MaxMem= 4026531840 cpu:       0.9
 (Enter /usr/caen/gaussian-09revc/g09/l302.exe)
 NPDir=0 NMtPBC=     1 NCelOv=     1 NCel=       1 NClECP=     1 NCelD=      1
         NCelK=      1 NCelE2=     1 NClLst=     1 CellRange=     0.0.
 One-electron integrals computed using PRISM.
 NBasis=   375 RedAO= T  NBF=   375
 NBsUse=   375 1.00D-06 NBFU=   375
 Precomputing XC quadrature grid using
 IXCGrd= 2 IRadAn=           0 IRanWt=          -1 IRanGd=           0 AccXCQ= 0.00D+00.
 NRdTot=    1960 NPtTot=      250122 NUsed=      264245 NTot=      264277
 NSgBfM=   386   386   386   386   386 NAtAll=    30    30.
 Leave Link  302 at Sat Feb  8 14:48:35 2014, MaxMem= 4026531840 cpu:      11.9
 (Enter /usr/caen/gaussian-09revc/g09/l303.exe)
 DipDrv:  MaxL=1.
 Leave Link  303 at Sat Feb  8 14:48:36 2014, MaxMem= 4026531840 cpu:       3.0
 (Enter /usr/caen/gaussian-09revc/g09/l401.exe)
 Harris functional with IExCor=  402 diagonalized for initial guess.
 ExpMin= 3.60D-02 ExpMax= 8.59D+03 ExpMxC= 1.30D+03 IAcc=3 IRadAn=         5 AccDes= 0.00D+00
 HarFok:  IExCor=  402 AccDes= 0.00D+00 IRadAn=         5 IDoV= 1
 ScaDFX=  1.000000  1.000000  1.000000  1.000000
 FoFCou: FMM=F IPFlag=           0 FMFlag=      100000 FMFlg1=           0
         NFxFlg=           0 DoJE=T BraDBF=F KetDBF=T FulRan=T
         Omega=  0.000000  0.000000  1.000000  0.000000  0.000000 ICntrl=     500 IOpCl=  0
         NMat0=    1 NMatS0=    1 NMatT0=    0 NMatD0=    1 NMtDS0=    0 NMtDT0=    0
         I1Cent=           4 NGrid=           0.
 Petite list used in FoFCou.
 Harris En= -504.934401340788    
 Mixing orbitals, IMix= 1 IMixAn=  0 NRI=1 NE=   45 Coef=  7.07106781D-01  7.07106781D-01
 Mixing orbitals, IMix= 1 IMixAn=  0 NRI=1 NE=   44 Coef= -7.07106781D-01  7.07106781D-01
 Initial guess orbital symmetries:
 Alpha Orbitals:
       Occupied  (A) (A) (A) (A) (A) (A) (A) (A) (A) (A) (A) (A)
                 (A) (A) (A) (A) (A) (A) (A) (A) (A) (A) (A) (A)
                 (A) (A) (A) (A) (A) (A) (A) (A) (A) (A) (A) (A)
                 (A) (A) (A) (A) (A) (A) (A) (A) (A)
       Virtual   (A) (A) (A) (A) (A) (A) (A) (A) (A) (A) (A) (A)
                 (A) (A) (A) (A) (A) (A) (A) (A) (A) (A) (A) (A)
                 (A) (A) (A) (A) (A) (A) (A) (A) (A) (A) (A) (A)
                 (A) (A) (A) (A) (A) (A) (A) (A) (A) (A) (A) (A)
                 (A) (A) (A) (A) (A) (A) (A) (A) (A) (A) (A) (A)
                 (A) (A) (A) (A) (A) (A) (A) (A) (A) (A) (A) (A)
                 (A) (A) (A) (A) (A) (A) (A) (A) (A) (A) (A) (A)
                 (A) (A) (A) (A) (A) (A) (A) (A) (A) (A) (A) (A)
                 (A) (A) (A) (A) (A) (A) (A) (A) (A) (A) (A) (A)
                 (A) (A) (A) (A) (A) (A) (A) (A) (A) (A) (A) (A)
                 (A) (A) (A) (A) (A) (A) (A) (A) (A) (A) (A) (A)
                 (A) (A) (A) (A) (A) (A) (A) (A) (A) (A) (A) (A)
                 (A) (A) (A) (A) (A) (A) (A) (A) (A) (A) (A) (A)
                 (A) (A) (A) (A) (A) (A) (A) (A) (A) (A) (A) (A)
                 (A) (A) (A) (A) (A) (A) (A) (A) (A) (A) (A) (A)
                 (A) (A) (A) (A) (A) (A) (A) (A) (A) (A) (A) (A)
                 (A) (A) (A) (A) (A) (A) (A) (A) (A) (A) (A) (A)
                 (A) (A) (A) (A) (A) (A) (A) (A) (A) (A) (A) (A)
                 (A) (A) (A) (A) (A) (A) (A) (A) (A) (A) (A) (A)
                 (A) (A) (A) (A) (A) (A) (A) (A) (A) (A) (A) (A)
                 (A) (A) (A) (A) (A) (A) (A) (A) (A) (A) (A) (A)
                 (A) (A) (A) (A) (A) (A) (A) (A) (A) (A) (A) (A)
                 (A) (A) (A) (A) (A) (A) (A) (A) (A) (A) (A) (A)
                 (A) (A) (A) (A) (A) (A) (A) (A) (A) (A) (A) (A)
                 (A) (A) (A) (A) (A) (A) (A) (A) (A) (A) (A) (A)
                 (A) (A) (A) (A) (A) (A) (A) (A) (A) (A) (A) (A)
                 (A) (A) (A) (A) (A) (A) (A) (A) (A) (A) (A) (A)
                 (A) (A) (A) (A) (A) (A)
 Beta  Orbitals:
       Occupied  (A) (A) (A) (A) (A) (A) (A) (A) (A) (A) (A) (A)
                 (A) (A) (A) (A) (A) (A) (A) (A) (A) (A) (A) (A)
                 (A) (A) (A) (A) (A) (A) (A) (A) (A) (A) (A) (A)
                 (A) (A) (A) (A) (A) (A) (A) (A)
       Virtual   (A) (A) (A) (A) (A) (A) (A) (A) (A) (A) (A) (A)
                 (A) (A) (A) (A) (A) (A) (A) (A) (A) (A) (A) (A)
                 (A) (A) (A) (A) (A) (A) (A) (A) (A) (A) (A) (A)
                 (A) (A) (A) (A) (A) (A) (A) (A) (A) (A) (A) (A)
                 (A) (A) (A) (A) (A) (A) (A) (A) (A) (A) (A) (A)
                 (A) (A) (A) (A) (A) (A) (A) (A) (A) (A) (A) (A)
                 (A) (A) (A) (A) (A) (A) (A) (A) (A) (A) (A) (A)
                 (A) (A) (A) (A) (A) (A) (A) (A) (A) (A) (A) (A)
                 (A) (A) (A) (A) (A) (A) (A) (A) (A) (A) (A) (A)
                 (A) (A) (A) (A) (A) (A) (A) (A) (A) (A) (A) (A)
                 (A) (A) (A) (A) (A) (A) (A) (A) (A) (A) (A) (A)
                 (A) (A) (A) (A) (A) (A) (A) (A) (A) (A) (A) (A)
                 (A) (A) (A) (A) (A) (A) (A) (A) (A) (A) (A) (A)
                 (A) (A) (A) (A) (A) (A) (A) (A) (A) (A) (A) (A)
                 (A) (A) (A) (A) (A) (A) (A) (A) (A) (A) (A) (A)
                 (A) (A) (A) (A) (A) (A) (A) (A) (A) (A) (A) (A)
                 (A) (A) (A) (A) (A) (A) (A) (A) (A) (A) (A) (A)
                 (A) (A) (A) (A) (A) (A) (A) (A) (A) (A) (A) (A)
                 (A) (A) (A) (A) (A) (A) (A) (A) (A) (A) (A) (A)
                 (A) (A) (A) (A) (A) (A) (A) (A) (A) (A) (A) (A)
                 (A) (A) (A) (A) (A) (A) (A) (A) (A) (A) (A) (A)
                 (A) (A) (A) (A) (A) (A) (A) (A) (A) (A) (A) (A)
                 (A) (A) (A) (A) (A) (A) (A) (A) (A) (A) (A) (A)
                 (A) (A) (A) (A) (A) (A) (A) (A) (A) (A) (A) (A)
                 (A) (A) (A) (A) (A) (A) (A) (A) (A) (A) (A) (A)
                 (A) (A) (A) (A) (A) (A) (A) (A) (A) (A) (A) (A)
                 (A) (A) (A) (A) (A) (A) (A) (A) (A) (A) (A) (A)
                 (A) (A) (A) (A) (A) (A) (A)
 The electronic state of the initial guess is 2-A.
 Initial guess <Sx>= 0.0000 <Sy>= 0.0000 <Sz>= 0.5000 <S**2>= 1.0000 S= 0.6180
 Leave Link  401 at Sat Feb  8 14:48:42 2014, MaxMem= 4026531840 cpu:      37.5
 (Enter /usr/caen/gaussian-09revc/g09/l502.exe)
 UHF open shell SCF:
 Requested convergence on RMS density matrix=1.00D-08 within 128 cycles.
 Requested convergence on MAX density matrix=1.00D-06.
 Requested convergence on             energy=1.00D-06.
 No special actions if energy rises.
 Using DIIS extrapolation, IDIIS=  1040.
 Integral symmetry usage will be decided dynamically.
       263962 words used for storage of precomputed grid.
 IEnd=      735096 IEndB=      735096 NGot=  4026531840 MDV=  4025962767
 LenX=  4025962767 LenY=  4025813330
 Fock matrices will be formed incrementally for  20 cycles.

 Cycle   1  Pass 1  IDiag  1:
 FoFCou: FMM=F IPFlag=           0 FMFlag=      100000 FMFlg1=           0
         NFxFlg=           0 DoJE=F BraDBF=F KetDBF=F FulRan=T
         Omega=  0.000000  0.000000  1.000000  0.000000  0.000000 ICntrl=       0 IOpCl=  1
         NMat0=    1 NMatS0=    1 NMatT0=    0 NMatD0=    1 NMtDS0=    0 NMtDT0=    0
         I1Cent=           0 NGrid=           0.
 Symmetry not used in FoFCou.
 E= -504.329809503007    
 DIIS: error= 2.46D-02 at cycle   1 NSaved=   1.
 NSaved= 1 IEnMin= 1 EnMin= -504.329809503007     IErMin= 1 ErrMin= 2.46D-02
 ErrMax= 2.46D-02 EMaxC= 1.00D-01 BMatC= 1.67D+00 BMatP= 1.67D+00
 IDIUse=3 WtCom= 7.54D-01 WtEn= 2.46D-01
 Coeff-Com:  0.100D+01
 Coeff-En:   0.100D+01
 Coeff:      0.100D+01
 Gap=     0.019 Goal=   None    Shift=    0.000
 Gap=     0.019 Goal=   None    Shift=    0.000
 GapD=    0.019 DampG=0.250 DampE=0.500 DampFc=0.2500 IDamp=-1.
 Damping current iteration by 2.50D-01
 RMSDP=6.58D-02 MaxDP=1.06D+01              OVMax= 6.80D-01

 Cycle   2  Pass 1  IDiag  1:
 RMSU=  1.58D-02    CP:  1.08D+00
 E= -504.482179644264     Delta-E=       -0.152370141257 Rises=F Damp=T
 DIIS: error= 1.14D-02 at cycle   2 NSaved=   2.
 NSaved= 2 IEnMin= 2 EnMin= -504.482179644264     IErMin= 2 ErrMin= 1.14D-02
 ErrMax= 1.14D-02 EMaxC= 1.00D-01 BMatC= 4.01D-01 BMatP= 1.67D+00
 IDIUse=3 WtCom= 8.86D-01 WtEn= 1.14D-01
 Coeff-Com: -0.694D+00 0.169D+01
 Coeff-En:   0.000D+00 0.100D+01
 Coeff:     -0.615D+00 0.161D+01
 Gap=    -0.075 Goal=   None    Shift=    0.000
 Gap=     0.209 Goal=   None    Shift=    0.000
 RMSDP=2.01D-02 MaxDP=3.24D+00 DE=-1.52D-01 OVMax= 9.54D-01

 Cycle   3  Pass 1  IDiag  1:
 RMSU=  6.13D-03    CP:  8.02D-01 -2.87D-02
 E= -504.210904657634     Delta-E=        0.271274986630 Rises=F Damp=F
 DIIS: error= 2.44D-02 at cycle   3 NSaved=   3.
 NSaved= 3 IEnMin= 2 EnMin= -504.482179644264     IErMin= 2 ErrMin= 1.14D-02
 ErrMax= 2.44D-02 EMaxC= 1.00D-01 BMatC= 1.53D+00 BMatP= 4.01D-01
 IDIUse=2 WtCom= 0.00D+00 WtEn= 1.00D+00
 Coeff-En:   0.000D+00 0.730D+00 0.270D+00
 Coeff:      0.000D+00 0.730D+00 0.270D+00
 Gap=     0.036 Goal=   None    Shift=    0.000
 Gap=    -0.231 Goal=   None    Shift=    0.000
 RMSDP=1.55D-02 MaxDP=1.44D+00 DE= 2.71D-01 OVMax= 9.90D-01

 Cycle   4  Pass 1  IDiag  1:
 RMSU=  1.08D-02    CP:  6.81D-01  3.41D-01  1.16D-01
 E= -504.178452090237     Delta-E=        0.032452567397 Rises=F Damp=F
 DIIS: error= 2.61D-02 at cycle   4 NSaved=   4.
 NSaved= 4 IEnMin= 2 EnMin= -504.482179644264     IErMin= 2 ErrMin= 1.14D-02
 ErrMax= 2.61D-02 EMaxC= 1.00D-01 BMatC= 1.78D+00 BMatP= 4.01D-01
 IDIUse=2 WtCom= 0.00D+00 WtEn= 1.00D+00
 Coeff-En:   0.000D+00 0.000D+00 0.508D+00 0.492D+00
 Coeff:      0.000D+00 0.000D+00 0.508D+00 0.492D+00
 Gap=    -0.011 Goal=   None    Shift=    0.000
 Gap=     0.352 Goal=   None    Shift=    0.000
 RMSDP=1.54D-02 MaxDP=1.92D+00 DE= 3.25D-02 OVMax= 9.96D-01

 Cycle   5  Pass 1  IDiag  1:
 RMSU=  4.77D-03    CP:  7.50D-01 -2.13D-02  8.08D-01  7.45D-02
 E= -504.826035454085     Delta-E=       -0.647583363848 Rises=F Damp=F
 DIIS: error= 7.78D-03 at cycle   5 NSaved=   5.
 NSaved= 5 IEnMin= 5 EnMin= -504.826035454085     IErMin= 5 ErrMin= 7.78D-03
 ErrMax= 7.78D-03 EMaxC= 1.00D-01 BMatC= 1.49D-01 BMatP= 4.01D-01
 IDIUse=3 WtCom= 9.22D-01 WtEn= 7.78D-02
 Coeff-Com: -0.196D+00 0.386D+00 0.205D+00 0.160D+00 0.445D+00
 Coeff-En:   0.000D+00 0.000D+00 0.000D+00 0.000D+00 0.100D+01
 Coeff:     -0.180D+00 0.356D+00 0.189D+00 0.147D+00 0.489D+00
 Gap=     0.108 Goal=   None    Shift=    0.000
 Gap=     0.164 Goal=   None    Shift=    0.000
 RMSDP=4.63D-03 MaxDP=8.09D-01 DE=-6.48D-01 OVMax= 5.26D-02

 Cycle   6  Pass 1  IDiag  1:
 RMSU=  2.32D-03    CP:  7.09D-01  1.66D-02  7.65D-01  1.88D-01  5.46D-01
 E= -504.855312243452     Delta-E=       -0.029276789367 Rises=F Damp=F
 DIIS: error= 4.76D-03 at cycle   6 NSaved=   6.
 NSaved= 6 IEnMin= 6 EnMin= -504.855312243452     IErMin= 6 ErrMin= 4.76D-03
 ErrMax= 4.76D-03 EMaxC= 1.00D-01 BMatC= 3.52D-02 BMatP= 1.49D-01
 IDIUse=3 WtCom= 9.52D-01 WtEn= 4.76D-02
 Coeff-Com: -0.127D+00 0.186D+00 0.569D-01 0.460D-01 0.322D+00 0.516D+00
 Coeff-En:   0.000D+00 0.000D+00 0.000D+00 0.000D+00 0.644D-01 0.936D+00
 Coeff:     -0.121D+00 0.177D+00 0.542D-01 0.438D-01 0.310D+00 0.536D+00
 Gap=     0.145 Goal=   None    Shift=    0.000
 Gap=     0.203 Goal=   None    Shift=    0.000
 RMSDP=1.31D-03 MaxDP=1.56D-01 DE=-2.93D-02 OVMax= 2.16D-02

 Cycle   7  Pass 1  IDiag  1:
 RMSU=  8.58D-04    CP:  7.09D-01  3.92D-02  7.73D-01  2.23D-01  5.06D-01
                    CP:  1.09D+00
 E= -504.862324529623     Delta-E=       -0.007012286171 Rises=F Damp=F
 DIIS: error= 1.44D-03 at cycle   7 NSaved=   7.
 NSaved= 7 IEnMin= 7 EnMin= -504.862324529623     IErMin= 7 ErrMin= 1.44D-03
 ErrMax= 1.44D-03 EMaxC= 1.00D-01 BMatC= 2.82D-03 BMatP= 3.52D-02
 IDIUse=3 WtCom= 9.86D-01 WtEn= 1.44D-02
 Coeff-Com: -0.130D-01 0.304D-01 0.839D-02 0.158D-01 0.264D-01 0.167D+00
 Coeff-Com:  0.765D+00
 Coeff-En:   0.000D+00 0.000D+00 0.000D+00 0.000D+00 0.000D+00 0.000D+00
 Coeff-En:   0.100D+01
 Coeff:     -0.128D-01 0.299D-01 0.827D-02 0.156D-01 0.260D-01 0.165D+00
 Coeff:      0.768D+00
 Gap=     0.145 Goal=   None    Shift=    0.000
 Gap=     0.221 Goal=   None    Shift=    0.000
 RMSDP=4.50D-04 MaxDP=6.85D-02 DE=-7.01D-03 OVMax= 9.88D-03

 Cycle   8  Pass 1  IDiag  1:
 RMSU=  1.57D-04    CP:  7.02D-01  4.37D-02  7.65D-01  2.31D-01  4.82D-01
                    CP:  1.17D+00  1.06D+00
 E= -504.862824457247     Delta-E=       -0.000499927624 Rises=F Damp=F
 DIIS: error= 1.28D-03 at cycle   8 NSaved=   8.
 NSaved= 8 IEnMin= 8 EnMin= -504.862824457247     IErMin= 8 ErrMin= 1.28D-03
 ErrMax= 1.28D-03 EMaxC= 1.00D-01 BMatC= 1.92D-03 BMatP= 2.82D-03
 IDIUse=3 WtCom= 9.87D-01 WtEn= 1.28D-02
 Coeff-Com:  0.325D-01-0.347D-01-0.385D-02 0.110D-01-0.809D-01-0.812D-01
 Coeff-Com:  0.530D+00 0.627D+00
 Coeff-En:   0.000D+00 0.000D+00 0.000D+00 0.000D+00 0.000D+00 0.000D+00
 Coeff-En:   0.169D+00 0.831D+00
 Coeff:      0.321D-01-0.343D-01-0.380D-02 0.108D-01-0.798D-01-0.801D-01
 Coeff:      0.525D+00 0.630D+00
 Gap=     0.152 Goal=   None    Shift=    0.000
 Gap=     0.227 Goal=   None    Shift=    0.000
 RMSDP=3.62D-04 MaxDP=3.72D-02 DE=-5.00D-04 OVMax= 9.98D-03

 Cycle   9  Pass 1  IDiag  1:
 RMSU=  1.65D-04    CP:  7.00D-01  4.31D-02  7.63D-01  2.40D-01  4.49D-01
                    CP:  1.20D+00  1.13D+00  6.74D-01
 E= -504.863223199974     Delta-E=       -0.000398742728 Rises=F Damp=F
 DIIS: error= 2.58D-04 at cycle   9 NSaved=   9.
 NSaved= 9 IEnMin= 9 EnMin= -504.863223199974     IErMin= 9 ErrMin= 2.58D-04
 ErrMax= 2.58D-04 EMaxC= 1.00D-01 BMatC= 1.34D-04 BMatP= 1.92D-03
 IDIUse=3 WtCom= 9.97D-01 WtEn= 2.58D-03
 Coeff-Com:  0.153D-01-0.189D-01-0.350D-02 0.468D-02-0.310D-01-0.453D-01
 Coeff-Com:  0.497D-01 0.220D+00 0.809D+00
 Coeff-En:   0.000D+00 0.000D+00 0.000D+00 0.000D+00 0.000D+00 0.000D+00
 Coeff-En:   0.000D+00 0.000D+00 0.100D+01
 Coeff:      0.152D-01-0.188D-01-0.349D-02 0.467D-02-0.310D-01-0.452D-01
 Coeff:      0.495D-01 0.220D+00 0.809D+00
 Gap=     0.152 Goal=   None    Shift=    0.000
 Gap=     0.230 Goal=   None    Shift=    0.000
 RMSDP=8.98D-05 MaxDP=1.16D-02 DE=-3.99D-04 OVMax= 1.76D-03

 Cycle  10  Pass 1  IDiag  1:
 RMSU=  4.44D-05    CP:  7.01D-01  4.41D-02  7.63D-01  2.41D-01  4.51D-01
                    CP:  1.21D+00  1.15D+00  7.99D-01  8.85D-01
 E= -504.863256153266     Delta-E=       -0.000032953292 Rises=F Damp=F
 DIIS: error= 1.33D-04 at cycle  10 NSaved=  10.
 NSaved=10 IEnMin=10 EnMin= -504.863256153266     IErMin=10 ErrMin= 1.33D-04
 ErrMax= 1.33D-04 EMaxC= 1.00D-01 BMatC= 3.55D-05 BMatP= 1.34D-04
 IDIUse=3 WtCom= 9.99D-01 WtEn= 1.33D-03
 Coeff-Com:  0.340D-02-0.405D-02-0.207D-02 0.199D-02-0.571D-02-0.889D-02
 Coeff-Com: -0.403D-01 0.271D-01 0.393D+00 0.636D+00
 Coeff-En:   0.000D+00 0.000D+00 0.000D+00 0.000D+00 0.000D+00 0.000D+00
 Coeff-En:   0.000D+00 0.000D+00 0.000D+00 0.100D+01
 Coeff:      0.340D-02-0.404D-02-0.206D-02 0.198D-02-0.571D-02-0.888D-02
 Coeff:     -0.402D-01 0.271D-01 0.392D+00 0.636D+00
 Gap=     0.152 Goal=   None    Shift=    0.000
 Gap=     0.230 Goal=   None    Shift=    0.000
 RMSDP=3.78D-05 MaxDP=2.69D-03 DE=-3.30D-05 OVMax= 5.61D-04

 Cycle  11  Pass 1  IDiag  1:
 RMSU=  2.06D-05    CP:  7.01D-01  4.39D-02  7.62D-01  2.41D-01  4.51D-01
                    CP:  1.21D+00  1.14D+00  8.00D-01  9.15D-01  8.76D-01
 E= -504.863262812598     Delta-E=       -0.000006659332 Rises=F Damp=F
 DIIS: error= 5.29D-05 at cycle  11 NSaved=  11.
 NSaved=11 IEnMin=11 EnMin= -504.863262812598     IErMin=11 ErrMin= 5.29D-05
 ErrMax= 5.29D-05 EMaxC= 1.00D-01 BMatC= 7.21D-06 BMatP= 3.55D-05
 IDIUse=1 WtCom= 1.00D+00 WtEn= 0.00D+00
 Coeff-Com: -0.611D-03 0.464D-03-0.757D-03 0.938D-03 0.368D-02 0.561D-02
 Coeff-Com: -0.197D-01-0.284D-01-0.985D-02 0.223D+00 0.826D+00
 Coeff:     -0.611D-03 0.464D-03-0.757D-03 0.938D-03 0.368D-02 0.561D-02
 Coeff:     -0.197D-01-0.284D-01-0.985D-02 0.223D+00 0.826D+00
 Gap=     0.152 Goal=   None    Shift=    0.000
 Gap=     0.230 Goal=   None    Shift=    0.000
 RMSDP=1.91D-05 MaxDP=2.78D-03 DE=-6.66D-06 OVMax= 2.12D-04

 Cycle  12  Pass 1  IDiag  1:
 RMSU=  7.68D-06    CP:  7.01D-01  4.37D-02  7.62D-01  2.41D-01  4.52D-01
                    CP:  1.21D+00  1.13D+00  8.06D-01  9.36D-01  9.15D-01
                    CP:  8.69D-01
 E= -504.863264529016     Delta-E=       -0.000001716418 Rises=F Damp=F
 DIIS: error= 2.80D-05 at cycle  12 NSaved=  12.
 NSaved=12 IEnMin=12 EnMin= -504.863264529016     IErMin=12 ErrMin= 2.80D-05
 ErrMax= 2.80D-05 EMaxC= 1.00D-01 BMatC= 1.76D-06 BMatP= 7.21D-06
 IDIUse=1 WtCom= 1.00D+00 WtEn= 0.00D+00
 Coeff-Com:  0.845D-04-0.319D-03-0.376D-03 0.432D-03 0.128D-02 0.187D-02
 Coeff-Com:  0.401D-02-0.885D-02-0.657D-01-0.578D-01 0.191D+00 0.935D+00
 Coeff:      0.845D-04-0.319D-03-0.376D-03 0.432D-03 0.128D-02 0.187D-02
 Coeff:      0.401D-02-0.885D-02-0.657D-01-0.578D-01 0.191D+00 0.935D+00
 Gap=     0.152 Goal=   None    Shift=    0.000
 Gap=     0.231 Goal=   None    Shift=    0.000
 RMSDP=8.47D-06 MaxDP=6.89D-04 DE=-1.72D-06 OVMax= 1.61D-04

 Cycle  13  Pass 1  IDiag  1:
 RMSU=  4.07D-06    CP:  7.01D-01  4.38D-02  7.62D-01  2.41D-01  4.52D-01
                    CP:  1.21D+00  1.13D+00  8.11D-01  9.22D-01  9.38D-01
                    CP:  1.00D+00  1.04D+00
 E= -504.863264906550     Delta-E=       -0.000000377534 Rises=F Damp=F
 DIIS: error= 1.15D-05 at cycle  13 NSaved=  13.
 NSaved=13 IEnMin=13 EnMin= -504.863264906550     IErMin=13 ErrMin= 1.15D-05
 ErrMax= 1.15D-05 EMaxC= 1.00D-01 BMatC= 3.71D-07 BMatP= 1.76D-06
 IDIUse=1 WtCom= 1.00D+00 WtEn= 0.00D+00
 Coeff-Com:  0.394D-03-0.568D-03-0.209D-03 0.203D-03-0.145D-03-0.140D-03
 Coeff-Com:  0.541D-02 0.736D-03-0.231D-01-0.615D-01-0.651D-01 0.343D+00
 Coeff-Com:  0.801D+00
 Coeff:      0.394D-03-0.568D-03-0.209D-03 0.203D-03-0.145D-03-0.140D-03
 Coeff:      0.541D-02 0.736D-03-0.231D-01-0.615D-01-0.651D-01 0.343D+00
 Coeff:      0.801D+00
 Gap=     0.152 Goal=   None    Shift=    0.000
 Gap=     0.231 Goal=   None    Shift=    0.000
 RMSDP=3.82D-06 MaxDP=4.14D-04 DE=-3.78D-07 OVMax= 5.19D-05

 Cycle  14  Pass 1  IDiag  1:
 RMSU=  1.41D-06    CP:  7.00D-01  4.38D-02  7.61D-01  2.42D-01  4.52D-01
                    CP:  1.21D+00  1.13D+00  8.12D-01  9.23D-01  9.41D-01
                    CP:  1.00D+00  1.21D+00  1.11D+00
 E= -504.863264986788     Delta-E=       -0.000000080238 Rises=F Damp=F
 DIIS: error= 5.25D-06 at cycle  14 NSaved=  14.
 NSaved=14 IEnMin=14 EnMin= -504.863264986788     IErMin=14 ErrMin= 5.25D-06
 ErrMax= 5.25D-06 EMaxC= 1.00D-01 BMatC= 7.03D-08 BMatP= 3.71D-07
 IDIUse=1 WtCom= 1.00D+00 WtEn= 0.00D+00
 Coeff-Com:  0.226D-03-0.287D-03-0.931D-04 0.874D-04-0.251D-03-0.173D-03
 Coeff-Com:  0.180D-02 0.138D-02 0.161D-02-0.150D-01-0.578D-01-0.305D-01
 Coeff-Com:  0.308D+00 0.791D+00
 Coeff:      0.226D-03-0.287D-03-0.931D-04 0.874D-04-0.251D-03-0.173D-03
 Coeff:      0.180D-02 0.138D-02 0.161D-02-0.150D-01-0.578D-01-0.305D-01
 Coeff:      0.308D+00 0.791D+00
 Gap=     0.152 Goal=   None    Shift=    0.000
 Gap=     0.231 Goal=   None    Shift=    0.000
 RMSDP=1.83D-06 MaxDP=2.35D-04 DE=-8.02D-08 OVMax= 3.42D-05

 Cycle  15  Pass 1  IDiag  1:
 RMSU=  5.72D-07    CP:  7.00D-01  4.38D-02  7.61D-01  2.42D-01  4.52D-01
                    CP:  1.21D+00  1.13D+00  8.11D-01  9.23D-01  9.37D-01
                    CP:  9.99D-01  1.28D+00  1.20D+00  1.27D+00
 E= -504.863265002605     Delta-E=       -0.000000015817 Rises=F Damp=F
 DIIS: error= 2.02D-06 at cycle  15 NSaved=  15.
 NSaved=15 IEnMin=15 EnMin= -504.863265002605     IErMin=15 ErrMin= 2.02D-06
 ErrMax= 2.02D-06 EMaxC= 1.00D-01 BMatC= 1.13D-08 BMatP= 7.03D-08
 IDIUse=1 WtCom= 1.00D+00 WtEn= 0.00D+00
 Coeff-Com:  0.233D-04-0.166D-04-0.157D-04 0.211D-04-0.727D-04 0.210D-04
 Coeff-Com: -0.442D-03 0.366D-03 0.595D-02 0.895D-02-0.621D-02-0.927D-01
 Coeff-Com: -0.850D-01 0.277D+00 0.892D+00
 Coeff:      0.233D-04-0.166D-04-0.157D-04 0.211D-04-0.727D-04 0.210D-04
 Coeff:     -0.442D-03 0.366D-03 0.595D-02 0.895D-02-0.621D-02-0.927D-01
 Coeff:     -0.850D-01 0.277D+00 0.892D+00
 Gap=     0.152 Goal=   None    Shift=    0.000
 Gap=     0.231 Goal=   None    Shift=    0.000
 RMSDP=6.39D-07 MaxDP=7.87D-05 DE=-1.58D-08 OVMax= 1.36D-05

 Cycle  16  Pass 1  IDiag  1:
 RMSU=  1.94D-07    CP:  7.00D-01  4.38D-02  7.61D-01  2.42D-01  4.52D-01
                    CP:  1.21D+00  1.13D+00  8.11D-01  9.23D-01  9.40D-01
                    CP:  9.96D-01  1.29D+00  1.26D+00  1.36D+00  8.74D-01
 E= -504.863265005547     Delta-E=       -0.000000002942 Rises=F Damp=F
 DIIS: error= 5.75D-07 at cycle  16 NSaved=  16.
 NSaved=16 IEnMin=16 EnMin= -504.863265005547     IErMin=16 ErrMin= 5.75D-07
 ErrMax= 5.75D-07 EMaxC= 1.00D-01 BMatC= 8.94D-10 BMatP= 1.13D-08
 IDIUse=1 WtCom= 1.00D+00 WtEn= 0.00D+00
 Coeff-Com: -0.568D-05 0.674D-05-0.254D-06 0.345D-05-0.149D-04-0.750D-05
 Coeff-Com: -0.333D-03 0.770D-04 0.194D-02 0.469D-02 0.414D-02-0.291D-01
 Coeff-Com: -0.678D-01-0.127D-01 0.311D+00 0.789D+00
 Coeff:     -0.568D-05 0.674D-05-0.254D-06 0.345D-05-0.149D-04-0.750D-05
 Coeff:     -0.333D-03 0.770D-04 0.194D-02 0.469D-02 0.414D-02-0.291D-01
 Coeff:     -0.678D-01-0.127D-01 0.311D+00 0.789D+00
 Gap=     0.152 Goal=   None    Shift=    0.000
 Gap=     0.231 Goal=   None    Shift=    0.000
 RMSDP=2.77D-07 MaxDP=3.12D-05 DE=-2.94D-09 OVMax= 3.63D-06

 Cycle  17  Pass 1  IDiag  1:
 RMSU=  7.27D-08    CP:  7.00D-01  4.38D-02  7.61D-01  2.42D-01  4.52D-01
                    CP:  1.21D+00  1.13D+00  8.12D-01  9.23D-01  9.39D-01
                    CP:  9.97D-01  1.30D+00  1.27D+00  1.43D+00  9.53D-01
                    CP:  9.41D-01
 E= -504.863265005801     Delta-E=       -0.000000000254 Rises=F Damp=F
 DIIS: error= 2.09D-07 at cycle  17 NSaved=  17.
 NSaved=17 IEnMin=17 EnMin= -504.863265005801     IErMin=17 ErrMin= 2.09D-07
 ErrMax= 2.09D-07 EMaxC= 1.00D-01 BMatC= 7.47D-11 BMatP= 8.94D-10
 IDIUse=1 WtCom= 1.00D+00 WtEn= 0.00D+00
 Coeff-Com: -0.264D-05 0.115D-05 0.331D-06 0.453D-06 0.122D-06-0.170D-04
 Coeff-Com: -0.578D-04 0.572D-05-0.752D-05 0.546D-03 0.235D-02 0.189D-02
 Coeff-Com: -0.127D-01-0.415D-01-0.141D-02 0.301D+00 0.750D+00
 Coeff:     -0.264D-05 0.115D-05 0.331D-06 0.453D-06 0.122D-06-0.170D-04
 Coeff:     -0.578D-04 0.572D-05-0.752D-05 0.546D-03 0.235D-02 0.189D-02
 Coeff:     -0.127D-01-0.415D-01-0.141D-02 0.301D+00 0.750D+00
 Gap=     0.152 Goal=   None    Shift=    0.000
 Gap=     0.231 Goal=   None    Shift=    0.000
 RMSDP=5.67D-08 MaxDP=7.68D-06 DE=-2.54D-10 OVMax= 1.32D-06

 Cycle  18  Pass 1  IDiag  1:
 RMSU=  2.32D-08    CP:  7.00D-01  4.38D-02  7.61D-01  2.42D-01  4.52D-01
                    CP:  1.21D+00  1.13D+00  8.12D-01  9.23D-01  9.39D-01
                    CP:  9.98D-01  1.30D+00  1.27D+00  1.43D+00  9.58D-01
                    CP:  9.78D-01  9.81D-01
 E= -504.863265005826     Delta-E=       -0.000000000025 Rises=F Damp=F
 DIIS: error= 9.13D-08 at cycle  18 NSaved=  18.
 NSaved=18 IEnMin=18 EnMin= -504.863265005826     IErMin=18 ErrMin= 9.13D-08
 ErrMax= 9.13D-08 EMaxC= 1.00D-01 BMatC= 1.04D-11 BMatP= 7.47D-11
 IDIUse=1 WtCom= 1.00D+00 WtEn= 0.00D+00
 Coeff-Com:  0.696D-07-0.347D-06 0.533D-07-0.393D-06 0.383D-05-0.221D-05
 Coeff-Com:  0.351D-04-0.155D-04-0.309D-03-0.597D-03 0.317D-05 0.532D-02
 Coeff-Com:  0.785D-02-0.887D-02-0.540D-01-0.553D-01 0.237D+00 0.869D+00
 Coeff:      0.696D-07-0.347D-06 0.533D-07-0.393D-06 0.383D-05-0.221D-05
 Coeff:      0.351D-04-0.155D-04-0.309D-03-0.597D-03 0.317D-05 0.532D-02
 Coeff:      0.785D-02-0.887D-02-0.540D-01-0.553D-01 0.237D+00 0.869D+00
 Gap=     0.152 Goal=   None    Shift=    0.000
 Gap=     0.231 Goal=   None    Shift=    0.000
 RMSDP=3.80D-08 MaxDP=6.06D-06 DE=-2.52D-11 OVMax= 8.75D-07

 Cycle  19  Pass 1  IDiag  1:
 RMSU=  1.15D-08    CP:  7.00D-01  4.38D-02  7.61D-01  2.42D-01  4.52D-01
                    CP:  1.21D+00  1.13D+00  8.12D-01  9.23D-01  9.40D-01
                    CP:  9.98D-01  1.30D+00  1.27D+00  1.42D+00  9.57D-01
                    CP:  9.89D-01  1.03D+00  1.03D+00
 E= -504.863265005837     Delta-E=       -0.000000000011 Rises=F Damp=F
 DIIS: error= 4.75D-08 at cycle  19 NSaved=  19.
 NSaved=19 IEnMin=19 EnMin= -504.863265005837     IErMin=19 ErrMin= 4.75D-08
 ErrMax= 4.75D-08 EMaxC= 1.00D-01 BMatC= 1.58D-12 BMatP= 1.04D-11
 IDIUse=1 WtCom= 1.00D+00 WtEn= 0.00D+00
 Coeff-Com:  0.331D-06-0.660D-07-0.939D-07-0.405D-06 0.113D-05 0.365D-05
 Coeff-Com:  0.169D-04-0.896D-05-0.886D-04-0.224D-03-0.288D-03 0.117D-02
 Coeff-Com:  0.362D-02 0.373D-02-0.131D-01-0.541D-01-0.559D-01 0.205D+00
 Coeff-Com:  0.910D+00
 Coeff:      0.331D-06-0.660D-07-0.939D-07-0.405D-06 0.113D-05 0.365D-05
 Coeff:      0.169D-04-0.896D-05-0.886D-04-0.224D-03-0.288D-03 0.117D-02
 Coeff:      0.362D-02 0.373D-02-0.131D-01-0.541D-01-0.559D-01 0.205D+00
 Coeff:      0.910D+00
 Gap=     0.152 Goal=   None    Shift=    0.000
 Gap=     0.231 Goal=   None    Shift=    0.000
 RMSDP=9.03D-09 MaxDP=6.31D-07 DE=-1.14D-11 OVMax= 4.46D-07

 SCF Done:  E(UB3LYP) =  -504.863265006     A.U. after   19 cycles
             Convg  =    0.9030D-08             -V/T =  2.0045
 <Sx>= 0.0000 <Sy>= 0.0000 <Sz>= 0.5000 <S**2>= 0.7542 S= 0.5021
 <L.S>= 0.000000000000E+00
 KE= 5.026072196170D+02 PE=-2.491542233380D+03 EE= 8.264909041729D+02
 Annihilation of the first spin contaminant:
 S**2 before annihilation     0.7542,   after     0.7500
 Leave Link  502 at Sat Feb  8 14:55:19 2014, MaxMem= 4026531840 cpu:    3166.5
 (Enter /usr/caen/gaussian-09revc/g09/l601.exe)
 Copying SCF densities to generalized density rwf, IOpCl= 1 IROHF=0.

 **********************************************************************

            Population analysis using the SCF density.

 **********************************************************************

 Orbital symmetries:
 Alpha Orbitals:
       Occupied  (A) (A) (A) (A) (A) (A) (A) (A) (A) (A) (A) (A)
                 (A) (A) (A) (A) (A) (A) (A) (A) (A) (A) (A) (A)
                 (A) (A) (A) (A) (A) (A) (A) (A) (A) (A) (A) (A)
                 (A) (A) (A) (A) (A) (A) (A) (A) (A)
       Virtual   (A) (A) (A) (A) (A) (A) (A) (A) (A) (A) (A) (A)
                 (A) (A) (A) (A) (A) (A) (A) (A) (A) (A) (A) (A)
                 (A) (A) (A) (A) (A) (A) (A) (A) (A) (A) (A) (A)
                 (A) (A) (A) (A) (A) (A) (A) (A) (A) (A) (A) (A)
                 (A) (A) (A) (A) (A) (A) (A) (A) (A) (A) (A) (A)
                 (A) (A) (A) (A) (A) (A) (A) (A) (A) (A) (A) (A)
                 (A) (A) (A) (A) (A) (A) (A) (A) (A) (A) (A) (A)
                 (A) (A) (A) (A) (A) (A) (A) (A) (A) (A) (A) (A)
                 (A) (A) (A) (A) (A) (A) (A) (A) (A) (A) (A) (A)
                 (A) (A) (A) (A) (A) (A) (A) (A) (A) (A) (A) (A)
                 (A) (A) (A) (A) (A) (A) (A) (A) (A) (A) (A) (A)
                 (A) (A) (A) (A) (A) (A) (A) (A) (A) (A) (A) (A)
                 (A) (A) (A) (A) (A) (A) (A) (A) (A) (A) (A) (A)
                 (A) (A) (A) (A) (A) (A) (A) (A) (A) (A) (A) (A)
                 (A) (A) (A) (A) (A) (A) (A) (A) (A) (A) (A) (A)
                 (A) (A) (A) (A) (A) (A) (A) (A) (A) (A) (A) (A)
                 (A) (A) (A) (A) (A) (A) (A) (A) (A) (A) (A) (A)
                 (A) (A) (A) (A) (A) (A) (A) (A) (A) (A) (A) (A)
                 (A) (A) (A) (A) (A) (A) (A) (A) (A) (A) (A) (A)
                 (A) (A) (A) (A) (A) (A) (A) (A) (A) (A) (A) (A)
                 (A) (A) (A) (A) (A) (A) (A) (A) (A) (A) (A) (A)
                 (A) (A) (A) (A) (A) (A) (A) (A) (A) (A) (A) (A)
                 (A) (A) (A) (A) (A) (A) (A) (A) (A) (A) (A) (A)
                 (A) (A) (A) (A) (A) (A) (A) (A) (A) (A) (A) (A)
                 (A) (A) (A) (A) (A) (A) (A) (A) (A) (A) (A) (A)
                 (A) (A) (A) (A) (A) (A) (A) (A) (A) (A) (A) (A)
                 (A) (A) (A) (A) (A) (A) (A) (A) (A) (A) (A) (A)
                 (A) (A) (A) (A) (A) (A)
 Beta  Orbitals:
       Occupied  (A) (A) (A) (A) (A) (A) (A) (A) (A) (A) (A) (A)
                 (A) (A) (A) (A) (A) (A) (A) (A) (A) (A) (A) (A)
                 (A) (A) (A) (A) (A) (A) (A) (A) (A) (A) (A) (A)
                 (A) (A) (A) (A) (A) (A) (A) (A)
       Virtual   (A) (A) (A) (A) (A) (A) (A) (A) (A) (A) (A) (A)
                 (A) (A) (A) (A) (A) (A) (A) (A) (A) (A) (A) (A)
                 (A) (A) (A) (A) (A) (A) (A) (A) (A) (A) (A) (A)
                 (A) (A) (A) (A) (A) (A) (A) (A) (A) (A) (A) (A)
                 (A) (A) (A) (A) (A) (A) (A) (A) (A) (A) (A) (A)
                 (A) (A) (A) (A) (A) (A) (A) (A) (A) (A) (A) (A)
                 (A) (A) (A) (A) (A) (A) (A) (A) (A) (A) (A) (A)
                 (A) (A) (A) (A) (A) (A) (A) (A) (A) (A) (A) (A)
                 (A) (A) (A) (A) (A) (A) (A) (A) (A) (A) (A) (A)
                 (A) (A) (A) (A) (A) (A) (A) (A) (A) (A) (A) (A)
                 (A) (A) (A) (A) (A) (A) (A) (A) (A) (A) (A) (A)
                 (A) (A) (A) (A) (A) (A) (A) (A) (A) (A) (A) (A)
                 (A) (A) (A) (A) (A) (A) (A) (A) (A) (A) (A) (A)
                 (A) (A) (A) (A) (A) (A) (A) (A) (A) (A) (A) (A)
                 (A) (A) (A) (A) (A) (A) (A) (A) (A) (A) (A) (A)
                 (A) (A) (A) (A) (A) (A) (A) (A) (A) (A) (A) (A)
                 (A) (A) (A) (A) (A) (A) (A) (A) (A) (A) (A) (A)
                 (A) (A) (A) (A) (A) (A) (A) (A) (A) (A) (A) (A)
                 (A) (A) (A) (A) (A) (A) (A) (A) (A) (A) (A) (A)
                 (A) (A) (A) (A) (A) (A) (A) (A) (A) (A) (A) (A)
                 (A) (A) (A) (A) (A) (A) (A) (A) (A) (A) (A) (A)
                 (A) (A) (A) (A) (A) (A) (A) (A) (A) (A) (A) (A)
                 (A) (A) (A) (A) (A) (A) (A) (A) (A) (A) (A) (A)
                 (A) (A) (A) (A) (A) (A) (A) (A) (A) (A) (A) (A)
                 (A) (A) (A) (A) (A) (A) (A) (A) (A) (A) (A) (A)
                 (A) (A) (A) (A) (A) (A) (A) (A) (A) (A) (A) (A)
                 (A) (A) (A) (A) (A) (A) (A) (A) (A) (A) (A) (A)
                 (A) (A) (A) (A) (A) (A) (A)
 The electronic state is 2-A.
 Alpha  occ. eigenvalues --  -19.17768 -19.17655 -10.23577 -10.17040 -10.16631
 Alpha  occ. eigenvalues --  -10.16386 -10.16327 -10.16260 -10.16033 -10.15905
 Alpha  occ. eigenvalues --  -10.15783  -1.11748  -0.92290  -0.81377  -0.78862
 Alpha  occ. eigenvalues --   -0.74954  -0.69936  -0.69002  -0.68198  -0.60609
 Alpha  occ. eigenvalues --   -0.56596  -0.53423  -0.51492  -0.48737  -0.46494
 Alpha  occ. eigenvalues --   -0.46025  -0.44940  -0.43624  -0.43256  -0.41887
 Alpha  occ. eigenvalues --   -0.40549  -0.39611  -0.38612  -0.38190  -0.37745
 Alpha  occ. eigenvalues --   -0.36815  -0.36372  -0.35699  -0.34822  -0.33736
 Alpha  occ. eigenvalues --   -0.32331  -0.32179  -0.30562  -0.26573  -0.16777
 Alpha virt. eigenvalues --   -0.01611  -0.00895  -0.00244   0.01161   0.01459
 Alpha virt. eigenvalues --    0.02172   0.02490   0.02787   0.03410   0.03990
 Alpha virt. eigenvalues --    0.04372   0.04456   0.04720   0.05429   0.05750
 Alpha virt. eigenvalues --    0.06501   0.07753   0.07779   0.08039   0.08423
 Alpha virt. eigenvalues --    0.08891   0.09083   0.10445   0.10764   0.10939
 Alpha virt. eigenvalues --    0.11138   0.11839   0.11950   0.12230   0.12556
 Alpha virt. eigenvalues --    0.13253   0.13562   0.13970   0.14233   0.14393
 Alpha virt. eigenvalues --    0.14490   0.14779   0.15279   0.15473   0.15960
 Alpha virt. eigenvalues --    0.16095   0.16492   0.16660   0.16698   0.17001
 Alpha virt. eigenvalues --    0.17696   0.18185   0.18529   0.18939   0.19299
 Alpha virt. eigenvalues --    0.19359   0.19495   0.19754   0.20420   0.20646
 Alpha virt. eigenvalues --    0.20876   0.21370   0.21516   0.22217   0.22852
 Alpha virt. eigenvalues --    0.23607   0.24325   0.25248   0.25635   0.25961
 Alpha virt. eigenvalues --    0.26178   0.27386   0.27589   0.28418   0.28742
 Alpha virt. eigenvalues --    0.29384   0.29575   0.29944   0.30958   0.31767
 Alpha virt. eigenvalues --    0.32281   0.32900   0.33030   0.34175   0.34408
 Alpha virt. eigenvalues --    0.34705   0.34966   0.35734   0.36756   0.37078
 Alpha virt. eigenvalues --    0.38672   0.39352   0.39738   0.40458   0.43049
 Alpha virt. eigenvalues --    0.44335   0.45263   0.45786   0.47062   0.47673
 Alpha virt. eigenvalues --    0.48870   0.49542   0.50509   0.53382   0.53901
 Alpha virt. eigenvalues --    0.54323   0.55879   0.56511   0.57571   0.58154
 Alpha virt. eigenvalues --    0.58980   0.59336   0.60477   0.61995   0.62523
 Alpha virt. eigenvalues --    0.63548   0.63708   0.64803   0.65892   0.66130
 Alpha virt. eigenvalues --    0.66738   0.67090   0.67993   0.68819   0.69124
 Alpha virt. eigenvalues --    0.69648   0.70558   0.71539   0.72100   0.72998
 Alpha virt. eigenvalues --    0.73552   0.74447   0.75563   0.76136   0.76783
 Alpha virt. eigenvalues --    0.77217   0.78179   0.78717   0.79032   0.80867
 Alpha virt. eigenvalues --    0.82300   0.83911   0.85601   0.89891   0.91449
 Alpha virt. eigenvalues --    0.94402   0.95632   0.97425   0.98883   0.99341
 Alpha virt. eigenvalues --    1.03268   1.04861   1.05881   1.07141   1.09109
 Alpha virt. eigenvalues --    1.09932   1.13211   1.16107   1.17456   1.18750
 Alpha virt. eigenvalues --    1.21067   1.21609   1.25234   1.28827   1.30454
 Alpha virt. eigenvalues --    1.32287   1.37044   1.37567   1.39613   1.41024
 Alpha virt. eigenvalues --    1.43182   1.45263   1.45799   1.47287   1.47501
 Alpha virt. eigenvalues --    1.48400   1.49568   1.50535   1.51441   1.51861
 Alpha virt. eigenvalues --    1.54487   1.54890   1.55323   1.56153   1.57830
 Alpha virt. eigenvalues --    1.58344   1.58377   1.61035   1.61357   1.61603
 Alpha virt. eigenvalues --    1.63419   1.64313   1.65514   1.65954   1.66417
 Alpha virt. eigenvalues --    1.66814   1.67948   1.69063   1.71006   1.71566
 Alpha virt. eigenvalues --    1.71936   1.75236   1.75637   1.75962   1.77435
 Alpha virt. eigenvalues --    1.78267   1.79361   1.79862   1.81587   1.82179
 Alpha virt. eigenvalues --    1.86264   1.88517   1.91062   1.92067   1.94272
 Alpha virt. eigenvalues --    1.95014   1.96392   1.98094   2.01230   2.01626
 Alpha virt. eigenvalues --    2.01782   2.04377   2.05856   2.09250   2.11126
 Alpha virt. eigenvalues --    2.12631   2.14262   2.14837   2.18248   2.19021
 Alpha virt. eigenvalues --    2.20522   2.23463   2.26356   2.28411   2.30841
 Alpha virt. eigenvalues --    2.31539   2.32973   2.35444   2.37889   2.40788
 Alpha virt. eigenvalues --    2.43710   2.44952   2.46048   2.47311   2.49203
 Alpha virt. eigenvalues --    2.50828   2.51038   2.51556   2.52053   2.52428
 Alpha virt. eigenvalues --    2.53848   2.54824   2.55597   2.55975   2.56469
 Alpha virt. eigenvalues --    2.57812   2.59031   2.59870   2.60259   2.61531
 Alpha virt. eigenvalues --    2.63889   2.64552   2.64928   2.67158   2.68719
 Alpha virt. eigenvalues --    2.70977   2.71767   2.72542   2.74547   2.75818
 Alpha virt. eigenvalues --    2.76647   2.77365   2.79351   2.80976   2.82857
 Alpha virt. eigenvalues --    2.86144   2.88970   2.90002   2.92908   2.94299
 Alpha virt. eigenvalues --    2.96623   2.99967   3.01643   3.02225   3.03507
 Alpha virt. eigenvalues --    3.07945   3.09342   3.12072   3.13849   3.16523
 Alpha virt. eigenvalues --    3.21299   3.23141   3.24321   3.26777   3.34629
 Alpha virt. eigenvalues --    3.45043   3.58834   3.63623   3.72839   3.74722
 Alpha virt. eigenvalues --    3.77799   3.79179   3.80017   3.80637   3.81766
 Alpha virt. eigenvalues --    3.83984   3.84864   3.84952   3.87057   3.89476
 Alpha virt. eigenvalues --    3.89822   4.08881   4.13157   4.20861   4.28210
 Alpha virt. eigenvalues --    4.30208   4.31473   4.37688   4.91363   5.04115
 Alpha virt. eigenvalues --    5.14618   5.39846   5.52719   5.69378  23.73911
 Alpha virt. eigenvalues --   23.79945  23.88529  23.91705  23.93319  23.97315
 Alpha virt. eigenvalues --   23.98268  23.98938  23.99400  49.86702  49.93196
  Beta  occ. eigenvalues --  -19.17768 -19.17655 -10.23576 -10.16631 -10.16373
  Beta  occ. eigenvalues --  -10.16344 -10.16326 -10.15991 -10.15914 -10.15871
  Beta  occ. eigenvalues --  -10.15647  -1.11748  -0.92288  -0.80514  -0.78254
  Beta  occ. eigenvalues --   -0.74558  -0.69933  -0.68775  -0.68068  -0.60299
  Beta  occ. eigenvalues --   -0.56577  -0.52282  -0.50966  -0.48660  -0.46355
  Beta  occ. eigenvalues --   -0.45858  -0.44798  -0.43288  -0.42025  -0.41482
  Beta  occ. eigenvalues --   -0.40298  -0.39602  -0.38145  -0.37985  -0.37614
  Beta  occ. eigenvalues --   -0.36714  -0.36263  -0.35453  -0.34467  -0.33575
  Beta  occ. eigenvalues --   -0.32085  -0.31957  -0.30484  -0.26555
  Beta virt. eigenvalues --   -0.03492  -0.01597  -0.00830  -0.00170   0.01167
  Beta virt. eigenvalues --    0.01467   0.02185   0.02502   0.02805   0.03415
  Beta virt. eigenvalues --    0.04005   0.04369   0.04496   0.04770   0.05438
  Beta virt. eigenvalues --    0.05766   0.06551   0.07783   0.07860   0.08028
  Beta virt. eigenvalues --    0.08442   0.08895   0.09099   0.10469   0.10810
  Beta virt. eigenvalues --    0.10938   0.11291   0.11837   0.12006   0.12246
  Beta virt. eigenvalues --    0.12645   0.13259   0.13617   0.13983   0.14277
  Beta virt. eigenvalues --    0.14416   0.14525   0.14841   0.15294   0.15524
  Beta virt. eigenvalues --    0.15990   0.16125   0.16647   0.16678   0.16725
  Beta virt. eigenvalues --    0.17023   0.17748   0.18207   0.18546   0.19023
  Beta virt. eigenvalues --    0.19367   0.19530   0.19635   0.19928   0.20524
  Beta virt. eigenvalues --    0.20753   0.20975   0.21419   0.21571   0.22524
  Beta virt. eigenvalues --    0.22941   0.23738   0.24705   0.25323   0.25691
  Beta virt. eigenvalues --    0.26142   0.26307   0.27496   0.27863   0.28598
  Beta virt. eigenvalues --    0.29070   0.29514   0.29864   0.30854   0.31046
  Beta virt. eigenvalues --    0.31868   0.32338   0.33011   0.33149   0.34355
  Beta virt. eigenvalues --    0.34467   0.34833   0.35215   0.35816   0.37007
  Beta virt. eigenvalues --    0.37256   0.38881   0.39481   0.39950   0.40657
  Beta virt. eigenvalues --    0.43097   0.44411   0.45378   0.45876   0.47164
  Beta virt. eigenvalues --    0.47922   0.48985   0.49750   0.50807   0.53450
  Beta virt. eigenvalues --    0.54015   0.54455   0.55925   0.56598   0.57779
  Beta virt. eigenvalues --    0.58423   0.59043   0.59476   0.60777   0.62167
  Beta virt. eigenvalues --    0.62559   0.63787   0.64710   0.65612   0.66087
  Beta virt. eigenvalues --    0.66233   0.67084   0.67576   0.68279   0.68936
  Beta virt. eigenvalues --    0.69595   0.69752   0.70808   0.71749   0.72320
  Beta virt. eigenvalues --    0.73220   0.73759   0.74911   0.75765   0.76286
  Beta virt. eigenvalues --    0.76997   0.77397   0.78376   0.78875   0.79246
  Beta virt. eigenvalues --    0.80946   0.82412   0.84429   0.85781   0.89939
  Beta virt. eigenvalues --    0.91929   0.94665   0.96268   0.98017   0.99198
  Beta virt. eigenvalues --    0.99863   1.03691   1.05001   1.06115   1.07392
  Beta virt. eigenvalues --    1.09166   1.10103   1.13472   1.16176   1.17697
  Beta virt. eigenvalues --    1.18771   1.21100   1.21672   1.25439   1.29000
  Beta virt. eigenvalues --    1.30632   1.32620   1.37218   1.38181   1.40026
  Beta virt. eigenvalues --    1.41278   1.44045   1.45662   1.46365   1.47542
  Beta virt. eigenvalues --    1.47571   1.48753   1.49872   1.50556   1.51586
  Beta virt. eigenvalues --    1.51923   1.54678   1.55013   1.55813   1.56261
  Beta virt. eigenvalues --    1.58147   1.58829   1.58924   1.61159   1.61611
  Beta virt. eigenvalues --    1.61772   1.63558   1.64700   1.65936   1.66541
  Beta virt. eigenvalues --    1.66989   1.67843   1.68273   1.69172   1.71093
  Beta virt. eigenvalues --    1.71827   1.72046   1.75540   1.75995   1.76033
  Beta virt. eigenvalues --    1.77555   1.78461   1.79583   1.80079   1.81648
  Beta virt. eigenvalues --    1.82364   1.86597   1.88695   1.91889   1.93280
  Beta virt. eigenvalues --    1.94399   1.95234   1.97466   1.98521   2.01569
  Beta virt. eigenvalues --    2.01866   2.02192   2.04435   2.06074   2.09400
  Beta virt. eigenvalues --    2.11379   2.12862   2.14420   2.14954   2.18437
  Beta virt. eigenvalues --    2.19194   2.20837   2.23559   2.27179   2.28860
  Beta virt. eigenvalues --    2.31080   2.31772   2.33637   2.35639   2.38139
  Beta virt. eigenvalues --    2.41288   2.43829   2.45178   2.46520   2.47344
  Beta virt. eigenvalues --    2.49446   2.50944   2.51197   2.51653   2.52142
  Beta virt. eigenvalues --    2.52517   2.53928   2.55125   2.55880   2.56044
  Beta virt. eigenvalues --    2.56636   2.57969   2.59435   2.60039   2.60423
  Beta virt. eigenvalues --    2.61645   2.64094   2.64733   2.65254   2.67351
  Beta virt. eigenvalues --    2.68774   2.71241   2.72124   2.72827   2.74680
  Beta virt. eigenvalues --    2.75945   2.77010   2.77493   2.79614   2.81056
  Beta virt. eigenvalues --    2.82951   2.86172   2.89438   2.90184   2.93237
  Beta virt. eigenvalues --    2.94516   2.97907   3.01607   3.01817   3.03371
  Beta virt. eigenvalues --    3.03771   3.08572   3.09737   3.12752   3.13856
  Beta virt. eigenvalues --    3.16827   3.21794   3.23152   3.24545   3.26855
  Beta virt. eigenvalues --    3.34637   3.45201   3.58850   3.63871   3.72841
  Beta virt. eigenvalues --    3.74989   3.77868   3.79202   3.80055   3.80812
  Beta virt. eigenvalues --    3.81792   3.84198   3.84968   3.85231   3.87097
  Beta virt. eigenvalues --    3.89506   3.89845   4.08927   4.13202   4.21056
  Beta virt. eigenvalues --    4.28227   4.31534   4.32582   4.37970   4.91363
  Beta virt. eigenvalues --    5.04115   5.14618   5.39846   5.52719   5.69378
  Beta virt. eigenvalues --   23.73918  23.81494  23.88508  23.91710  23.93416
  Beta virt. eigenvalues --   23.97317  23.98235  23.98896  23.99315  49.86702
  Beta virt. eigenvalues --   49.93196
          Condensed to atoms (all electrons):
              1          2          3          4          5          6
     1  C    6.844751   0.499775   0.384002   0.367536   0.908423  -0.027934
     2  H    0.499775   0.537946  -0.042997  -0.019245  -0.025601  -0.007724
     3  H    0.384002  -0.042997   0.567553  -0.031475   0.021954   0.013146
     4  H    0.367536  -0.019245  -0.031475   0.555444   0.005894  -0.006218
     5  C    0.908423  -0.025601   0.021954   0.005894  11.511463   0.439837
     6  H   -0.027934  -0.007724   0.013146  -0.006218   0.439837   0.584094
     7  H    0.006634   0.007101  -0.013977   0.005355   0.399608  -0.098570
     8  C   -0.545143  -0.016479  -0.005180   0.007644  -3.117635  -0.111090
     9  H   -0.000345  -0.000183  -0.001164   0.000363  -0.187826  -0.011903
    10  H    0.051279   0.003959  -0.000606   0.000118   0.016664  -0.006322
    11  C   -0.038363  -0.010927   0.004364  -0.001392   1.023980   0.085702
    12  H   -0.000367  -0.000814   0.001213  -0.000411   0.014179   0.010036
    13  H    0.005946   0.001511  -0.000623   0.000349  -0.008612  -0.003524
    14  C   -0.022958   0.002266  -0.001970   0.000267  -0.918038  -0.066569
    15  C   -0.001379   0.000388  -0.000237   0.000012  -0.086635   0.003418
    16  H   -0.000295  -0.000061   0.000015  -0.000002  -0.001783   0.002150
    17  H    0.000153   0.000018   0.000005  -0.000007  -0.001799  -0.000524
    18  H    0.000301   0.000116  -0.000066   0.000031   0.001867  -0.001626
    19  C   -0.680864  -0.028987   0.036864  -0.026179  -0.841079   0.078857
    20  H   -0.031235  -0.000506   0.001667   0.000599   0.009207   0.002410
    21  H   -0.010941  -0.000077   0.004363   0.000998   0.012252  -0.002204
    22  H   -0.036012  -0.004749  -0.000760   0.000431  -0.125772   0.000503
    23  C   -0.000584  -0.000374  -0.000080   0.000187   0.050015  -0.006959
    24  H    0.000093   0.000000   0.000007  -0.000009   0.009030   0.000027
    25  H   -0.000054   0.000015  -0.000045   0.000014  -0.008779  -0.000202
    26  H   -0.002592  -0.000119   0.000154  -0.000012  -0.020487   0.001290
    27  C   -1.186300  -0.049279  -0.100693  -0.001761  -2.632307  -0.048012
    28  O   -0.066405  -0.015464   0.021053  -0.012168  -0.068254   0.004136
    29  O   -0.095161  -0.001402   0.001579  -0.001721  -0.330954  -0.002484
    30  H    0.049904  -0.002754   0.000905  -0.004163  -0.023152   0.004144
              7          8          9         10         11         12
     1  C    0.006634  -0.545143  -0.000345   0.051279  -0.038363  -0.000367
     2  H    0.007101  -0.016479  -0.000183   0.003959  -0.010927  -0.000814
     3  H   -0.013977  -0.005180  -0.001164  -0.000606   0.004364   0.001213
     4  H    0.005355   0.007644   0.000363   0.000118  -0.001392  -0.000411
     5  C    0.399608  -3.117635  -0.187826   0.016664   1.023980   0.014179
     6  H   -0.098570  -0.111090  -0.011903  -0.006322   0.085702   0.010036
     7  H    0.662975  -0.006210   0.016355   0.002786  -0.070677  -0.007940
     8  C   -0.006210   8.902723   0.540649   0.358305  -1.499872  -0.133246
     9  H    0.016355   0.540649   0.555688  -0.080926  -0.073759   0.014065
    10  H    0.002786   0.358305  -0.080926   0.741687  -0.077060  -0.027823
    11  C   -0.070677  -1.499872  -0.073759  -0.077060   9.168048   0.636600
    12  H   -0.007940  -0.133246   0.014065  -0.027823   0.636600   0.643947
    13  H    0.005692  -0.042462  -0.011250   0.029200   0.397233  -0.061434
    14  C    0.040066   0.791269   0.059949   0.008995  -2.068303  -0.200762
    15  C   -0.004567   0.186686  -0.017608  -0.001548  -0.488277  -0.045498
    16  H   -0.001241  -0.045081  -0.000445   0.000368   0.045939   0.009137
    17  H    0.000184   0.010066  -0.000737   0.000180  -0.020624  -0.004540
    18  H    0.001103   0.003013   0.001232   0.000338  -0.025388   0.000659
    19  C   -0.108035   0.756210  -0.018596  -0.078272   0.042887   0.005786
    20  H   -0.003677   0.012044   0.001861  -0.000908   0.009872   0.000635
    21  H   -0.003379   0.009876  -0.000622  -0.001579   0.000048   0.000256
    22  H    0.004536   0.099548   0.002709  -0.016469  -0.029964   0.000327
    23  C    0.019164   0.064666   0.018190  -0.031210  -0.088202  -0.005024
    24  H   -0.000015   0.004733  -0.001045  -0.003298   0.009540  -0.001150
    25  H    0.000755  -0.015706   0.000883   0.003170  -0.023780   0.015179
    26  H   -0.003358   0.027704   0.001744  -0.012164  -0.046032  -0.014546
    27  C    0.010066  -0.020874   0.006816   0.024306  -0.091178   0.004113
    28  O   -0.002447   0.049164   0.004903   0.008392  -0.010318   0.001006
    29  O   -0.002529   0.227451   0.008955  -0.004409  -0.009322  -0.000937
    30  H   -0.003127  -0.019025   0.000664  -0.001420   0.004262   0.000419
             13         14         15         16         17         18
     1  C    0.005946  -0.022958  -0.001379  -0.000295   0.000153   0.000301
     2  H    0.001511   0.002266   0.000388  -0.000061   0.000018   0.000116
     3  H   -0.000623  -0.001970  -0.000237   0.000015   0.000005  -0.000066
     4  H    0.000349   0.000267   0.000012  -0.000002  -0.000007   0.000031
     5  C   -0.008612  -0.918038  -0.086635  -0.001783  -0.001799   0.001867
     6  H   -0.003524  -0.066569   0.003418   0.002150  -0.000524  -0.001626
     7  H    0.005692   0.040066  -0.004567  -0.001241   0.000184   0.001103
     8  C   -0.042462   0.791269   0.186686  -0.045081   0.010066   0.003013
     9  H   -0.011250   0.059949  -0.017608  -0.000445  -0.000737   0.001232
    10  H    0.029200   0.008995  -0.001548   0.000368   0.000180   0.000338
    11  C    0.397233  -2.068303  -0.488277   0.045939  -0.020624  -0.025388
    12  H   -0.061434  -0.200762  -0.045498   0.009137  -0.004540   0.000659
    13  H    0.602504  -0.047058   0.021464   0.000071   0.002883  -0.007840
    14  C   -0.047058   7.809484   0.121795  -0.051191  -0.078060  -0.048633
    15  C    0.021464   0.121795   6.122828   0.331870   0.427197   0.429939
    16  H    0.000071  -0.051191   0.331870   0.650393  -0.064139  -0.048584
    17  H    0.002883  -0.078060   0.427197  -0.064139   0.596825  -0.017786
    18  H   -0.007840  -0.048633   0.429939  -0.048584  -0.017786   0.562642
    19  C   -0.009182   0.004102   0.014327   0.000592  -0.000026  -0.002932
    20  H   -0.000226  -0.002383  -0.000346   0.000059   0.000004  -0.000156
    21  H   -0.000005  -0.000906   0.000168   0.000012  -0.000012  -0.000045
    22  H   -0.000544   0.011010   0.001369  -0.000136   0.000089   0.000179
    23  C   -0.014751   0.046520  -0.399697   0.016947   0.009117  -0.000513
    24  H   -0.002433  -0.090416   0.017280  -0.004783   0.008902   0.001146
    25  H   -0.001460  -0.050464   0.018664   0.022173  -0.006034  -0.002635
    26  H    0.002587  -0.025763   0.021866  -0.004094   0.002643  -0.002504
    27  C   -0.012789  -0.146559   0.004440   0.001659  -0.002341   0.003770
    28  O   -0.001092  -0.001661   0.000717  -0.000055   0.000209  -0.000798
    29  O    0.002280   0.008346  -0.000114   0.000003   0.000013   0.000085
    30  H   -0.000873  -0.000244  -0.000306   0.000020  -0.000013   0.000030
             19         20         21         22         23         24
     1  C   -0.680864  -0.031235  -0.010941  -0.036012  -0.000584   0.000093
     2  H   -0.028987  -0.000506  -0.000077  -0.004749  -0.000374   0.000000
     3  H    0.036864   0.001667   0.004363  -0.000760  -0.000080   0.000007
     4  H   -0.026179   0.000599   0.000998   0.000431   0.000187  -0.000009
     5  C   -0.841079   0.009207   0.012252  -0.125772   0.050015   0.009030
     6  H    0.078857   0.002410  -0.002204   0.000503  -0.006959   0.000027
     7  H   -0.108035  -0.003677  -0.003379   0.004536   0.019164  -0.000015
     8  C    0.756210   0.012044   0.009876   0.099548   0.064666   0.004733
     9  H   -0.018596   0.001861  -0.000622   0.002709   0.018190  -0.001045
    10  H   -0.078272  -0.000908  -0.001579  -0.016469  -0.031210  -0.003298
    11  C    0.042887   0.009872   0.000048  -0.029964  -0.088202   0.009540
    12  H    0.005786   0.000635   0.000256   0.000327  -0.005024  -0.001150
    13  H   -0.009182  -0.000226  -0.000005  -0.000544  -0.014751  -0.002433
    14  C    0.004102  -0.002383  -0.000906   0.011010   0.046520  -0.090416
    15  C    0.014327  -0.000346   0.000168   0.001369  -0.399697   0.017280
    16  H    0.000592   0.000059   0.000012  -0.000136   0.016947  -0.004783
    17  H   -0.000026   0.000004  -0.000012   0.000089   0.009117   0.008902
    18  H   -0.002932  -0.000156  -0.000045   0.000179  -0.000513   0.001146
    19  C    6.515439   0.474468   0.393770   0.449952  -0.019892  -0.000454
    20  H    0.474468   0.534696  -0.028561  -0.022897  -0.000979  -0.000128
    21  H    0.393770  -0.028561   0.541373  -0.021305  -0.000276  -0.000003
    22  H    0.449952  -0.022897  -0.021305   0.533196   0.001212   0.000105
    23  C   -0.019892  -0.000979  -0.000276   0.001212   5.825510   0.412022
    24  H   -0.000454  -0.000128  -0.000003   0.000105   0.412022   0.586907
    25  H   -0.000526   0.000201  -0.000020  -0.000261   0.378978  -0.062657
    26  H    0.008614  -0.000533   0.000205   0.001459   0.404721  -0.018327
    27  C   -0.282412  -0.130131  -0.060487  -0.021866   0.009635   0.000732
    28  O   -0.071289   0.022240  -0.006018  -0.009280  -0.002250  -0.000076
    29  O    0.118567   0.001666  -0.000139   0.000596  -0.000105  -0.000064
    30  H   -0.009675   0.000047   0.000622   0.000423   0.000106   0.000006
             25         26         27         28         29         30
     1  C   -0.000054  -0.002592  -1.186300  -0.066405  -0.095161   0.049904
     2  H    0.000015  -0.000119  -0.049279  -0.015464  -0.001402  -0.002754
     3  H   -0.000045   0.000154  -0.100693   0.021053   0.001579   0.000905
     4  H    0.000014  -0.000012  -0.001761  -0.012168  -0.001721  -0.004163
     5  C   -0.008779  -0.020487  -2.632307  -0.068254  -0.330954  -0.023152
     6  H   -0.000202   0.001290  -0.048012   0.004136  -0.002484   0.004144
     7  H    0.000755  -0.003358   0.010066  -0.002447  -0.002529  -0.003127
     8  C   -0.015706   0.027704  -0.020874   0.049164   0.227451  -0.019025
     9  H    0.000883   0.001744   0.006816   0.004903   0.008955   0.000664
    10  H    0.003170  -0.012164   0.024306   0.008392  -0.004409  -0.001420
    11  C   -0.023780  -0.046032  -0.091178  -0.010318  -0.009322   0.004262
    12  H    0.015179  -0.014546   0.004113   0.001006  -0.000937   0.000419
    13  H   -0.001460   0.002587  -0.012789  -0.001092   0.002280  -0.000873
    14  C   -0.050464  -0.025763  -0.146559  -0.001661   0.008346  -0.000244
    15  C    0.018664   0.021866   0.004440   0.000717  -0.000114  -0.000306
    16  H    0.022173  -0.004094   0.001659  -0.000055   0.000003   0.000020
    17  H   -0.006034   0.002643  -0.002341   0.000209   0.000013  -0.000013
    18  H   -0.002635  -0.002504   0.003770  -0.000798   0.000085   0.000030
    19  C   -0.000526   0.008614  -0.282412  -0.071289   0.118567  -0.009675
    20  H    0.000201  -0.000533  -0.130131   0.022240   0.001666   0.000047
    21  H   -0.000020   0.000205  -0.060487  -0.006018  -0.000139   0.000622
    22  H   -0.000261   0.001459  -0.021866  -0.009280   0.000596   0.000423
    23  C    0.378978   0.404721   0.009635  -0.002250  -0.000105   0.000106
    24  H   -0.062657  -0.018327   0.000732  -0.000076  -0.000064   0.000006
    25  H    0.635458  -0.044897   0.001675  -0.000027   0.000017  -0.000002
    26  H   -0.044897   0.585655  -0.015215  -0.000118   0.000291   0.000004
    27  C    0.001675  -0.015215  10.540642   0.107961   0.091666   0.000130
    28  O   -0.000027  -0.000118   0.107961   8.075144  -0.014895  -0.019910
    29  O    0.000017   0.000291   0.091666  -0.014895   7.986323   0.204539
    30  H   -0.000002   0.000004   0.000130  -0.019910   0.204539   0.563606
 Mulliken atomic charges:
              1
     1  C   -0.371866
     2  H    0.174647
     3  H    0.141029
     4  H    0.159520
     5  C   -0.025660
     6  H    0.172113
     7  H    0.147369
     8  C   -0.473750
     9  H    0.171386
    10  H    0.094266
    11  C   -0.755037
    12  H    0.146934
    13  H    0.154438
    14  C    0.917870
    15  C   -0.678217
    16  H    0.140484
    17  H    0.138151
    18  H    0.153054
    19  C   -0.722035
    20  H    0.150989
    21  H    0.172634
    22  H    0.182369
    23  C   -0.686093
    24  H    0.134330
    25  H    0.140366
    26  H    0.151824
    27  C   -0.005407
    28  O    0.007601
    29  O   -0.188143
    30  H    0.254835
 Sum of Mulliken atomic charges =   0.00000
 Mulliken charges with hydrogens summed into heavy atoms:
              1
     1  C    0.103330
     5  C    0.293822
     8  C   -0.208098
    11  C   -0.453665
    14  C    0.917870
    15  C   -0.246529
    19  C   -0.216043
    23  C   -0.259573
    27  C   -0.005407
    28  O    0.007601
    29  O    0.066692
 Sum of Mulliken charges with hydrogens summed into heavy atoms =   0.00000
          Atomic-Atomic Spin Densities.
              1          2          3          4          5          6
     1  C    0.006352   0.000458   0.000726  -0.000159   0.015407  -0.002200
     2  H    0.000458  -0.000110   0.000029   0.000065   0.000821   0.000027
     3  H    0.000726   0.000029   0.000000  -0.000019   0.001112  -0.000110
     4  H   -0.000159   0.000065  -0.000019   0.000301   0.001694  -0.000129
     5  C    0.015407   0.000821   0.001112   0.001694   0.136103  -0.019276
     6  H   -0.002200   0.000027  -0.000110  -0.000129  -0.019276   0.002179
     7  H    0.000112  -0.000003   0.000018   0.000069   0.002038  -0.000265
     8  C    0.002469  -0.000334   0.000061   0.000245  -0.031733  -0.006761
     9  H   -0.000162  -0.000024  -0.000020   0.000010  -0.004039   0.000835
    10  H   -0.002162   0.000002  -0.000097  -0.000039  -0.019337   0.001227
    11  C   -0.001895  -0.000341  -0.000515   0.000315  -0.039121   0.013435
    12  H   -0.000418  -0.000080  -0.000034   0.000006  -0.002915   0.003520
    13  H    0.000130   0.000009  -0.000005   0.000014   0.004682   0.000302
    14  C    0.003712  -0.000230   0.000069   0.000153   0.070047  -0.000468
    15  C    0.000428   0.000002   0.000033  -0.000008   0.005148  -0.001124
    16  H   -0.000102  -0.000010  -0.000005   0.000002  -0.000385   0.000952
    17  H    0.000044   0.000004   0.000001  -0.000001   0.000879  -0.000298
    18  H    0.000122   0.000007   0.000002  -0.000002   0.001549  -0.000670
    19  C   -0.000228  -0.000129   0.000131  -0.000002  -0.004760   0.000727
    20  H   -0.001560  -0.000059  -0.000118  -0.000006  -0.008193   0.000530
    21  H    0.000483   0.000001   0.000050  -0.000094   0.000064   0.000014
    22  H    0.001826   0.000016   0.000102  -0.000006   0.007308  -0.000389
    23  C   -0.000089   0.000032   0.000002  -0.000011  -0.003493  -0.001201
    24  H    0.000031   0.000003   0.000003  -0.000002   0.000008  -0.000197
    25  H   -0.000104  -0.000008  -0.000008   0.000003   0.000210   0.000648
    26  H    0.000287   0.000002   0.000013  -0.000001   0.003762  -0.000386
    27  C   -0.023915  -0.000178  -0.001449  -0.002237  -0.130733   0.010784
    28  O    0.000962   0.000014   0.000040   0.000020   0.003127  -0.000186
    29  O   -0.000667   0.000001  -0.000033   0.000053  -0.001532   0.000244
    30  H    0.000011  -0.000009  -0.000002   0.000005  -0.000176   0.000028
              7          8          9         10         11         12
     1  C    0.000112   0.002469  -0.000162  -0.002162  -0.001895  -0.000418
     2  H   -0.000003  -0.000334  -0.000024   0.000002  -0.000341  -0.000080
     3  H    0.000018   0.000061  -0.000020  -0.000097  -0.000515  -0.000034
     4  H    0.000069   0.000245   0.000010  -0.000039   0.000315   0.000006
     5  C    0.002038  -0.031733  -0.004039  -0.019337  -0.039121  -0.002915
     6  H   -0.000265  -0.006761   0.000835   0.001227   0.013435   0.003520
[...]
 -0.00001988,-0.00001906,0.00000808,-0.00000441,-0.00006883,0.00167618,
 -0.00254996,-0.00095501,0.00001172,0.00017033,0.00018997,0.00052002,0.
 00014014,0.00060827,0.01423514,0.00148290,0.01797156,0.00018224,0.0011
 2256,0.00143311,-0.00002893,-0.00030186,-0.00008655,-0.00018701,-0.000
 22618,-0.00064763,-0.00014698,0.00031853,-0.00011633,0.00000919,-0.000
 01792,-0.00000997,0.00000148,0.00000130,0.00000214,0.00000814,0.000007
 31,-0.00000598,-0.00000337,0.00000019,0.00000601,-0.00244804,-0.049698
 12,-0.00181050,-0.00125449,0.04851574,-0.00002500,0.00000239,0.0000261
 6,0.00000676,-0.00000089,0.00000015,0.00000669,0.00000103,-0.00000058,
 -0.00002210,0.00000223,0.00000076,-0.00004031,0.00002131,0.00007558,0.
 00000225,-0.00001396,-0.00000602,0.00000869,0.00000202,-0.00000540,0.0
 0023317,0.00011436,-0.00018409,-0.00006670,-0.00000714,0.00004592,0.00
 001818,-0.00001470,0.00002451,0.00127667,0.00014043,0.00031568,0.00027
 602,0.00003852,0.00011149,-0.00010473,0.00012149,-0.00007017,-0.000176
 67,-0.00016179,0.00303487,0.00040072,-0.00047062,0.00049332,0.00005115
 ,0.00021566,-0.00030983,-0.00000652,0.00055566,0.00034430,0.00022519,0
 .00001780,0.00033656,-0.00001589,0.00000764,0.00001512,0.00000629,0.00
 000442,-0.00000483,-0.00001835,-0.00000263,0.00000740,0.00000856,0.000
 00438,-0.00001663,-0.11876060,-0.00276738,-0.22077472,0.12946482,0.003
 58042,0.24105713,-0.00004932,0.00001067,0.00004399,0.00000655,0.000006
 03,0.00000155,0.00000535,-0.00000660,0.00000070,-0.00003559,0.00000332
 ,-0.00000539,-0.00015474,-0.00002532,0.00016433,0.00000100,0.00000744,
 -0.00001146,-0.00002483,-0.00003641,-0.00001652,-0.00027068,-0.0004394
 0,-0.00024896,0.00017327,0.00000662,-0.00013742,0.00006309,-0.00001373
 ,0.00001013,0.00122606,0.00175230,0.00023817,-0.00040297,-0.00045878,-
 0.00043248,-0.00056035,-0.00003523,-0.00027674,-0.01931837,0.00717202,
 0.01354643,-0.00010390,-0.00101160,-0.00071243,0.00051817,0.00116438,0
 .00012129,0.00011962,0.00018369,0.00021348,0.00000070,0.00035079,-0.00
 004581,-0.00001236,0.00001428,0.00002019,0.00000738,0.00000029,-0.0000
 0447,-0.00002354,-0.00000274,0.00000713,0.00000786,0.00000523,-0.00002
 681,-0.12937796,-0.02106070,0.11404164,0.01117561,0.00151136,-0.013195
 03,0.14685245,0.00002528,0.00000103,-0.00002447,-0.00000475,0.00000136
 ,-0.00000250,-0.00000260,-0.00000014,0.00000109,0.00001805,-0.00000221
 ,0.00000309,0.00014707,0.00004488,-0.00007988,-0.00001537,0.00000720,-
 0.00000719,0.00001068,0.00000709,0.00001987,0.00033052,0.00003794,0.00
 029028,-0.00006572,0.00004708,0.00002361,0.00001092,0.00003439,-0.0000
 8053,-0.00094647,-0.00075240,-0.00057421,0.00001651,0.00024095,0.00031
 384,0.00028267,-0.00002793,0.00020460,0.01775461,-0.00016020,-0.017853
 15,-0.00046043,0.00113263,0.00087614,-0.00050515,-0.00082209,0.0003297
 5,0.00018086,-0.00012653,-0.00001932,-0.00012339,-0.00016843,0.0003136
 4,0.00001205,-0.00000596,-0.00000214,0.00000509,0.00000262,0.00000738,
 0.00000459,0.00000560,-0.00000507,-0.00000311,-0.00001049,0.00000025,-
 0.01266938,-0.04476743,0.01475129,0.00030231,-0.00001237,-0.00090757,0
 .01377652,0.04885339,0.00003845,-0.00000872,-0.00003367,-0.00000519,-0
 .00000452,0.00000095,-0.00000568,0.00000397,-0.00000025,0.00002649,-0.
 00000227,0.00000316,0.00007035,-0.00000336,-0.00019847,-0.00000494,-0.
 00000906,0.00001719,0.00000727,0.00001932,0.00001358,0.00047603,0.0000
 1150,0.00023811,-0.00006548,-0.00001540,-0.00001012,0.00000485,0.00000
 417,-0.00000951,0.00039532,0.00023710,-0.00097070,0.00022016,-0.000082
 96,-0.00004093,0.00014462,-0.00001931,0.00006163,0.00282800,-0.0066176
 5,0.00433280,0.00020029,-0.00004282,0.00041106,-0.00001876,-0.00056663
 ,-0.00029005,0.00002498,0.00022479,-0.00024132,-0.00000085,-0.00029163
 ,0.00006993,0.00000414,-0.00001345,-0.00001736,-0.00000602,-0.00000101
 ,0.00000421,0.00001960,0.00000203,-0.00000560,-0.00000584,-0.00000314,
 0.00002133,0.10610654,0.02337864,-0.18012089,0.01689052,0.00394938,-0.
 02346327,-0.12555583,-0.02068214,0.19863056,0.00002097,-0.00000623,-0.
 00002060,-0.00000358,-0.00000065,0.00000015,-0.00000438,0.00000118,-0.
 00000044,0.00001670,-0.00000115,0.00000070,0.00003341,-0.00006792,-0.0
 0004955,0.00002105,-0.00000053,0.00001342,-0.00001846,0.00000959,-0.00
 001190,0.00017117,0.00018420,0.00012659,0.00006125,-0.00004315,0.00000
 090,-0.00011103,-0.00007144,0.00012224,0.00079604,0.00049298,0.0001929
 1,0.00003480,-0.00008504,-0.00024666,0.00017955,-0.00029918,0.00007303
 ,0.01015667,0.02116451,0.00330859,-0.00284133,0.00257742,-0.00023811,0
 .00006250,0.00021471,-0.00004592,0.00002346,-0.00008902,0.00024438,0.0
 0032830,0.00094750,0.00045323,0.00000896,-0.00000718,-0.00001678,-0.00
 000876,-0.00000492,0.00000274,0.00001506,-0.00000040,-0.00000383,-0.00
 000640,0.00000197,0.00001690,-0.09597399,-0.10158525,-0.01339930,-0.00
 803047,-0.01440972,0.00042404,-0.00980429,-0.01809300,-0.00180492,0.10
 487825,0.00001106,0.00000509,-0.00000977,-0.00000225,0.00000153,-0.000
 00676,0.00000490,0.00000468,0.00000575,0.00000165,-0.00000102,0.000005
 06,0.00012311,0.00002295,-0.00012409,-0.00003420,-0.00000078,-0.000021
 60,0.00004032,0.00002606,0.00004445,0.00044300,-0.00002427,0.00046831,
 -0.00017992,0.00009667,0.00005922,0.00013250,0.00002280,-0.00015286,-0
 .00125109,0.00082839,-0.00196778,0.00053219,0.00073264,0.00103428,-0.0
 0024895,0.00034123,0.00022988,-0.00863860,-0.02200334,-0.00511420,0.00
 405939,-0.00172958,0.00134817,-0.00025951,-0.00006223,0.00022492,0.000
 02869,0.00031256,0.00008208,-0.00035157,-0.00115107,-0.00036039,-0.000
 00192,-0.00000048,0.00001205,0.00001645,0.00001486,0.00000821,-0.00001
 145,0.00000588,-0.00000096,0.00000495,-0.00001635,-0.00001773,-0.10133
 919,-0.24990363,-0.01791151,0.00057598,0.00110884,-0.00048714,-0.00286
 326,-0.00355810,0.00052720,0.10917000,0.27491642,0.00000458,0.00001069
 ,-0.00000629,-0.00000334,0.00000330,-0.00000295,-0.00000194,-0.0000028
 3,0.00000181,0.00000421,-0.00000248,-0.00000046,0.00004809,0.00011351,
 -0.00004847,-0.00003323,0.00000522,-0.00002657,-0.00001856,-0.00002049
 ,0.00000091,-0.00003084,-0.00024528,0.00012843,0.00004246,0.00003961,-
 0.00004065,0.00010228,0.00009522,-0.00008815,0.00014854,0.00116898,0.0
 0004221,-0.00023699,0.00002653,-0.00013087,-0.00007659,-0.00015352,-0.
 00006058,0.00049140,-0.00309495,-0.00135841,0.00020097,-0.00073992,0.0
 0035937,-0.00006018,-0.00033095,0.00000707,0.00021810,0.00022565,0.000
 42291,0.00009640,-0.00031207,0.00036893,0.00001502,0.00000608,0.000011
 75,0.00000497,0.00000027,0.00000717,-0.00000321,0.00000288,-0.00000646
 ,-0.00000035,-0.00001305,-0.00001053,-0.01320340,-0.01732613,-0.047294
 07,-0.01089456,-0.02456254,-0.00100448,0.01236944,0.02304391,0.0015091
 4,0.01081552,0.02207946,0.04721388,-0.14208541,0.00858570,-0.04236022,
 0.00197613,0.00014239,0.00214536,0.00182497,0.00102537,0.00326815,-0.0
 2434190,-0.00007989,-0.01863774,-0.14142125,-0.00594837,0.03405950,-0.
 00217703,-0.00007534,0.00203569,0.00119832,-0.00171052,-0.00097783,-0.
 02791507,0.00060454,0.01102082,0.00090176,0.00043338,0.00069560,0.0012
 4952,-0.00026211,0.00057226,-0.00154961,-0.00033959,-0.00337630,0.0000
 8983,0.00030485,0.00006142,0.00017875,-0.00022098,0.00011025,-0.000448
 13,0.00016610,0.00047873,0.00000709,-0.00003892,0.00004097,0.00007117,
 0.00002998,-0.00004217,0.00008874,0.00001599,0.00008450,-0.00000775,-0
 .00012357,-0.00003977,-0.07979953,-0.00472440,0.00351322,-0.00193396,0
 .00141662,-0.00143130,-0.00373337,-0.02304803,0.02041318,0.00239135,0.
 01980059,-0.01673415,-0.00010559,0.00001397,0.00000665,0.00007882,0.00
 000492,0.00007923,0.00005117,-0.00001152,-0.00004380,-0.00004076,0.000
 04919,-0.00001245,0.47922172,0.00571070,-0.07569389,0.00656410,0.02247
 463,-0.00040944,0.01711776,-0.02134712,-0.00066471,-0.01696382,0.00290
 056,-0.00196132,0.00189566,-0.00166639,-0.07371167,0.00424834,-0.02378
 498,0.00046398,0.01564527,0.02281638,-0.00280711,-0.01564078,-0.000111
 05,-0.00073513,0.00273630,-0.00187923,-0.00066750,-0.00073556,0.000770
 78,-0.00041645,0.00006038,-0.00092155,-0.00120697,-0.00096243,0.000076
 96,0.00010543,0.00001416,0.00018785,0.00029840,-0.00023225,-0.00021435
 ,0.00069514,0.00027340,-0.00009813,0.00014677,0.00007161,0.00000388,-0
 .00004980,-0.00000333,-0.00000430,-0.00002148,-0.00003194,0.00003644,-
 0.00007263,0.00000096,-0.00740757,-0.11950798,0.05188502,-0.00260389,-
 0.02023728,0.01901811,-0.00008486,0.00074486,-0.00243735,0.00161154,0.
 00140308,-0.00290318,-0.00013512,-0.00010678,-0.00014670,-0.00006191,0
 .00005662,-0.00002116,-0.00002683,0.00000220,0.00002276,0.00002305,-0.
 00004832,-0.00001896,0.00223060,0.42818523,-0.04704606,0.01232093,-0.1
 0824067,-0.01523094,0.00015916,-0.01371190,-0.01005869,0.00138379,-0.0
 0999551,0.01558304,-0.00097713,0.00983160,0.03055495,0.00997250,-0.097
 23016,0.01860305,-0.00056829,-0.01410133,0.01204491,0.00020633,-0.0103
 5630,-0.01077740,0.00086162,0.01677072,-0.00098867,-0.00138363,-0.0005
 9159,-0.00071349,0.00104866,-0.00042619,-0.00449394,-0.00073202,-0.003
 95668,0.00036130,0.00005396,-0.00023068,0.00026563,-0.00015761,0.00000
 948,-0.00078869,0.00014103,0.00092234,-0.00025484,0.00031405,0.0000432
 4,-0.00008183,-0.00016507,0.00003156,-0.00007947,-0.00010222,-0.000120
 87,0.00010803,0.00000007,0.00000715,0.00652768,0.04707767,-0.12593038,
 -0.00163136,-0.01452595,0.01067669,0.00127267,0.01191246,-0.01228602,0
 .00216078,0.01616256,-0.01530636,-0.00017664,-0.00034721,-0.00025166,-
 0.00015681,0.00011529,-0.00008344,-0.00012286,0.00007792,0.00009839,0.
 00006311,0.00002055,0.00002828,0.00071747,-0.05271982,0.50335649,0.002
 41806,-0.02484693,-0.01875614,0.00096477,0.00055746,0.00046157,-0.0040
 0135,-0.00026188,-0.00529045,0.00338060,-0.00038949,0.00132540,0.00111
 277,0.02640305,0.01931072,0.00087540,-0.00069384,-0.00033306,-0.005297
 08,0.00059871,0.00430487,-0.00002720,-0.00066175,-0.00027544,-0.000389
 70,0.00161928,0.00119624,-0.00031086,0.00049781,-0.00004120,0.00046689
 ,0.00114888,0.00057653,-0.00036823,-0.00015619,0.00016415,0.00001608,-
 0.00006515,0.00002996,0.00031441,-0.00011730,0.00001464,-0.00002660,0.
 00004565,-0.00003500,-0.00006954,-0.00004994,0.00004048,-0.00006665,-0
 .00002124,-0.00006742,0.00002544,0.00010429,0.00003190,0.00166302,-0.0
 0363197,-0.00130730,-0.00073331,-0.00051333,0.00021326,0.00028029,-0.0
 0035057,-0.00045993,0.00006328,0.00059299,0.00014348,0.00002086,-0.000
 08944,-0.00005145,-0.00006855,0.00001460,-0.00005580,-0.00006342,0.000
 02229,0.00005630,0.00003585,-0.00001578,0.00001407,-0.05959765,0.00157
 475,0.00772236,0.08613545,-0.00620694,-0.01469782,-0.01438194,0.000720
 54,-0.00041775,0.00133641,-0.00242205,0.00052810,-0.00121415,0.0001683
 9,0.00054782,0.00091470,0.00811066,-0.01709080,-0.01397849,-0.00083729
 ,-0.00022205,0.00115141,0.00289462,0.00048911,-0.00119512,-0.00174401,
 0.00038946,-0.00035058,0.00067312,0.00038432,0.00013144,0.00017943,-0.
 00016037,0.00001542,0.00010030,0.00011589,0.00014295,-0.00012379,0.000
 14818,0.00014128,-0.00002682,-0.00002113,-0.00001409,-0.00002636,0.000
 04157,-0.00002583,0.00006886,-0.00006753,0.00001590,0.00002022,0.00002
 510,-0.00000343,0.00003431,0.00002482,0.00002987,-0.00000497,0.0000033
 4,-0.00000407,-0.00146425,-0.04382073,-0.00305443,-0.00025208,-0.00217
 453,0.00115729,0.00055571,0.00074673,-0.00131424,-0.00018399,0.0004416
 4,-0.00146033,0.00000964,0.00003512,0.00002307,0.00003411,-0.00000885,
 0.00002094,0.00001449,-0.00000970,-0.00001110,-0.00001362,0.00002039,-
 0.00001017,0.00593306,-0.08949664,-0.06473470,-0.01126162,0.33964168,-
 0.00290514,-0.03434665,-0.02333202,0.00141526,0.00079506,0.00021897,-0
 .00607185,0.00124070,-0.00491320,0.00057044,0.00044759,0.00192050,0.00
 458052,-0.03061283,-0.01884334,-0.00115907,0.00072581,0.00016423,0.005
 80153,0.00081993,-0.00331769,-0.00206248,-0.00020898,-0.00020338,0.000
 95630,0.00064027,0.00091873,0.00018260,-0.00006260,0.00011153,0.000325
 89,0.00030234,0.00029386,-0.00030297,0.00019876,0.00024989,-0.00002190
 ,-0.00004093,-0.00004847,-0.00002744,0.00005298,-0.00006434,0.00014247
 ,-0.00010486,0.00001117,0.00000577,0.00004046,0.00000331,0.00003814,0.
 00003915,0.00004389,-0.00003733,0.00002073,-0.00000923,0.00015600,0.01
 851212,0.01173044,0.00033929,0.00468333,-0.00292474,-0.00004660,0.0006
 4713,0.00093754,-0.00022917,0.00062738,0.00106285,0.00002714,0.0000550
 9,0.00003866,0.00004782,-0.00001404,0.00002903,0.00001023,-0.00001299,
 -0.00001030,-0.00001769,0.00003075,-0.00001667,0.00437901,-0.02224327,
 -0.14176363,-0.01747748,-0.01256634,0.29274778,-0.00037943,-0.00136094
 ,-0.00051658,-0.00021165,-0.00112485,0.00120563,0.00045058,-0.00050691
 ,0.00091963,-0.00005793,0.00008232,0.00000263,-0.00038729,0.00225711,0
 .00054749,-0.00033362,0.00129112,-0.00055082,0.00022686,0.00020641,-0.
 00044244,0.00003488,-0.00004876,-0.00028582,-0.00041238,0.00010938,0.0
 0000267,0.00008687,-0.00013777,0.00000215,0.00011699,-0.00003048,0.000
 06215,0.00000192,0.00003373,-0.00000453,-0.00001798,-0.00002896,-0.000
 02918,0.00000471,-0.00002224,-0.00000020,0.00005147,-0.00002145,-0.000
 01832,-0.00001433,0.00000307,0.00001205,-0.00000512,0.00000842,0.00000
 111,0.00000685,0.00000852,0.00001126,0.00029819,0.00148208,0.00065740,
 0.00113508,0.00044369,-0.00006245,0.00034852,0.00036509,-0.00046401,0.
 00022846,-0.00047842,0.00062099,0.00001449,0.00000311,0.00000105,0.000
 00084,-0.00000132,-0.00000254,-0.00001075,0.00000025,0.00000820,0.0000
 0155,0.00000366,-0.00000199,-0.00495130,-0.00010389,-0.00659678,-0.038
 50116,0.01724659,0.01089308,0.48398740,0.00004285,0.00203186,-0.000978
 19,-0.00105665,-0.00121475,-0.00046536,0.00067521,0.00021195,0.0010435
 4,-0.00042837,-0.00041732,0.00023037,0.00030842,0.00193850,-0.00131246
 ,0.00144303,-0.00153632,-0.00062579,-0.00082073,0.00024266,0.00085987,
 -0.00007536,-0.00071995,-0.00032210,0.00054326,0.00006801,0.00030355,-
 0.00012575,0.00034057,0.00007633,0.00004075,0.00021963,0.00025727,-0.0
 0007434,0.00002466,0.00006371,0.00001551,0.00001356,-0.00007988,-0.000
 05086,-0.00008766,-0.00014174,0.00011577,-0.00009517,-0.00001928,0.000
 03400,0.00004859,-0.00001746,0.00000706,0.00002685,0.00002877,-0.00006
 736,-0.00000612,0.00000929,0.00130287,-0.00717085,-0.01225043,-0.00037
 644,-0.00208514,0.00302789,-0.00029514,0.00064693,-0.00016213,0.000273
 17,0.00087023,-0.00004116,0.00002658,0.00005043,0.00005554,0.00002734,
 -0.00002125,0.00002152,0.00001934,-0.00000122,-0.00002368,-0.00001849,
 0.00005060,0.00001148,-0.00771977,-0.04002761,0.03020095,-0.01603446,-
 0.14928252,0.06974502,-0.16152841,0.28461700,-0.00150397,-0.00046418,-
 0.00215752,0.00018160,-0.00209102,0.00210963,0.00016423,-0.00131808,0.
 00106630,0.00003336,-0.00005142,0.00010076,0.00168375,-0.00043394,-0.0
 0003719,-0.00039712,-0.00176781,0.00072420,-0.00024984,-0.00055565,0.0
 0065831,0.00001793,-0.00029654,0.00001669,-0.00026475,0.00015043,-0.00
 016174,0.00022030,-0.00016649,0.00009203,0.00002021,0.00003477,-0.0000
 2849,-0.00000510,0.00001602,0.00000326,-0.00005377,-0.00005134,0.00004
 386,-0.00004299,-0.00003394,0.00001939,0.00003751,-0.00001013,-0.00000
 204,-0.00001861,0.00000892,0.00001557,0.00002684,-0.00000168,0.0000150
 9,-0.00001613,0.00000297,-0.00003682,-0.00008476,-0.00262630,0.0023350
 7,-0.00006064,-0.00013366,0.00009304,-0.00034977,-0.00053708,-0.000026
 64,0.00038521,-0.00076054,0.00020918,0.00001663,0.00001948,0.00000391,
 0.00001829,-0.00000356,0.00000866,-0.00000393,-0.00000527,0.00000531,-
 0.00000387,0.00000372,-0.00000690,-0.00105854,-0.00373779,0.01522598,0
 .02911754,0.08360414,-0.10940741,-0.09268313,-0.06623997,0.10963935,0.
 00026599,0.00011733,-0.00034504,0.00001293,-0.00023453,-0.00033741,-0.
 00022917,0.00011513,0.00008533,-0.00040680,-0.00029978,0.00011449,-0.0
 0025913,-0.00063554,-0.00012297,0.00001107,0.00017022,-0.00019025,0.00
 018223,0.00004498,-0.00019932,0.00003609,-0.00008857,-0.00013294,0.000
 02432,-0.00004519,0.00015952,-0.00004598,0.00008760,0.00002024,0.00002
 888,-0.00001917,0.00003266,-0.00000875,0.00001173,0.00000018,0.0000233
 5,0.00001219,-0.00003738,0.00000770,0.00001102,-0.00001224,0.00000095,
 -0.00001041,-0.00000714,0.00000310,0.00000289,-0.00000386,-0.00000970,
 0.00000609,0.00000137,0.00001033,-0.00000154,0.00001869,0.00005444,-0.
 00084393,-0.00096454,-0.00005984,-0.00039048,0.00019401,-0.00000937,0.
 00007250,0.00003172,-0.00003658,0.00014625,-0.00005223,-0.00000400,0.0
 0000044,0.00000137,-0.00000102,-0.00000001,0.00000184,0.00000480,0.000
 00061,-0.00000479,-0.00000210,0.00000066,0.00000157,0.00077898,0.00003
 305,0.00321351,0.01174810,-0.01219626,0.00048764,-0.44171270,0.1837969
 4,0.06487354,0.42959188,0.00019126,0.00033270,0.00024352,-0.00017018,-
 0.00030530,-0.00117612,-0.00015910,0.00047543,-0.00004483,-0.00038538,
 -0.00028187,0.00003734,-0.00039960,-0.00000163,0.00034289,0.00006778,0
 .00002287,-0.00010502,-0.00006391,0.00009968,0.00004087,-0.00004182,-0
 .00004913,-0.00001022,0.00013352,-0.00002660,0.00014157,-0.00006505,0.
 00008981,-0.00000534,-0.00001892,0.00003307,-0.00007350,-0.00001823,-0
 .00000322,0.00001525,0.00001935,-0.00000573,-0.00000586,0.00004671,0.0
 0001838,0.00005665,-0.00001024,0.00001709,-0.00000770,-0.00002904,-0.0
 0002014,0.00001614,-0.00002065,-0.00000381,-0.00002149,0.00003287,0.00
 003512,0.00000855,-0.00011256,-0.00107767,-0.00091695,-0.00030740,-0.0
 0025835,0.00028246,-0.00009624,-0.00010107,0.00012913,-0.00006976,0.00
 017918,-0.00021208,-0.00000551,-0.00003368,-0.00002699,-0.00002206,0.0
 0001036,-0.00001724,-0.00001816,0.00000684,0.00001800,0.00000978,-0.00
 001241,0.00000055,0.00354577,-0.00425899,0.00438414,0.02598114,-0.0261
 1284,0.00058891,0.14184986,-0.08873617,-0.00255407,-0.16986422,0.11996
 806,-0.00018863,-0.00069879,0.00139124,0.00017772,-0.00028249,-0.00099
 689,-0.00002324,0.00048044,-0.00023902,-0.00008576,-0.00004220,0.00000
 910,-0.00002302,-0.00019338,-0.00088118,0.00008177,-0.00014027,0.00055
 399,0.00007909,-0.00025971,0.00010661,-0.00019794,0.00011989,0.0000230
 9,0.00000640,-0.00000996,-0.00009929,0.00005551,-0.00004792,0.00000597
 ,-0.00004909,-0.00002630,-0.00000708,0.00001655,-0.00001989,-0.0000104
 8,-0.00001151,0.00000766,0.00002589,0.00001256,0.00001738,-0.00000181,
 -0.00003561,0.00001159,0.00001058,0.00001019,-0.00000532,-0.00000840,-
 0.00000592,-0.00000129,-0.00000669,0.00001792,-0.00001046,0.00000822,-
 0.00045422,0.00050656,0.00035302,0.00019699,0.00010285,-0.00008777,0.0
 0009345,0.00002303,0.00005545,-0.00000940,-0.00001362,0.00000242,-0.00
 001120,-0.00000483,-0.00000052,-0.00000442,0.00000193,-0.00000317,0.00
 000743,-0.00000025,-0.00000490,0.00000112,-0.00000926,0.00000065,0.001
 03227,-0.00075551,-0.00241855,-0.02057280,0.02563418,-0.00562795,0.086
 71132,-0.02325546,-0.02052083,-0.06682755,-0.00112858,0.02836830\\-0.0
 0000090,-0.00000063,0.00000389,-0.00000169,-0.00000055,0.00000379,-0.0
 0000147,-0.00000056,0.00000363,-0.00000036,-0.00000108,0.00000484,-0.0
 0000042,-0.00000008,0.00000053,-0.00000186,-0.00000020,0.00000109,-0.0
 0000125,-0.00000006,0.00000116,0.,-0.00000046,0.00000038,0.00000090,-0
 .00000023,0.00000009,0.00000113,0.00000024,-0.00000031,0.00000040,0.00
 000058,-0.00000332,-0.00000161,0.00000025,-0.00000185,-0.00000184,0.00
 000024,-0.00000136,-0.00000117,0.00000169,-0.00000078,-0.00000042,-0.0
 0000025,-0.00000286,0.00000013,0.00000155,-0.00000456,0.00000130,0.000
 00041,-0.00000437,0.00000109,0.00000032,-0.00000282,0.00000160,-0.0000
 0055,0.00000244,0.00000110,-0.00000039,0.00000240,0.00000201,-0.000000
 83,0.00000372,0.00000262,-0.00000071,0.00000185,0.00000154,0.00000089,
 -0.00000469,0.00000097,0.00000099,-0.00000508,-0.00000104,0.00000125,-
 0.00000492,-0.00000057,0.00000059,-0.00000396,-0.00000022,-0.00000090,
 0.00000231,0.00000082,-0.00000070,0.00000280,-0.00000026,-0.00000050,0
 .00000242,-0.00000054,-0.00000034,0.00000353\\\@
 Job cpu time:  0 days 10 hours 20 minutes 23.8 seconds.
 File lengths (MBytes):  RWF=  72272 Int=      0 D2E=      0 Chk=     32 Scr=      1
 Normal termination of Gaussian 09 at Sun Feb  9 08:10:32 2014.
