 Entering Gaussian System, Link 0=g09
 Initial command:
 /usr/caen/gaussian-09revc/g09/l1.exe /scratch/avioli_flux/hetanjin/scratch/Gau-69593.inp -scrdir=/scratch/avioli_flux/hetanjin/scratch/
 Entering Link 1 = /usr/caen/gaussian-09revc/g09/l1.exe PID=     69594.
  
 Copyright (c) 1988,1990,1992,1993,1995,1998,2003,2009,2011,
            Gaussian, Inc.  All Rights Reserved.
  
 This is part of the Gaussian(R) 09 program.  It is based on
 the Gaussian(R) 03 system (copyright 2003, Gaussian, Inc.),
 the Gaussian(R) 98 system (copyright 1998, Gaussian, Inc.),
 the Gaussian(R) 94 system (copyright 1995, Gaussian, Inc.),
 the Gaussian 92(TM) system (copyright 1992, Gaussian, Inc.),
 the Gaussian 90(TM) system (copyright 1990, Gaussian, Inc.),
 the Gaussian 88(TM) system (copyright 1988, Gaussian, Inc.),
 the Gaussian 86(TM) system (copyright 1986, Carnegie Mellon
 University), and the Gaussian 82(TM) system (copyright 1983,
 Carnegie Mellon University). Gaussian is a federally registered
 trademark of Gaussian, Inc.
  
 This software contains proprietary and confidential information,
 including trade secrets, belonging to Gaussian, Inc.
  
 This software is provided under written license and may be
 used, copied, transmitted, or stored only in accord with that
 written license.
  
 The following legend is applicable only to US Government
 contracts under FAR:
  
                    RESTRICTED RIGHTS LEGEND
  
 Use, reproduction and disclosure by the US Government is
 subject to restrictions as set forth in subparagraphs (a)
 and (c) of the Commercial Computer Software - Restricted
 Rights clause in FAR 52.227-19.
  
 Gaussian, Inc.
 340 Quinnipiac St., Bldg. 40, Wallingford CT 06492
  
  
 ---------------------------------------------------------------
 Warning -- This program may not be used in any manner that
 competes with the business of Gaussian, Inc. or will provide
 assistance to any competitor of Gaussian, Inc.  The licensee
 of this program is prohibited from giving any competitor of
 Gaussian, Inc. access to this program.  By using this program,
 the user acknowledges that Gaussian, Inc. is engaged in the
 business of creating and licensing software in the field of
 computational chemistry and represents and warrants to the
 licensee that it is not a competitor of Gaussian, Inc. and that
 it will not use this program in any manner prohibited above.
 ---------------------------------------------------------------
  

 Cite this work as:
 Gaussian 09, Revision C.01,
 M. J. Frisch, G. W. Trucks, H. B. Schlegel, G. E. Scuseria, 
 M. A. Robb, J. R. Cheeseman, G. Scalmani, V. Barone, B. Mennucci, 
 G. A. Petersson, H. Nakatsuji, M. Caricato, X. Li, H. P. Hratchian, 
 A. F. Izmaylov, J. Bloino, G. Zheng, J. L. Sonnenberg, M. Hada, 
 M. Ehara, K. Toyota, R. Fukuda, J. Hasegawa, M. Ishida, T. Nakajima, 
 Y. Honda, O. Kitao, H. Nakai, T. Vreven, J. A. Montgomery, Jr., 
 J. E. Peralta, F. Ogliaro, M. Bearpark, J. J. Heyd, E. Brothers, 
 K. N. Kudin, V. N. Staroverov, T. Keith, R. Kobayashi, J. Normand, 
 K. Raghavachari, A. Rendell, J. C. Burant, S. S. Iyengar, J. Tomasi, 
 M. Cossi, N. Rega, J. M. Millam, M. Klene, J. E. Knox, J. B. Cross, 
 V. Bakken, C. Adamo, J. Jaramillo, R. Gomperts, R. E. Stratmann, 
 O. Yazyev, A. J. Austin, R. Cammi, C. Pomelli, J. W. Ochterski, 
 R. L. Martin, K. Morokuma, V. G. Zakrzewski, G. A. Voth, 
 P. Salvador, J. J. Dannenberg, S. Dapprich, A. D. Daniels, 
 O. Farkas, J. B. Foresman, J. V. Ortiz, J. Cioslowski, 
 and D. J. Fox, Gaussian, Inc., Wallingford CT, 2010.
 
 ******************************************
 Gaussian 09:  EM64L-G09RevC.01 23-Sep-2011
                11-Mar-2014 
 ******************************************
 %mem=30GB
 %nprocshared=8
 Will use up to    8 processors via shared memory.
 %chk=C9H18O_24_26.chk
 --------------------------
 #p cbs-qb3 opt=calcfc freq
 --------------------------
 1/10=4,14=-1,18=20,19=15,26=3,38=1/1,3;
 2/9=110,12=2,17=6,18=5,40=1/2;
 3/5=4,6=6,7=700,11=2,16=1,25=1,30=1,71=2,74=-5/1,2,3;
 4//1;
 5/5=2,38=5/2;
 8/6=4,10=90,11=11/1;
 11/6=1,8=1,9=11,15=111,16=1/1,2,10;
 10/6=1,7=6,13=1/2;
 6/7=2,8=2,9=2,10=2,28=1/1;
 7/10=1,18=20,25=1/1,2,3,16;
 1/10=4,14=-1,18=20,19=15/3(2);
 2/9=110/2;
 99//99;
 2/9=110/2;
 3/5=4,6=6,7=700,11=2,16=1,25=1,30=1,71=1,74=-5/1,2,3;
 4/5=5,16=3/1;
 5/5=2,38=5/2;
 7//1,2,3,16;
 1/14=-1,18=20,19=15/3(-5);
 2/9=110/2;
 6/7=2,8=2,9=2,10=2,19=2,28=1/1;
 99/9=1/99;
 Leave Link    1 at Tue Mar 11 10:41:23 2014, MaxMem= 4026531840 cpu:       6.4
 (Enter /usr/caen/gaussian-09revc/g09/l101.exe)
 -----------------------------------------
 C9H18O_24_26 using cbs-qb3 to cal. energy
 -----------------------------------------
 Charge =  0 Multiplicity = 1
 Symbolic Z-Matrix:
 C                    -2.68803  -0.67307  -1.31145 
 H                    -1.90518  -1.11006  -1.93495 
 H                    -3.25326   0.0464   -1.91271 
 H                    -3.36832  -1.47311  -1.0053 
 C                    -0.87307   0.93318  -0.34296 
 H                    -0.51872   0.9236   -1.37511 
 H                    -0.98305   1.96526  -0.00697 
 C                    -0.09532  -0.01719   0.5924 
 H                     0.0793    0.41572   1.58705 
 C                     1.16838  -0.71551   0.11183 
 H                     1.05557  -0.9848   -0.94626 
 H                     1.23195  -1.6599    0.66519 
 C                     2.47639   0.07114   0.31812 
 H                     2.54946   0.31214   1.38764 
 C                     3.68668  -0.8001   -0.04613 
 H                     3.66627  -1.073    -1.10698 
 H                     4.62566  -0.27097   0.14181 
 H                     3.70111  -1.7265    0.53533 
 C                    -3.15403   0.58421   0.8301 
 H                    -3.74428   1.3449    0.30915 
 H                    -3.83056  -0.20564   1.16799 
 H                    -2.70044   1.04372   1.71181 
 C                     2.50773   1.39367  -0.46231 
 H                     3.45448   1.91764  -0.30055 
 H                     2.4086    1.21525  -1.53886 
 H                     1.7031    2.06897  -0.16066 
 C                    -2.0864    0.00432  -0.09024 
 O                    -1.22821  -0.92919   0.64828 
 
 NAtoms=     28 NQM=        0 NQMF=       0 NMMI=     28 NMMIF=      0
                NMic=       0 NMicF=      0.
                    Isotopes and Nuclear Properties:
 (Nuclear quadrupole moments (NQMom) in fm**2, nuclear magnetic moments (NMagM)
  in nuclear magnetons)

  Atom         1           2           3           4           5           6           7           8           9          10
 IAtWgt=          12           1           1           1          12           1           1          12           1          12
 AtmWgt=  12.0000000   1.0078250   1.0078250   1.0078250  12.0000000   1.0078250   1.0078250  12.0000000   1.0078250  12.0000000
 NucSpn=           0           1           1           1           0           1           1           0           1           0
 AtZEff=   0.0000000   0.0000000   0.0000000   0.0000000   0.0000000   0.0000000   0.0000000   0.0000000   0.0000000   0.0000000
 NQMom=    0.0000000   0.0000000   0.0000000   0.0000000   0.0000000   0.0000000   0.0000000   0.0000000   0.0000000   0.0000000
 NMagM=    0.0000000   2.7928460   2.7928460   2.7928460   0.0000000   2.7928460   2.7928460   0.0000000   2.7928460   0.0000000

  Atom        11          12          13          14          15          16          17          18          19          20
 IAtWgt=           1           1          12           1          12           1           1           1          12           1
 AtmWgt=   1.0078250   1.0078250  12.0000000   1.0078250  12.0000000   1.0078250   1.0078250   1.0078250  12.0000000   1.0078250
 NucSpn=           1           1           0           1           0           1           1           1           0           1
 AtZEff=   0.0000000   0.0000000   0.0000000   0.0000000   0.0000000   0.0000000   0.0000000   0.0000000   0.0000000   0.0000000
 NQMom=    0.0000000   0.0000000   0.0000000   0.0000000   0.0000000   0.0000000   0.0000000   0.0000000   0.0000000   0.0000000
 NMagM=    2.7928460   2.7928460   0.0000000   2.7928460   0.0000000   2.7928460   2.7928460   2.7928460   0.0000000   2.7928460

  Atom        21          22          23          24          25          26          27          28
 IAtWgt=           1           1          12           1           1           1          12          16
 AtmWgt=   1.0078250   1.0078250  12.0000000   1.0078250   1.0078250   1.0078250  12.0000000  15.9949146
 NucSpn=           1           1           0           1           1           1           0           0
 AtZEff=   0.0000000   0.0000000   0.0000000   0.0000000   0.0000000   0.0000000   0.0000000   0.0000000
 NQMom=    0.0000000   0.0000000   0.0000000   0.0000000   0.0000000   0.0000000   0.0000000   0.0000000
 NMagM=    2.7928460   2.7928460   0.0000000   2.7928460   2.7928460   2.7928460   0.0000000   0.0000000
 Leave Link  101 at Tue Mar 11 10:41:24 2014, MaxMem= 4026531840 cpu:       5.4
 (Enter /usr/caen/gaussian-09revc/g09/l103.exe)

 GradGradGradGradGradGradGradGradGradGradGradGradGradGradGradGradGradGrad
 Berny optimization.
 Initialization pass.
                           ----------------------------
                           !    Initial Parameters    !
                           ! (Angstroms and Degrees)  !
 --------------------------                            --------------------------
 ! Name  Definition              Value          Derivative Info.                !
 --------------------------------------------------------------------------------
 ! R1    R(1,2)                  1.092          calculate D2E/DX2 analytically  !
 ! R2    R(1,3)                  1.0948         calculate D2E/DX2 analytically  !
 ! R3    R(1,4)                  1.0939         calculate D2E/DX2 analytically  !
 ! R4    R(1,27)                 1.5206         calculate D2E/DX2 analytically  !
 ! R5    R(5,6)                  1.0913         calculate D2E/DX2 analytically  !
 ! R6    R(5,7)                  1.091          calculate D2E/DX2 analytically  !
 ! R7    R(5,8)                  1.5437         calculate D2E/DX2 analytically  !
 ! R8    R(5,27)                 1.5488         calculate D2E/DX2 analytically  !
 ! R9    R(8,9)                  1.0987         calculate D2E/DX2 analytically  !
 ! R10   R(8,10)                 1.5217         calculate D2E/DX2 analytically  !
 ! R11   R(8,28)                 1.4554         calculate D2E/DX2 analytically  !
 ! R12   R(10,11)                1.0976         calculate D2E/DX2 analytically  !
 ! R13   R(10,12)                1.0964         calculate D2E/DX2 analytically  !
 ! R14   R(10,13)                1.5402         calculate D2E/DX2 analytically  !
 ! R15   R(13,14)                1.0988         calculate D2E/DX2 analytically  !
 ! R16   R(13,15)                1.5351         calculate D2E/DX2 analytically  !
 ! R17   R(13,23)                1.5359         calculate D2E/DX2 analytically  !
 ! R18   R(15,16)                1.0956         calculate D2E/DX2 analytically  !
 ! R19   R(15,17)                1.0941         calculate D2E/DX2 analytically  !
 ! R20   R(15,18)                1.0938         calculate D2E/DX2 analytically  !
 ! R21   R(19,20)                1.0947         calculate D2E/DX2 analytically  !
 ! R22   R(19,21)                1.0935         calculate D2E/DX2 analytically  !
 ! R23   R(19,22)                1.0928         calculate D2E/DX2 analytically  !
 ! R24   R(19,27)                1.5242         calculate D2E/DX2 analytically  !
 ! R25   R(23,24)                1.0941         calculate D2E/DX2 analytically  !
 ! R26   R(23,25)                1.0957         calculate D2E/DX2 analytically  !
 ! R27   R(23,26)                1.0929         calculate D2E/DX2 analytically  !
 ! R28   R(27,28)                1.4674         calculate D2E/DX2 analytically  !
 ! A1    A(2,1,3)              108.6327         calculate D2E/DX2 analytically  !
 ! A2    A(2,1,4)              108.2371         calculate D2E/DX2 analytically  !
 ! A3    A(2,1,27)             110.6812         calculate D2E/DX2 analytically  !
 ! A4    A(3,1,4)              108.256          calculate D2E/DX2 analytically  !
 ! A5    A(3,1,27)             110.6452         calculate D2E/DX2 analytically  !
 ! A6    A(4,1,27)             110.3102         calculate D2E/DX2 analytically  !
 ! A7    A(6,5,7)              109.4096         calculate D2E/DX2 analytically  !
 ! A8    A(6,5,8)              113.8334         calculate D2E/DX2 analytically  !
 ! A9    A(6,5,27)             113.7923         calculate D2E/DX2 analytically  !
 ! A10   A(7,5,8)              116.5261         calculate D2E/DX2 analytically  !
 ! A11   A(7,5,27)             115.9847         calculate D2E/DX2 analytically  !
 ! A12   A(8,5,27)              85.7907         calculate D2E/DX2 analytically  !
 ! A13   A(5,8,9)              112.7076         calculate D2E/DX2 analytically  !
 ! A14   A(5,8,10)             120.6354         calculate D2E/DX2 analytically  !
 ! A15   A(5,8,28)              90.967          calculate D2E/DX2 analytically  !
 ! A16   A(9,8,10)             109.5552         calculate D2E/DX2 analytically  !
 ! A17   A(9,8,28)             109.6237         calculate D2E/DX2 analytically  !
 ! A18   A(10,8,28)            111.776          calculate D2E/DX2 analytically  !
 ! A19   A(8,10,11)            109.3703         calculate D2E/DX2 analytically  !
 ! A20   A(8,10,12)            106.5015         calculate D2E/DX2 analytically  !
 ! A21   A(8,10,13)            115.3772         calculate D2E/DX2 analytically  !
 ! A22   A(11,10,12)           106.3293         calculate D2E/DX2 analytically  !
 ! A23   A(11,10,13)           109.9802         calculate D2E/DX2 analytically  !
 ! A24   A(12,10,13)           108.8496         calculate D2E/DX2 analytically  !
 ! A25   A(10,13,14)           107.3895         calculate D2E/DX2 analytically  !
 ! A26   A(10,13,15)           110.3587         calculate D2E/DX2 analytically  !
 ! A27   A(10,13,23)           112.8949         calculate D2E/DX2 analytically  !
 ! A28   A(14,13,15)           107.6396         calculate D2E/DX2 analytically  !
 ! A29   A(14,13,23)           107.7202         calculate D2E/DX2 analytically  !
 ! A30   A(15,13,23)           110.6119         calculate D2E/DX2 analytically  !
 ! A31   A(13,15,16)           110.8817         calculate D2E/DX2 analytically  !
 ! A32   A(13,15,17)           111.186          calculate D2E/DX2 analytically  !
 ! A33   A(13,15,18)           111.4032         calculate D2E/DX2 analytically  !
 ! A34   A(16,15,17)           107.6258         calculate D2E/DX2 analytically  !
 ! A35   A(16,15,18)           107.6987         calculate D2E/DX2 analytically  !
 ! A36   A(17,15,18)           107.8764         calculate D2E/DX2 analytically  !
 ! A37   A(20,19,21)           108.3834         calculate D2E/DX2 analytically  !
 ! A38   A(20,19,22)           108.3937         calculate D2E/DX2 analytically  !
 ! A39   A(20,19,27)           110.7748         calculate D2E/DX2 analytically  !
 ! A40   A(21,19,22)           108.1317         calculate D2E/DX2 analytically  !
 ! A41   A(21,19,27)           110.1901         calculate D2E/DX2 analytically  !
 ! A42   A(22,19,27)           110.8804         calculate D2E/DX2 analytically  !
 ! A43   A(13,23,24)           110.787          calculate D2E/DX2 analytically  !
 ! A44   A(13,23,25)           110.9262         calculate D2E/DX2 analytically  !
 ! A45   A(13,23,26)           112.1345         calculate D2E/DX2 analytically  !
 ! A46   A(24,23,25)           107.5489         calculate D2E/DX2 analytically  !
 ! A47   A(24,23,26)           107.4788         calculate D2E/DX2 analytically  !
 ! A48   A(25,23,26)           107.7692         calculate D2E/DX2 analytically  !
 ! A49   A(1,27,5)             116.492          calculate D2E/DX2 analytically  !
 ! A50   A(1,27,19)            112.166          calculate D2E/DX2 analytically  !
 ! A51   A(1,27,28)            110.6208         calculate D2E/DX2 analytically  !
 ! A52   A(5,27,19)            114.7775         calculate D2E/DX2 analytically  !
 ! A53   A(5,27,28)             90.3143         calculate D2E/DX2 analytically  !
 ! A54   A(19,27,28)           110.3524         calculate D2E/DX2 analytically  !
 ! A55   A(8,28,27)             92.1361         calculate D2E/DX2 analytically  !
 ! D1    D(2,1,27,5)            46.8822         calculate D2E/DX2 analytically  !
 ! D2    D(2,1,27,19)         -177.9898         calculate D2E/DX2 analytically  !
 ! D3    D(2,1,27,28)          -54.3096         calculate D2E/DX2 analytically  !
 ! D4    D(3,1,27,5)           -73.5936         calculate D2E/DX2 analytically  !
 ! D5    D(3,1,27,19)           61.5344         calculate D2E/DX2 analytically  !
 ! D6    D(3,1,27,28)         -174.7854         calculate D2E/DX2 analytically  !
 ! D7    D(4,1,27,5)           166.6441         calculate D2E/DX2 analytically  !
 ! D8    D(4,1,27,19)          -58.2279         calculate D2E/DX2 analytically  !
 ! D9    D(4,1,27,28)           65.4523         calculate D2E/DX2 analytically  !
 ! D10   D(6,5,8,9)            140.6001         calculate D2E/DX2 analytically  !
 ! D11   D(6,5,8,10)             8.5696         calculate D2E/DX2 analytically  !
 ! D12   D(6,5,8,28)          -107.6118         calculate D2E/DX2 analytically  !
 ! D13   D(7,5,8,9)             11.8046         calculate D2E/DX2 analytically  !
 ! D14   D(7,5,8,10)          -120.2259         calculate D2E/DX2 analytically  !
 ! D15   D(7,5,8,28)           123.5927         calculate D2E/DX2 analytically  !
 ! D16   D(27,5,8,9)          -105.2132         calculate D2E/DX2 analytically  !
 ! D17   D(27,5,8,10)          122.7564         calculate D2E/DX2 analytically  !
 ! D18   D(27,5,8,28)            6.575          calculate D2E/DX2 analytically  !
 ! D19   D(6,5,27,1)            -5.6365         calculate D2E/DX2 analytically  !
 ! D20   D(6,5,27,19)         -139.6125         calculate D2E/DX2 analytically  !
 ! D21   D(6,5,27,28)          107.7069         calculate D2E/DX2 analytically  !
 ! D22   D(7,5,27,1)           122.6007         calculate D2E/DX2 analytically  !
 ! D23   D(7,5,27,19)          -11.3753         calculate D2E/DX2 analytically  !
 ! D24   D(7,5,27,28)         -124.0559         calculate D2E/DX2 analytically  !
 ! D25   D(8,5,27,1)          -119.8636         calculate D2E/DX2 analytically  !
 ! D26   D(8,5,27,19)          106.1604         calculate D2E/DX2 analytically  !
 ! D27   D(8,5,27,28)           -6.5202         calculate D2E/DX2 analytically  !
 ! D28   D(5,8,10,11)          -36.3415         calculate D2E/DX2 analytically  !
 ! D29   D(5,8,10,12)         -150.8595         calculate D2E/DX2 analytically  !
 ! D30   D(5,8,10,13)           88.245          calculate D2E/DX2 analytically  !
 ! D31   D(9,8,10,11)         -169.693          calculate D2E/DX2 analytically  !
 ! D32   D(9,8,10,12)           75.7889         calculate D2E/DX2 analytically  !
 ! D33   D(9,8,10,13)          -45.1066         calculate D2E/DX2 analytically  !
 ! D34   D(28,8,10,11)          68.5927         calculate D2E/DX2 analytically  !
 ! D35   D(28,8,10,12)         -45.9254         calculate D2E/DX2 analytically  !
 ! D36   D(28,8,10,13)        -166.8209         calculate D2E/DX2 analytically  !
 ! D37   D(5,8,28,27)           -6.9275         calculate D2E/DX2 analytically  !
 ! D38   D(9,8,28,27)          107.649          calculate D2E/DX2 analytically  !
 ! D39   D(10,8,28,27)        -130.6761         calculate D2E/DX2 analytically  !
 ! D40   D(8,10,13,14)          56.0974         calculate D2E/DX2 analytically  !
 ! D41   D(8,10,13,15)         173.1567         calculate D2E/DX2 analytically  !
 ! D42   D(8,10,13,23)         -62.4887         calculate D2E/DX2 analytically  !
 ! D43   D(11,10,13,14)       -179.6343         calculate D2E/DX2 analytically  !
 ! D44   D(11,10,13,15)        -62.575          calculate D2E/DX2 analytically  !
 ! D45   D(11,10,13,23)         61.7795         calculate D2E/DX2 analytically  !
 ! D46   D(12,10,13,14)        -63.5151         calculate D2E/DX2 analytically  !
 ! D47   D(12,10,13,15)         53.5442         calculate D2E/DX2 analytically  !
 ! D48   D(12,10,13,23)        177.8988         calculate D2E/DX2 analytically  !
 ! D49   D(10,13,15,16)         63.0686         calculate D2E/DX2 analytically  !
 ! D50   D(10,13,15,17)       -177.2324         calculate D2E/DX2 analytically  !
 ! D51   D(10,13,15,18)        -56.8664         calculate D2E/DX2 analytically  !
 ! D52   D(14,13,15,16)        179.9728         calculate D2E/DX2 analytically  !
 ! D53   D(14,13,15,17)        -60.3282         calculate D2E/DX2 analytically  !
 ! D54   D(14,13,15,18)         60.0379         calculate D2E/DX2 analytically  !
 ! D55   D(23,13,15,16)        -62.5869         calculate D2E/DX2 analytically  !
 ! D56   D(23,13,15,17)         57.1121         calculate D2E/DX2 analytically  !
 ! D57   D(23,13,15,18)        177.4782         calculate D2E/DX2 analytically  !
 ! D58   D(10,13,23,24)       -179.346          calculate D2E/DX2 analytically  !
 ! D59   D(10,13,23,25)        -59.9762         calculate D2E/DX2 analytically  !
 ! D60   D(10,13,23,26)         60.5724         calculate D2E/DX2 analytically  !
 ! D61   D(14,13,23,24)         62.2606         calculate D2E/DX2 analytically  !
 ! D62   D(14,13,23,25)       -178.3696         calculate D2E/DX2 analytically  !
 ! D63   D(14,13,23,26)        -57.821          calculate D2E/DX2 analytically  !
 ! D64   D(15,13,23,24)        -55.1302         calculate D2E/DX2 analytically  !
 ! D65   D(15,13,23,25)         64.2396         calculate D2E/DX2 analytically  !
 ! D66   D(15,13,23,26)       -175.2118         calculate D2E/DX2 analytically  !
 ! D67   D(20,19,27,1)         -61.0003         calculate D2E/DX2 analytically  !
 ! D68   D(20,19,27,5)          74.9353         calculate D2E/DX2 analytically  !
 ! D69   D(20,19,27,28)        175.1694         calculate D2E/DX2 analytically  !
 ! D70   D(21,19,27,1)          58.9264         calculate D2E/DX2 analytically  !
 ! D71   D(21,19,27,5)        -165.1379         calculate D2E/DX2 analytically  !
 ! D72   D(21,19,27,28)        -64.9039         calculate D2E/DX2 analytically  !
 ! D73   D(22,19,27,1)         178.6069         calculate D2E/DX2 analytically  !
 ! D74   D(22,19,27,5)         -45.4575         calculate D2E/DX2 analytically  !
 ! D75   D(22,19,27,28)         54.7766         calculate D2E/DX2 analytically  !
 ! D76   D(1,27,28,8)          125.5027         calculate D2E/DX2 analytically  !
 ! D77   D(5,27,28,8)            6.9035         calculate D2E/DX2 analytically  !
 ! D78   D(19,27,28,8)        -109.7787         calculate D2E/DX2 analytically  !
 --------------------------------------------------------------------------------
 Trust Radius=3.00D-01 FncErr=1.00D-07 GrdErr=1.00D-06
 Number of steps in this run=    168 maximum allowed number of steps=    168.
 GradGradGradGradGradGradGradGradGradGradGradGradGradGradGradGradGradGrad

 Leave Link  103 at Tue Mar 11 10:41:24 2014, MaxMem= 4026531840 cpu:       0.1
 (Enter /usr/caen/gaussian-09revc/g09/l202.exe)
                          Input orientation:                          
 ---------------------------------------------------------------------
 Center     Atomic      Atomic             Coordinates (Angstroms)
 Number     Number       Type             X           Y           Z
 ---------------------------------------------------------------------
      1          6           0       -2.688034   -0.673072   -1.311449
      2          1           0       -1.905181   -1.110058   -1.934953
      3          1           0       -3.253259    0.046399   -1.912714
      4          1           0       -3.368316   -1.473106   -1.005304
      5          6           0       -0.873065    0.933184   -0.342962
      6          1           0       -0.518724    0.923602   -1.375105
      7          1           0       -0.983045    1.965264   -0.006972
      8          6           0       -0.095324   -0.017189    0.592397
      9          1           0        0.079303    0.415717    1.587052
     10          6           0        1.168380   -0.715510    0.111831
     11          1           0        1.055572   -0.984801   -0.946256
     12          1           0        1.231950   -1.659902    0.665194
     13          6           0        2.476394    0.071141    0.318124
     14          1           0        2.549455    0.312142    1.387644
     15          6           0        3.686684   -0.800103   -0.046133
     16          1           0        3.666268   -1.072996   -1.106975
     17          1           0        4.625659   -0.270968    0.141808
     18          1           0        3.701114   -1.726496    0.535325
     19          6           0       -3.154026    0.584207    0.830100
     20          1           0       -3.744284    1.344904    0.309145
     21          1           0       -3.830557   -0.205641    1.167987
     22          1           0       -2.700443    1.043720    1.711809
     23          6           0        2.507727    1.393668   -0.462307
     24          1           0        3.454481    1.917640   -0.300553
     25          1           0        2.408599    1.215246   -1.538864
     26          1           0        1.703104    2.068974   -0.160660
     27          6           0       -2.086404    0.004321   -0.090235
     28          8           0       -1.228211   -0.929190    0.648276
 ---------------------------------------------------------------------
                    Distance matrix (angstroms):
                    1          2          3          4          5
     1  C    0.000000
     2  H    1.092050   0.000000
     3  H    1.094823   1.776289   0.000000
     4  H    1.093875   1.771106   1.773563   0.000000
     5  C    2.610007   2.788286   2.985939   3.529193   0.000000
     6  H    2.694314   2.524176   2.921676   3.741809   1.091315
     7  H    3.401392   3.745003   3.530973   4.302159   1.090951
     8  C    3.282828   3.295063   4.031399   3.922349   1.543692
     9  H    4.152701   4.320959   4.846723   4.708932   2.213534
    10  C    4.110895   3.713727   4.922416   4.733239   2.663180
    11  H    3.774272   3.123983   4.534693   4.451147   2.786085
    12  H    4.499692   4.111531   5.447401   4.897745   3.488777
    13  C    5.466322   5.066536   6.148673   6.188440   3.521225
    14  H    5.973863   5.736383   6.680904   6.628222   3.885143
    15  C    6.500322   5.910386   7.236263   7.151641   4.887095
    16  H    6.370157   5.632758   7.055644   7.046687   5.021356
    17  H    7.467513   6.904265   8.148566   8.164842   5.649863
    18  H    6.733609   6.157338   7.582833   7.239792   5.363618
    19  C    2.526684   3.475006   2.796804   2.765351   2.588560
    20  H    2.795392   3.800673   2.619900   3.132141   2.972988
    21  H    2.769739   3.762084   3.144442   2.557993   3.510933
    22  H    3.476725   4.309301   3.799661   3.763399   2.752020
    23  C    5.655828   5.283094   6.091615   6.560573   3.414095
    24  H    6.742714   6.369003   7.148033   7.651431   4.438311
    25  H    5.439957   4.916566   5.793324   6.394112   3.504149
    26  H    5.303322   5.125825   5.632587   6.243321   2.821329
    27  C    1.520587   2.162791   2.164429   2.159500   1.548822
    28  O    2.457072   2.676579   3.407530   2.758663   2.139420
                    6          7          8          9         10
     6  H    0.000000
     7  H    1.781135   0.000000
     8  C    2.221580   2.253311   0.000000
     9  H    3.064304   2.463857   1.098745   0.000000
    10  C    2.782802   3.439374   1.521691   2.154539   0.000000
    11  H    2.510841   3.706899   2.151346   3.054865   1.097630
    12  H    3.728562   4.301144   2.113164   2.546883   1.096416
    13  C    3.544636   3.957412   2.587810   2.734037   1.540220
    14  H    4.173774   4.142019   2.781319   2.480351   2.142694
    15  C    4.735270   5.427261   3.914621   4.142307   2.524671
    16  H    4.644616   5.661903   4.260536   4.726560   2.802272
    17  H    5.494788   6.039903   4.749223   4.819712   3.485871
    18  H    5.336646   5.988700   4.163884   4.337363   2.759743
    19  C    3.452960   2.705765   3.126314   3.325024   4.570379
    20  H    3.663118   2.847669   3.905181   4.137179   5.330901
    21  H    4.325592   3.768512   3.784017   3.981043   5.134667
    22  H    3.781979   2.598636   3.027417   2.852532   4.541213
    23  C    3.195867   3.566447   3.143055   3.324681   2.563614
    24  H    4.234281   4.447482   4.140294   4.148572   3.511381
    25  H    2.946369   3.796376   3.511524   3.979475   2.826793
    26  H    2.779078   2.692540   2.855436   2.902496   2.848426
    27  C    2.225666   2.251584   2.104958   2.769986   3.339552
    28  O    2.833775   2.977805   1.455439   2.097539   2.465174
                   11         12         13         14         15
    11  H    0.000000
    12  H    1.756030   0.000000
    13  C    2.175409   2.160002   0.000000
    14  H    3.059548   2.479256   1.098769   0.000000
    15  C    2.786949   2.696472   1.535106   2.141517   0.000000
    16  H    2.617125   3.067726   2.180770   3.064148   1.095570
    17  H    3.799863   3.704097   2.183453   2.490532   1.094066
    18  H    3.121552   2.473474   2.186004   2.491749   1.093849
    19  C    4.830936   4.929503   5.676882   5.737122   7.034160
    20  H    5.481074   5.823962   6.349755   6.468455   7.742517
    21  H    5.380648   5.291186   6.369969   6.404756   7.637826
    22  H    5.028703   4.885559   5.448661   5.310529   6.876441
    23  C    2.828440   3.496163   1.535947   2.143305   2.525029
    24  H    3.820453   4.321009   2.179214   2.499341   2.739484
    25  H    2.649919   3.809049   2.182195   3.065923   2.814850
    26  H    3.219006   3.848186   2.195119   2.489983   3.489887
    27  C    3.403402   3.788375   4.581522   4.875456   5.829030
    28  O    2.785909   2.566441   3.851462   4.044543   4.965386
                   16         17         18         19         20
    16  H    0.000000
    17  H    1.767240   0.000000
    18  H    1.767887   1.768672   0.000000
    19  C    7.281139   7.856753   7.240109   0.000000
    20  H    7.922621   8.526136   8.057208   1.094741   0.000000
    21  H    7.882268   8.518503   7.709691   1.093491   1.774610
    22  H    7.277434   7.606910   7.073764   1.092841   1.774199
    23  C    2.800401   2.760725   3.486383   5.863531   6.299616
    24  H    3.104686   2.521378   3.746898   6.835846   7.247205
    25  H    2.646566   3.154179   3.824487   6.078898   6.425723
    26  H    3.823807   3.756081   4.345346   5.174732   5.515345
    27  C    5.940337   6.721712   6.073090   1.524172   2.169155
    28  O    5.201683   5.912492   4.994667   2.456052   3.408392
                   21         22         23         24         25
    21  H    0.000000
    22  H    1.770255   0.000000
    23  C    6.737172   5.654580   0.000000
    24  H    7.728953   6.534250   1.094100   0.000000
    25  H    6.947880   6.057937   1.095735   1.766534   0.000000
    26  H    6.128669   4.893722   1.092908   1.763461   1.768056
    27  C    2.160851   2.169045   4.814017   5.865699   4.875440
    28  O    2.750605   2.681593   4.537212   5.561683   4.754847
                   26         27         28
    26  H    0.000000
    27  C    4.316031   0.000000
    28  O    4.270360   1.467425   0.000000
 Stoichiometry    C9H18O
 Framework group  C1[X(C9H18O)]
 Deg. of freedom    78
 Full point group                 C1      NOp   1
 Largest Abelian subgroup         C1      NOp   1
 Largest concise Abelian subgroup C1      NOp   1
                         Standard orientation:                         
 ---------------------------------------------------------------------
 Center     Atomic      Atomic             Coordinates (Angstroms)
 Number     Number       Type             X           Y           Z
 ---------------------------------------------------------------------
      1          6           0        2.688034   -0.673072    1.311449
      2          1           0        1.905181   -1.110058    1.934953
      3          1           0        3.253259    0.046399    1.912714
      4          1           0        3.368316   -1.473106    1.005304
      5          6           0        0.873065    0.933184    0.342962
      6          1           0        0.518724    0.923602    1.375105
      7          1           0        0.983045    1.965264    0.006972
      8          6           0        0.095324   -0.017189   -0.592397
      9          1           0       -0.079303    0.415717   -1.587052
     10          6           0       -1.168380   -0.715510   -0.111831
     11          1           0       -1.055572   -0.984801    0.946256
     12          1           0       -1.231950   -1.659902   -0.665194
     13          6           0       -2.476394    0.071141   -0.318124
     14          1           0       -2.549455    0.312142   -1.387644
     15          6           0       -3.686684   -0.800103    0.046133
     16          1           0       -3.666268   -1.072996    1.106975
     17          1           0       -4.625659   -0.270968   -0.141808
     18          1           0       -3.701114   -1.726496   -0.535325
     19          6           0        3.154026    0.584207   -0.830100
     20          1           0        3.744284    1.344904   -0.309145
     21          1           0        3.830557   -0.205641   -1.167987
     22          1           0        2.700443    1.043720   -1.711809
     23          6           0       -2.507727    1.393668    0.462307
     24          1           0       -3.454481    1.917640    0.300553
     25          1           0       -2.408599    1.215246    1.538864
     26          1           0       -1.703104    2.068974    0.160660
     27          6           0        2.086404    0.004321    0.090235
     28          8           0        1.228211   -0.929190   -0.648276
 ---------------------------------------------------------------------
 Rotational constants (GHZ):      2.9767210      0.6073875      0.5860295
 Leave Link  202 at Tue Mar 11 10:41:24 2014, MaxMem= 4026531840 cpu:       0.3
 (Enter /usr/caen/gaussian-09revc/g09/l301.exe)
 Standard basis: 6-311G(2d,d,p) (5D, 7F)
 Ernie: Thresh=  0.10000D-02 Tol=  0.10000D-05 Strict=F.
 There are   288 symmetry adapted basis functions of A   symmetry.
 Integral buffers will be    131072 words long.
 Raffenetti 2 integral format.
 Two-electron integral symmetry is turned on.
   288 basis functions,   464 primitive gaussians,   298 cartesian basis functions
    40 alpha electrons       40 beta electrons
       nuclear repulsion energy       573.1673170231 Hartrees.
 IExCor=  402 DFT=T Ex+Corr=B3LYP ExCW=0 ScaHFX=  0.200000
 ScaDFX=  0.800000  0.720000  1.000000  0.810000 ScalE2=  1.000000  1.000000
 IRadAn=      0 IRanWt=     -1 IRanGd=            0 ICorTp=0
 NAtoms=   28 NActive=   28 NUniq=   28 SFac= 1.00D+00 NAtFMM=   60 NAOKFM=F Big=F
 Leave Link  301 at Tue Mar 11 10:41:24 2014, MaxMem= 4026531840 cpu:       0.7
 (Enter /usr/caen/gaussian-09revc/g09/l302.exe)
 NPDir=0 NMtPBC=     1 NCelOv=     1 NCel=       1 NClECP=     1 NCelD=      1
         NCelK=      1 NCelE2=     1 NClLst=     1 CellRange=     0.0.
 One-electron integrals computed using PRISM.
 NBasis=   288 RedAO= T  NBF=   288
 NBsUse=   288 1.00D-06 NBFU=   288
 Precomputing XC quadrature grid using
 IXCGrd= 2 IRadAn=           0 IRanWt=          -1 IRanGd=           0 AccXCQ= 0.00D+00.
 NRdTot=    1780 NPtTot=      226608 NUsed=      239445 NTot=      239477
 NSgBfM=   298   298   298   298   298 NAtAll=    28    28.
 Leave Link  302 at Tue Mar 11 10:41:25 2014, MaxMem= 4026531840 cpu:       5.3
 (Enter /usr/caen/gaussian-09revc/g09/l303.exe)
 DipDrv:  MaxL=1.
 Leave Link  303 at Tue Mar 11 10:41:25 2014, MaxMem= 4026531840 cpu:       1.5
 (Enter /usr/caen/gaussian-09revc/g09/l401.exe)
 Harris functional with IExCor=  402 diagonalized for initial guess.
 ExpMin= 1.03D-01 ExpMax= 8.59D+03 ExpMxC= 1.30D+03 IAcc=1 IRadAn=         1 AccDes= 0.00D+00
 HarFok:  IExCor=  402 AccDes= 0.00D+00 IRadAn=         1 IDoV= 1
 ScaDFX=  1.000000  1.000000  1.000000  1.000000
 FoFCou: FMM=F IPFlag=           0 FMFlag=      100000 FMFlg1=           0
         NFxFlg=           0 DoJE=T BraDBF=F KetDBF=T FulRan=T
         Omega=  0.000000  0.000000  1.000000  0.000000  0.000000 ICntrl=     500 IOpCl=  0
         NMat0=    1 NMatS0=    1 NMatT0=    0 NMatD0=    1 NMtDS0=    0 NMtDT0=    0
         I1Cent=           4 NGrid=           0.
 Petite list used in FoFCou.
 Harris En= -429.206763669898    
 Initial guess orbital symmetries:
       Occupied  (A) (A) (A) (A) (A) (A) (A) (A) (A) (A) (A) (A)
                 (A) (A) (A) (A) (A) (A) (A) (A) (A) (A) (A) (A)
                 (A) (A) (A) (A) (A) (A) (A) (A) (A) (A) (A) (A)
                 (A) (A) (A) (A)
       Virtual   (A) (A) (A) (A) (A) (A) (A) (A) (A) (A) (A) (A)
                 (A) (A) (A) (A) (A) (A) (A) (A) (A) (A) (A) (A)
                 (A) (A) (A) (A) (A) (A) (A) (A) (A) (A) (A) (A)
                 (A) (A) (A) (A) (A) (A) (A) (A) (A) (A) (A) (A)
                 (A) (A) (A) (A) (A) (A) (A) (A) (A) (A) (A) (A)
                 (A) (A) (A) (A) (A) (A) (A) (A) (A) (A) (A) (A)
                 (A) (A) (A) (A) (A) (A) (A) (A) (A) (A) (A) (A)
                 (A) (A) (A) (A) (A) (A) (A) (A) (A) (A) (A) (A)
                 (A) (A) (A) (A) (A) (A) (A) (A) (A) (A) (A) (A)
                 (A) (A) (A) (A) (A) (A) (A) (A) (A) (A) (A) (A)
                 (A) (A) (A) (A) (A) (A) (A) (A) (A) (A) (A) (A)
                 (A) (A) (A) (A) (A) (A) (A) (A) (A) (A) (A) (A)
                 (A) (A) (A) (A) (A) (A) (A) (A) (A) (A) (A) (A)
                 (A) (A) (A) (A) (A) (A) (A) (A) (A) (A) (A) (A)
                 (A) (A) (A) (A) (A) (A) (A) (A) (A) (A) (A) (A)
                 (A) (A) (A) (A) (A) (A) (A) (A) (A) (A) (A) (A)
                 (A) (A) (A) (A) (A) (A) (A) (A) (A) (A) (A) (A)
                 (A) (A) (A) (A) (A) (A) (A) (A) (A) (A) (A) (A)
                 (A) (A) (A) (A) (A) (A) (A) (A) (A) (A) (A) (A)
                 (A) (A) (A) (A) (A) (A) (A) (A) (A) (A) (A) (A)
                 (A) (A) (A) (A) (A) (A) (A) (A)
 The electronic state of the initial guess is 1-A.
 Leave Link  401 at Tue Mar 11 10:41:27 2014, MaxMem= 4026531840 cpu:      12.1
 (Enter /usr/caen/gaussian-09revc/g09/l502.exe)
 Closed shell SCF:
 Requested convergence on RMS density matrix=1.00D-08 within 128 cycles.
 Requested convergence on MAX density matrix=1.00D-06.
 Requested convergence on             energy=1.00D-06.
 No special actions if energy rises.
 Using DIIS extrapolation, IDIIS=  1040.
 Integral symmetry usage will be decided dynamically.
       239180 words used for storage of precomputed grid.
 Keep R1 ints in memory in canonical form, NReq=1006311766.
 IEnd=      528376 IEndB=      528376 NGot=  4026531840 MDV=  3033691103
 LenX=  3033691103 LenY=  3033601858
 Symmetry not used in FoFDir.
 MinBra= 0 MaxBra= 2 Meth= 1.
 IRaf=       0 NMat=   1 IRICut=       1 DoRegI=T DoRafI=F ISym2E= 0 JSym2E=0.
 Integral accuracy reduced to 1.0D-05 until final iterations.

 Cycle   1  Pass 0  IDiag  1:
 E= -428.749092680745    
 DIIS: error= 3.70D-02 at cycle   1 NSaved=   1.
 NSaved= 1 IEnMin= 1 EnMin= -428.749092680745     IErMin= 1 ErrMin= 3.70D-02
 ErrMax= 3.70D-02 EMaxC= 1.00D-01 BMatC= 3.86D-01 BMatP= 3.86D-01
 IDIUse=3 WtCom= 6.30D-01 WtEn= 3.70D-01
 Coeff-Com:  0.100D+01
 Coeff-En:   0.100D+01
 Coeff:      0.100D+01
 Gap=     0.283 Goal=   None    Shift=    0.000
 GapD=    0.283 DampG=1.000 DampE=0.500 DampFc=0.5000 IDamp=-1.
 Damping current iteration by 5.00D-01
 RMSDP=3.70D-03 MaxDP=1.23D-01              OVMax= 1.89D-01

 Cycle   2  Pass 0  IDiag  1:
 E= -428.913432439417     Delta-E=       -0.164339758672 Rises=F Damp=T
 DIIS: error= 4.67D-03 at cycle   2 NSaved=   2.
 NSaved= 2 IEnMin= 2 EnMin= -428.913432439417     IErMin= 2 ErrMin= 4.67D-03
 ErrMax= 4.67D-03 EMaxC= 1.00D-01 BMatC= 1.70D-02 BMatP= 3.86D-01
 IDIUse=3 WtCom= 9.53D-01 WtEn= 4.67D-02
 Coeff-Com:  0.633D-01 0.937D+00
 Coeff-En:   0.139D+00 0.861D+00
 Coeff:      0.668D-01 0.933D+00
 Gap=     0.297 Goal=   None    Shift=    0.000
 RMSDP=6.77D-04 MaxDP=2.18D-02 DE=-1.64D-01 OVMax= 1.09D-01

 Cycle   3  Pass 0  IDiag  1:
 E= -429.121117048197     Delta-E=       -0.207684608780 Rises=F Damp=F
 DIIS: error= 3.13D-03 at cycle   3 NSaved=   3.
 NSaved= 3 IEnMin= 3 EnMin= -429.121117048197     IErMin= 3 ErrMin= 3.13D-03
 ErrMax= 3.13D-03 EMaxC= 1.00D-01 BMatC= 4.40D-03 BMatP= 1.70D-02
 IDIUse=3 WtCom= 9.69D-01 WtEn= 3.13D-02
 Coeff-Com: -0.174D-01 0.288D+00 0.729D+00
 Coeff-En:   0.000D+00 0.000D+00 0.100D+01
 Coeff:     -0.168D-01 0.279D+00 0.738D+00
 Gap=     0.277 Goal=   None    Shift=    0.000
 RMSDP=2.94D-04 MaxDP=1.03D-02 DE=-2.08D-01 OVMax= 1.85D-02

 Cycle   4  Pass 0  IDiag  1:
 E= -429.123258010510     Delta-E=       -0.002140962313 Rises=F Damp=F
 DIIS: error= 3.07D-03 at cycle   4 NSaved=   4.
 NSaved= 4 IEnMin= 4 EnMin= -429.123258010510     IErMin= 4 ErrMin= 3.07D-03
 ErrMax= 3.07D-03 EMaxC= 1.00D-01 BMatC= 2.18D-03 BMatP= 4.40D-03
 IDIUse=3 WtCom= 9.69D-01 WtEn= 3.07D-02
 Coeff-Com: -0.153D-01 0.851D-01 0.441D+00 0.490D+00
 Coeff-En:   0.000D+00 0.000D+00 0.301D+00 0.699D+00
 Coeff:     -0.149D-01 0.825D-01 0.436D+00 0.496D+00
 Gap=     0.285 Goal=   None    Shift=    0.000
 RMSDP=1.43D-04 MaxDP=6.12D-03 DE=-2.14D-03 OVMax= 9.72D-03

 Cycle   5  Pass 0  IDiag  1:
 E= -429.124829626159     Delta-E=       -0.001571615649 Rises=F Damp=F
 DIIS: error= 9.84D-04 at cycle   5 NSaved=   5.
 NSaved= 5 IEnMin= 5 EnMin= -429.124829626159     IErMin= 5 ErrMin= 9.84D-04
 ErrMax= 9.84D-04 EMaxC= 1.00D-01 BMatC= 1.19D-04 BMatP= 2.18D-03
 IDIUse=3 WtCom= 9.90D-01 WtEn= 9.84D-03
 Coeff-Com: -0.630D-02 0.202D-01 0.168D+00 0.259D+00 0.559D+00
 Coeff-En:   0.000D+00 0.000D+00 0.000D+00 0.000D+00 0.100D+01
 Coeff:     -0.624D-02 0.200D-01 0.166D+00 0.257D+00 0.563D+00
 Gap=     0.283 Goal=   None    Shift=    0.000
 RMSDP=4.16D-05 MaxDP=1.33D-03 DE=-1.57D-03 OVMax= 2.11D-03

 Cycle   6  Pass 0  IDiag  1:
 E= -429.124908735800     Delta-E=       -0.000079109641 Rises=F Damp=F
 DIIS: error= 2.05D-04 at cycle   6 NSaved=   6.
 NSaved= 6 IEnMin= 6 EnMin= -429.124908735800     IErMin= 6 ErrMin= 2.05D-04
 ErrMax= 2.05D-04 EMaxC= 1.00D-01 BMatC= 1.24D-05 BMatP= 1.19D-04
 IDIUse=3 WtCom= 9.98D-01 WtEn= 2.05D-03
 Coeff-Com: -0.172D-02 0.235D-02 0.494D-01 0.939D-01 0.313D+00 0.543D+00
 Coeff-En:   0.000D+00 0.000D+00 0.000D+00 0.000D+00 0.497D-01 0.950D+00
 Coeff:     -0.171D-02 0.235D-02 0.493D-01 0.937D-01 0.313D+00 0.544D+00
 Gap=     0.283 Goal=   None    Shift=    0.000
 RMSDP=9.01D-06 MaxDP=5.83D-04 DE=-7.91D-05 OVMax= 6.08D-04

 Initial convergence to 1.0D-05 achieved.  Increase integral accuracy.
 Cycle   7  Pass 1  IDiag  1:
 E= -429.124981584858     Delta-E=       -0.000072849059 Rises=F Damp=F
 DIIS: error= 1.70D-05 at cycle   1 NSaved=   1.
 NSaved= 1 IEnMin= 1 EnMin= -429.124981584858     IErMin= 1 ErrMin= 1.70D-05
 ErrMax= 1.70D-05 EMaxC= 1.00D-01 BMatC= 3.83D-07 BMatP= 3.83D-07
 IDIUse=1 WtCom= 1.00D+00 WtEn= 0.00D+00
 Coeff-Com:  0.100D+01
 Coeff:      0.100D+01
 Gap=     0.283 Goal=   None    Shift=    0.000
 RMSDP=9.01D-06 MaxDP=5.83D-04 DE=-7.28D-05 OVMax= 1.93D-04

 Cycle   8  Pass 1  IDiag  1:
 E= -429.124981800583     Delta-E=       -0.000000215725 Rises=F Damp=F
 DIIS: error= 2.17D-05 at cycle   2 NSaved=   2.
 NSaved= 2 IEnMin= 2 EnMin= -429.124981800583     IErMin= 1 ErrMin= 1.70D-05
 ErrMax= 2.17D-05 EMaxC= 1.00D-01 BMatC= 2.28D-07 BMatP= 3.83D-07
 IDIUse=1 WtCom= 1.00D+00 WtEn= 0.00D+00
 Coeff-Com:  0.421D+00 0.579D+00
 Coeff:      0.421D+00 0.579D+00
 Gap=     0.283 Goal=   None    Shift=    0.000
 RMSDP=1.96D-06 MaxDP=1.03D-04 DE=-2.16D-07 OVMax= 1.28D-04

 Cycle   9  Pass 1  IDiag  1:
 E= -429.124981997940     Delta-E=       -0.000000197357 Rises=F Damp=F
 DIIS: error= 9.17D-06 at cycle   3 NSaved=   3.
 NSaved= 3 IEnMin= 3 EnMin= -429.124981997940     IErMin= 3 ErrMin= 9.17D-06
 ErrMax= 9.17D-06 EMaxC= 1.00D-01 BMatC= 3.47D-08 BMatP= 2.28D-07
 IDIUse=1 WtCom= 1.00D+00 WtEn= 0.00D+00
 Coeff-Com:  0.411D-01 0.280D+00 0.679D+00
 Coeff:      0.411D-01 0.280D+00 0.679D+00
 Gap=     0.283 Goal=   None    Shift=    0.000
 RMSDP=6.98D-07 MaxDP=3.03D-05 DE=-1.97D-07 OVMax= 3.92D-05

 Cycle  10  Pass 1  IDiag  1:
 E= -429.124982023930     Delta-E=       -0.000000025990 Rises=F Damp=F
 DIIS: error= 5.95D-06 at cycle   4 NSaved=   4.
 NSaved= 4 IEnMin= 4 EnMin= -429.124982023930     IErMin= 4 ErrMin= 5.95D-06
 ErrMax= 5.95D-06 EMaxC= 1.00D-01 BMatC= 6.28D-09 BMatP= 3.47D-08
 IDIUse=1 WtCom= 1.00D+00 WtEn= 0.00D+00
 Coeff-Com: -0.122D-01 0.117D+00 0.400D+00 0.496D+00
 Coeff:     -0.122D-01 0.117D+00 0.400D+00 0.496D+00
 Gap=     0.283 Goal=   None    Shift=    0.000
 RMSDP=2.98D-07 MaxDP=1.06D-05 DE=-2.60D-08 OVMax= 1.65D-05

 Cycle  11  Pass 1  IDiag  1:
 E= -429.124982028623     Delta-E=       -0.000000004693 Rises=F Damp=F
 DIIS: error= 1.41D-06 at cycle   5 NSaved=   5.
 NSaved= 5 IEnMin= 5 EnMin= -429.124982028623     IErMin= 5 ErrMin= 1.41D-06
 ErrMax= 1.41D-06 EMaxC= 1.00D-01 BMatC= 3.84D-10 BMatP= 6.28D-09
 IDIUse=1 WtCom= 1.00D+00 WtEn= 0.00D+00
 Coeff-Com: -0.916D-02 0.523D-01 0.195D+00 0.287D+00 0.475D+00
 Coeff:     -0.916D-02 0.523D-01 0.195D+00 0.287D+00 0.475D+00
 Gap=     0.283 Goal=   None    Shift=    0.000
 RMSDP=5.35D-08 MaxDP=2.07D-06 DE=-4.69D-09 OVMax= 3.07D-06

 Cycle  12  Pass 1  IDiag  1:
 E= -429.124982028921     Delta-E=       -0.000000000299 Rises=F Damp=F
 DIIS: error= 1.26D-07 at cycle   6 NSaved=   6.
 NSaved= 6 IEnMin= 6 EnMin= -429.124982028921     IErMin= 6 ErrMin= 1.26D-07
 ErrMax= 1.26D-07 EMaxC= 1.00D-01 BMatC= 3.87D-12 BMatP= 3.84D-10
 IDIUse=1 WtCom= 1.00D+00 WtEn= 0.00D+00
 Coeff-Com: -0.151D-02 0.576D-02 0.237D-01 0.406D-01 0.124D+00 0.807D+00
 Coeff:     -0.151D-02 0.576D-02 0.237D-01 0.406D-01 0.124D+00 0.807D+00
 Gap=     0.283 Goal=   None    Shift=    0.000
 RMSDP=9.59D-09 MaxDP=2.16D-07 DE=-2.99D-10 OVMax= 4.80D-07

 SCF Done:  E(RB3LYP) =  -429.124982029     A.U. after   12 cycles
             Convg  =    0.9591D-08             -V/T =  2.0046
 KE= 4.271424230107D+02 PE=-2.143407328129D+03 EE= 7.139726060659D+02
 Leave Link  502 at Tue Mar 11 10:42:03 2014, MaxMem= 4026531840 cpu:     270.0
 (Enter /usr/caen/gaussian-09revc/g09/l801.exe)
 Range of M.O.s used for correlation:     1   288
 NBasis=   288 NAE=    40 NBE=    40 NFC=     0 NFV=     0
 NROrb=    288 NOA=    40 NOB=    40 NVA=   248 NVB=   248
 Leave Link  801 at Tue Mar 11 10:42:04 2014, MaxMem= 4026531840 cpu:       0.3
 (Enter /usr/caen/gaussian-09revc/g09/l1101.exe)
 Using compressed storage, NAtomX=    28.
 Will process  29 centers per pass.
 Leave Link 1101 at Tue Mar 11 10:42:05 2014, MaxMem= 4026531840 cpu:       4.3
 (Enter /usr/caen/gaussian-09revc/g09/l1102.exe)
 Symmetrizing basis deriv contribution to polar:
 IMax=3 JMax=2 DiffMx= 0.00D+00
 Leave Link 1102 at Tue Mar 11 10:42:06 2014, MaxMem= 4026531840 cpu:       1.6
 (Enter /usr/caen/gaussian-09revc/g09/l1110.exe)
 Forming Gx(P) for the SCF density, NAtomX=    28.
 Integral derivatives from FoFDir/FoFCou, PRISM(SPDF).
 Do as many integral derivatives as possible in FoFDir.
 G2DrvN: MDV=    4026531512.
 G2DrvN: will do    29 centers at a time, making    1 passes doing MaxLOS=2.
 Calling FoFCou, ICntrl=  3107 FMM=F I1Cent=   0 AccDes= 0.00D+00.
 FoFCou: FMM=F IPFlag=           0 FMFlag=      100000 FMFlg1=           0
         NFxFlg=           0 DoJE=F BraDBF=F KetDBF=F FulRan=T
         Omega=  0.000000  0.000000  1.000000  0.000000  0.000000 ICntrl=    3107 IOpCl=  0
         NMat0=    1 NMatS0=    1 NMatT0=    0 NMatD0=    1 NMtDS0=    0 NMtDT0=    0
         I1Cent=           0 NGrid=           0.
 Symmetry not used in FoFCou.
 FoFDir/FoFCou used for L=0 through L=2.
 End of G2Drv Frequency-dependent properties file   721 does not exist.
 End of G2Drv Frequency-dependent properties file   722 does not exist.
 Leave Link 1110 at Tue Mar 11 10:43:19 2014, MaxMem= 4026531840 cpu:     581.8
 (Enter /usr/caen/gaussian-09revc/g09/l1002.exe)
 Minotr:  Closed shell wavefunction.
          IDoAtm=1111111111111111111111111111
          Direct CPHF calculation.
          Differentiating once with respect to nuclear coordinates.
          Requested convergence is 1.0D-06 RMS, and 1.0D-05 maximum.
          Secondary convergence is 1.0D-12 RMS, and 1.0D-12 maximum.
          NewPWx=T KeepS1=F KeepF1=F KeepIn=T MapXYZ=F SortEE=F KeepMc=T.
          MDV=    4026531556 using IRadAn=       2.
 Generate precomputed XC quadrature information.
          Keep R1 ints in memory in canonical form, NReq=993246431.
 Symmetry not used in FoFDir.
 MinBra= 0 MaxBra= 2 Meth= 1.
 IRaf=       0 NMat=   1 IRICut=       1 DoRegI=T DoRafI=F ISym2E= 0 JSym2E=0.
          Solving linear equations simultaneously, MaxMat=       0.
          There are    87 degrees of freedom in the 1st order CPHF.  IDoFFX=5.
     81 vectors produced by pass  0 Test12= 1.14D-10 1.15D-07 XBig12= 9.82D-02 7.64D-02.
 AX will form    81 AO Fock derivatives at one time.
     81 vectors produced by pass  1 Test12= 1.14D-10 1.15D-07 XBig12= 1.35D-02 1.95D-02.
     81 vectors produced by pass  2 Test12= 1.14D-10 1.15D-07 XBig12= 2.85D-05 6.67D-04.
     81 vectors produced by pass  3 Test12= 1.14D-10 1.15D-07 XBig12= 6.49D-08 2.63D-05.
     33 vectors produced by pass  4 Test12= 1.14D-10 1.15D-07 XBig12= 7.40D-11 1.18D-06.
 Inverted reduced A of dimension   357 with in-core refinement.
 End of Minotr Frequency-dependent properties file   721 does not exist.
 End of Minotr Frequency-dependent properties file   722 does not exist.
 Leave Link 1002 at Tue Mar 11 10:44:40 2014, MaxMem= 4026531840 cpu:     646.9
 (Enter /usr/caen/gaussian-09revc/g09/l601.exe)
 Copying SCF densities to generalized density rwf, IOpCl= 0 IROHF=0.

 **********************************************************************

            Population analysis using the SCF density.

 **********************************************************************

 Orbital symmetries:
       Occupied  (A) (A) (A) (A) (A) (A) (A) (A) (A) (A) (A) (A)
                 (A) (A) (A) (A) (A) (A) (A) (A) (A) (A) (A) (A)
                 (A) (A) (A) (A) (A) (A) (A) (A) (A) (A) (A) (A)
                 (A) (A) (A) (A)
       Virtual   (A) (A) (A) (A) (A) (A) (A) (A) (A) (A) (A) (A)
                 (A) (A) (A) (A) (A) (A) (A) (A) (A) (A) (A) (A)
                 (A) (A) (A) (A) (A) (A) (A) (A) (A) (A) (A) (A)
                 (A) (A) (A) (A) (A) (A) (A) (A) (A) (A) (A) (A)
                 (A) (A) (A) (A) (A) (A) (A) (A) (A) (A) (A) (A)
                 (A) (A) (A) (A) (A) (A) (A) (A) (A) (A) (A) (A)
                 (A) (A) (A) (A) (A) (A) (A) (A) (A) (A) (A) (A)
                 (A) (A) (A) (A) (A) (A) (A) (A) (A) (A) (A) (A)
                 (A) (A) (A) (A) (A) (A) (A) (A) (A) (A) (A) (A)
                 (A) (A) (A) (A) (A) (A) (A) (A) (A) (A) (A) (A)
                 (A) (A) (A) (A) (A) (A) (A) (A) (A) (A) (A) (A)
                 (A) (A) (A) (A) (A) (A) (A) (A) (A) (A) (A) (A)
                 (A) (A) (A) (A) (A) (A) (A) (A) (A) (A) (A) (A)
                 (A) (A) (A) (A) (A) (A) (A) (A) (A) (A) (A) (A)
                 (A) (A) (A) (A) (A) (A) (A) (A) (A) (A) (A) (A)
                 (A) (A) (A) (A) (A) (A) (A) (A) (A) (A) (A) (A)
                 (A) (A) (A) (A) (A) (A) (A) (A) (A) (A) (A) (A)
                 (A) (A) (A) (A) (A) (A) (A) (A) (A) (A) (A) (A)
                 (A) (A) (A) (A) (A) (A) (A) (A) (A) (A) (A) (A)
                 (A) (A) (A) (A) (A) (A) (A) (A) (A) (A) (A) (A)
                 (A) (A) (A) (A) (A) (A) (A) (A)
 The electronic state is 1-A.
 Alpha  occ. eigenvalues --  -19.10002 -10.22640 -10.21694 -10.17682 -10.16841
 Alpha  occ. eigenvalues --  -10.16191 -10.15912 -10.15877 -10.15830 -10.15759
 Alpha  occ. eigenvalues --   -1.02952  -0.81320  -0.78011  -0.74175  -0.69497
 Alpha  occ. eigenvalues --   -0.69191  -0.68473  -0.60135  -0.56326  -0.52573
 Alpha  occ. eigenvalues --   -0.48476  -0.47545  -0.47268  -0.45311  -0.43411
 Alpha  occ. eigenvalues --   -0.42165  -0.41915  -0.39885  -0.38905  -0.38420
 Alpha  occ. eigenvalues --   -0.37784  -0.37501  -0.36110  -0.35446  -0.34258
 Alpha  occ. eigenvalues --   -0.33008  -0.32671  -0.30146  -0.29807  -0.24514
 Alpha virt. eigenvalues --    0.03800   0.04399   0.05364   0.07129   0.07962
 Alpha virt. eigenvalues --    0.08476   0.09076   0.09423   0.10212   0.10911
 Alpha virt. eigenvalues --    0.11472   0.11765   0.12195   0.13052   0.14210
 Alpha virt. eigenvalues --    0.15135   0.15649   0.15876   0.16857   0.18252
 Alpha virt. eigenvalues --    0.20233   0.20615   0.21553   0.23401   0.25084
 Alpha virt. eigenvalues --    0.25619   0.25706   0.27196   0.28364   0.29289
 Alpha virt. eigenvalues --    0.30969   0.31729   0.34101   0.34441   0.35780
 Alpha virt. eigenvalues --    0.37019   0.38813   0.40137   0.41312   0.43058
 Alpha virt. eigenvalues --    0.44490   0.46261   0.48263   0.49167   0.51060
 Alpha virt. eigenvalues --    0.53129   0.53391   0.55145   0.55516   0.55951
 Alpha virt. eigenvalues --    0.56116   0.56954   0.57665   0.57858   0.58097
 Alpha virt. eigenvalues --    0.58860   0.59450   0.60271   0.60342   0.60746
 Alpha virt. eigenvalues --    0.61567   0.61919   0.62433   0.63172   0.64013
 Alpha virt. eigenvalues --    0.64699   0.65620   0.66239   0.66689   0.67534
 Alpha virt. eigenvalues --    0.70008   0.71880   0.74820   0.75767   0.81049
 Alpha virt. eigenvalues --    0.86654   0.88824   0.90969   0.95574   0.96268
 Alpha virt. eigenvalues --    0.98699   1.01796   1.02813   1.06745   1.09721
 Alpha virt. eigenvalues --    1.10947   1.11978   1.14005   1.16044   1.18703
 Alpha virt. eigenvalues --    1.22422   1.22709   1.25722   1.31962   1.33939
 Alpha virt. eigenvalues --    1.36009   1.36796   1.38208   1.38918   1.41894
 Alpha virt. eigenvalues --    1.44972   1.45248   1.45467   1.46049   1.46994
 Alpha virt. eigenvalues --    1.47724   1.49408   1.50276   1.50562   1.51291
 Alpha virt. eigenvalues --    1.52004   1.52924   1.53173   1.55517   1.56522
 Alpha virt. eigenvalues --    1.57605   1.58464   1.59817   1.60417   1.61716
 Alpha virt. eigenvalues --    1.62908   1.63763   1.64053   1.66550   1.67363
 Alpha virt. eigenvalues --    1.68493   1.70088   1.71615   1.73376   1.74389
 Alpha virt. eigenvalues --    1.75698   1.76877   1.77974   1.79158   1.80766
 Alpha virt. eigenvalues --    1.83411   1.85160   1.86192   1.87722   1.89210
 Alpha virt. eigenvalues --    1.89954   1.92626   1.93866   1.95040   1.96148
 Alpha virt. eigenvalues --    1.99398   2.01644   2.04181   2.05475   2.08453
 Alpha virt. eigenvalues --    2.10289   2.11538   2.13273   2.13881   2.17513
 Alpha virt. eigenvalues --    2.18886   2.21445   2.22545   2.23384   2.25323
 Alpha virt. eigenvalues --    2.28218   2.33237   2.34067   2.35553   2.36416
 Alpha virt. eigenvalues --    2.36909   2.38634   2.39218   2.42663   2.44102
 Alpha virt. eigenvalues --    2.45369   2.45816   2.46620   2.48285   2.49452
 Alpha virt. eigenvalues --    2.50289   2.50630   2.51256   2.51718   2.52422
 Alpha virt. eigenvalues --    2.53483   2.54826   2.56737   2.58153   2.58887
 Alpha virt. eigenvalues --    2.59776   2.60852   2.63017   2.64050   2.65348
 Alpha virt. eigenvalues --    2.69657   2.72035   2.73092   2.75331   2.76413
 Alpha virt. eigenvalues --    2.78190   2.80682   2.80940   2.85221   2.86712
 Alpha virt. eigenvalues --    2.87792   2.89416   2.92644   2.95045   2.95780
 Alpha virt. eigenvalues --    3.05127   3.09834   3.10952   3.11575   3.13549
 Alpha virt. eigenvalues --    3.19603   3.23238   3.26534   3.37306   3.46658
 Alpha virt. eigenvalues --    3.52896   3.67883   3.77409   3.77696   3.78250
 Alpha virt. eigenvalues --    3.79013   3.80345   3.81448   3.81594   3.82736
 Alpha virt. eigenvalues --    3.83582   3.85312   3.96195   4.01678   4.05724
 Alpha virt. eigenvalues --    4.24208   4.28404   4.29319   4.35451   4.41809
 Alpha virt. eigenvalues --    5.07973   5.46289   5.54572  23.74003  23.78351
 Alpha virt. eigenvalues --   23.82225  23.84551  23.89510  23.91898  23.93850
 Alpha virt. eigenvalues --   23.95041  23.95977  50.00457
          Condensed to atoms (all electrons):
              1          2          3          4          5          6
     1  C    4.849446   0.394826   0.387117   0.399095  -0.047935  -0.009716
     2  H    0.394826   0.575340  -0.025766  -0.026795  -0.007762   0.003147
     3  H    0.387117  -0.025766   0.598244  -0.027130  -0.004615   0.001621
     4  H    0.399095  -0.026795  -0.027130   0.572280   0.008801   0.000014
     5  C   -0.047935  -0.007762  -0.004615   0.008801   5.028611   0.396484
     6  H   -0.009716   0.003147   0.001621   0.000014   0.396484   0.570886
     7  H    0.004157  -0.000071   0.000045  -0.000540   0.390800  -0.027923
     8  C    0.010635  -0.000352  -0.000243  -0.001425   0.369011  -0.036486
     9  H   -0.001729   0.000256   0.000181   0.000121  -0.039058   0.007062
    10  C    0.001536  -0.000770  -0.000100   0.000038  -0.046589  -0.008438
    11  H   -0.001150   0.001210   0.000120   0.000036  -0.011326   0.005765
    12  H    0.000217   0.000068  -0.000008   0.000024   0.009066  -0.000413
    13  C   -0.000085   0.000131   0.000005   0.000001  -0.003255   0.000575
    14  H   -0.000007   0.000004   0.000001   0.000000  -0.000535   0.000195
    15  C    0.000001  -0.000005   0.000000   0.000000  -0.000180  -0.000096
    16  H    0.000000  -0.000002   0.000000   0.000000   0.000011  -0.000029
    17  H    0.000000   0.000000   0.000000   0.000000   0.000014   0.000011
    18  H    0.000000   0.000000   0.000000   0.000000  -0.000010   0.000007
    19  C   -0.074057   0.009574   0.000374  -0.007328  -0.058756   0.006141
    20  H   -0.001437  -0.000464  -0.000332   0.000017  -0.003953  -0.000345
    21  H   -0.007092  -0.000176  -0.000198   0.004553   0.009053  -0.000526
    22  H    0.008282  -0.000578  -0.000240  -0.000107  -0.005526  -0.000058
    23  C    0.000007  -0.000020  -0.000003   0.000001   0.000423  -0.000290
    24  H    0.000000   0.000000   0.000000   0.000000   0.000132   0.000013
    25  H   -0.000001  -0.000002   0.000000   0.000000   0.000105   0.000881
    26  H   -0.000002   0.000001   0.000002   0.000000  -0.001293  -0.001030
    27  C    0.356256  -0.029073  -0.033171  -0.032613   0.355651  -0.030401
    28  O   -0.049422   0.004311   0.004611   0.000886  -0.102257   0.008648
              7          8          9         10         11         12
     1  C    0.004157   0.010635  -0.001729   0.001536  -0.001150   0.000217
     2  H   -0.000071  -0.000352   0.000256  -0.000770   0.001210   0.000068
     3  H    0.000045  -0.000243   0.000181  -0.000100   0.000120  -0.000008
     4  H   -0.000540  -0.001425   0.000121   0.000038   0.000036   0.000024
     5  C    0.390800   0.369011  -0.039058  -0.046589  -0.011326   0.009066
     6  H   -0.027923  -0.036486   0.007062  -0.008438   0.005765  -0.000413
     7  H    0.579120  -0.029412  -0.008971   0.004782   0.000218  -0.000669
     8  C   -0.029412   4.932156   0.366592   0.355295  -0.041362  -0.031344
     9  H   -0.008971   0.366592   0.645517  -0.057982   0.010430  -0.004486
    10  C    0.004782   0.355295  -0.057982   5.012910   0.393089   0.395480
    11  H    0.000218  -0.041362   0.010430   0.393089   0.606448  -0.033584
    12  H   -0.000669  -0.031344  -0.004486   0.395480  -0.033584   0.584189
    13  C   -0.000269  -0.045176   0.003121   0.320481  -0.034996  -0.034000
    14  H    0.000130  -0.007463   0.008245  -0.047448   0.010049  -0.007307
    15  C    0.000017   0.006961  -0.000116  -0.061249  -0.004587  -0.007857
    16  H    0.000002  -0.000070   0.000008  -0.006541   0.004727  -0.000767
    17  H   -0.000003  -0.000383   0.000030   0.007718  -0.000167   0.000227
    18  H    0.000001   0.000071  -0.000011  -0.004548  -0.000621   0.004101
    19  C   -0.005840  -0.005163   0.003597  -0.000780   0.000146   0.000085
    20  H    0.000935   0.000609  -0.000443   0.000074  -0.000014  -0.000002
    21  H   -0.000163  -0.001246  -0.000063   0.000050  -0.000003   0.000004
    22  H    0.001717   0.002096  -0.001204   0.000148  -0.000031   0.000020
    23  C   -0.000811  -0.005268  -0.001866  -0.061404  -0.009160   0.008808
    24  H   -0.000008  -0.000123  -0.000105   0.007801  -0.000199  -0.000398
    25  H    0.000018  -0.001261   0.000114  -0.005180   0.004986  -0.000136
    26  H    0.001282   0.003178   0.000216  -0.006549  -0.000349  -0.000127
    27  C   -0.030286  -0.168743   0.007988   0.003689   0.001131  -0.001816
    28  O    0.009112   0.240992  -0.032731  -0.036577   0.005067   0.002569
             13         14         15         16         17         18
     1  C   -0.000085  -0.000007   0.000001   0.000000   0.000000   0.000000
     2  H    0.000131   0.000004  -0.000005  -0.000002   0.000000   0.000000
     3  H    0.000005   0.000001   0.000000   0.000000   0.000000   0.000000
     4  H    0.000001   0.000000   0.000000   0.000000   0.000000   0.000000
     5  C   -0.003255  -0.000535  -0.000180   0.000011   0.000014  -0.000010
     6  H    0.000575   0.000195  -0.000096  -0.000029   0.000011   0.000007
     7  H   -0.000269   0.000130   0.000017   0.000002  -0.000003   0.000001
     8  C   -0.045176  -0.007463   0.006961  -0.000070  -0.000383   0.000071
     9  H    0.003121   0.008245  -0.000116   0.000008   0.000030  -0.000011
    10  C    0.320481  -0.047448  -0.061249  -0.006541   0.007718  -0.004548
    11  H   -0.034996   0.010049  -0.004587   0.004727  -0.000167  -0.000621
    12  H   -0.034000  -0.007307  -0.007857  -0.000767   0.000227   0.004101
    13  C    5.078761   0.407788   0.374272  -0.039291  -0.032010  -0.033253
    14  H    0.407788   0.621388  -0.040117   0.009528  -0.006794  -0.006337
    15  C    0.374272  -0.040117   4.862400   0.403355   0.401288   0.402501
    16  H   -0.039291   0.009528   0.403355   0.593521  -0.031551  -0.030662
    17  H   -0.032010  -0.006794   0.401288  -0.031551   0.587960  -0.028010
    18  H   -0.033253  -0.006337   0.402501  -0.030662  -0.028010   0.583574
    19  C    0.000067   0.000000   0.000000   0.000000   0.000000   0.000000
    20  H   -0.000008  -0.000001   0.000000   0.000000   0.000000   0.000000
    21  H   -0.000001   0.000000   0.000000   0.000000   0.000000   0.000000
    22  H   -0.000019  -0.000009   0.000000   0.000000   0.000000   0.000000
    23  C    0.352411  -0.048462  -0.066982  -0.006336  -0.005473   0.008526
    24  H   -0.031538  -0.006432  -0.006573  -0.000709   0.004373   0.000051
    25  H   -0.040657   0.009686  -0.004903   0.005121  -0.000670  -0.000198
    26  H   -0.029714  -0.005948   0.007951  -0.000136   0.000006  -0.000518
    27  C    0.000331   0.000015   0.000004  -0.000003   0.000000   0.000000
    28  O    0.003645  -0.000016  -0.000072  -0.000006   0.000004  -0.000022
             19         20         21         22         23         24
     1  C   -0.074057  -0.001437  -0.007092   0.008282   0.000007   0.000000
     2  H    0.009574  -0.000464  -0.000176  -0.000578  -0.000020   0.000000
     3  H    0.000374  -0.000332  -0.000198  -0.000240  -0.000003   0.000000
     4  H   -0.007328   0.000017   0.004553  -0.000107   0.000001   0.000000
     5  C   -0.058756  -0.003953   0.009053  -0.005526   0.000423   0.000132
     6  H    0.006141  -0.000345  -0.000526  -0.000058  -0.000290   0.000013
     7  H   -0.005840   0.000935  -0.000163   0.001717  -0.000811  -0.000008
     8  C   -0.005163   0.000609  -0.001246   0.002096  -0.005268  -0.000123
     9  H    0.003597  -0.000443  -0.000063  -0.001204  -0.001866  -0.000105
    10  C   -0.000780   0.000074   0.000050   0.000148  -0.061404   0.007801
    11  H    0.000146  -0.000014  -0.000003  -0.000031  -0.009160  -0.000199
    12  H    0.000085  -0.000002   0.000004   0.000020   0.008808  -0.000398
    13  C    0.000067  -0.000008  -0.000001  -0.000019   0.352411  -0.031538
    14  H    0.000000  -0.000001   0.000000  -0.000009  -0.048462  -0.006432
    15  C    0.000000   0.000000   0.000000   0.000000  -0.066982  -0.006573
    16  H    0.000000   0.000000   0.000000   0.000000  -0.006336  -0.000709
    17  H    0.000000   0.000000   0.000000   0.000000  -0.005473   0.004373
    18  H    0.000000   0.000000   0.000000   0.000000   0.008526   0.000051
    19  C    4.881394   0.380766   0.398450   0.398052  -0.000011   0.000001
    20  H    0.380766   0.602441  -0.025863  -0.028283   0.000001   0.000000
    21  H    0.398450  -0.025863   0.570876  -0.027087   0.000000   0.000000
    22  H    0.398052  -0.028283  -0.027087   0.579118   0.000003   0.000000
    23  C   -0.000011   0.000001   0.000000   0.000003   4.899719   0.402838
    24  H    0.000001   0.000000   0.000000   0.000000   0.402838   0.583987
    25  H    0.000000   0.000000   0.000000   0.000000   0.400544  -0.030683
    26  H   -0.000013  -0.000001   0.000001  -0.000010   0.401145  -0.027879
    27  C    0.333142  -0.027606  -0.032555  -0.027935   0.000132  -0.000008
    28  O   -0.049244   0.004814   0.001811   0.000547  -0.000150   0.000004
             25         26         27         28
     1  C   -0.000001  -0.000002   0.356256  -0.049422
     2  H   -0.000002   0.000001  -0.029073   0.004311
     3  H    0.000000   0.000002  -0.033171   0.004611
     4  H    0.000000   0.000000  -0.032613   0.000886
     5  C    0.000105  -0.001293   0.355651  -0.102257
     6  H    0.000881  -0.001030  -0.030401   0.008648
     7  H    0.000018   0.001282  -0.030286   0.009112
     8  C   -0.001261   0.003178  -0.168743   0.240992
     9  H    0.000114   0.000216   0.007988  -0.032731
    10  C   -0.005180  -0.006549   0.003689  -0.036577
    11  H    0.004986  -0.000349   0.001131   0.005067
    12  H   -0.000136  -0.000127  -0.001816   0.002569
    13  C   -0.040657  -0.029714   0.000331   0.003645
    14  H    0.009686  -0.005948   0.000015  -0.000016
    15  C   -0.004903   0.007951   0.000004  -0.000072
    16  H    0.005121  -0.000136  -0.000003  -0.000006
    17  H   -0.000670   0.000006   0.000000   0.000004
    18  H   -0.000198  -0.000518   0.000000  -0.000022
    19  C    0.000000  -0.000013   0.333142  -0.049244
    20  H    0.000000  -0.000001  -0.027606   0.004814
    21  H    0.000000   0.000001  -0.032555   0.001811
    22  H    0.000000  -0.000010  -0.027935   0.000547
    23  C    0.400544   0.401145   0.000132  -0.000150
    24  H   -0.030683  -0.027879  -0.000008   0.000004
    25  H    0.593315  -0.031113  -0.000061  -0.000015
    26  H   -0.031113   0.583266   0.000293  -0.000025
    27  C   -0.000061   0.000293   5.141283   0.226067
    28  O   -0.000015  -0.000025   0.226067   8.147126
 Mulliken atomic charges:
              1
     1  C   -0.218941
     2  H    0.102970
     3  H    0.099485
     4  H    0.110071
     5  C   -0.235114
     6  H    0.114300
     7  H    0.112629
     8  C    0.087924
     9  H    0.095290
    10  C   -0.158936
    11  H    0.094126
    12  H    0.118055
    13  C   -0.217317
    14  H    0.109849
    15  C   -0.266010
    16  H    0.099828
    17  H    0.103428
    18  H    0.105358
    19  C   -0.210596
    20  H    0.099095
    21  H    0.110176
    22  H    0.101103
    23  C   -0.268319
    24  H    0.105455
    25  H    0.100111
    26  H    0.107369
    27  C   -0.011712
    28  O   -0.389676
 Sum of Mulliken atomic charges =   0.00000
 Mulliken charges with hydrogens summed into heavy atoms:
              1
     1  C    0.093584
     5  C   -0.008186
     8  C    0.183214
    10  C    0.053245
    13  C   -0.107468
    15  C    0.042603
    19  C    0.099778
    23  C    0.044616
    27  C   -0.011712
    28  O   -0.389676
 Sum of Mulliken charges with hydrogens summed into heavy atoms =   0.00000
 APT atomic charges:
              1
     1  C   -1.101572
     2  H    0.133230
     3  H    0.494749
     4  H    0.539161
     5  C   -0.627659
     6  H    0.267603
     7  H    0.390837
     8  C   -0.171830
     9  H    0.325446
    10  C   -0.499787
    11  H    0.234374
    12  H    0.375056
    13  C   -0.441987
    14  H    0.345052
    15  C   -1.333972
    16  H    0.283337
    17  H    0.656894
    18  H    0.366869
    19  C   -1.195461
    20  H    0.497009
    21  H    0.536036
    22  H    0.218556
    23  C   -1.004799
    24  H    0.662034
    25  H    0.256002
    26  H    0.111159
    27  C   -0.071472
    28  O   -0.244865
 Sum of APT charges=   0.00000
 APT Atomic charges with hydrogens summed into heavy atoms:
              1
     1  C    0.065568
     2  H    0.000000
     3  H    0.000000
     4  H    0.000000
     5  C    0.030781
     6  H    0.000000
     7  H    0.000000
     8  C    0.153616
     9  H    0.000000
    10  C    0.109642
    11  H    0.000000
    12  H    0.000000
    13  C   -0.096935
    14  H    0.000000
    15  C   -0.026872
    16  H    0.000000
    17  H    0.000000
    18  H    0.000000
    19  C    0.056140
    20  H    0.000000
    21  H    0.000000
    22  H    0.000000
    23  C    0.024397
    24  H    0.000000
    25  H    0.000000
    26  H    0.000000
    27  C   -0.071472
    28  O   -0.244865
 Sum of APT charges=   0.00000
 Electronic spatial extent (au):  <R**2>=           2155.2878
 Charge=              0.0000 electrons
 Dipole moment (field-independent basis, Debye):
    X=             -0.2577    Y=              1.4688    Z=              0.6377  Tot=              1.6219
 Quadrupole moment (field-independent basis, Debye-Ang):
   XX=            -63.7163   YY=            -67.5577   ZZ=            -65.6140
   XY=              1.9609   XZ=              1.9062   YZ=             -1.4600
 Traceless Quadrupole moment (field-independent basis, Debye-Ang):
   XX=              1.9130   YY=             -1.9283   ZZ=              0.0153
   XY=              1.9609   XZ=              1.9062   YZ=             -1.4600
 Octapole moment (field-independent basis, Debye-Ang**2):
  XXX=             14.6290  YYY=             -1.9514  ZZZ=             -2.3584  XYY=              1.3746
  XXY=              0.8185  XXZ=             -0.7735  XZZ=              0.2667  YZZ=             -0.4333
  YYZ=             -1.1242  XYZ=             -1.1319
 Hexadecapole moment (field-independent basis, Debye-Ang**3):
 XXXX=          -2314.5164 YYYY=           -388.1063 ZZZZ=           -298.7027 XXXY=            -24.7237
 XXXZ=              8.4130 YYYX=              1.4263 YYYZ=              1.2399 ZZZX=             -3.6025
 ZZZY=              0.1192 XXYY=           -451.8462 XXZZ=           -444.0174 YYZZ=           -115.8173
 XXYZ=              3.5270 YYXZ=              5.0053 ZZXY=              3.6235
 N-N= 5.731673170231D+02 E-N=-2.143407325000D+03  KE= 4.271424230107D+02
  Exact polarizability:   0.000   0.000   0.000   0.000   0.000   0.000
 Approx polarizability: 148.850  -0.249 141.824   2.626   0.170 141.132
 No NMR shielding tensors so no spin-rotation constants.
 Leave Link  601 at Tue Mar 11 10:44:41 2014, MaxMem= 4026531840 cpu:       3.6
 (Enter /usr/caen/gaussian-09revc/g09/l701.exe)
 Compute integral second derivatives.
 ... and contract with generalized density number  0.
 Leave Link  701 at Tue Mar 11 10:44:41 2014, MaxMem= 4026531840 cpu:       1.9
 (Enter /usr/caen/gaussian-09revc/g09/l702.exe)
 L702 exits ... SP integral derivatives will be done elsewhere.
 Leave Link  702 at Tue Mar 11 10:44:42 2014, MaxMem= 4026531840 cpu:       0.2
 (Enter /usr/caen/gaussian-09revc/g09/l703.exe)
 Compute integral second derivatives, UseDBF=F ICtDFT=           0.
 Integral derivatives from FoFDir, PRISM(SPDF).
 Calling FoFJK, ICntrl=    100147 FMM=F ISym2X=0 I1Cent= 0 IOpClX= 0 NMat=1 NMatS=1 NMatT=0.
 FoFCou: FMM=F IPFlag=           0 FMFlag=      100000 FMFlg1=         800
         NFxFlg=           0 DoJE=F BraDBF=F KetDBF=F FulRan=T
         Omega=  0.000000  0.000000  1.000000  0.000000  0.000000 ICntrl=  100147 IOpCl=  0
         NMat0=    1 NMatS0=    1 NMatT0=    0 NMatD0=    1 NMtDS0=    0 NMtDT0=    0
         I1Cent=           0 NGrid=           0.
 Symmetry not used in FoFCou.
 Leave Link  703 at Tue Mar 11 10:45:58 2014, MaxMem= 4026531840 cpu:     613.0
 (Enter /usr/caen/gaussian-09revc/g09/l716.exe)
 Dipole        =-1.01372634D-01 5.77879369D-01 2.50883964D-01
 Polarizability= 0.00000000D+00 0.00000000D+00 0.00000000D+00
                 0.00000000D+00 0.00000000D+00 0.00000000D+00
 ***** Axes restored to original set *****
 -------------------------------------------------------------------
 Center     Atomic                   Forces (Hartrees/Bohr)
 Number     Number              X              Y              Z
 -------------------------------------------------------------------
      1        6          -0.000107613    0.000092273   -0.000129106
      2        1          -0.000007145    0.000034900    0.000237768
      3        1          -0.000041549   -0.000104325   -0.000069329
      4        1           0.000149791   -0.000001430    0.000061477
      5        6           0.000043513    0.000368075    0.000039944
      6        1          -0.000011797    0.000032926   -0.000010366
      7        1           0.000001529    0.000122571   -0.000163378
      8        6          -0.001379366   -0.000365173    0.000067485
      9        1           0.000273528    0.000087846    0.000010522
     10        6          -0.000073730    0.000071712   -0.000006721
     11        1          -0.000033677   -0.000002186    0.000076694
     12        1          -0.000244794    0.000042053   -0.000030170
     13        6           0.000066243   -0.000140145   -0.000120297
     14        1          -0.000048873   -0.000012669   -0.000059130
     15        6           0.000095096    0.000019201   -0.000001340
     16        1          -0.000018146    0.000030263    0.000095084
     17        1          -0.000060983   -0.000042844   -0.000009140
     18        1          -0.000031195    0.000072289   -0.000031809
     19        6          -0.000061756   -0.000010978   -0.000025931
     20        1          -0.000092560   -0.000000750    0.000120754
     21        1           0.000182483   -0.000024104    0.000035357
     22        1           0.000011380   -0.000109561   -0.000121017
     23        6           0.000026120    0.000053458   -0.000007717
     24        1          -0.000064742   -0.000049626   -0.000005814
     25        1          -0.000011708   -0.000002798    0.000099065
     26        1           0.000054926   -0.000069748   -0.000020042
     27        6           0.001462965   -0.000435896    0.000315737
     28        8          -0.000077941    0.000344667   -0.000348582
 -------------------------------------------------------------------
 Cartesian Forces:  Max     0.001462965 RMS     0.000253436
 Leave Link  716 at Tue Mar 11 10:45:59 2014, MaxMem= 4026531840 cpu:       2.1
 (Enter /usr/caen/gaussian-09revc/g09/l103.exe)

 GradGradGradGradGradGradGradGradGradGradGradGradGradGradGradGradGradGrad
 Berny optimization.
 Red2BG is reusing G-inverse.
 Internal  Forces:  Max     0.000894546 RMS     0.000168738
 Search for a local minimum.
 Step number   1 out of a maximum of  168
 All quantities printed in internal units (Hartrees-Bohrs-Radians)
 RMS Force = .16874D-03 SwitMx=.10000D-02 MixMth= 2
 Mixed Optimization -- En-DIIS/RFO-DIIS
 Second derivative matrix not updated -- analytic derivatives used.
 ITU=  0
     Eigenvalues ---    0.00141   0.00204   0.00212   0.00244   0.00285
     Eigenvalues ---    0.00294   0.00361   0.02294   0.02936   0.03044
     Eigenvalues ---    0.03333   0.03509   0.03567   0.03823   0.04218
     Eigenvalues ---    0.04255   0.04298   0.04397   0.04437   0.04478
     Eigenvalues ---    0.04524   0.04565   0.04598   0.04611   0.04677
     Eigenvalues ---    0.04728   0.05889   0.07046   0.07099   0.07641
     Eigenvalues ---    0.07843   0.08910   0.09877   0.11864   0.12095
     Eigenvalues ---    0.12181   0.12277   0.12434   0.12792   0.13060
     Eigenvalues ---    0.14039   0.14147   0.14269   0.14704   0.14841
     Eigenvalues ---    0.15045   0.17581   0.17958   0.19119   0.19623
     Eigenvalues ---    0.20114   0.22131   0.25786   0.26388   0.27084
     Eigenvalues ---    0.27332   0.27602   0.29005   0.30349   0.31217
     Eigenvalues ---    0.32150   0.32232   0.32532   0.32740   0.32906
     Eigenvalues ---    0.33014   0.33040   0.33200   0.33227   0.33265
     Eigenvalues ---    0.33388   0.33472   0.33523   0.33982   0.34010
     Eigenvalues ---    0.34093   0.34157   0.34267
 RFO step:  Lambda=-4.61921547D-05 EMin= 1.41343750D-03
 Linear search not attempted -- first point.
 Iteration  1 RMS(Cart)=  0.01685101 RMS(Int)=  0.00008950
 Iteration  2 RMS(Cart)=  0.00015433 RMS(Int)=  0.00000751
 Iteration  3 RMS(Cart)=  0.00000001 RMS(Int)=  0.00000751
 Variable       Old X    -DE/DX   Delta X   Delta X   Delta X     New X
                                 (Linear)    (Quad)   (Total)
    R1        2.06368  -0.00016   0.00000  -0.00031  -0.00031   2.06336
    R2        2.06892  -0.00001   0.00000  -0.00021  -0.00021   2.06871
    R3        2.06712  -0.00007   0.00000  -0.00021  -0.00021   2.06691
    R4        2.87349  -0.00009   0.00000   0.00050   0.00050   2.87399
    R5        2.06229   0.00000   0.00000  -0.00008  -0.00008   2.06221
    R6        2.06160   0.00007   0.00000   0.00001   0.00001   2.06161
    R7        2.91716  -0.00014   0.00000   0.00074   0.00074   2.91790
    R8        2.92685  -0.00008   0.00000   0.00021   0.00020   2.92705
    R9        2.07633   0.00009   0.00000   0.00022   0.00022   2.07655
   R10        2.87558  -0.00027   0.00000   0.00051   0.00051   2.87609
   R11        2.75038  -0.00088   0.00000  -0.00354  -0.00353   2.74685
   R12        2.07422  -0.00007   0.00000  -0.00013  -0.00013   2.07409
   R13        2.07193  -0.00007   0.00000  -0.00016  -0.00016   2.07177
   R14        2.91059  -0.00007   0.00000  -0.00097  -0.00097   2.90962
   R15        2.07637  -0.00006   0.00000  -0.00012  -0.00012   2.07625
   R16        2.90093  -0.00007   0.00000  -0.00035  -0.00035   2.90058
   R17        2.90252  -0.00009   0.00000  -0.00014  -0.00014   2.90238
   R18        2.07033  -0.00010   0.00000  -0.00028  -0.00028   2.07005
   R19        2.06748  -0.00007   0.00000  -0.00024  -0.00024   2.06724
   R20        2.06708  -0.00008   0.00000  -0.00023  -0.00023   2.06685
   R21        2.06876  -0.00001   0.00000  -0.00018  -0.00018   2.06858
   R22        2.06640  -0.00008   0.00000  -0.00016  -0.00016   2.06624
   R23        2.06517  -0.00014   0.00000  -0.00030  -0.00030   2.06487
   R24        2.88027  -0.00008   0.00000  -0.00006  -0.00006   2.88021
   R25        2.06755  -0.00008   0.00000  -0.00025  -0.00025   2.06730
   R26        2.07064  -0.00010   0.00000  -0.00025  -0.00025   2.07039
   R27        2.06530  -0.00009   0.00000  -0.00009  -0.00009   2.06520
   R28        2.77303  -0.00089   0.00000  -0.00423  -0.00423   2.76880
    A1        1.89600   0.00004   0.00000   0.00080   0.00080   1.89680
    A2        1.88909   0.00008   0.00000  -0.00105  -0.00105   1.88804
    A3        1.93175  -0.00027   0.00000  -0.00207  -0.00207   1.92968
    A4        1.88942   0.00000   0.00000   0.00108   0.00108   1.89051
    A5        1.93112   0.00029   0.00000   0.00365   0.00365   1.93477
    A6        1.92528  -0.00014   0.00000  -0.00240  -0.00241   1.92287
    A7        1.90956  -0.00020   0.00000  -0.00088  -0.00089   1.90867
    A8        1.98677   0.00019   0.00000   0.00172   0.00173   1.98850
    A9        1.98605   0.00003   0.00000   0.00177   0.00178   1.98783
[...]
 616,-0.00027950,0.00024841,-0.00002783,0.00004807,0.00000169,0.0000924
 5,-0.00004873,-0.00001792,-0.00004878,0.00001969,-0.00001671,0.0000056
 9,-0.00000483,0.00000591,-0.00000213,-0.00000165,0.00000909,-0.0000016
 0,0.00000136,-0.00000444,0.00000836,0.00000480,-0.00000244,-0.00000122
 ,-0.00000377,0.00000139,0.04802293,0.05837210,-0.07183239,0.00977036,0
 .01059978,-0.00535168,-0.05534677,-0.06390144,0.07557296,-0.00336348,0
 .00178390,0.00228155,0.00063545,0.00075564,0.00116914,-0.00004214,-0.0
 0018885,0.00009614,-0.00002161,0.00024809,-0.00000616,0.00122456,0.000
 53011,0.00015373,0.00020630,0.00001054,-0.00016032,0.00017152,-0.00025
 452,-0.00019823,-0.00020673,0.00005741,0.00041394,-0.00022119,0.000092
 13,-0.00003716,-0.00008063,0.00004164,-0.00001615,0.00004929,-0.000015
 63,-0.00002704,0.00000571,-0.00002641,-0.00000228,-0.00000830,-0.00003
 767,-0.00002886,-0.00001041,0.00000412,-0.00000028,0.00001215,0.000023
 61,0.00000526,-0.00000139,-0.00000203,-0.00000303,0.00001957,0.0000005
 7,-0.00000184,-0.00000395,-0.00000348,0.00000110,-0.09344740,-0.048172
 53,-0.08926209,-0.00767309,-0.00842236,-0.01289475,-0.00825445,-0.0069
 9779,-0.01557020,0.09997005,0.00262901,-0.00043979,-0.00104434,-0.0001
 6942,0.00007182,-0.00093489,-0.00019451,0.00017770,-0.00020057,0.00017
 809,0.00042982,0.00032864,-0.00021032,0.00042650,0.00095274,-0.0001063
 7,0.00002473,-0.00000930,0.00019477,0.00019068,0.00018628,0.00050717,0
 .00018223,-0.00066071,0.00024703,0.00003312,0.00014023,0.00002690,-0.0
 0004520,0.00008131,-0.00005437,0.00003250,0.00004331,0.00002462,-0.000
 01707,-0.00000223,0.00000083,0.00003372,-0.00001292,0.00001933,0.00000
 511,0.00001552,-0.00000648,-0.00001532,0.00000157,-0.00000246,0.000003
 26,0.00000714,-0.00000916,0.00000231,0.00000015,0.00000408,-0.00000590
 ,-0.00000112,-0.04714171,-0.09504160,-0.08967159,0.00881073,0.01068506
 ,0.01823326,-0.00933329,-0.01002137,-0.01948015,0.05121467,0.09962630,
 0.00437914,-0.00122579,-0.00130011,-0.00041766,-0.00090940,-0.00099431
 ,0.00008967,0.00020214,0.00044666,-0.00008379,-0.00003393,0.00016716,-
 0.00091717,-0.00075014,0.00058164,-0.00027304,0.00033124,0.00020826,0.
 00042532,0.00090458,-0.00000886,0.00019263,-0.00045933,-0.00027054,0.0
 0026249,0.00004163,0.00028325,0.00009148,0.00003440,0.00003642,-0.0000
 7763,0.00003396,0.00004833,-0.00002193,0.00002718,-0.00001206,0.000010
 92,0.00000792,-0.00000200,0.00001787,0.00000148,0.00001639,0.00000095,
 -0.00000382,-0.00000444,-0.00000401,0.00000173,0.00000906,-0.00000417,
 0.00000033,0.00000200,-0.00000254,0.00000514,-0.00000373,-0.08650251,-
 0.09039744,-0.21430347,-0.00540107,-0.00636570,-0.01169069,0.00431343,
 0.00431707,0.00908774,0.09407300,0.10058168,0.23341983,0.00003955,0.00
 003172,-0.00005676,0.00000024,0.00000674,0.00003354,-0.00002344,0.0000
 0768,-0.00001354,0.00001286,0.00000974,0.00001755,-0.00084541,-0.00032
 105,-0.00046306,-0.00018358,-0.00004946,0.00023638,-0.00027352,0.00021
 501,0.00001808,0.00084425,-0.00161059,0.00000595,-0.00006122,0.0001561
 4,0.00037754,-0.00040288,-0.02755396,0.01629441,0.00104945,0.00064408,
 0.00025836,-0.00530640,-0.00328106,-0.00050106,-0.07763966,-0.00238938
 ,0.00087765,-0.00007271,0.00225453,-0.00131535,-0.00137534,0.02561498,
 -0.01431097,0.00088962,-0.00075762,-0.00029771,0.00060602,0.00076290,-
 0.00055795,-0.00433777,0.00395225,0.00106669,-0.00007382,0.00001072,-0
 .00004158,-0.00004164,0.00001921,0.00000383,0.00000333,0.00001548,0.00
 001089,0.00000311,-0.00000834,0.00002916,0.56890098,-0.00008987,-0.000
 11947,0.00013990,0.00000974,-0.00000502,-0.00002745,0.00000713,0.00000
 948,0.00000623,-0.00004154,-0.00004820,-0.00006581,-0.00121672,-0.0005
 9575,0.00052726,-0.00003132,0.00003312,0.00027529,0.00035609,-0.000326
 17,-0.00008262,-0.00027992,0.00184934,-0.00042517,-0.00007628,0.000184
 40,-0.00001761,-0.00513227,-0.01941196,0.00905030,0.00129028,0.0006909
 9,0.00045773,-0.00211727,-0.00011215,-0.00032593,-0.00032542,-0.148416
 55,0.04288976,0.00021274,0.00349041,-0.00151965,0.00564660,-0.02535922
 ,0.01152444,-0.00124650,0.00095549,0.00064167,-0.00156432,0.00136497,0
 .00009838,0.00224506,-0.00145105,-0.00085323,-0.00004627,-0.00017724,0
 .00003699,0.00001902,-0.00000575,-0.00000453,-0.00007020,0.00000557,0.
 00004354,0.00001088,0.00002135,-0.00001597,-0.00720541,0.48788710,-0.0
 0010095,0.00001740,0.00004594,0.00001991,-0.00004346,0.00000403,-0.000
 02657,0.00000995,-0.00001933,0.00000396,-0.00002535,-0.00003691,-0.000
 37468,-0.00024257,0.00067058,-0.00013979,0.00010433,-0.00006392,0.0001
 9110,-0.00008593,-0.00032243,0.00044273,-0.00016819,-0.00050788,0.0000
 0224,0.00007475,0.00002345,0.00234171,-0.00238105,0.00242925,-0.000566
 43,-0.00139617,0.00087860,-0.00156441,-0.00169319,0.00065056,0.0006774
 2,0.04541934,-0.10729675,0.00037845,0.03066225,-0.01813542,-0.00162869
 ,-0.00537743,0.00471089,0.00043827,-0.00127768,0.00084303,-0.00007426,
 0.00004690,-0.00005890,0.00197041,-0.00244904,0.00029733,-0.00003220,0
 .00000963,-0.00004996,-0.00001873,0.00002418,0.00000991,-0.00000837,-0
 .00000512,0.00001505,0.00000952,0.00000050,-0.00001242,0.00159331,0.04
 774595,0.52890200,-0.00005198,-0.00003980,0.00003979,0.00001192,0.0000
 1597,0.00001134,-0.00000916,0.00001233,-0.00001710,-0.00003138,-0.0000
 3487,-0.00001788,-0.00028631,-0.00035549,0.00001572,0.00005993,0.00005
 104,0.00022253,0.00010118,-0.00006488,-0.00005014,0.00035303,0.0003535
 6,-0.00042704,0.00000682,0.00002541,0.00000520,0.00135919,0.00035427,0
 .00076123,0.00006166,0.00014108,-0.00004756,-0.00010148,-0.00014060,-0
 .00006800,-0.00108191,0.00030562,0.00012334,0.00015414,-0.00022874,0.0
 0057069,0.00076664,0.00100140,-0.00018767,-0.00003212,0.00001469,0.000
 03452,0.00061846,-0.00020441,-0.00010277,0.00025414,0.00001827,0.00014
 789,-0.00006110,-0.00009427,-0.00000263,-0.00001434,0.00001859,-0.0000
 0584,-0.00004667,-0.00000327,0.00003224,0.00001944,0.00000328,-0.00000
 602,-0.24444178,-0.10450667,-0.03476794,0.26501335,0.00001188,0.000035
 08,-0.00005238,0.00000271,-0.00000145,0.00002465,-0.00002058,0.0000049
 7,-0.00001174,0.00001155,0.00000513,0.00001763,0.00019419,0.00024560,0
 .00000035,0.00001068,-0.00006518,-0.00014764,-0.00014993,0.00011808,0.
 00004120,0.00082580,-0.00062376,-0.00007563,-0.00008510,0.00004501,0.0
 0010514,0.00165973,-0.00442647,0.00411236,0.00031131,0.00023195,-0.000
 04735,-0.00169711,-0.00088089,0.00002426,-0.02486693,-0.01387635,-0.00
 585690,0.00027834,0.00108911,0.00008429,-0.00168784,0.00103219,-0.0007
 3870,0.00006062,-0.00010895,-0.00001295,0.00104904,-0.00016145,0.00016
 575,0.00019226,0.00050974,0.00009134,-0.00001092,0.00007957,-0.0000363
 6,-0.00002765,0.00001530,0.00000497,0.00001991,-0.00000997,-0.00000929
 ,0.00000523,-0.00001028,0.00000096,-0.10322102,-0.10146908,-0.01846434
 ,0.11462856,0.11136815,0.00002826,-0.00001374,0.00000424,-0.00000178,0
 .00001690,-0.00000400,0.00001131,-0.00000092,0.00000595,-0.00001081,-0
 .00000072,0.00000736,-0.00003736,-0.00004174,-0.00039479,0.00005624,0.
 00000595,0.00019329,-0.00001159,0.00002699,0.00005632,-0.00034832,0.00
 003902,0.00012483,-0.00001133,-0.00005192,0.00002854,-0.00093071,0.002
 69151,-0.00167552,0.00019553,0.00030577,0.00026922,0.00079863,0.000648
 40,0.00043915,0.01604147,0.00842826,0.00219420,0.00032818,-0.00072550,
 0.00046415,0.00035527,-0.00074727,0.00031980,-0.00020047,-0.00003611,-
 0.00004174,-0.00022587,-0.00006870,0.00028134,0.00016189,-0.00016019,-
 0.00016865,-0.00000288,-0.00004501,0.00001917,0.00001014,-0.00000499,-
 0.00000397,-0.00001511,0.00000320,0.00000600,-0.00000123,0.00000288,0.
 00000062,-0.03495124,-0.01897754,-0.05336714,0.03836856,0.01775862,0.0
 5443730,-0.00001491,0.00000819,-0.00000110,-0.00000306,-0.00002438,-0.
 00000829,-0.00000558,-0.00000286,0.00000150,0.00001773,0.00000985,-0.0
 0000891,0.00003466,0.00023652,0.00036763,-0.00031837,-0.00009536,-0.00
 020022,0.00004608,-0.00008095,0.00002311,-0.00000507,0.00015453,0.0002
 5834,0.00003268,0.00002448,-0.00017999,0.00035647,0.00039920,0.0011515
 7,0.00016636,-0.00011111,-0.00015670,-0.00001173,0.00004662,-0.0001622
 3,-0.00083459,0.00017712,0.00122895,0.00069086,-0.00023208,0.00025359,
 0.00001792,-0.00028732,-0.00092662,0.00016119,0.00026234,0.00009113,-0
 .00000062,-0.00002257,-0.00012995,-0.00006727,-0.00001138,0.00023470,0
 .00003680,0.00006867,-0.00000937,-0.00000163,-0.00000384,0.00000347,0.
 00002590,-0.00000343,-0.00001761,-0.00000498,-0.00000276,-0.00000522,-
 0.04972095,-0.00420674,-0.02476190,-0.00221709,-0.00454863,-0.02864914
 ,0.04892596,0.00000050,0.00001726,0.00000416,-0.00000462,0.00000438,-0
 .00000773,0.00001341,-0.00000554,0.00000159,0.00000031,-0.00000052,0.0
 0000530,-0.00009494,-0.00010734,-0.00029106,-0.00005896,0.00011890,0.0
 0017168,-0.00003116,0.00004575,-0.00004347,-0.00015014,-0.00012580,-0.
 00009502,0.00010986,-0.00008682,-0.00002443,0.00074832,0.00184225,0.00
 063243,-0.00029057,-0.00022803,-0.00075870,0.00028174,0.00015251,-0.00
 035221,0.00318734,0.00487159,0.02946582,-0.00002307,-0.00483343,0.0034
 2145,-0.00063873,0.00168945,0.00077312,0.00014745,-0.00011350,-0.00069
 494,0.00007200,-0.00011597,-0.00008549,-0.00022783,0.00017942,-0.00031
 093,-0.00001649,-0.00002734,-0.00000330,0.00000606,-0.00000345,-0.0000
 0075,-0.00000511,0.00000450,0.00000648,-0.00000038,0.00000009,0.000006
 77,-0.00413912,-0.05453225,-0.04418795,-0.00042712,-0.00327181,-0.0143
 3146,0.00480905,0.05822255,0.00003875,-0.00002314,0.00001198,-0.000006
 78,0.00002889,-0.00000115,0.00002058,-0.00000207,0.00001102,-0.0000187
 0,-0.00000503,0.00000846,-0.00004373,-0.00013456,-0.00050791,0.0001058
 7,0.00004478,0.00036612,-0.00005066,0.00004348,0.00004605,-0.00025058,
 -0.00000596,-0.00019696,-0.00009664,0.00007015,0.00021353,-0.00047844,
 -0.00097825,0.00049474,0.00088762,0.00072097,0.00052475,-0.00002727,0.
 00006123,0.00041952,-0.00169324,-0.00288851,-0.01877913,0.00015109,0.0
 0374878,-0.00032857,0.00043499,-0.00091636,0.00061283,-0.00061436,0.00
 068808,0.00059452,0.00002127,0.00003398,-0.00001767,0.00005923,0.00013
 920,0.00040373,-0.00002379,-0.00008228,0.00001383,0.00001533,-0.000008
 05,-0.00000127,-0.00002726,0.00000622,0.00001367,0.00000050,0.00001087
 ,0.00001107,-0.02467415,-0.04379619,-0.28997776,-0.00056420,-0.0009813
 2,-0.00410020,0.02746289,0.04563171,0.31860851,0.00001009,0.00000676,0
 .00000883,0.00000098,-0.00000816,-0.00001732,0.00000748,-0.00000255,0.
 00000704,0.00000021,0.00000002,-0.00000765,-0.00099514,-0.00077961,-0.
 00002470,-0.00034964,-0.00008334,-0.00005633,-0.00020937,-0.00002407,0
 .00001837,-0.00024431,0.00007703,0.00025729,0.00006587,0.00007501,-0.0
 0014378,0.00040410,0.00005389,-0.00039969,-0.00001495,-0.00005976,-0.0
 0001070,0.00008819,0.00013332,-0.00002151,0.00123550,-0.00214621,-0.00
 120367,0.00007552,0.00028787,-0.00050719,0.00064945,0.00011829,-0.0005
 6915,-0.00004529,-0.00008462,0.00008682,0.00052110,-0.00016910,0.00012
 539,0.00023925,0.00018613,0.00023078,0.00000501,-0.00002184,0.00001705
 ,0.00001016,-0.00000816,0.00000032,-0.00000558,0.00000511,0.00000208,-
 0.00000417,0.00000376,-0.00000336,-0.18754418,0.11772639,0.05640040,-0
 .02035675,0.01738954,0.00889214,0.00276182,-0.00328763,-0.00092695,0.2
 0385715,0.00010197,0.00007424,-0.00009256,-0.00001850,-0.00001387,0.00
 000877,-0.00000050,-0.00000915,0.00001781,0.00004420,0.00004974,0.0000
 4262,0.00003794,0.00062107,-0.00027105,-0.00018834,-0.00017059,-0.0002
 6674,-0.00017228,0.00026209,0.00004128,-0.00040551,-0.00147814,0.00026
 546,-0.00001439,0.00009174,0.00020218,0.00053764,0.00085053,-0.0005329
 8,-0.00008653,-0.00004708,0.00005568,0.00006500,0.00020904,0.00017392,
 0.02125613,-0.01566709,-0.01024834,-0.00020770,0.00128037,0.00015664,-
 0.00174928,-0.00451749,0.00420799,-0.00032192,0.00025081,-0.00000450,0
 .00009760,0.00025537,0.00010809,0.00159594,-0.00109443,-0.00029255,0.0
 0005357,0.00013102,-0.00001679,0.00000309,-0.00001295,0.00000773,0.000
 06470,0.00000131,-0.00004047,-0.00002127,-0.00000825,0.00001734,0.1160
 3161,-0.14462209,-0.04623042,-0.01086057,0.01003774,0.00522801,0.00360
 033,-0.00379394,-0.00164081,-0.12932593,0.15707830,0.00002182,0.000032
 95,-0.00006063,-0.00000490,-0.00001091,0.00000720,-0.00001686,-0.00000
 308,-0.00000570,0.00002529,0.00002562,0.00001755,0.00049053,0.00033812
 ,0.00026880,-0.00028552,-0.00029444,-0.00048546,-0.00010885,0.00004115
 ,0.00022419,0.00052946,0.00019158,0.00067203,-0.00005789,-0.00004134,-
 0.00024666,0.00006531,-0.00077349,0.00031140,0.00008130,-0.00003247,-0
 .00002063,-0.00017784,-0.00009423,-0.00007684,-0.01449317,0.01035244,0
 .00492084,-0.00033854,-0.00076885,0.00072767,0.00052539,0.00294271,-0.
 00163532,-0.00009629,0.00037804,0.00031514,0.00022579,-0.00010911,-0.0
 0014582,-0.00068558,0.00090546,0.00055492,0.00004421,0.00011529,0.0000
 0284,-0.00001688,-0.00000147,0.00000005,0.00004072,-0.00000613,-0.0000
 3164,-0.00000284,-0.00001244,-0.00000670,0.05625398,-0.04686352,-0.069
 69319,-0.00411993,0.00395315,0.00082508,0.02435727,-0.01904504,-0.0086
 1408,-0.06204371,0.04895809,0.07240091,-0.08777863,-0.02551630,-0.0257
 1735,0.00800611,0.01271983,0.02129604,-0.00784596,-0.00719054,-0.01106
 469,-0.00988835,-0.00996394,-0.01719301,-0.11535920,-0.04309585,0.0196
 8374,-0.00872321,-0.00314944,-0.00115073,0.00607412,0.00532802,-0.0005
 9699,-0.08559152,0.00309435,-0.03227666,0.00112591,0.00163786,0.000876
 64,-0.00257918,0.00022956,-0.00111247,-0.00000488,0.00004552,-0.000146
 76,-0.00005630,-0.00012948,-0.00001048,-0.00038571,-0.00061585,0.00015
 385,0.00001899,0.00011728,0.00002039,0.00012760,0.00028846,0.00017843,
 -0.00001594,-0.00003525,-0.00006645,0.00023689,-0.00001469,-0.00003405
 ,-0.00006855,-0.00003033,0.00000300,-0.12358181,0.01704754,0.05192490,
 -0.01074179,0.00343042,0.00782846,-0.01693908,0.00775579,0.01250096,0.
 00904048,-0.00562491,-0.01013645,0.00012535,-0.00018237,0.00020348,0.0
 0020842,0.00010940,-0.00004087,-0.00003916,-0.00003229,-0.00007035,-0.
 00032420,-0.00020133,-0.00001537,0.52593587,-0.02120950,-0.10752495,-0
 .04372370,-0.00526484,-0.00796789,-0.01080894,0.00947023,0.00929338,0.
 02085516,-0.01038350,-0.01386408,-0.02171405,-0.06030202,-0.09505793,-
 0.00971987,0.00599830,0.00119511,-0.00027222,-0.02042237,-0.01033585,0
 .00287775,-0.00358029,0.00855117,0.00076462,-0.00313387,-0.00473651,0.
 00030666,-0.00146426,-0.00575075,0.00072928,0.00018999,0.00038794,-0.0
 0000452,0.00161654,-0.00012578,-0.00050432,-0.00090518,0.00125272,0.00
 041789,0.00006512,-0.00006839,0.00009786,-0.00038245,-0.00055464,-0.00
 004089,-0.00000299,0.00005858,0.00004428,-0.00026320,0.00012530,0.0000
 3138,0.00007092,-0.00001377,-0.00000201,0.02104394,-0.08839048,-0.0290
 6494,0.01335920,-0.00872929,-0.01224329,-0.01901417,0.00854046,0.01709
 867,0.01082626,-0.00670803,-0.00765061,0.00010367,0.00045418,-0.000178
 85,0.00014438,-0.00016757,0.00014919,-0.00017423,0.00010154,0.00027911
 ,-0.00004747,-0.00016548,-0.00028059,0.03437781,0.42994120,-0.02570282
 ,-0.04973338,-0.14732097,-0.00842679,-0.00794887,-0.01645941,-0.004532
 09,-0.00705272,-0.01151251,0.00382073,0.00590595,0.00824621,0.02850444
 ,-0.00577116,-0.07257231,0.02517498,0.01427268,-0.00023428,-0.01351742
 ,-0.00496089,-0.00177003,-0.03286734,0.00286709,-0.00226952,0.00053423
 ,0.00102503,-0.00008799,0.00233692,0.00397256,-0.00155842,0.00027506,-
 0.00032727,-0.00023908,-0.00128346,0.00040938,0.00032686,0.00058534,-0
 .00075005,-0.00083869,-0.00011456,-0.00000320,0.00002796,0.00030094,0.
 00043877,0.00013958,0.00000089,-0.00002325,-0.00005748,0.00025616,-0.0
 0010002,-0.00002828,-0.00006055,0.00000009,0.00001521,0.04870815,-0.02
 574867,-0.12423297,-0.01470313,0.00832455,0.00999100,0.00786862,-0.003
 95131,-0.00746494,0.02060834,-0.00986578,-0.01805403,0.00035830,-0.000
 40663,0.00009846,0.00002657,0.00015336,0.00002742,-0.00010355,0.000054
 68,0.00000476,-0.00001853,0.00009479,0.00002107,-0.00417913,0.05390733
 ,0.47661463,-0.01460854,0.01730552,-0.01759203,0.00166656,-0.00076420,
 0.00033861,-0.00166915,-0.00296885,-0.00445373,0.00137812,0.00034475,0
 .00230760,-0.01517536,-0.01609762,-0.00130138,0.00187260,-0.00002556,0
 .00096870,0.00277795,-0.00156280,0.00198822,-0.11759082,-0.07318117,0.
 01741164,-0.01542385,-0.01739776,-0.00457913,-0.03564912,-0.02737381,-
 0.00076446,0.00202382,-0.00006907,0.00075669,0.00326282,-0.00107103,-0
 .00125246,-0.00210839,0.00692963,0.00412858,0.00026935,-0.00005084,0.0
 0002321,-0.00172700,-0.00246823,-0.00067525,0.00000750,0.00011543,0.00
 024777,-0.00121601,0.00052396,0.00021069,0.00015429,0.00014042,-0.0001
 0203,-0.02275468,0.02916685,-0.01961010,-0.00581399,0.00299623,0.00473
 766,0.00275132,-0.00187012,-0.00119486,0.00198628,-0.00100018,-0.00002
 949,-0.00013048,0.00081514,-0.00060802,-0.00025626,-0.00044505,0.00019
 108,-0.00002943,0.00005213,0.00036897,0.00016171,0.00008435,-0.0001969
 2,-0.08097625,0.04928396,-0.03385028,0.29681699,-0.00067810,0.01022354
 ,-0.00135798,-0.00064363,0.00067422,0.00136037,-0.00159990,0.00080518,
 -0.00258485,0.00132766,0.00138461,0.00142034,-0.01480328,-0.07533085,0
 .04156967,-0.00100700,-0.00478728,0.00214288,-0.00147952,-0.00448838,0
 .00465536,-0.03630712,-0.11806098,0.01121454,-0.01829369,-0.01182017,-
 0.00180329,0.00408271,0.01094211,0.00071562,-0.00046281,0.00048804,0.0
 0130703,-0.00144759,0.00228723,0.00003516,0.00216839,-0.00009831,-0.00
 118244,0.00032719,-0.00002789,0.00018221,0.00028498,0.00028410,0.00005
 626,-0.00007495,-0.00000356,-0.00002039,0.00014807,-0.00008804,-0.0000
 1866,-0.00008122,0.00005194,-0.00001969,0.01719486,-0.01411789,0.00978
 789,0.00328606,0.00044159,-0.00266819,0.00076333,0.00111827,-0.0008025
 8,-0.00146190,0.00036652,0.00129657,0.00070052,-0.00029445,0.00009156,
 -0.00012776,0.00025560,-0.00009890,0.00001077,-0.00000444,-0.00004495,
 -0.00001470,0.00040719,0.00010249,0.00960072,-0.10974021,0.02521693,0.
 03858789,0.30913233,-0.02219151,0.02306103,-0.01933616,0.00087590,0.00
 166240,0.00286195,-0.00384335,-0.00375919,-0.00402039,0.00019089,-0.00
 058983,0.00145555,-0.00183263,0.04967684,-0.01014451,0.00084213,-0.000
 36093,0.00020240,0.00237922,0.00437451,-0.00297238,-0.00578816,-0.0040
 3953,-0.06474722,-0.02197076,-0.01787011,0.01096756,0.00718589,0.00715
 812,0.00247676,-0.00159309,0.00139621,0.00167680,-0.00000529,-0.000826
 82,0.00019305,0.00019653,-0.00132933,0.00086408,0.00076328,0.00021124,
 0.00039015,0.00026080,0.00013893,0.00041814,-0.00012630,0.00006095,0.0
 0004144,0.00002462,-0.00009569,-0.00005816,0.00007511,-0.00005393,-0.0
 0000995,0.00223831,-0.00673119,0.01072132,0.00293975,-0.00151142,0.000
 42145,-0.00126138,0.00007216,0.00075439,-0.00059977,0.00130993,0.00234
 494,-0.00025227,-0.00005561,-0.00003706,0.00002506,-0.00010345,0.00005
 202,-0.00011334,0.00005729,0.00016561,-0.00009228,0.00005079,-0.000247
 02,-0.01085809,0.03864962,-0.09081225,0.05253071,-0.09055296,0.1563774
 7\\0.00000013,0.00000133,0.00000056,-0.00000221,0.00000079,0.00000060,
 -0.00000049,0.00000068,0.00000162,0.00000054,-0.00000093,0.00000106,-0
 .00000144,0.00000403,0.00000484,-0.00000088,-0.00000051,0.00000020,-0.
 00000030,-0.00000081,0.00000175,-0.00000752,-0.00000093,0.00000080,0.0
 0000095,-0.00000094,0.00000046,0.00000057,-0.00000323,0.00000006,-0.00
 000026,-0.00000049,-0.00000150,-0.00000012,0.00000040,-0.00000292,0.00
 000231,0.00000766,-0.00000390,0.00000082,-0.00000059,-0.00000156,0.000
 00031,0.00000059,-0.00000210,-0.00000011,0.00000247,-0.00000322,0.,0.0
 0000165,-0.00000332,0.00000180,0.00000028,-0.00000425,-0.00000009,-0.0
 0000396,0.00000151,-0.00000115,-0.00000118,0.00000521,0.00000251,-0.00
 000203,0.00000222,0.00000049,-0.00000264,0.00000308,-0.00000006,0.0000
 0121,-0.00000224,-0.00000125,0.00000070,0.00000052,-0.00000213,-0.0000
 0009,0.00000134,-0.00000040,-0.00000119,0.00000257,0.00000676,-0.00000
 335,-0.00000041,0.00000123,0.00000109,-0.00000297\\\@
 Job cpu time:  0 days  3 hours 32 minutes 45.8 seconds.
 File lengths (MBytes):  RWF=  43656 Int=      0 D2E=      0 Chk=     16 Scr=      1
 Normal termination of Gaussian 09 at Tue Mar 11 13:47:54 2014.
