 Entering Gaussian System, Link 0=g09
 Initial command:
 /usr/caen/gaussian-09revc/g09/l1.exe /scratch/avioli_flux/hetanjin/scratch/Gau-115542.inp -scrdir=/scratch/avioli_flux/hetanjin/scratch/
 Entering Link 1 = /usr/caen/gaussian-09revc/g09/l1.exe PID=    115543.
  
 Copyright (c) 1988,1990,1992,1993,1995,1998,2003,2009,2011,
            Gaussian, Inc.  All Rights Reserved.
  
 This is part of the Gaussian(R) 09 program.  It is based on
 the Gaussian(R) 03 system (copyright 2003, Gaussian, Inc.),
 the Gaussian(R) 98 system (copyright 1998, Gaussian, Inc.),
 the Gaussian(R) 94 system (copyright 1995, Gaussian, Inc.),
 the Gaussian 92(TM) system (copyright 1992, Gaussian, Inc.),
 the Gaussian 90(TM) system (copyright 1990, Gaussian, Inc.),
 the Gaussian 88(TM) system (copyright 1988, Gaussian, Inc.),
 the Gaussian 86(TM) system (copyright 1986, Carnegie Mellon
 University), and the Gaussian 82(TM) system (copyright 1983,
 Carnegie Mellon University). Gaussian is a federally registered
 trademark of Gaussian, Inc.
  
 This software contains proprietary and confidential information,
 including trade secrets, belonging to Gaussian, Inc.
  
 This software is provided under written license and may be
 used, copied, transmitted, or stored only in accord with that
 written license.
  
 The following legend is applicable only to US Government
 contracts under FAR:
  
                    RESTRICTED RIGHTS LEGEND
  
 Use, reproduction and disclosure by the US Government is
 subject to restrictions as set forth in subparagraphs (a)
 and (c) of the Commercial Computer Software - Restricted
 Rights clause in FAR 52.227-19.
  
 Gaussian, Inc.
 340 Quinnipiac St., Bldg. 40, Wallingford CT 06492
  
  
 ---------------------------------------------------------------
 Warning -- This program may not be used in any manner that
 competes with the business of Gaussian, Inc. or will provide
 assistance to any competitor of Gaussian, Inc.  The licensee
 of this program is prohibited from giving any competitor of
 Gaussian, Inc. access to this program.  By using this program,
 the user acknowledges that Gaussian, Inc. is engaged in the
 business of creating and licensing software in the field of
 computational chemistry and represents and warrants to the
 licensee that it is not a competitor of Gaussian, Inc. and that
 it will not use this program in any manner prohibited above.
 ---------------------------------------------------------------
  

 Cite this work as:
 Gaussian 09, Revision C.01,
 M. J. Frisch, G. W. Trucks, H. B. Schlegel, G. E. Scuseria, 
 M. A. Robb, J. R. Cheeseman, G. Scalmani, V. Barone, B. Mennucci, 
 G. A. Petersson, H. Nakatsuji, M. Caricato, X. Li, H. P. Hratchian, 
 A. F. Izmaylov, J. Bloino, G. Zheng, J. L. Sonnenberg, M. Hada, 
 M. Ehara, K. Toyota, R. Fukuda, J. Hasegawa, M. Ishida, T. Nakajima, 
 Y. Honda, O. Kitao, H. Nakai, T. Vreven, J. A. Montgomery, Jr., 
 J. E. Peralta, F. Ogliaro, M. Bearpark, J. J. Heyd, E. Brothers, 
 K. N. Kudin, V. N. Staroverov, T. Keith, R. Kobayashi, J. Normand, 
 K. Raghavachari, A. Rendell, J. C. Burant, S. S. Iyengar, J. Tomasi, 
 M. Cossi, N. Rega, J. M. Millam, M. Klene, J. E. Knox, J. B. Cross, 
 V. Bakken, C. Adamo, J. Jaramillo, R. Gomperts, R. E. Stratmann, 
 O. Yazyev, A. J. Austin, R. Cammi, C. Pomelli, J. W. Ochterski, 
 R. L. Martin, K. Morokuma, V. G. Zakrzewski, G. A. Voth, 
 P. Salvador, J. J. Dannenberg, S. Dapprich, A. D. Daniels, 
 O. Farkas, J. B. Foresman, J. V. Ortiz, J. Cioslowski, 
 and D. J. Fox, Gaussian, Inc., Wallingford CT, 2010.
 
 ******************************************
 Gaussian 09:  EM64L-G09RevC.01 23-Sep-2011
                20-Feb-2014 
 ******************************************
 %mem=30GB
 %nprocshared=8
 Will use up to    8 processors via shared memory.
 %chk=C9H18OOH_2_26_e.chk
 --------------------------
 #p cbs-qb3 opt=calcfc freq
 --------------------------
 1/10=4,14=-1,18=20,19=15,26=3,38=1/1,3;
 2/9=110,12=2,17=6,18=5,40=1/2;
 3/5=4,6=6,7=700,11=2,16=1,25=1,30=1,71=2,74=-5/1,2,3;
 4//1;
 5/5=2,38=5/2;
 8/6=4,10=90,11=11/1;
 11/6=1,8=1,9=11,15=111,16=1/1,2,10;
 10/6=1,7=6,13=1/2;
 6/7=2,8=2,9=2,10=2,28=1/1;
 7/10=1,18=20,25=1/1,2,3,16;
 1/10=4,14=-1,18=20,19=15/3(2);
 2/9=110/2;
 99//99;
 2/9=110/2;
 3/5=4,6=6,7=700,11=2,16=1,25=1,30=1,71=1,74=-5/1,2,3;
 4/5=5,16=3/1;
 5/5=2,38=5/2;
 7//1,2,3,16;
 1/14=-1,18=20,19=15/3(-5);
 2/9=110/2;
 6/7=2,8=2,9=2,10=2,19=2,28=1/1;
 99/9=1/99;
 Leave Link    1 at Thu Feb 20 19:10:42 2014, MaxMem= 4026531840 cpu:       2.5
 (Enter /usr/caen/gaussian-09revc/g09/l101.exe)
 --------------------------------------------
 C9H18OOH_2_26_e using cbs-qb3 to cal. energy
 --------------------------------------------
 Charge =  0 Multiplicity = 2
 Symbolic Z-Matrix:
 C                     3.24668  -0.08806   1.14557 
 H                     3.15527  -1.13842   1.42755 
 H                     3.19614   0.51262   2.0576 
 H                     4.22584   0.07108   0.68572 
 C                     0.74778   0.03718   0.80326 
 H                     0.72544  -1.00929   1.11881 
 H                     0.66746   0.63966   1.7159 
 C                    -0.46479   0.30566  -0.09998 
 H                    -0.35479  -0.25911  -1.03338 
 H                    -0.4687    1.36712  -0.40192 
 C                    -1.76379  -0.03825   0.55313 
 H                    -1.84069   0.05613   1.63508 
 C                    -3.03057  -0.21722  -0.22793 
 H                    -2.78629  -0.77561  -1.14331 
 C                    -4.07368  -1.02394   0.56077 
 H                    -4.3512   -0.50108   1.48251 
 H                    -4.98562  -1.17023  -0.02565 
 H                    -3.68581  -2.0078    0.8374 
 C                     2.3006    1.77185  -0.26876 
 H                     2.14191   2.4394    0.5818 
 H                     3.30923   1.93679  -0.65403 
 H                     1.58843   2.03238  -1.05256 
 C                    -3.62316   1.14173  -0.67772 
 H                    -4.52001   0.99059  -1.28746 
 H                    -3.90146   1.74782   0.19034 
 H                    -2.90522   1.71281  -1.27198 
 C                     2.12885   0.31675   0.17988 
 O                     2.2718   -0.39276  -1.08148 
 O                     2.10571  -1.8238   -0.85659 
 H                     2.96246  -2.14644  -1.16707 
 
 NAtoms=     30 NQM=        0 NQMF=       0 NMMI=     30 NMMIF=      0
                NMic=       0 NMicF=      0.
                    Isotopes and Nuclear Properties:
 (Nuclear quadrupole moments (NQMom) in fm**2, nuclear magnetic moments (NMagM)
  in nuclear magnetons)

  Atom         1           2           3           4           5           6           7           8           9          10
 IAtWgt=          12           1           1           1          12           1           1          12           1           1
 AtmWgt=  12.0000000   1.0078250   1.0078250   1.0078250  12.0000000   1.0078250   1.0078250  12.0000000   1.0078250   1.0078250
 NucSpn=           0           1           1           1           0           1           1           0           1           1
 AtZEff=   0.0000000   0.0000000   0.0000000   0.0000000   0.0000000   0.0000000   0.0000000   0.0000000   0.0000000   0.0000000
 NQMom=    0.0000000   0.0000000   0.0000000   0.0000000   0.0000000   0.0000000   0.0000000   0.0000000   0.0000000   0.0000000
 NMagM=    0.0000000   2.7928460   2.7928460   2.7928460   0.0000000   2.7928460   2.7928460   0.0000000   2.7928460   2.7928460

  Atom        11          12          13          14          15          16          17          18          19          20
 IAtWgt=          12           1          12           1          12           1           1           1          12           1
 AtmWgt=  12.0000000   1.0078250  12.0000000   1.0078250  12.0000000   1.0078250   1.0078250   1.0078250  12.0000000   1.0078250
 NucSpn=           0           1           0           1           0           1           1           1           0           1
 AtZEff=   0.0000000   0.0000000   0.0000000   0.0000000   0.0000000   0.0000000   0.0000000   0.0000000   0.0000000   0.0000000
 NQMom=    0.0000000   0.0000000   0.0000000   0.0000000   0.0000000   0.0000000   0.0000000   0.0000000   0.0000000   0.0000000
 NMagM=    0.0000000   2.7928460   0.0000000   2.7928460   0.0000000   2.7928460   2.7928460   2.7928460   0.0000000   2.7928460

  Atom        21          22          23          24          25          26          27          28          29          30
 IAtWgt=           1           1          12           1           1           1          12          16          16           1
 AtmWgt=   1.0078250   1.0078250  12.0000000   1.0078250   1.0078250   1.0078250  12.0000000  15.9949146  15.9949146   1.0078250
 NucSpn=           1           1           0           1           1           1           0           0           0           1
 AtZEff=   0.0000000   0.0000000   0.0000000   0.0000000   0.0000000   0.0000000   0.0000000   0.0000000   0.0000000   0.0000000
 NQMom=    0.0000000   0.0000000   0.0000000   0.0000000   0.0000000   0.0000000   0.0000000   0.0000000   0.0000000   0.0000000
 NMagM=    2.7928460   2.7928460   0.0000000   2.7928460   2.7928460   2.7928460   0.0000000   0.0000000   0.0000000   2.7928460
 Leave Link  101 at Thu Feb 20 19:10:42 2014, MaxMem= 4026531840 cpu:       1.9
 (Enter /usr/caen/gaussian-09revc/g09/l103.exe)

 GradGradGradGradGradGradGradGradGradGradGradGradGradGradGradGradGradGrad
 Berny optimization.
 Initialization pass.
                           ----------------------------
                           !    Initial Parameters    !
                           ! (Angstroms and Degrees)  !
 --------------------------                            --------------------------
 ! Name  Definition              Value          Derivative Info.                !
 --------------------------------------------------------------------------------
 ! R1    R(1,2)                  1.0914         calculate D2E/DX2 analytically  !
 ! R2    R(1,3)                  1.0932         calculate D2E/DX2 analytically  !
 ! R3    R(1,4)                  1.0934         calculate D2E/DX2 analytically  !
 ! R4    R(1,27)                 1.5317         calculate D2E/DX2 analytically  !
 ! R5    R(5,6)                  1.0932         calculate D2E/DX2 analytically  !
 ! R6    R(5,7)                  1.0965         calculate D2E/DX2 analytically  !
 ! R7    R(5,8)                  1.5357         calculate D2E/DX2 analytically  !
 ! R8    R(5,27)                 1.5408         calculate D2E/DX2 analytically  !
 ! R9    R(8,9)                  1.0965         calculate D2E/DX2 analytically  !
 ! R10   R(8,10)                 1.1036         calculate D2E/DX2 analytically  !
 ! R11   R(8,11)                 1.4941         calculate D2E/DX2 analytically  !
 ! R12   R(11,12)                1.0888         calculate D2E/DX2 analytically  !
 ! R13   R(11,13)                1.4989         calculate D2E/DX2 analytically  !
 ! R14   R(13,14)                1.0997         calculate D2E/DX2 analytically  !
 ! R15   R(13,15)                1.5365         calculate D2E/DX2 analytically  !
 ! R16   R(13,23)                1.5493         calculate D2E/DX2 analytically  !
 ! R17   R(15,16)                1.0954         calculate D2E/DX2 analytically  !
 ! R18   R(15,17)                1.094          calculate D2E/DX2 analytically  !
 ! R19   R(15,18)                1.0931         calculate D2E/DX2 analytically  !
 ! R20   R(19,20)                1.0928         calculate D2E/DX2 analytically  !
 ! R21   R(19,21)                1.0922         calculate D2E/DX2 analytically  !
 ! R22   R(19,22)                1.0906         calculate D2E/DX2 analytically  !
 ! R23   R(19,27)                1.5323         calculate D2E/DX2 analytically  !
 ! R24   R(23,24)                1.095          calculate D2E/DX2 analytically  !
 ! R25   R(23,25)                1.0947         calculate D2E/DX2 analytically  !
 ! R26   R(23,26)                1.093          calculate D2E/DX2 analytically  !
 ! R27   R(27,28)                1.4543         calculate D2E/DX2 analytically  !
 ! R28   R(28,29)                1.4581         calculate D2E/DX2 analytically  !
 ! R29   R(29,30)                0.9667         calculate D2E/DX2 analytically  !
 ! A1    A(2,1,3)              108.0219         calculate D2E/DX2 analytically  !
 ! A2    A(2,1,4)              108.8893         calculate D2E/DX2 analytically  !
 ! A3    A(2,1,27)             110.8632         calculate D2E/DX2 analytically  !
 ! A4    A(3,1,4)              108.1963         calculate D2E/DX2 analytically  !
 ! A5    A(3,1,27)             110.3056         calculate D2E/DX2 analytically  !
 ! A6    A(4,1,27)             110.4832         calculate D2E/DX2 analytically  !
 ! A7    A(6,5,7)              106.5116         calculate D2E/DX2 analytically  !
 ! A8    A(6,5,8)              108.7224         calculate D2E/DX2 analytically  !
 ! A9    A(6,5,27)             107.9856         calculate D2E/DX2 analytically  !
 ! A10   A(7,5,8)              109.6119         calculate D2E/DX2 analytically  !
 ! A11   A(7,5,27)             107.6196         calculate D2E/DX2 analytically  !
 ! A12   A(8,5,27)             115.9801         calculate D2E/DX2 analytically  !
 ! A13   A(5,8,9)              109.3554         calculate D2E/DX2 analytically  !
 ! A14   A(5,8,10)             109.3828         calculate D2E/DX2 analytically  !
 ! A15   A(5,8,11)             112.9023         calculate D2E/DX2 analytically  !
 ! A16   A(9,8,10)             105.2401         calculate D2E/DX2 analytically  !
 ! A17   A(9,8,11)             109.9244         calculate D2E/DX2 analytically  !
 ! A18   A(10,8,11)            109.7503         calculate D2E/DX2 analytically  !
 ! A19   A(8,11,12)            118.415          calculate D2E/DX2 analytically  !
 ! A20   A(8,11,13)            122.3091         calculate D2E/DX2 analytically  !
 ! A21   A(12,11,13)           117.9342         calculate D2E/DX2 analytically  !
 ! A22   A(11,13,14)           107.856          calculate D2E/DX2 analytically  !
 ! A23   A(11,13,15)           111.6509         calculate D2E/DX2 analytically  !
 ! A24   A(11,13,23)           111.7039         calculate D2E/DX2 analytically  !
 ! A25   A(14,13,15)           108.1476         calculate D2E/DX2 analytically  !
 ! A26   A(14,13,23)           106.7791         calculate D2E/DX2 analytically  !
 ! A27   A(15,13,23)           110.4806         calculate D2E/DX2 analytically  !
 ! A28   A(13,15,16)           110.6889         calculate D2E/DX2 analytically  !
 ! A29   A(13,15,17)           111.158          calculate D2E/DX2 analytically  !
 ! A30   A(13,15,18)           111.1961         calculate D2E/DX2 analytically  !
 ! A31   A(16,15,17)           107.6777         calculate D2E/DX2 analytically  !
 ! A32   A(16,15,18)           107.8516         calculate D2E/DX2 analytically  !
 ! A33   A(17,15,18)           108.1231         calculate D2E/DX2 analytically  !
 ! A34   A(20,19,21)           108.4452         calculate D2E/DX2 analytically  !
 ! A35   A(20,19,22)           108.5792         calculate D2E/DX2 analytically  !
 ! A36   A(20,19,27)           109.6276         calculate D2E/DX2 analytically  !
 ! A37   A(21,19,22)           108.2669         calculate D2E/DX2 analytically  !
 ! A38   A(21,19,27)           110.4984         calculate D2E/DX2 analytically  !
 ! A39   A(22,19,27)           111.3498         calculate D2E/DX2 analytically  !
 ! A40   A(13,23,24)           110.7255         calculate D2E/DX2 analytically  !
 ! A41   A(13,23,25)           110.651          calculate D2E/DX2 analytically  !
 ! A42   A(13,23,26)           111.4015         calculate D2E/DX2 analytically  !
 ! A43   A(24,23,25)           108.0448         calculate D2E/DX2 analytically  !
 ! A44   A(24,23,26)           107.9005         calculate D2E/DX2 analytically  !
 ! A45   A(25,23,26)           107.9884         calculate D2E/DX2 analytically  !
 ! A46   A(1,27,5)             110.5554         calculate D2E/DX2 analytically  !
 ! A47   A(1,27,19)            110.7177         calculate D2E/DX2 analytically  !
 ! A48   A(1,27,28)            110.2532         calculate D2E/DX2 analytically  !
 ! A49   A(5,27,19)            113.0301         calculate D2E/DX2 analytically  !
 ! A50   A(5,27,28)            110.5178         calculate D2E/DX2 analytically  !
 ! A51   A(19,27,28)           101.4393         calculate D2E/DX2 analytically  !
 ! A52   A(27,28,29)           109.5031         calculate D2E/DX2 analytically  !
 ! A53   A(28,29,30)           100.1988         calculate D2E/DX2 analytically  !
 ! D1    D(2,1,27,5)            56.7856         calculate D2E/DX2 analytically  !
 ! D2    D(2,1,27,19)         -177.1617         calculate D2E/DX2 analytically  !
 ! D3    D(2,1,27,28)          -65.7188         calculate D2E/DX2 analytically  !
 ! D4    D(3,1,27,5)           -62.8218         calculate D2E/DX2 analytically  !
 ! D5    D(3,1,27,19)           63.2309         calculate D2E/DX2 analytically  !
 ! D6    D(3,1,27,28)          174.6738         calculate D2E/DX2 analytically  !
 ! D7    D(4,1,27,5)           177.5967         calculate D2E/DX2 analytically  !
 ! D8    D(4,1,27,19)          -56.3506         calculate D2E/DX2 analytically  !
 ! D9    D(4,1,27,28)           55.0923         calculate D2E/DX2 analytically  !
 ! D10   D(6,5,8,9)            -66.8245         calculate D2E/DX2 analytically  !
 ! D11   D(6,5,8,10)           178.408          calculate D2E/DX2 analytically  !
 ! D12   D(6,5,8,11)            55.8937         calculate D2E/DX2 analytically  !
 ! D13   D(7,5,8,9)            177.1143         calculate D2E/DX2 analytically  !
 ! D14   D(7,5,8,10)            62.3469         calculate D2E/DX2 analytically  !
 ! D15   D(7,5,8,11)           -60.1675         calculate D2E/DX2 analytically  !
 ! D16   D(27,5,8,9)            55.0348         calculate D2E/DX2 analytically  !
 ! D17   D(27,5,8,10)          -59.7327         calculate D2E/DX2 analytically  !
 ! D18   D(27,5,8,11)          177.753          calculate D2E/DX2 analytically  !
 ! D19   D(6,5,27,1)           -53.6011         calculate D2E/DX2 analytically  !
 ! D20   D(6,5,27,19)         -178.3474         calculate D2E/DX2 analytically  !
 ! D21   D(6,5,27,28)           68.7485         calculate D2E/DX2 analytically  !
 ! D22   D(7,5,27,1)            61.0205         calculate D2E/DX2 analytically  !
 ! D23   D(7,5,27,19)          -63.7258         calculate D2E/DX2 analytically  !
 ! D24   D(7,5,27,28)         -176.6299         calculate D2E/DX2 analytically  !
 ! D25   D(8,5,27,1)          -175.8507         calculate D2E/DX2 analytically  !
 ! D26   D(8,5,27,19)           59.403          calculate D2E/DX2 analytically  !
 ! D27   D(8,5,27,28)          -53.5011         calculate D2E/DX2 analytically  !
 ! D28   D(5,8,11,12)           30.4081         calculate D2E/DX2 analytically  !
 ! D29   D(5,8,11,13)         -163.0983         calculate D2E/DX2 analytically  !
 ! D30   D(9,8,11,12)          152.8083         calculate D2E/DX2 analytically  !
 ! D31   D(9,8,11,13)          -40.6981         calculate D2E/DX2 analytically  !
 ! D32   D(10,8,11,12)         -91.9005         calculate D2E/DX2 analytically  !
 ! D33   D(10,8,11,13)          74.5932         calculate D2E/DX2 analytically  !
 ! D34   D(8,11,13,14)          41.34           calculate D2E/DX2 analytically  !
 ! D35   D(8,11,13,15)         160.0217         calculate D2E/DX2 analytically  !
 ! D36   D(8,11,13,23)         -75.7028         calculate D2E/DX2 analytically  !
 ! D37   D(12,11,13,14)       -152.1047         calculate D2E/DX2 analytically  !
 ! D38   D(12,11,13,15)        -33.423          calculate D2E/DX2 analytically  !
 ! D39   D(12,11,13,23)         90.8526         calculate D2E/DX2 analytically  !
 ! D40   D(11,13,15,16)         61.7414         calculate D2E/DX2 analytically  !
 ! D41   D(11,13,15,17)       -178.6403         calculate D2E/DX2 analytically  !
 ! D42   D(11,13,15,18)        -58.1205         calculate D2E/DX2 analytically  !
 ! D43   D(14,13,15,16)       -179.7507         calculate D2E/DX2 analytically  !
 ! D44   D(14,13,15,17)        -60.1324         calculate D2E/DX2 analytically  !
 ! D45   D(14,13,15,18)         60.3874         calculate D2E/DX2 analytically  !
 ! D46   D(23,13,15,16)        -63.2176         calculate D2E/DX2 analytically  !
 ! D47   D(23,13,15,17)         56.4006         calculate D2E/DX2 analytically  !
 ! D48   D(23,13,15,18)        176.9205         calculate D2E/DX2 analytically  !
 ! D49   D(11,13,23,24)        177.2412         calculate D2E/DX2 analytically  !
 ! D50   D(11,13,23,25)        -62.9873         calculate D2E/DX2 analytically  !
 ! D51   D(11,13,23,26)         57.1574         calculate D2E/DX2 analytically  !
 ! D52   D(14,13,23,24)         59.5497         calculate D2E/DX2 analytically  !
 ! D53   D(14,13,23,25)        179.3212         calculate D2E/DX2 analytically  !
 ! D54   D(14,13,23,26)        -60.5341         calculate D2E/DX2 analytically  !
 ! D55   D(15,13,23,24)        -57.8299         calculate D2E/DX2 analytically  !
 ! D56   D(15,13,23,25)         61.9415         calculate D2E/DX2 analytically  !
 ! D57   D(15,13,23,26)       -177.9137         calculate D2E/DX2 analytically  !
 ! D58   D(20,19,27,1)         -67.1487         calculate D2E/DX2 analytically  !
 ! D59   D(20,19,27,5)          57.5093         calculate D2E/DX2 analytically  !
 ! D60   D(20,19,27,28)        175.8419         calculate D2E/DX2 analytically  !
 ! D61   D(21,19,27,1)          52.32           calculate D2E/DX2 analytically  !
 ! D62   D(21,19,27,5)         176.978          calculate D2E/DX2 analytically  !
 ! D63   D(21,19,27,28)        -64.6894         calculate D2E/DX2 analytically  !
 ! D64   D(22,19,27,1)         172.6794         calculate D2E/DX2 analytically  !
 ! D65   D(22,19,27,5)         -62.6626         calculate D2E/DX2 analytically  !
 ! D66   D(22,19,27,28)         55.67           calculate D2E/DX2 analytically  !
 ! D67   D(1,27,28,29)          63.8989         calculate D2E/DX2 analytically  !
 ! D68   D(5,27,28,29)         -58.6277         calculate D2E/DX2 analytically  !
 ! D69   D(19,27,28,29)       -178.7538         calculate D2E/DX2 analytically  !
 ! D70   D(27,28,29,30)       -120.3959         calculate D2E/DX2 analytically  !
 --------------------------------------------------------------------------------
 Trust Radius=3.00D-01 FncErr=1.00D-07 GrdErr=1.00D-06
 Number of steps in this run=    162 maximum allowed number of steps=    180.
 GradGradGradGradGradGradGradGradGradGradGradGradGradGradGradGradGradGrad

 Leave Link  103 at Thu Feb 20 19:10:43 2014, MaxMem= 4026531840 cpu:       0.1
 (Enter /usr/caen/gaussian-09revc/g09/l202.exe)
                          Input orientation:                          
 ---------------------------------------------------------------------
 Center     Atomic      Atomic             Coordinates (Angstroms)
 Number     Number       Type             X           Y           Z
 ---------------------------------------------------------------------
      1          6           0        3.246677   -0.088062    1.145569
      2          1           0        3.155271   -1.138420    1.427553
      3          1           0        3.196141    0.512623    2.057599
      4          1           0        4.225841    0.071083    0.685723
      5          6           0        0.747780    0.037177    0.803257
      6          1           0        0.725437   -1.009291    1.118805
      7          1           0        0.667460    0.639656    1.715903
      8          6           0       -0.464793    0.305657   -0.099982
      9          1           0       -0.354791   -0.259109   -1.033382
     10          1           0       -0.468701    1.367121   -0.401917
     11          6           0       -1.763785   -0.038253    0.553125
     12          1           0       -1.840691    0.056128    1.635083
     13          6           0       -3.030570   -0.217220   -0.227928
     14          1           0       -2.786294   -0.775609   -1.143305
     15          6           0       -4.073678   -1.023943    0.560774
     16          1           0       -4.351204   -0.501080    1.482513
     17          1           0       -4.985619   -1.170229   -0.025648
     18          1           0       -3.685812   -2.007801    0.837401
     19          6           0        2.300602    1.771851   -0.268761
     20          1           0        2.141906    2.439398    0.581796
     21          1           0        3.309230    1.936793   -0.654034
     22          1           0        1.588426    2.032376   -1.052562
     23          6           0       -3.623160    1.141725   -0.677723
     24          1           0       -4.520015    0.990591   -1.287455
     25          1           0       -3.901457    1.747820    0.190336
     26          1           0       -2.905217    1.712810   -1.271975
     27          6           0        2.128848    0.316750    0.179876
     28          8           0        2.271803   -0.392762   -1.081484
     29          8           0        2.105708   -1.823802   -0.856593
     30          1           0        2.962459   -2.146438   -1.167067
 ---------------------------------------------------------------------
                    Distance matrix (angstroms):
                    1          2          3          4          5
     1  C    0.000000
     2  H    1.091385   0.000000
     3  H    1.093241   1.767646   0.000000
     4  H    1.093411   1.777450   1.771238   0.000000
     5  C    2.525341   2.750961   2.791755   3.480212   0.000000
     6  H    2.684405   2.452772   3.049907   3.688848   1.093236
     7  H    2.739930   3.071466   2.554823   3.747882   1.096519
     8  C    3.934644   4.186118   4.254460   4.761765   1.535661
     9  H    4.212797   4.376063   4.770624   4.903727   2.162566
    10  H    4.279755   4.770521   4.495604   4.990130   2.168184
    11  C    5.045612   5.115868   5.212271   5.992091   2.525117
    12  H    5.112898   5.140978   5.075094   6.140384   2.718911
    13  C    6.427053   6.469456   6.672948   7.319384   3.924792
    14  H    6.489099   6.484068   6.906146   7.296045   4.115751
    15  C    7.403071   7.281629   7.579696   8.372378   4.942796
    16  H    7.616555   7.533684   7.636801   8.632957   5.172112
    17  H    8.385316   8.269637   8.608897   9.321904   5.917498
    18  H    7.199984   6.921309   7.429852   8.181627   4.882606
    19  C    2.520846   3.475287   2.792776   2.740474   2.563118
    20  H    2.815389   3.813528   2.646104   3.156343   2.786270
    21  H    2.709709   3.716671   3.064964   2.473054   3.506175
    22  H    3.475318   4.319713   3.816739   3.718099   2.851591
    23  C    7.213282   7.455091   7.374322   8.038164   4.745360
    24  H    8.210031   8.415104   8.423592   9.012709   5.747151
    25  H    7.441690   7.723891   7.442330   8.313232   4.991731
    26  H    6.850800   7.221252   7.053586   7.574948   4.523132
    27  C    1.531658   2.174342   2.168715   2.171086   1.540816
    28  O    2.450099   2.762569   3.395286   2.675152   2.461654
    29  O    2.885005   2.605505   3.891072   3.234856   2.839421
    30  H    3.109015   2.790220   4.186130   3.153786   3.681733
                    6          7          8          9         10
     6  H    0.000000
     7  H    1.754683   0.000000
     8  C    2.152017   2.165869   0.000000
     9  H    2.522216   3.067791   1.096493   0.000000
    10  H    3.063641   2.511021   1.103579   1.748241   0.000000
    11  C    2.731142   2.778950   1.494056   2.133318   2.136451
    12  H    2.826070   2.576404   2.228410   3.070501   2.783959
    13  C    4.068004   4.264756   2.621637   2.794692   3.017214
    14  H    4.183779   4.701751   2.765326   2.488185   3.242250
    15  C    4.831472   5.155606   3.902369   4.117818   4.431684
    16  H    5.114963   5.151964   4.273091   4.728593   4.702667
    17  H    5.826820   6.185951   4.756220   4.825996   5.194446
    18  H    4.531592   5.170278   4.075014   4.201601   4.824501
    19  C    3.484428   2.808542   3.134585   3.429367   2.801888
    20  H    3.766725   2.588293   3.436939   4.015499   2.988769
    21  H    4.300971   3.778639   4.148593   4.288466   3.828949
    22  H    3.835534   3.232993   2.846871   3.004557   2.257803
    23  C    5.173459   4.938718   3.317842   3.573663   3.174505
    24  H    6.107731   6.004433   4.280660   4.356076   4.164024
    25  H    5.465516   4.942710   3.738285   4.254890   3.504213
    26  H    5.129065   4.779445   3.051117   3.232656   2.610194
    27  C    2.146983   2.144598   2.608719   2.823486   2.861647
    28  O    2.759099   3.386027   2.989999   2.630432   3.327065
    29  O    2.543772   3.841213   3.422650   2.921228   4.125082
    30  H    3.394493   4.619616   4.347125   3.818904   4.970253
                   11         12         13         14         15
    11  C    0.000000
    12  H    1.088786   0.000000
    13  C    1.498939   2.227407   0.000000
    14  H    2.113550   3.050474   1.099720   0.000000
    15  C    2.511424   2.703132   1.536531   2.150096   0.000000
    16  H    2.787958   2.576128   2.179509   3.069076   1.095449
    17  H    3.463605   3.761988   2.184344   2.498382   1.094041
    18  H    2.766608   2.881071   2.184136   2.500125   1.093133
    19  C    4.524513   4.870178   5.690296   5.755944   7.009710
    20  H    4.625365   4.759251   5.870927   6.131835   7.115382
    21  H    5.576156   5.941266   6.709277   6.689688   8.046679
    22  H    4.254768   4.784123   5.203444   5.199153   6.633503
    23  C    2.522818   3.115251   1.549261   2.143194   2.535145
    24  H    3.470311   4.073478   2.190856   2.479119   2.770111
    25  H    2.809148   3.032470   2.189697   3.064291   2.801706
    26  H    2.774902   3.511239   2.197900   2.494580   3.494866
    27  C    3.926568   4.235893   5.202982   5.206023   6.357190
    28  O    4.368477   4.949126   5.373503   5.072942   6.584871
    29  O    4.488704   5.031565   5.418273   5.011247   6.390111
    30  H    5.453521   5.981103   6.365553   5.909983   7.331620
                   16         17         18         19         20
    16  H    0.000000
    17  H    1.767708   0.000000
    18  H    1.768933   1.770841   0.000000
    19  C    7.244287   7.861549   7.165648   0.000000
    20  H    7.184579   8.012491   7.335203   1.092818   0.000000
    21  H    8.318071   8.879920   8.167914   1.092232   1.772719
    22  H    6.937161   7.384396   6.907429   1.090602   1.772888
    23  C    2.809889   2.761635   3.495574   5.971203   6.042047
    24  H    3.150603   2.545209   3.768456   6.940383   7.069253
    25  H    2.632403   3.120427   3.817052   6.219074   6.095388
    26  H    3.818297   3.767402   4.347613   5.301931   5.425666
    27  C    6.660089   7.271106   6.296519   1.532349   2.160404
    28  O    7.102819   7.374918   6.464027   2.312336   3.287021
    29  O    6.993763   7.169696   6.036984   3.648596   4.499461
    30  H    7.950921   8.088743   6.945259   4.074064   4.976115
                   21         22         23         24         25
    21  H    0.000000
    22  H    1.768934   0.000000
    23  C    6.977874   5.300414   0.000000
    24  H    7.911612   6.201092   1.094972   0.000000
    25  H    7.262415   5.636008   1.094681   1.771970   0.000000
    26  H    6.249110   4.510332   1.093030   1.769015   1.769766
    27  C    2.171001   2.180443   5.873811   6.842112   6.197794
    28  O    2.585690   2.519749   6.104774   6.934326   6.656482
    29  O    3.953678   3.895651   6.453392   7.211564   7.066723
    30  H    4.129919   4.400405   7.377117   8.114361   8.007567
                   26         27         28         29         30
    26  H    0.000000
    27  C    5.422054   0.000000
    28  O    5.592071   1.454260   0.000000
    29  O    6.147319   2.378396   1.458094   0.000000
    30  H    7.023847   2.928559   1.886719   0.966701   0.000000
 Stoichiometry    C9H19O2(2)
 Framework group  C1[X(C9H19O2)]
 Deg. of freedom    84
 Full point group                 C1      NOp   1
 Largest Abelian subgroup         C1      NOp   1
 Largest concise Abelian subgroup C1      NOp   1
                         Standard orientation:                         
 ---------------------------------------------------------------------
 Center     Atomic      Atomic             Coordinates (Angstroms)
 Number     Number       Type             X           Y           Z
 ---------------------------------------------------------------------
      1          6           0        3.246677   -0.088062    1.145569
      2          1           0        3.155271   -1.138420    1.427553
      3          1           0        3.196141    0.512623    2.057599
      4          1           0        4.225841    0.071083    0.685723
      5          6           0        0.747780    0.037177    0.803257
      6          1           0        0.725437   -1.009291    1.118805
      7          1           0        0.667460    0.639656    1.715903
      8          6           0       -0.464793    0.305657   -0.099982
      9          1           0       -0.354791   -0.259109   -1.033382
     10          1           0       -0.468701    1.367121   -0.401917
     11          6           0       -1.763785   -0.038253    0.553125
     12          1           0       -1.840691    0.056128    1.635083
     13          6           0       -3.030570   -0.217220   -0.227928
     14          1           0       -2.786294   -0.775609   -1.143305
     15          6           0       -4.073678   -1.023943    0.560774
     16          1           0       -4.351204   -0.501080    1.482513
     17          1           0       -4.985619   -1.170229   -0.025648
     18          1           0       -3.685812   -2.007801    0.837401
     19          6           0        2.300602    1.771851   -0.268761
     20          1           0        2.141906    2.439398    0.581796
     21          1           0        3.309230    1.936793   -0.654034
     22          1           0        1.588426    2.032376   -1.052562
     23          6           0       -3.623160    1.141725   -0.677723
     24          1           0       -4.520015    0.990591   -1.287455
     25          1           0       -3.901457    1.747820    0.190336
     26          1           0       -2.905217    1.712810   -1.271975
     27          6           0        2.128848    0.316750    0.179876
     28          8           0        2.271803   -0.392762   -1.081484
     29          8           0        2.105708   -1.823802   -0.856593
     30          1           0        2.962459   -2.146438   -1.167067
 ---------------------------------------------------------------------
 Rotational constants (GHZ):      1.9757012      0.4262893      0.4033500
 Leave Link  202 at Thu Feb 20 19:10:43 2014, MaxMem= 4026531840 cpu:       0.4
 (Enter /usr/caen/gaussian-09revc/g09/l301.exe)
 Standard basis: 6-311G(2d,d,p) (5D, 7F)
 Ernie: Thresh=  0.10000D-02 Tol=  0.10000D-05 Strict=F.
 There are   312 symmetry adapted basis functions of A   symmetry.
 Integral buffers will be    131072 words long.
 Raffenetti 2 integral format.
 Two-electron integral symmetry is turned on.
   312 basis functions,   504 primitive gaussians,   323 cartesian basis functions
    45 alpha electrons       44 beta electrons
       nuclear repulsion energy       656.0456565021 Hartrees.
 IExCor=  402 DFT=T Ex+Corr=B3LYP ExCW=0 ScaHFX=  0.200000
 ScaDFX=  0.800000  0.720000  1.000000  0.810000 ScalE2=  1.000000  1.000000
 IRadAn=      0 IRanWt=     -1 IRanGd=            0 ICorTp=0
 NAtoms=   30 NActive=   30 NUniq=   30 SFac= 1.00D+00 NAtFMM=   60 NAOKFM=F Big=F
 Leave Link  301 at Thu Feb 20 19:10:43 2014, MaxMem= 4026531840 cpu:       0.7
 (Enter /usr/caen/gaussian-09revc/g09/l302.exe)
 NPDir=0 NMtPBC=     1 NCelOv=     1 NCel=       1 NClECP=     1 NCelD=      1
         NCelK=      1 NCelE2=     1 NClLst=     1 CellRange=     0.0.
 One-electron integrals computed using PRISM.
 NBasis=   312 RedAO= T  NBF=   312
 NBsUse=   312 1.00D-06 NBFU=   312
 Precomputing XC quadrature grid using
 IXCGrd= 2 IRadAn=           0 IRanWt=          -1 IRanGd=           0 AccXCQ= 0.00D+00.
 NRdTot=    1914 NPtTot=      243406 NUsed=      257207 NTot=      257239
 NSgBfM=   323   323   323   323   323 NAtAll=    30    30.
 Leave Link  302 at Thu Feb 20 19:10:44 2014, MaxMem= 4026531840 cpu:       4.5
 (Enter /usr/caen/gaussian-09revc/g09/l303.exe)
 DipDrv:  MaxL=1.
 Leave Link  303 at Thu Feb 20 19:10:45 2014, MaxMem= 4026531840 cpu:       1.9
 (Enter /usr/caen/gaussian-09revc/g09/l401.exe)
 Harris functional with IExCor=  402 diagonalized for initial guess.
 ExpMin= 1.03D-01 ExpMax= 8.59D+03 ExpMxC= 1.30D+03 IAcc=1 IRadAn=         1 AccDes= 0.00D+00
 HarFok:  IExCor=  402 AccDes= 0.00D+00 IRadAn=         1 IDoV= 1
 ScaDFX=  1.000000  1.000000  1.000000  1.000000
 FoFCou: FMM=F IPFlag=           0 FMFlag=      100000 FMFlg1=           0
         NFxFlg=           0 DoJE=T BraDBF=F KetDBF=T FulRan=T
         Omega=  0.000000  0.000000  1.000000  0.000000  0.000000 ICntrl=     500 IOpCl=  0
         NMat0=    1 NMatS0=    1 NMatT0=    0 NMatD0=    1 NMtDS0=    0 NMtDT0=    0
         I1Cent=           4 NGrid=           0.
 Petite list used in FoFCou.
 Harris En= -504.921550406381    
 Initial guess orbital symmetries:
 Alpha Orbitals:
       Occupied  (A) (A) (A) (A) (A) (A) (A) (A) (A) (A) (A) (A)
                 (A) (A) (A) (A) (A) (A) (A) (A) (A) (A) (A) (A)
                 (A) (A) (A) (A) (A) (A) (A) (A) (A) (A) (A) (A)
                 (A) (A) (A) (A) (A) (A) (A) (A) (A)
       Virtual   (A) (A) (A) (A) (A) (A) (A) (A) (A) (A) (A) (A)
                 (A) (A) (A) (A) (A) (A) (A) (A) (A) (A) (A) (A)
                 (A) (A) (A) (A) (A) (A) (A) (A) (A) (A) (A) (A)
                 (A) (A) (A) (A) (A) (A) (A) (A) (A) (A) (A) (A)
                 (A) (A) (A) (A) (A) (A) (A) (A) (A) (A) (A) (A)
                 (A) (A) (A) (A) (A) (A) (A) (A) (A) (A) (A) (A)
                 (A) (A) (A) (A) (A) (A) (A) (A) (A) (A) (A) (A)
                 (A) (A) (A) (A) (A) (A) (A) (A) (A) (A) (A) (A)
                 (A) (A) (A) (A) (A) (A) (A) (A) (A) (A) (A) (A)
                 (A) (A) (A) (A) (A) (A) (A) (A) (A) (A) (A) (A)
                 (A) (A) (A) (A) (A) (A) (A) (A) (A) (A) (A) (A)
                 (A) (A) (A) (A) (A) (A) (A) (A) (A) (A) (A) (A)
                 (A) (A) (A) (A) (A) (A) (A) (A) (A) (A) (A) (A)
                 (A) (A) (A) (A) (A) (A) (A) (A) (A) (A) (A) (A)
                 (A) (A) (A) (A) (A) (A) (A) (A) (A) (A) (A) (A)
                 (A) (A) (A) (A) (A) (A) (A) (A) (A) (A) (A) (A)
                 (A) (A) (A) (A) (A) (A) (A) (A) (A) (A) (A) (A)
                 (A) (A) (A) (A) (A) (A) (A) (A) (A) (A) (A) (A)
                 (A) (A) (A) (A) (A) (A) (A) (A) (A) (A) (A) (A)
                 (A) (A) (A) (A) (A) (A) (A) (A) (A) (A) (A) (A)
                 (A) (A) (A) (A) (A) (A) (A) (A) (A) (A) (A) (A)
                 (A) (A) (A) (A) (A) (A) (A) (A) (A) (A) (A) (A)
                 (A) (A) (A)
 Beta  Orbitals:
       Occupied  (A) (A) (A) (A) (A) (A) (A) (A) (A) (A) (A) (A)
                 (A) (A) (A) (A) (A) (A) (A) (A) (A) (A) (A) (A)
                 (A) (A) (A) (A) (A) (A) (A) (A) (A) (A) (A) (A)
                 (A) (A) (A) (A) (A) (A) (A) (A)
       Virtual   (A) (A) (A) (A) (A) (A) (A) (A) (A) (A) (A) (A)
                 (A) (A) (A) (A) (A) (A) (A) (A) (A) (A) (A) (A)
                 (A) (A) (A) (A) (A) (A) (A) (A) (A) (A) (A) (A)
                 (A) (A) (A) (A) (A) (A) (A) (A) (A) (A) (A) (A)
                 (A) (A) (A) (A) (A) (A) (A) (A) (A) (A) (A) (A)
                 (A) (A) (A) (A) (A) (A) (A) (A) (A) (A) (A) (A)
                 (A) (A) (A) (A) (A) (A) (A) (A) (A) (A) (A) (A)
                 (A) (A) (A) (A) (A) (A) (A) (A) (A) (A) (A) (A)
                 (A) (A) (A) (A) (A) (A) (A) (A) (A) (A) (A) (A)
                 (A) (A) (A) (A) (A) (A) (A) (A) (A) (A) (A) (A)
                 (A) (A) (A) (A) (A) (A) (A) (A) (A) (A) (A) (A)
                 (A) (A) (A) (A) (A) (A) (A) (A) (A) (A) (A) (A)
                 (A) (A) (A) (A) (A) (A) (A) (A) (A) (A) (A) (A)
                 (A) (A) (A) (A) (A) (A) (A) (A) (A) (A) (A) (A)
                 (A) (A) (A) (A) (A) (A) (A) (A) (A) (A) (A) (A)
                 (A) (A) (A) (A) (A) (A) (A) (A) (A) (A) (A) (A)
                 (A) (A) (A) (A) (A) (A) (A) (A) (A) (A) (A) (A)
                 (A) (A) (A) (A) (A) (A) (A) (A) (A) (A) (A) (A)
                 (A) (A) (A) (A) (A) (A) (A) (A) (A) (A) (A) (A)
                 (A) (A) (A) (A) (A) (A) (A) (A) (A) (A) (A) (A)
                 (A) (A) (A) (A) (A) (A) (A) (A) (A) (A) (A) (A)
                 (A) (A) (A) (A) (A) (A) (A) (A) (A) (A) (A) (A)
                 (A) (A) (A) (A)
 The electronic state of the initial guess is 2-A.
 Initial guess <Sx>= 0.0000 <Sy>= 0.0000 <Sz>= 0.5000 <S**2>= 0.7500 S= 0.5000
 Leave Link  401 at Thu Feb 20 19:10:46 2014, MaxMem= 4026531840 cpu:       6.8
 (Enter /usr/caen/gaussian-09revc/g09/l502.exe)
 UHF open shell SCF:
 Requested convergence on RMS density matrix=1.00D-08 within 128 cycles.
 Requested convergence on MAX density matrix=1.00D-06.
 Requested convergence on             energy=1.00D-06.
 No special actions if energy rises.
 Using DIIS extrapolation, IDIIS=  1040.
 Integral symmetry usage will be decided dynamically.
       256924 words used for storage of precomputed grid.
 Keep R1 and R2 ints in memory in canonical form, NReq=2755661655.
 IEnd=      593082 IEndB=      593082 NGot=  4026531840 MDV=  1287997421
 LenX=  1287997421 LenY=  1287892651
 Symmetry not used in FoFDir.
 MinBra= 0 MaxBra= 2 Meth= 1.
 IRaf=       0 NMat=   1 IRICut=       1 DoRegI=T DoRafI=F ISym2E= 0 JSym2E=0.
 Integral accuracy reduced to 1.0D-05 until final iterations.

 Cycle   1  Pass 0  IDiag  1:
 E= -504.460993994133    
 DIIS: error= 2.80D-02 at cycle   1 NSaved=   1.
 NSaved= 1 IEnMin= 1 EnMin= -504.460993994133     IErMin= 1 ErrMin= 2.80D-02
 ErrMax= 2.80D-02 EMaxC= 1.00D-01 BMatC= 1.61D+00 BMatP= 1.61D+00
 IDIUse=3 WtCom= 7.20D-01 WtEn= 2.80D-01
 Coeff-Com:  0.100D+01
 Coeff-En:   0.100D+01
 Coeff:      0.100D+01
 Gap=     0.138 Goal=   None    Shift=    0.000
 Gap=     0.291 Goal=   None    Shift=    0.000
 GapD=    0.138 DampG=1.000 DampE=0.500 DampFc=0.5000 IDamp=-1.
 Damping current iteration by 5.00D-01
 RMSDP=3.32D-03 MaxDP=1.48D-01              OVMax= 1.77D-01

 Cycle   2  Pass 0  IDiag  1:
 E= -504.631888646791     Delta-E=       -0.170894652657 Rises=F Damp=T
 DIIS: error= 4.73D-03 at cycle   2 NSaved=   2.
 NSaved= 2 IEnMin= 2 EnMin= -504.631888646791     IErMin= 2 ErrMin= 4.73D-03
 ErrMax= 4.73D-03 EMaxC= 1.00D-01 BMatC= 7.68D-02 BMatP= 1.61D+00
 IDIUse=3 WtCom= 9.53D-01 WtEn= 4.73D-02
 Coeff-Com:  0.552D-01 0.945D+00
 Coeff-En:   0.130D+00 0.870D+00
 Coeff:      0.587D-01 0.941D+00
 Gap=     0.205 Goal=   None    Shift=    0.000
 Gap=     0.332 Goal=   None    Shift=    0.000
 RMSDP=6.59D-04 MaxDP=2.08D-02 DE=-1.71D-01 OVMax= 1.00D-01

 Cycle   3  Pass 0  IDiag  1:
 E= -504.844203544227     Delta-E=       -0.212314897437 Rises=F Damp=F
 DIIS: error= 5.44D-03 at cycle   3 NSaved=   3.
 NSaved= 3 IEnMin= 3 EnMin= -504.844203544227     IErMin= 2 ErrMin= 4.73D-03
 ErrMax= 5.44D-03 EMaxC= 1.00D-01 BMatC= 3.06D-02 BMatP= 7.68D-02
 IDIUse=3 WtCom= 9.46D-01 WtEn= 5.44D-02
 Coeff-Com: -0.180D-01 0.353D+00 0.665D+00
 Coeff-En:   0.000D+00 0.000D+00 0.100D+01
 Coeff:     -0.170D-01 0.334D+00 0.683D+00
 Gap=     0.189 Goal=   None    Shift=    0.000
 Gap=     0.227 Goal=   None    Shift=    0.000
 RMSDP=3.14D-04 MaxDP=1.74D-02 DE=-2.12D-01 OVMax= 2.07D-02

 Cycle   4  Pass 0  IDiag  1:
 E= -504.845930965543     Delta-E=       -0.001727421316 Rises=F Damp=F
 DIIS: error= 5.73D-03 at cycle   4 NSaved=   4.
 NSaved= 4 IEnMin= 4 EnMin= -504.845930965543     IErMin= 2 ErrMin= 4.73D-03
 ErrMax= 5.73D-03 EMaxC= 1.00D-01 BMatC= 2.43D-02 BMatP= 3.06D-02
 IDIUse=3 WtCom= 9.43D-01 WtEn= 5.73D-02
 Coeff-Com: -0.196D-01 0.110D+00 0.481D+00 0.429D+00
 Coeff-En:   0.000D+00 0.000D+00 0.425D+00 0.575D+00
 Coeff:     -0.185D-01 0.104D+00 0.478D+00 0.437D+00
 Gap=     0.192 Goal=   None    Shift=    0.000
 Gap=     0.221 Goal=   None    Shift=    0.000
 RMSDP=1.63D-04 MaxDP=7.72D-03 DE=-1.73D-03 OVMax= 1.27D-02

 Cycle   5  Pass 0  IDiag  1:
 E= -504.849967019802     Delta-E=       -0.004036054258 Rises=F Damp=F
 DIIS: error= 6.84D-04 at cycle   5 NSaved=   5.
 NSaved= 5 IEnMin= 5 EnMin= -504.849967019802     IErMin= 5 ErrMin= 6.84D-04
 ErrMax= 6.84D-04 EMaxC= 1.00D-01 BMatC= 7.54D-04 BMatP= 2.43D-02
 IDIUse=3 WtCom= 9.93D-01 WtEn= 6.84D-03
 Coeff-Com: -0.720D-02 0.203D-01 0.172D+00 0.218D+00 0.597D+00
 Coeff-En:   0.000D+00 0.000D+00 0.000D+00 0.000D+00 0.100D+01
 Coeff:     -0.715D-02 0.202D-01 0.171D+00 0.216D+00 0.600D+00
 Gap=     0.194 Goal=   None    Shift=    0.000
 Gap=     0.218 Goal=   None    Shift=    0.000
 RMSDP=4.02D-05 MaxDP=1.70D-03 DE=-4.04D-03 OVMax= 2.24D-03

 Cycle   6  Pass 0  IDiag  1:
 E= -504.850102214916     Delta-E=       -0.000135195114 Rises=F Damp=F
 DIIS: error= 1.75D-04 at cycle   6 NSaved=   6.
 NSaved= 6 IEnMin= 6 EnMin= -504.850102214916     IErMin= 6 ErrMin= 1.75D-04
 ErrMax= 1.75D-04 EMaxC= 1.00D-01 BMatC= 8.81D-05 BMatP= 7.54D-04
 IDIUse=3 WtCom= 9.98D-01 WtEn= 1.75D-03
 Coeff-Com: -0.158D-02-0.134D-02 0.413D-01 0.705D-01 0.319D+00 0.572D+00
 Coeff-En:   0.000D+00 0.000D+00 0.000D+00 0.000D+00 0.264D-01 0.974D+00
 Coeff:     -0.157D-02-0.133D-02 0.412D-01 0.704D-01 0.319D+00 0.573D+00
 Gap=     0.194 Goal=   None    Shift=    0.000
 Gap=     0.219 Goal=   None    Shift=    0.000
 RMSDP=1.23D-05 MaxDP=7.36D-04 DE=-1.35D-04 OVMax= 7.11D-04

 Cycle   7  Pass 0  IDiag  1:
 E= -504.850121354440     Delta-E=       -0.000019139524 Rises=F Damp=F
 DIIS: error= 3.97D-05 at cycle   7 NSaved=   7.
 NSaved= 7 IEnMin= 7 EnMin= -504.850121354440     IErMin= 7 ErrMin= 3.97D-05
 ErrMax= 3.97D-05 EMaxC= 1.00D-01 BMatC= 3.05D-06 BMatP= 8.81D-05
 IDIUse=1 WtCom= 1.00D+00 WtEn= 0.00D+00
 Coeff-Com:  0.474D-03-0.247D-02-0.938D-02-0.851D-02-0.916D-03 0.113D+00
 Coeff-Com:  0.908D+00
 Coeff:      0.474D-03-0.247D-02-0.938D-02-0.851D-02-0.916D-03 0.113D+00
 Coeff:      0.908D+00
 Gap=     0.194 Goal=   None    Shift=    0.000
 Gap=     0.219 Goal=   None    Shift=    0.000
 RMSDP=4.39D-06 MaxDP=2.65D-04 DE=-1.91D-05 OVMax= 2.98D-04

 Initial convergence to 1.0D-05 achieved.  Increase integral accuracy.
 Cycle   8  Pass 1  IDiag  1:
 E= -504.850164943659     Delta-E=       -0.000043589218 Rises=F Damp=F
 DIIS: error= 2.48D-05 at cycle   1 NSaved=   1.
 NSaved= 1 IEnMin= 1 EnMin= -504.850164943659     IErMin= 1 ErrMin= 2.48D-05
 ErrMax= 2.48D-05 EMaxC= 1.00D-01 BMatC= 1.85D-06 BMatP= 1.85D-06
 IDIUse=1 WtCom= 1.00D+00 WtEn= 0.00D+00
 Coeff-Com:  0.100D+01
 Coeff:      0.100D+01
 Gap=     0.194 Goal=   None    Shift=    0.000
 Gap=     0.219 Goal=   None    Shift=    0.000
 RMSDP=4.39D-06 MaxDP=2.65D-04 DE=-4.36D-05 OVMax= 1.91D-04

 Cycle   9  Pass 1  IDiag  1:
 E= -504.850164972648     Delta-E=       -0.000000028990 Rises=F Damp=F
 DIIS: error= 3.72D-05 at cycle   2 NSaved=   2.
 NSaved= 2 IEnMin= 2 EnMin= -504.850164972648     IErMin= 1 ErrMin= 2.48D-05
 ErrMax= 3.72D-05 EMaxC= 1.00D-01 BMatC= 2.40D-06 BMatP= 1.85D-06
 IDIUse=1 WtCom= 1.00D+00 WtEn= 0.00D+00
 Coeff-Com:  0.537D+00 0.463D+00
 Coeff:      0.537D+00 0.463D+00
 Gap=     0.194 Goal=   None    Shift=    0.000
 Gap=     0.219 Goal=   None    Shift=    0.000
 RMSDP=2.29D-06 MaxDP=7.58D-05 DE=-2.90D-08 OVMax= 1.39D-04

 Cycle  10  Pass 1  IDiag  1:
 E= -504.850165474494     Delta-E=       -0.000000501846 Rises=F Damp=F
 DIIS: error= 6.93D-06 at cycle   3 NSaved=   3.
 NSaved= 3 IEnMin= 3 EnMin= -504.850165474494     IErMin= 3 ErrMin= 6.93D-06
 ErrMax= 6.93D-06 EMaxC= 1.00D-01 BMatC= 8.56D-08 BMatP= 1.85D-06
 IDIUse=1 WtCom= 1.00D+00 WtEn= 0.00D+00
 Coeff-Com:  0.412D-02 0.137D+00 0.859D+00
 Coeff:      0.412D-02 0.137D+00 0.859D+00
 Gap=     0.194 Goal=   None    Shift=    0.000
 Gap=     0.219 Goal=   None    Shift=    0.000
 RMSDP=6.10D-07 MaxDP=2.40D-05 DE=-5.02D-07 OVMax= 3.41D-05

 Cycle  11  Pass 1  IDiag  1:
 E= -504.850165490947     Delta-E=       -0.000000016453 Rises=F Damp=F
 DIIS: error= 5.33D-06 at cycle   4 NSaved=   4.
 NSaved= 4 IEnMin= 4 EnMin= -504.850165490947     IErMin= 4 ErrMin= 5.33D-06
 ErrMax= 5.33D-06 EMaxC= 1.00D-01 BMatC= 3.76D-08 BMatP= 8.56D-08
 IDIUse=1 WtCom= 1.00D+00 WtEn= 0.00D+00
 Coeff-Com: -0.477D-01 0.389D-01 0.516D+00 0.493D+00
 Coeff:     -0.477D-01 0.389D-01 0.516D+00 0.493D+00
 Gap=     0.194 Goal=   None    Shift=    0.000
 Gap=     0.219 Goal=   None    Shift=    0.000
 RMSDP=2.53D-07 MaxDP=1.17D-05 DE=-1.65D-08 OVMax= 1.71D-05

 Cycle  12  Pass 1  IDiag  1:
 E= -504.850165498062     Delta-E=       -0.000000007115 Rises=F Damp=F
 DIIS: error= 2.41D-06 at cycle   5 NSaved=   5.
 NSaved= 5 IEnMin= 5 EnMin= -504.850165498062     IErMin= 5 ErrMin= 2.41D-06
 ErrMax= 2.41D-06 EMaxC= 1.00D-01 BMatC= 5.54D-09 BMatP= 3.76D-08
 IDIUse=1 WtCom= 1.00D+00 WtEn= 0.00D+00
 Coeff-Com: -0.270D-01-0.577D-02 0.121D+00 0.283D+00 0.629D+00
 Coeff:     -0.270D-01-0.577D-02 0.121D+00 0.283D+00 0.629D+00
 Gap=     0.194 Goal=   None    Shift=    0.000
 Gap=     0.219 Goal=   None    Shift=    0.000
 RMSDP=1.17D-07 MaxDP=5.28D-06 DE=-7.11D-09 OVMax= 7.51D-06

 Cycle  13  Pass 1  IDiag  1:
 E= -504.850165499161     Delta-E=       -0.000000001099 Rises=F Damp=F
 DIIS: error= 1.07D-06 at cycle   6 NSaved=   6.
 NSaved= 6 IEnMin= 6 EnMin= -504.850165499161     IErMin= 6 ErrMin= 1.07D-06
 ErrMax= 1.07D-06 EMaxC= 1.00D-01 BMatC= 1.24D-09 BMatP= 5.54D-09
 IDIUse=1 WtCom= 1.00D+00 WtEn= 0.00D+00
 Coeff-Com:  0.160D-02-0.176D-01-0.119D+00-0.132D-01 0.369D+00 0.780D+00
 Coeff:      0.160D-02-0.176D-01-0.119D+00-0.132D-01 0.369D+00 0.780D+00
 Gap=     0.194 Goal=   None    Shift=    0.000
 Gap=     0.219 Goal=   None    Shift=    0.000
 RMSDP=6.33D-08 MaxDP=3.98D-06 DE=-1.10D-09 OVMax= 4.85D-06

 Cycle  14  Pass 1  IDiag  1:
 E= -504.850165499496     Delta-E=       -0.000000000335 Rises=F Damp=F
 DIIS: error= 2.39D-07 at cycle   7 NSaved=   7.
 NSaved= 7 IEnMin= 7 EnMin= -504.850165499496     IErMin= 7 ErrMin= 2.39D-07
 ErrMax= 2.39D-07 EMaxC= 1.00D-01 BMatC= 1.16D-10 BMatP= 1.24D-09
 IDIUse=1 WtCom= 1.00D+00 WtEn= 0.00D+00
 Coeff-Com:  0.306D-02-0.797D-02-0.692D-01-0.333D-01 0.121D+00 0.379D+00
 Coeff-Com:  0.608D+00
 Coeff:      0.306D-02-0.797D-02-0.692D-01-0.333D-01 0.121D+00 0.379D+00
 Coeff:      0.608D+00
 Gap=     0.194 Goal=   None    Shift=    0.000
 Gap=     0.219 Goal=   None    Shift=    0.000
 RMSDP=2.09D-08 MaxDP=9.77D-07 DE=-3.35D-10 OVMax= 1.18D-06

 Cycle  15  Pass 1  IDiag  1:
 E= -504.850165499531     Delta-E=       -0.000000000034 Rises=F Damp=F
 DIIS: error= 4.32D-08 at cycle   8 NSaved=   8.
 NSaved= 8 IEnMin= 8 EnMin= -504.850165499531     IErMin= 8 ErrMin= 4.32D-08
 ErrMax= 4.32D-08 EMaxC= 1.00D-01 BMatC= 3.40D-12 BMatP= 1.16D-10
 IDIUse=1 WtCom= 1.00D+00 WtEn= 0.00D+00
 Coeff-Com:  0.702D-03-0.943D-03-0.105D-01-0.859D-02 0.707D-02 0.490D-01
 Coeff-Com:  0.164D+00 0.800D+00
 Coeff:      0.702D-03-0.943D-03-0.105D-01-0.859D-02 0.707D-02 0.490D-01
 Coeff:      0.164D+00 0.800D+00
 Gap=     0.194 Goal=   None    Shift=    0.000
 Gap=     0.219 Goal=   None    Shift=    0.000
 RMSDP=4.48D-09 MaxDP=2.52D-07 DE=-3.43D-11 OVMax= 3.19D-07

 SCF Done:  E(UB3LYP) =  -504.850165500     A.U. after   15 cycles
             Convg  =    0.4480D-08             -V/T =  2.0042
 <Sx>= 0.0000 <Sy>= 0.0000 <Sz>= 0.5000 <S**2>= 0.7539 S= 0.5020
 <L.S>= 0.000000000000E+00
 KE= 5.027166631812D+02 PE=-2.488799277444D+03 EE= 8.251867922610D+02
 Annihilation of the first spin contaminant:
 S**2 before annihilation     0.7539,   after     0.7500
 Leave Link  502 at Thu Feb 20 19:12:22 2014, MaxMem= 4026531840 cpu:     761.9
 (Enter /usr/caen/gaussian-09revc/g09/l801.exe)
 Range of M.O.s used for correlation:     1   312
 NBasis=   312 NAE=    45 NBE=    44 NFC=     0 NFV=     0
 NROrb=    312 NOA=    45 NOB=    44 NVA=   267 NVB=   268
 Leave Link  801 at Thu Feb 20 19:12:23 2014, MaxMem= 4026531840 cpu:       1.3
 (Enter /usr/caen/gaussian-09revc/g09/l1101.exe)
 Using compressed storage, NAtomX=    30.
 Will process  31 centers per pass.
 Leave Link 1101 at Thu Feb 20 19:12:24 2014, MaxMem= 4026531840 cpu:       4.5
 (Enter /usr/caen/gaussian-09revc/g09/l1102.exe)
 Symmetrizing basis deriv contribution to polar:
 IMax=3 JMax=2 DiffMx= 0.00D+00
 Leave Link 1102 at Thu Feb 20 19:12:24 2014, MaxMem= 4026531840 cpu:       1.2
 (Enter /usr/caen/gaussian-09revc/g09/l1110.exe)
 Forming Gx(P) for the SCF density, NAtomX=    30.
 Integral derivatives from FoFDir/FoFCou, PRISM(SPDF).
 Do as many integral derivatives as possible in FoFDir.
 G2DrvN: MDV=    4026531496.
 G2DrvN: will do    31 centers at a time, making    1 passes doing MaxLOS=2.
 Calling FoFCou, ICntrl=  3107 FMM=F I1Cent=   0 AccDes= 0.00D+00.
 FoFCou: FMM=F IPFlag=           0 FMFlag=      100000 FMFlg1=           0
         NFxFlg=           0 DoJE=F BraDBF=F KetDBF=F FulRan=T
         Omega=  0.000000  0.000000  1.000000  0.000000  0.000000 ICntrl=    3107 IOpCl=  1
         NMat0=    1 NMatS0=    1 NMatT0=    0 NMatD0=    1 NMtDS0=    0 NMtDT0=    0
         I1Cent=           0 NGrid=           0.
 Symmetry not used in FoFCou.
 FoFDir/FoFCou used for L=0 through L=2.
 End of G2Drv Frequency-dependent properties file   721 does not exist.
 End of G2Drv Frequency-dependent properties file   722 does not exist.
 Leave Link 1110 at Thu Feb 20 19:14:38 2014, MaxMem= 4026531840 cpu:    1071.7
 (Enter /usr/caen/gaussian-09revc/g09/l1002.exe)
 Minotr:  UHF open shell wavefunction.
          IDoAtm=111111111111111111111111111111
          Direct CPHF calculation.
          Differentiating once with respect to nuclear coordinates.
          Requested convergence is 1.0D-06 RMS, and 1.0D-05 maximum.
          Secondary convergence is 1.0D-12 RMS, and 1.0D-12 maximum.
          NewPWx=T KeepS1=F KeepF1=F KeepIn=T MapXYZ=F SortEE=F KeepMc=T.
          MDV=    4026531536 using IRadAn=       2.
 Generate precomputed XC quadrature information.
          Keep R1 and R2 ints in memory in canonical form, NReq=2738891885.
 Symmetry not used in FoFDir.
 MinBra= 0 MaxBra= 2 Meth= 1.
 IRaf=       0 NMat=   1 IRICut=       1 DoRegI=T DoRafI=F ISym2E= 0 JSym2E=0.
          Solving linear equations simultaneously, MaxMat=       0.
          There are    93 degrees of freedom in the 1st order CPHF.  IDoFFX=5.
     87 vectors produced by pass  0 Test12= 2.56D-10 1.08D-07 XBig12= 1.83D-01 1.22D-01.
 AX will form    87 AO Fock derivatives at one time.
     87 vectors produced by pass  1 Test12= 2.56D-10 1.08D-07 XBig12= 1.03D-02 1.47D-02.
     87 vectors produced by pass  2 Test12= 2.56D-10 1.08D-07 XBig12= 1.08D-04 1.70D-03.
     87 vectors produced by pass  3 Test12= 2.56D-10 1.08D-07 XBig12= 5.36D-07 5.59D-05.
     73 vectors produced by pass  4 Test12= 2.56D-10 1.08D-07 XBig12= 3.38D-09 6.82D-06.
     10 vectors produced by pass  5 Test12= 2.56D-10 1.08D-07 XBig12= 1.49D-11 5.07D-07.
 Inverted reduced A of dimension   431 with in-core refinement.
 End of Minotr Frequency-dependent properties file   721 does not exist.
 End of Minotr Frequency-dependent properties file   722 does not exist.
 Leave Link 1002 at Thu Feb 20 19:18:15 2014, MaxMem= 4026531840 cpu:    1730.3
 (Enter /usr/caen/gaussian-09revc/g09/l601.exe)
 Copying SCF densities to generalized density rwf, IOpCl= 1 IROHF=0.

 **********************************************************************

            Population analysis using the SCF density.

 **********************************************************************

 Orbital symmetries:
 Alpha Orbitals:
       Occupied  (A) (A) (A) (A) (A) (A) (A) (A) (A) (A) (A) (A)
                 (A) (A) (A) (A) (A) (A) (A) (A) (A) (A) (A) (A)
                 (A) (A) (A) (A) (A) (A) (A) (A) (A) (A) (A) (A)
                 (A) (A) (A) (A) (A) (A) (A) (A) (A)
       Virtual   (A) (A) (A) (A) (A) (A) (A) (A) (A) (A) (A) (A)
                 (A) (A) (A) (A) (A) (A) (A) (A) (A) (A) (A) (A)
                 (A) (A) (A) (A) (A) (A) (A) (A) (A) (A) (A) (A)
                 (A) (A) (A) (A) (A) (A) (A) (A) (A) (A) (A) (A)
                 (A) (A) (A) (A) (A) (A) (A) (A) (A) (A) (A) (A)
                 (A) (A) (A) (A) (A) (A) (A) (A) (A) (A) (A) (A)
                 (A) (A) (A) (A) (A) (A) (A) (A) (A) (A) (A) (A)
                 (A) (A) (A) (A) (A) (A) (A) (A) (A) (A) (A) (A)
                 (A) (A) (A) (A) (A) (A) (A) (A) (A) (A) (A) (A)
                 (A) (A) (A) (A) (A) (A) (A) (A) (A) (A) (A) (A)
                 (A) (A) (A) (A) (A) (A) (A) (A) (A) (A) (A) (A)
                 (A) (A) (A) (A) (A) (A) (A) (A) (A) (A) (A) (A)
                 (A) (A) (A) (A) (A) (A) (A) (A) (A) (A) (A) (A)
                 (A) (A) (A) (A) (A) (A) (A) (A) (A) (A) (A) (A)
                 (A) (A) (A) (A) (A) (A) (A) (A) (A) (A) (A) (A)
                 (A) (A) (A) (A) (A) (A) (A) (A) (A) (A) (A) (A)
                 (A) (A) (A) (A) (A) (A) (A) (A) (A) (A) (A) (A)
                 (A) (A) (A) (A) (A) (A) (A) (A) (A) (A) (A) (A)
                 (A) (A) (A) (A) (A) (A) (A) (A) (A) (A) (A) (A)
                 (A) (A) (A) (A) (A) (A) (A) (A) (A) (A) (A) (A)
                 (A) (A) (A) (A) (A) (A) (A) (A) (A) (A) (A) (A)
                 (A) (A) (A) (A) (A) (A) (A) (A) (A) (A) (A) (A)
                 (A) (A) (A)
 Beta  Orbitals:
       Occupied  (A) (A) (A) (A) (A) (A) (A) (A) (A) (A) (A) (A)
                 (A) (A) (A) (A) (A) (A) (A) (A) (A) (A) (A) (A)
                 (A) (A) (A) (A) (A) (A) (A) (A) (A) (A) (A) (A)
                 (A) (A) (A) (A) (A) (A) (A) (A)
       Virtual   (A) (A) (A) (A) (A) (A) (A) (A) (A) (A) (A) (A)
                 (A) (A) (A) (A) (A) (A) (A) (A) (A) (A) (A) (A)
                 (A) (A) (A) (A) (A) (A) (A) (A) (A) (A) (A) (A)
                 (A) (A) (A) (A) (A) (A) (A) (A) (A) (A) (A) (A)
                 (A) (A) (A) (A) (A) (A) (A) (A) (A) (A) (A) (A)
                 (A) (A) (A) (A) (A) (A) (A) (A) (A) (A) (A) (A)
                 (A) (A) (A) (A) (A) (A) (A) (A) (A) (A) (A) (A)
                 (A) (A) (A) (A) (A) (A) (A) (A) (A) (A) (A) (A)
                 (A) (A) (A) (A) (A) (A) (A) (A) (A) (A) (A) (A)
                 (A) (A) (A) (A) (A) (A) (A) (A) (A) (A) (A) (A)
                 (A) (A) (A) (A) (A) (A) (A) (A) (A) (A) (A) (A)
                 (A) (A) (A) (A) (A) (A) (A) (A) (A) (A) (A) (A)
                 (A) (A) (A) (A) (A) (A) (A) (A) (A) (A) (A) (A)
                 (A) (A) (A) (A) (A) (A) (A) (A) (A) (A) (A) (A)
                 (A) (A) (A) (A) (A) (A) (A) (A) (A) (A) (A) (A)
                 (A) (A) (A) (A) (A) (A) (A) (A) (A) (A) (A) (A)
                 (A) (A) (A) (A) (A) (A) (A) (A) (A) (A) (A) (A)
                 (A) (A) (A) (A) (A) (A) (A) (A) (A) (A) (A) (A)
                 (A) (A) (A) (A) (A) (A) (A) (A) (A) (A) (A) (A)
                 (A) (A) (A) (A) (A) (A) (A) (A) (A) (A) (A) (A)
                 (A) (A) (A) (A) (A) (A) (A) (A) (A) (A) (A) (A)
                 (A) (A) (A) (A) (A) (A) (A) (A) (A) (A) (A) (A)
                 (A) (A) (A) (A)
 The electronic state is 2-A.
 Alpha  occ. eigenvalues --  -19.16736 -19.16531 -10.23259 -10.17150 -10.16475
 Alpha  occ. eigenvalues --  -10.16422 -10.16271 -10.16180 -10.16114 -10.15572
 Alpha  occ. eigenvalues --  -10.15274  -1.11020  -0.91686  -0.81349  -0.78723
 Alpha  occ. eigenvalues --   -0.74917  -0.69776  -0.68065  -0.67314  -0.60382
 Alpha  occ. eigenvalues --   -0.56223  -0.55095  -0.51148  -0.48360  -0.46805
 Alpha  occ. eigenvalues --   -0.44679  -0.44653  -0.43878  -0.42695  -0.41777
 Alpha  occ. eigenvalues --   -0.39776  -0.39333  -0.38604  -0.38032  -0.37641
 Alpha  occ. eigenvalues --   -0.36510  -0.36124  -0.34971  -0.33726  -0.33207
 Alpha  occ. eigenvalues --   -0.32329  -0.32140  -0.29989  -0.25927  -0.18194
 Alpha virt. eigenvalues --    0.01211   0.03638   0.04888   0.06589   0.07004
 Alpha virt. eigenvalues --    0.07994   0.08435   0.09204   0.10147   0.10329
 Alpha virt. eigenvalues --    0.10918   0.11832   0.12307   0.13426   0.14016
 Alpha virt. eigenvalues --    0.14578   0.15288   0.15429   0.16651   0.17019
 Alpha virt. eigenvalues --    0.18121   0.19708   0.20057   0.22654   0.23066
 Alpha virt. eigenvalues --    0.23506   0.24779   0.26184   0.26855   0.28337
 Alpha virt. eigenvalues --    0.29934   0.30707   0.31601   0.33801   0.35043
 Alpha virt. eigenvalues --    0.37284   0.38762   0.39429   0.40333   0.40795
 Alpha virt. eigenvalues --    0.42756   0.43315   0.44327   0.46595   0.47587
 Alpha virt. eigenvalues --    0.48791   0.50142   0.51346   0.53579   0.54850
 Alpha virt. eigenvalues --    0.56008   0.56356   0.57579   0.58041   0.58329
 Alpha virt. eigenvalues --    0.58814   0.59380   0.59529   0.59917   0.59944
 Alpha virt. eigenvalues --    0.61033   0.61409   0.61607   0.62128   0.63227
 Alpha virt. eigenvalues --    0.63770   0.64012   0.64361   0.65061   0.66171
 Alpha virt. eigenvalues --    0.66630   0.67648   0.68875   0.70698   0.74637
 Alpha virt. eigenvalues --    0.76533   0.80531   0.84244   0.86529   0.87488
 Alpha virt. eigenvalues --    0.88330   0.89588   0.90812   0.93899   0.94725
 Alpha virt. eigenvalues --    0.97818   1.01280   1.03695   1.05561   1.06868
 Alpha virt. eigenvalues --    1.08954   1.10165   1.15590   1.17349   1.17854
 Alpha virt. eigenvalues --    1.21976   1.25539   1.26003   1.27832   1.29452
 Alpha virt. eigenvalues --    1.30563   1.34478   1.34900   1.36703   1.37742
 Alpha virt. eigenvalues --    1.41196   1.42094   1.43593   1.43940   1.44802
 Alpha virt. eigenvalues --    1.45747   1.46290   1.47121   1.47315   1.49177
 Alpha virt. eigenvalues --    1.49717   1.50703   1.51269   1.52321   1.52989
 Alpha virt. eigenvalues --    1.54271   1.55341   1.55549   1.56872   1.58182
 Alpha virt. eigenvalues --    1.59553   1.60810   1.62384   1.63576   1.64734
 Alpha virt. eigenvalues --    1.65420   1.66442   1.68560   1.69513   1.70156
 Alpha virt. eigenvalues --    1.71329   1.72334   1.74390   1.75020   1.75413
 Alpha virt. eigenvalues --    1.76191   1.77228   1.80678   1.81370   1.84084
 Alpha virt. eigenvalues --    1.86853   1.88407   1.90768   1.91621   1.92378
 Alpha virt. eigenvalues --    1.94357   1.95584   1.98000   2.00035   2.01783
 Alpha virt. eigenvalues --    2.03548   2.05367   2.06841   2.08397   2.09588
 Alpha virt. eigenvalues --    2.10639   2.13237   2.14451   2.18825   2.19997
 Alpha virt. eigenvalues --    2.21912   2.24868   2.26401   2.28416   2.29934
 Alpha virt. eigenvalues --    2.31746   2.33861   2.34105   2.36108   2.36730
 Alpha virt. eigenvalues --    2.38525   2.42147   2.42539   2.44095   2.46058
 Alpha virt. eigenvalues --    2.46254   2.47454   2.47926   2.48630   2.49158
 Alpha virt. eigenvalues --    2.50256   2.50585   2.52030   2.52726   2.53474
 Alpha virt. eigenvalues --    2.53919   2.55539   2.55879   2.57140   2.59964
 Alpha virt. eigenvalues --    2.61842   2.62458   2.62735   2.63797   2.65213
 Alpha virt. eigenvalues --    2.65712   2.67676   2.68159   2.70602   2.74137
 Alpha virt. eigenvalues --    2.74252   2.76144   2.77371   2.78301   2.82776
 Alpha virt. eigenvalues --    2.84763   2.86268   2.88694   2.89905   2.91347
 Alpha virt. eigenvalues --    2.93576   2.97818   2.99676   3.03112   3.06522
 Alpha virt. eigenvalues --    3.09668   3.12705   3.13867   3.18781   3.22028
 Alpha virt. eigenvalues --    3.23714   3.31951   3.38422   3.47164   3.53702
 Alpha virt. eigenvalues --    3.66499   3.76508   3.77416   3.77791   3.78253
 Alpha virt. eigenvalues --    3.79031   3.80722   3.81895   3.82389   3.82564
 Alpha virt. eigenvalues --    3.83128   3.85341   3.95523   3.99821   4.06387
 Alpha virt. eigenvalues --    4.15447   4.25944   4.26404   4.31010   4.41741
 Alpha virt. eigenvalues --    4.74118   4.83975   4.95161   5.20542   5.42496
 Alpha virt. eigenvalues --    5.65742  23.71171  23.79854  23.82953  23.86669
 Alpha virt. eigenvalues --   23.90500  23.93526  23.93944  23.94782  23.95366
 Alpha virt. eigenvalues --   49.78304  49.85643
  Beta  occ. eigenvalues --  -19.16734 -19.16530 -10.23259 -10.17231 -10.16472
  Beta  occ. eigenvalues --  -10.16267 -10.16239 -10.16114 -10.15443 -10.15247
  Beta  occ. eigenvalues --  -10.15026  -1.11018  -0.91682  -0.80454  -0.78616
  Beta  occ. eigenvalues --   -0.74616  -0.69768  -0.67893  -0.66267  -0.59878
  Beta  occ. eigenvalues --   -0.56183  -0.54037  -0.51088  -0.48230  -0.46628
  Beta  occ. eigenvalues --   -0.44568  -0.44300  -0.43592  -0.42354  -0.41350
  Beta  occ. eigenvalues --   -0.39647  -0.39298  -0.38383  -0.37878  -0.37542
  Beta  occ. eigenvalues --   -0.36275  -0.35941  -0.34554  -0.33427  -0.32974
  Beta  occ. eigenvalues --   -0.32112  -0.31808  -0.29911  -0.25917
  Beta virt. eigenvalues --   -0.04006   0.01216   0.03661   0.04947   0.06722
  Beta virt. eigenvalues --    0.07055   0.08059   0.08474   0.09433   0.10167
  Beta virt. eigenvalues --    0.10458   0.10946   0.11987   0.12447   0.13635
  Beta virt. eigenvalues --    0.14091   0.14610   0.15413   0.15541   0.16763
  Beta virt. eigenvalues --    0.17262   0.18251   0.19742   0.20216   0.22715
  Beta virt. eigenvalues --    0.23259   0.23796   0.24976   0.26921   0.27106
  Beta virt. eigenvalues --    0.28370   0.30166   0.30921   0.31773   0.34211
  Beta virt. eigenvalues --    0.35432   0.37562   0.38877   0.39674   0.40929
  Beta virt. eigenvalues --    0.41514   0.43072   0.43682   0.44598   0.46689
  Beta virt. eigenvalues --    0.47757   0.49699   0.50480   0.52154   0.54883
  Beta virt. eigenvalues --    0.55389   0.56158   0.56412   0.57683   0.58140
  Beta virt. eigenvalues --    0.58444   0.59064   0.59503   0.59820   0.60043
  Beta virt. eigenvalues --    0.60561   0.61175   0.61564   0.61758   0.62244
  Beta virt. eigenvalues --    0.63442   0.63899   0.64420   0.64897   0.65172
  Beta virt. eigenvalues --    0.66352   0.66798   0.68175   0.69170   0.71183
  Beta virt. eigenvalues --    0.74684   0.77022   0.81068   0.84501   0.86651
  Beta virt. eigenvalues --    0.87686   0.88391   0.90071   0.91128   0.94184
  Beta virt. eigenvalues --    0.94837   0.98273   1.01445   1.04016   1.05603
  Beta virt. eigenvalues --    1.06991   1.09122   1.10345   1.15744   1.17473
  Beta virt. eigenvalues --    1.18024   1.22254   1.25986   1.27128   1.27986
  Beta virt. eigenvalues --    1.29886   1.30657   1.34577   1.35059   1.36976
  Beta virt. eigenvalues --    1.37791   1.41322   1.42878   1.43729   1.44215
  Beta virt. eigenvalues --    1.45093   1.46059   1.46319   1.47178   1.47475
  Beta virt. eigenvalues --    1.49262   1.50169   1.50789   1.51305   1.52540
  Beta virt. eigenvalues --    1.53206   1.54525   1.55584   1.55666   1.57258
  Beta virt. eigenvalues --    1.58715   1.59624   1.60979   1.62745   1.64032
  Beta virt. eigenvalues --    1.64996   1.66214   1.66694   1.68870   1.69721
  Beta virt. eigenvalues --    1.71159   1.71642   1.72519   1.74734   1.75300
  Beta virt. eigenvalues --    1.75529   1.76712   1.77395   1.80888   1.81621
  Beta virt. eigenvalues --    1.84382   1.87281   1.89762   1.90807   1.91715
  Beta virt. eigenvalues --    1.92448   1.94482   1.95611   1.98187   2.00333
  Beta virt. eigenvalues --    2.02057   2.03994   2.06043   2.07497   2.08591
  Beta virt. eigenvalues --    2.09814   2.10856   2.13647   2.14702   2.19084
  Beta virt. eigenvalues --    2.20208   2.22176   2.25148   2.26545   2.28862
  Beta virt. eigenvalues --    2.30054   2.32160   2.34112   2.34297   2.36213
  Beta virt. eigenvalues --    2.36835   2.38840   2.42275   2.42671   2.44269
  Beta virt. eigenvalues --    2.46214   2.46352   2.47561   2.48025   2.48738
  Beta virt. eigenvalues --    2.49356   2.50481   2.50720   2.52228   2.52808
  Beta virt. eigenvalues --    2.53615   2.54055   2.55655   2.56073   2.57234
  Beta virt. eigenvalues --    2.60202   2.61912   2.62788   2.63015   2.63997
  Beta virt. eigenvalues --    2.65325   2.65990   2.68047   2.68696   2.70696
  Beta virt. eigenvalues --    2.74282   2.74484   2.76217   2.77611   2.78740
  Beta virt. eigenvalues --    2.82967   2.85199   2.86600   2.90000   2.90565
  Beta virt. eigenvalues --    2.91683   2.94427   2.99271   2.99901   3.03402
  Beta virt. eigenvalues --    3.06829   3.09771   3.12711   3.13930   3.18816
  Beta virt. eigenvalues --    3.22261   3.23745   3.31965   3.38666   3.47703
  Beta virt. eigenvalues --    3.53744   3.66512   3.76599   3.77478   3.77864
  Beta virt. eigenvalues --    3.78267   3.79088   3.80839   3.81950   3.82420
  Beta virt. eigenvalues --    3.82625   3.83310   3.85359   3.96296   3.99936
  Beta virt. eigenvalues --    4.06819   4.15765   4.26164   4.26668   4.31249
  Beta virt. eigenvalues --    4.42435   4.74119   4.83976   4.95165   5.20544
  Beta virt. eigenvalues --    5.42497   5.65743  23.71219  23.80534  23.83354
  Beta virt. eigenvalues --   23.86719  23.90682  23.93544  23.94124  23.94863
  Beta virt. eigenvalues --   23.95364  49.78304  49.85645
          Condensed to atoms (all electrons):
              1          2          3          4          5          6
     1  C    4.907504   0.406251   0.392379   0.394379  -0.094600  -0.009494
     2  H    0.406251   0.560014  -0.027564  -0.028506  -0.009939   0.003394
     3  H    0.392379  -0.027564   0.586743  -0.025035  -0.000535   0.000225
     4  H    0.394379  -0.028506  -0.025035   0.578899   0.010314   0.000281
     5  C   -0.094600  -0.009939  -0.000535   0.010314   5.082376   0.410356
     6  H   -0.009494   0.003394   0.000225   0.000281   0.410356   0.557850
     7  H   -0.002313   0.000333   0.000790  -0.000361   0.390901  -0.034051
     8  C    0.009055   0.000244  -0.000265  -0.000541   0.339265  -0.040128
     9  H    0.000563   0.000063  -0.000103  -0.000031  -0.035113  -0.008186
    10  H   -0.000395  -0.000044   0.000050   0.000027  -0.038240   0.009869
    11  C   -0.000188  -0.000065  -0.000014   0.000014  -0.052469   0.002657
    12  H   -0.000014   0.000003  -0.000002   0.000001  -0.005453  -0.000001
    13  C    0.000003   0.000001   0.000000   0.000000   0.005164  -0.000230
    14  H   -0.000001   0.000000   0.000000   0.000000  -0.000050  -0.000164
    15  C    0.000000   0.000000   0.000000   0.000000  -0.000262  -0.000058
    16  H    0.000000   0.000000   0.000000   0.000000  -0.000010  -0.000006
    17  H    0.000000   0.000000   0.000000   0.000000   0.000013   0.000004
    18  H    0.000000   0.000000   0.000000   0.000000  -0.000046   0.000109
    19  C   -0.053427   0.008627  -0.004429  -0.008080  -0.068037   0.007519
    20  H   -0.002521  -0.000099   0.000910  -0.000097  -0.002691   0.000153
    21  H   -0.011464  -0.000104   0.000304   0.004905   0.009676  -0.000273
    22  H    0.009141  -0.000402  -0.000299  -0.000138  -0.010295  -0.000161
    23  C    0.000000   0.000000   0.000000   0.000000  -0.000095   0.000074
    24  H    0.000000   0.000000   0.000000   0.000000   0.000016  -0.000002
    25  H    0.000000   0.000000   0.000000   0.000000  -0.000034  -0.000008
    26  H    0.000000   0.000000   0.000000   0.000000  -0.000107  -0.000001
    27  C    0.340361  -0.035897  -0.031646  -0.034145   0.328287  -0.034817
    28  O   -0.048313  -0.005945   0.004520   0.004017  -0.069921  -0.006470
    29  O    0.004025   0.015513   0.000259  -0.000454  -0.012354   0.012169
    30  H    0.003751  -0.000495  -0.000117   0.000142   0.000305  -0.001157
              7          8          9         10         11         12
     1  C   -0.002313   0.009055   0.000563  -0.000395  -0.000188  -0.000014
     2  H    0.000333   0.000244   0.000063  -0.000044  -0.000065   0.000003
     3  H    0.000790  -0.000265  -0.000103   0.000050  -0.000014  -0.000002
     4  H   -0.000361  -0.000541  -0.000031   0.000027   0.000014   0.000001
     5  C    0.390901   0.339265  -0.035113  -0.038240  -0.052469  -0.005453
     6  H   -0.034051  -0.040128  -0.008186   0.009869   0.002657  -0.000001
     7  H    0.608617  -0.036009   0.008987  -0.009194  -0.004237   0.003776
     8  C   -0.036009   4.896339   0.410800   0.391855   0.348934  -0.044383
     9  H    0.008987   0.410800   0.562091  -0.039784  -0.044945   0.006364
    10  H   -0.009194   0.391855  -0.039784   0.622827  -0.046495   0.001344
    11  C   -0.004237   0.348934  -0.044945  -0.046495   5.370028   0.401247
    12  H    0.003776  -0.044383   0.006364   0.001344   0.401247   0.579154
    13  C    0.000239  -0.056040  -0.003412  -0.002436   0.364227  -0.043191
    14  H    0.000028  -0.003423   0.005546  -0.000725  -0.058509   0.008102
    15  C    0.000008   0.006418   0.000206  -0.000189  -0.066933  -0.006851
    16  H   -0.000010   0.000067   0.000016  -0.000012  -0.008153   0.004396
    17  H    0.000000  -0.000403  -0.000020   0.000036   0.009039  -0.000071
    18  H   -0.000010  -0.000147  -0.000119   0.000071   0.002301  -0.000351
    19  C   -0.005873  -0.009332  -0.001341   0.003361  -0.000227  -0.000026
    20  H    0.001721  -0.000296   0.000125   0.000060  -0.000012  -0.000013
    21  H   -0.000390  -0.000230  -0.000167   0.000137   0.000009  -0.000001
    22  H    0.000255   0.002463   0.000910   0.000678   0.000019  -0.000004
    23  C   -0.000071  -0.002889  -0.000990   0.002774  -0.084066   0.000630
    24  H    0.000001  -0.000176   0.000009  -0.000277   0.010039  -0.000394
    25  H    0.000006  -0.000462   0.000127  -0.000166  -0.001385   0.002669
    26  H    0.000019   0.002665   0.000262   0.001004  -0.007377  -0.000230
    27  C   -0.030727  -0.047794  -0.007135  -0.004941   0.005873   0.000117
    28  O    0.004254   0.005132   0.009103  -0.000996   0.000317   0.000004
    29  O    0.000071  -0.001125   0.003586   0.000024  -0.000145  -0.000014
    30  H   -0.000035   0.000071  -0.000025  -0.000017   0.000010   0.000000
             13         14         15         16         17         18
     1  C    0.000003  -0.000001   0.000000   0.000000   0.000000   0.000000
     2  H    0.000001   0.000000   0.000000   0.000000   0.000000   0.000000
     3  H    0.000000   0.000000   0.000000   0.000000   0.000000   0.000000
     4  H    0.000000   0.000000   0.000000   0.000000   0.000000   0.000000
     5  C    0.005164  -0.000050  -0.000262  -0.000010   0.000013  -0.000046
     6  H   -0.000230  -0.000164  -0.000058  -0.000006   0.000004   0.000109
     7  H    0.000239   0.000028   0.000008  -0.000010   0.000000  -0.000010
     8  C   -0.056040  -0.003423   0.006418   0.000067  -0.000403  -0.000147
     9  H   -0.003412   0.005546   0.000206   0.000016  -0.000020  -0.000119
    10  H   -0.002436  -0.000725  -0.000189  -0.000012   0.000036   0.000071
    11  C    0.364227  -0.058509  -0.066933  -0.008153   0.009039   0.002301
    12  H   -0.043191   0.008102  -0.006851   0.004396  -0.000071  -0.000351
    13  C    4.991825   0.416853   0.375330  -0.036890  -0.033907  -0.035353
    14  H    0.416853   0.615517  -0.038604   0.009460  -0.007067  -0.007681
    15  C    0.375330  -0.038604   4.868890   0.401810   0.401519   0.401689
    16  H   -0.036890   0.009460   0.401810   0.596664  -0.031868  -0.031346
    17  H   -0.033907  -0.007067   0.401519  -0.031868   0.590564  -0.027308
    18  H   -0.035353  -0.007681   0.401689  -0.031346  -0.027308   0.580946
    19  C    0.000004   0.000002   0.000000   0.000000   0.000000   0.000000
    20  H    0.000000  -0.000001   0.000000   0.000000   0.000000   0.000000
    21  H    0.000000   0.000000   0.000000   0.000000   0.000000   0.000000
    22  H    0.000011  -0.000014   0.000000   0.000000   0.000000   0.000000
    23  C    0.352470  -0.052757  -0.066986  -0.007237  -0.004118   0.009595
    24  H   -0.031639  -0.005627  -0.005228  -0.000462   0.003383  -0.000253
    25  H   -0.037386   0.010127  -0.005298   0.005493  -0.000817  -0.000347
    26  H   -0.030938  -0.005716   0.007989  -0.000153   0.000027  -0.000500
    27  C   -0.000204   0.000032   0.000003   0.000000   0.000000   0.000000
    28  O   -0.000003  -0.000035   0.000000   0.000000   0.000000   0.000000
    29  O    0.000001  -0.000015   0.000000   0.000000   0.000000   0.000000
    30  H    0.000000   0.000000   0.000000   0.000000   0.000000   0.000000
             19         20         21         22         23         24
     1  C   -0.053427  -0.002521  -0.011464   0.009141   0.000000   0.000000
     2  H    0.008627  -0.000099  -0.000104  -0.000402   0.000000   0.000000
     3  H   -0.004429   0.000910   0.000304  -0.000299   0.000000   0.000000
     4  H   -0.008080  -0.000097   0.004905  -0.000138   0.000000   0.000000
     5  C   -0.068037  -0.002691   0.009676  -0.010295  -0.000095   0.000016
     6  H    0.007519   0.000153  -0.000273  -0.000161   0.000074  -0.000002
     7  H   -0.005873   0.001721  -0.000390   0.000255  -0.000071   0.000001
     8  C   -0.009332  -0.000296  -0.000230   0.002463  -0.002889  -0.000176
     9  H   -0.001341   0.000125  -0.000167   0.000910  -0.000990   0.000009
    10  H    0.003361   0.000060   0.000137   0.000678   0.002774  -0.000277
    11  C   -0.000227  -0.000012   0.000009   0.000019  -0.084066   0.010039
    12  H   -0.000026  -0.000013  -0.000001  -0.000004   0.000630  -0.000394
    13  C    0.000004   0.000000   0.000000   0.000011   0.352470  -0.031639
    14  H    0.000002  -0.000001   0.000000  -0.000014  -0.052757  -0.005627
    15  C    0.000000   0.000000   0.000000   0.000000  -0.066986  -0.005228
    16  H    0.000000   0.000000   0.000000   0.000000  -0.007237  -0.000462
    17  H    0.000000   0.000000   0.000000   0.000000  -0.004118   0.003383
    18  H    0.000000   0.000000   0.000000   0.000000   0.009595  -0.000253
    19  C    4.875171   0.398745   0.398076   0.401184  -0.000004   0.000000
    20  H    0.398745   0.577839  -0.025875  -0.024631   0.000000   0.000000
    21  H    0.398076  -0.025875   0.567092  -0.027043   0.000000   0.000000
    22  H    0.401184  -0.024631  -0.027043   0.553514   0.000004  -0.000001
    23  C   -0.000004   0.000000   0.000000   0.000004   4.924320   0.393343
    24  H    0.000000   0.000000   0.000000  -0.000001   0.393343   0.593876
    25  H    0.000000   0.000000   0.000000  -0.000003   0.394934  -0.029841
    26  H   -0.000009  -0.000001   0.000000   0.000010   0.402804  -0.028656
    27  C    0.340741  -0.036215  -0.029374  -0.031133   0.000007  -0.000001
    28  O   -0.039058   0.004114   0.002662   0.004342   0.000000   0.000000
    29  O    0.006424  -0.000245  -0.000315  -0.000294   0.000000   0.000000
    30  H   -0.001090   0.000048  -0.000021   0.000074   0.000000   0.000000
             25         26         27         28         29         30
     1  C    0.000000   0.000000   0.340361  -0.048313   0.004025   0.003751
     2  H    0.000000   0.000000  -0.035897  -0.005945   0.015513  -0.000495
     3  H    0.000000   0.000000  -0.031646   0.004520   0.000259  -0.000117
     4  H    0.000000   0.000000  -0.034145   0.004017  -0.000454   0.000142
     5  C   -0.000034  -0.000107   0.328287  -0.069921  -0.012354   0.000305
     6  H   -0.000008  -0.000001  -0.034817  -0.006470   0.012169  -0.001157
     7  H    0.000006   0.000019  -0.030727   0.004254   0.000071  -0.000035
     8  C   -0.000462   0.002665  -0.047794   0.005132  -0.001125   0.000071
     9  H    0.000127   0.000262  -0.007135   0.009103   0.003586  -0.000025
    10  H   -0.000166   0.001004  -0.004941  -0.000996   0.000024  -0.000017
    11  C   -0.001385  -0.007377   0.005873   0.000317  -0.000145   0.000010
    12  H    0.002669  -0.000230   0.000117   0.000004  -0.000014   0.000000
    13  C   -0.037386  -0.030938  -0.000204  -0.000003   0.000001   0.000000
    14  H    0.010127  -0.005716   0.000032  -0.000035  -0.000015   0.000000
[...]
 0.00027005,-0.00013967,0.00113255,-0.00422466,0.00122373,0.00032179,0.
 00022112,0.00024711,0.02488455,0.00123798,0.01751997,-0.00063754,0.001
 37216,-0.00053461,0.00073483,0.00163164,-0.00011810,-0.00012151,-0.000
 10467,0.00000734,-0.00065836,-0.00032709,0.00000383,-0.00001701,0.0003
 2833,-0.00041785,0.00003139,-0.00000829,-0.00001687,0.00000314,-0.0000
 0044,0.00000772,0.00001524,0.00001262,-0.00000185,-0.00000134,-0.00001
 418,0.00000644,-0.02867749,-0.04999275,-0.01925201,0.02960523,0.054701
 96,-0.00002906,-0.00000784,0.00002263,0.00000607,0.00000152,0.00000095
 ,0.00000595,-0.00000044,0.00000071,-0.00002271,0.00000260,-0.00000111,
 -0.00013123,-0.00012884,0.00011265,0.00005848,-0.00000702,0.00002497,0
 .00001693,-0.00000045,0.00000363,0.00027978,0.00018732,-0.00018572,-0.
 00003943,-0.00000374,0.00001003,-0.00018513,-0.00028527,0.00005951,-0.
 00120145,0.00226876,0.00062162,0.00026302,-0.00030069,0.00014227,-0.00
 409926,-0.00130610,-0.00375846,0.00035871,0.00028930,0.00050931,-0.000
 42399,-0.00062157,-0.00014476,-0.00009486,0.00002143,-0.00004329,0.000
 47938,0.00062431,0.00012958,0.00032236,-0.00007207,0.00018227,-0.00002
 560,0.00000109,0.00001254,0.00000749,0.00000523,-0.00000020,-0.0000203
 3,-0.00000575,0.00000489,0.00000505,0.00001048,-0.00001418,-0.11654518
 ,-0.01920802,-0.12750410,0.12987722,0.02014079,0.13465900,-0.00000373,
 0.00000034,0.00000169,0.00000007,-0.00000162,0.00000229,-0.00000326,-0
 .00000178,-0.00000505,0.00000094,0.00000053,-0.00000172,0.00002082,0.0
 0003212,0.00002921,-0.00001415,0.00000600,-0.00000880,-0.00003673,-0.0
 0000828,-0.00004849,-0.00034956,-0.00004751,-0.00007199,0.00013330,-0.
 00008820,-0.00008709,-0.00002794,0.00013818,0.00004251,0.00097480,-0.0
 0065541,0.00141730,-0.00008160,0.00024956,-0.00031568,-0.00524834,0.00
 720740,0.01154547,-0.00060558,0.00268463,-0.00089717,0.00022123,-0.001
 08521,-0.00032629,0.00049800,0.00005831,-0.00028562,0.00005172,-0.0000
 0961,-0.00015338,-0.00012586,-0.00008214,-0.00004543,0.00001487,0.0000
 0266,0.00000989,-0.00001253,-0.00000656,-0.00001247,0.00000559,-0.0000
 0373,-0.00000353,-0.00000163,0.00000714,0.00001005,-0.06394691,0.02932
 194,0.05633235,0.00803186,-0.01256429,-0.02286641,0.06611219,0.0000091
 3,0.00000411,-0.00000424,-0.00000168,-0.00000093,-0.00000330,0.0000002
 9,0.00000239,0.00000182,0.00000486,-0.00000167,0.00000127,0.00001185,0
 .00005284,-0.00001625,-0.00000060,-0.00000222,-0.00001100,0.00002361,0
 .00000724,0.00001882,0.00011788,0.00001437,0.00005467,-0.00013054,-0.0
 0002882,0.00012467,-0.00000611,0.00001691,0.00002132,-0.00192500,0.001
 24016,-0.00077468,0.00038409,-0.00010602,0.00045991,0.00857116,-0.0154
 9104,-0.02460467,0.00270415,-0.00503351,0.00176718,0.00039257,0.001542
 33,-0.00160375,-0.00046966,-0.00012393,0.00100778,-0.00005615,-0.00007
 719,0.00005141,-0.00006654,0.00046256,0.00034023,0.00000321,-0.0000013
 8,0.00000651,-0.00000204,0.00000234,-0.00000067,0.00000144,0.00000056,
 -0.00000202,0.00000077,-0.00000256,0.00000261,0.02920357,-0.09987545,-
 0.10031626,0.00085971,-0.00257827,-0.00321808,-0.03555267,0.11038846,0
 .00001856,0.00000126,-0.00001317,-0.00000347,-0.00000041,-0.00000227,-
 0.00000104,0.00000259,0.00000502,0.00001238,-0.00000153,0.00000079,-0.
 00002701,-0.00002695,-0.00005275,0.00001117,-0.00000157,0.00001790,0.0
 0001694,0.00000771,0.00003216,0.00004947,0.00005477,0.00005482,-0.0000
 4353,0.00003168,-0.00000616,0.00003674,-0.00008029,-0.00010435,-0.0000
 5730,0.00028277,0.00120285,0.00036329,-0.00002436,0.00017167,-0.001698
 09,0.00299647,0.00541809,-0.00071632,0.00170959,0.00111217,-0.00036461
 ,0.00010812,0.00096278,-0.00021298,-0.00049035,0.00024761,0.00007018,-
 0.00003577,-0.00009310,-0.00012317,-0.00008855,0.00020952,-0.00000230,
 -0.00000004,-0.00002902,0.00000522,0.00000151,0.00001364,0.00001111,0.
 00000464,0.00000165,-0.00000444,-0.00001510,0.00000549,0.05636833,-0.1
 0022610,-0.23327597,0.00508017,-0.00720522,-0.01475452,-0.06179159,0.1
 1008022,0.25222269,0.00002749,0.00000904,-0.00002357,-0.00000622,0.000
 00257,-0.00000165,-0.00000423,-0.00000069,0.00000058,0.00002012,-0.000
 00230,0.00000199,-0.00002715,-0.00001404,-0.00010537,0.00001126,-0.000
 00923,0.00002293,0.00000653,0.00000481,0.00002055,0.00000303,0.0003351
 7,-0.00005064,-0.00003943,0.00000771,0.00002921,-0.00028841,0.00007860
 ,-0.00011287,0.00089477,-0.00001579,-0.00027965,-0.00001902,0.00006064
 ,0.00001468,0.00905931,0.00848903,-0.00814629,0.00058600,-0.00095873,0
 .00003239,-0.00095008,0.00217112,-0.00072783,-0.00009314,0.00005351,-0
 .00012307,0.00026042,0.00028986,0.00016048,0.00070833,0.00060230,-0.00
 024678,0.00001628,0.00000135,-0.00002057,-0.00000321,-0.00000454,0.000
 00437,0.00001914,0.00000339,0.00000089,-0.00001293,-0.00001082,0.00001
 357,-0.15459376,-0.09821204,0.08424546,-0.01652271,-0.01454808,0.01400
 018,-0.00558964,-0.00408698,0.00300336,0.16654722,-0.00001351,0.000004
 57,0.00000995,0.00000074,0.00000515,-0.00000038,0.00000263,-0.00000334
 ,-0.00000032,-0.00001023,-0.00000024,0.00000089,0.00025553,0.00023009,
 -0.00007707,-0.00012991,0.00003037,-0.00008222,-0.00004342,-0.00001948
 ,-0.00004623,0.00004754,-0.00042600,0.00016622,0.00008925,-0.00010997,
 -0.00006023,0.00037316,0.00048924,-0.00003456,-0.00161441,0.00086156,-
 0.00061880,0.00010326,-0.00002031,-0.00003840,-0.01833172,-0.01589697,
 0.01435620,-0.00033980,0.00088611,-0.00070530,0.00406138,-0.00519573,0
 .00053747,0.00006098,0.00016958,0.00017431,0.00024461,0.00030816,-0.00
 026454,-0.00121651,-0.00112680,0.00119606,0.00001711,-0.00001135,0.000
 04571,0.00000187,0.00000405,-0.00000795,-0.00001872,0.00000329,-0.0000
 0635,0.00000991,0.00001869,-0.00002048,-0.09727910,-0.13389603,0.07530
 876,-0.00248994,-0.00282763,0.00160213,0.01040008,0.00959943,-0.007075
 99,0.10577912,0.14691216,0.00001258,-0.00000806,-0.00001320,-0.0000005
 6,-0.00000577,0.00000272,-0.00000471,0.00000247,-0.00000545,0.00001132
 ,0.00000123,0.00000018,-0.00012293,-0.00023933,0.00000583,0.00010493,-
 0.00003074,0.00007030,-0.00000107,0.00002478,-0.00001591,-0.00003242,0
 .00053115,-0.00000303,0.00001043,-0.00011625,-0.00001049,-0.00050132,-
 0.00026939,0.00017633,0.00099849,-0.00006034,-0.00019745,-0.00004867,0
 .00009947,0.00002048,0.00295302,0.00242870,-0.00411105,-0.00042879,-0.
 00011830,0.00054367,-0.00127613,0.00139360,0.00034861,-0.00022055,-0.0
 0029037,0.00045799,0.00028935,0.00003316,0.00006058,0.00048484,0.00040
 298,0.00021739,0.00000006,0.00000219,-0.00002524,-0.00002240,-0.000008
 39,-0.00001837,0.00002287,-0.00000808,0.00000284,-0.00001268,0.0000077
 7,0.00004162,0.08359162,0.07542218,-0.11262328,-0.01156668,-0.01144746
 ,0.00996215,0.01755323,0.01659998,-0.01338087,-0.09175659,-0.08434216,
 0.11848189,-0.13466914,0.02218878,-0.03923457,0.00233531,-0.00091943,0
 .00286868,0.00278620,-0.00088255,0.00485428,-0.02399343,0.00741444,-0.
 02028714,-0.14787165,-0.01863492,0.02479150,-0.00328137,-0.00101756,0.
 00235066,-0.00023883,-0.00150903,-0.00055646,-0.02645027,-0.00242481,0
 .00692945,0.00074714,-0.00001051,0.00097343,0.00119215,-0.00073563,0.0
 0071043,-0.00174872,0.00029900,-0.00306238,0.00009686,-0.00000225,0.00
 025228,-0.00031174,-0.00005269,0.00068117,0.00011240,-0.00001326,0.000
 03093,-0.00005637,-0.00006745,-0.00002223,-0.00002617,0.00000895,-0.00
 002538,0.00010204,-0.00000244,0.00005429,-0.00004969,-0.00002042,-0.00
 001848,-0.08030586,-0.00972753,0.00289159,-0.00137724,0.00444771,-0.00
 181008,-0.00504115,-0.03029081,0.01065772,0.00287531,0.02230172,-0.006
 94245,0.00006808,0.00009264,0.00005295,0.00014992,-0.00002690,0.000060
 63,-0.00002151,-0.00001131,-0.00003986,-0.00005504,0.00008573,-0.00006
 880,0.48044925,0.02161211,-0.08739223,0.01736031,0.02464227,-0.0083033
 2,0.02154515,-0.01498841,0.00351481,-0.01294069,-0.00266841,-0.0006714
 3,-0.00233574,-0.01378292,-0.08240772,0.00962791,-0.03017277,-0.006036
 13,0.01583369,0.01775553,0.00143718,-0.00942465,0.00466216,0.00072964,
 -0.00383344,-0.00144037,0.00001253,-0.00061156,0.00093336,-0.00092632,
 -0.00000836,0.00058117,-0.00042441,0.00087322,0.00008854,-0.00015585,-
 0.00007032,0.00015717,0.00051299,-0.00009478,-0.00003125,-0.00002978,-
 0.00005008,0.00009827,-0.00004181,0.00008178,0.00001198,-0.00000825,-0
 .00002534,0.00002933,0.00004577,-0.00002159,-0.00000282,0.00000145,0.0
 0002310,-0.01344274,-0.15411343,0.03913586,-0.00267277,-0.01724770,0.0
 0748361,-0.00065683,-0.00426380,0.00062023,0.00035192,-0.00597258,0.00
 129518,-0.00005601,0.00005671,-0.00011252,-0.00002640,-0.00000096,-0.0
 0000164,0.00002218,-0.00002273,-0.00002010,-0.00002088,-0.00000761,0.0
 0003719,0.00748791,0.47544839,-0.04455556,0.02362602,-0.10434103,-0.00
 508912,0.00229954,-0.00620213,-0.01573946,0.00672112,-0.01515412,0.012
 65946,-0.00471597,0.00809042,0.02422819,0.01456999,-0.08525457,0.00853
 135,0.00204717,-0.00594380,0.02093590,0.00467520,-0.01276036,-0.014860
 91,-0.00509439,0.01480732,-0.00168753,-0.00115003,-0.00129605,0.000014
 42,0.00090530,0.00024083,-0.00321746,0.00053007,-0.00539513,0.00013280
 ,0.00024209,0.00004225,-0.00116894,-0.00045419,0.00147149,0.00003558,-
 0.00004733,-0.00011087,-0.00042485,0.00015641,-0.00049420,0.00002389,-
 0.00000048,0.00002219,-0.00024082,-0.00014364,0.00007614,0.00005126,-0
 .00003170,0.00004149,0.00453666,0.03458497,-0.09005077,-0.00361305,-0.
 02558155,0.00756022,0.00149750,0.01209979,-0.00602763,0.00404029,0.022
 71010,-0.00902254,-0.00002671,-0.00021847,-0.00004426,-0.00014675,0.00
 007648,-0.00008077,0.00001039,0.00000413,0.00001729,0.00007471,-0.0000
 0239,0.00004179,0.00158058,-0.06379553,0.45761155,0.00475997,-0.013910
 92,-0.02282702,0.00075032,0.00031347,0.00056707,-0.00297347,0.00148855
 ,-0.00491468,0.00328737,-0.00082631,0.00123126,-0.00178922,0.01941792,
 0.03045506,0.00106110,-0.00058039,-0.00057370,-0.00621522,-0.00119792,
 0.00393563,0.00015638,-0.00064253,-0.00032240,-0.00043645,0.00108584,0
 .00146539,-0.00029866,0.00053024,-0.00002039,0.00056965,0.00040704,0.0
 0094533,-0.00032207,-0.00008688,-0.00003028,0.00021371,0.00008999,0.00
 003734,-0.00000869,0.00001080,-0.00002530,-0.00004565,0.00006923,-0.00
 007815,0.00001440,0.00000359,0.00002739,-0.00009951,-0.00003144,-0.000
 01873,0.00003955,0.00000415,0.00000677,0.00199020,-0.00284682,-0.00338
 358,-0.00074405,-0.00090273,0.00000758,0.00033058,-0.00017765,-0.00059
 497,0.00011379,0.00052107,0.00028848,-0.00007718,-0.00011868,-0.000049
 12,-0.00011102,0.00004505,-0.00005435,0.00000713,0.00001522,0.00003708
 ,0.00004297,-0.00004229,0.00003039,-0.06175715,-0.00185353,0.01718341,
 0.09086679,-0.00432392,0.00105347,-0.00489101,0.00005928,-0.00105993,0
 .00084906,-0.00002063,-0.00025105,0.00068682,-0.00005576,0.00034229,0.
 00030569,0.00638419,-0.00204499,-0.00690362,-0.00039160,-0.00080359,0.
 00069559,0.00054786,0.00010945,0.00018639,-0.00087939,0.00052702,-0.00
 007746,0.00044353,0.00026645,-0.00015493,0.00010815,-0.00013127,-0.000
 04371,-0.00007051,0.00003476,-0.00003680,0.00002318,-0.00000460,0.0000
 7380,-0.00001631,0.00000301,0.00001604,0.00001640,0.00000268,0.0000115
 3,0.00000897,-0.00002047,0.00001183,-0.00000386,0.00000275,-0.00000200
 ,0.00001580,0.00000476,0.00000114,-0.00000609,0.00000311,-0.00000426,0
 .00043719,-0.04150557,-0.02446289,-0.00043333,-0.00430137,0.00058002,0
 .00063851,0.00098517,-0.00123576,0.00010797,0.00093597,-0.00158585,0.0
 0001357,0.00001698,-0.00000035,0.00001760,-0.00000482,0.00000878,-0.00
 000648,-0.00000249,0.00000054,-0.00000632,0.00000291,-0.00000968,0.006
 95849,-0.06710709,-0.03422525,-0.00433798,0.34261533,-0.00137517,-0.02
 600650,-0.04130740,0.00154286,0.00032329,0.00088101,-0.00637543,0.0033
 2629,-0.00514049,0.00073132,-0.00023245,0.00239784,0.00966257,-0.02230
 676,-0.03067182,-0.00136873,0.00033176,0.00061644,0.00617745,0.0020480
 9,-0.00199311,-0.00236855,0.00014536,-0.00036818,0.00108655,0.00042989
 ,0.00126043,0.00024004,-0.00016587,0.00004569,0.00027776,0.00033906,0.
 00049306,-0.00031121,-0.00006739,0.00027408,0.00003077,0.00003324,-0.0
 0006216,0.00007616,0.00003298,0.00010350,0.00005428,-0.00004397,0.0000
 5438,-0.00002979,0.00001588,0.00001239,0.00005461,0.00001534,0.0000021
 7,-0.00001393,0.00000069,-0.00002793,-0.00108936,-0.00307227,0.0090184
 1,0.00024174,0.00405810,-0.00078977,0.00011326,0.00069005,0.00062591,-
 0.00033537,0.00058819,0.00066548,0.00004144,0.00005357,0.00001217,0.00
 005065,-0.00001864,0.00002372,-0.00002776,0.00000992,0.00001227,-0.000
 02461,-0.00001089,-0.00002204,0.01557706,0.00755497,-0.16262522,-0.037
 78638,0.00691130,0.28576783,-0.00019750,-0.00117626,-0.00084361,-0.000
 21870,-0.00126191,0.00066823,0.00035992,-0.00067649,0.00063004,-0.0000
 3315,0.00010878,0.00001491,-0.00062468,0.00183300,0.00128298,-0.000267
 83,0.00154495,-0.00002804,0.00030230,0.00039929,-0.00035482,0.00006838
 ,0.00010314,-0.00024713,-0.00037597,0.00005024,0.00001041,0.00006698,-
 0.00013660,-0.00003694,0.00010522,-0.00001567,0.00000125,-0.00000238,0
 .00000688,0.00002078,0.00001797,-0.00000957,-0.00002028,0.00000018,0.0
 0000366,0.00001915,0.00000121,0.00000616,-0.00000381,-0.00000374,0.000
 00330,0.00000748,-0.00000817,-0.00000183,-0.00000188,0.00000597,0.0000
 0046,-0.00000423,0.00016451,0.00145153,0.00141949,0.00113396,0.0005021
 0,0.00015633,0.00040469,0.00053665,-0.00023364,0.00014632,-0.00062919,
 0.00042015,0.00000119,-0.00000118,0.00000269,-0.00000856,-0.00000040,-
 0.00000485,-0.00000249,0.00000502,0.00000546,0.00000272,-0.00000989,0.
 00000517,-0.00396308,0.00437332,-0.00792978,-0.04225681,0.00769144,0.0
 1814579,0.50654238,0.00056376,0.00197978,0.00072844,-0.00097152,0.0000
 8933,-0.00141554,0.00049709,0.00041037,0.00084676,-0.00043866,-0.00040
 842,-0.00002336,-0.00032340,0.00232825,-0.00040013,0.00150699,-0.00043
 112,-0.00082311,-0.00073799,0.00020062,0.00060887,-0.00003052,-0.00043
 528,-0.00043437,0.00055275,-0.00010426,0.00037371,-0.00020127,0.000367
 34,0.00010372,-0.00002054,0.00021353,0.00024110,-0.00002775,-0.0000415
 0,0.00001628,0.00002411,-0.00009653,-0.00018105,0.00001515,0.00000724,
 0.00006703,0.00005431,-0.00004896,0.00006875,-0.00001540,0.00001087,0.
 00000739,0.00004837,0.00001725,-0.00000563,-0.00001283,0.00003263,-0.0
 0003078,0.00252427,-0.00077030,-0.01325225,-0.00056022,-0.00276083,0.0
 0181678,-0.00016253,0.00074765,0.00016038,0.00007362,0.00110376,0.0003
 0297,0.00001564,0.00001747,0.00005947,0.00005191,-0.00000820,0.0000200
 1,-0.00002001,0.00001003,0.00000266,-0.00000697,0.00003170,-0.00004608
 ,-0.00756254,-0.04141110,0.00674066,-0.02900301,-0.19715498,0.03225220
 ,-0.11617478,0.30686028,-0.00119715,0.00103904,-0.00231996,-0.00028648
 ,-0.00302538,0.00081042,0.00034814,-0.00165394,0.00094363,-0.00013303,
 -0.00022840,0.00007831,0.00158899,0.00066387,-0.00005192,0.00011032,-0
 .00202760,-0.00044138,-0.00057694,-0.00069197,0.00061694,0.00005533,-0
 .00041972,-0.00032129,-0.00005398,0.00017300,0.00004074,0.00016038,-0.
 00009143,0.00008963,-0.00002868,-0.00004411,0.00011311,-0.00002861,0.0
 0002682,0.00004279,0.00000438,-0.00003422,-0.00011895,0.00000126,0.000
 02122,0.00004827,0.00002238,0.00000192,0.00003186,-0.00001420,0.000007
 79,0.00001179,0.00003035,0.00000220,0.00000249,-0.00000934,-0.00000804
 ,-0.00001702,0.00075390,-0.00374213,-0.00395389,-0.00017656,-0.0012474
 8,0.00078804,-0.00037004,-0.00014993,-0.00023859,0.00048017,-0.0004886
 9,0.00011161,0.00001979,0.00002631,0.00002304,0.00003245,-0.00000911,0
 .00000978,-0.00001235,0.00000670,0.00000951,-0.00001290,-0.00000602,-0
 .00001720,-0.00569682,-0.02611806,0.01570820,0.02277446,0.04950777,-0.
 05870545,-0.10847993,0.00211669,0.06544048,0.00032069,0.00035325,-0.00
 031786,0.00002000,-0.00011125,-0.00023756,-0.00023274,0.00001473,0.000
 10520,-0.00042045,-0.00033417,-0.00006989,-0.00023208,-0.00054125,-0.0
 0031417,0.00001568,0.00024066,-0.00015923,0.00019422,0.00013326,-0.000
 15238,0.00007180,-0.00004211,-0.00014687,0.00000021,-0.00011502,0.0001
 3849,-0.00004876,0.00008248,0.00004171,0.00002035,0.00001833,0.0000024
 7,0.00000277,-0.00000316,0.00000263,0.00000533,-0.00000230,-0.00000760
 ,0.00000246,-0.00000342,0.00000657,0.00000513,-0.00000476,0.00000659,-
 0.00000147,-0.00000081,-0.00000230,0.00000319,0.00000374,0.00000073,0.
 00000131,0.00000439,-0.00000140,0.00020704,-0.00043508,-0.00119226,-0.
 00007578,-0.00042978,0.00002655,-0.00001971,0.00005521,0.00004700,-0.0
 0003396,0.00015194,0.00000700,-0.00000265,-0.00000170,0.00000736,0.000
 00430,0.00000112,0.00000259,-0.00000105,0.00000076,-0.00000376,-0.0000
 0059,0.00000657,-0.00000403,0.00030375,-0.00099110,0.00316454,0.012931
 24,-0.01291994,-0.00299801,-0.46136086,0.15034198,0.09069469,0.4483206
 5,0.00027907,0.00064905,-0.00001687,-0.00016622,0.00010388,-0.00069975
 ,-0.00015267,0.00022596,0.00013067,-0.00036255,-0.00026631,-0.00012654
 ,-0.00039683,-0.00017344,0.00058445,0.00005995,0.00018428,-0.00024887,
 -0.00009187,0.00017734,0.00005807,-0.00000305,-0.00007757,-0.00001631,
 0.00010378,-0.00009274,0.00015726,-0.00007318,0.00010453,0.00001916,0.
 00007054,0.00004437,-0.00007559,-0.00002366,-0.00000747,0.00001684,0.0
 0001625,0.00001641,0.00005547,0.00001089,0.00000527,-0.00000005,-0.000
 02352,0.00002575,-0.00003372,0.00000238,-0.00000126,0.00000726,-0.0000
 3308,-0.00000952,-0.00000188,0.00001521,-0.00000430,0.00000576,0.00017
 652,-0.00073148,-0.00130690,-0.00037671,-0.00035327,0.00013293,-0.0001
 3062,-0.00013529,0.00003986,-0.00004768,0.00023209,-0.00012962,-0.0000
 1767,-0.00002865,-0.00001428,-0.00003178,0.00001192,-0.00001622,0.0000
 0245,0.00000447,0.00000781,0.00000919,-0.00001560,0.00001358,0.0026266
 8,-0.00521526,0.00347188,0.03255692,-0.03251387,-0.00723542,0.10147386
 ,-0.07075663,-0.01360713,-0.13547256,0.10859734,-0.00015802,-0.0009603
 5,0.00105946,0.00023035,0.00013628,-0.00137245,-0.00010248,0.00067217,
 0.00001356,-0.00027240,-0.00018477,-0.00006768,-0.00011015,0.00004195,
 -0.00074351,0.00006663,-0.00026218,0.00039054,0.00005974,-0.00021633,0
 .00001843,-0.00021131,0.00008248,0.00002863,0.00005274,-0.00001727,-0.
 00002885,0.00001652,-0.00000503,0.00000811,-0.00001820,0.00000907,-0.0
 0003194,-0.00000343,-0.00000531,-0.00001086,-0.00000932,0.00001629,0.0
 0006093,0.00000325,-0.00000749,-0.00002654,-0.00001263,0.00000140,-0.0
 0001549,0.00000819,-0.00000675,-0.00000759,-0.00001770,-0.00000150,-0.
 00000174,0.00000402,0.00000261,0.00001167,-0.00044582,0.00003197,-0.00
 013544,0.00006011,-0.00004682,0.00003053,0.00004089,-0.00004760,0.0000
 9713,-0.00003603,0.00008996,-0.00005488,-0.00000549,-0.00001126,-0.000
 01112,-0.00001814,0.00000406,-0.00000512,0.00000642,-0.00000423,-0.000
 00574,0.00000704,0.00000258,0.00000923,0.00244700,-0.00200779,-0.00092
 776,-0.00831362,0.01378728,-0.00055320,0.09537864,-0.02992155,-0.01873
 499,-0.08864679,0.01882814,0.02100667\\0.00000242,0.00000468,0.0000045
 2,-0.00000071,0.00000406,0.00000333,0.00000022,0.00000074,0.00000046,0
 .00000025,0.00000183,0.00000063,-0.00000356,0.00000061,0.00000703,-0.0
 0000090,0.00000201,-0.00000278,-0.00000010,0.00000471,-0.00000180,-0.0
 0000233,0.00000184,-0.00000073,0.00000282,-0.00000182,0.00000190,0.000
 00354,0.00000336,-0.00000019,0.00000414,-0.00001410,-0.00000855,-0.000
 00266,0.00000895,0.00000040,-0.00000479,-0.00001127,-0.00000465,0.0000
 0106,-0.00000055,0.00000975,0.00000024,-0.00000095,0.00000203,0.000004
 22,0.00000073,-0.00000063,-0.00000097,0.00000193,0.00000240,-0.0000006
 7,0.00000229,0.00000279,0.00000095,0.00000340,-0.00000074,-0.00000074,
 -0.00000212,-0.00000270,-0.00000052,-0.00000332,-0.00000060,0.00000110
 ,-0.00000361,-0.00000072,-0.00000198,0.00001192,-0.00000554,0.00000067
 ,-0.00000192,-0.00000306,0.00000090,-0.00000383,-0.00000327,-0.0000001
 4,-0.00000168,0.00000039,-0.00000387,-0.00000853,-0.00001088,0.0000047
 7,0.00000273,0.00000054,0.00000115,-0.00000815,0.00001077,-0.00000447,
 0.00000605,-0.00000009\\\@
 Job cpu time:  0 days  7 hours 32 minutes 57.6 seconds.
 File lengths (MBytes):  RWF=  71694 Int=      0 D2E=      0 Chk=     26 Scr=      1
 Normal termination of Gaussian 09 at Fri Feb 21 05:30:08 2014.
