 Entering Gaussian System, Link 0=g09
 Initial command:
 /usr/caen/gaussian-09revc/g09/l1.exe /scratch/avioli_flux/hetanjin/scratch/Gau-64540.inp -scrdir=/scratch/avioli_flux/hetanjin/scratch/
 Entering Link 1 = /usr/caen/gaussian-09revc/g09/l1.exe PID=     64541.
  
 Copyright (c) 1988,1990,1992,1993,1995,1998,2003,2009,2011,
            Gaussian, Inc.  All Rights Reserved.
  
 This is part of the Gaussian(R) 09 program.  It is based on
 the Gaussian(R) 03 system (copyright 2003, Gaussian, Inc.),
 the Gaussian(R) 98 system (copyright 1998, Gaussian, Inc.),
 the Gaussian(R) 94 system (copyright 1995, Gaussian, Inc.),
 the Gaussian 92(TM) system (copyright 1992, Gaussian, Inc.),
 the Gaussian 90(TM) system (copyright 1990, Gaussian, Inc.),
 the Gaussian 88(TM) system (copyright 1988, Gaussian, Inc.),
 the Gaussian 86(TM) system (copyright 1986, Carnegie Mellon
 University), and the Gaussian 82(TM) system (copyright 1983,
 Carnegie Mellon University). Gaussian is a federally registered
 trademark of Gaussian, Inc.
  
 This software contains proprietary and confidential information,
 including trade secrets, belonging to Gaussian, Inc.
  
 This software is provided under written license and may be
 used, copied, transmitted, or stored only in accord with that
 written license.
  
 The following legend is applicable only to US Government
 contracts under FAR:
  
                    RESTRICTED RIGHTS LEGEND
  
 Use, reproduction and disclosure by the US Government is
 subject to restrictions as set forth in subparagraphs (a)
 and (c) of the Commercial Computer Software - Restricted
 Rights clause in FAR 52.227-19.
  
 Gaussian, Inc.
 340 Quinnipiac St., Bldg. 40, Wallingford CT 06492
  
  
 ---------------------------------------------------------------
 Warning -- This program may not be used in any manner that
 competes with the business of Gaussian, Inc. or will provide
 assistance to any competitor of Gaussian, Inc.  The licensee
 of this program is prohibited from giving any competitor of
 Gaussian, Inc. access to this program.  By using this program,
 the user acknowledges that Gaussian, Inc. is engaged in the
 business of creating and licensing software in the field of
 computational chemistry and represents and warrants to the
 licensee that it is not a competitor of Gaussian, Inc. and that
 it will not use this program in any manner prohibited above.
 ---------------------------------------------------------------
  

 Cite this work as:
 Gaussian 09, Revision C.01,
 M. J. Frisch, G. W. Trucks, H. B. Schlegel, G. E. Scuseria, 
 M. A. Robb, J. R. Cheeseman, G. Scalmani, V. Barone, B. Mennucci, 
 G. A. Petersson, H. Nakatsuji, M. Caricato, X. Li, H. P. Hratchian, 
 A. F. Izmaylov, J. Bloino, G. Zheng, J. L. Sonnenberg, M. Hada, 
 M. Ehara, K. Toyota, R. Fukuda, J. Hasegawa, M. Ishida, T. Nakajima, 
 Y. Honda, O. Kitao, H. Nakai, T. Vreven, J. A. Montgomery, Jr., 
 J. E. Peralta, F. Ogliaro, M. Bearpark, J. J. Heyd, E. Brothers, 
 K. N. Kudin, V. N. Staroverov, T. Keith, R. Kobayashi, J. Normand, 
 K. Raghavachari, A. Rendell, J. C. Burant, S. S. Iyengar, J. Tomasi, 
 M. Cossi, N. Rega, J. M. Millam, M. Klene, J. E. Knox, J. B. Cross, 
 V. Bakken, C. Adamo, J. Jaramillo, R. Gomperts, R. E. Stratmann, 
 O. Yazyev, A. J. Austin, R. Cammi, C. Pomelli, J. W. Ochterski, 
 R. L. Martin, K. Morokuma, V. G. Zakrzewski, G. A. Voth, 
 P. Salvador, J. J. Dannenberg, S. Dapprich, A. D. Daniels, 
 O. Farkas, J. B. Foresman, J. V. Ortiz, J. Cioslowski, 
 and D. J. Fox, Gaussian, Inc., Wallingford CT, 2010.
 
 ******************************************
 Gaussian 09:  EM64L-G09RevC.01 23-Sep-2011
                11-Mar-2014 
 ******************************************
 %mem=30GB
 %nprocshared=8
 Will use up to    8 processors via shared memory.
 %chk=C9H18O_12_26.chk
 --------------------------
 #p cbs-qb3 opt=calcfc freq
 --------------------------
 1/10=4,14=-1,18=20,19=15,26=3,38=1/1,3;
 2/9=110,12=2,17=6,18=5,40=1/2;
 3/5=4,6=6,7=700,11=2,16=1,25=1,30=1,71=2,74=-5/1,2,3;
 4//1;
 5/5=2,38=5/2;
 8/6=4,10=90,11=11/1;
 11/6=1,8=1,9=11,15=111,16=1/1,2,10;
 10/6=1,7=6,13=1/2;
 6/7=2,8=2,9=2,10=2,28=1/1;
 7/10=1,18=20,25=1/1,2,3,16;
 1/10=4,14=-1,18=20,19=15/3(2);
 2/9=110/2;
 99//99;
 2/9=110/2;
 3/5=4,6=6,7=700,11=2,16=1,25=1,30=1,71=1,74=-5/1,2,3;
 4/5=5,16=3/1;
 5/5=2,38=5/2;
 7//1,2,3,16;
 1/14=-1,18=20,19=15/3(-5);
 2/9=110/2;
 6/7=2,8=2,9=2,10=2,19=2,28=1/1;
 99/9=1/99;
 Leave Link    1 at Tue Mar 11 10:41:22 2014, MaxMem= 4026531840 cpu:       1.5
 (Enter /usr/caen/gaussian-09revc/g09/l101.exe)
 -----------------------------------------
 C9H18O_12_26 using cbs-qb3 to cal. energy
 -----------------------------------------
 Charge =  0 Multiplicity = 1
 Symbolic Z-Matrix:
 C                    -3.57395  -1.00937  -0.43437 
 H                    -3.51456  -1.94605   0.12826 
 H                    -3.57502  -1.25544  -1.50067 
 H                    -4.51924  -0.52268  -0.18784 
 C                    -1.0361   -0.74263  -0.32084 
 H                    -0.99939  -1.65669   0.28657 
 H                    -0.9889   -1.07434  -1.36578 
 C                     0.18538   0.12361   0.00274 
 H                     0.06926   0.54265   1.00794 
 H                     0.22681   0.96923  -0.6911 
 C                     1.49617  -0.67006  -0.0719 
 H                     1.62299  -1.07894  -1.08426 
 H                     1.41614  -1.53679   0.59613 
 C                     2.76404   0.11874   0.30687 
 H                     2.5947    0.56098   1.2983 
 C                     3.97083  -0.82421   0.41555 
 H                     4.18162  -1.30162  -0.54802 
 H                     4.87143  -0.28307   0.7206 
 H                     3.79289  -1.61755   1.14766 
 C                    -2.60261   1.34485  -0.07708 
 H                    -3.57898   1.75049  -0.33439 
 H                    -1.76704   2.02003  -0.23777 
 C                     3.06269   1.26142  -0.6748 
 H                     3.97164   1.79732  -0.38577 
 H                     3.216     0.87209  -1.68789 
 H                     2.25133   1.99216  -0.71638 
 C                    -2.40285  -0.11339  -0.09089 
 O                    -2.55666   0.6043    1.15284 
 
 NAtoms=     28 NQM=        0 NQMF=       0 NMMI=     28 NMMIF=      0
                NMic=       0 NMicF=      0.
                    Isotopes and Nuclear Properties:
 (Nuclear quadrupole moments (NQMom) in fm**2, nuclear magnetic moments (NMagM)
  in nuclear magnetons)

  Atom         1           2           3           4           5           6           7           8           9          10
 IAtWgt=          12           1           1           1          12           1           1          12           1           1
 AtmWgt=  12.0000000   1.0078250   1.0078250   1.0078250  12.0000000   1.0078250   1.0078250  12.0000000   1.0078250   1.0078250
 NucSpn=           0           1           1           1           0           1           1           0           1           1
 AtZEff=   0.0000000   0.0000000   0.0000000   0.0000000   0.0000000   0.0000000   0.0000000   0.0000000   0.0000000   0.0000000
 NQMom=    0.0000000   0.0000000   0.0000000   0.0000000   0.0000000   0.0000000   0.0000000   0.0000000   0.0000000   0.0000000
 NMagM=    0.0000000   2.7928460   2.7928460   2.7928460   0.0000000   2.7928460   2.7928460   0.0000000   2.7928460   2.7928460

  Atom        11          12          13          14          15          16          17          18          19          20
 IAtWgt=          12           1           1          12           1          12           1           1           1          12
 AtmWgt=  12.0000000   1.0078250   1.0078250  12.0000000   1.0078250  12.0000000   1.0078250   1.0078250   1.0078250  12.0000000
 NucSpn=           0           1           1           0           1           0           1           1           1           0
 AtZEff=   0.0000000   0.0000000   0.0000000   0.0000000   0.0000000   0.0000000   0.0000000   0.0000000   0.0000000   0.0000000
 NQMom=    0.0000000   0.0000000   0.0000000   0.0000000   0.0000000   0.0000000   0.0000000   0.0000000   0.0000000   0.0000000
 NMagM=    0.0000000   2.7928460   2.7928460   0.0000000   2.7928460   0.0000000   2.7928460   2.7928460   2.7928460   0.0000000

  Atom        21          22          23          24          25          26          27          28
 IAtWgt=           1           1          12           1           1           1          12          16
 AtmWgt=   1.0078250   1.0078250  12.0000000   1.0078250   1.0078250   1.0078250  12.0000000  15.9949146
 NucSpn=           1           1           0           1           1           1           0           0
 AtZEff=   0.0000000   0.0000000   0.0000000   0.0000000   0.0000000   0.0000000   0.0000000   0.0000000
 NQMom=    0.0000000   0.0000000   0.0000000   0.0000000   0.0000000   0.0000000   0.0000000   0.0000000
 NMagM=    2.7928460   2.7928460   0.0000000   2.7928460   2.7928460   2.7928460   0.0000000   0.0000000
 Leave Link  101 at Tue Mar 11 10:41:22 2014, MaxMem= 4026531840 cpu:       2.8
 (Enter /usr/caen/gaussian-09revc/g09/l103.exe)

 GradGradGradGradGradGradGradGradGradGradGradGradGradGradGradGradGradGrad
 Berny optimization.
 Initialization pass.
                           ----------------------------
                           !    Initial Parameters    !
                           ! (Angstroms and Degrees)  !
 --------------------------                            --------------------------
 ! Name  Definition              Value          Derivative Info.                !
 --------------------------------------------------------------------------------
 ! R1    R(1,2)                  1.0943         calculate D2E/DX2 analytically  !
 ! R2    R(1,3)                  1.0943         calculate D2E/DX2 analytically  !
 ! R3    R(1,4)                  1.0914         calculate D2E/DX2 analytically  !
 ! R4    R(1,27)                 1.514          calculate D2E/DX2 analytically  !
 ! R5    R(5,6)                  1.0981         calculate D2E/DX2 analytically  !
 ! R6    R(5,7)                  1.0973         calculate D2E/DX2 analytically  !
 ! R7    R(5,8)                  1.532          calculate D2E/DX2 analytically  !
 ! R8    R(5,27)                 1.5221         calculate D2E/DX2 analytically  !
 ! R9    R(8,9)                  1.0952         calculate D2E/DX2 analytically  !
 ! R10   R(8,10)                 1.0946         calculate D2E/DX2 analytically  !
 ! R11   R(8,11)                 1.5342         calculate D2E/DX2 analytically  !
 ! R12   R(11,12)                1.0992         calculate D2E/DX2 analytically  !
 ! R13   R(11,13)                1.0972         calculate D2E/DX2 analytically  !
 ! R14   R(11,14)                1.5405         calculate D2E/DX2 analytically  !
 ! R15   R(14,15)                1.0987         calculate D2E/DX2 analytically  !
 ! R16   R(14,16)                1.5354         calculate D2E/DX2 analytically  !
 ! R17   R(14,23)                1.5358         calculate D2E/DX2 analytically  !
 ! R18   R(16,17)                1.0958         calculate D2E/DX2 analytically  !
 ! R19   R(16,18)                1.0941         calculate D2E/DX2 analytically  !
 ! R20   R(16,19)                1.0941         calculate D2E/DX2 analytically  !
 ! R21   R(20,21)                1.0881         calculate D2E/DX2 analytically  !
 ! R22   R(20,22)                1.0862         calculate D2E/DX2 analytically  !
 ! R23   R(20,27)                1.4719         calculate D2E/DX2 analytically  !
 ! R24   R(20,28)                1.4364         calculate D2E/DX2 analytically  !
 ! R25   R(23,24)                1.094          calculate D2E/DX2 analytically  !
 ! R26   R(23,25)                1.0961         calculate D2E/DX2 analytically  !
 ! R27   R(23,26)                1.0927         calculate D2E/DX2 analytically  !
 ! R28   R(27,28)                1.4442         calculate D2E/DX2 analytically  !
 ! A1    A(2,1,3)              107.9728         calculate D2E/DX2 analytically  !
 ! A2    A(2,1,4)              108.2145         calculate D2E/DX2 analytically  !
 ! A3    A(2,1,27)             110.3611         calculate D2E/DX2 analytically  !
 ! A4    A(3,1,4)              108.6339         calculate D2E/DX2 analytically  !
 ! A5    A(3,1,27)             110.7861         calculate D2E/DX2 analytically  !
 ! A6    A(4,1,27)             110.7809         calculate D2E/DX2 analytically  !
 ! A7    A(6,5,7)              105.8832         calculate D2E/DX2 analytically  !
 ! A8    A(6,5,8)              109.0971         calculate D2E/DX2 analytically  !
 ! A9    A(6,5,27)             106.8922         calculate D2E/DX2 analytically  !
 ! A10   A(7,5,8)              109.7398         calculate D2E/DX2 analytically  !
 ! A11   A(7,5,27)             107.9055         calculate D2E/DX2 analytically  !
 ! A12   A(8,5,27)             116.7608         calculate D2E/DX2 analytically  !
 ! A13   A(5,8,9)              109.0054         calculate D2E/DX2 analytically  !
 ! A14   A(5,8,10)             109.4565         calculate D2E/DX2 analytically  !
 ! A15   A(5,8,11)             112.2366         calculate D2E/DX2 analytically  !
 ! A16   A(9,8,10)             106.8703         calculate D2E/DX2 analytically  !
 ! A17   A(9,8,11)             109.4617         calculate D2E/DX2 analytically  !
 ! A18   A(10,8,11)            109.6618         calculate D2E/DX2 analytically  !
 ! A19   A(8,11,12)            109.6237         calculate D2E/DX2 analytically  !
 ! A20   A(8,11,13)            108.4642         calculate D2E/DX2 analytically  !
 ! A21   A(8,11,14)            115.2352         calculate D2E/DX2 analytically  !
 ! A22   A(12,11,13)           105.9813         calculate D2E/DX2 analytically  !
 ! A23   A(12,11,14)           108.7823         calculate D2E/DX2 analytically  !
 ! A24   A(13,11,14)           108.3493         calculate D2E/DX2 analytically  !
 ! A25   A(11,14,15)           107.5241         calculate D2E/DX2 analytically  !
 ! A26   A(11,14,16)           110.4765         calculate D2E/DX2 analytically  !
 ! A27   A(11,14,23)           112.573          calculate D2E/DX2 analytically  !
 ! A28   A(15,14,16)           107.7265         calculate D2E/DX2 analytically  !
 ! A29   A(15,14,23)           107.8957         calculate D2E/DX2 analytically  !
 ! A30   A(16,14,23)           110.4483         calculate D2E/DX2 analytically  !
 ! A31   A(14,16,17)           110.8863         calculate D2E/DX2 analytically  !
 ! A32   A(14,16,18)           111.2827         calculate D2E/DX2 analytically  !
 ! A33   A(14,16,19)           111.3994         calculate D2E/DX2 analytically  !
 ! A34   A(17,16,18)           107.5965         calculate D2E/DX2 analytically  !
 ! A35   A(17,16,19)           107.6845         calculate D2E/DX2 analytically  !
 ! A36   A(18,16,19)           107.8166         calculate D2E/DX2 analytically  !
 ! A37   A(21,20,22)           115.0577         calculate D2E/DX2 analytically  !
 ! A38   A(21,20,27)           119.2666         calculate D2E/DX2 analytically  !
 ! A39   A(21,20,28)           115.0476         calculate D2E/DX2 analytically  !
 ! A40   A(22,20,27)           120.6657         calculate D2E/DX2 analytically  !
 ! A41   A(22,20,28)           114.9943         calculate D2E/DX2 analytically  !
 ! A42   A(14,23,24)           110.9255         calculate D2E/DX2 analytically  !
 ! A43   A(14,23,25)           110.7148         calculate D2E/DX2 analytically  !
 ! A44   A(14,23,26)           112.1791         calculate D2E/DX2 analytically  !
 ! A45   A(24,23,25)           107.5756         calculate D2E/DX2 analytically  !
 ! A46   A(24,23,26)           107.4205         calculate D2E/DX2 analytically  !
 ! A47   A(25,23,26)           107.8314         calculate D2E/DX2 analytically  !
 ! A48   A(1,27,5)             114.5592         calculate D2E/DX2 analytically  !
 ! A49   A(1,27,20)            118.9107         calculate D2E/DX2 analytically  !
 ! A50   A(1,27,28)            114.0225         calculate D2E/DX2 analytically  !
 ! A51   A(5,27,20)            122.1974         calculate D2E/DX2 analytically  !
 ! A52   A(5,27,28)            115.5426         calculate D2E/DX2 analytically  !
 ! D1    D(2,1,27,5)            56.5885         calculate D2E/DX2 analytically  !
 ! D2    D(2,1,27,20)         -146.2482         calculate D2E/DX2 analytically  !
 ! D3    D(2,1,27,28)          -79.6892         calculate D2E/DX2 analytically  !
 ! D4    D(3,1,27,5)           -62.944          calculate D2E/DX2 analytically  !
 ! D5    D(3,1,27,20)           94.2193         calculate D2E/DX2 analytically  !
 ! D6    D(3,1,27,28)          160.7783         calculate D2E/DX2 analytically  !
 ! D7    D(4,1,27,5)           176.4193         calculate D2E/DX2 analytically  !
 ! D8    D(4,1,27,20)          -26.4173         calculate D2E/DX2 analytically  !
 ! D9    D(4,1,27,28)           40.1416         calculate D2E/DX2 analytically  !
 ! D10   D(6,5,8,9)            -70.9102         calculate D2E/DX2 analytically  !
 ! D11   D(6,5,8,10)           172.5254         calculate D2E/DX2 analytically  !
 ! D12   D(6,5,8,11)            50.5237         calculate D2E/DX2 analytically  !
 ! D13   D(7,5,8,9)            173.4993         calculate D2E/DX2 analytically  !
 ! D14   D(7,5,8,10)            56.935          calculate D2E/DX2 analytically  !
 ! D15   D(7,5,8,11)           -65.0667         calculate D2E/DX2 analytically  !
 ! D16   D(27,5,8,9)            50.3532         calculate D2E/DX2 analytically  !
 ! D17   D(27,5,8,10)          -66.2112         calculate D2E/DX2 analytically  !
 ! D18   D(27,5,8,11)          171.7871         calculate D2E/DX2 analytically  !
 ! D19   D(6,5,27,1)           -57.9339         calculate D2E/DX2 analytically  !
 ! D20   D(6,5,27,20)          145.7366         calculate D2E/DX2 analytically  !
 ! D21   D(6,5,27,28)           77.6645         calculate D2E/DX2 analytically  !
 ! D22   D(7,5,27,1)            55.5626         calculate D2E/DX2 analytically  !
 ! D23   D(7,5,27,20)         -100.7668         calculate D2E/DX2 analytically  !
 ! D24   D(7,5,27,28)         -168.839          calculate D2E/DX2 analytically  !
 ! D25   D(8,5,27,1)           179.6493         calculate D2E/DX2 analytically  !
 ! D26   D(8,5,27,20)           23.3199         calculate D2E/DX2 analytically  !
 ! D27   D(8,5,27,28)          -44.7523         calculate D2E/DX2 analytically  !
 ! D28   D(5,8,11,12)           59.6934         calculate D2E/DX2 analytically  !
 ! D29   D(5,8,11,13)          -55.5976         calculate D2E/DX2 analytically  !
 ! D30   D(5,8,11,14)         -177.2177         calculate D2E/DX2 analytically  !
 ! D31   D(9,8,11,12)         -179.1345         calculate D2E/DX2 analytically  !
 ! D32   D(9,8,11,13)           65.5745         calculate D2E/DX2 analytically  !
 ! D33   D(9,8,11,14)          -56.0456         calculate D2E/DX2 analytically  !
 ! D34   D(10,8,11,12)         -62.1912         calculate D2E/DX2 analytically  !
 ! D35   D(10,8,11,13)        -177.4823         calculate D2E/DX2 analytically  !
 ! D36   D(10,8,11,14)          60.8976         calculate D2E/DX2 analytically  !
 ! D37   D(8,11,14,15)          53.5737         calculate D2E/DX2 analytically  !
 ! D38   D(8,11,14,16)         170.8794         calculate D2E/DX2 analytically  !
 ! D39   D(8,11,14,23)         -65.1272         calculate D2E/DX2 analytically  !
 ! D40   D(12,11,14,15)        177.1085         calculate D2E/DX2 analytically  !
 ! D41   D(12,11,14,16)        -65.5858         calculate D2E/DX2 analytically  !
 ! D42   D(12,11,14,23)         58.4075         calculate D2E/DX2 analytically  !
 ! D43   D(13,11,14,15)        -68.1084         calculate D2E/DX2 analytically  !
 ! D44   D(13,11,14,16)         49.1973         calculate D2E/DX2 analytically  !
 ! D45   D(13,11,14,23)        173.1906         calculate D2E/DX2 analytically  !
 ! D46   D(11,14,16,17)         62.3871         calculate D2E/DX2 analytically  !
 ! D47   D(11,14,16,18)       -177.8839         calculate D2E/DX2 analytically  !
 ! D48   D(11,14,16,19)        -57.5305         calculate D2E/DX2 analytically  !
 ! D49   D(15,14,16,17)        179.5679         calculate D2E/DX2 analytically  !
 ! D50   D(15,14,16,18)        -60.7031         calculate D2E/DX2 analytically  !
 ! D51   D(15,14,16,19)         59.6503         calculate D2E/DX2 analytically  !
 ! D52   D(23,14,16,17)        -62.8202         calculate D2E/DX2 analytically  !
 ! D53   D(23,14,16,18)         56.9089         calculate D2E/DX2 analytically  !
 ! D54   D(23,14,16,19)        177.2622         calculate D2E/DX2 analytically  !
 ! D55   D(11,14,23,24)       -179.5129         calculate D2E/DX2 analytically  !
 ! D56   D(11,14,23,25)        -60.1573         calculate D2E/DX2 analytically  !
 ! D57   D(11,14,23,26)         60.3538         calculate D2E/DX2 analytically  !
 ! D58   D(15,14,23,24)         62.0039         calculate D2E/DX2 analytically  !
 ! D59   D(15,14,23,25)       -178.6405         calculate D2E/DX2 analytically  !
 ! D60   D(15,14,23,26)        -58.1294         calculate D2E/DX2 analytically  !
 ! D61   D(16,14,23,24)        -55.5039         calculate D2E/DX2 analytically  !
 ! D62   D(16,14,23,25)         63.8517         calculate D2E/DX2 analytically  !
 ! D63   D(16,14,23,26)       -175.6372         calculate D2E/DX2 analytically  !
 ! D64   D(21,20,27,1)          -1.3278         calculate D2E/DX2 analytically  !
 ! D65   D(21,20,27,5)         154.0178         calculate D2E/DX2 analytically  !
 ! D66   D(22,20,27,1)        -155.0588         calculate D2E/DX2 analytically  !
 ! D67   D(22,20,27,5)           0.2868         calculate D2E/DX2 analytically  !
 --------------------------------------------------------------------------------
 Trust Radius=3.00D-01 FncErr=1.00D-07 GrdErr=1.00D-06
 Number of steps in this run=    157 maximum allowed number of steps=    168.
 GradGradGradGradGradGradGradGradGradGradGradGradGradGradGradGradGradGrad

 Leave Link  103 at Tue Mar 11 10:41:22 2014, MaxMem= 4026531840 cpu:       0.1
 (Enter /usr/caen/gaussian-09revc/g09/l202.exe)
                          Input orientation:                          
 ---------------------------------------------------------------------
 Center     Atomic      Atomic             Coordinates (Angstroms)
 Number     Number       Type             X           Y           Z
 ---------------------------------------------------------------------
      1          6           0       -3.573952   -1.009371   -0.434371
      2          1           0       -3.514556   -1.946054    0.128258
      3          1           0       -3.575020   -1.255437   -1.500666
      4          1           0       -4.519238   -0.522677   -0.187839
      5          6           0       -1.036104   -0.742627   -0.320841
      6          1           0       -0.999392   -1.656685    0.286571
      7          1           0       -0.988901   -1.074335   -1.365780
      8          6           0        0.185379    0.123608    0.002744
      9          1           0        0.069262    0.542646    1.007941
     10          1           0        0.226807    0.969225   -0.691099
     11          6           0        1.496169   -0.670057   -0.071902
     12          1           0        1.622992   -1.078937   -1.084262
     13          1           0        1.416137   -1.536794    0.596128
     14          6           0        2.764044    0.118744    0.306873
     15          1           0        2.594696    0.560977    1.298303
     16          6           0        3.970833   -0.824214    0.415554
     17          1           0        4.181623   -1.301616   -0.548021
     18          1           0        4.871427   -0.283071    0.720597
     19          1           0        3.792888   -1.617552    1.147655
     20          6           0       -2.602610    1.344850   -0.077081
     21          1           0       -3.578978    1.750491   -0.334388
     22          1           0       -1.767044    2.020032   -0.237766
     23          6           0        3.062693    1.261419   -0.674797
     24          1           0        3.971638    1.797315   -0.385769
     25          1           0        3.216000    0.872089   -1.687889
     26          1           0        2.251329    1.992163   -0.716377
     27          6           0       -2.402850   -0.113385   -0.090893
     28          8           0       -2.556660    0.604303    1.152835
 ---------------------------------------------------------------------
                    Distance matrix (angstroms):
                    1          2          3          4          5
     1  C    0.000000
     2  H    1.094283   0.000000
     3  H    1.094319   1.770311   0.000000
     4  H    1.091428   1.770679   1.775387   0.000000
     5  C    2.554352   2.791532   2.846235   3.492605   0.000000
     6  H    2.750842   2.536700   3.160550   3.728318   1.098089
     7  H    2.748496   3.061205   2.595959   3.762333   1.097340
     8  C    3.950605   4.241317   4.278155   4.752623   1.532022
     9  H    4.214502   4.450980   4.775668   4.859952   2.153932
    10  H    4.292612   4.813314   4.478661   5.000399   2.159276
    11  C    5.094374   5.174514   5.301037   6.018329   2.545514
    12  H    5.237884   5.349439   5.217650   6.232174   2.786881
    13  H    5.122606   4.969721   5.421011   6.072208   2.735876
    14  C    6.480145   6.611816   6.733447   7.328189   3.946785
    15  H    6.596997   6.706502   7.014199   7.347856   4.183745
    16  C    7.594764   7.574438   7.797291   8.516825   5.061458
    17  H    7.761911   7.752666   7.815061   8.743081   5.252500
    18  H    8.554875   8.569778   8.787603   9.437545   6.016204
    19  H    7.559300   7.385514   7.837780   8.489625   5.122610
    20  C    2.571676   3.421090   3.119883   2.678318   2.621244
    21  H    2.761677   3.725941   3.224255   2.464317   3.561184
    22  H    3.532825   4.349438   3.948720   3.747324   2.858926
    23  C    7.018500   7.361588   7.146738   7.804217   4.576202
    24  H    8.050825   8.385710   8.216711   8.804346   5.615425
    25  H    7.156441   7.519355   7.118945   8.001839   4.749370
    26  H    6.559164   7.033377   6.716276   7.241847   4.294501
    27  C    1.514017   2.154668   2.160029   2.157780   1.522109
    28  O    2.481542   2.910609   3.396580   2.630438   2.509588
                    6          7          8          9         10
     6  H    0.000000
     7  H    1.752000   0.000000
     8  C    2.157240   2.164915   0.000000
     9  H    2.549402   3.060864   1.095216   0.000000
    10  H    3.058563   2.471695   1.094624   1.758843   0.000000
    11  C    2.707353   2.830748   1.534160   2.161660   2.163777
    12  H    3.014942   2.627025   2.166663   3.069352   2.509756
    13  H    2.438233   3.138018   2.150303   2.511520   3.058037
    14  C    4.161251   4.278528   2.596542   2.816565   2.856018
    15  H    4.342706   4.755392   2.770302   2.542137   3.119501
    16  C    5.041109   5.275858   3.924085   4.176300   4.296375
    17  H    5.259804   5.239724   4.278384   4.768001   4.562648
    18  H    6.044974   6.270766   4.758124   4.881103   5.013345
    19  H    4.869183   5.429360   4.166123   4.307130   4.773821
    20  C    3.422245   3.180764   3.044780   2.993276   2.919540
    21  H    4.318414   3.968868   4.114704   4.070675   3.901489
    22  H    3.792422   3.384232   2.732439   2.665797   2.298945
    23  C    5.093142   4.727433   3.167430   3.508400   2.850946
    24  H    6.090427   5.814959   4.157883   4.329568   3.847430
    25  H    5.297426   4.644730   3.550088   4.156680   3.152507
    26  H    4.988706   4.508240   2.876940   3.136206   2.268420
    27  C    2.119893   2.132607   2.600743   2.783730   2.906439
    28  O    2.878813   3.408682   3.012068   2.630639   3.358712
                   11         12         13         14         15
    11  C    0.000000
    12  H    1.099154   0.000000
    13  H    1.097225   1.753891   0.000000
    14  C    1.540514   2.161411   2.154374   0.000000
    15  H    2.144684   3.051253   2.506530   1.098718   0.000000
    16  C    2.526923   2.797622   2.658355   1.535357   2.142838
    17  H    2.799503   2.623687   3.002049   2.181237   3.065371
    18  H    3.488578   3.800427   3.677818   2.184877   2.495930
    19  H    2.767668   3.159115   2.441239   2.186357   2.490853
    20  C    4.567260   4.974421   4.990732   5.518309   5.433059
    21  H    5.628949   5.968959   6.051717   6.580862   6.495758
    22  H    4.232334   4.670386   4.845517   4.943914   4.849033
    23  C    2.558922   2.778069   3.486602   1.535765   2.145405
    24  H    3.509186   3.778473   4.314046   2.180742   2.502119
    25  H    2.819122   2.590085   3.776104   2.179649   3.065967
    26  H    2.841308   3.156232   3.856650   2.195362   2.495021
    27  C    3.938603   4.257520   4.133129   5.187378   5.230688
    28  O    4.421470   5.030645   4.547234   5.409372   5.153592
                   16         17         18         19         20
    16  C    0.000000
    17  H    1.095820   0.000000
    18  H    1.094055   1.767104   0.000000
    19  H    1.094085   1.768120   1.768181   0.000000
    20  C    6.939574   7.297355   7.690751   7.153894   0.000000
    21  H    8.011939   8.341938   8.755439   8.239210   1.088139
    22  H    6.437375   6.820282   7.091688   6.787065   1.086214
    23  C    2.522588   2.799504   2.757552   3.484679   5.697358
    24  H    2.741265   3.110272   2.522235   3.747620   6.597026
    25  H    2.805653   2.637560   3.142553   3.817253   6.055942
    26  H    3.488544   3.821434   3.755862   4.345234   4.938465
    27  C    6.433164   6.706426   7.321367   6.494897   1.471919
    28  O    6.722530   7.206240   7.493380   6.727067   1.436389
                   21         22         23         24         25
    21  H    0.000000
    22  H    1.834419   0.000000
    23  C    6.668348   4.908447   0.000000
    24  H    7.550936   5.744909   1.094030   0.000000
    25  H    6.983930   5.315201   1.096100   1.767073   0.000000
    26  H    5.847803   4.046871   1.092716   1.762592   1.768896
    27  C    2.217341   2.230984   5.665968   6.661218   5.923937
    28  O    2.137923   2.135779   5.945517   6.812434   6.439334
                   26         27         28
    26  H    0.000000
    27  C    5.146450   0.000000
    28  O    5.341991   1.444158   0.000000
 Stoichiometry    C9H18O
 Framework group  C1[X(C9H18O)]
 Deg. of freedom    78
 Full point group                 C1      NOp   1
 Largest Abelian subgroup         C1      NOp   1
 Largest concise Abelian subgroup C1      NOp   1
                         Standard orientation:                         
 ---------------------------------------------------------------------
 Center     Atomic      Atomic             Coordinates (Angstroms)
 Number     Number       Type             X           Y           Z
 ---------------------------------------------------------------------
      1          6           0       -3.573952   -1.009371   -0.434371
      2          1           0       -3.514556   -1.946054    0.128258
      3          1           0       -3.575020   -1.255437   -1.500666
      4          1           0       -4.519238   -0.522677   -0.187839
      5          6           0       -1.036104   -0.742627   -0.320841
      6          1           0       -0.999392   -1.656685    0.286571
      7          1           0       -0.988901   -1.074335   -1.365780
      8          6           0        0.185379    0.123608    0.002744
      9          1           0        0.069262    0.542646    1.007941
     10          1           0        0.226807    0.969225   -0.691099
     11          6           0        1.496169   -0.670057   -0.071902
     12          1           0        1.622992   -1.078937   -1.084262
     13          1           0        1.416137   -1.536794    0.596128
     14          6           0        2.764044    0.118744    0.306873
     15          1           0        2.594696    0.560977    1.298303
     16          6           0        3.970833   -0.824214    0.415554
     17          1           0        4.181623   -1.301616   -0.548021
     18          1           0        4.871427   -0.283071    0.720597
     19          1           0        3.792888   -1.617552    1.147655
     20          6           0       -2.602610    1.344850   -0.077081
     21          1           0       -3.578978    1.750491   -0.334388
     22          1           0       -1.767044    2.020032   -0.237766
     23          6           0        3.062693    1.261419   -0.674797
     24          1           0        3.971638    1.797315   -0.385769
     25          1           0        3.216000    0.872089   -1.687889
     26          1           0        2.251329    1.992163   -0.716377
     27          6           0       -2.402850   -0.113385   -0.090893
     28          8           0       -2.556660    0.604303    1.152835
 ---------------------------------------------------------------------
 Rotational constants (GHZ):      3.1148953      0.4800461      0.4518870
 Leave Link  202 at Tue Mar 11 10:41:23 2014, MaxMem= 4026531840 cpu:       0.3
 (Enter /usr/caen/gaussian-09revc/g09/l301.exe)
 Standard basis: 6-311G(2d,d,p) (5D, 7F)
 Ernie: Thresh=  0.10000D-02 Tol=  0.10000D-05 Strict=F.
 There are   288 symmetry adapted basis functions of A   symmetry.
 Integral buffers will be    131072 words long.
 Raffenetti 2 integral format.
 Two-electron integral symmetry is turned on.
   288 basis functions,   464 primitive gaussians,   298 cartesian basis functions
    40 alpha electrons       40 beta electrons
       nuclear repulsion energy       548.1014422107 Hartrees.
 IExCor=  402 DFT=T Ex+Corr=B3LYP ExCW=0 ScaHFX=  0.200000
 ScaDFX=  0.800000  0.720000  1.000000  0.810000 ScalE2=  1.000000  1.000000
 IRadAn=      0 IRanWt=     -1 IRanGd=            0 ICorTp=0
 NAtoms=   28 NActive=   28 NUniq=   28 SFac= 1.00D+00 NAtFMM=   60 NAOKFM=F Big=F
 Leave Link  301 at Tue Mar 11 10:41:23 2014, MaxMem= 4026531840 cpu:       0.9
 (Enter /usr/caen/gaussian-09revc/g09/l302.exe)
 NPDir=0 NMtPBC=     1 NCelOv=     1 NCel=       1 NClECP=     1 NCelD=      1
         NCelK=      1 NCelE2=     1 NClLst=     1 CellRange=     0.0.
 One-electron integrals computed using PRISM.
 NBasis=   288 RedAO= T  NBF=   288
 NBsUse=   288 1.00D-06 NBFU=   288
 Precomputing XC quadrature grid using
 IXCGrd= 2 IRadAn=           0 IRanWt=          -1 IRanGd=           0 AccXCQ= 0.00D+00.
 NRdTot=    1783 NPtTot=      227338 NUsed=      240196 NTot=      240228
 NSgBfM=   298   298   298   298   298 NAtAll=    28    28.
 Leave Link  302 at Tue Mar 11 10:41:24 2014, MaxMem= 4026531840 cpu:       3.5
 (Enter /usr/caen/gaussian-09revc/g09/l303.exe)
 DipDrv:  MaxL=1.
 Leave Link  303 at Tue Mar 11 10:41:24 2014, MaxMem= 4026531840 cpu:       1.4
 (Enter /usr/caen/gaussian-09revc/g09/l401.exe)
 Harris functional with IExCor=  402 diagonalized for initial guess.
 ExpMin= 1.03D-01 ExpMax= 8.59D+03 ExpMxC= 1.30D+03 IAcc=1 IRadAn=         1 AccDes= 0.00D+00
 HarFok:  IExCor=  402 AccDes= 0.00D+00 IRadAn=         1 IDoV= 1
 ScaDFX=  1.000000  1.000000  1.000000  1.000000
 FoFCou: FMM=F IPFlag=           0 FMFlag=      100000 FMFlg1=           0
         NFxFlg=           0 DoJE=T BraDBF=F KetDBF=T FulRan=T
         Omega=  0.000000  0.000000  1.000000  0.000000  0.000000 ICntrl=     500 IOpCl=  0
         NMat0=    1 NMatS0=    1 NMatT0=    0 NMatD0=    1 NMtDS0=    0 NMtDT0=    0
         I1Cent=           4 NGrid=           0.
 Petite list used in FoFCou.
 Harris En= -429.186661826689    
 Initial guess orbital symmetries:
       Occupied  (A) (A) (A) (A) (A) (A) (A) (A) (A) (A) (A) (A)
                 (A) (A) (A) (A) (A) (A) (A) (A) (A) (A) (A) (A)
                 (A) (A) (A) (A) (A) (A) (A) (A) (A) (A) (A) (A)
                 (A) (A) (A) (A)
       Virtual   (A) (A) (A) (A) (A) (A) (A) (A) (A) (A) (A) (A)
                 (A) (A) (A) (A) (A) (A) (A) (A) (A) (A) (A) (A)
                 (A) (A) (A) (A) (A) (A) (A) (A) (A) (A) (A) (A)
                 (A) (A) (A) (A) (A) (A) (A) (A) (A) (A) (A) (A)
                 (A) (A) (A) (A) (A) (A) (A) (A) (A) (A) (A) (A)
                 (A) (A) (A) (A) (A) (A) (A) (A) (A) (A) (A) (A)
                 (A) (A) (A) (A) (A) (A) (A) (A) (A) (A) (A) (A)
                 (A) (A) (A) (A) (A) (A) (A) (A) (A) (A) (A) (A)
                 (A) (A) (A) (A) (A) (A) (A) (A) (A) (A) (A) (A)
                 (A) (A) (A) (A) (A) (A) (A) (A) (A) (A) (A) (A)
                 (A) (A) (A) (A) (A) (A) (A) (A) (A) (A) (A) (A)
                 (A) (A) (A) (A) (A) (A) (A) (A) (A) (A) (A) (A)
                 (A) (A) (A) (A) (A) (A) (A) (A) (A) (A) (A) (A)
                 (A) (A) (A) (A) (A) (A) (A) (A) (A) (A) (A) (A)
                 (A) (A) (A) (A) (A) (A) (A) (A) (A) (A) (A) (A)
                 (A) (A) (A) (A) (A) (A) (A) (A) (A) (A) (A) (A)
                 (A) (A) (A) (A) (A) (A) (A) (A) (A) (A) (A) (A)
                 (A) (A) (A) (A) (A) (A) (A) (A) (A) (A) (A) (A)
                 (A) (A) (A) (A) (A) (A) (A) (A) (A) (A) (A) (A)
                 (A) (A) (A) (A) (A) (A) (A) (A) (A) (A) (A) (A)
                 (A) (A) (A) (A) (A) (A) (A) (A)
 The electronic state of the initial guess is 1-A.
 Leave Link  401 at Tue Mar 11 10:41:25 2014, MaxMem= 4026531840 cpu:       6.2
 (Enter /usr/caen/gaussian-09revc/g09/l502.exe)
 Closed shell SCF:
 Requested convergence on RMS density matrix=1.00D-08 within 128 cycles.
 Requested convergence on MAX density matrix=1.00D-06.
 Requested convergence on             energy=1.00D-06.
 No special actions if energy rises.
 Using DIIS extrapolation, IDIIS=  1040.
 Integral symmetry usage will be decided dynamically.
       239931 words used for storage of precomputed grid.
 Keep R1 ints in memory in canonical form, NReq=1006312517.
 IEnd=      529127 IEndB=      529127 NGot=  4026531840 MDV=  3033690352
 LenX=  3033690352 LenY=  3033601107
 Symmetry not used in FoFDir.
 MinBra= 0 MaxBra= 2 Meth= 1.
 IRaf=       0 NMat=   1 IRICut=       1 DoRegI=T DoRafI=F ISym2E= 0 JSym2E=0.
 Integral accuracy reduced to 1.0D-05 until final iterations.

 Cycle   1  Pass 0  IDiag  1:
 E= -428.756852256636    
 DIIS: error= 4.65D-02 at cycle   1 NSaved=   1.
 NSaved= 1 IEnMin= 1 EnMin= -428.756852256636     IErMin= 1 ErrMin= 4.65D-02
 ErrMax= 4.65D-02 EMaxC= 1.00D-01 BMatC= 3.59D-01 BMatP= 3.59D-01
 IDIUse=3 WtCom= 5.35D-01 WtEn= 4.65D-01
 Coeff-Com:  0.100D+01
 Coeff-En:   0.100D+01
 Coeff:      0.100D+01
 Gap=     0.313 Goal=   None    Shift=    0.000
 GapD=    0.313 DampG=1.000 DampE=0.500 DampFc=0.5000 IDamp=-1.
 Damping current iteration by 5.00D-01
 RMSDP=3.55D-03 MaxDP=1.20D-01              OVMax= 1.92D-01

 Cycle   2  Pass 0  IDiag  1:
 E= -428.911431222383     Delta-E=       -0.154578965747 Rises=F Damp=T
 DIIS: error= 5.72D-03 at cycle   2 NSaved=   2.
 NSaved= 2 IEnMin= 2 EnMin= -428.911431222383     IErMin= 2 ErrMin= 5.72D-03
 ErrMax= 5.72D-03 EMaxC= 1.00D-01 BMatC= 1.72D-02 BMatP= 3.59D-01
 IDIUse=3 WtCom= 9.43D-01 WtEn= 5.72D-02
 Coeff-Com:  0.642D-01 0.936D+00
 Coeff-En:   0.141D+00 0.859D+00
 Coeff:      0.686D-01 0.931D+00
 Gap=     0.342 Goal=   None    Shift=    0.000
 RMSDP=6.66D-04 MaxDP=1.78D-02 DE=-1.55D-01 OVMax= 1.11D-01

 Cycle   3  Pass 0  IDiag  1:
 E= -429.108152383567     Delta-E=       -0.196721161184 Rises=F Damp=F
 DIIS: error= 4.79D-03 at cycle   3 NSaved=   3.
 NSaved= 3 IEnMin= 3 EnMin= -429.108152383567     IErMin= 3 ErrMin= 4.79D-03
 ErrMax= 4.79D-03 EMaxC= 1.00D-01 BMatC= 5.69D-03 BMatP= 1.72D-02
 IDIUse=3 WtCom= 9.52D-01 WtEn= 4.79D-02
 Coeff-Com: -0.170D-01 0.324D+00 0.693D+00
 Coeff-En:   0.000D+00 0.000D+00 0.100D+01
 Coeff:     -0.162D-01 0.308D+00 0.708D+00
 Gap=     0.298 Goal=   None    Shift=    0.000
 RMSDP=3.09D-04 MaxDP=1.02D-02 DE=-1.97D-01 OVMax= 2.05D-02

 Cycle   4  Pass 0  IDiag  1:
 E= -429.110412053240     Delta-E=       -0.002259669672 Rises=F Damp=F
 DIIS: error= 5.62D-03 at cycle   4 NSaved=   4.
 NSaved= 4 IEnMin= 4 EnMin= -429.110412053240     IErMin= 3 ErrMin= 4.79D-03
 ErrMax= 5.62D-03 EMaxC= 1.00D-01 BMatC= 3.53D-03 BMatP= 5.69D-03
 IDIUse=3 WtCom= 9.44D-01 WtEn= 5.62D-02
 Coeff-Com: -0.171D-01 0.968D-01 0.459D+00 0.462D+00
 Coeff-En:   0.000D+00 0.000D+00 0.363D+00 0.637D+00
 Coeff:     -0.162D-01 0.913D-01 0.453D+00 0.471D+00
 Gap=     0.307 Goal=   None    Shift=    0.000
 RMSDP=1.49D-04 MaxDP=7.58D-03 DE=-2.26D-03 OVMax= 1.14D-02

 Cycle   5  Pass 0  IDiag  1:
 E= -429.113008526397     Delta-E=       -0.002596473158 Rises=F Damp=F
 DIIS: error= 1.27D-03 at cycle   5 NSaved=   5.
 NSaved= 5 IEnMin= 5 EnMin= -429.113008526397     IErMin= 5 ErrMin= 1.27D-03
 ErrMax= 1.27D-03 EMaxC= 1.00D-01 BMatC= 1.45D-04 BMatP= 3.53D-03
 IDIUse=3 WtCom= 9.87D-01 WtEn= 1.27D-02
 Coeff-Com: -0.695D-02 0.241D-01 0.181D+00 0.244D+00 0.557D+00
 Coeff-En:   0.000D+00 0.000D+00 0.000D+00 0.000D+00 0.100D+01
 Coeff:     -0.686D-02 0.238D-01 0.179D+00 0.241D+00 0.563D+00
 Gap=     0.304 Goal=   None    Shift=    0.000
 RMSDP=3.96D-05 MaxDP=1.52D-03 DE=-2.60D-03 OVMax= 2.37D-03

 Cycle   6  Pass 0  IDiag  1:
 E= -429.113110051732     Delta-E=       -0.000101525335 Rises=F Damp=F
 DIIS: error= 2.07D-04 at cycle   6 NSaved=   6.
 NSaved= 6 IEnMin= 6 EnMin= -429.113110051732     IErMin= 6 ErrMin= 2.07D-04
 ErrMax= 2.07D-04 EMaxC= 1.00D-01 BMatC= 1.38D-05 BMatP= 1.45D-04
 IDIUse=3 WtCom= 9.98D-01 WtEn= 2.07D-03
 Coeff-Com: -0.169D-02 0.206D-02 0.481D-01 0.805D-01 0.300D+00 0.571D+00
 Coeff-En:   0.000D+00 0.000D+00 0.000D+00 0.000D+00 0.346D-01 0.965D+00
 Coeff:     -0.169D-02 0.205D-02 0.480D-01 0.804D-01 0.300D+00 0.572D+00
 Gap=     0.304 Goal=   None    Shift=    0.000
 RMSDP=9.50D-06 MaxDP=5.65D-04 DE=-1.02D-04 OVMax= 5.79D-04

 Initial convergence to 1.0D-05 achieved.  Increase integral accuracy.
 Cycle   7  Pass 1  IDiag  1:
 E= -429.113181386615     Delta-E=       -0.000071334882 Rises=F Damp=F
 DIIS: error= 1.73D-05 at cycle   1 NSaved=   1.
 NSaved= 1 IEnMin= 1 EnMin= -429.113181386615     IErMin= 1 ErrMin= 1.73D-05
 ErrMax= 1.73D-05 EMaxC= 1.00D-01 BMatC= 3.73D-07 BMatP= 3.73D-07
 IDIUse=1 WtCom= 1.00D+00 WtEn= 0.00D+00
 Coeff-Com:  0.100D+01
 Coeff:      0.100D+01
 Gap=     0.304 Goal=   None    Shift=    0.000
 RMSDP=9.50D-06 MaxDP=5.65D-04 DE=-7.13D-05 OVMax= 1.60D-04

 Cycle   8  Pass 1  IDiag  1:
 E= -429.113181621983     Delta-E=       -0.000000235368 Rises=F Damp=F
 DIIS: error= 1.99D-05 at cycle   2 NSaved=   2.
 NSaved= 2 IEnMin= 2 EnMin= -429.113181621983     IErMin= 1 ErrMin= 1.73D-05
 ErrMax= 1.99D-05 EMaxC= 1.00D-01 BMatC= 2.17D-07 BMatP= 3.73D-07
 IDIUse=1 WtCom= 1.00D+00 WtEn= 0.00D+00
 Coeff-Com:  0.414D+00 0.586D+00
 Coeff:      0.414D+00 0.586D+00
 Gap=     0.304 Goal=   None    Shift=    0.000
 RMSDP=1.76D-06 MaxDP=7.81D-05 DE=-2.35D-07 OVMax= 1.07D-04

 Cycle   9  Pass 1  IDiag  1:
 E= -429.113181791117     Delta-E=       -0.000000169135 Rises=F Damp=F
 DIIS: error= 1.61D-05 at cycle   3 NSaved=   3.
 NSaved= 3 IEnMin= 3 EnMin= -429.113181791117     IErMin= 3 ErrMin= 1.61D-05
 ErrMax= 1.61D-05 EMaxC= 1.00D-01 BMatC= 4.50D-08 BMatP= 2.17D-07
 IDIUse=1 WtCom= 1.00D+00 WtEn= 0.00D+00
 Coeff-Com:  0.395D-01 0.310D+00 0.650D+00
 Coeff:      0.395D-01 0.310D+00 0.650D+00
 Gap=     0.304 Goal=   None    Shift=    0.000
 RMSDP=6.37D-07 MaxDP=2.67D-05 DE=-1.69D-07 OVMax= 4.18D-05

 Cycle  10  Pass 1  IDiag  1:
 E= -429.113181822784     Delta-E=       -0.000000031666 Rises=F Damp=F
 DIIS: error= 8.19D-06 at cycle   4 NSaved=   4.
 NSaved= 4 IEnMin= 4 EnMin= -429.113181822784     IErMin= 4 ErrMin= 8.19D-06
 ErrMax= 8.19D-06 EMaxC= 1.00D-01 BMatC= 7.20D-09 BMatP= 4.50D-08
 IDIUse=1 WtCom= 1.00D+00 WtEn= 0.00D+00
 Coeff-Com: -0.113D-01 0.138D+00 0.389D+00 0.484D+00
 Coeff:     -0.113D-01 0.138D+00 0.389D+00 0.484D+00
 Gap=     0.304 Goal=   None    Shift=    0.000
 RMSDP=2.55D-07 MaxDP=1.05D-05 DE=-3.17D-08 OVMax= 1.68D-05

 Cycle  11  Pass 1  IDiag  1:
 E= -429.113181827966     Delta-E=       -0.000000005182 Rises=F Damp=F
 DIIS: error= 1.60D-06 at cycle   5 NSaved=   5.
 NSaved= 5 IEnMin= 5 EnMin= -429.113181827966     IErMin= 5 ErrMin= 1.60D-06
 ErrMax= 1.60D-06 EMaxC= 1.00D-01 BMatC= 4.47D-10 BMatP= 7.20D-09
 IDIUse=1 WtCom= 1.00D+00 WtEn= 0.00D+00
 Coeff-Com: -0.856D-02 0.579D-01 0.175D+00 0.277D+00 0.498D+00
 Coeff:     -0.856D-02 0.579D-01 0.175D+00 0.277D+00 0.498D+00
 Gap=     0.304 Goal=   None    Shift=    0.000
 RMSDP=6.04D-08 MaxDP=1.97D-06 DE=-5.18D-09 OVMax= 3.14D-06

 Cycle  12  Pass 1  IDiag  1:
 E= -429.113181828333     Delta-E=       -0.000000000368 Rises=F Damp=F
 DIIS: error= 1.40D-07 at cycle   6 NSaved=   6.
 NSaved= 6 IEnMin= 6 EnMin= -429.113181828333     IErMin= 6 ErrMin= 1.40D-07
 ErrMax= 1.40D-07 EMaxC= 1.00D-01 BMatC= 5.79D-12 BMatP= 4.47D-10
 IDIUse=1 WtCom= 1.00D+00 WtEn= 0.00D+00
 Coeff-Com: -0.209D-02 0.107D-01 0.334D-01 0.591D-01 0.152D+00 0.747D+00
 Coeff:     -0.209D-02 0.107D-01 0.334D-01 0.591D-01 0.152D+00 0.747D+00
 Gap=     0.304 Goal=   None    Shift=    0.000
 RMSDP=1.05D-08 MaxDP=3.33D-07 DE=-3.68D-10 OVMax= 5.26D-07

 Cycle  13  Pass 1  IDiag  1:
 E= -429.113181828347     Delta-E=       -0.000000000014 Rises=F Damp=F
 DIIS: error= 4.99D-08 at cycle   7 NSaved=   7.
 NSaved= 7 IEnMin= 7 EnMin= -429.113181828347     IErMin= 7 ErrMin= 4.99D-08
 ErrMax= 4.99D-08 EMaxC= 1.00D-01 BMatC= 1.02D-12 BMatP= 5.79D-12
 IDIUse=1 WtCom= 1.00D+00 WtEn= 0.00D+00
 Coeff-Com: -0.361D-03 0.928D-03 0.315D-02 0.709D-02 0.333D-01 0.341D+00
 Coeff-Com:  0.615D+00
 Coeff:     -0.361D-03 0.928D-03 0.315D-02 0.709D-02 0.333D-01 0.341D+00
 Coeff:      0.615D+00
 Gap=     0.304 Goal=   None    Shift=    0.000
 RMSDP=3.76D-09 MaxDP=1.32D-07 DE=-1.41D-11 OVMax= 2.60D-07

 SCF Done:  E(RB3LYP) =  -429.113181828     A.U. after   13 cycles
             Convg  =    0.3764D-08             -V/T =  2.0046
 KE= 4.271387176446D+02 PE=-2.093063749494D+03 EE= 6.887104078104D+02
 Leave Link  502 at Tue Mar 11 10:42:03 2014, MaxMem= 4026531840 cpu:     291.5
 (Enter /usr/caen/gaussian-09revc/g09/l801.exe)
 Range of M.O.s used for correlation:     1   288
 NBasis=   288 NAE=    40 NBE=    40 NFC=     0 NFV=     0
 NROrb=    288 NOA=    40 NOB=    40 NVA=   248 NVB=   248
 Leave Link  801 at Tue Mar 11 10:42:03 2014, MaxMem= 4026531840 cpu:       0.3
 (Enter /usr/caen/gaussian-09revc/g09/l1101.exe)
 Using compressed storage, NAtomX=    28.
 Will process  29 centers per pass.
 Leave Link 1101 at Tue Mar 11 10:42:04 2014, MaxMem= 4026531840 cpu:       3.7
 (Enter /usr/caen/gaussian-09revc/g09/l1102.exe)
 Symmetrizing basis deriv contribution to polar:
 IMax=3 JMax=2 DiffMx= 0.00D+00
 Leave Link 1102 at Tue Mar 11 10:42:05 2014, MaxMem= 4026531840 cpu:       1.5
 (Enter /usr/caen/gaussian-09revc/g09/l1110.exe)
 Forming Gx(P) for the SCF density, NAtomX=    28.
 Integral derivatives from FoFDir/FoFCou, PRISM(SPDF).
 Do as many integral derivatives as possible in FoFDir.
 G2DrvN: MDV=    4026531512.
 G2DrvN: will do    29 centers at a time, making    1 passes doing MaxLOS=2.
 Calling FoFCou, ICntrl=  3107 FMM=F I1Cent=   0 AccDes= 0.00D+00.
 FoFCou: FMM=F IPFlag=           0 FMFlag=      100000 FMFlg1=           0
         NFxFlg=           0 DoJE=F BraDBF=F KetDBF=F FulRan=T
         Omega=  0.000000  0.000000  1.000000  0.000000  0.000000 ICntrl=    3107 IOpCl=  0
         NMat0=    1 NMatS0=    1 NMatT0=    0 NMatD0=    1 NMtDS0=    0 NMtDT0=    0
         I1Cent=           0 NGrid=           0.
 Symmetry not used in FoFCou.
 FoFDir/FoFCou used for L=0 through L=2.
 End of G2Drv Frequency-dependent properties file   721 does not exist.
 End of G2Drv Frequency-dependent properties file   722 does not exist.
 Leave Link 1110 at Tue Mar 11 10:43:23 2014, MaxMem= 4026531840 cpu:     621.3
 (Enter /usr/caen/gaussian-09revc/g09/l1002.exe)
 Minotr:  Closed shell wavefunction.
          IDoAtm=1111111111111111111111111111
          Direct CPHF calculation.
          Differentiating once with respect to nuclear coordinates.
          Requested convergence is 1.0D-06 RMS, and 1.0D-05 maximum.
          Secondary convergence is 1.0D-12 RMS, and 1.0D-12 maximum.
          NewPWx=T KeepS1=F KeepF1=F KeepIn=T MapXYZ=F SortEE=F KeepMc=T.
          MDV=    4026531556 using IRadAn=       2.
 Generate precomputed XC quadrature information.
          Keep R1 ints in memory in canonical form, NReq=993246445.
 Symmetry not used in FoFDir.
 MinBra= 0 MaxBra= 2 Meth= 1.
 IRaf=       0 NMat=   1 IRICut=       1 DoRegI=T DoRafI=F ISym2E= 0 JSym2E=0.
          Solving linear equations simultaneously, MaxMat=       0.
          There are    87 degrees of freedom in the 1st order CPHF.  IDoFFX=5.
     81 vectors produced by pass  0 Test12= 1.14D-10 1.15D-07 XBig12= 9.88D-02 7.13D-02.
 AX will form    81 AO Fock derivatives at one time.
     81 vectors produced by pass  1 Test12= 1.14D-10 1.15D-07 XBig12= 5.92D-03 1.69D-02.
     81 vectors produced by pass  2 Test12= 1.14D-10 1.15D-07 XBig12= 3.62D-05 7.77D-04.
     81 vectors produced by pass  3 Test12= 1.14D-10 1.15D-07 XBig12= 1.26D-07 4.02D-05.
     30 vectors produced by pass  4 Test12= 1.14D-10 1.15D-07 XBig12= 1.62D-10 1.65D-06.
 Inverted reduced A of dimension   354 with in-core refinement.
 End of Minotr Frequency-dependent properties file   721 does not exist.
 End of Minotr Frequency-dependent properties file   722 does not exist.
 Leave Link 1002 at Tue Mar 11 10:44:41 2014, MaxMem= 4026531840 cpu:     617.7
 (Enter /usr/caen/gaussian-09revc/g09/l601.exe)
 Copying SCF densities to generalized density rwf, IOpCl= 0 IROHF=0.

 **********************************************************************

            Population analysis using the SCF density.

 **********************************************************************

 Orbital symmetries:
       Occupied  (A) (A) (A) (A) (A) (A) (A) (A) (A) (A) (A) (A)
                 (A) (A) (A) (A) (A) (A) (A) (A) (A) (A) (A) (A)
                 (A) (A) (A) (A) (A) (A) (A) (A) (A) (A) (A) (A)
                 (A) (A) (A) (A)
       Virtual   (A) (A) (A) (A) (A) (A) (A) (A) (A) (A) (A) (A)
                 (A) (A) (A) (A) (A) (A) (A) (A) (A) (A) (A) (A)
                 (A) (A) (A) (A) (A) (A) (A) (A) (A) (A) (A) (A)
                 (A) (A) (A) (A) (A) (A) (A) (A) (A) (A) (A) (A)
                 (A) (A) (A) (A) (A) (A) (A) (A) (A) (A) (A) (A)
                 (A) (A) (A) (A) (A) (A) (A) (A) (A) (A) (A) (A)
                 (A) (A) (A) (A) (A) (A) (A) (A) (A) (A) (A) (A)
                 (A) (A) (A) (A) (A) (A) (A) (A) (A) (A) (A) (A)
                 (A) (A) (A) (A) (A) (A) (A) (A) (A) (A) (A) (A)
                 (A) (A) (A) (A) (A) (A) (A) (A) (A) (A) (A) (A)
                 (A) (A) (A) (A) (A) (A) (A) (A) (A) (A) (A) (A)
                 (A) (A) (A) (A) (A) (A) (A) (A) (A) (A) (A) (A)
                 (A) (A) (A) (A) (A) (A) (A) (A) (A) (A) (A) (A)
                 (A) (A) (A) (A) (A) (A) (A) (A) (A) (A) (A) (A)
                 (A) (A) (A) (A) (A) (A) (A) (A) (A) (A) (A) (A)
                 (A) (A) (A) (A) (A) (A) (A) (A) (A) (A) (A) (A)
                 (A) (A) (A) (A) (A) (A) (A) (A) (A) (A) (A) (A)
                 (A) (A) (A) (A) (A) (A) (A) (A) (A) (A) (A) (A)
                 (A) (A) (A) (A) (A) (A) (A) (A) (A) (A) (A) (A)
                 (A) (A) (A) (A) (A) (A) (A) (A) (A) (A) (A) (A)
                 (A) (A) (A) (A) (A) (A) (A) (A)
 The electronic state is 1-A.
 Alpha  occ. eigenvalues --  -19.12046 -10.23039 -10.21479 -10.17272 -10.17171
 Alpha  occ. eigenvalues --  -10.16634 -10.16409 -10.16323 -10.15617 -10.15566
 Alpha  occ. eigenvalues --   -1.06550  -0.81749  -0.78373  -0.74295  -0.68440
 Alpha  occ. eigenvalues --   -0.68348  -0.65987  -0.60981  -0.56196  -0.55543
 Alpha  occ. eigenvalues --   -0.49568  -0.47891  -0.46791  -0.45196  -0.43349
 Alpha  occ. eigenvalues --   -0.42872  -0.42081  -0.40311  -0.38798  -0.38569
 Alpha  occ. eigenvalues --   -0.37437  -0.36930  -0.36156  -0.35405  -0.33774
 Alpha  occ. eigenvalues --   -0.32267  -0.32202  -0.31528  -0.29400  -0.26519
 Alpha virt. eigenvalues --    0.03919   0.04737   0.05649   0.06353   0.07220
 Alpha virt. eigenvalues --    0.08104   0.08667   0.09774   0.10457   0.11005
 Alpha virt. eigenvalues --    0.11452   0.12096   0.13087   0.13474   0.14241
 Alpha virt. eigenvalues --    0.14597   0.15133   0.16269   0.16985   0.18089
 Alpha virt. eigenvalues --    0.19379   0.20615   0.21675   0.22354   0.23501
 Alpha virt. eigenvalues --    0.25043   0.26741   0.27215   0.29398   0.30157
 Alpha virt. eigenvalues --    0.31198   0.32436   0.34044   0.34895   0.35636
 Alpha virt. eigenvalues --    0.37454   0.39833   0.40132   0.42613   0.43318
 Alpha virt. eigenvalues --    0.44936   0.45955   0.47046   0.48762   0.50103
 Alpha virt. eigenvalues --    0.53230   0.54062   0.54641   0.55999   0.56612
 Alpha virt. eigenvalues --    0.56859   0.57147   0.57755   0.58330   0.58878
 Alpha virt. eigenvalues --    0.59227   0.59669   0.60104   0.60583   0.60708
 Alpha virt. eigenvalues --    0.61435   0.62381   0.62863   0.63060   0.64069
 Alpha virt. eigenvalues --    0.64974   0.65669   0.65878   0.66984   0.67984
 Alpha virt. eigenvalues --    0.70448   0.71200   0.75218   0.77019   0.82732
 Alpha virt. eigenvalues --    0.85555   0.88815   0.90621   0.91892   0.97788
 Alpha virt. eigenvalues --    0.98629   0.99897   1.01809   1.05075   1.08718
 Alpha virt. eigenvalues --    1.08921   1.10216   1.13362   1.16252   1.17823
 Alpha virt. eigenvalues --    1.19284   1.21753   1.22940   1.26566   1.31366
 Alpha virt. eigenvalues --    1.33290   1.35994   1.37719   1.37901   1.39984
 Alpha virt. eigenvalues --    1.41649   1.41912   1.44588   1.45139   1.45629
 Alpha virt. eigenvalues --    1.46697   1.47434   1.48274   1.50238   1.50978
 Alpha virt. eigenvalues --    1.51757   1.52401   1.53271   1.53741   1.54649
 Alpha virt. eigenvalues --    1.57074   1.58197   1.59374   1.59752   1.60470
 Alpha virt. eigenvalues --    1.61562   1.63685   1.65099   1.66144   1.67770
 Alpha virt. eigenvalues --    1.68074   1.69354   1.71419   1.72529   1.73241
 Alpha virt. eigenvalues --    1.74169   1.75127   1.76731   1.78352   1.79281
 Alpha virt. eigenvalues --    1.79906   1.83912   1.85792   1.87615   1.88174
 Alpha virt. eigenvalues --    1.91817   1.94273   1.94364   1.97629   2.00566
 Alpha virt. eigenvalues --    2.01555   2.02906   2.03098   2.04482   2.05625
 Alpha virt. eigenvalues --    2.08160   2.09983   2.11681   2.14055   2.16192
 Alpha virt. eigenvalues --    2.17993   2.21728   2.22888   2.26137   2.29492
 Alpha virt. eigenvalues --    2.30025   2.30666   2.34065   2.35015   2.36838
 Alpha virt. eigenvalues --    2.37188   2.38556   2.42253   2.43939   2.44956
 Alpha virt. eigenvalues --    2.45696   2.46609   2.47279   2.47887   2.49722
 Alpha virt. eigenvalues --    2.50452   2.50733   2.51765   2.52803   2.54015
 Alpha virt. eigenvalues --    2.56449   2.56935   2.57097   2.58133   2.60261
 Alpha virt. eigenvalues --    2.63181   2.64037   2.65253   2.66590   2.67570
 Alpha virt. eigenvalues --    2.69786   2.71329   2.72644   2.74184   2.75926
 Alpha virt. eigenvalues --    2.77210   2.78651   2.80653   2.84161   2.85278
 Alpha virt. eigenvalues --    2.88777   2.90176   2.91324   2.93303   2.95015
 Alpha virt. eigenvalues --    3.01095   3.02808   3.09876   3.10929   3.13653
 Alpha virt. eigenvalues --    3.17077   3.18742   3.26577   3.34363   3.44632
 Alpha virt. eigenvalues --    3.48545   3.66363   3.73512   3.76361   3.77669
 Alpha virt. eigenvalues --    3.78364   3.79745   3.80838   3.82240   3.82857
 Alpha virt. eigenvalues --    3.83842   3.85102   3.92304   3.97177   4.07766
 Alpha virt. eigenvalues --    4.17829   4.29474   4.30007   4.38178   4.52730
 Alpha virt. eigenvalues --    4.95187   5.43195   5.47283  23.73637  23.81737
 Alpha virt. eigenvalues --   23.83853  23.87818  23.88587  23.90902  23.93640
 Alpha virt. eigenvalues --   23.94047  23.94533  49.89891
          Condensed to atoms (all electrons):
              1          2          3          4          5          6
     1  C    4.773541   0.402549   0.396160   0.398702  -0.052950  -0.007055
     2  H    0.402549   0.577067  -0.031193  -0.027321  -0.007353   0.005356
     3  H    0.396160  -0.031193   0.592661  -0.023524  -0.000636  -0.000066
     4  H    0.398702  -0.027321  -0.023524   0.567058   0.008044  -0.000150
     5  C   -0.052950  -0.007353  -0.000636   0.008044   4.878984   0.403907
     6  H   -0.007055   0.005356  -0.000066  -0.000150   0.403907   0.601099
     7  H   -0.001481  -0.000163   0.000362  -0.000276   0.393728  -0.036686
     8  C    0.005940  -0.000067  -0.000217  -0.000404   0.365222  -0.043094
     9  H    0.000463   0.000142  -0.000152  -0.000074  -0.041825  -0.005200
    10  H   -0.000437   0.000019   0.000097   0.000027  -0.034793   0.009537
    11  C   -0.000156  -0.000042  -0.000009   0.000012  -0.048865  -0.006507
    12  H    0.000003   0.000003  -0.000005   0.000001  -0.004359  -0.001060
    13  H   -0.000026  -0.000019   0.000005   0.000001  -0.006713   0.005992
    14  C    0.000002   0.000000   0.000000   0.000000   0.006298   0.000025
    15  H    0.000000   0.000000   0.000000   0.000000  -0.000205   0.000011
    16  C    0.000000   0.000000   0.000000   0.000000  -0.000245  -0.000037
    17  H    0.000000   0.000000   0.000000   0.000000  -0.000007   0.000010
    18  H    0.000000   0.000000   0.000000   0.000000   0.000013   0.000002
    19  H    0.000000   0.000000   0.000000   0.000000  -0.000024  -0.000009
    20  C   -0.048129   0.008929  -0.004421  -0.005656  -0.049600   0.009782
    21  H   -0.001369   0.000234  -0.000913  -0.001353   0.000834  -0.000303
    22  H    0.001961  -0.000400   0.000714   0.000713   0.000017   0.000182
    23  C    0.000000   0.000000   0.000000   0.000000  -0.000035  -0.000011
    24  H    0.000000   0.000000   0.000000   0.000000   0.000015   0.000003
    25  H    0.000000   0.000000   0.000000   0.000000  -0.000071   0.000007
    26  H    0.000000   0.000000   0.000000   0.000000  -0.000114  -0.000026
    27  C    0.380215  -0.035931  -0.040665  -0.029321   0.356379  -0.042076
    28  O   -0.027501  -0.002603   0.004790   0.004840  -0.040301  -0.002606
              7          8          9         10         11         12
     1  C   -0.001481   0.005940   0.000463  -0.000437  -0.000156   0.000003
     2  H   -0.000163  -0.000067   0.000142   0.000019  -0.000042   0.000003
     3  H    0.000362  -0.000217  -0.000152   0.000097  -0.000009  -0.000005
     4  H   -0.000276  -0.000404  -0.000074   0.000027   0.000012   0.000001
     5  C    0.393728   0.365222  -0.041825  -0.034793  -0.048865  -0.004359
     6  H   -0.036686  -0.043094  -0.005200   0.009537  -0.006507  -0.001060
     7  H    0.609399  -0.032201   0.009692  -0.010332  -0.002984   0.004199
     8  C   -0.032201   4.953806   0.404532   0.395985   0.364640  -0.039616
     9  H    0.009692   0.404532   0.576915  -0.039242  -0.036254   0.008541
    10  H   -0.010332   0.395985  -0.039242   0.612235  -0.035921  -0.008614
    11  C   -0.002984   0.364640  -0.036254  -0.035921   4.960419   0.397648
    12  H    0.004199  -0.039616   0.008541  -0.008614   0.397648   0.617805
    13  H   -0.000703  -0.041581  -0.006991   0.009119   0.409872  -0.037204
    14  C   -0.000015  -0.053355  -0.003799  -0.005409   0.370311  -0.039186
    15  H   -0.000017  -0.004705   0.004419  -0.000462  -0.048976   0.010357
    16  C    0.000008   0.007548   0.000057  -0.000052  -0.066075  -0.004818
    17  H   -0.000012  -0.000024   0.000009   0.000017  -0.006966   0.004874
    18  H    0.000000  -0.000420  -0.000003   0.000020   0.008579  -0.000344
    19  H    0.000006   0.000023   0.000028  -0.000006  -0.005943  -0.000561
    20  C   -0.004757  -0.011103  -0.001367   0.003361   0.000055  -0.000068
    21  H    0.000562   0.000513   0.000797  -0.000293   0.000008  -0.000002
    22  H   -0.000419  -0.000424  -0.005347   0.003852  -0.000182   0.000039
    23  C   -0.000008  -0.007121  -0.000647   0.001797  -0.066065  -0.009373
    24  H   -0.000003   0.000003  -0.000068  -0.000105   0.008270  -0.000204
    25  H   -0.000017  -0.000646   0.000055   0.000561  -0.006761   0.005589
    26  H    0.000068   0.001363   0.000701   0.000145  -0.005368  -0.000094
    27  C   -0.039663  -0.039806  -0.010741  -0.003236   0.005336   0.000065
    28  O    0.004555  -0.000543   0.021610  -0.002422   0.000048  -0.000007
             13         14         15         16         17         18
     1  C   -0.000026   0.000002   0.000000   0.000000   0.000000   0.000000
     2  H   -0.000019   0.000000   0.000000   0.000000   0.000000   0.000000
     3  H    0.000005   0.000000   0.000000   0.000000   0.000000   0.000000
     4  H    0.000001   0.000000   0.000000   0.000000   0.000000   0.000000
     5  C   -0.006713   0.006298  -0.000205  -0.000245  -0.000007   0.000013
     6  H    0.005992   0.000025   0.000011  -0.000037   0.000010   0.000002
     7  H   -0.000703  -0.000015  -0.000017   0.000008  -0.000012   0.000000
     8  C   -0.041581  -0.053355  -0.004705   0.007548  -0.000024  -0.000420
     9  H   -0.006991  -0.003799   0.004419   0.000057   0.000009  -0.000003
    10  H    0.009119  -0.005409  -0.000462  -0.000052   0.000017   0.000020
    11  C    0.409872   0.370311  -0.048976  -0.066075  -0.006966   0.008579
    12  H   -0.037204  -0.039186   0.010357  -0.004818   0.004874  -0.000344
    13  H    0.603443  -0.039227  -0.005993  -0.006580  -0.000671   0.000192
    14  C   -0.039227   5.028970   0.410130   0.377025  -0.038375  -0.032417
    15  H   -0.005993   0.410130   0.619855  -0.041655   0.009590  -0.006866
    16  C   -0.006580   0.377025  -0.041655   4.865793   0.401629   0.401930
    17  H   -0.000671  -0.038375   0.009590   0.401629   0.596762  -0.031522
    18  H    0.000192  -0.032417  -0.006866   0.401930  -0.031522   0.587100
    19  H    0.004823  -0.032863  -0.006329   0.402376  -0.031136  -0.028023
    20  C   -0.000002   0.000006  -0.000012   0.000000   0.000000   0.000000
    21  H    0.000002  -0.000001  -0.000002   0.000000   0.000000   0.000000
    22  H    0.000001   0.000017   0.000068  -0.000001   0.000000   0.000000
    23  C    0.008777   0.361183  -0.046904  -0.066164  -0.006309  -0.005252
    24  H   -0.000439  -0.032149  -0.006408  -0.006267  -0.000635   0.004092
    25  H   -0.000086  -0.039867   0.009646  -0.005127   0.005040  -0.000658
    26  H   -0.000169  -0.031961  -0.005918   0.008020  -0.000154  -0.000002
    27  C    0.000060  -0.000231   0.000042   0.000003   0.000000   0.000000
    28  O   -0.000007   0.000003  -0.000060   0.000000   0.000000   0.000000
             19         20         21         22         23         24
     1  C    0.000000  -0.048129  -0.001369   0.001961   0.000000   0.000000
     2  H    0.000000   0.008929   0.000234  -0.000400   0.000000   0.000000
     3  H    0.000000  -0.004421  -0.000913   0.000714   0.000000   0.000000
     4  H    0.000000  -0.005656  -0.001353   0.000713   0.000000   0.000000
     5  C   -0.000024  -0.049600   0.000834   0.000017  -0.000035   0.000015
     6  H   -0.000009   0.009782  -0.000303   0.000182  -0.000011   0.000003
     7  H    0.000006  -0.004757   0.000562  -0.000419  -0.000008  -0.000003
     8  C    0.000023  -0.011103   0.000513  -0.000424  -0.007121   0.000003
     9  H    0.000028  -0.001367   0.000797  -0.005347  -0.000647  -0.000068
    10  H   -0.000006   0.003361  -0.000293   0.003852   0.001797  -0.000105
    11  C   -0.005943   0.000055   0.000008  -0.000182  -0.066065   0.008270
    12  H   -0.000561  -0.000068  -0.000002   0.000039  -0.009373  -0.000204
    13  H    0.004823  -0.000002   0.000002   0.000001   0.008777  -0.000439
    14  C   -0.032863   0.000006  -0.000001   0.000017   0.361183  -0.032149
    15  H   -0.006329  -0.000012  -0.000002   0.000068  -0.046904  -0.006408
    16  C    0.402376   0.000000   0.000000  -0.000001  -0.066164  -0.006267
    17  H   -0.031136   0.000000   0.000000   0.000000  -0.006309  -0.000635
    18  H   -0.028023   0.000000   0.000000   0.000000  -0.005252   0.004092
    19  H    0.586483   0.000000   0.000000   0.000000   0.008481   0.000062
    20  C    0.000000   4.862909   0.395683   0.393723  -0.000009   0.000000
    21  H    0.000000   0.395683   0.596240  -0.052374   0.000000   0.000000
    22  H    0.000000   0.393723  -0.052374   0.593046  -0.000008  -0.000002
    23  C    0.008481  -0.000009   0.000000  -0.000008   4.887541   0.403390
    24  H    0.000062   0.000000   0.000000  -0.000002   0.403390   0.585081
    25  H   -0.000186   0.000000   0.000000  -0.000003   0.400262  -0.031058
    26  H   -0.000528  -0.000013   0.000001   0.000008   0.403254  -0.028318
    27  C    0.000000   0.280308  -0.019176  -0.018202   0.000011  -0.000001
    28  O    0.000000   0.188415  -0.023985  -0.026158   0.000001   0.000000
             25         26         27         28
     1  C    0.000000   0.000000   0.380215  -0.027501
     2  H    0.000000   0.000000  -0.035931  -0.002603
     3  H    0.000000   0.000000  -0.040665   0.004790
     4  H    0.000000   0.000000  -0.029321   0.004840
     5  C   -0.000071  -0.000114   0.356379  -0.040301
     6  H    0.000007  -0.000026  -0.042076  -0.002606
     7  H   -0.000017   0.000068  -0.039663   0.004555
     8  C   -0.000646   0.001363  -0.039806  -0.000543
     9  H    0.000055   0.000701  -0.010741   0.021610
    10  H    0.000561   0.000145  -0.003236  -0.002422
    11  C   -0.006761  -0.005368   0.005336   0.000048
    12  H    0.005589  -0.000094   0.000065  -0.000007
    13  H   -0.000086  -0.000169   0.000060  -0.000007
    14  C   -0.039867  -0.031961  -0.000231   0.000003
    15  H    0.009646  -0.005918   0.000042  -0.000060
    16  C   -0.005127   0.008020   0.000003   0.000000
    17  H    0.005040  -0.000154   0.000000   0.000000
    18  H   -0.000658  -0.000002   0.000000   0.000000
    19  H   -0.000186  -0.000528   0.000000   0.000000
    20  C    0.000000  -0.000013   0.280308   0.188415
    21  H    0.000000   0.000001  -0.019176  -0.023985
    22  H   -0.000003   0.000008  -0.018202  -0.026158
    23  C    0.400262   0.403254   0.000011   0.000001
    24  H   -0.031058  -0.028318  -0.000001   0.000000
    25  H    0.596581  -0.031419   0.000001   0.000000
    26  H   -0.031419   0.586906   0.000014   0.000009
    27  C    0.000001   0.000014   5.183574   0.132666
    28  O    0.000000   0.000009   0.132666   8.101365
 Mulliken atomic charges:
              1
     1  C   -0.220429
     2  H    0.110792
     3  H    0.107011
     4  H    0.108682
     5  C   -0.125342
     6  H    0.108973
     7  H    0.107157
     8  C   -0.224247
     9  H    0.123750
    10  H    0.104554
    11  C   -0.188123
    12  H    0.096392
    13  H    0.104122
    14  C   -0.205118
    15  H    0.110394
    16  C   -0.267368
    17  H    0.097882
    18  H    0.103578
    19  H    0.103328
    20  C   -0.018032
    21  H    0.104897
    22  H    0.109179
    23  C   -0.266790
    24  H    0.104741
    25  H    0.098156
    26  H    0.103596
    27  C   -0.059625
    28  O   -0.332109
 Sum of Mulliken atomic charges =   0.00000
 Mulliken charges with hydrogens summed into heavy atoms:
              1
     1  C    0.106055
     5  C    0.090788
     8  C    0.004056
    11  C    0.012391
    14  C   -0.094725
    16  C    0.037420
    20  C    0.196044
    23  C    0.039703
    27  C   -0.059625
    28  O   -0.332109
 Sum of Mulliken charges with hydrogens summed into heavy atoms =   0.00000
 APT atomic charges:
              1
     1  C   -1.250819
     2  H    0.343642
     3  H    0.360604
     4  H    0.666984
     5  C   -0.614204
     6  H    0.315131
     7  H    0.329418
     8  C   -0.516774
     9  H    0.270302
    10  H    0.280124
    11  C   -0.536337
    12  H    0.308713
    13  H    0.311969
    14  C   -0.355021
    15  H    0.268133
    16  C   -1.382884
    17  H    0.360972
    18  H    0.686840
    19  H    0.296837
    20  C   -0.649958
    21  H    0.718662
    22  H    0.093297
    23  C   -1.096084
    24  H    0.691770
    25  H    0.337840
    26  H    0.068028
    27  C   -0.077630
    28  O   -0.229554
 Sum of APT charges=   0.00000
 APT Atomic charges with hydrogens summed into heavy atoms:
              1
     1  C    0.120411
     2  H    0.000000
     3  H    0.000000
     4  H    0.000000
     5  C    0.030345
     6  H    0.000000
     7  H    0.000000
     8  C    0.033652
     9  H    0.000000
    10  H    0.000000
    11  C    0.084344
    12  H    0.000000
    13  H    0.000000
    14  C   -0.086889
    15  H    0.000000
    16  C   -0.038235
    17  H    0.000000
    18  H    0.000000
    19  H    0.000000
    20  C    0.162000
    21  H    0.000000
    22  H    0.000000
    23  C    0.001555
    24  H    0.000000
    25  H    0.000000
    26  H    0.000000
    27  C   -0.077630
    28  O   -0.229554
 Sum of APT charges=   0.00000
 Electronic spatial extent (au):  <R**2>=           2604.8341
 Charge=              0.0000 electrons
 Dipole moment (field-independent basis, Debye):
    X=              0.1718    Y=             -0.1756    Z=             -1.7749  Tot=              1.7918
 Quadrupole moment (field-independent basis, Debye-Ang):
   XX=            -65.6472   YY=            -64.0984   ZZ=            -68.3863
   XY=              0.6393   XZ=              5.4908   YZ=             -1.2731
 Traceless Quadrupole moment (field-independent basis, Debye-Ang):
   XX=              0.3968   YY=              1.9456   ZZ=             -2.3423
   XY=              0.6393   XZ=              5.4908   YZ=             -1.2731
 Octapole moment (field-independent basis, Debye-Ang**2):
  XXX=            -23.8858  YYY=              5.8274  ZZZ=              0.2526  XYY=            -10.7407
  XXY=              3.9674  XXZ=            -10.6206  XZZ=              3.5466  YZZ=             -2.6884
  YYZ=              2.2534  XYZ=              4.6063
 Hexadecapole moment (field-independent basis, Debye-Ang**3):
 XXXX=          -2917.6862 YYYY=           -431.9980 ZZZZ=           -216.6263 XXXY=             -1.5410
 XXXZ=             31.4032 YYYX=            -13.4422 YYYZ=             -1.8563 ZZZX=             -0.0211
 ZZZY=              4.1673 XXYY=           -556.0704 XXZZ=           -550.0072 YYZZ=           -108.3334
 XXYZ=             -3.4552 YYXZ=             -0.1876 ZZXY=              1.3130
 N-N= 5.481014422107D+02 E-N=-2.093063755380D+03  KE= 4.271387176446D+02
  Exact polarizability:   0.000   0.000   0.000   0.000   0.000   0.000
 Approx polarizability: 140.025  -1.430 150.349   0.101   0.702 141.307
 No NMR shielding tensors so no spin-rotation constants.
 Leave Link  601 at Tue Mar 11 10:44:42 2014, MaxMem= 4026531840 cpu:       2.9
 (Enter /usr/caen/gaussian-09revc/g09/l701.exe)
 Compute integral second derivatives.
 ... and contract with generalized density number  0.
 Leave Link  701 at Tue Mar 11 10:44:43 2014, MaxMem= 4026531840 cpu:       2.8
 (Enter /usr/caen/gaussian-09revc/g09/l702.exe)
 L702 exits ... SP integral derivatives will be done elsewhere.
 Leave Link  702 at Tue Mar 11 10:44:43 2014, MaxMem= 4026531840 cpu:       0.2
 (Enter /usr/caen/gaussian-09revc/g09/l703.exe)
 Compute integral second derivatives, UseDBF=F ICtDFT=           0.
 Integral derivatives from FoFDir, PRISM(SPDF).
 Calling FoFJK, ICntrl=    100147 FMM=F ISym2X=0 I1Cent= 0 IOpClX= 0 NMat=1 NMatS=1 NMatT=0.
 FoFCou: FMM=F IPFlag=           0 FMFlag=      100000 FMFlg1=         800
         NFxFlg=           0 DoJE=F BraDBF=F KetDBF=F FulRan=T
         Omega=  0.000000  0.000000  1.000000  0.000000  0.000000 ICntrl=  100147 IOpCl=  0
         NMat0=    1 NMatS0=    1 NMatT0=    0 NMatD0=    1 NMtDS0=    0 NMtDT0=    0
         I1Cent=           0 NGrid=           0.
 Symmetry not used in FoFCou.
 Leave Link  703 at Tue Mar 11 10:46:10 2014, MaxMem= 4026531840 cpu:     693.3
 (Enter /usr/caen/gaussian-09revc/g09/l716.exe)
 Dipole        = 6.75880253D-02-6.90815273D-02-6.98297364D-01
 Polarizability= 0.00000000D+00 0.00000000D+00 0.00000000D+00
                 0.00000000D+00 0.00000000D+00 0.00000000D+00
 ***** Axes restored to original set *****
 -------------------------------------------------------------------
 Center     Atomic                   Forces (Hartrees/Bohr)
 Number     Number              X              Y              Z
 -------------------------------------------------------------------
      1        6          -0.000014066    0.000112086   -0.000190990
      2        1          -0.000034434    0.000111494    0.000042824
      3        1          -0.000133586   -0.000100669   -0.000008775
      4        1           0.000164566    0.000011957    0.000134797
      5        6          -0.000228636   -0.000077824   -0.000358990
      6        1           0.000051778    0.000077006    0.000026836
      7        1           0.000202144   -0.000056918   -0.000022199
      8        6           0.000056243   -0.000014448    0.000121665
      9        1          -0.000460932   -0.000055445   -0.000074357
     10        1          -0.000040069   -0.000046731    0.000065198
     11        6           0.000011720   -0.000056575    0.000017688
     12        1          -0.000016052    0.000051363    0.000065819
     13        1          -0.000011925    0.000039983   -0.000034914
     14        6           0.000077787    0.000016409   -0.000009684
     15        1          -0.000062789   -0.000027313   -0.000068135
     16        6           0.000067413   -0.000045311   -0.000006142
     17        1          -0.000034902    0.000045032    0.000078003
     18        1          -0.000080271   -0.000046560   -0.000010589
     19        1          -0.000007589    0.000056971   -0.000054629
     20        6           0.000008957   -0.000272445    0.000919001
     21        1           0.000000895   -0.000045269   -0.000272824
     22        1           0.000006153   -0.000002199   -0.000295386
     23        6           0.000042548    0.000044089   -0.000020514
     24        1          -0.000071892   -0.000049552   -0.000000875
     25        1          -0.000018196    0.000032016    0.000108006
     26        1           0.000054696   -0.000067631    0.000018857
     27        6           0.000027001    0.001051846    0.001182021
     28        8           0.000443436   -0.000685363   -0.001351713
 -------------------------------------------------------------------
 Cartesian Forces:  Max     0.001351713 RMS     0.000284527
 Leave Link  716 at Tue Mar 11 10:46:11 2014, MaxMem= 4026531840 cpu:       1.5
 (Enter /usr/caen/gaussian-09revc/g09/l103.exe)

 GradGradGradGradGradGradGradGradGradGradGradGradGradGradGradGradGradGrad
 Berny optimization.
 Red2BG is reusing G-inverse.
 Internal  Forces:  Max     0.001410903 RMS     0.000226168
 Search for a local minimum.
 Step number   1 out of a maximum of  157
 All quantities printed in internal units (Hartrees-Bohrs-Radians)
 RMS Force = .22617D-03 SwitMx=.10000D-02 MixMth= 2
 Mixed Optimization -- En-DIIS/RFO-DIIS
 Second derivative matrix not updated -- analytic derivatives used.
 ITU=  0
     Eigenvalues ---    0.00130   0.00147   0.00204   0.00217   0.00261
     Eigenvalues ---    0.00278   0.00339   0.02064   0.02888   0.03185
     Eigenvalues ---    0.03353   0.03546   0.03817   0.03866   0.03906
     Eigenvalues ---    0.04042   0.04251   0.04353   0.04443   0.04536
     Eigenvalues ---    0.04565   0.04617   0.04674   0.04706   0.04737
     Eigenvalues ---    0.06960   0.07453   0.07661   0.09656   0.10264
     Eigenvalues ---    0.10703   0.11154   0.11693   0.11816   0.12231
     Eigenvalues ---    0.12363   0.12791   0.12900   0.13256   0.13507
     Eigenvalues ---    0.14081   0.14156   0.14829   0.15236   0.17664
     Eigenvalues ---    0.18007   0.19015   0.21062   0.22010   0.22462
     Eigenvalues ---    0.24980   0.25148   0.26776   0.27447   0.27793
     Eigenvalues ---    0.28822   0.30141   0.30461   0.31672   0.31840
     Eigenvalues ---    0.32132   0.32253   0.32601   0.32688   0.32778
     Eigenvalues ---    0.32833   0.32893   0.33088   0.33117   0.33339
     Eigenvalues ---    0.33518   0.33615   0.33886   0.33987   0.34169
     Eigenvalues ---    0.34298   0.34674   0.35684
 RFO step:  Lambda=-7.93838234D-05 EMin= 1.29901477D-03
 Linear search not attempted -- first point.
 Iteration  1 RMS(Cart)=  0.02504436 RMS(Int)=  0.00021210
 Iteration  2 RMS(Cart)=  0.00052957 RMS(Int)=  0.00000453
 Iteration  3 RMS(Cart)=  0.00000014 RMS(Int)=  0.00000453
 Variable       Old X    -DE/DX   Delta X   Delta X   Delta X     New X
                                 (Linear)    (Quad)   (Total)
    R1        2.06789  -0.00006   0.00000  -0.00010  -0.00010   2.06779
    R2        2.06796   0.00002   0.00000  -0.00006  -0.00006   2.06790
    R3        2.06250  -0.00011   0.00000  -0.00022  -0.00022   2.06228
    R4        2.86108  -0.00005   0.00000   0.00002   0.00002   2.86109
    R5        2.07509  -0.00004   0.00000  -0.00008  -0.00008   2.07500
    R6        2.07367   0.00004   0.00000  -0.00015  -0.00015   2.07353
    R7        2.89510  -0.00040   0.00000  -0.00002  -0.00002   2.89508
    R8        2.87637  -0.00034   0.00000   0.00034   0.00034   2.87671
    R9        2.06966  -0.00004   0.00000  -0.00041  -0.00041   2.06925
   R10        2.06854  -0.00008   0.00000  -0.00019  -0.00019   2.06835
   R11        2.89914  -0.00007   0.00000  -0.00070  -0.00070   2.89844
   R12        2.07710  -0.00008   0.00000  -0.00022  -0.00022   2.07688
   R13        2.07345  -0.00005   0.00000  -0.00017  -0.00017   2.07329
   R14        2.91115  -0.00003   0.00000   0.00013   0.00013   2.91128
   R15        2.07628  -0.00006   0.00000  -0.00020  -0.00020   2.07607
   R16        2.90140  -0.00007   0.00000  -0.00028  -0.00028   2.90112
   R17        2.90217  -0.00007   0.00000  -0.00024  -0.00024   2.90193
   R18        2.07080  -0.00010   0.00000  -0.00027  -0.00027   2.07053
   R19        2.06746  -0.00009   0.00000  -0.00023  -0.00023   2.06723
   R20        2.06752  -0.00008   0.00000  -0.00026  -0.00026   2.06726
   R21        2.05628   0.00005   0.00000   0.00010   0.00010   2.05639
   R22        2.05265   0.00004   0.00000   0.00014   0.00014   2.05279
   R23        2.78152  -0.00026   0.00000  -0.00092  -0.00092   2.78060
   R24        2.71438  -0.00026   0.00000  -0.00156  -0.00156   2.71282
   R25        2.06742  -0.00009   0.00000  -0.00027  -0.00027   2.06714
   R26        2.07133  -0.00011   0.00000  -0.00031  -0.00031   2.07102
   R27        2.06493  -0.00008   0.00000  -0.00026  -0.00026   2.06468
   R28        2.72906  -0.00137   0.00000  -0.00493  -0.00493   2.72414
    A1        1.88448  -0.00006   0.00000   0.00031   0.00031   1.88479
    A2        1.88870   0.00003   0.00000  -0.00131  -0.00131   1.88739
    A3        1.92616  -0.00008   0.00000  -0.00132  -0.00132   1.92484
    A4        1.89602   0.00002   0.00000   0.00085   0.00085   1.89687
    A5        1.93358   0.00034   0.00000   0.00344   0.00344   1.93702
    A6        1.93349  -0.00025   0.00000  -0.00198  -0.00198   1.93151
    A7        1.84801  -0.00020   0.00000   0.00100   0.00100   1.84901
    A8        1.90410   0.00027   0.00000  -0.00180  -0.00182   1.90228
    A9        1.86562   0.00037   0.00000   0.00018   0.00015   1.86577
   A10        1.91532   0.00039   0.00000   0.00431   0.00432   1.91964
   A11        1.88331   0.00068   0.00000   0.00557   0.00558   1.88888
   A12        2.03786  -0.00141   0.00000  -0.00851  -0.00852   2.02934
   A13        1.90250  -0.00048   0.00000  -0.00622  -0.00623   1.89628
   A14        1.91038  -0.00007   0.00000   0.00027   0.00026   1.91063
   A15        1.95890   0.00042   0.00000   0.00345   0.00345   1.96234
   A16        1.86524   0.00006   0.00000  -0.00024  -0.00025   1.86499
[...]
 0000737,-0.00005545,0.00015438,-0.00002879,0.00000021,-0.00000050,0.00
 005127,0.00000129,-0.00003509,-0.00000333,-0.00000676,-0.00002983,0.00
 001711,0.00000742,0.00000956,0.00000454,0.00000953,0.00000690,-0.00000
 120,-0.00000041,-0.00000048,0.00000522,-0.00000100,-0.00000012,-0.0000
 0055,-0.00000294,-0.00000087,-0.04205633,0.01457137,-0.04845721,0.0534
 7499,-0.03044135,0.05626945,-0.00050342,0.00049540,-0.00033672,0.00045
 609,0.00019590,-0.00005334,-0.00003706,-0.00001487,0.00006695,0.000386
 42,0.00018317,-0.00010943,-0.00003727,-0.00053151,0.00072229,0.0000833
 9,-0.00013774,-0.00008213,-0.00007300,-0.00001581,-0.00000350,-0.00090
 895,0.00082403,0.00044433,-0.00009787,-0.00005752,-0.00031884,-0.00140
 189,0.00114503,-0.00009829,-0.00006031,0.00015060,-0.00011381,0.000053
 60,-0.00003402,-0.00002527,-0.00001930,0.00003013,-0.00000437,0.000003
 39,-0.00005406,-0.00001684,-0.00001142,0.00000180,-0.00000488,0.000017
 12,0.00002287,0.00000311,-0.00000146,-0.00000258,-0.00000127,0.0000178
 5,-0.00000154,0.00000427,-0.00000516,0.00000077,-0.00000200,-0.2250842
 6,-0.13026067,0.02887559,-0.01637841,-0.01632569,0.00340910,0.23122711
 ,0.00160080,-0.00192514,0.00238110,-0.00098957,-0.00074720,-0.00035476
 ,-0.00009566,-0.00000072,-0.00026353,-0.00004824,0.00002883,0.00010927
 ,-0.00089074,0.00070237,-0.00080435,-0.00004999,0.00027336,0.00006499,
 0.00031685,-0.00013594,-0.00006168,-0.00053914,-0.00065334,0.00061943,
 0.00003721,-0.00004242,0.00016410,0.00103839,0.00042288,-0.00067629,0.
 00041822,0.00041098,-0.00025725,-0.00008207,0.00003479,0.00005761,-0.0
 0025177,0.00017462,-0.00003592,0.00008863,0.00005086,0.00005750,0.0000
 0497,-0.00001089,-0.00000470,-0.00001992,-0.00003641,-0.00001012,0.000
 00331,0.00000339,0.00000582,-0.00003435,-0.00000420,-0.00000406,0.0000
 0700,0.00000813,-0.00000164,-0.12832959,-0.14818082,0.02588507,0.00939
 225,0.00831369,-0.00278507,0.13902520,0.16075202,0.00085300,-0.0024530
 4,0.00242753,-0.00065355,-0.00114049,-0.00025434,0.00014313,0.00016451
 ,0.00008896,0.00022760,0.00001777,-0.00010590,0.00026068,0.00101978,0.
 00007671,-0.00014911,0.00004803,0.00001574,-0.00021953,-0.00003741,0.0
 0003102,0.00050177,0.00001191,0.00044638,-0.00002702,0.00016511,-0.000
 39954,0.00056302,-0.00011071,0.00025910,-0.00006783,0.00003737,-0.0002
 0477,0.00006214,-0.00005179,-0.00002746,-0.00003036,-0.00002335,0.0000
 2393,-0.00000917,0.00001571,0.00003460,-0.00000559,0.00000101,-0.00002
 775,-0.00000387,-0.00000383,-0.00001132,0.00000557,-0.00000510,-0.0000
 0229,-0.00000536,-0.00000028,0.00000141,0.00000192,-0.00000045,0.00000
 215,0.02669129,0.01970674,-0.04477642,-0.00329607,-0.00451684,0.003973
 83,-0.03368425,-0.03779526,0.05194296,-0.00003262,0.00003452,0.0000047
 8,0.00001970,0.00001755,-0.00000617,0.00000988,0.00000118,0.00000713,-
 0.00002287,-0.00000111,0.00000243,-0.00006984,-0.00012024,0.00014480,0
 .00001041,0.00025103,-0.00013456,0.00004582,0.00002393,0.00000428,0.00
 046769,-0.00077402,0.00035970,-0.00010534,0.00002604,0.00023800,-0.000
 91603,-0.00049325,-0.00009609,-0.00691421,-0.02325278,0.01840418,0.001
 26378,0.00118596,0.00045107,-0.00464266,-0.00276353,-0.00111577,-0.082
 21043,-0.01599195,0.01355040,-0.00136342,-0.00479918,0.00406007,0.0044
 5340,0.02131582,-0.01809279,0.00072277,-0.00047297,-0.00022045,0.00065
 811,0.00067347,-0.00050666,-0.00432632,0.00455827,-0.00116332,-0.00017
 191,-0.00011256,0.00006578,0.00000970,0.00004563,0.00000237,0.00000595
 ,0.00001738,-0.00001637,0.56340150,0.00002296,-0.00002629,0.00001726,-
 0.00000189,-0.00000746,-0.00000278,-0.00000259,-0.00000205,-0.00000744
 ,0.00000266,0.00001083,-0.00000040,0.00048984,-0.00059334,0.00042190,-
 0.00020465,-0.00011811,-0.00007651,-0.00001001,0.00000727,-0.00006471,
 -0.00036531,0.00109715,-0.00082724,-0.00018261,-0.00004946,0.00016570,
 -0.00001924,-0.00049826,0.00085635,-0.00901117,-0.01732764,0.01046768,
 0.00093199,0.00064290,0.00097571,-0.00223874,-0.00049038,-0.00052299,-
 0.01261287,-0.12963351,0.04575525,0.00212066,0.00830445,-0.00649646,0.
 00039805,-0.02302361,0.01745372,-0.00126676,0.00081773,0.00040118,-0.0
 0149006,0.00130761,-0.00057506,0.00245556,-0.00210705,0.00030471,0.000
 08358,0.00010661,-0.00006225,-0.00004310,-0.00002347,0.00001432,0.0000
 2522,-0.00005605,-0.00000450,-0.02016393,0.50815545,-0.00006126,0.0000
 5377,0.00003792,0.00001226,0.00000215,-0.00000290,0.00000396,-0.000001
 96,-0.00000580,-0.00003439,-0.00000675,-0.00000295,-0.00027922,0.00019
 352,0.00029513,0.00004276,0.00006063,-0.00006437,-0.00000487,-0.000009
 31,-0.00005236,0.00006850,-0.00052274,0.00005753,-0.00007919,-0.000021
 77,0.00007396,0.00008673,0.00004718,0.00020640,0.00148451,-0.00497273,
 0.00606612,-0.00081581,-0.00120935,0.00094135,-0.00265391,-0.00257541,
 0.00019186,0.01258803,0.04763265,-0.12137980,0.00629630,0.02494013,-0.
 02137283,-0.00210794,0.00598784,-0.00324406,0.00061764,-0.00149905,0.0
 0107715,0.00039982,-0.00006495,-0.00010909,0.00006449,-0.00086818,0.00
 092480,-0.00003684,-0.00000498,0.00000344,-0.00002008,0.00001563,0.000
 00898,0.00000491,-0.00001732,-0.00001543,0.01848417,0.04927975,0.51195
 700,-0.00004644,0.00003898,0.00002323,0.00001044,-0.00000229,-0.000001
 53,0.00000838,-0.00000116,-0.00000209,-0.00003205,0.00000041,0.0000012
 4,0.00003995,-0.00008774,0.00019254,-0.00011063,-0.00004298,-0.0000336
 0,-0.00000645,0.00000551,-0.00002670,0.00014601,0.00004180,-0.00035083
 ,-0.00001122,-0.00004416,0.00008285,0.00026162,-0.00023209,0.00025040,
 0.00084382,-0.00019631,0.00163342,0.00007842,0.00007876,-0.00011983,-0
 .00031426,-0.00034438,-0.00013037,-0.00620708,-0.00256467,-0.00200499,
 -0.00006829,0.00010232,0.00044964,0.00062039,0.00110514,-0.00040115,0.
 00001341,0.00002601,0.00004585,0.00068875,-0.00015672,0.00007907,0.000
 16740,0.00010967,0.00022272,0.00002482,0.00001861,-0.00000485,-0.00004
 084,0.00000128,0.00000429,0.00002331,-0.00004750,-0.00001184,-0.223450
 63,-0.10321825,-0.06206870,0.24233680,-0.00002885,0.00002594,0.0000108
 3,0.00000742,0.00000149,-0.00000087,0.00000461,-0.00000114,-0.00000030
 ,-0.00001826,-0.00000256,0.00000164,-0.00020155,0.00021732,-0.00009455
 ,0.00011041,0.00010581,-0.00000789,0.00001122,-0.00000194,0.00000244,0
 .00062987,-0.00036797,0.00027414,-0.00005988,0.00003622,-0.00001139,-0
 .00017245,0.00029182,-0.00032098,0.00049205,-0.00333257,0.00442682,0.0
 0036331,0.00031812,0.00013757,-0.00156753,-0.00081341,-0.00008619,-0.0
 2002852,-0.01279685,-0.00846527,0.00035915,0.00096335,0.00010421,-0.00
 124788,0.00069559,-0.00111771,0.00001200,-0.00011058,0.00000169,0.0008
 4624,-0.00029137,0.00054008,0.00023777,0.00046695,0.00002410,-0.000038
 86,-0.00003308,0.00002080,-0.00000640,0.00001543,0.00000174,0.00000062
 ,0.00000121,-0.00000075,-0.10190746,-0.10559130,-0.03653591,0.11404825
 ,0.11516273,0.00000689,-0.00000704,-0.00000738,-0.00000234,-0.00000271
 ,0.00000204,0.00000121,0.00000115,0.00000092,0.00000326,0.00000216,0.0
 0000103,0.00008603,-0.00005278,-0.00003059,-0.00002862,-0.00006001,0.0
 0003049,0.00001011,0.00002088,0.00001415,-0.00027814,0.00028766,-0.000
 03304,0.00000329,-0.00003814,0.00001909,0.00007704,-0.00019092,0.00002
 660,-0.00005834,0.00303113,-0.00287607,0.00004904,0.00033465,0.0002803
 3,0.00096368,0.00079636,0.00051476,0.01865369,0.01111168,0.00617370,0.
 00009595,-0.00083586,0.00077783,0.00066505,-0.00052795,0.00067143,-0.0
 0019386,-0.00002289,-0.00007169,-0.00027226,-0.00001474,0.00014568,0.0
 0019861,-0.00026411,-0.00003735,0.00002920,0.00000671,-0.00000600,-0.0
 0000268,-0.00000611,-0.00000276,-0.00000139,-0.00000770,-0.00000223,-0
 .06277547,-0.03743723,-0.06846223,0.06826584,0.03747405,0.07224829,0.0
 0000429,-0.00000549,0.00000532,-0.00000270,0.00000051,-0.00000145,-0.0
 0000543,-0.00000365,-0.00000441,0.00000471,-0.00000103,-0.00000131,0.0
 0000723,-0.00001250,0.00002475,0.00000269,-0.00000902,-0.00000086,-0.0
 0004089,-0.00004292,-0.00003052,-0.00021835,-0.00007914,-0.00015066,0.
 00014674,0.00005058,-0.00014921,-0.00005149,0.00012574,0.00011494,0.00
 037323,0.00097360,0.00114846,-0.00001573,-0.00036854,-0.00030501,0.000
 06902,-0.00000280,-0.00027184,-0.00231822,0.00224267,0.00700848,0.0003
 7888,-0.00129527,0.00091216,0.00015838,-0.00014322,-0.00098198,0.00035
 735,0.00003411,-0.00005583,0.00003125,-0.00007366,-0.00011989,-0.00012
 705,-0.00001810,0.00007719,0.00001308,0.00001626,-0.00000449,-0.000001
 79,-0.00000443,0.00000265,0.00000499,0.00001042,0.00002312,-0.05304326
 ,0.01436895,0.03467303,0.00497603,-0.00962156,-0.02548705,0.05270035,0
 .00000786,-0.00000499,-0.00000893,-0.00000054,0.00000141,0.00000174,0.
 00000060,0.00000437,0.00000426,0.00000514,-0.00000061,-0.00000042,-0.0
 0004013,0.00001730,-0.00006021,0.00000630,0.00001381,0.00001029,-0.000
 00137,0.00001498,0.00001411,0.00002123,0.00003723,-0.00004173,0.000075
 36,-0.00009709,0.00002862,0.00000672,-0.00003958,-0.00012410,0.0005605
 6,0.00171953,0.00071576,0.00013394,-0.00008386,-0.00064149,0.00032774,
 0.00017889,-0.00020282,-0.00395965,0.00853036,0.02378984,-0.00111385,-
 0.00328807,0.00379206,-0.00067362,0.00163615,0.00041028,0.00014035,-0.
 00010654,-0.00050911,0.00008773,-0.00011030,-0.00005730,-0.00013836,0.
 00017296,-0.00031082,-0.00002082,-0.00001721,0.00000251,0.00001411,0.0
 0000224,-0.00000494,-0.00000846,0.00000389,-0.00001781,0.01427823,-0.0
 8081609,-0.08561569,0.00321932,-0.00634033,-0.01352859,-0.01459096,0.0
 8661008,0.00001610,-0.00001217,-0.00001128,-0.00000144,-0.00000029,-0.
 00000090,0.00000239,0.00000367,0.00000723,0.00000820,0.00000232,-0.000
 00007,0.00002907,-0.00004769,-0.00003117,0.00000474,0.00000141,0.00000
 489,0.00004008,0.00003421,0.00003600,0.00015592,0.00016919,0.00005486,
 -0.00018648,0.00003612,0.00008567,0.00007359,-0.00005677,-0.00012139,-
 0.00091643,-0.00120235,0.00065164,0.00067490,0.00068429,0.00077279,-0.
 00017000,0.00010408,0.00043321,0.00381000,-0.00757012,-0.02214683,0.00
 073600,0.00416928,-0.00157786,0.00041271,-0.00123623,0.00060470,-0.000
 69232,0.00093607,0.00038121,0.00002009,0.00003099,-0.00004010,-0.00004
 727,0.00017114,0.00050083,-0.00000860,-0.00000336,-0.00001822,0.000011
 37,-0.00000239,-0.00000116,-0.00000431,0.00000211,-0.00001232,0.034575
 43,-0.08528190,-0.25955647,0.00121889,-0.00319794,-0.00829627,-0.03981
 080,0.09174021,0.28622246,0.00002215,-0.00002184,-0.00000789,-0.000005
 48,-0.00000316,0.00000232,-0.00000302,0.00000142,-0.00000109,0.0000143
 9,0.00000315,-0.00000075,0.00010286,-0.00017878,0.00007764,-0.00005629
 ,-0.00005715,0.00000038,0.00000780,0.00001031,0.00000220,-0.00099562,-
 0.00036849,-0.00008094,0.00000364,0.00004781,0.00006434,-0.00134445,-0
 .00111612,0.00044926,0.00016225,0.00034577,-0.00059295,-0.00004844,-0.
 00005294,-0.00001378,0.00014510,0.00017704,0.00006228,0.00612281,-0.00
 555217,-0.00032661,0.00045298,0.00041540,-0.00062718,0.00025390,-0.000
 83156,0.00015661,-0.00003999,-0.00015455,0.00003056,0.00036684,-0.0000
 9343,0.00028736,0.00035845,-0.00011582,0.00022600,0.00002188,0.0000061
 4,-0.00001477,0.00001480,-0.00000162,-0.00000020,-0.00001693,0.0000175
 9,0.00000855,-0.19391036,0.12984932,-0.00666906,-0.01998904,0.01778065
 ,-0.00001032,-0.00338330,0.00165519,0.00003125,0.21172545,0.00003222,-
 0.00002868,-0.00001739,-0.00000516,0.00000747,-0.00000199,-0.00000416,
 0.00000033,0.00000436,0.00002477,-0.00000354,0.00000096,-0.00030260,0.
 00039069,-0.00038191,0.00025034,0.00018293,0.00001943,0.00002957,-0.00
 001019,0.00005383,0.00020370,-0.00060585,0.00077656,-0.00005227,0.0000
 4052,-0.00003819,-0.00096951,0.00058455,-0.00064407,0.00121717,0.00042
 372,-0.00035094,-0.00006131,-0.00006656,0.00002477,-0.00004509,0.00016
 842,0.00002872,0.01844260,-0.01549418,-0.00123575,-0.00025519,0.001082
 99,0.00005466,-0.00273543,-0.00305293,0.00391400,-0.00031373,0.0003226
 3,-0.00009080,0.00011964,0.00024826,0.00005612,0.00137351,-0.00094657,
 0.00037214,-0.00007614,-0.00005884,0.00001544,0.00004673,0.00001299,-0
 .00000567,-0.00002533,0.00006785,0.00001329,0.12831936,-0.16019799,0.0
 0579150,-0.01181661,0.01139562,-0.00007006,0.00846446,-0.00805161,0.00
 049109,-0.14179532,0.17354785,-0.00000314,0.00000177,0.00000320,-0.000
 00045,-0.00000131,-0.00000110,-0.00000204,-0.00000550,-0.00000446,-0.0
 0000141,0.00000058,0.00000116,0.00008663,-0.00007966,-0.00003841,-0.00
 003900,-0.00000784,-0.00000999,-0.00004489,-0.00004964,-0.00003331,0.0
 0006337,-0.00008369,0.00034210,0.00006482,0.00007203,-0.00025695,0.000
 07632,0.00008240,0.00031305,-0.00016874,-0.00069892,0.00045125,0.00011
 886,-0.00002497,0.00000987,-0.00011295,-0.00007003,-0.00008347,-0.0176
 4854,0.01320155,-0.00079610,-0.00042946,-0.00073490,0.00054700,0.00179
 321,0.00308485,-0.00275320,-0.00010721,0.00035689,0.00024244,0.0003536
 1,-0.00021735,-0.00000093,-0.00093693,0.00124247,0.00017086,0.00002192
 ,0.00001230,0.00000481,-0.00001275,-0.00000357,0.00000311,0.00000946,0
 .00000275,0.00004865,-0.00611104,0.00520200,-0.04748226,-0.00730882,0.
 00687567,-0.00112057,0.02341909,-0.01940127,0.00200730,0.00692769,-0.0
 0874805,0.04847139,-0.16271534,-0.05513564,-0.01055426,0.00152578,0.00
 104724,0.00047379,0.00190040,0.00258744,0.00137176,-0.02390974,-0.0184
 9295,-0.00624615,-0.17086839,0.03877197,0.00598203,-0.00492485,0.00412
 895,0.00133449,0.00071330,0.00028096,-0.00071903,-0.02752639,0.0083801
 0,0.00211088,0.00083328,0.00066250,0.00112233,0.00128498,0.00071585,-0
 .00011848,-0.00152429,-0.00320188,-0.00087139,0.00001732,0.00000953,0.
 00029760,0.00005943,0.00005579,-0.00015195,-0.00044800,0.00086884,0.00
 018254,0.00007851,0.00003123,-0.00002360,-0.00016904,-0.00010782,-0.00
 010488,-0.00000562,-0.00002683,-0.00000292,0.00003988,0.00008091,0.000
 01235,-0.00002938,-0.00000987,-0.00001574,-0.06449507,0.02815710,-0.00
 385503,-0.00201215,0.02301900,0.01572944,0.00517504,-0.02008137,-0.015
 19484,0.00013678,0.00012628,0.00005735,0.00014824,0.00003208,0.0000115
 9,-0.00004206,-0.00001749,-0.00000701,-0.00000815,-0.00017539,0.000017
 80,0.50953963,-0.05652050,-0.11831590,-0.00305289,-0.02463542,-0.02071
 144,-0.00664270,-0.00284943,-0.00432853,-0.00071697,0.01310304,0.00768
 065,0.00262768,0.03235617,-0.09862586,0.00052268,0.02860708,-0.0174636
 9,-0.00565055,0.00595339,-0.00518268,-0.00133365,-0.01256917,0.0136718
 0,0.00593164,-0.00013775,-0.00003458,-0.00143797,-0.00109844,-0.000595
 00,0.00066883,-0.00295283,-0.00469048,-0.00147369,0.00025576,-0.000225
 86,0.00004463,0.00010838,0.00022951,-0.00031988,-0.00116562,0.00150654
 ,0.00004515,0.00003507,-0.00001041,-0.00005779,-0.00043454,-0.00051278
 ,-0.00013182,0.00001408,0.00001641,0.00003040,-0.00026415,0.00011930,-
 0.00003913,0.00003833,0.00001264,-0.00001332,0.03150131,-0.27835316,0.
 02007432,-0.00229898,-0.00629434,-0.00091101,0.00442256,-0.00981868,-0
 .00398242,-0.00002035,0.00017225,-0.00010489,-0.00006863,-0.00004906,0
 .00001042,0.00000535,0.00000356,0.00003004,0.00006599,0.00002930,0.000
 00170,-0.01341221,0.60997682,-0.01553189,-0.01038197,-0.07031296,0.015
 09616,0.01026092,0.00340143,-0.02427717,-0.01900263,-0.00626550,0.0072
 5234,0.00535570,-0.00072727,0.01100403,-0.00740532,-0.06921219,-0.0167
 8099,0.00860785,0.00278130,0.02773837,-0.01514982,-0.00673856,-0.00437
 343,0.00752441,0.00124466,-0.00184122,-0.00081510,-0.00127582,0.000421
 58,-0.00019881,0.00000101,-0.00204914,-0.00226837,-0.00188980,0.000145
 27,-0.00002252,0.00012957,0.00026648,-0.00028606,0.00022134,-0.0006556
 4,0.00061250,0.00073703,0.00004848,-0.00000562,-0.00008516,-0.00020332
 ,-0.00026520,-0.00008575,0.00001664,0.00000112,0.00000456,-0.00014919,
 0.00004752,-0.00001976,0.00002238,0.00002600,0.00000548,0.00305891,-0.
 03383781,0.01406352,-0.00125578,0.00791511,-0.00338324,-0.00078531,0.0
 0715215,-0.00414085,-0.00013773,-0.00001842,-0.00013901,-0.00006943,-0
 .00006881,0.00003523,0.00001606,-0.00000242,-0.00000359,0.00003245,0.0
 0002925,0.00002746,-0.00409588,0.08511799,0.30177357,0.00406986,-0.002
 97987,-0.02862394,0.00156363,0.00076109,0.00100182,-0.00358839,-0.0049
 5107,-0.00160857,0.00312881,0.00128387,-0.00015346,0.00056768,0.005320
 42,0.03348140,0.00220720,-0.00091310,-0.00126625,-0.00576732,0.0038650
 5,0.00120106,0.00009561,-0.00046006,-0.00101228,-0.00029020,0.00093401
 ,0.00195041,-0.00003048,0.00000289,0.00054844,0.00057386,0.00025846,0.
 00140014,-0.00046694,0.00021282,-0.00008524,-0.00005954,0.00012229,-0.
 00010350,0.00029800,0.00011735,-0.00005616,-0.00000741,-0.00003913,0.0
 0001671,-0.00004169,-0.00010513,0.00002145,0.00000949,0.00002301,0.000
 01806,-0.00010315,-0.00001377,-0.00002519,0.00002724,0.00001687,-0.000
 00543,-0.06122070,-0.00207840,-0.00598516,0.00814957,0.00482399,-0.030
 64932,0.00718245,-0.00051832,0.02403298,-0.00002557,-0.00004386,-0.000
 05319,-0.00011086,-0.00003643,-0.00001004,0.00002208,0.00002486,0.0000
 2392,0.00002577,0.00010916,-0.00002541,-0.06277409,0.00196149,0.007086
 96,0.10656510,-0.00146725,-0.00958848,-0.03445848,0.00258851,0.0019427
 7,0.00155874,-0.00457585,-0.00399963,-0.00065420,0.00117306,0.00137889
 ,0.00106975,0.00527171,-0.00711401,-0.02570995,-0.00261634,0.00145239,
 0.00128881,0.00418747,-0.00168337,-0.00006458,-0.00199071,-0.00049260,
 0.00019803,0.00037551,0.00000086,0.00069522,0.00052368,0.00031445,-0.0
 0057251,0.00018040,0.00039280,0.00021408,-0.00018872,0.00009203,0.0001
 4198,-0.00011058,0.00006447,-0.00004182,0.00000316,-0.00013164,0.00004
 321,0.00004216,0.00002294,0.00003307,0.00004972,0.00007195,-0.00000824
 ,-0.00001400,-0.00000708,0.00000557,0.00005215,-0.00000446,0.00000831,
 -0.00002015,0.00001395,-0.00001706,-0.00162205,-0.06353862,0.06133011,
 0.00310521,-0.00846163,0.02091053,0.00094653,-0.00963708,0.02894280,0.
 00012496,-0.00006021,0.00002625,0.00002742,0.00003456,-0.00001002,-0.0
 0002035,0.00000951,0.00000499,-0.00003284,0.00001080,-0.00001029,0.001
 70567,-0.06820633,-0.04292165,-0.00769849,0.16712277,-0.00214159,-0.00
 869796,-0.01688554,-0.00032329,-0.00160472,0.00176297,-0.00260055,-0.0
 0206540,0.00195335,-0.00053895,0.00093598,0.00006698,0.00457331,-0.006
 55990,-0.01503070,0.00100060,-0.00149465,0.00189871,0.00217664,-0.0010
 1890,0.00205998,-0.00165582,-0.00099484,-0.00195548,0.00186862,0.00099
 934,0.00145394,-0.00037686,-0.00037906,0.00049881,0.00041612,0.0003021
 5,0.00131077,-0.00049384,0.00033125,0.00025212,0.00008784,-0.00014461,
 -0.00009522,0.00010442,-0.00016563,-0.00021876,0.00011165,0.00007553,0
 .00016090,0.00005450,0.00008276,0.00004537,-0.00003159,0.00001322,0.00
 002743,0.00006046,-0.00000518,-0.00000715,-0.00000147,-0.00004694,-0.0
 0000322,-0.01283487,0.10908643,-0.17628146,-0.00372153,0.00598104,-0.0
 1076067,0.00210594,0.00657774,-0.00939233,0.00002182,0.00006235,0.0000
 4789,0.00006475,0.00001278,0.00000460,-0.00004995,0.00001799,0.0000548
 4,-0.00001336,-0.00006131,-0.00006288,0.01325723,-0.08923682,-0.160146
 71,-0.00112024,-0.01200265,0.37924145\\0.00000131,-0.00000751,0.000008
 37,0.00000330,-0.00000498,0.00001219,0.00000039,-0.00001206,0.00000957
 ,0.00000090,-0.00000802,0.00000754,0.00000074,-0.00000277,0.00000511,0
 .00000316,-0.00000093,0.00000796,0.00000030,-0.00000755,0.00000579,0.0
 0000049,0.00000035,-0.00000085,0.00000039,0.00000398,-0.00000237,-0.00
 000219,-0.00000263,-0.00000436,0.00000092,0.00000195,0.00000101,0.0000
 0060,-0.00000192,0.00000274,0.00000320,0.00000479,0.00000496,0.0000001
 5,0.00000572,-0.00000341,0.00000060,0.00000970,-0.00000517,0.00000199,
 0.00000837,-0.00000102,0.00000156,0.00000473,0.00000075,0.00000130,0.0
 0001115,-0.00000433,0.00000406,0.00001113,0.00000251,-0.00000256,-0.00
 000467,-0.00000231,-0.00000326,-0.00000733,-0.00000327,-0.00000371,-0.
 00000403,-0.00000638,-0.00000263,0.00000231,-0.00000868,-0.00000340,0.
 00000500,-0.00001203,-0.00000334,-0.00000167,-0.00000722,-0.00000414,0
 .00000075,-0.00001083,0.00000037,-0.00000392,0.00000383,-0.00000048,0.
 00000007,-0.00000010\\\@
 Job cpu time:  0 days  4 hours  9 minutes 57.7 seconds.
 File lengths (MBytes):  RWF=  41977 Int=      0 D2E=      0 Chk=     16 Scr=      1
 Normal termination of Gaussian 09 at Tue Mar 11 13:41:21 2014.
