 Entering Gaussian System, Link 0=g09
 Initial command:
 /usr/caen/gaussian-09revc/g09/l1.exe /scratch/avioli_flux/hetanjin/scratch/Gau-1304.inp -scrdir=/scratch/avioli_flux/hetanjin/scratch/
 Entering Link 1 = /usr/caen/gaussian-09revc/g09/l1.exe PID=      1305.
  
 Copyright (c) 1988,1990,1992,1993,1995,1998,2003,2009,2011,
            Gaussian, Inc.  All Rights Reserved.
  
 This is part of the Gaussian(R) 09 program.  It is based on
 the Gaussian(R) 03 system (copyright 2003, Gaussian, Inc.),
 the Gaussian(R) 98 system (copyright 1998, Gaussian, Inc.),
 the Gaussian(R) 94 system (copyright 1995, Gaussian, Inc.),
 the Gaussian 92(TM) system (copyright 1992, Gaussian, Inc.),
 the Gaussian 90(TM) system (copyright 1990, Gaussian, Inc.),
 the Gaussian 88(TM) system (copyright 1988, Gaussian, Inc.),
 the Gaussian 86(TM) system (copyright 1986, Carnegie Mellon
 University), and the Gaussian 82(TM) system (copyright 1983,
 Carnegie Mellon University). Gaussian is a federally registered
 trademark of Gaussian, Inc.
  
 This software contains proprietary and confidential information,
 including trade secrets, belonging to Gaussian, Inc.
  
 This software is provided under written license and may be
 used, copied, transmitted, or stored only in accord with that
 written license.
  
 The following legend is applicable only to US Government
 contracts under FAR:
  
                    RESTRICTED RIGHTS LEGEND
  
 Use, reproduction and disclosure by the US Government is
 subject to restrictions as set forth in subparagraphs (a)
 and (c) of the Commercial Computer Software - Restricted
 Rights clause in FAR 52.227-19.
  
 Gaussian, Inc.
 340 Quinnipiac St., Bldg. 40, Wallingford CT 06492
  
  
 ---------------------------------------------------------------
 Warning -- This program may not be used in any manner that
 competes with the business of Gaussian, Inc. or will provide
 assistance to any competitor of Gaussian, Inc.  The licensee
 of this program is prohibited from giving any competitor of
 Gaussian, Inc. access to this program.  By using this program,
 the user acknowledges that Gaussian, Inc. is engaged in the
 business of creating and licensing software in the field of
 computational chemistry and represents and warrants to the
 licensee that it is not a competitor of Gaussian, Inc. and that
 it will not use this program in any manner prohibited above.
 ---------------------------------------------------------------
  

 Cite this work as:
 Gaussian 09, Revision C.01,
 M. J. Frisch, G. W. Trucks, H. B. Schlegel, G. E. Scuseria, 
 M. A. Robb, J. R. Cheeseman, G. Scalmani, V. Barone, B. Mennucci, 
 G. A. Petersson, H. Nakatsuji, M. Caricato, X. Li, H. P. Hratchian, 
 A. F. Izmaylov, J. Bloino, G. Zheng, J. L. Sonnenberg, M. Hada, 
 M. Ehara, K. Toyota, R. Fukuda, J. Hasegawa, M. Ishida, T. Nakajima, 
 Y. Honda, O. Kitao, H. Nakai, T. Vreven, J. A. Montgomery, Jr., 
 J. E. Peralta, F. Ogliaro, M. Bearpark, J. J. Heyd, E. Brothers, 
 K. N. Kudin, V. N. Staroverov, T. Keith, R. Kobayashi, J. Normand, 
 K. Raghavachari, A. Rendell, J. C. Burant, S. S. Iyengar, J. Tomasi, 
 M. Cossi, N. Rega, J. M. Millam, M. Klene, J. E. Knox, J. B. Cross, 
 V. Bakken, C. Adamo, J. Jaramillo, R. Gomperts, R. E. Stratmann, 
 O. Yazyev, A. J. Austin, R. Cammi, C. Pomelli, J. W. Ochterski, 
 R. L. Martin, K. Morokuma, V. G. Zakrzewski, G. A. Voth, 
 P. Salvador, J. J. Dannenberg, S. Dapprich, A. D. Daniels, 
 O. Farkas, J. B. Foresman, J. V. Ortiz, J. Cioslowski, 
 and D. J. Fox, Gaussian, Inc., Wallingford CT, 2010.
 
 ******************************************
 Gaussian 09:  EM64L-G09RevC.01 23-Sep-2011
                 9-Feb-2014 
 ******************************************
 %mem=30GB
 %nprocshared=8
 Will use up to    8 processors via shared memory.
 %chk=C9H18O_3_26.chk
 -------------------------------------------------
 #p B3LYP/6-311++G(d,p) guess=mix stable=(opt,xqc)
 -------------------------------------------------
 1/38=1/1;
 2/12=2,17=6,18=5,40=1/2;
 3/5=4,6=6,7=1111,11=2,16=1,25=1,30=1,74=-5/1,2,3;
 4/13=-1/1;
 5/5=2,38=5/2;
 6/7=2,8=2,9=2,10=2,28=1/1;
 8/6=1,10=90,11=11/1;
 9/8=-3,42=1,46=1/14;
 5/5=2,8=3,13=1,17=40,38=5/2,8(-2);
 6/7=2,8=2,9=2,10=2,28=1/1;
 99/5=1,9=1/99;
 Leave Link    1 at Sun Feb  9 01:59:17 2014, MaxMem= 4026531840 cpu:       0.6
 (Enter /usr/caen/gaussian-09revc/g09/l101.exe)
 ----------------------------------------
 C9H18O_3_26 using cbs-qb3 to cal. energy
 ----------------------------------------
 Charge =  0 Multiplicity = 1
 Symbolic Z-Matrix:
 C                     3.57488  -0.59804  -0.76072 
 H                     3.28186  -1.21416  -1.61523 
 H                     3.81597  -1.26841   0.0666 
 H                     4.477    -0.04477  -1.03595 
 C                     2.45635   0.36957  -0.35748 
 H                     2.19864   1.00469  -1.21319 
 C                    -0.13466   0.19935  -0.39135 
 H                    -0.14575   0.11763  -1.48862 
 H                    -0.11081   1.27738  -0.19108 
 C                    -1.36938  -0.46945   0.21107 
 H                    -1.37278  -0.31173   1.29635 
 H                    -1.27772  -1.55047   0.0711 
 C                    -2.71019   0.00708  -0.37794 
 H                    -2.66435  -0.13178  -1.46746 
 C                    -3.86239  -0.85695   0.15353 
 H                    -3.95269  -0.76025   1.24101 
 H                    -4.81827  -0.55774  -0.28651 
 H                    -3.70423  -1.91524  -0.07338 
 C                    -2.98172   1.49369  -0.10368 
 H                    -3.9465    1.79834  -0.51967 
 H                    -3.00872   1.69021   0.97415 
 H                    -2.21865   2.14215  -0.54241 
 C                     1.19236  -0.38579   0.06943 
 O                     1.25711  -1.38608   0.75191 
 C                     2.89433   1.28536   0.80404 
 H                     2.10528   1.98536   1.09375 
 H                     3.15695   0.68697   1.68019 
 H                     3.77033   1.87151   0.51362 
 
 NAtoms=     28 NQM=        0 NQMF=       0 NMMI=     28 NMMIF=      0
                NMic=       0 NMicF=      0.
                    Isotopes and Nuclear Properties:
 (Nuclear quadrupole moments (NQMom) in fm**2, nuclear magnetic moments (NMagM)
  in nuclear magnetons)

  Atom         1           2           3           4           5           6           7           8           9          10
 IAtWgt=          12           1           1           1          12           1          12           1           1          12
 AtmWgt=  12.0000000   1.0078250   1.0078250   1.0078250  12.0000000   1.0078250  12.0000000   1.0078250   1.0078250  12.0000000
 NucSpn=           0           1           1           1           0           1           0           1           1           0
 AtZEff=   0.0000000   0.0000000   0.0000000   0.0000000   0.0000000   0.0000000   0.0000000   0.0000000   0.0000000   0.0000000
 NQMom=    0.0000000   0.0000000   0.0000000   0.0000000   0.0000000   0.0000000   0.0000000   0.0000000   0.0000000   0.0000000
 NMagM=    0.0000000   2.7928460   2.7928460   2.7928460   0.0000000   2.7928460   0.0000000   2.7928460   2.7928460   0.0000000

  Atom        11          12          13          14          15          16          17          18          19          20
 IAtWgt=           1           1          12           1          12           1           1           1          12           1
 AtmWgt=   1.0078250   1.0078250  12.0000000   1.0078250  12.0000000   1.0078250   1.0078250   1.0078250  12.0000000   1.0078250
 NucSpn=           1           1           0           1           0           1           1           1           0           1
 AtZEff=   0.0000000   0.0000000   0.0000000   0.0000000   0.0000000   0.0000000   0.0000000   0.0000000   0.0000000   0.0000000
 NQMom=    0.0000000   0.0000000   0.0000000   0.0000000   0.0000000   0.0000000   0.0000000   0.0000000   0.0000000   0.0000000
 NMagM=    2.7928460   2.7928460   0.0000000   2.7928460   0.0000000   2.7928460   2.7928460   2.7928460   0.0000000   2.7928460

  Atom        21          22          23          24          25          26          27          28
 IAtWgt=           1           1          12          16          12           1           1           1
 AtmWgt=   1.0078250   1.0078250  12.0000000  15.9949146  12.0000000   1.0078250   1.0078250   1.0078250
 NucSpn=           1           1           0           0           0           1           1           1
 AtZEff=   0.0000000   0.0000000   0.0000000   0.0000000   0.0000000   0.0000000   0.0000000   0.0000000
 NQMom=    0.0000000   0.0000000   0.0000000   0.0000000   0.0000000   0.0000000   0.0000000   0.0000000
 NMagM=    2.7928460   2.7928460   0.0000000   0.0000000   0.0000000   2.7928460   2.7928460   2.7928460
 Leave Link  101 at Sun Feb  9 01:59:17 2014, MaxMem= 4026531840 cpu:       0.6
 (Enter /usr/caen/gaussian-09revc/g09/l202.exe)
                          Input orientation:                          
 ---------------------------------------------------------------------
 Center     Atomic      Atomic             Coordinates (Angstroms)
 Number     Number       Type             X           Y           Z
 ---------------------------------------------------------------------
      1          6           0        3.574879   -0.598035   -0.760715
      2          1           0        3.281858   -1.214163   -1.615227
      3          1           0        3.815972   -1.268411    0.066604
      4          1           0        4.477003   -0.044770   -1.035946
      5          6           0        2.456353    0.369569   -0.357482
      6          1           0        2.198636    1.004687   -1.213185
      7          6           0       -0.134661    0.199350   -0.391348
      8          1           0       -0.145748    0.117626   -1.488615
      9          1           0       -0.110808    1.277378   -0.191077
     10          6           0       -1.369381   -0.469445    0.211072
     11          1           0       -1.372775   -0.311729    1.296350
     12          1           0       -1.277717   -1.550472    0.071100
     13          6           0       -2.710188    0.007081   -0.377944
     14          1           0       -2.664348   -0.131780   -1.467459
     15          6           0       -3.862387   -0.856949    0.153532
     16          1           0       -3.952689   -0.760246    1.241008
     17          1           0       -4.818266   -0.557735   -0.286514
     18          1           0       -3.704229   -1.915235   -0.073383
     19          6           0       -2.981715    1.493689   -0.103681
     20          1           0       -3.946500    1.798344   -0.519669
     21          1           0       -3.008718    1.690210    0.974152
     22          1           0       -2.218652    2.142145   -0.542407
     23          6           0        1.192358   -0.385793    0.069429
     24          8           0        1.257113   -1.386083    0.751914
     25          6           0        2.894327    1.285362    0.804038
     26          1           0        2.105284    1.985358    1.093746
     27          1           0        3.156953    0.686971    1.680186
     28          1           0        3.770332    1.871513    0.513618
 ---------------------------------------------------------------------
                    Distance matrix (angstroms):
                    1          2          3          4          5
     1  C    0.000000
     2  H    1.093465   0.000000
     3  H    1.091781   1.765439   0.000000
     4  H    1.093472   1.769581   1.774789   0.000000
     5  C    1.532956   2.184396   2.170574   2.171409   0.000000
     6  H    2.160438   2.501660   3.069301   2.514703   1.096367
     7  C    3.812210   3.894676   4.239286   4.662890   2.596820
     8  H    3.858118   3.679426   4.476051   4.647699   2.848485
     9  H    4.174440   4.443665   4.686901   4.848700   2.728026
    10  C    5.040497   5.052128   5.248533   5.992963   3.957706
    11  H    5.365889   5.563926   5.417620   6.303235   4.226293
    12  H    5.014653   4.873041   5.101495   6.050578   4.220606
    13  C    6.325721   6.239144   6.664478   7.217435   5.179282
    14  H    6.296414   6.045722   6.755725   7.154905   5.263552
    15  C    7.497720   7.368605   7.689867   8.462855   6.456931
    16  H    7.790859   7.791199   7.873344   8.761058   6.701304
    17  H    8.406627   8.234585   8.670630   9.339529   7.333826
    18  H    7.429189   7.188477   7.549265   8.447350   6.576763
    19  C    6.913460   6.989247   7.339397   7.672578   5.558835
    20  H    7.897587   7.907250   8.366880   8.638230   6.562334
    21  H    7.182589   7.396730   7.493562   7.942712   5.777919
    22  H    6.412585   6.532332   6.958410   7.061018   5.003188
    23  C    2.531915   2.808963   2.768099   3.482390   1.533137
    24  O    2.877691   3.119696   2.651652   3.919599   2.398176
    25  C    2.541414   3.500093   2.813360   2.767608   1.542604
    26  H    3.503235   4.354285   3.816869   3.779161   2.200020
    27  H    2.789964   3.806528   2.619441   3.107306   2.177998
    28  H    2.785820   3.780474   3.171912   2.563722   2.177428
                    6          7          8          9         10
     6  H    0.000000
     7  C    2.601588   0.000000
     8  H    2.521681   1.100362   0.000000
     9  H    2.540196   1.096732   1.740647   0.000000
    10  C    4.114890   1.527982   2.175055   2.190233   0.000000
    11  H    4.559133   2.154635   3.073430   2.516001   1.096683
    12  H    4.501473   2.140634   2.548846   3.070366   1.093898
    13  C    5.078326   2.582728   2.796813   2.899198   1.540059
    14  H    5.000483   2.768931   2.531007   3.183621   2.146724
    15  C    6.486109   3.912621   4.178498   4.329948   2.523598
    16  H    6.853966   4.261778   4.765952   4.578518   2.796214
    17  H    7.248227   4.745558   4.871713   5.053406   3.485713
    18  H    6.683480   4.161056   4.335688   4.808254   2.760931
    19  C    5.320353   3.140666   3.443007   2.880371   2.559802
    20  H    6.234866   4.135621   4.267246   3.884831   3.509757
    21  H    5.689545   3.513895   4.090824   3.150567   2.816705
    22  H    4.610443   2.853119   3.048101   2.305268   2.847700
    23  C    2.142692   1.521738   2.114583   2.128906   2.567015
    24  O    3.234789   2.399517   3.041238   3.139182   2.833938
    25  C    2.152197   3.432658   3.982703   3.165621   4.648673
    26  H    2.508458   3.226869   3.901814   2.657644   4.344936
    27  H    3.064459   3.919662   4.612297   3.811623   4.897274
    28  H    2.490675   4.343278   4.735054   3.989090   5.655817
                   11         12         13         14         15
    11  H    0.000000
    12  H    1.744923   0.000000
    13  C    2.166466   2.163235   0.000000
    14  H    3.056008   2.510497   1.099285   0.000000
    15  C    2.793110   2.677366   1.535115   2.142144   0.000000
    16  H    2.619196   3.024668   2.180276   3.064406   1.095495
    17  H    3.799656   3.694442   2.184346   2.493077   1.094017
    18  H    3.143736   2.458025   2.185446   2.491087   1.093834
    19  C    2.794335   3.493004   1.535888   2.145405   2.523339
    20  H    3.791358   4.322728   2.181095   2.503517   2.740594
    21  H    2.605356   3.783370   2.179497   3.065893   2.808948
    22  H    3.180886   3.859685   2.197079   2.495015   3.490095
    23  C    2.844420   2.730888   3.947703   4.159414   5.077352
    24  O    2.892569   2.629809   4.353959   4.677259   5.181440
    25  C    4.582710   5.097559   5.868703   6.169835   7.117994
    26  H    4.173075   4.999259   5.410011   5.813040   6.676512
    27  H    4.654371   5.221265   6.254718   6.668251   7.347482
    28  H    5.641876   6.114622   6.802068   7.024454   8.113727
                   16         17         18         19         20
    16  H    0.000000
    17  H    1.767359   0.000000
    18  H    1.767302   1.768985   0.000000
    19  C    2.798428   2.759472   3.484782   0.000000
    20  H    3.105866   2.522983   3.748138   1.093924   0.000000
    21  H    2.639513   3.149127   3.818416   1.095935   1.767096
    22  H    3.822477   3.756704   4.346177   1.093271   1.761867
    23  C    5.290021   6.023609   5.131876   4.580972   5.614744
    24  O    5.270002   6.218900   5.057275   5.195459   6.231780
    25  C    7.159405   8.004399   7.386111   5.949388   6.986577
    26  H    6.652749   7.503865   7.094171   5.249107   6.265953
    27  H    7.268722   8.307907   7.544687   6.443308   7.518880
    28  H    8.191478   8.961332   8.399589   6.790725   7.786047
                   21         22         23         24         25
    21  H    0.000000
    22  H    1.768729   0.000000
    23  C    4.772562   4.289499   0.000000
    24  O    5.264056   5.119043   1.212666   0.000000
    25  C    5.919356   5.356262   2.495818   3.133657   0.000000
    26  H    5.123908   4.625797   2.739528   3.493259   1.093853
    27  H    6.286531   5.996214   2.757715   2.961188   1.093014
    28  H    6.797094   6.087394   3.455240   4.121285   1.093298
                   26         27         28
    26  H    0.000000
    27  H    1.770799   0.000000
    28  H    1.766888   1.772076   0.000000
 Stoichiometry    C9H18O
 Framework group  C1[X(C9H18O)]
 Deg. of freedom    78
 Full point group                 C1      NOp   1
 Largest Abelian subgroup         C1      NOp   1
 Largest concise Abelian subgroup C1      NOp   1
                         Standard orientation:                         
 ---------------------------------------------------------------------
 Center     Atomic      Atomic             Coordinates (Angstroms)
 Number     Number       Type             X           Y           Z
 ---------------------------------------------------------------------
      1          6           0        3.574879   -0.598035   -0.760715
      2          1           0        3.281858   -1.214163   -1.615227
      3          1           0        3.815972   -1.268411    0.066604
      4          1           0        4.477003   -0.044770   -1.035946
      5          6           0        2.456353    0.369569   -0.357482
      6          1           0        2.198636    1.004687   -1.213185
      7          6           0       -0.134661    0.199350   -0.391348
      8          1           0       -0.145748    0.117626   -1.488615
      9          1           0       -0.110808    1.277378   -0.191077
     10          6           0       -1.369381   -0.469445    0.211072
     11          1           0       -1.372775   -0.311729    1.296350
     12          1           0       -1.277717   -1.550472    0.071100
     13          6           0       -2.710188    0.007081   -0.377944
     14          1           0       -2.664348   -0.131780   -1.467459
     15          6           0       -3.862387   -0.856949    0.153532
     16          1           0       -3.952689   -0.760246    1.241008
     17          1           0       -4.818266   -0.557735   -0.286514
     18          1           0       -3.704229   -1.915235   -0.073383
     19          6           0       -2.981715    1.493689   -0.103681
     20          1           0       -3.946500    1.798344   -0.519669
     21          1           0       -3.008718    1.690210    0.974152
     22          1           0       -2.218652    2.142145   -0.542407
     23          6           0        1.192358   -0.385793    0.069429
     24          8           0        1.257113   -1.386083    0.751914
     25          6           0        2.894327    1.285362    0.804038
     26          1           0        2.105284    1.985358    1.093746
     27          1           0        3.156953    0.686971    1.680186
     28          1           0        3.770332    1.871513    0.513618
 ---------------------------------------------------------------------
 Rotational constants (GHZ):      2.8540505      0.5122778      0.4738275
 Leave Link  202 at Sun Feb  9 01:59:17 2014, MaxMem= 4026531840 cpu:       0.5
 (Enter /usr/caen/gaussian-09revc/g09/l301.exe)
 Standard basis: 6-311++G(d,p) (5D, 7F)
 Ernie: Thresh=  0.10000D-02 Tol=  0.10000D-05 Strict=F.
 There are   346 symmetry adapted basis functions of A   symmetry.
 Integral buffers will be    131072 words long.
 Raffenetti 2 integral format.
 Two-electron integral symmetry is turned on.
   346 basis functions,   522 primitive gaussians,   356 cartesian basis functions
    40 alpha electrons       40 beta electrons
       nuclear repulsion energy       545.9353961935 Hartrees.
 IExCor=  402 DFT=T Ex+Corr=B3LYP ExCW=0 ScaHFX=  0.200000
 ScaDFX=  0.800000  0.720000  1.000000  0.810000 ScalE2=  1.000000  1.000000
 IRadAn=      0 IRanWt=     -1 IRanGd=            0 ICorTp=0
 NAtoms=   28 NActive=   28 NUniq=   28 SFac= 1.00D+00 NAtFMM=   60 NAOKFM=F Big=F
 Leave Link  301 at Sun Feb  9 01:59:18 2014, MaxMem= 4026531840 cpu:       0.6
 (Enter /usr/caen/gaussian-09revc/g09/l302.exe)
 NPDir=0 NMtPBC=     1 NCelOv=     1 NCel=       1 NClECP=     1 NCelD=      1
         NCelK=      1 NCelE2=     1 NClLst=     1 CellRange=     0.0.
 One-electron integrals computed using PRISM.
 NBasis=   346 RedAO= T  NBF=   346
 NBsUse=   346 1.00D-06 NBFU=   346
 Precomputing XC quadrature grid using
 IXCGrd= 2 IRadAn=           0 IRanWt=          -1 IRanGd=           0 AccXCQ= 0.00D+00.
 NRdTot=    1829 NPtTot=      233178 NUsed=      246358 NTot=      246390
 NSgBfM=   356   356   356   356   356 NAtAll=    28    28.
 Leave Link  302 at Sun Feb  9 01:59:19 2014, MaxMem= 4026531840 cpu:       7.7
 (Enter /usr/caen/gaussian-09revc/g09/l303.exe)
 DipDrv:  MaxL=1.
 Leave Link  303 at Sun Feb  9 01:59:20 2014, MaxMem= 4026531840 cpu:       2.1
 (Enter /usr/caen/gaussian-09revc/g09/l401.exe)
 Harris functional with IExCor=  402 diagonalized for initial guess.
 ExpMin= 3.60D-02 ExpMax= 8.59D+03 ExpMxC= 1.30D+03 IAcc=3 IRadAn=         5 AccDes= 0.00D+00
 HarFok:  IExCor=  402 AccDes= 0.00D+00 IRadAn=         5 IDoV= 1
 ScaDFX=  1.000000  1.000000  1.000000  1.000000
 FoFCou: FMM=F IPFlag=           0 FMFlag=      100000 FMFlg1=           0
         NFxFlg=           0 DoJE=T BraDBF=F KetDBF=T FulRan=T
         Omega=  0.000000  0.000000  1.000000  0.000000  0.000000 ICntrl=     500 IOpCl=  0
         NMat0=    1 NMatS0=    1 NMatT0=    0 NMatD0=    1 NMtDS0=    0 NMtDT0=    0
         I1Cent=           4 NGrid=           0.
 Petite list used in FoFCou.
 Harris En= -429.256106185551    
 Mixing orbitals, IMix= 1 IMixAn=  0 NRI=1 NE=   40 Coef=  7.07106781D-01  7.07106781D-01
 Initial guess orbital symmetries:
       Occupied  (A) (A) (A) (A) (A) (A) (A) (A) (A) (A) (A) (A)
                 (A) (A) (A) (A) (A) (A) (A) (A) (A) (A) (A) (A)
                 (A) (A) (A) (A) (A) (A) (A) (A) (A) (A) (A) (A)
                 (A) (A) (A) (A)
       Virtual   (A) (A) (A) (A) (A) (A) (A) (A) (A) (A) (A) (A)
                 (A) (A) (A) (A) (A) (A) (A) (A) (A) (A) (A) (A)
                 (A) (A) (A) (A) (A) (A) (A) (A) (A) (A) (A) (A)
                 (A) (A) (A) (A) (A) (A) (A) (A) (A) (A) (A) (A)
                 (A) (A) (A) (A) (A) (A) (A) (A) (A) (A) (A) (A)
                 (A) (A) (A) (A) (A) (A) (A) (A) (A) (A) (A) (A)
                 (A) (A) (A) (A) (A) (A) (A) (A) (A) (A) (A) (A)
                 (A) (A) (A) (A) (A) (A) (A) (A) (A) (A) (A) (A)
                 (A) (A) (A) (A) (A) (A) (A) (A) (A) (A) (A) (A)
                 (A) (A) (A) (A) (A) (A) (A) (A) (A) (A) (A) (A)
                 (A) (A) (A) (A) (A) (A) (A) (A) (A) (A) (A) (A)
                 (A) (A) (A) (A) (A) (A) (A) (A) (A) (A) (A) (A)
                 (A) (A) (A) (A) (A) (A) (A) (A) (A) (A) (A) (A)
                 (A) (A) (A) (A) (A) (A) (A) (A) (A) (A) (A) (A)
                 (A) (A) (A) (A) (A) (A) (A) (A) (A) (A) (A) (A)
                 (A) (A) (A) (A) (A) (A) (A) (A) (A) (A) (A) (A)
                 (A) (A) (A) (A) (A) (A) (A) (A) (A) (A) (A) (A)
                 (A) (A) (A) (A) (A) (A) (A) (A) (A) (A) (A) (A)
                 (A) (A) (A) (A) (A) (A) (A) (A) (A) (A) (A) (A)
                 (A) (A) (A) (A) (A) (A) (A) (A) (A) (A) (A) (A)
                 (A) (A) (A) (A) (A) (A) (A) (A) (A) (A) (A) (A)
                 (A) (A) (A) (A) (A) (A) (A) (A) (A) (A) (A) (A)
                 (A) (A) (A) (A) (A) (A) (A) (A) (A) (A) (A) (A)
                 (A) (A) (A) (A) (A) (A) (A) (A) (A) (A) (A) (A)
                 (A) (A) (A) (A) (A) (A) (A) (A) (A) (A) (A) (A)
                 (A) (A) (A) (A) (A) (A)
 The electronic state of the initial guess is 1-A.
 Leave Link  401 at Sun Feb  9 01:59:25 2014, MaxMem= 4026531840 cpu:      30.5
 (Enter /usr/caen/gaussian-09revc/g09/l502.exe)
 Closed shell SCF:
 Requested convergence on RMS density matrix=1.00D-08 within 128 cycles.
 Requested convergence on MAX density matrix=1.00D-06.
 Requested convergence on             energy=1.00D-06.
 No special actions if energy rises.
 Using DIIS extrapolation, IDIIS=  1040.
 Integral symmetry usage will be decided dynamically.
       246093 words used for storage of precomputed grid.
 Keep R1 ints in memory in canonical form, NReq=2042478296.
 IEnd=      649983 IEndB=      649983 NGot=  4026531840 MDV=  2006946731
 LenX=  2006946731 LenY=  2006819554
 Symmetry not used in FoFDir.
 MinBra= 0 MaxBra= 2 Meth= 1.
 IRaf=       0 NMat=   1 IRICut=       1 DoRegI=T DoRafI=F ISym2E= 0 JSym2E=0.

 Cycle   1  Pass 1  IDiag  1:
 E= -428.621955632739    
 DIIS: error= 3.09D-02 at cycle   1 NSaved=   1.
 NSaved= 1 IEnMin= 1 EnMin= -428.621955632739     IErMin= 1 ErrMin= 3.09D-02
 ErrMax= 3.09D-02 EMaxC= 1.00D-01 BMatC= 3.68D-01 BMatP= 3.68D-01
 IDIUse=3 WtCom= 6.91D-01 WtEn= 3.09D-01
 Coeff-Com:  0.100D+01
 Coeff-En:   0.100D+01
 Coeff:      0.100D+01
 Gap=     0.060 Goal=   None    Shift=    0.000
 GapD=    0.060 DampG=0.500 DampE=0.500 DampFc=0.2500 IDamp=-1.
 Damping current iteration by 2.50D-01
 RMSDP=1.57D-02 MaxDP=1.57D+00              OVMax= 5.44D-01

 Cycle   2  Pass 1  IDiag  1:
 E= -428.789902110166     Delta-E=       -0.167946477427 Rises=F Damp=T
 DIIS: error= 1.38D-02 at cycle   2 NSaved=   2.
 NSaved= 2 IEnMin= 2 EnMin= -428.789902110166     IErMin= 2 ErrMin= 1.38D-02
 ErrMax= 1.38D-02 EMaxC= 1.00D-01 BMatC= 9.73D-02 BMatP= 3.68D-01
 IDIUse=3 WtCom= 8.62D-01 WtEn= 1.38D-01
 Coeff-Com: -0.863D+00 0.186D+01
 Coeff-En:   0.000D+00 0.100D+01
 Coeff:     -0.744D+00 0.174D+01
 Gap=     0.232 Goal=   None    Shift=    0.000
 RMSDP=4.70D-03 MaxDP=3.60D-01 DE=-1.68D-01 OVMax= 1.17D-01

 Cycle   3  Pass 1  IDiag  1:
 E= -429.152388154562     Delta-E=       -0.362486044397 Rises=F Damp=F
 DIIS: error= 7.36D-03 at cycle   3 NSaved=   3.
 NSaved= 3 IEnMin= 3 EnMin= -429.152388154562     IErMin= 3 ErrMin= 7.36D-03
 ErrMax= 7.36D-03 EMaxC= 1.00D-01 BMatC= 1.04D-02 BMatP= 9.73D-02
 IDIUse=3 WtCom= 9.26D-01 WtEn= 7.36D-02
 Coeff-Com: -0.299D+00 0.659D+00 0.640D+00
 Coeff-En:   0.000D+00 0.000D+00 0.100D+01
 Coeff:     -0.277D+00 0.611D+00 0.667D+00
 Gap=     0.223 Goal=   None    Shift=    0.000
 RMSDP=2.26D-03 MaxDP=2.37D-01 DE=-3.62D-01 OVMax= 6.34D-02

 Cycle   4  Pass 1  IDiag  1:
 E= -429.156220448536     Delta-E=       -0.003832293973 Rises=F Damp=F
 DIIS: error= 8.65D-03 at cycle   4 NSaved=   4.
 NSaved= 4 IEnMin= 4 EnMin= -429.156220448536     IErMin= 3 ErrMin= 7.36D-03
 ErrMax= 8.65D-03 EMaxC= 1.00D-01 BMatC= 8.59D-03 BMatP= 1.04D-02
 IDIUse=3 WtCom= 9.14D-01 WtEn= 8.65D-02
 Coeff-Com: -0.176D-01 0.398D-01 0.472D+00 0.506D+00
 Coeff-En:   0.000D+00 0.000D+00 0.377D+00 0.623D+00
 Coeff:     -0.161D-01 0.363D-01 0.464D+00 0.516D+00
 Gap=     0.222 Goal=   None    Shift=    0.000
 RMSDP=5.32D-04 MaxDP=2.53D-02 DE=-3.83D-03 OVMax= 3.32D-02

 Cycle   5  Pass 1  IDiag  1:
 E= -429.162594014782     Delta-E=       -0.006373566247 Rises=F Damp=F
 DIIS: error= 2.05D-03 at cycle   5 NSaved=   5.
 NSaved= 5 IEnMin= 5 EnMin= -429.162594014782     IErMin= 5 ErrMin= 2.05D-03
 ErrMax= 2.05D-03 EMaxC= 1.00D-01 BMatC= 7.68D-04 BMatP= 8.59D-03
 IDIUse=3 WtCom= 9.80D-01 WtEn= 2.05D-02
 Coeff-Com:  0.128D-01-0.269D-01 0.115D+00 0.272D+00 0.627D+00
 Coeff-En:   0.000D+00 0.000D+00 0.000D+00 0.115D-01 0.988D+00
 Coeff:      0.126D-01-0.264D-01 0.112D+00 0.267D+00 0.635D+00
 Gap=     0.227 Goal=   None    Shift=    0.000
 RMSDP=3.77D-04 MaxDP=4.06D-02 DE=-6.37D-03 OVMax= 1.41D-02

 Cycle   6  Pass 1  IDiag  1:
 E= -429.163267842235     Delta-E=       -0.000673827452 Rises=F Damp=F
 DIIS: error= 4.44D-04 at cycle   6 NSaved=   6.
 NSaved= 6 IEnMin= 6 EnMin= -429.163267842235     IErMin= 6 ErrMin= 4.44D-04
 ErrMax= 4.44D-04 EMaxC= 1.00D-01 BMatC= 9.50D-05 BMatP= 7.68D-04
 IDIUse=3 WtCom= 9.96D-01 WtEn= 4.44D-03
 Coeff-Com:  0.106D-01-0.238D-01-0.239D-01 0.530D-01 0.317D+00 0.667D+00
 Coeff-En:   0.000D+00 0.000D+00 0.000D+00 0.000D+00 0.000D+00 0.100D+01
 Coeff:      0.105D-01-0.237D-01-0.238D-01 0.528D-01 0.315D+00 0.669D+00
 Gap=     0.227 Goal=   None    Shift=    0.000
 RMSDP=1.48D-04 MaxDP=2.19D-02 DE=-6.74D-04 OVMax= 7.35D-03

 Cycle   7  Pass 1  IDiag  1:
 E= -429.163381155523     Delta-E=       -0.000113313288 Rises=F Damp=F
 DIIS: error= 1.04D-04 at cycle   7 NSaved=   7.
 NSaved= 7 IEnMin= 7 EnMin= -429.163381155523     IErMin= 7 ErrMin= 1.04D-04
 ErrMax= 1.04D-04 EMaxC= 1.00D-01 BMatC= 6.03D-06 BMatP= 9.50D-05
 IDIUse=3 WtCom= 9.99D-01 WtEn= 1.04D-03
 Coeff-Com:  0.239D-03-0.139D-02-0.179D-01-0.103D-01 0.180D-01 0.223D+00
 Coeff-Com:  0.789D+00
 Coeff-En:   0.000D+00 0.000D+00 0.000D+00 0.000D+00 0.000D+00 0.000D+00
 Coeff-En:   0.100D+01
 Coeff:      0.239D-03-0.138D-02-0.179D-01-0.103D-01 0.179D-01 0.223D+00
 Coeff:      0.789D+00
 Gap=     0.226 Goal=   None    Shift=    0.000
 RMSDP=6.06D-05 MaxDP=6.08D-03 DE=-1.13D-04 OVMax= 2.26D-03

 Cycle   8  Pass 1  IDiag  1:
 E= -429.163388861718     Delta-E=       -0.000007706195 Rises=F Damp=F
 DIIS: error= 2.41D-05 at cycle   8 NSaved=   8.
 NSaved= 8 IEnMin= 8 EnMin= -429.163388861718     IErMin= 8 ErrMin= 2.41D-05
 ErrMax= 2.41D-05 EMaxC= 1.00D-01 BMatC= 3.88D-07 BMatP= 6.03D-06
 IDIUse=1 WtCom= 1.00D+00 WtEn= 0.00D+00
 Coeff-Com: -0.949D-03 0.168D-02-0.298D-02-0.643D-02-0.212D-01 0.157D-01
 Coeff-Com:  0.249D+00 0.765D+00
 Coeff:     -0.949D-03 0.168D-02-0.298D-02-0.643D-02-0.212D-01 0.157D-01
 Coeff:      0.249D+00 0.765D+00
 Gap=     0.226 Goal=   None    Shift=    0.000
 RMSDP=1.38D-05 MaxDP=1.24D-03 DE=-7.71D-06 OVMax= 4.93D-04

 Cycle   9  Pass 1  IDiag  1:
 E= -429.163389358209     Delta-E=       -0.000000496491 Rises=F Damp=F
 DIIS: error= 7.31D-06 at cycle   9 NSaved=   9.
 NSaved= 9 IEnMin= 9 EnMin= -429.163389358209     IErMin= 9 ErrMin= 7.31D-06
 ErrMax= 7.31D-06 EMaxC= 1.00D-01 BMatC= 3.89D-08 BMatP= 3.88D-07
 IDIUse=1 WtCom= 1.00D+00 WtEn= 0.00D+00
 Coeff-Com: -0.130D-03 0.177D-03-0.310D-04-0.141D-02-0.651D-02-0.773D-02
 Coeff-Com:  0.307D-01 0.272D+00 0.713D+00
 Coeff:     -0.130D-03 0.177D-03-0.310D-04-0.141D-02-0.651D-02-0.773D-02
 Coeff:      0.307D-01 0.272D+00 0.713D+00
 Gap=     0.226 Goal=   None    Shift=    0.000
 RMSDP=2.35D-06 MaxDP=1.64D-04 DE=-4.96D-07 OVMax= 1.21D-04

 Cycle  10  Pass 1  IDiag  1:
 E= -429.163389395862     Delta-E=       -0.000000037652 Rises=F Damp=F
 DIIS: error= 2.90D-06 at cycle  10 NSaved=  10.
 NSaved=10 IEnMin=10 EnMin= -429.163389395862     IErMin=10 ErrMin= 2.90D-06
 ErrMax= 2.90D-06 EMaxC= 1.00D-01 BMatC= 5.03D-09 BMatP= 3.89D-08
 IDIUse=1 WtCom= 1.00D+00 WtEn= 0.00D+00
 Coeff-Com: -0.205D-04 0.300D-04 0.214D-03-0.256D-03-0.163D-02-0.501D-02
 Coeff-Com: -0.399D-02 0.711D-01 0.334D+00 0.606D+00
 Coeff:     -0.205D-04 0.300D-04 0.214D-03-0.256D-03-0.163D-02-0.501D-02
 Coeff:     -0.399D-02 0.711D-01 0.334D+00 0.606D+00
 Gap=     0.226 Goal=   None    Shift=    0.000
 RMSDP=1.01D-06 MaxDP=9.45D-05 DE=-3.77D-08 OVMax= 2.13D-05

 Cycle  11  Pass 1  IDiag  1:
 E= -429.163389400739     Delta-E=       -0.000000004878 Rises=F Damp=F
 DIIS: error= 5.80D-07 at cycle  11 NSaved=  11.
 NSaved=11 IEnMin=11 EnMin= -429.163389400739     IErMin=11 ErrMin= 5.80D-07
 ErrMax= 5.80D-07 EMaxC= 1.00D-01 BMatC= 1.70D-10 BMatP= 5.03D-09
 IDIUse=1 WtCom= 1.00D+00 WtEn= 0.00D+00
 Coeff-Com:  0.589D-05-0.816D-05 0.684D-04 0.685D-05-0.183D-03-0.127D-02
 Coeff-Com: -0.331D-02 0.739D-02 0.699D-01 0.212D+00 0.715D+00
 Coeff:      0.589D-05-0.816D-05 0.684D-04 0.685D-05-0.183D-03-0.127D-02
 Coeff:     -0.331D-02 0.739D-02 0.699D-01 0.212D+00 0.715D+00
 Gap=     0.226 Goal=   None    Shift=    0.000
 RMSDP=2.77D-07 MaxDP=3.04D-05 DE=-4.88D-09 OVMax= 3.38D-06

 Cycle  12  Pass 1  IDiag  1:
 E= -429.163389400900     Delta-E=       -0.000000000161 Rises=F Damp=F
 DIIS: error= 1.72D-07 at cycle  12 NSaved=  12.
 NSaved=12 IEnMin=12 EnMin= -429.163389400900     IErMin=12 ErrMin= 1.72D-07
 ErrMax= 1.72D-07 EMaxC= 1.00D-01 BMatC= 1.37D-11 BMatP= 1.70D-10
 IDIUse=1 WtCom= 1.00D+00 WtEn= 0.00D+00
 Coeff-Com:  0.407D-05-0.523D-05 0.165D-04 0.191D-04 0.234D-04-0.231D-03
 Coeff-Com: -0.111D-02-0.105D-02 0.954D-02 0.534D-01 0.297D+00 0.643D+00
 Coeff:      0.407D-05-0.523D-05 0.165D-04 0.191D-04 0.234D-04-0.231D-03
 Coeff:     -0.111D-02-0.105D-02 0.954D-02 0.534D-01 0.297D+00 0.643D+00
 Gap=     0.226 Goal=   None    Shift=    0.000
 RMSDP=6.42D-08 MaxDP=6.61D-06 DE=-1.61D-10 OVMax= 7.68D-07

 Cycle  13  Pass 1  IDiag  1:
 E= -429.163389400913     Delta-E=       -0.000000000013 Rises=F Damp=F
 DIIS: error= 4.67D-08 at cycle  13 NSaved=  13.
 NSaved=13 IEnMin=13 EnMin= -429.163389400913     IErMin=13 ErrMin= 4.67D-08
 ErrMax= 4.67D-08 EMaxC= 1.00D-01 BMatC= 1.26D-12 BMatP= 1.37D-11
 IDIUse=1 WtCom= 1.00D+00 WtEn= 0.00D+00
 Coeff-Com:  0.133D-05-0.147D-05 0.206D-05 0.618D-05 0.280D-04 0.127D-05
 Coeff-Com: -0.204D-03-0.111D-02-0.205D-02 0.520D-02 0.688D-01 0.273D+00
 Coeff-Com:  0.656D+00
 Coeff:      0.133D-05-0.147D-05 0.206D-05 0.618D-05 0.280D-04 0.127D-05
 Coeff:     -0.204D-03-0.111D-02-0.205D-02 0.520D-02 0.688D-01 0.273D+00
 Coeff:      0.656D+00
 Gap=     0.226 Goal=   None    Shift=    0.000
 RMSDP=1.50D-08 MaxDP=1.50D-06 DE=-1.30D-11 OVMax= 2.92D-07

 Cycle  14  Pass 1  IDiag  1:
 E= -429.163389400917     Delta-E=       -0.000000000003 Rises=F Damp=F
 DIIS: error= 2.25D-08 at cycle  14 NSaved=  14.
 NSaved=14 IEnMin=14 EnMin= -429.163389400917     IErMin=14 ErrMin= 2.25D-08
 ErrMax= 2.25D-08 EMaxC= 1.00D-01 BMatC= 1.43D-13 BMatP= 1.26D-12
 IDIUse=1 WtCom= 1.00D+00 WtEn= 0.00D+00
 Coeff-Com:  0.424D-06-0.580D-06-0.577D-06 0.613D-06 0.140D-04 0.218D-04
 Coeff-Com:  0.413D-05-0.440D-03-0.192D-02-0.239D-02 0.535D-02 0.657D-01
 Coeff-Com:  0.288D+00 0.645D+00
 Coeff:      0.424D-06-0.580D-06-0.577D-06 0.613D-06 0.140D-04 0.218D-04
 Coeff:      0.413D-05-0.440D-03-0.192D-02-0.239D-02 0.535D-02 0.657D-01
 Coeff:      0.288D+00 0.645D+00
 Gap=     0.226 Goal=   None    Shift=    0.000
 RMSDP=4.83D-09 MaxDP=4.42D-07 DE=-3.41D-12 OVMax= 6.36D-08

 SCF Done:  E(RB3LYP) =  -429.163389401     A.U. after   14 cycles
             Convg  =    0.4826D-08             -V/T =  2.0048
 KE= 4.270951469557D+02 PE=-2.088549052906D+03 EE= 6.863551203564D+02
 Leave Link  502 at Sun Feb  9 02:00:50 2014, MaxMem= 4026531840 cpu:     615.8
 (Enter /usr/caen/gaussian-09revc/g09/l601.exe)
 Copying SCF densities to generalized density rwf, IOpCl= 0 IROHF=0.

 **********************************************************************

            Population analysis using the SCF density.

 **********************************************************************

 Orbital symmetries:
       Occupied  (A) (A) (A) (A) (A) (A) (A) (A) (A) (A) (A) (A)
                 (A) (A) (A) (A) (A) (A) (A) (A) (A) (A) (A) (A)
                 (A) (A) (A) (A) (A) (A) (A) (A) (A) (A) (A) (A)
                 (A) (A) (A) (A)
       Virtual   (A) (A) (A) (A) (A) (A) (A) (A) (A) (A) (A) (A)
                 (A) (A) (A) (A) (A) (A) (A) (A) (A) (A) (A) (A)
                 (A) (A) (A) (A) (A) (A) (A) (A) (A) (A) (A) (A)
                 (A) (A) (A) (A) (A) (A) (A) (A) (A) (A) (A) (A)
                 (A) (A) (A) (A) (A) (A) (A) (A) (A) (A) (A) (A)
                 (A) (A) (A) (A) (A) (A) (A) (A) (A) (A) (A) (A)
                 (A) (A) (A) (A) (A) (A) (A) (A) (A) (A) (A) (A)
                 (A) (A) (A) (A) (A) (A) (A) (A) (A) (A) (A) (A)
                 (A) (A) (A) (A) (A) (A) (A) (A) (A) (A) (A) (A)
                 (A) (A) (A) (A) (A) (A) (A) (A) (A) (A) (A) (A)
                 (A) (A) (A) (A) (A) (A) (A) (A) (A) (A) (A) (A)
                 (A) (A) (A) (A) (A) (A) (A) (A) (A) (A) (A) (A)
                 (A) (A) (A) (A) (A) (A) (A) (A) (A) (A) (A) (A)
                 (A) (A) (A) (A) (A) (A) (A) (A) (A) (A) (A) (A)
                 (A) (A) (A) (A) (A) (A) (A) (A) (A) (A) (A) (A)
                 (A) (A) (A) (A) (A) (A) (A) (A) (A) (A) (A) (A)
                 (A) (A) (A) (A) (A) (A) (A) (A) (A) (A) (A) (A)
                 (A) (A) (A) (A) (A) (A) (A) (A) (A) (A) (A) (A)
                 (A) (A) (A) (A) (A) (A) (A) (A) (A) (A) (A) (A)
                 (A) (A) (A) (A) (A) (A) (A) (A) (A) (A) (A) (A)
                 (A) (A) (A) (A) (A) (A) (A) (A) (A) (A) (A) (A)
                 (A) (A) (A) (A) (A) (A) (A) (A) (A) (A) (A) (A)
                 (A) (A) (A) (A) (A) (A) (A) (A) (A) (A) (A) (A)
                 (A) (A) (A) (A) (A) (A) (A) (A) (A) (A) (A) (A)
                 (A) (A) (A) (A) (A) (A) (A) (A) (A) (A) (A) (A)
                 (A) (A) (A) (A) (A) (A)
 The electronic state is 1-A.
 Alpha  occ. eigenvalues --  -19.11388 -10.25909 -10.18802 -10.18145 -10.17739
 Alpha  occ. eigenvalues --  -10.17239 -10.16584 -10.16308 -10.16065 -10.15772
 Alpha  occ. eigenvalues --   -1.04856  -0.82080  -0.80733  -0.75792  -0.69404
 Alpha  occ. eigenvalues --   -0.68725  -0.66826  -0.60932  -0.56305  -0.52275
 Alpha  occ. eigenvalues --   -0.49284  -0.47788  -0.45979  -0.45059  -0.44191
 Alpha  occ. eigenvalues --   -0.43244  -0.41347  -0.40548  -0.39675  -0.38913
 Alpha  occ. eigenvalues --   -0.38206  -0.37329  -0.36252  -0.35631  -0.34765
 Alpha  occ. eigenvalues --   -0.34322  -0.32889  -0.32834  -0.32546  -0.25078
 Alpha virt. eigenvalues --   -0.02442  -0.01491  -0.00231   0.00410   0.00825
 Alpha virt. eigenvalues --    0.01871   0.02170   0.02348   0.03892   0.03973
 Alpha virt. eigenvalues --    0.04278   0.04571   0.04939   0.05607   0.06019
 Alpha virt. eigenvalues --    0.06299   0.07397   0.07791   0.08032   0.08510
 Alpha virt. eigenvalues --    0.09243   0.09738   0.09944   0.10874   0.10985
 Alpha virt. eigenvalues --    0.11426   0.11824   0.12285   0.12482   0.13065
 Alpha virt. eigenvalues --    0.13118   0.13402   0.13553   0.13930   0.14295
 Alpha virt. eigenvalues --    0.14407   0.14822   0.15248   0.15881   0.15975
 Alpha virt. eigenvalues --    0.16323   0.16566   0.16860   0.17309   0.17828
 Alpha virt. eigenvalues --    0.17846   0.18357   0.18638   0.19053   0.19346
 Alpha virt. eigenvalues --    0.19755   0.19902   0.20334   0.20866   0.20999
 Alpha virt. eigenvalues --    0.22027   0.22230   0.22902   0.23869   0.24923
 Alpha virt. eigenvalues --    0.25095   0.25357   0.25743   0.26038   0.26963
 Alpha virt. eigenvalues --    0.27777   0.27890   0.28860   0.29318   0.30736
 Alpha virt. eigenvalues --    0.31922   0.32170   0.32595   0.33365   0.33605
 Alpha virt. eigenvalues --    0.33800   0.34304   0.34927   0.35815   0.36304
 Alpha virt. eigenvalues --    0.37748   0.38351   0.39344   0.41876   0.42455
 Alpha virt. eigenvalues --    0.43151   0.44343   0.45606   0.46306   0.48452
 Alpha virt. eigenvalues --    0.49999   0.50509   0.51473   0.52450   0.53212
 Alpha virt. eigenvalues --    0.54277   0.55185   0.55938   0.56948   0.57406
 Alpha virt. eigenvalues --    0.58879   0.59257   0.61492   0.63156   0.64284
 Alpha virt. eigenvalues --    0.64758   0.65570   0.65720   0.66664   0.67453
 Alpha virt. eigenvalues --    0.68057   0.68378   0.68973   0.69284   0.70099
 Alpha virt. eigenvalues --    0.70514   0.71536   0.71950   0.72552   0.72996
 Alpha virt. eigenvalues --    0.74030   0.75322   0.75842   0.76538   0.77794
 Alpha virt. eigenvalues --    0.78459   0.79073   0.80399   0.80454   0.82987
 Alpha virt. eigenvalues --    0.85149   0.86875   0.89041   0.94052   0.95878
 Alpha virt. eigenvalues --    0.98670   0.99394   1.01284   1.03003   1.07243
 Alpha virt. eigenvalues --    1.08417   1.11367   1.12904   1.14725   1.17661
 Alpha virt. eigenvalues --    1.17902   1.19674   1.21262   1.24348   1.26010
 Alpha virt. eigenvalues --    1.29305   1.30440   1.32345   1.38725   1.42610
 Alpha virt. eigenvalues --    1.43343   1.45061   1.45538   1.46340   1.46900
 Alpha virt. eigenvalues --    1.47622   1.48131   1.48926   1.50588   1.54191
 Alpha virt. eigenvalues --    1.55345   1.55687   1.56950   1.57557   1.58721
 Alpha virt. eigenvalues --    1.59545   1.59927   1.61176   1.61671   1.62985
 Alpha virt. eigenvalues --    1.63708   1.64000   1.64674   1.65181   1.66006
 Alpha virt. eigenvalues --    1.67948   1.68779   1.69711   1.71907   1.73566
 Alpha virt. eigenvalues --    1.74399   1.75579   1.77119   1.78538   1.78913
 Alpha virt. eigenvalues --    1.79450   1.80361   1.81515   1.83615   1.85237
 Alpha virt. eigenvalues --    1.87528   1.89514   1.94705   1.97774   1.99499
 Alpha virt. eigenvalues --    2.01082   2.03893   2.04964   2.06187   2.07463
 Alpha virt. eigenvalues --    2.09795   2.10142   2.11897   2.12888   2.14676
 Alpha virt. eigenvalues --    2.15230   2.16711   2.21571   2.24887   2.27072
 Alpha virt. eigenvalues --    2.29356   2.31888   2.33045   2.35092   2.37518
 Alpha virt. eigenvalues --    2.39380   2.40870   2.43437   2.45160   2.47184
 Alpha virt. eigenvalues --    2.49404   2.50074   2.50346   2.50668   2.52004
 Alpha virt. eigenvalues --    2.52946   2.53863   2.54226   2.54784   2.57408
 Alpha virt. eigenvalues --    2.58205   2.59443   2.60388   2.62230   2.63057
 Alpha virt. eigenvalues --    2.63716   2.65480   2.68006   2.69752   2.71468
 Alpha virt. eigenvalues --    2.72663   2.74638   2.75064   2.75346   2.77171
 Alpha virt. eigenvalues --    2.77689   2.79786   2.81640   2.84225   2.87480
 Alpha virt. eigenvalues --    2.88435   2.91309   2.92510   2.93998   2.96292
 Alpha virt. eigenvalues --    2.96441   2.98828   3.00644   3.01529   3.04641
 Alpha virt. eigenvalues --    3.07551   3.15493   3.16795   3.18818   3.35804
 Alpha virt. eigenvalues --    3.36976   3.43653   3.48731   3.53824   3.70633
 Alpha virt. eigenvalues --    3.76872   3.78251   3.78507   3.78861   3.80403
 Alpha virt. eigenvalues --    3.81249   3.82506   3.83327   3.84717   3.86735
 Alpha virt. eigenvalues --    3.99919   4.07592   4.10666   4.20656   4.25303
 Alpha virt. eigenvalues --    4.29918   4.30339   4.41048   5.10814   5.27467
 Alpha virt. eigenvalues --    5.74775  23.82020  23.82683  23.85662  23.90040
 Alpha virt. eigenvalues --   23.92487  23.96932  23.97795  23.97858  23.98756
 Alpha virt. eigenvalues --   50.00972
          Condensed to atoms (all electrons):
              1          2          3          4          5          6
     1  C    5.594429   0.354500   0.415270   0.402624   0.062554  -0.063222
     2  H    0.354500   0.573687  -0.034679  -0.027972   0.001869  -0.006677
     3  H    0.415270  -0.034679   0.507054  -0.035743   0.037053   0.012737
     4  H    0.402624  -0.027972  -0.035743   0.583009  -0.079644  -0.013867
     5  C    0.062554   0.001869   0.037053  -0.079644   7.587656   0.497272
     6  H   -0.063222  -0.006677   0.012737  -0.013867   0.497272   0.567834
     7  C   -0.067384  -0.002140  -0.031346   0.013230   0.242688  -0.009436
     8  H   -0.001316  -0.003720   0.001075   0.000531   0.001250   0.006675
     9  H   -0.019610   0.004997   0.000148  -0.001473   0.024852  -0.005399
    10  C   -0.020881   0.005839   0.002882  -0.004978  -0.746978   0.009775
    11  H   -0.000938  -0.000353   0.000194  -0.000088  -0.016530   0.001113
    12  H   -0.002111  -0.000131  -0.000038   0.000046  -0.014903  -0.000041
    13  C   -0.003514   0.001595  -0.001302  -0.000036  -0.083280  -0.007127
    14  H   -0.000951   0.000310  -0.000023  -0.000024  -0.007535  -0.000406
    15  C   -0.000418   0.000162  -0.000072  -0.000073  -0.018981   0.000184
    16  H    0.000020   0.000032  -0.000005  -0.000004  -0.001476  -0.000094
    17  H   -0.000068   0.000008  -0.000003  -0.000001  -0.000445  -0.000047
    18  H    0.000231  -0.000049  -0.000007   0.000016   0.003901   0.000049
    19  C    0.004730   0.000046  -0.000075   0.000100   0.036060  -0.000887
    20  H    0.000333   0.000027  -0.000010   0.000000   0.001278  -0.000326
    21  H   -0.000395   0.000010   0.000003   0.000000   0.000014   0.000151
    22  H    0.001337  -0.000324  -0.000045   0.000094   0.002708   0.000409
    23  C    0.123824  -0.003470  -0.028842  -0.009149  -1.950508  -0.103672
    24  O   -0.057579  -0.004157  -0.003337   0.000577   0.024752   0.000329
    25  C   -0.152556   0.006473  -0.030499   0.015865   0.116207  -0.052810
    26  H    0.017332  -0.003914  -0.004010   0.002596   0.018118  -0.004697
    27  H   -0.012509  -0.001174   0.007821   0.002102   0.006724   0.007818
    28  H    0.016200   0.000000   0.003863   0.000286  -0.073586  -0.008765
              7          8          9         10         11         12
     1  C   -0.067384  -0.001316  -0.019610  -0.020881  -0.000938  -0.002111
     2  H   -0.002140  -0.003720   0.004997   0.005839  -0.000353  -0.000131
     3  H   -0.031346   0.001075   0.000148   0.002882   0.000194  -0.000038
     4  H    0.013230   0.000531  -0.001473  -0.004978  -0.000088   0.000046
     5  C    0.242688   0.001250   0.024852  -0.746978  -0.016530  -0.014903
     6  H   -0.009436   0.006675  -0.005399   0.009775   0.001113  -0.000041
     7  C    9.429947   0.458121   0.369644  -1.897588  -0.060325  -0.090697
     8  H    0.458121   0.567514  -0.080222  -0.021501   0.010127  -0.008161
     9  H    0.369644  -0.080222   0.634567  -0.141428  -0.009262   0.004975
    10  C   -1.897588  -0.021501  -0.141428   8.562726   0.499566   0.479572
    11  H   -0.060325   0.010127  -0.009262   0.499566   0.556782  -0.041351
    12  H   -0.090697  -0.008161   0.004975   0.479572  -0.041351   0.548461
    13  C    0.310281   0.003050   0.038277  -1.172096  -0.007346  -0.084311
    14  H   -0.040703   0.010504   0.010459  -0.113599   0.021238  -0.015623
    15  C   -0.197269  -0.004218   0.000267   0.371490   0.006055   0.013631
    16  H   -0.009076   0.001093   0.002062  -0.085919   0.005472   0.000352
    17  H    0.002643   0.000306  -0.000622   0.048748  -0.002282   0.000483
    18  H    0.001667  -0.001154  -0.000492  -0.027962  -0.000245   0.004539
    19  C    0.081359  -0.028801   0.017692  -0.075683  -0.088599   0.016595
    20  H    0.001476  -0.001548   0.001459   0.008971  -0.005492  -0.001665
    21  H    0.001546   0.002458   0.005946  -0.062484   0.010198  -0.002577
    22  H    0.095345   0.001442  -0.017856  -0.058764   0.002060   0.002866
    23  C   -2.669520  -0.080240   0.064494   1.163123  -0.042735   0.024655
    24  O    0.169818   0.002066  -0.002600  -0.181928  -0.012875  -0.010290
    25  C    0.218487  -0.003747  -0.030031  -0.032697   0.002168  -0.000471
    26  H    0.055658   0.001948  -0.012115  -0.005386   0.000197   0.000008
    27  H   -0.036909   0.000922   0.001616   0.002301  -0.000607   0.000013
    28  H    0.003163  -0.001192  -0.001098  -0.004875  -0.000190  -0.000030
             13         14         15         16         17         18
     1  C   -0.003514  -0.000951  -0.000418   0.000020  -0.000068   0.000231
     2  H    0.001595   0.000310   0.000162   0.000032   0.000008  -0.000049
     3  H   -0.001302  -0.000023  -0.000072  -0.000005  -0.000003  -0.000007
     4  H   -0.000036  -0.000024  -0.000073  -0.000004  -0.000001   0.000016
     5  C   -0.083280  -0.007535  -0.018981  -0.001476  -0.000445   0.003901
     6  H   -0.007127  -0.000406   0.000184  -0.000094  -0.000047   0.000049
     7  C    0.310281  -0.040703  -0.197269  -0.009076   0.002643   0.001667
     8  H    0.003050   0.010504  -0.004218   0.001093   0.000306  -0.001154
     9  H    0.038277   0.010459   0.000267   0.002062  -0.000622  -0.000492
    10  C   -1.172096  -0.113599   0.371490  -0.085919   0.048748  -0.027962
    11  H   -0.007346   0.021238   0.006055   0.005472  -0.002282  -0.000245
    12  H   -0.084311  -0.015623   0.013631   0.000352   0.000483   0.004539
    13  C    6.360941   0.562291  -0.124283   0.092188  -0.094679  -0.042045
    14  H    0.562291   0.630640  -0.048974   0.017179  -0.016345  -0.012998
    15  C   -0.124283  -0.048974   5.651032   0.383309   0.402260   0.403055
    16  H    0.092188   0.017179   0.383309   0.559639  -0.035880  -0.043893
    17  H   -0.094679  -0.016345   0.402260  -0.035880   0.568677  -0.019254
    18  H   -0.042045  -0.012998   0.403055  -0.043893  -0.019254   0.574963
    19  C   -0.032697  -0.138993  -0.179916  -0.034728  -0.003079   0.025811
    20  H   -0.083989  -0.004166  -0.007612   0.003572   0.000348   0.001070
    21  H    0.059428   0.013062  -0.004460   0.010585   0.000605  -0.002123
    22  H   -0.053670  -0.016788   0.005020  -0.006260   0.002973  -0.001989
    23  C   -0.168629   0.016921  -0.024551   0.005192  -0.003375   0.003452
    24  O    0.024100  -0.000368  -0.006435   0.000388  -0.000150   0.001033
    25  C    0.009842   0.000312  -0.000532  -0.000324   0.000128   0.000075
    26  H   -0.003517  -0.000596   0.000498  -0.000027  -0.000002   0.000046
    27  H   -0.000052   0.000016  -0.000069   0.000025   0.000002   0.000000
    28  H   -0.001098  -0.000110  -0.000109  -0.000021  -0.000002   0.000019
             19         20         21         22         23         24
     1  C    0.004730   0.000333  -0.000395   0.001337   0.123824  -0.057579
     2  H    0.000046   0.000027   0.000010  -0.000324  -0.003470  -0.004157
     3  H   -0.000075  -0.000010   0.000003  -0.000045  -0.028842  -0.003337
     4  H    0.000100   0.000000   0.000000   0.000094  -0.009149   0.000577
     5  C    0.036060   0.001278   0.000014   0.002708  -1.950508   0.024752
     6  H   -0.000887  -0.000326   0.000151   0.000409  -0.103672   0.000329
     7  C    0.081359   0.001476   0.001546   0.095345  -2.669520   0.169818
     8  H   -0.028801  -0.001548   0.002458   0.001442  -0.080240   0.002066
     9  H    0.017692   0.001459   0.005946  -0.017856   0.064494  -0.002600
    10  C   -0.075683   0.008971  -0.062484  -0.058764   1.163123  -0.181928
    11  H   -0.088599  -0.005492   0.010198   0.002060  -0.042735  -0.012875
    12  H    0.016595  -0.001665  -0.002577   0.002866   0.024655  -0.010290
    13  C   -0.032697  -0.083989   0.059428  -0.053670  -0.168629   0.024100
    14  H   -0.138993  -0.004166   0.013062  -0.016788   0.016921  -0.000368
    15  C   -0.179916  -0.007612  -0.004460   0.005020  -0.024551  -0.006435
    16  H   -0.034728   0.003572   0.010585  -0.006260   0.005192   0.000388
    17  H   -0.003079   0.000348   0.000605   0.002973  -0.003375  -0.000150
    18  H    0.025811   0.001070  -0.002123  -0.001989   0.003452   0.001033
    19  C    5.724149   0.426909   0.353958   0.414259   0.127936   0.007244
    20  H    0.426909   0.569476  -0.030860  -0.029304   0.009192   0.000383
    21  H    0.353958  -0.030860   0.556841  -0.045642  -0.010879  -0.000174
    22  H    0.414259  -0.029304  -0.045642   0.602534  -0.038138   0.000618
    23  C    0.127936   0.009192  -0.010879  -0.038138   9.531633   0.344829
    24  O    0.007244   0.000383  -0.000174   0.000618   0.344829   7.949221
    25  C   -0.002514  -0.000437  -0.000114   0.002956  -0.179040  -0.016987
    26  H    0.000336   0.000065  -0.000861   0.001576  -0.097239   0.002453
    27  H    0.000419   0.000026   0.000068  -0.000303  -0.026102  -0.003051
    28  H    0.000317   0.000011  -0.000041   0.000155   0.009385  -0.000426
             25         26         27         28
     1  C   -0.152556   0.017332  -0.012509   0.016200
     2  H    0.006473  -0.003914  -0.001174   0.000000
     3  H   -0.030499  -0.004010   0.007821   0.003863
     4  H    0.015865   0.002596   0.002102   0.000286
     5  C    0.116207   0.018118   0.006724  -0.073586
     6  H   -0.052810  -0.004697   0.007818  -0.008765
     7  C    0.218487   0.055658  -0.036909   0.003163
     8  H   -0.003747   0.001948   0.000922  -0.001192
     9  H   -0.030031  -0.012115   0.001616  -0.001098
    10  C   -0.032697  -0.005386   0.002301  -0.004875
    11  H    0.002168   0.000197  -0.000607  -0.000190
    12  H   -0.000471   0.000008   0.000013  -0.000030
    13  C    0.009842  -0.003517  -0.000052  -0.001098
    14  H    0.000312  -0.000596   0.000016  -0.000110
    15  C   -0.000532   0.000498  -0.000069  -0.000109
    16  H   -0.000324  -0.000027   0.000025  -0.000021
    17  H    0.000128  -0.000002   0.000002  -0.000002
    18  H    0.000075   0.000046   0.000000   0.000019
    19  C   -0.002514   0.000336   0.000419   0.000317
    20  H   -0.000437   0.000065   0.000026   0.000011
    21  H   -0.000114  -0.000861   0.000068  -0.000041
    22  H    0.002956   0.001576  -0.000303   0.000155
    23  C   -0.179040  -0.097239  -0.026102   0.009385
    24  O   -0.016987   0.002453  -0.003051  -0.000426
    25  C    5.587259   0.364493   0.424881   0.404862
    26  H    0.364493   0.586759  -0.033340  -0.024894
    27  H    0.424881  -0.033340   0.518636  -0.035245
    28  H    0.404862  -0.024894  -0.035245   0.563916
 Mulliken atomic charges:
              1
     1  C   -0.589930
     2  H    0.139205
     3  H    0.181936
     4  H    0.151976
     5  C    0.328909
     6  H    0.173125
     7  C   -0.342678
     8  H    0.166738
     9  H    0.140751
    10  C   -0.500247
    11  H    0.174046
    12  H    0.176204
    13  C    0.501676
    14  H    0.135269
    15  C   -0.618992
    16  H    0.136599
    17  H    0.149054
    18  H    0.132285
    19  C   -0.651947
    20  H    0.140815
    21  H    0.145737
    22  H    0.132728
    23  C    0.011453
    24  O   -0.227455
    25  C   -0.651251
    26  H    0.138516
    27  H    0.175971
    28  H    0.149506
 Sum of Mulliken atomic charges =   0.00000
 Mulliken charges with hydrogens summed into heavy atoms:
              1
     1  C   -0.116813
     5  C    0.502034
     7  C   -0.035189
    10  C   -0.149998
    13  C    0.636945
    15  C   -0.201054
    19  C   -0.232666
    23  C    0.011453
    24  O   -0.227455
    25  C   -0.187258
 Sum of Mulliken charges with hydrogens summed into heavy atoms =   0.00000
 Electronic spatial extent (au):  <R**2>=           2533.1095
 Charge=              0.0000 electrons
 Dipole moment (field-independent basis, Debye):
    X=             -0.1704    Y=              2.2483    Z=             -1.5509  Tot=              2.7366
 Quadrupole moment (field-independent basis, Debye-Ang):
   XX=            -64.2712   YY=            -69.6350   ZZ=            -66.2015
   XY=              3.4755   XZ=             -1.4666   YZ=              2.6328
 Traceless Quadrupole moment (field-independent basis, Debye-Ang):
   XX=              2.4314   YY=             -2.9325   ZZ=              0.5011
   XY=              3.4755   XZ=             -1.4666   YZ=              2.6328
 Octapole moment (field-independent basis, Debye-Ang**2):
  XXX=             14.8917  YYY=             -0.5734  ZZZ=              1.4317  XYY=             -0.4356
  XXY=              4.4139  XXZ=             -2.7344  XZZ=              0.7147  YZZ=             -0.0761
  YYZ=             -3.9067  XYZ=              2.1344
 Hexadecapole moment (field-independent basis, Debye-Ang**3):
 XXXX=          -2841.1602 YYYY=           -472.9072 ZZZZ=           -231.0144 XXXY=              1.6851
 XXXZ=             14.9098 YYYX=              9.3203 YYYZ=              2.8056 ZZZX=              0.5895
 ZZZY=             -0.7203 XXYY=           -564.4453 XXZZ=           -516.1489 YYZZ=           -120.1709
 XXYZ=             -2.2054 YYXZ=             -3.0351 ZZXY=             -2.0628
 N-N= 5.459353961935D+02 E-N=-2.088549052685D+03  KE= 4.270951469557D+02
 No NMR shielding tensors so no spin-rotation constants.
 Leave Link  601 at Sun Feb  9 02:00:51 2014, MaxMem= 4026531840 cpu:       4.2
 (Enter /usr/caen/gaussian-09revc/g09/l801.exe)
 Range of M.O.s used for correlation:     1   346
 NBasis=   346 NAE=    40 NBE=    40 NFC=     0 NFV=     0
 NROrb=    346 NOA=    40 NOB=    40 NVA=   306 NVB=   306

 **** Warning!!: The largest alpha MO coefficient is  0.14930508D+03

 Leave Link  801 at Sun Feb  9 02:00:52 2014, MaxMem= 4026531840 cpu:       0.2
 (Enter /usr/caen/gaussian-09revc/g09/l914.exe)
 RHF ground state
 Doing stability rather than CIS.
 MDV=  4026531840 DFT=T DoStab=T Mixed=T DoRPA=F DoScal=F NonHer=F
 Would need an additional   240800000 words for in-memory AO integral storage.
 Making orbital integer symmetry assigments:
 Orbital symmetries:
       Occupied  (A) (A) (A) (A) (A) (A) (A) (A) (A) (A) (A) (A)
                 (A) (A) (A) (A) (A) (A) (A) (A) (A) (A) (A) (A)
                 (A) (A) (A) (A) (A) (A) (A) (A) (A) (A) (A) (A)
                 (A) (A) (A) (A)
       Virtual   (A) (A) (A) (A) (A) (A) (A) (A) (A) (A) (A) (A)
                 (A) (A) (A) (A) (A) (A) (A) (A) (A) (A) (A) (A)
                 (A) (A) (A) (A) (A) (A) (A) (A) (A) (A) (A) (A)
                 (A) (A) (A) (A) (A) (A) (A) (A) (A) (A) (A) (A)
                 (A) (A) (A) (A) (A) (A) (A) (A) (A) (A) (A) (A)
                 (A) (A) (A) (A) (A) (A) (A) (A) (A) (A) (A) (A)
                 (A) (A) (A) (A) (A) (A) (A) (A) (A) (A) (A) (A)
                 (A) (A) (A) (A) (A) (A) (A) (A) (A) (A) (A) (A)
                 (A) (A) (A) (A) (A) (A) (A) (A) (A) (A) (A) (A)
                 (A) (A) (A) (A) (A) (A) (A) (A) (A) (A) (A) (A)
                 (A) (A) (A) (A) (A) (A) (A) (A) (A) (A) (A) (A)
                 (A) (A) (A) (A) (A) (A) (A) (A) (A) (A) (A) (A)
                 (A) (A) (A) (A) (A) (A) (A) (A) (A) (A) (A) (A)
                 (A) (A) (A) (A) (A) (A) (A) (A) (A) (A) (A) (A)
                 (A) (A) (A) (A) (A) (A) (A) (A) (A) (A) (A) (A)
                 (A) (A) (A) (A) (A) (A) (A) (A) (A) (A) (A) (A)
                 (A) (A) (A) (A) (A) (A) (A) (A) (A) (A) (A) (A)
                 (A) (A) (A) (A) (A) (A) (A) (A) (A) (A) (A) (A)
                 (A) (A) (A) (A) (A) (A) (A) (A) (A) (A) (A) (A)
                 (A) (A) (A) (A) (A) (A) (A) (A) (A) (A) (A) (A)
                 (A) (A) (A) (A) (A) (A) (A) (A) (A) (A) (A) (A)
                 (A) (A) (A) (A) (A) (A) (A) (A) (A) (A) (A) (A)
                 (A) (A) (A) (A) (A) (A) (A) (A) (A) (A) (A) (A)
                 (A) (A) (A) (A) (A) (A) (A) (A) (A) (A) (A) (A)
                 (A) (A) (A) (A) (A) (A) (A) (A) (A) (A) (A) (A)
                 (A) (A) (A) (A) (A) (A)
    24 initial guesses have been made.
 Convergence on wavefunction:    0.001000000000000
 Davidson Disk Diagonalization:  ConvIn= 1.00D-03 SkipCon=T Conv= 1.00D-03.
 Max sub-space:   200 roots to seek:    24 dimension of matrix:  24480
 Iteration     1 Dimension    24 NMult    24
 CISAX:  IP=  8 NPass=   1 NMax=    24.
 CISAX will form    24 AO SS matrices at one time.
 NMat=    24 NSing=    12.
 Symmetry not used in FoFDir.
 MinBra= 0 MaxBra= 2 Meth= 1.
 IRaf=       0 NMat=  24 IRICut=       1 DoRegI=T DoRafI=F ISym2E= 0 JSym2E=0.
 New state      1 was old state      2
 Excitation Energies [eV] at current iteration:
 Root      1 :     3.671699832790368
 Root      2 :     4.721887423590511
 Root      3 :     5.680179779979695
 Root      4 :     5.735087621635291
 Root      5 :     6.216449388208662
 Root      6 :     6.269048946132390
 Root      7 :     6.272438884854483
 Root      8 :     6.291744879659299
 Root      9 :     6.390336908020414
 Root     10 :     6.433915611531754
 Root     11 :     6.714184040310218
 Root     12 :     6.752302941518256
 Root     13 :     6.847741142672784
 Root     14 :     6.858160473397231
 Root     15 :     6.901427690521646
 Root     16 :     6.915311634060173
 Root     17 :     7.299346137603910
 Root     18 :     7.307266705966296
 Root     19 :     7.329618365057105
 Root     20 :     7.351199648767714
 Root     21 :     7.354827461859040
 Root     22 :     7.411801949397791
 Root     23 :     7.479326446462012
 Root     24 :     7.508067971917077
 Iteration     2 Dimension    48 NMult    48
 CISAX:  IP=  8 NPass=   1 NMax=    24.
 CISAX will form    24 AO SS matrices at one time.
 NMat=    24 NSing=    12.
 Root      1 not converged, maximum delta is    0.035096294712131
 Excitation Energies [eV] at current iteration:
 Root      1 :     3.436315220896844   Change is   -0.235384611893523
 Root      2 :     4.609246385308206   Change is   -0.112641038282305
 Root      3 :     5.628339470271672   Change is   -0.051840309708023
 Root      4 :     5.716807407164279   Change is   -0.018280214471012
 Root      5 :     6.188359212343998   Change is   -0.028090175864663
 Root      6 :     6.237670092186429   Change is   -0.031378853945961
 Iteration     3 Dimension    54 NMult    54
 CISAX:  IP=  1 NPass=   1 NMax=     6.
 CISAX will form     6 AO SS matrices at one time.
 NMat=     6 NSing=     3.
 Root      1 not converged, maximum delta is    0.005389250806449
 Excitation Energies [eV] at current iteration:
 Root      1 :     3.432019989985418   Change is   -0.004295230911427
 Root      2 :     4.589019867246361   Change is   -0.020226518061845
 Root      3 :     5.626856317413218   Change is   -0.001483152858453
 Root      4 :     5.713315876506933   Change is   -0.003491530657347
 Root      5 :     6.174230564771461   Change is   -0.014128647572536
 Root      6 :     6.231419259714449   Change is   -0.006250832471980
 Iteration     4 Dimension    60 NMult    60
 CISAX:  IP=  1 NPass=   1 NMax=     6.
 CISAX will form     6 AO SS matrices at one time.
 NMat=     6 NSing=     3.
 Root      1 not converged, maximum delta is    0.001860836277281
 Excitation Energies [eV] at current iteration:
 Root      1 :     3.431866936401883   Change is   -0.000153053583535
 Root      2 :     4.416891628718506   Change is   -1.757338936052955
 Root      3 :     4.587016746143719   Change is   -0.002003121102643
 Root      4 :     5.626749544211647   Change is   -0.000106773201572
 Root      5 :     5.712891039234027   Change is   -0.000424837272905
 Root      6 :     6.188201905725396   Change is   -0.043217353989053
 Iteration     5 Dimension    66 NMult    66
 CISAX:  IP=  1 NPass=   1 NMax=     6.
 CISAX will form     6 AO SS matrices at one time.
 NMat=     6 NSing=     3.
 Root      1 has converged.
 Excitation Energies [eV] at current iteration:
 Root      1 :     3.431861550026662   Change is   -0.000005386375220
 Root      2 :     4.244667757136915   Change is   -0.172223871581591
 Root      3 :     4.586863258980501   Change is   -0.000153487163217
 Root      4 :     5.626739173164815   Change is   -0.000010371046832
 Root      5 :     5.712862070464176   Change is   -0.000028968769850
 Root      6 :     6.188130851137555   Change is   -0.000071054587841
 Convergence achieved on expansion vectors.
 ***********************************************************************
 Stability analysis using <AA,BB:AA,BB> singles matrix:
 ***********************************************************************

 Eigenvectors of the stability matrix:
 
 Eigenvector   1:      Triplet-A    Eigenvalue= 0.1261186  <S**2>=2.000
      40 -> 41         0.67664
      40 -> 42         0.14221
 SavETr:  write IOETrn=   770 NScale= 10 NData=  16 NLR=1 LETran=      28.
 The wavefunction is stable under the perturbations considered.
 Leave Link  914 at Sun Feb  9 02:05:38 2014, MaxMem= 4026531840 cpu:    2270.9
 (Enter /usr/caen/gaussian-09revc/g09/l502.exe)
 The wavefunction is already stable.
 Leave Link  502 at Sun Feb  9 02:05:38 2014, MaxMem= 4026531840 cpu:       0.1
 (Enter /usr/caen/gaussian-09revc/g09/l508.exe)
 The wavefunction is already stable.
 Leave Link  508 at Sun Feb  9 02:05:39 2014, MaxMem= 4026531840 cpu:       0.0
 (Enter /usr/caen/gaussian-09revc/g09/l601.exe)
 Copying SCF densities to generalized density rwf, IOpCl= 0 IROHF=0.

 **********************************************************************

            Population analysis using the SCF density.

 **********************************************************************

 Orbital symmetries:
       Occupied  (A) (A) (A) (A) (A) (A) (A) (A) (A) (A) (A) (A)
                 (A) (A) (A) (A) (A) (A) (A) (A) (A) (A) (A) (A)
                 (A) (A) (A) (A) (A) (A) (A) (A) (A) (A) (A) (A)
                 (A) (A) (A) (A)
       Virtual   (A) (A) (A) (A) (A) (A) (A) (A) (A) (A) (A) (A)
                 (A) (A) (A) (A) (A) (A) (A) (A) (A) (A) (A) (A)
                 (A) (A) (A) (A) (A) (A) (A) (A) (A) (A) (A) (A)
                 (A) (A) (A) (A) (A) (A) (A) (A) (A) (A) (A) (A)
                 (A) (A) (A) (A) (A) (A) (A) (A) (A) (A) (A) (A)
                 (A) (A) (A) (A) (A) (A) (A) (A) (A) (A) (A) (A)
                 (A) (A) (A) (A) (A) (A) (A) (A) (A) (A) (A) (A)
                 (A) (A) (A) (A) (A) (A) (A) (A) (A) (A) (A) (A)
                 (A) (A) (A) (A) (A) (A) (A) (A) (A) (A) (A) (A)
                 (A) (A) (A) (A) (A) (A) (A) (A) (A) (A) (A) (A)
                 (A) (A) (A) (A) (A) (A) (A) (A) (A) (A) (A) (A)
                 (A) (A) (A) (A) (A) (A) (A) (A) (A) (A) (A) (A)
                 (A) (A) (A) (A) (A) (A) (A) (A) (A) (A) (A) (A)
                 (A) (A) (A) (A) (A) (A) (A) (A) (A) (A) (A) (A)
                 (A) (A) (A) (A) (A) (A) (A) (A) (A) (A) (A) (A)
                 (A) (A) (A) (A) (A) (A) (A) (A) (A) (A) (A) (A)
                 (A) (A) (A) (A) (A) (A) (A) (A) (A) (A) (A) (A)
                 (A) (A) (A) (A) (A) (A) (A) (A) (A) (A) (A) (A)
                 (A) (A) (A) (A) (A) (A) (A) (A) (A) (A) (A) (A)
                 (A) (A) (A) (A) (A) (A) (A) (A) (A) (A) (A) (A)
                 (A) (A) (A) (A) (A) (A) (A) (A) (A) (A) (A) (A)
                 (A) (A) (A) (A) (A) (A) (A) (A) (A) (A) (A) (A)
                 (A) (A) (A) (A) (A) (A) (A) (A) (A) (A) (A) (A)
                 (A) (A) (A) (A) (A) (A) (A) (A) (A) (A) (A) (A)
                 (A) (A) (A) (A) (A) (A) (A) (A) (A) (A) (A) (A)
                 (A) (A) (A) (A) (A) (A)
 The electronic state is 1-A.
 Alpha  occ. eigenvalues --  -19.11388 -10.25909 -10.18802 -10.18145 -10.17739
 Alpha  occ. eigenvalues --  -10.17239 -10.16584 -10.16308 -10.16065 -10.15772
 Alpha  occ. eigenvalues --   -1.04856  -0.82080  -0.80733  -0.75792  -0.69404
 Alpha  occ. eigenvalues --   -0.68725  -0.66826  -0.60932  -0.56305  -0.52275
 Alpha  occ. eigenvalues --   -0.49284  -0.47788  -0.45979  -0.45059  -0.44191
 Alpha  occ. eigenvalues --   -0.43244  -0.41347  -0.40548  -0.39675  -0.38913
 Alpha  occ. eigenvalues --   -0.38206  -0.37329  -0.36252  -0.35631  -0.34765
 Alpha  occ. eigenvalues --   -0.34322  -0.32889  -0.32834  -0.32546  -0.25078
 Alpha virt. eigenvalues --   -0.02442  -0.01491  -0.00231   0.00410   0.00825
 Alpha virt. eigenvalues --    0.01871   0.02170   0.02348   0.03892   0.03973
 Alpha virt. eigenvalues --    0.04278   0.04571   0.04939   0.05607   0.06019
 Alpha virt. eigenvalues --    0.06299   0.07397   0.07791   0.08032   0.08510
 Alpha virt. eigenvalues --    0.09243   0.09738   0.09944   0.10874   0.10985
 Alpha virt. eigenvalues --    0.11426   0.11824   0.12285   0.12482   0.13065
 Alpha virt. eigenvalues --    0.13118   0.13402   0.13553   0.13930   0.14295
 Alpha virt. eigenvalues --    0.14407   0.14822   0.15248   0.15881   0.15975
 Alpha virt. eigenvalues --    0.16323   0.16566   0.16860   0.17309   0.17828
 Alpha virt. eigenvalues --    0.17846   0.18357   0.18638   0.19053   0.19346
 Alpha virt. eigenvalues --    0.19755   0.19902   0.20334   0.20866   0.20999
 Alpha virt. eigenvalues --    0.22027   0.22230   0.22902   0.23869   0.24923
 Alpha virt. eigenvalues --    0.25095   0.25357   0.25743   0.26038   0.26963
 Alpha virt. eigenvalues --    0.27777   0.27890   0.28860   0.29318   0.30736
 Alpha virt. eigenvalues --    0.31922   0.32170   0.32595   0.33365   0.33605
 Alpha virt. eigenvalues --    0.33800   0.34304   0.34927   0.35815   0.36304
 Alpha virt. eigenvalues --    0.37748   0.38351   0.39344   0.41876   0.42455
 Alpha virt. eigenvalues --    0.43151   0.44343   0.45606   0.46306   0.48452
 Alpha virt. eigenvalues --    0.49999   0.50509   0.51473   0.52450   0.53212
 Alpha virt. eigenvalues --    0.54277   0.55185   0.55938   0.56948   0.57406
 Alpha virt. eigenvalues --    0.58879   0.59257   0.61492   0.63156   0.64284
 Alpha virt. eigenvalues --    0.64758   0.65570   0.65720   0.66664   0.67453
 Alpha virt. eigenvalues --    0.68057   0.68378   0.68973   0.69284   0.70099
 Alpha virt. eigenvalues --    0.70514   0.71536   0.71950   0.72552   0.72996
 Alpha virt. eigenvalues --    0.74030   0.75322   0.75842   0.76538   0.77794
 Alpha virt. eigenvalues --    0.78459   0.79073   0.80399   0.80454   0.82987
 Alpha virt. eigenvalues --    0.85149   0.86875   0.89041   0.94052   0.95878
 Alpha virt. eigenvalues --    0.98670   0.99394   1.01284   1.03003   1.07243
 Alpha virt. eigenvalues --    1.08417   1.11367   1.12904   1.14725   1.17661
 Alpha virt. eigenvalues --    1.17902   1.19674   1.21262   1.24348   1.26010
 Alpha virt. eigenvalues --    1.29305   1.30440   1.32345   1.38725   1.42610
 Alpha virt. eigenvalues --    1.43343   1.45061   1.45538   1.46340   1.46900
 Alpha virt. eigenvalues --    1.47622   1.48131   1.48926   1.50588   1.54191
 Alpha virt. eigenvalues --    1.55345   1.55687   1.56950   1.57557   1.58721
 Alpha virt. eigenvalues --    1.59545   1.59927   1.61176   1.61671   1.62985
 Alpha virt. eigenvalues --    1.63708   1.64000   1.64674   1.65181   1.66006
 Alpha virt. eigenvalues --    1.67948   1.68779   1.69711   1.71907   1.73566
 Alpha virt. eigenvalues --    1.74399   1.75579   1.77119   1.78538   1.78913
 Alpha virt. eigenvalues --    1.79450   1.80361   1.81515   1.83615   1.85237
 Alpha virt. eigenvalues --    1.87528   1.89514   1.94705   1.97774   1.99499
 Alpha virt. eigenvalues --    2.01082   2.03893   2.04964   2.06187   2.07463
 Alpha virt. eigenvalues --    2.09795   2.10142   2.11897   2.12888   2.14676
 Alpha virt. eigenvalues --    2.15230   2.16711   2.21571   2.24887   2.27072
 Alpha virt. eigenvalues --    2.29356   2.31888   2.33045   2.35092   2.37518
 Alpha virt. eigenvalues --    2.39380   2.40870   2.43437   2.45160   2.47184
 Alpha virt. eigenvalues --    2.49404   2.50074   2.50346   2.50668   2.52004
 Alpha virt. eigenvalues --    2.52946   2.53863   2.54226   2.54784   2.57408
 Alpha virt. eigenvalues --    2.58205   2.59443   2.60388   2.62230   2.63057
 Alpha virt. eigenvalues --    2.63716   2.65480   2.68006   2.69752   2.71468
 Alpha virt. eigenvalues --    2.72663   2.74638   2.75064   2.75346   2.77171
 Alpha virt. eigenvalues --    2.77689   2.79786   2.81640   2.84225   2.87480
 Alpha virt. eigenvalues --    2.88435   2.91309   2.92510   2.93998   2.96292
 Alpha virt. eigenvalues --    2.96441   2.98828   3.00644   3.01529   3.04641
 Alpha virt. eigenvalues --    3.07551   3.15493   3.16795   3.18818   3.35804
 Alpha virt. eigenvalues --    3.36976   3.43653   3.48731   3.53824   3.70633
 Alpha virt. eigenvalues --    3.76872   3.78251   3.78507   3.78861   3.80403
 Alpha virt. eigenvalues --    3.81249   3.82506   3.83327   3.84717   3.86735
 Alpha virt. eigenvalues --    3.99919   4.07592   4.10666   4.20656   4.25303
 Alpha virt. eigenvalues --    4.29918   4.30339   4.41048   5.10814   5.27467
 Alpha virt. eigenvalues --    5.74775  23.82020  23.82683  23.85662  23.90040
 Alpha virt. eigenvalues --   23.92487  23.96932  23.97795  23.97858  23.98756
 Alpha virt. eigenvalues --   50.00972
          Condensed to atoms (all electrons):
              1          2          3          4          5          6
     1  C    5.594429   0.354500   0.415270   0.402624   0.062554  -0.063222
     2  H    0.354500   0.573687  -0.034679  -0.027972   0.001869  -0.006677
     3  H    0.415270  -0.034679   0.507054  -0.035743   0.037053   0.012737
     4  H    0.402624  -0.027972  -0.035743   0.583009  -0.079644  -0.013867
     5  C    0.062554   0.001869   0.037053  -0.079644   7.587656   0.497272
     6  H   -0.063222  -0.006677   0.012737  -0.013867   0.497272   0.567834
     7  C   -0.067384  -0.002140  -0.031346   0.013230   0.242688  -0.009436
     8  H   -0.001316  -0.003720   0.001075   0.000531   0.001250   0.006675
     9  H   -0.019610   0.004997   0.000148  -0.001473   0.024852  -0.005399
    10  C   -0.020881   0.005839   0.002882  -0.004978  -0.746978   0.009775
    11  H   -0.000938  -0.000353   0.000194  -0.000088  -0.016530   0.001113
    12  H   -0.002111  -0.000131  -0.000038   0.000046  -0.014903  -0.000041
    13  C   -0.003514   0.001595  -0.001302  -0.000036  -0.083280  -0.007127
    14  H   -0.000951   0.000310  -0.000023  -0.000024  -0.007535  -0.000406
    15  C   -0.000418   0.000162  -0.000072  -0.000073  -0.018981   0.000184
    16  H    0.000020   0.000032  -0.000005  -0.000004  -0.001476  -0.000094
    17  H   -0.000068   0.000008  -0.000003  -0.000001  -0.000445  -0.000047
    18  H    0.000231  -0.000049  -0.000007   0.000016   0.003901   0.000049
    19  C    0.004730   0.000046  -0.000075   0.000100   0.036060  -0.000887
    20  H    0.000333   0.000027  -0.000010   0.000000   0.001278  -0.000326
    21  H   -0.000395   0.000010   0.000003   0.000000   0.000014   0.000151
    22  H    0.001337  -0.000324  -0.000045   0.000094   0.002708   0.000409
    23  C    0.123824  -0.003470  -0.028842  -0.009149  -1.950508  -0.103672
    24  O   -0.057579  -0.004157  -0.003337   0.000577   0.024752   0.000329
    25  C   -0.152556   0.006473  -0.030499   0.015865   0.116207  -0.052810
    26  H    0.017332  -0.003914  -0.004010   0.002596   0.018118  -0.004697
    27  H   -0.012509  -0.001174   0.007821   0.002102   0.006724   0.007818
    28  H    0.016200   0.000000   0.003863   0.000286  -0.073586  -0.008765
              7          8          9         10         11         12
     1  C   -0.067384  -0.001316  -0.019610  -0.020881  -0.000938  -0.002111
     2  H   -0.002140  -0.003720   0.004997   0.005839  -0.000353  -0.000131
     3  H   -0.031346   0.001075   0.000148   0.002882   0.000194  -0.000038
     4  H    0.013230   0.000531  -0.001473  -0.004978  -0.000088   0.000046
     5  C    0.242688   0.001250   0.024852  -0.746978  -0.016530  -0.014903
     6  H   -0.009436   0.006675  -0.005399   0.009775   0.001113  -0.000041
     7  C    9.429947   0.458121   0.369644  -1.897588  -0.060325  -0.090697
     8  H    0.458121   0.567514  -0.080222  -0.021501   0.010127  -0.008161
     9  H    0.369644  -0.080222   0.634567  -0.141428  -0.009262   0.004975
    10  C   -1.897588  -0.021501  -0.141428   8.562726   0.499566   0.479572
    11  H   -0.060325   0.010127  -0.009262   0.499566   0.556782  -0.041351
    12  H   -0.090697  -0.008161   0.004975   0.479572  -0.041351   0.548461
    13  C    0.310281   0.003050   0.038277  -1.172096  -0.007346  -0.084311
    14  H   -0.040703   0.010504   0.010459  -0.113599   0.021238  -0.015623
    15  C   -0.197269  -0.004218   0.000267   0.371490   0.006055   0.013631
    16  H   -0.009076   0.001093   0.002062  -0.085919   0.005472   0.000352
    17  H    0.002643   0.000306  -0.000622   0.048748  -0.002282   0.000483
    18  H    0.001667  -0.001154  -0.000492  -0.027962  -0.000245   0.004539
    19  C    0.081359  -0.028801   0.017692  -0.075683  -0.088599   0.016595
    20  H    0.001476  -0.001548   0.001459   0.008971  -0.005492  -0.001665
    21  H    0.001546   0.002458   0.005946  -0.062484   0.010198  -0.002577
    22  H    0.095345   0.001442  -0.017856  -0.058764   0.002060   0.002866
    23  C   -2.669520  -0.080240   0.064494   1.163123  -0.042735   0.024655
    24  O    0.169818   0.002066  -0.002600  -0.181928  -0.012875  -0.010290
    25  C    0.218487  -0.003747  -0.030031  -0.032697   0.002168  -0.000471
    26  H    0.055658   0.001948  -0.012115  -0.005386   0.000197   0.000008
    27  H   -0.036909   0.000922   0.001616   0.002301  -0.000607   0.000013
    28  H    0.003163  -0.001192  -0.001098  -0.004875  -0.000190  -0.000030
             13         14         15         16         17         18
     1  C   -0.003514  -0.000951  -0.000418   0.000020  -0.000068   0.000231
     2  H    0.001595   0.000310   0.000162   0.000032   0.000008  -0.000049
     3  H   -0.001302  -0.000023  -0.000072  -0.000005  -0.000003  -0.000007
     4  H   -0.000036  -0.000024  -0.000073  -0.000004  -0.000001   0.000016
     5  C   -0.083280  -0.007535  -0.018981  -0.001476  -0.000445   0.003901
     6  H   -0.007127  -0.000406   0.000184  -0.000094  -0.000047   0.000049
     7  C    0.310281  -0.040703  -0.197269  -0.009076   0.002643   0.001667
     8  H    0.003050   0.010504  -0.004218   0.001093   0.000306  -0.001154
     9  H    0.038277   0.010459   0.000267   0.002062  -0.000622  -0.000492
    10  C   -1.172096  -0.113599   0.371490  -0.085919   0.048748  -0.027962
    11  H   -0.007346   0.021238   0.006055   0.005472  -0.002282  -0.000245
    12  H   -0.084311  -0.015623   0.013631   0.000352   0.000483   0.004539
    13  C    6.360941   0.562291  -0.124283   0.092188  -0.094679  -0.042045
    14  H    0.562291   0.630640  -0.048974   0.017179  -0.016345  -0.012998
    15  C   -0.124283  -0.048974   5.651032   0.383309   0.402260   0.403055
    16  H    0.092188   0.017179   0.383309   0.559639  -0.035880  -0.043893
    17  H   -0.094679  -0.016345   0.402260  -0.035880   0.568677  -0.019254
    18  H   -0.042045  -0.012998   0.403055  -0.043893  -0.019254   0.574963
    19  C   -0.032697  -0.138993  -0.179916  -0.034728  -0.003079   0.025811
    20  H   -0.083989  -0.004166  -0.007612   0.003572   0.000348   0.001070
    21  H    0.059428   0.013062  -0.004460   0.010585   0.000605  -0.002123
    22  H   -0.053670  -0.016788   0.005020  -0.006260   0.002973  -0.001989
    23  C   -0.168629   0.016921  -0.024551   0.005192  -0.003375   0.003452
    24  O    0.024100  -0.000368  -0.006435   0.000388  -0.000150   0.001033
    25  C    0.009842   0.000312  -0.000532  -0.000324   0.000128   0.000075
    26  H   -0.003517  -0.000596   0.000498  -0.000027  -0.000002   0.000046
    27  H   -0.000052   0.000016  -0.000069   0.000025   0.000002   0.000000
    28  H   -0.001098  -0.000110  -0.000109  -0.000021  -0.000002   0.000019
             19         20         21         22         23         24
     1  C    0.004730   0.000333  -0.000395   0.001337   0.123824  -0.057579
     2  H    0.000046   0.000027   0.000010  -0.000324  -0.003470  -0.004157
     3  H   -0.000075  -0.000010   0.000003  -0.000045  -0.028842  -0.003337
     4  H    0.000100   0.000000   0.000000   0.000094  -0.009149   0.000577
     5  C    0.036060   0.001278   0.000014   0.002708  -1.950508   0.024752
     6  H   -0.000887  -0.000326   0.000151   0.000409  -0.103672   0.000329
     7  C    0.081359   0.001476   0.001546   0.095345  -2.669520   0.169818
     8  H   -0.028801  -0.001548   0.002458   0.001442  -0.080240   0.002066
     9  H    0.017692   0.001459   0.005946  -0.017856   0.064494  -0.002600
    10  C   -0.075683   0.008971  -0.062484  -0.058764   1.163123  -0.181928
    11  H   -0.088599  -0.005492   0.010198   0.002060  -0.042735  -0.012875
    12  H    0.016595  -0.001665  -0.002577   0.002866   0.024655  -0.010290
    13  C   -0.032697  -0.083989   0.059428  -0.053670  -0.168629   0.024100
    14  H   -0.138993  -0.004166   0.013062  -0.016788   0.016921  -0.000368
    15  C   -0.179916  -0.007612  -0.004460   0.005020  -0.024551  -0.006435
    16  H   -0.034728   0.003572   0.010585  -0.006260   0.005192   0.000388
    17  H   -0.003079   0.000348   0.000605   0.002973  -0.003375  -0.000150
    18  H    0.025811   0.001070  -0.002123  -0.001989   0.003452   0.001033
    19  C    5.724149   0.426909   0.353958   0.414259   0.127936   0.007244
[...]
 5564,0.00001571,0.00032632,0.00047698,-0.00179880,-0.00706333,0.000196
 15,-0.00132293,0.00147298,0.00006059,0.00056316,0.00062475,-0.00049818
 ,-0.00057541,0.00050310,0.00005643,0.00000744,-0.00004977,-0.00004804,
 -0.00006871,0.00033752,0.00475543,-0.04389163,-0.29228365,0.00049062,-
 0.00168856,-0.01164249,-0.00579802,0.05066611,0.31909458,0.00001248,0.
 00002254,-0.00000054,-0.00000352,-0.00000311,0.00000162,-0.00000772,-0
 .00000086,-0.00000108,0.00001528,-0.00000244,-0.00000303,0.00006225,-0
 .00002401,0.00002878,0.00000014,0.00000088,-0.00000513,-0.00086974,0.0
 0036114,-0.00009926,0.00004028,-0.00009912,0.00000874,-0.00118879,0.00
 105253,-0.00002643,0.00017860,-0.00045599,-0.00031988,-0.00004249,0.00
 004839,-0.00004021,0.00013704,-0.00009902,0.00010750,0.00507500,0.0041
 3994,-0.00392390,0.00033352,-0.00066670,-0.00032137,0.00024852,0.00062
 835,-0.00028573,-0.00007064,0.00011542,-0.00000279,0.00043467,0.000247
 91,0.00013845,0.00037413,0.00015801,0.00015844,-0.17366683,-0.10533631
 ,0.07615737,-0.01994744,-0.01649094,0.01291816,-0.00033057,0.00105031,
 -0.00024856,0.18916936,0.00000431,-0.00002908,-0.00002092,0.00000518,0
 .00000241,0.00000748,0.00000881,0.00001171,-0.00000807,-0.00002259,0.0
 0000110,0.00000810,-0.00002203,-0.00005543,-0.00001592,0.00001419,0.00
 001330,-0.00002767,-0.00056079,-0.00026449,-0.00015094,0.00013417,-0.0
 0019461,-0.00015002,0.00093415,0.00044263,0.00032685,-0.00101625,0.000
 84506,0.00019747,0.00010580,-0.00003484,-0.00000825,-0.00003898,0.0000
 9681,-0.00017008,-0.02323475,-0.01625174,0.01441967,-0.00011632,0.0012
 3024,-0.00051210,0.00308592,-0.00612061,-0.00223604,0.00022390,0.00019
 136,0.00009485,0.00005140,0.00025467,-0.00022096,-0.00159087,-0.001343
 28,0.00078839,-0.10420325,-0.13384102,0.06231674,0.00548465,0.00476317
 ,-0.00437776,0.00500980,0.00326390,-0.00194154,0.11515113,0.14657000,-
 0.00001280,0.00000674,0.00000106,0.00000239,-0.00001185,-0.00000976,-0
 .00000310,-0.00000303,0.00000257,0.00000783,0.00000084,-0.00000082,0.0
 0000605,0.00002113,0.00004755,-0.00000687,0.00000499,0.00001251,0.0005
 0080,0.00039947,0.00036910,0.00007041,-0.00008011,-0.00013604,-0.00041
 165,-0.00031836,0.00005084,0.00039908,0.00056452,-0.00006028,0.0000657
 9,0.00005224,-0.00001132,-0.00014639,-0.00003995,-0.00003235,-0.005701
 66,-0.00404959,0.00165572,-0.00051345,0.00040437,0.00051345,0.00009116
 ,-0.00107559,0.00033779,-0.00020109,-0.00033704,0.00041827,0.00030273,
 0.00003359,-0.00006473,-0.00004469,-0.00030597,0.00057022,0.07584971,0
 .06303613,-0.09269910,-0.00894813,-0.00845039,0.00537385,0.02309977,0.
 01872215,-0.01251984,-0.08416759,-0.06830014,0.09629374,-0.03226599,-0
 .00605414,0.00777696,0.00123688,-0.00103335,-0.00081787,0.00063750,-0.
 00113791,0.00059871,-0.00109182,0.00241980,0.00135390,-0.14602135,-0.0
 2016678,0.01812914,0.00958828,0.00689518,-0.00551572,-0.16221950,0.015
 49519,-0.01014484,0.00154073,0.00148007,-0.00053023,0.00457847,-0.0015
 5963,-0.00065987,-0.03360891,0.00604046,-0.00660637,0.00124740,0.00045
 028,-0.00103393,0.00064332,0.00152363,-0.00023419,-0.00170505,-0.00185
 256,0.00261180,-0.00000617,-0.00023911,-0.00029738,-0.00041856,0.00017
 903,-0.00046436,0.00002130,0.00006145,-0.00008531,0.00010248,-0.000200
 37,0.00014563,-0.00005172,0.00005005,-0.00001377,0.00036125,-0.0007268
 2,0.00056859,0.00062937,0.00012820,-0.00009262,-0.00004794,0.00005445,
 -0.00018146,0.00000545,0.00100714,-0.00035419,0.47303064,0.01263323,0.
 01735086,-0.00622688,0.00120620,-0.00034308,-0.00175959,0.00248782,-0.
 00126454,0.00177503,0.00504699,-0.00531064,-0.00063175,-0.01441750,-0.
 08340674,0.00756865,-0.01482845,-0.01221231,0.00408447,0.01256055,-0.0
 8727393,-0.00172545,-0.00462903,-0.00061686,0.00059200,0.02885944,-0.0
 1620903,0.01302120,-0.00880497,0.01261394,-0.00933767,-0.00127197,0.00
 051959,0.00161062,-0.00265866,-0.00230698,-0.00071898,-0.00347260,-0.0
 0466817,0.00350309,0.00077252,-0.00004449,0.00050306,-0.00163497,0.001
 08790,-0.00055879,-0.00010822,0.00002730,0.00013374,-0.00064884,-0.000
 38031,0.00018350,-0.00003719,-0.00016739,-0.00014488,0.00059887,-0.000
 38674,0.00026331,-0.00004307,-0.00005423,-0.00004639,-0.00004119,0.000
 08555,0.00007210,0.00016267,-0.00009873,-0.00011289,-0.01986160,0.7404
 6722,0.01262499,0.00063800,-0.00363380,0.00054628,0.00064741,0.0004613
 1,-0.00290769,0.00117022,-0.00034370,-0.00017425,-0.00007824,-0.000233
 97,0.00737335,0.00562304,-0.08691139,0.02294303,0.01349177,-0.00761615
 ,-0.00981285,-0.00318604,-0.08480919,-0.03013617,0.01717269,-0.0133186
 9,0.00993853,-0.00181489,0.00066726,0.00893784,-0.01035748,0.00637991,
 0.00198704,-0.00055545,-0.00081807,0.00065345,0.00156170,0.00098712,0.
 00173528,0.00302522,-0.00269249,-0.00013244,0.00007686,0.00021715,0.00
 116111,-0.00045045,0.00088486,-0.00003177,-0.00011404,-0.00006468,0.00
 045085,0.00031257,-0.00014750,0.00002285,0.00011685,0.00006211,-0.0003
 3909,-0.00003524,0.00031898,0.00020834,0.00020186,-0.00004773,-0.00000
 328,-0.00003375,-0.00005774,0.00001481,0.00038629,-0.00029465,0.017724
 40,-0.30908581,0.44609811,-0.00041475,-0.00073443,-0.00044890,0.000127
 05,0.00005078,0.00032871,0.00058010,-0.00150413,0.00127280,0.00044745,
 -0.00104844,0.00061383,0.01035951,-0.02871566,0.01931479,-0.00577839,-
 0.00522069,0.00267179,0.00433458,0.03405755,-0.02169039,-0.00323149,0.
 00251014,-0.00211653,-0.00479002,0.00342850,-0.00251105,0.00136148,0.0
 0013389,-0.00174916,0.00017325,-0.00044041,-0.00010563,-0.00036733,0.0
 0184246,0.00035660,0.00145664,0.00134463,-0.00033724,-0.00020879,0.000
 11648,-0.00003599,0.00015487,0.00012452,-0.00002454,0.00001722,-0.0000
 4129,0.00007922,-0.00018185,0.00004895,-0.00003404,0.00007660,-0.00001
 881,0.00003384,-0.00068495,0.00017888,-0.00050156,-0.00037509,0.000193
 81,0.00008002,0.00003686,-0.00002864,0.00011739,0.00002778,-0.00037892
 ,0.00012124,-0.10844673,0.02586986,-0.01706197,0.10561721,0.00381836,-
 0.00292307,0.00014109,-0.00058899,0.00047447,0.00139379,-0.00174932,0.
 00101612,-0.00128347,-0.00046358,0.00190626,-0.00051693,-0.01443134,-0
 .03364212,0.02890039,-0.00586735,-0.00186015,0.00182637,0.01943712,-0.
 02337697,0.03263537,0.00419059,-0.00247015,0.00020340,0.00107153,0.000
 58330,0.00033510,-0.00521751,-0.00322656,0.00042509,0.00085421,0.00019
 517,-0.00090875,0.00180394,0.00218320,0.00015388,0.00043308,0.00134458
 ,-0.00029513,-0.00028705,-0.00009561,-0.00034950,0.00040036,-0.0003207
 7,-0.00000934,0.00008587,-0.00000307,-0.00007070,0.00014569,0.00011437
 ,-0.00004515,0.00009406,0.00017526,0.00007966,-0.00046014,-0.00019960,
 0.00005301,0.00017290,0.00024054,-0.00004377,0.00004181,-0.00001973,-0
 .00008257,0.00004419,0.00052210,-0.00016191,0.02670162,-0.53901131,0.2
 9880683,-0.03073506,0.59582065,-0.00335463,0.00211265,0.00102489,-0.00
 006949,-0.00045377,0.00006569,0.00126146,-0.00082432,-0.00037203,-0.00
 003281,-0.00024583,0.00036770,0.01055109,0.02702399,0.00070673,0.00101
 251,0.00149419,0.00027279,-0.01305952,0.03472344,0.00264671,0.00189187
 ,-0.00167445,0.00133864,-0.00538947,0.00076550,-0.00164110,0.00255533,
 0.00041065,-0.00195849,-0.00108442,0.00062772,0.00119366,-0.00045902,-
 0.00077648,-0.00045300,-0.00033371,-0.00056896,0.00086116,0.00034886,-
 0.00003706,0.00021002,-0.00026863,0.00008508,-0.00016163,-0.00008624,0
 .00004445,0.00007940,-0.00010547,-0.00006876,0.00006211,-0.00000777,-0
 .00006530,-0.00004569,0.00013888,0.00027539,-0.00030975,-0.00018471,-0
 .00015289,0.00006541,-0.00004061,0.00002235,0.00007962,-0.00007521,-0.
 00043964,0.00020558,-0.01629983,0.29893832,-0.25884082,0.02017453,-0.3
 6329470,0.25537917,0.00729024,0.01622698,0.02042564,-0.00399780,0.0042
 5478,0.00194257,0.00064554,-0.00034722,0.00007888,0.00103631,0.0003582
 0,0.00053717,-0.08205459,-0.02005036,-0.02882721,-0.00215700,-0.004947
 53,-0.00606182,-0.00150437,0.00164575,0.00262868,0.00068308,-0.0005129
 6,0.00045450,-0.00128693,0.00006850,-0.00043404,-0.00027578,0.00071962
 ,0.00024918,-0.00011782,-0.00008054,0.00002348,0.00012993,0.00005491,0
 .00000873,0.00004689,-0.00008329,0.00014068,-0.00001462,0.00001505,-0.
 00002423,-0.00005985,0.00004426,-0.00004730,0.00001045,-0.00000419,0.0
 0000182,-0.00003823,-0.00001615,-0.00000191,0.00001253,0.00001027,0.00
 000380,-0.00005325,-0.00002997,-0.00002604,-0.00001153,0.00002896,0.00
 000963,-0.00001984,-0.00001202,0.00003277,0.00001204,-0.00001073,-0.00
 003317,-0.00928589,-0.01997443,-0.02167336,-0.00087875,0.00102265,0.00
 133075,0.55510183,-0.00325722,-0.01740404,-0.02157241,0.00261072,-0.00
 232474,-0.00105418,-0.00114397,0.00063192,-0.00038812,-0.00145070,0.00
 148178,0.00084753,-0.01011208,-0.10199694,-0.04139362,0.00550710,0.011
 01555,0.01293079,0.00045158,0.00119398,0.00145177,0.00050062,-0.000416
 29,-0.00040327,0.00000802,-0.00018566,0.00018676,0.00001623,-0.0000429
 2,0.00003394,0.00010561,0.00009351,-0.00010640,-0.00002775,-0.00003870
 ,-0.00000043,0.00001131,0.00008188,-0.00003053,-0.00003150,-0.00001703
 ,-0.00003236,0.00002571,-0.00003537,-0.00000174,0.00000565,0.00000910,
 -0.00000785,0.00001526,0.00000467,-0.00000115,-0.00001027,-0.00001282,
 0.00000094,0.00000109,0.00001870,0.00002087,-0.00000900,-0.00002072,-0
 .00001507,0.00003216,0.00000632,-0.00004243,-0.00000028,-0.00000254,0.
 00004647,-0.01309424,-0.01884578,-0.01208486,-0.00044525,0.00298109,0.
 00107946,-0.02106206,0.52691251,0.00007964,-0.01040986,-0.01054873,0.0
 0086378,-0.00052298,0.00048469,-0.00055598,0.00141272,0.00136007,-0.00
 096519,0.00053315,0.00019544,-0.01395082,-0.03434961,-0.12684845,-0.00
 920162,-0.01792723,-0.02256844,0.00108899,-0.00039658,-0.00147083,-0.0
 0000984,0.00004431,0.00008276,0.00048117,-0.00015616,0.00004312,0.0002
 9078,-0.00043324,0.00035050,0.00000272,0.00002990,-0.00003227,-0.00012
 723,-0.00004856,-0.00003848,-0.00001695,0.00013465,-0.00020868,0.00000
 033,-0.00000743,0.00001224,0.00008114,-0.00007411,0.00006583,-0.000007
 52,0.00000326,-0.00001431,0.00006609,0.00001667,-0.00000425,-0.0000226
 7,-0.00000752,-0.00000262,0.00006839,0.00002700,0.00004655,0.00003822,
 -0.00003322,-0.00000447,0.00000280,0.00000390,-0.00002722,-0.00001650,
 0.00002955,0.00000575,-0.00997213,-0.00429940,0.01066026,0.00183992,0.
 00501895,-0.00496408,-0.02797787,-0.05494033,0.49016389,-0.00029209,-0
 .00118777,-0.00113906,0.00060529,-0.00022617,-0.00027934,-0.00006956,-
 0.00011754,-0.00004331,0.00032090,-0.00002724,-0.00030728,0.00817489,-
 0.00710313,-0.00174236,0.00043724,0.00037838,0.00068078,0.00018753,-0.
 00002222,-0.00033584,0.00000567,-0.00004508,0.00000499,-0.00025920,-0.
 00012187,-0.00019221,0.00002625,-0.00001544,0.00008906,0.00000563,0.00
 000650,-0.00000942,0.00000412,-0.00000660,-0.00000572,-0.00000878,0.00
 003782,-0.00003928,-0.00000010,-0.00000411,-0.00000155,0.00002072,-0.0
 0001952,0.00001530,-0.00000167,0.00000218,-0.00000485,0.00001674,0.000
 00371,-0.00000051,-0.00000597,-0.00000604,-0.00000090,0.00002060,0.000
 00273,0.00001421,0.00001231,-0.00000640,-0.00000061,-0.00000073,0.0000
 0243,-0.00000991,-0.00000834,0.00000884,0.00000164,0.00009756,-0.00057
 140,0.00032263,0.00019649,0.00029413,-0.00009045,-0.18582055,0.1202537
 7,0.04648328,0.20031067,-0.00246413,-0.00144605,-0.00357415,0.00109495
 ,-0.00057083,-0.00049610,-0.00023428,0.00041901,0.00013481,0.00016578,
 0.00018470,0.00002214,0.01224319,-0.01242086,-0.00241026,-0.00029039,0
 .00087127,0.00005709,-0.00040825,-0.00056885,0.00014943,0.00011095,0.0
 0024761,0.00011844,-0.00025360,0.00053127,-0.00017212,-0.00014389,0.00
 011225,-0.00004161,-0.00006263,-0.00005199,0.00004764,0.00008943,0.000
 06053,-0.00000184,-0.00006190,0.00000434,0.00000635,0.00001735,-0.0000
 0090,0.00002043,0.00000282,-0.00001249,0.00000237,-0.00000651,-0.00000
 075,0.00000177,0.00001739,-0.00000200,0.00000370,-0.00000276,0.0000088
 4,-0.00000057,0.00001171,-0.00002015,-0.00000713,0.00002993,0.00000626
 ,0.00001346,-0.00002514,0.00000307,0.00002005,-0.00000989,0.00002667,-
 0.00002734,0.00242515,-0.00013464,-0.00070084,-0.00077898,-0.00029339,
 0.00035813,0.11972535,-0.15201573,-0.04062226,-0.13187531,0.16424078,-
 0.00267782,-0.00267452,-0.00390335,0.00110234,-0.00132962,-0.00015059,
 0.00006108,-0.00027676,0.00008400,-0.00036712,0.00029342,0.00007963,0.
 01856008,-0.01476789,-0.00540374,0.00046190,0.00076669,0.00050820,-0.0
 0003812,-0.00076138,-0.00007287,0.00003981,0.00016191,-0.00000635,-0.0
 0032345,0.00033729,0.00003887,-0.00014955,0.00018192,0.00009517,0.0000
 2918,-0.00001540,-0.00003108,0.00009513,0.00004731,-0.00004119,-0.0000
 2374,-0.00001145,-0.00003051,-0.00000479,-0.00000257,-0.00000253,0.000
 00111,0.00000149,0.00001377,0.00000160,-0.00000087,-0.00000553,0.00000
 820,-0.00000164,-0.00000109,0.00000074,0.00000652,-0.00000158,-0.00002
 722,-0.00003026,0.00004807,0.00001921,0.00000683,-0.00000552,0.0000023
 9,0.00000193,-0.00000741,-0.00000051,0.00002617,-0.00002581,0.00119543
 ,0.00023144,0.00015613,-0.00031249,-0.00007095,0.00019615,0.04626045,-
 0.04024385,-0.06347073,-0.05047428,0.04791241,0.06679913,0.00023610,-0
 .00013536,0.00113352,-0.00016503,0.00000055,0.00000628,0.00049679,-0.0
 0008915,0.00000874,0.00004229,-0.00010257,0.00009908,-0.00376407,0.004
 43860,-0.00830027,0.00006780,-0.00138011,-0.00137145,-0.00018896,0.000
 01025,-0.00018385,-0.00004007,-0.00008634,0.00008398,0.00015329,-0.000
 17216,-0.00002418,0.00004326,-0.00005510,-0.00006989,-0.00006966,0.000
 00567,0.00004951,-0.00005714,-0.00002697,0.00000588,-0.00002394,-0.000
 00322,0.00002557,0.00001606,-0.00000344,0.00001550,-0.00000112,-0.0000
 0427,-0.00000687,-0.00000569,0.00000213,0.00000507,0.00000310,-0.00000
 172,0.00000338,-0.00000333,-0.00000168,-0.00000190,0.00002376,0.000010
 75,-0.00001854,0.00000070,-0.00000654,0.00000469,-0.00000498,0.0000027
 8,0.00000508,-0.00000562,-0.00000637,0.00000866,0.00002611,0.00246269,
 -0.00213704,0.00039585,-0.00046682,0.00126933,-0.06021750,0.03268690,-
 0.04410600,-0.00524618,0.01315863,-0.01955548,0.06129294,-0.00038405,0
 .00156068,0.00002645,-0.00012985,0.00011546,0.00021335,0.00016201,-0.0
 0005108,0.00026096,0.00009964,-0.00007190,0.00007950,-0.00471081,0.010
 22998,-0.01637534,-0.00152056,-0.00182519,-0.00372383,0.00002193,-0.00
 022910,-0.00017320,-0.00002329,0.00002426,0.00011394,-0.00004306,0.000
 01478,0.00000421,-0.00001435,0.00004985,0.00012421,-0.00001274,-0.0000
 1155,-0.00000988,-0.00000198,-0.00000373,-0.00002285,-0.00000421,-0.00
 000679,-0.00002863,0.00000096,-0.00000036,-0.00000017,0.00000287,-0.00
 000012,0.00001390,0.00000040,-0.00000112,-0.00000511,0.00000719,-0.000
 00044,-0.00000133,-0.00000153,0.00000232,-0.00000164,-0.00000518,-0.00
 000774,0.00002620,0.00001101,0.00000018,-0.00000138,-0.00000171,-0.000
 00099,-0.00000333,0.00000086,0.00001096,-0.00001513,-0.00024246,0.0016
 1238,-0.00079038,0.00071736,0.00019966,0.00015030,0.03376754,-0.132007
 86,0.11964833,0.00312053,-0.01137073,0.01571185,-0.03533024,0.14140444
 ,-0.00021577,0.00138780,0.00108295,0.00001962,-0.00012350,0.00052413,0
 .00054038,-0.00089836,0.00010461,0.00007103,-0.00006010,-0.00008473,-0
 .00738551,0.01245392,-0.02219527,-0.00154460,-0.00372404,-0.00287786,-
 0.00008901,-0.00019678,-0.00015234,0.00000972,0.00001193,0.00015607,0.
 00006704,-0.00004196,-0.00003383,0.00001476,0.00005008,0.00003291,-0.0
 0005041,-0.00001093,0.00003957,-0.00002582,-0.00001744,-0.00000220,0.0
 0000112,-0.00002847,0.00002275,0.00000953,0.00000372,0.00000842,-0.000
 01045,0.00001132,-0.00000680,-0.00000122,0.00000002,0.00000486,-0.0000
 0951,-0.00000282,0.00000034,0.00000153,-0.00000231,-0.00000192,0.00000
 830,0.00000375,-0.00000841,-0.00000548,0.00000089,0.00000023,-0.000002
 98,-0.00000125,0.00000820,-0.00000104,-0.00001135,-0.00000120,0.001403
 91,0.00306497,-0.00123221,0.00046433,-0.00133542,0.00159859,-0.0446250
 7,0.11800049,-0.21037523,0.00154198,-0.00517224,0.00797970,0.05135817,
 -0.12732846,0.23154285,0.00070838,0.00096381,0.00052819,0.00012555,0.0
 0016712,-0.00016804,0.00001341,0.00004656,-0.00002624,0.00068911,-0.00
 029734,-0.00006270,-0.00826307,-0.00527395,0.00120353,0.00001714,0.000
 32822,-0.00023059,-0.00013808,0.00035442,0.00021822,0.00001237,-0.0001
 7715,0.00000421,-0.00002342,-0.00018393,0.00008105,-0.00000489,0.00011
 007,-0.00003353,0.00000419,0.00001187,-0.00000824,-0.00000021,-0.00002
 014,0.00001353,0.00004995,-0.00004916,0.00006641,-0.00000762,0.0000037
 2,-0.00001416,-0.00002874,0.00003017,-0.00002429,0.00000673,-0.0000012
 5,0.00000478,-0.00003469,-0.00000402,-0.00000201,0.00000954,-0.0000007
 8,0.00000181,-0.00003010,0.00000457,-0.00001327,-0.00003513,0.00000684
 ,-0.00000738,0.00001490,-0.00000220,-0.00000155,0.00001516,-0.00002752
 ,0.00001753,0.00142287,0.00034327,-0.00223488,-0.00000479,-0.00034495,
 0.00040739,-0.21717455,-0.11158743,0.05554305,-0.01872944,-0.01247496,
 0.00611595,0.00699526,0.00451372,-0.00154454,0.23439015,-0.00085524,0.
 00056104,0.00117802,0.00028674,0.00040166,0.00002311,-0.00005728,-0.00
 007142,-0.00002202,0.00072890,-0.00016615,-0.00053445,-0.01577503,-0.0
 1194754,0.00357020,0.00054941,0.00092869,0.00000446,-0.00044195,-0.000
 16410,0.00056235,0.00009826,0.00002118,0.00005773,-0.00018320,0.000215
 43,-0.00006138,-0.00013541,0.00022254,-0.00007271,-0.00002249,-0.00003
 196,0.00001660,0.00006258,0.00002455,0.00000799,0.00000558,-0.00005135
 ,0.00008463,-0.00000035,0.00000508,-0.00000656,-0.00003171,0.00002800,
 -0.00002513,0.00000387,-0.00000200,0.00000486,-0.00002656,-0.00000605,
 0.00000046,0.00000847,0.00000100,0.00000181,-0.00001744,-0.00001074,-0
 .00002129,-0.00001485,0.00001373,0.00000232,-0.00000391,-0.00000215,0.
 00001273,0.00000442,-0.00000970,-0.00000335,0.00125727,-0.00102880,-0.
 00394381,-0.00052708,-0.00031426,0.00049053,-0.11081135,-0.11906388,0.
 03732610,0.01724484,0.01219276,-0.00550001,-0.01490688,-0.00963626,0.0
 0396653,0.12356039,0.12789070,-0.00079499,0.00098694,0.00117461,-0.000
 14959,0.00037170,0.00005733,0.00012976,-0.00002551,-0.00006404,0.00052
 055,0.00005566,0.00001518,-0.02324312,-0.01739432,0.00340244,0.0001856
 2,0.00083836,0.00126029,-0.00056789,0.00039013,0.00071549,0.00011756,-
 0.00013086,0.00008807,-0.00027988,0.00005937,-0.00008870,-0.00008891,0
 .00023677,-0.00007122,-0.00005180,-0.00002266,0.00003343,0.00004396,0.
 00000541,0.00001893,-0.00000379,-0.00004055,0.00008147,0.00000564,0.00
 000136,-0.00000077,-0.00002700,0.00001938,-0.00002498,0.00000049,-0.00
 000028,0.00000463,-0.00001780,-0.00000715,0.00000276,0.00000474,0.0000
 0236,0.00000063,-0.00001377,-0.00000910,-0.00002261,-0.00000855,0.0000
 0931,0.00000620,-0.00000727,-0.00000009,0.00001216,0.00000490,-0.00001
 015,-0.00000211,0.00179558,-0.00089702,-0.00583044,-0.00053952,-0.0015
 0465,0.00239258,0.05560329,0.03771959,-0.06289231,0.00552299,0.0043582
 5,-0.00283892,0.02169303,0.01210748,-0.00613414,-0.05983424,-0.0371197
 4,0.06870405\\0.00000157,-0.00000182,0.00000517,0.00000069,-0.00000303
 ,0.00000566,-0.00000034,0.00000024,0.00000631,0.00000107,-0.00000265,0
 .00000414,-0.00000027,-0.00000319,-0.00000077,0.00000154,-0.00000203,0
 .00000130,0.00000080,0.00000067,0.00000285,0.00000163,-0.00000216,-0.0
 0000052,0.00000008,-0.00000011,-0.00000229,0.00000044,0.00000007,-0.00
 000050,-0.00000159,0.00000273,-0.00000008,-0.00000038,0.00000096,0.000
 00289,0.00000083,-0.00000159,-0.00000281,0.00000114,-0.00000213,-0.000
 00150,-0.00000020,0.00000094,-0.00000120,-0.00000107,0.00000274,-0.000
 00215,0.00000003,-0.00000005,-0.00000289,-0.00000054,0.00000054,0.0000
 0059,-0.00000005,0.00000039,-0.00000541,0.00000043,-0.00000006,-0.0000
 0629,-0.00000101,0.00000154,-0.00000526,0.00000120,-0.00000081,-0.0000
 0553,-0.00000148,-0.00000109,0.00000296,0.00000002,0.00000279,0.000003
 35,-0.00000113,0.00000070,0.00000109,-0.00000147,0.00000227,-0.0000015
 2,-0.00000166,0.00000293,0.00000177,-0.00000031,0.00000121,0.00000060\
 \\@
 Job cpu time:  0 days  2 hours 35 minutes 11.8 seconds.
 File lengths (MBytes):  RWF=  42133 Int=      0 D2E=      0 Chk=     26 Scr=      1
 Normal termination of Gaussian 09 at Sun Feb  9 07:11:57 2014.
