 Entering Gaussian System, Link 0=g09
 Initial command:
 /usr/caen/gaussian-09revc/g09/l1.exe /scratch/avioli_flux/hetanjin/scratch/Gau-18741.inp -scrdir=/scratch/avioli_flux/hetanjin/scratch/
 Entering Link 1 = /usr/caen/gaussian-09revc/g09/l1.exe PID=     18742.
  
 Copyright (c) 1988,1990,1992,1993,1995,1998,2003,2009,2011,
            Gaussian, Inc.  All Rights Reserved.
  
 This is part of the Gaussian(R) 09 program.  It is based on
 the Gaussian(R) 03 system (copyright 2003, Gaussian, Inc.),
 the Gaussian(R) 98 system (copyright 1998, Gaussian, Inc.),
 the Gaussian(R) 94 system (copyright 1995, Gaussian, Inc.),
 the Gaussian 92(TM) system (copyright 1992, Gaussian, Inc.),
 the Gaussian 90(TM) system (copyright 1990, Gaussian, Inc.),
 the Gaussian 88(TM) system (copyright 1988, Gaussian, Inc.),
 the Gaussian 86(TM) system (copyright 1986, Carnegie Mellon
 University), and the Gaussian 82(TM) system (copyright 1983,
 Carnegie Mellon University). Gaussian is a federally registered
 trademark of Gaussian, Inc.
  
 This software contains proprietary and confidential information,
 including trade secrets, belonging to Gaussian, Inc.
  
 This software is provided under written license and may be
 used, copied, transmitted, or stored only in accord with that
 written license.
  
 The following legend is applicable only to US Government
 contracts under FAR:
  
                    RESTRICTED RIGHTS LEGEND
  
 Use, reproduction and disclosure by the US Government is
 subject to restrictions as set forth in subparagraphs (a)
 and (c) of the Commercial Computer Software - Restricted
 Rights clause in FAR 52.227-19.
  
 Gaussian, Inc.
 340 Quinnipiac St., Bldg. 40, Wallingford CT 06492
  
  
 ---------------------------------------------------------------
 Warning -- This program may not be used in any manner that
 competes with the business of Gaussian, Inc. or will provide
 assistance to any competitor of Gaussian, Inc.  The licensee
 of this program is prohibited from giving any competitor of
 Gaussian, Inc. access to this program.  By using this program,
 the user acknowledges that Gaussian, Inc. is engaged in the
 business of creating and licensing software in the field of
 computational chemistry and represents and warrants to the
 licensee that it is not a competitor of Gaussian, Inc. and that
 it will not use this program in any manner prohibited above.
 ---------------------------------------------------------------
  

 Cite this work as:
 Gaussian 09, Revision C.01,
 M. J. Frisch, G. W. Trucks, H. B. Schlegel, G. E. Scuseria, 
 M. A. Robb, J. R. Cheeseman, G. Scalmani, V. Barone, B. Mennucci, 
 G. A. Petersson, H. Nakatsuji, M. Caricato, X. Li, H. P. Hratchian, 
 A. F. Izmaylov, J. Bloino, G. Zheng, J. L. Sonnenberg, M. Hada, 
 M. Ehara, K. Toyota, R. Fukuda, J. Hasegawa, M. Ishida, T. Nakajima, 
 Y. Honda, O. Kitao, H. Nakai, T. Vreven, J. A. Montgomery, Jr., 
 J. E. Peralta, F. Ogliaro, M. Bearpark, J. J. Heyd, E. Brothers, 
 K. N. Kudin, V. N. Staroverov, T. Keith, R. Kobayashi, J. Normand, 
 K. Raghavachari, A. Rendell, J. C. Burant, S. S. Iyengar, J. Tomasi, 
 M. Cossi, N. Rega, J. M. Millam, M. Klene, J. E. Knox, J. B. Cross, 
 V. Bakken, C. Adamo, J. Jaramillo, R. Gomperts, R. E. Stratmann, 
 O. Yazyev, A. J. Austin, R. Cammi, C. Pomelli, J. W. Ochterski, 
 R. L. Martin, K. Morokuma, V. G. Zakrzewski, G. A. Voth, 
 P. Salvador, J. J. Dannenberg, S. Dapprich, A. D. Daniels, 
 O. Farkas, J. B. Foresman, J. V. Ortiz, J. Cioslowski, 
 and D. J. Fox, Gaussian, Inc., Wallingford CT, 2010.
 
 ******************************************
 Gaussian 09:  EM64L-G09RevC.01 23-Sep-2011
                 9-Feb-2014 
 ******************************************
 %mem=30GB
 %nprocshared=8
 Will use up to    8 processors via shared memory.
 %chk=C9H18OOH_3_26_b.chk
 --------------------------------------------------
 #p UB3LYP/6-311++G(d,p) guess=mix stable=(opt,xqc)
 --------------------------------------------------
 1/38=1/1;
 2/12=2,17=6,18=5,40=1/2;
 3/5=4,6=6,7=1111,11=2,16=1,25=1,30=1,74=-5,116=2/1,2,3;
 4/13=-1/1;
 5/5=2,38=5/2;
 6/7=2,8=2,9=2,10=2,28=1/1;
 8/6=1,10=90,11=11/1;
 9/8=-3,42=1,46=1/14;
 5/5=2,8=3,13=1,17=40,38=5/2,8(-2);
 6/7=2,8=2,9=2,10=2,28=1/1;
 99/5=1,9=1/99;
 Leave Link    1 at Sun Feb  9 04:41:38 2014, MaxMem= 4026531840 cpu:       0.8
 (Enter /usr/caen/gaussian-09revc/g09/l101.exe)
 --------------------------------------------
 C9H18OOH_3_26_b using cbs-qb3 to cal. energy
 --------------------------------------------
 Charge =  0 Multiplicity = 2
 Symbolic Z-Matrix:
 C                    -2.67422  -0.88492  -1.37757 
 H                    -2.32068  -0.09454  -2.0439 
 H                    -3.76658  -0.94043  -1.45767 
 H                    -2.2938   -1.84175  -1.77272 
 C                    -2.24296  -0.65692   0.03661 
 C                     0.2814   -0.37586  -0.20603 
 H                     0.24389  -0.39318  -1.30143 
 H                     0.32696  -1.41907   0.12207 
 C                     1.52141   0.39342   0.26806 
 H                     1.58326   0.33757   1.36361 
 H                     1.38976   1.45033   0.02049 
 C                     2.85309  -0.09638  -0.33213 
 H                     2.75756  -0.0567   -1.42618 
 C                     3.99694   0.84531   0.07016 
 H                     4.13949   0.84431   1.15658 
 H                     4.94227   0.53972  -0.38811 
 H                     3.79163   1.87482  -0.23716 
 C                    -2.79031  -1.53945   1.11023 
 H                    -2.5972   -1.13622   2.10831 
 H                    -3.87253  -1.67749   1.00176 
 H                    -2.35127  -2.55157   1.07994 
 C                     3.18367  -1.5437    0.0607 
 H                     4.14239  -1.85497  -0.36453 
 H                     3.25672  -1.64278   1.14986 
 H                     2.42699  -2.25065  -0.28904 
 C                    -1.04723   0.20448   0.3207 
 H                    -0.96311   0.377     1.40004 
 O                    -1.1441    1.49831  -0.31966 
 O                    -2.15623   2.27732   0.3676 
 H                    -2.92382   2.1547   -0.20975 
 
 NAtoms=     30 NQM=        0 NQMF=       0 NMMI=     30 NMMIF=      0
                NMic=       0 NMicF=      0.
                    Isotopes and Nuclear Properties:
 (Nuclear quadrupole moments (NQMom) in fm**2, nuclear magnetic moments (NMagM)
  in nuclear magnetons)

  Atom         1           2           3           4           5           6           7           8           9          10
 IAtWgt=          12           1           1           1          12          12           1           1          12           1
 AtmWgt=  12.0000000   1.0078250   1.0078250   1.0078250  12.0000000  12.0000000   1.0078250   1.0078250  12.0000000   1.0078250
 NucSpn=           0           1           1           1           0           0           1           1           0           1
 AtZEff=   0.0000000   0.0000000   0.0000000   0.0000000   0.0000000   0.0000000   0.0000000   0.0000000   0.0000000   0.0000000
 NQMom=    0.0000000   0.0000000   0.0000000   0.0000000   0.0000000   0.0000000   0.0000000   0.0000000   0.0000000   0.0000000
 NMagM=    0.0000000   2.7928460   2.7928460   2.7928460   0.0000000   0.0000000   2.7928460   2.7928460   0.0000000   2.7928460

  Atom        11          12          13          14          15          16          17          18          19          20
 IAtWgt=           1          12           1          12           1           1           1          12           1           1
 AtmWgt=   1.0078250  12.0000000   1.0078250  12.0000000   1.0078250   1.0078250   1.0078250  12.0000000   1.0078250   1.0078250
 NucSpn=           1           0           1           0           1           1           1           0           1           1
 AtZEff=   0.0000000   0.0000000   0.0000000   0.0000000   0.0000000   0.0000000   0.0000000   0.0000000   0.0000000   0.0000000
 NQMom=    0.0000000   0.0000000   0.0000000   0.0000000   0.0000000   0.0000000   0.0000000   0.0000000   0.0000000   0.0000000
 NMagM=    2.7928460   0.0000000   2.7928460   0.0000000   2.7928460   2.7928460   2.7928460   0.0000000   2.7928460   2.7928460

  Atom        21          22          23          24          25          26          27          28          29          30
 IAtWgt=           1          12           1           1           1          12           1          16          16           1
 AtmWgt=   1.0078250  12.0000000   1.0078250   1.0078250   1.0078250  12.0000000   1.0078250  15.9949146  15.9949146   1.0078250
 NucSpn=           1           0           1           1           1           0           1           0           0           1
 AtZEff=   0.0000000   0.0000000   0.0000000   0.0000000   0.0000000   0.0000000   0.0000000   0.0000000   0.0000000   0.0000000
 NQMom=    0.0000000   0.0000000   0.0000000   0.0000000   0.0000000   0.0000000   0.0000000   0.0000000   0.0000000   0.0000000
 NMagM=    2.7928460   0.0000000   2.7928460   2.7928460   2.7928460   0.0000000   2.7928460   0.0000000   0.0000000   2.7928460
 Leave Link  101 at Sun Feb  9 04:41:38 2014, MaxMem= 4026531840 cpu:       0.4
 (Enter /usr/caen/gaussian-09revc/g09/l202.exe)
                          Input orientation:                          
 ---------------------------------------------------------------------
 Center     Atomic      Atomic             Coordinates (Angstroms)
 Number     Number       Type             X           Y           Z
 ---------------------------------------------------------------------
      1          6           0       -2.674224   -0.884917   -1.377570
      2          1           0       -2.320679   -0.094544   -2.043895
      3          1           0       -3.766581   -0.940432   -1.457668
      4          1           0       -2.293801   -1.841746   -1.772716
      5          6           0       -2.242964   -0.656920    0.036606
      6          6           0        0.281400   -0.375863   -0.206034
      7          1           0        0.243888   -0.393182   -1.301428
      8          1           0        0.326960   -1.419067    0.122074
      9          6           0        1.521414    0.393424    0.268057
     10          1           0        1.583259    0.337565    1.363608
     11          1           0        1.389763    1.450325    0.020488
     12          6           0        2.853089   -0.096381   -0.332127
     13          1           0        2.757560   -0.056695   -1.426181
     14          6           0        3.996940    0.845308    0.070155
     15          1           0        4.139491    0.844314    1.156575
     16          1           0        4.942269    0.539716   -0.388114
     17          1           0        3.791631    1.874822   -0.237161
     18          6           0       -2.790313   -1.539453    1.110228
     19          1           0       -2.597196   -1.136216    2.108305
     20          1           0       -3.872534   -1.677486    1.001756
     21          1           0       -2.351271   -2.551574    1.079944
     22          6           0        3.183669   -1.543703    0.060704
     23          1           0        4.142390   -1.854971   -0.364534
     24          1           0        3.256721   -1.642779    1.149864
     25          1           0        2.426994   -2.250651   -0.289044
     26          6           0       -1.047229    0.204479    0.320701
     27          1           0       -0.963107    0.376999    1.400041
     28          8           0       -1.144099    1.498309   -0.319662
     29          8           0       -2.156229    2.277322    0.367602
     30          1           0       -2.923821    2.154704   -0.209749
 ---------------------------------------------------------------------
                    Distance matrix (angstroms):
                    1          2          3          4          5
     1  C    0.000000
     2  H    1.092553   0.000000
     3  H    1.096696   1.774774   0.000000
     4  H    1.102898   1.768326   1.755193   0.000000
     5  C    1.495948   2.156569   2.152822   2.163341   0.000000
     6  C    3.219836   3.198076   4.274515   3.351860   2.551525
     7  H    2.960233   2.686530   4.050649   2.959783   2.836252
     8  H    3.397257   3.668211   4.413814   3.261484   2.681918
     9  C    4.684615   4.510534   5.720156   4.869970   3.915014
    10  H    5.209096   5.199858   6.181720   5.442198   4.170122
    11  H    4.891208   4.518371   5.872695   5.255659   4.199696
    12  C    5.680311   5.449590   6.767518   5.622461   5.140032
    13  H    5.494779   5.115810   6.583798   5.368682   5.244545
    14  C    7.042302   6.727915   8.111434   7.084480   6.418272
    15  H    7.472539   7.270369   8.516194   7.561938   6.651599
    16  H    7.811502   7.476250   8.898250   7.742686   7.296568
    17  H    7.122076   6.671059   8.157319   7.294059   6.549886
    18  C    2.575079   3.500973   2.811764   2.940964   1.493693
    19  H    3.495770   4.289791   3.757919   3.956279   2.155723
    20  H    2.779443   3.766955   2.569677   3.196416   2.151411
    21  H    2.986874   3.974456   3.322402   2.940209   2.165640
    22  C    6.067746   6.068546   7.139703   5.783851   5.498664
    23  H    6.959416   6.905839   8.036364   6.588452   6.509146
    24  H    6.491409   6.610939   7.524579   6.276094   5.697174
    25  H    5.391896   5.501700   6.437603   4.965319   4.945153
    26  C    2.591914   2.702296   3.445039   3.181725   1.500833
    27  H    3.497925   3.731762   4.214450   4.093893   2.136815
    28  O    3.023279   2.625738   3.757649   3.819574   2.445290
    29  O    3.648794   3.386460   4.034698   4.643986   2.954125
    30  H    3.265792   2.964285   3.442007   4.337212   2.903358
                    6          7          8          9         10
     6  C    0.000000
     7  H    1.096173   0.000000
     8  H    1.094534   1.756616   0.000000
     9  C    1.534340   2.171199   2.175582   0.000000
    10  H    2.160461   3.070883   2.491074   1.098716   0.000000
    11  H    2.148195   2.541458   3.061581   1.093463   1.754892
    12  C    2.589902   2.799208   2.887408   1.540613   2.162474
    13  H    2.778848   2.539160   3.187627   2.145019   3.052433
    14  C    3.920813   4.183360   4.312638   2.524202   2.785082
    15  H    4.269707   4.769580   4.552854   2.801266   2.614188
    16  H    4.753434   4.876395   5.039663   3.486289   3.793724
    17  H    4.169925   4.343154   4.794027   2.757475   3.130899
    18  C    3.538631   4.041831   3.272359   4.799610   4.766081
    19  H    3.771023   4.500015   3.546238   4.763324   4.494753
    20  H    4.517538   4.888663   4.298415   5.824230   5.827267
    21  H    3.649440   4.130913   3.061537   4.932531   4.889593
    22  C    3.139771   3.438228   2.860085   2.560966   2.792497
    23  H    4.137647   4.267659   3.870957   3.510693   3.787194
    24  H    3.506575   4.080133   3.112860   2.816913   2.601523
    25  H    2.850490   3.039912   2.295799   2.849837   3.184652
    26  C    1.542563   2.157657   2.136293   2.576121   2.832814
    27  H    2.166812   3.057442   2.554080   2.730293   2.546932
    28  O    2.357431   2.543248   3.297003   2.944681   3.408696
    29  O    3.648354   3.959522   4.459799   4.133284   4.328794
    30  H    4.083776   4.209260   4.842471   4.805260   5.107956
                   11         12         13         14         15
    11  H    0.000000
    12  C    2.158231   0.000000
    13  H    2.496964   1.098934   0.000000
    14  C    2.676917   1.535254   2.142124   0.000000
    15  H    3.036272   2.180819   3.064666   1.095733   0.000000
    16  H    3.690049   2.184589   2.491233   1.094095   1.767285
    17  H    2.452662   2.185297   2.492755   1.093844   1.767895
    18  C    5.253508   6.000903   6.277805   7.268813   7.328484
    19  H    5.190859   6.061565   6.506256   7.180747   7.085989
    20  H    6.199827   7.036558   7.244307   8.316309   8.400952
    21  H    5.579693   5.925140   6.213311   7.270369   7.325839
    22  C    3.490547   1.535689   2.145598   2.523663   2.795917
    23  H    4.318585   2.180822   2.505722   2.738908   3.098374
    24  H    3.785276   2.179579   3.066078   2.811454   2.639121
    25  H    3.856019   2.196427   2.493150   3.489802   3.821161
    26  C    2.753396   3.966003   4.194786   5.090882   5.292461
    27  H    2.931074   4.217564   4.692439   5.156547   5.129733
    28  O    2.557041   4.303569   4.343428   5.196985   5.524790
    29  O    3.657659   5.587249   5.728055   6.324605   6.504774
    30  H    4.376776   6.201214   6.216758   7.049099   7.312615
                   16         17         18         19         20
    16  H    0.000000
    17  H    1.768972   0.000000
    18  C    8.146214   7.536227   0.000000
    19  H    8.116920   7.442088   1.093642   0.000000
    20  H    9.195024   8.537753   1.096367   1.773108   0.000000
    21  H    8.056488   7.685245   1.103659   1.766704   1.756242
    22  C    2.763104   3.484918   6.065474   6.146309   7.119935
    23  H    2.524854   3.748415   7.094846   7.214815   8.132482
    24  H    3.157488   3.818833   6.048047   5.953449   7.130878
    25  H    3.758001   4.345625   5.448308   5.677300   6.455907
    26  C    6.040603   5.149352   2.589014   2.719446   3.462366
    27  H    6.172312   5.247041   2.663731   2.337029   3.583895
    28  O    6.161774   4.950757   3.739332   3.866166   4.390464
    29  O    7.347044   5.992060   3.939712   3.857038   4.357564
    30  H    8.032146   6.721338   3.925170   4.038590   4.129586
                   21         22         23         24         25
    21  H    0.000000
    22  C    5.717536   0.000000
    23  H    6.688752   1.094011   0.000000
    24  H    5.681582   1.096094   1.767155   0.000000
    25  H    4.979608   1.093003   1.762057   1.768732   0.000000
    26  C    3.142102   4.585219   5.625213   4.756454   4.297636
    27  H    3.256686   4.762213   5.844785   4.684980   4.609809
    28  O    4.451709   5.303592   6.260469   5.602960   5.177677
    29  O    4.885050   6.573350   7.568650   6.728979   6.476083
    30  H    4.913265   7.145124   8.126056   7.380279   6.931426
                   26         27         28         29         30
    26  C    0.000000
    27  H    1.096273   0.000000
    28  O    1.446874   2.060940   0.000000
    29  O    2.351331   2.469959   1.450379   0.000000
    30  H    2.757962   3.097751   1.900091   0.968280   0.000000
 Stoichiometry    C9H19O2(2)
 Framework group  C1[X(C9H19O2)]
 Deg. of freedom    84
 Full point group                 C1      NOp   1
 Largest Abelian subgroup         C1      NOp   1
 Largest concise Abelian subgroup C1      NOp   1
                         Standard orientation:                         
 ---------------------------------------------------------------------
 Center     Atomic      Atomic             Coordinates (Angstroms)
 Number     Number       Type             X           Y           Z
 ---------------------------------------------------------------------
      1          6           0        2.674224   -0.884917    1.377570
      2          1           0        2.320679   -0.094544    2.043895
      3          1           0        3.766581   -0.940432    1.457668
      4          1           0        2.293801   -1.841746    1.772716
      5          6           0        2.242964   -0.656920   -0.036606
      6          6           0       -0.281400   -0.375863    0.206034
      7          1           0       -0.243888   -0.393182    1.301428
      8          1           0       -0.326960   -1.419067   -0.122074
      9          6           0       -1.521414    0.393424   -0.268057
     10          1           0       -1.583259    0.337565   -1.363608
     11          1           0       -1.389763    1.450325   -0.020488
     12          6           0       -2.853089   -0.096381    0.332127
     13          1           0       -2.757560   -0.056695    1.426181
     14          6           0       -3.996940    0.845308   -0.070155
     15          1           0       -4.139491    0.844314   -1.156575
     16          1           0       -4.942269    0.539716    0.388114
     17          1           0       -3.791631    1.874822    0.237161
     18          6           0        2.790313   -1.539453   -1.110228
     19          1           0        2.597196   -1.136216   -2.108305
     20          1           0        3.872534   -1.677486   -1.001756
     21          1           0        2.351271   -2.551574   -1.079944
     22          6           0       -3.183669   -1.543703   -0.060704
     23          1           0       -4.142390   -1.854971    0.364534
     24          1           0       -3.256721   -1.642779   -1.149864
     25          1           0       -2.426994   -2.250651    0.289044
     26          6           0        1.047229    0.204479   -0.320701
     27          1           0        0.963107    0.376999   -1.400041
     28          8           0        1.144099    1.498309    0.319662
     29          8           0        2.156229    2.277322   -0.367602
     30          1           0        2.923821    2.154704    0.209749
 ---------------------------------------------------------------------
 Rotational constants (GHZ):      1.6042612      0.4932010      0.4229044
 Leave Link  202 at Sun Feb  9 04:41:38 2014, MaxMem= 4026531840 cpu:       0.3
 (Enter /usr/caen/gaussian-09revc/g09/l301.exe)
 Standard basis: 6-311++G(d,p) (5D, 7F)
 Ernie: Thresh=  0.10000D-02 Tol=  0.10000D-05 Strict=F.
 There are   375 symmetry adapted basis functions of A   symmetry.
 Integral buffers will be    131072 words long.
 Raffenetti 2 integral format.
 Two-electron integral symmetry is turned on.
   375 basis functions,   567 primitive gaussians,   386 cartesian basis functions
    45 alpha electrons       44 beta electrons
       nuclear repulsion energy       657.4376638359 Hartrees.
 IExCor=  402 DFT=T Ex+Corr=B3LYP ExCW=0 ScaHFX=  0.200000
 ScaDFX=  0.800000  0.720000  1.000000  0.810000 ScalE2=  1.000000  1.000000
 IRadAn=      0 IRanWt=     -1 IRanGd=            0 ICorTp=0
 NAtoms=   30 NActive=   30 NUniq=   30 SFac= 1.00D+00 NAtFMM=   60 NAOKFM=F Big=F
 Leave Link  301 at Sun Feb  9 04:41:39 2014, MaxMem= 4026531840 cpu:       0.8
 (Enter /usr/caen/gaussian-09revc/g09/l302.exe)
 NPDir=0 NMtPBC=     1 NCelOv=     1 NCel=       1 NClECP=     1 NCelD=      1
         NCelK=      1 NCelE2=     1 NClLst=     1 CellRange=     0.0.
 One-electron integrals computed using PRISM.
 NBasis=   375 RedAO= T  NBF=   375
 NBsUse=   375 1.00D-06 NBFU=   375
 Precomputing XC quadrature grid using
 IXCGrd= 2 IRadAn=           0 IRanWt=          -1 IRanGd=           0 AccXCQ= 0.00D+00.
 NRdTot=    1961 NPtTot=      249684 NUsed=      263814 NTot=      263846
 NSgBfM=   386   386   386   386   386 NAtAll=    30    30.
 Leave Link  302 at Sun Feb  9 04:41:40 2014, MaxMem= 4026531840 cpu:       7.4
 (Enter /usr/caen/gaussian-09revc/g09/l303.exe)
 DipDrv:  MaxL=1.
 Leave Link  303 at Sun Feb  9 04:41:41 2014, MaxMem= 4026531840 cpu:       2.4
 (Enter /usr/caen/gaussian-09revc/g09/l401.exe)
 Harris functional with IExCor=  402 diagonalized for initial guess.
 ExpMin= 3.60D-02 ExpMax= 8.59D+03 ExpMxC= 1.30D+03 IAcc=3 IRadAn=         5 AccDes= 0.00D+00
 HarFok:  IExCor=  402 AccDes= 0.00D+00 IRadAn=         5 IDoV= 1
 ScaDFX=  1.000000  1.000000  1.000000  1.000000
 FoFCou: FMM=F IPFlag=           0 FMFlag=      100000 FMFlg1=           0
         NFxFlg=           0 DoJE=T BraDBF=F KetDBF=T FulRan=T
         Omega=  0.000000  0.000000  1.000000  0.000000  0.000000 ICntrl=     500 IOpCl=  0
         NMat0=    1 NMatS0=    1 NMatT0=    0 NMatD0=    1 NMtDS0=    0 NMtDT0=    0
         I1Cent=           4 NGrid=           0.
 Petite list used in FoFCou.
 Harris En= -504.927149593453    
 Mixing orbitals, IMix= 1 IMixAn=  0 NRI=1 NE=   45 Coef=  7.07106781D-01  7.07106781D-01
 Mixing orbitals, IMix= 1 IMixAn=  0 NRI=1 NE=   44 Coef= -7.07106781D-01  7.07106781D-01
 Initial guess orbital symmetries:
 Alpha Orbitals:
       Occupied  (A) (A) (A) (A) (A) (A) (A) (A) (A) (A) (A) (A)
                 (A) (A) (A) (A) (A) (A) (A) (A) (A) (A) (A) (A)
                 (A) (A) (A) (A) (A) (A) (A) (A) (A) (A) (A) (A)
                 (A) (A) (A) (A) (A) (A) (A) (A) (A)
       Virtual   (A) (A) (A) (A) (A) (A) (A) (A) (A) (A) (A) (A)
                 (A) (A) (A) (A) (A) (A) (A) (A) (A) (A) (A) (A)
                 (A) (A) (A) (A) (A) (A) (A) (A) (A) (A) (A) (A)
                 (A) (A) (A) (A) (A) (A) (A) (A) (A) (A) (A) (A)
                 (A) (A) (A) (A) (A) (A) (A) (A) (A) (A) (A) (A)
                 (A) (A) (A) (A) (A) (A) (A) (A) (A) (A) (A) (A)
                 (A) (A) (A) (A) (A) (A) (A) (A) (A) (A) (A) (A)
                 (A) (A) (A) (A) (A) (A) (A) (A) (A) (A) (A) (A)
                 (A) (A) (A) (A) (A) (A) (A) (A) (A) (A) (A) (A)
                 (A) (A) (A) (A) (A) (A) (A) (A) (A) (A) (A) (A)
                 (A) (A) (A) (A) (A) (A) (A) (A) (A) (A) (A) (A)
                 (A) (A) (A) (A) (A) (A) (A) (A) (A) (A) (A) (A)
                 (A) (A) (A) (A) (A) (A) (A) (A) (A) (A) (A) (A)
                 (A) (A) (A) (A) (A) (A) (A) (A) (A) (A) (A) (A)
                 (A) (A) (A) (A) (A) (A) (A) (A) (A) (A) (A) (A)
                 (A) (A) (A) (A) (A) (A) (A) (A) (A) (A) (A) (A)
                 (A) (A) (A) (A) (A) (A) (A) (A) (A) (A) (A) (A)
                 (A) (A) (A) (A) (A) (A) (A) (A) (A) (A) (A) (A)
                 (A) (A) (A) (A) (A) (A) (A) (A) (A) (A) (A) (A)
                 (A) (A) (A) (A) (A) (A) (A) (A) (A) (A) (A) (A)
                 (A) (A) (A) (A) (A) (A) (A) (A) (A) (A) (A) (A)
                 (A) (A) (A) (A) (A) (A) (A) (A) (A) (A) (A) (A)
                 (A) (A) (A) (A) (A) (A) (A) (A) (A) (A) (A) (A)
                 (A) (A) (A) (A) (A) (A) (A) (A) (A) (A) (A) (A)
                 (A) (A) (A) (A) (A) (A) (A) (A) (A) (A) (A) (A)
                 (A) (A) (A) (A) (A) (A) (A) (A) (A) (A) (A) (A)
                 (A) (A) (A) (A) (A) (A) (A) (A) (A) (A) (A) (A)
                 (A) (A) (A) (A) (A) (A)
 Beta  Orbitals:
       Occupied  (A) (A) (A) (A) (A) (A) (A) (A) (A) (A) (A) (A)
                 (A) (A) (A) (A) (A) (A) (A) (A) (A) (A) (A) (A)
                 (A) (A) (A) (A) (A) (A) (A) (A) (A) (A) (A) (A)
                 (A) (A) (A) (A) (A) (A) (A) (A)
       Virtual   (A) (A) (A) (A) (A) (A) (A) (A) (A) (A) (A) (A)
                 (A) (A) (A) (A) (A) (A) (A) (A) (A) (A) (A) (A)
                 (A) (A) (A) (A) (A) (A) (A) (A) (A) (A) (A) (A)
                 (A) (A) (A) (A) (A) (A) (A) (A) (A) (A) (A) (A)
                 (A) (A) (A) (A) (A) (A) (A) (A) (A) (A) (A) (A)
                 (A) (A) (A) (A) (A) (A) (A) (A) (A) (A) (A) (A)
                 (A) (A) (A) (A) (A) (A) (A) (A) (A) (A) (A) (A)
                 (A) (A) (A) (A) (A) (A) (A) (A) (A) (A) (A) (A)
                 (A) (A) (A) (A) (A) (A) (A) (A) (A) (A) (A) (A)
                 (A) (A) (A) (A) (A) (A) (A) (A) (A) (A) (A) (A)
                 (A) (A) (A) (A) (A) (A) (A) (A) (A) (A) (A) (A)
                 (A) (A) (A) (A) (A) (A) (A) (A) (A) (A) (A) (A)
                 (A) (A) (A) (A) (A) (A) (A) (A) (A) (A) (A) (A)
                 (A) (A) (A) (A) (A) (A) (A) (A) (A) (A) (A) (A)
                 (A) (A) (A) (A) (A) (A) (A) (A) (A) (A) (A) (A)
                 (A) (A) (A) (A) (A) (A) (A) (A) (A) (A) (A) (A)
                 (A) (A) (A) (A) (A) (A) (A) (A) (A) (A) (A) (A)
                 (A) (A) (A) (A) (A) (A) (A) (A) (A) (A) (A) (A)
                 (A) (A) (A) (A) (A) (A) (A) (A) (A) (A) (A) (A)
                 (A) (A) (A) (A) (A) (A) (A) (A) (A) (A) (A) (A)
                 (A) (A) (A) (A) (A) (A) (A) (A) (A) (A) (A) (A)
                 (A) (A) (A) (A) (A) (A) (A) (A) (A) (A) (A) (A)
                 (A) (A) (A) (A) (A) (A) (A) (A) (A) (A) (A) (A)
                 (A) (A) (A) (A) (A) (A) (A) (A) (A) (A) (A) (A)
                 (A) (A) (A) (A) (A) (A) (A) (A) (A) (A) (A) (A)
                 (A) (A) (A) (A) (A) (A) (A) (A) (A) (A) (A) (A)
                 (A) (A) (A) (A) (A) (A) (A) (A) (A) (A) (A) (A)
                 (A) (A) (A) (A) (A) (A) (A)
 The electronic state of the initial guess is 2-A.
 Initial guess <Sx>= 0.0000 <Sy>= 0.0000 <Sz>= 0.5000 <S**2>= 1.0000 S= 0.6180
 Leave Link  401 at Sun Feb  9 04:41:48 2014, MaxMem= 4026531840 cpu:      46.0
 (Enter /usr/caen/gaussian-09revc/g09/l502.exe)
 UHF open shell SCF:
 Requested convergence on RMS density matrix=1.00D-08 within 128 cycles.
 Requested convergence on MAX density matrix=1.00D-06.
 Requested convergence on             energy=1.00D-06.
 No special actions if energy rises.
 Using DIIS extrapolation, IDIIS=  1040.
 Integral symmetry usage will be decided dynamically.
       263531 words used for storage of precomputed grid.
 IEnd=      734665 IEndB=      734665 NGot=  4026531840 MDV=  4025963198
 LenX=  4025963198 LenY=  4025813761
 Fock matrices will be formed incrementally for  20 cycles.

 Cycle   1  Pass 1  IDiag  1:
 FoFCou: FMM=F IPFlag=           0 FMFlag=      100000 FMFlg1=           0
         NFxFlg=           0 DoJE=F BraDBF=F KetDBF=F FulRan=T
         Omega=  0.000000  0.000000  1.000000  0.000000  0.000000 ICntrl=       0 IOpCl=  1
         NMat0=    1 NMatS0=    1 NMatT0=    0 NMatD0=    1 NMtDS0=    0 NMtDT0=    0
         I1Cent=           0 NGrid=           0.
 Symmetry not used in FoFCou.
 E= -504.315562283760    
 DIIS: error= 3.04D-02 at cycle   1 NSaved=   1.
 NSaved= 1 IEnMin= 1 EnMin= -504.315562283760     IErMin= 1 ErrMin= 3.04D-02
 ErrMax= 3.04D-02 EMaxC= 1.00D-01 BMatC= 1.72D+00 BMatP= 1.72D+00
 IDIUse=3 WtCom= 6.96D-01 WtEn= 3.04D-01
 Coeff-Com:  0.100D+01
 Coeff-En:   0.100D+01
 Coeff:      0.100D+01
 Gap=     0.021 Goal=   None    Shift=    0.000
 Gap=     0.015 Goal=   None    Shift=    0.000
 GapD=    0.015 DampG=0.250 DampE=0.500 DampFc=0.2500 IDamp=-1.
 Damping current iteration by 2.50D-01
 RMSDP=2.81D-02 MaxDP=4.39D+00              OVMax= 4.54D-01

 Cycle   2  Pass 1  IDiag  1:
 RMSU=  4.96D-03    CP:  1.05D+00
 E= -504.483635010340     Delta-E=       -0.168072726580 Rises=F Damp=T
 DIIS: error= 1.39D-02 at cycle   2 NSaved=   2.
 NSaved= 2 IEnMin= 2 EnMin= -504.483635010340     IErMin= 2 ErrMin= 1.39D-02
 ErrMax= 1.39D-02 EMaxC= 1.00D-01 BMatC= 3.93D-01 BMatP= 1.72D+00
 IDIUse=3 WtCom= 8.61D-01 WtEn= 1.39D-01
 Coeff-Com: -0.659D+00 0.166D+01
 Coeff-En:   0.000D+00 0.100D+01
 Coeff:     -0.568D+00 0.157D+01
 Gap=     0.086 Goal=   None    Shift=    0.000
 Gap=     0.193 Goal=   None    Shift=    0.000
 RMSDP=1.03D-02 MaxDP=1.35D+00 DE=-1.68D-01 OVMax= 4.14D-01

 Cycle   3  Pass 1  IDiag  1:
 RMSU=  6.57D-03    CP:  9.20D-01  1.13D+00
 E= -504.821259573637     Delta-E=       -0.337624563297 Rises=F Damp=F
 DIIS: error= 9.41D-03 at cycle   3 NSaved=   3.
 NSaved= 3 IEnMin= 3 EnMin= -504.821259573637     IErMin= 3 ErrMin= 9.41D-03
 ErrMax= 9.41D-03 EMaxC= 1.00D-01 BMatC= 1.56D-01 BMatP= 3.93D-01
 IDIUse=3 WtCom= 9.06D-01 WtEn= 9.41D-02
 Coeff-Com: -0.352D+00 0.863D+00 0.489D+00
 Coeff-En:   0.000D+00 0.000D+00 0.100D+01
 Coeff:     -0.319D+00 0.782D+00 0.537D+00
 Gap=     0.133 Goal=   None    Shift=    0.000
 Gap=     0.188 Goal=   None    Shift=    0.000
 RMSDP=3.96D-03 MaxDP=4.53D-01 DE=-3.38D-01 OVMax= 1.51D-01

 Cycle   4  Pass 1  IDiag  1:
 RMSU=  2.57D-03    CP:  9.20D-01  1.26D+00  8.17D-01
 E= -504.849217369317     Delta-E=       -0.027957795680 Rises=F Damp=F
 DIIS: error= 7.03D-03 at cycle   4 NSaved=   4.
 NSaved= 4 IEnMin= 4 EnMin= -504.849217369317     IErMin= 4 ErrMin= 7.03D-03
 ErrMax= 7.03D-03 EMaxC= 1.00D-01 BMatC= 5.27D-02 BMatP= 1.56D-01
 IDIUse=3 WtCom= 9.30D-01 WtEn= 7.03D-02
 Coeff-Com: -0.203D-01 0.776D-01 0.357D+00 0.586D+00
 Coeff-En:   0.000D+00 0.000D+00 0.180D+00 0.820D+00
 Coeff:     -0.189D-01 0.721D-01 0.344D+00 0.603D+00
 Gap=     0.169 Goal=   None    Shift=    0.000
 Gap=     0.207 Goal=   None    Shift=    0.000
 RMSDP=2.07D-03 MaxDP=3.78D-01 DE=-2.80D-02 OVMax= 5.25D-02

 Cycle   5  Pass 1  IDiag  1:
 RMSU=  1.11D-03    CP:  8.89D-01  1.15D+00  8.46D-01  9.32D-01
 E= -504.860357387079     Delta-E=       -0.011140017762 Rises=F Damp=F
 DIIS: error= 1.89D-03 at cycle   5 NSaved=   5.
 NSaved= 5 IEnMin= 5 EnMin= -504.860357387079     IErMin= 5 ErrMin= 1.89D-03
 ErrMax= 1.89D-03 EMaxC= 1.00D-01 BMatC= 3.55D-03 BMatP= 5.27D-02
 IDIUse=3 WtCom= 9.81D-01 WtEn= 1.89D-02
 Coeff-Com:  0.231D-02-0.112D-02 0.861D-01 0.239D+00 0.674D+00
 Coeff-En:   0.000D+00 0.000D+00 0.000D+00 0.000D+00 0.100D+01
 Coeff:      0.226D-02-0.110D-02 0.845D-01 0.234D+00 0.680D+00
 Gap=     0.175 Goal=   None    Shift=    0.000
 Gap=     0.209 Goal=   None    Shift=    0.000
 RMSDP=1.33D-03 MaxDP=1.99D-01 DE=-1.11D-02 OVMax= 1.98D-02

 Cycle   6  Pass 1  IDiag  1:
 RMSU=  5.95D-04    CP:  9.07D-01  1.25D+00  8.75D-01  9.18D-01  8.66D-01
 E= -504.861175596714     Delta-E=       -0.000818209634 Rises=F Damp=F
 DIIS: error= 1.03D-03 at cycle   6 NSaved=   6.
 NSaved= 6 IEnMin= 6 EnMin= -504.861175596714     IErMin= 6 ErrMin= 1.03D-03
 ErrMax= 1.03D-03 EMaxC= 1.00D-01 BMatC= 1.37D-03 BMatP= 3.55D-03
 IDIUse=3 WtCom= 9.90D-01 WtEn= 1.03D-02
 Coeff-Com:  0.834D-02-0.219D-01-0.540D-01-0.417D-01 0.413D+00 0.696D+00
 Coeff-En:   0.000D+00 0.000D+00 0.000D+00 0.000D+00 0.497D-01 0.950D+00
 Coeff:      0.825D-02-0.216D-01-0.534D-01-0.413D-01 0.409D+00 0.699D+00
 Gap=     0.175 Goal=   None    Shift=    0.000
 Gap=     0.218 Goal=   None    Shift=    0.000
 RMSDP=5.72D-04 MaxDP=9.99D-02 DE=-8.18D-04 OVMax= 1.30D-02

 Cycle   7  Pass 1  IDiag  1:
 RMSU=  1.65D-04    CP:  9.00D-01  1.20D+00  8.63D-01  9.55D-01  1.04D+00
                    CP:  8.66D-01
 E= -504.861526864836     Delta-E=       -0.000351268122 Rises=F Damp=F
 DIIS: error= 2.29D-04 at cycle   7 NSaved=   7.
 NSaved= 7 IEnMin= 7 EnMin= -504.861526864836     IErMin= 7 ErrMin= 2.29D-04
 ErrMax= 2.29D-04 EMaxC= 1.00D-01 BMatC= 8.71D-05 BMatP= 1.37D-03
 IDIUse=3 WtCom= 9.98D-01 WtEn= 2.29D-03
 Coeff-Com: -0.171D-02 0.214D-02-0.244D-01-0.331D-01 0.825D-01 0.249D+00
 Coeff-Com:  0.726D+00
 Coeff-En:   0.000D+00 0.000D+00 0.000D+00 0.000D+00 0.000D+00 0.000D+00
 Coeff-En:   0.100D+01
 Coeff:     -0.170D-02 0.214D-02-0.243D-01-0.331D-01 0.824D-01 0.248D+00
 Coeff:      0.726D+00
 Gap=     0.175 Goal=   None    Shift=    0.000
 Gap=     0.217 Goal=   None    Shift=    0.000
 RMSDP=1.88D-04 MaxDP=3.16D-02 DE=-3.51D-04 OVMax= 1.73D-03

 Cycle   8  Pass 1  IDiag  1:
 RMSU=  5.16D-05    CP:  9.02D-01  1.22D+00  8.67D-01  9.55D-01  1.04D+00
                    CP:  9.64D-01  9.46D-01
 E= -504.861543053679     Delta-E=       -0.000016188843 Rises=F Damp=F
 DIIS: error= 9.87D-05 at cycle   8 NSaved=   8.
 NSaved= 8 IEnMin= 8 EnMin= -504.861543053679     IErMin= 8 ErrMin= 9.87D-05
 ErrMax= 9.87D-05 EMaxC= 1.00D-01 BMatC= 2.44D-05 BMatP= 8.71D-05
 IDIUse=1 WtCom= 1.00D+00 WtEn= 0.00D+00
 Coeff-Com: -0.163D-02 0.361D-02-0.217D-02-0.655D-02-0.208D-01 0.418D-02
 Coeff-Com:  0.370D+00 0.653D+00
 Coeff:     -0.163D-02 0.361D-02-0.217D-02-0.655D-02-0.208D-01 0.418D-02
 Coeff:      0.370D+00 0.653D+00
 Gap=     0.175 Goal=   None    Shift=    0.000
 Gap=     0.218 Goal=   None    Shift=    0.000
 RMSDP=5.56D-05 MaxDP=7.97D-03 DE=-1.62D-05 OVMax= 7.03D-04

 Cycle   9  Pass 1  IDiag  1:
 RMSU=  1.55D-05    CP:  9.01D-01  1.21D+00  8.65D-01  9.59D-01  1.04D+00
                    CP:  9.45D-01  1.00D+00  9.42D-01
 E= -504.861548643252     Delta-E=       -0.000005589573 Rises=F Damp=F
 DIIS: error= 2.85D-05 at cycle   9 NSaved=   9.
 NSaved= 9 IEnMin= 9 EnMin= -504.861548643252     IErMin= 9 ErrMin= 2.85D-05
 ErrMax= 2.85D-05 EMaxC= 1.00D-01 BMatC= 1.63D-06 BMatP= 2.44D-05
 IDIUse=1 WtCom= 1.00D+00 WtEn= 0.00D+00
 Coeff-Com: -0.965D-04 0.462D-03 0.223D-02 0.147D-02-0.172D-01-0.327D-01
 Coeff-Com:  0.162D-01 0.215D+00 0.814D+00
 Coeff:     -0.965D-04 0.462D-03 0.223D-02 0.147D-02-0.172D-01-0.327D-01
 Coeff:      0.162D-01 0.215D+00 0.814D+00
 Gap=     0.175 Goal=   None    Shift=    0.000
 Gap=     0.218 Goal=   None    Shift=    0.000
 RMSDP=1.27D-05 MaxDP=1.02D-03 DE=-5.59D-06 OVMax= 2.62D-04

 Cycle  10  Pass 1  IDiag  1:
 RMSU=  6.68D-06    CP:  9.01D-01  1.21D+00  8.65D-01  9.58D-01  1.04D+00
                    CP:  9.49D-01  1.04D+00  9.53D-01  9.65D-01
 E= -504.861549132099     Delta-E=       -0.000000488848 Rises=F Damp=F
 DIIS: error= 7.82D-06 at cycle  10 NSaved=  10.
 NSaved=10 IEnMin=10 EnMin= -504.861549132099     IErMin=10 ErrMin= 7.82D-06
 ErrMax= 7.82D-06 EMaxC= 1.00D-01 BMatC= 2.16D-07 BMatP= 1.63D-06
 IDIUse=1 WtCom= 1.00D+00 WtEn= 0.00D+00
 Coeff-Com:  0.127D-03-0.161D-03 0.109D-02 0.989D-03-0.527D-02-0.130D-01
 Coeff-Com: -0.293D-01 0.244D-01 0.318D+00 0.703D+00
 Coeff:      0.127D-03-0.161D-03 0.109D-02 0.989D-03-0.527D-02-0.130D-01
 Coeff:     -0.293D-01 0.244D-01 0.318D+00 0.703D+00
 Gap=     0.175 Goal=   None    Shift=    0.000
 Gap=     0.218 Goal=   None    Shift=    0.000
 RMSDP=5.05D-06 MaxDP=9.15D-04 DE=-4.89D-07 OVMax= 7.15D-05

 Cycle  11  Pass 1  IDiag  1:
 RMSU=  1.89D-06    CP:  9.01D-01  1.21D+00  8.65D-01  9.58D-01  1.04D+00
                    CP:  9.51D-01  1.03D+00  9.69D-01  1.01D+00  8.08D-01
 E= -504.861549194429     Delta-E=       -0.000000062329 Rises=F Damp=F
 DIIS: error= 3.53D-06 at cycle  11 NSaved=  11.
 NSaved=11 IEnMin=11 EnMin= -504.861549194429     IErMin=11 ErrMin= 3.53D-06
 ErrMax= 3.53D-06 EMaxC= 1.00D-01 BMatC= 3.08D-08 BMatP= 2.16D-07
 IDIUse=1 WtCom= 1.00D+00 WtEn= 0.00D+00
 Coeff-Com:  0.193D-04-0.379D-04 0.116D-03 0.974D-04 0.129D-04-0.366D-03
 Coeff-Com: -0.127D-01-0.184D-01 0.582D-02 0.277D+00 0.748D+00
 Coeff:      0.193D-04-0.379D-04 0.116D-03 0.974D-04 0.129D-04-0.366D-03
 Coeff:     -0.127D-01-0.184D-01 0.582D-02 0.277D+00 0.748D+00
 Gap=     0.175 Goal=   None    Shift=    0.000
 Gap=     0.218 Goal=   None    Shift=    0.000
 RMSDP=1.63D-06 MaxDP=2.05D-04 DE=-6.23D-08 OVMax= 2.43D-05

 Cycle  12  Pass 1  IDiag  1:
 RMSU=  9.06D-07    CP:  9.01D-01  1.21D+00  8.65D-01  9.58D-01  1.04D+00
                    CP:  9.51D-01  1.03D+00  9.70D-01  9.92D-01  8.61D-01
                    CP:  8.49D-01
 E= -504.861549203949     Delta-E=       -0.000000009520 Rises=F Damp=F
 DIIS: error= 1.26D-06 at cycle  12 NSaved=  12.
 NSaved=12 IEnMin=12 EnMin= -504.861549203949     IErMin=12 ErrMin= 1.26D-06
 ErrMax= 1.26D-06 EMaxC= 1.00D-01 BMatC= 3.63D-09 BMatP= 3.08D-08
 IDIUse=1 WtCom= 1.00D+00 WtEn= 0.00D+00
 Coeff-Com: -0.160D-04 0.200D-04-0.793D-04-0.647D-04 0.632D-03 0.129D-02
 Coeff-Com: -0.108D-02-0.101D-01-0.356D-01 0.179D-01 0.269D+00 0.758D+00
 Coeff:     -0.160D-04 0.200D-04-0.793D-04-0.647D-04 0.632D-03 0.129D-02
 Coeff:     -0.108D-02-0.101D-01-0.356D-01 0.179D-01 0.269D+00 0.758D+00
 Gap=     0.175 Goal=   None    Shift=    0.000
 Gap=     0.218 Goal=   None    Shift=    0.000
 RMSDP=6.39D-07 MaxDP=6.11D-05 DE=-9.52D-09 OVMax= 1.22D-05

 Cycle  13  Pass 1  IDiag  1:
 RMSU=  2.76D-07    CP:  9.01D-01  1.21D+00  8.65D-01  9.58D-01  1.04D+00
                    CP:  9.51D-01  1.03D+00  9.67D-01  1.00D+00  8.77D-01
                    CP:  8.81D-01  7.74D-01
 E= -504.861549205440     Delta-E=       -0.000000001491 Rises=F Damp=F
 DIIS: error= 8.02D-07 at cycle  13 NSaved=  13.
 NSaved=13 IEnMin=13 EnMin= -504.861549205440     IErMin=13 ErrMin= 8.02D-07
 ErrMax= 8.02D-07 EMaxC= 1.00D-01 BMatC= 5.10D-10 BMatP= 3.63D-09
 IDIUse=1 WtCom= 1.00D+00 WtEn= 0.00D+00
 Coeff-Com: -0.693D-05 0.857D-05-0.394D-04-0.215D-04 0.189D-03 0.334D-03
 Coeff-Com:  0.169D-02-0.947D-04-0.962D-02-0.386D-01-0.502D-01 0.184D+00
 Coeff-Com:  0.912D+00
 Coeff:     -0.693D-05 0.857D-05-0.394D-04-0.215D-04 0.189D-03 0.334D-03
 Coeff:      0.169D-02-0.947D-04-0.962D-02-0.386D-01-0.502D-01 0.184D+00
 Coeff:      0.912D+00
 Gap=     0.175 Goal=   None    Shift=    0.000
 Gap=     0.218 Goal=   None    Shift=    0.000
 RMSDP=3.17D-07 MaxDP=3.82D-05 DE=-1.49D-09 OVMax= 7.14D-06

 Cycle  14  Pass 1  IDiag  1:
 RMSU=  1.17D-07    CP:  9.01D-01  1.21D+00  8.65D-01  9.58D-01  1.04D+00
                    CP:  9.51D-01  1.03D+00  9.67D-01  9.95D-01  8.72D-01
                    CP:  8.81D-01  8.79D-01  9.76D-01
 E= -504.861549205772     Delta-E=       -0.000000000332 Rises=F Damp=F
 DIIS: error= 3.43D-07 at cycle  14 NSaved=  14.
 NSaved=14 IEnMin=14 EnMin= -504.861549205772     IErMin=14 ErrMin= 3.43D-07
 ErrMax= 3.43D-07 EMaxC= 1.00D-01 BMatC= 1.19D-10 BMatP= 5.10D-10
 IDIUse=1 WtCom= 1.00D+00 WtEn= 0.00D+00
 Coeff-Com: -0.317D-06 0.755D-06-0.268D-05-0.205D-05-0.321D-04-0.734D-04
 Coeff-Com:  0.784D-03 0.173D-02 0.238D-02-0.172D-01-0.624D-01-0.706D-01
 Coeff-Com:  0.317D+00 0.829D+00
 Coeff:     -0.317D-06 0.755D-06-0.268D-05-0.205D-05-0.321D-04-0.734D-04
 Coeff:      0.784D-03 0.173D-02 0.238D-02-0.172D-01-0.624D-01-0.706D-01
 Coeff:      0.317D+00 0.829D+00
 Gap=     0.175 Goal=   None    Shift=    0.000
 Gap=     0.218 Goal=   None    Shift=    0.000
 RMSDP=1.16D-07 MaxDP=1.10D-05 DE=-3.32D-10 OVMax= 3.46D-06

 Cycle  15  Pass 1  IDiag  1:
 RMSU=  4.97D-08    CP:  9.01D-01  1.21D+00  8.65D-01  9.58D-01  1.04D+00
                    CP:  9.51D-01  1.03D+00  9.67D-01  9.96D-01  8.67D-01
                    CP:  8.86D-01  8.80D-01  1.11D+00  1.12D+00
 E= -504.861549205830     Delta-E=       -0.000000000058 Rises=F Damp=F
 DIIS: error= 1.87D-07 at cycle  15 NSaved=  15.
 NSaved=15 IEnMin=15 EnMin= -504.861549205830     IErMin=15 ErrMin= 1.87D-07
 ErrMax= 1.87D-07 EMaxC= 1.00D-01 BMatC= 2.94D-11 BMatP= 1.19D-10
 IDIUse=1 WtCom= 1.00D+00 WtEn= 0.00D+00
 Coeff-Com:  0.113D-05-0.995D-06 0.856D-05 0.371D-05-0.618D-04-0.103D-03
 Coeff-Com: -0.885D-04 0.790D-03 0.311D-02 0.156D-02-0.139D-01-0.710D-01
 Coeff-Com: -0.726D-01 0.340D+00 0.812D+00
 Coeff:      0.113D-05-0.995D-06 0.856D-05 0.371D-05-0.618D-04-0.103D-03
 Coeff:     -0.885D-04 0.790D-03 0.311D-02 0.156D-02-0.139D-01-0.710D-01
 Coeff:     -0.726D-01 0.340D+00 0.812D+00
 Gap=     0.175 Goal=   None    Shift=    0.000
 Gap=     0.218 Goal=   None    Shift=    0.000
 RMSDP=5.09D-08 MaxDP=5.03D-06 DE=-5.82D-11 OVMax= 1.84D-06

 Cycle  16  Pass 1  IDiag  1:
 RMSU=  1.95D-08    CP:  9.01D-01  1.21D+00  8.65D-01  9.58D-01  1.04D+00
                    CP:  9.51D-01  1.03D+00  9.67D-01  9.96D-01  8.68D-01
                    CP:  8.80D-01  8.76D-01  1.15D+00  1.30D+00  1.12D+00
 E= -504.861549205835     Delta-E=       -0.000000000004 Rises=F Damp=F
 DIIS: error= 6.85D-08 at cycle  16 NSaved=  16.
 NSaved=16 IEnMin=16 EnMin= -504.861549205835     IErMin=16 ErrMin= 6.85D-08
 ErrMax= 6.85D-08 EMaxC= 1.00D-01 BMatC= 3.71D-12 BMatP= 2.94D-11
 IDIUse=1 WtCom= 1.00D+00 WtEn= 0.00D+00
 Coeff-Com: -0.440D-06 0.105D-05 0.215D-05 0.596D-06-0.100D-04-0.656D-05
 Coeff-Com: -0.131D-03-0.123D-03 0.161D-03 0.323D-02 0.806D-02-0.182D-02
 Coeff-Com: -0.736D-01-0.771D-01 0.196D+00 0.945D+00
 Coeff:     -0.440D-06 0.105D-05 0.215D-05 0.596D-06-0.100D-04-0.656D-05
 Coeff:     -0.131D-03-0.123D-03 0.161D-03 0.323D-02 0.806D-02-0.182D-02
 Coeff:     -0.736D-01-0.771D-01 0.196D+00 0.945D+00
 Gap=     0.175 Goal=   None    Shift=    0.000
 Gap=     0.218 Goal=   None    Shift=    0.000
 RMSDP=3.19D-08 MaxDP=5.40D-06 DE=-4.32D-12 OVMax= 8.85D-07

 Cycle  17  Pass 1  IDiag  1:
 RMSU=  1.01D-08    CP:  9.01D-01  1.21D+00  8.65D-01  9.58D-01  1.04D+00
                    CP:  9.51D-01  1.03D+00  9.67D-01  9.95D-01  8.68D-01
                    CP:  8.80D-01  8.80D-01  1.15D+00  1.37D+00  1.24D+00
                    CP:  9.99D-01
 E= -504.861549205847     Delta-E=       -0.000000000012 Rises=F Damp=F
 DIIS: error= 2.98D-08 at cycle  17 NSaved=  17.
 NSaved=17 IEnMin=17 EnMin= -504.861549205847     IErMin=17 ErrMin= 2.98D-08
 ErrMax= 2.98D-08 EMaxC= 1.00D-01 BMatC= 8.05D-13 BMatP= 3.71D-12
 IDIUse=1 WtCom= 1.00D+00 WtEn= 0.00D+00
 Coeff-Com: -0.193D-06 0.209D-06-0.309D-06 0.264D-07 0.576D-05 0.760D-05
 Coeff-Com: -0.385D-04-0.177D-03-0.359D-03 0.967D-03 0.481D-02 0.105D-01
 Coeff-Com: -0.147D-01-0.803D-01-0.619D-01 0.330D+00 0.811D+00
 Coeff:     -0.193D-06 0.209D-06-0.309D-06 0.264D-07 0.576D-05 0.760D-05
 Coeff:     -0.385D-04-0.177D-03-0.359D-03 0.967D-03 0.481D-02 0.105D-01
 Coeff:     -0.147D-01-0.803D-01-0.619D-01 0.330D+00 0.811D+00
 Gap=     0.175 Goal=   None    Shift=    0.000
 Gap=     0.218 Goal=   None    Shift=    0.000
 RMSDP=1.31D-08 MaxDP=1.40D-06 DE=-1.18D-11 OVMax= 3.12D-07

 Cycle  18  Pass 1  IDiag  1:
 RMSU=  3.20D-09    CP:  9.01D-01  1.21D+00  8.65D-01  9.58D-01  1.04D+00
                    CP:  9.51D-01  1.03D+00  9.67D-01  9.96D-01  8.68D-01
                    CP:  8.80D-01  8.79D-01  1.15D+00  1.39D+00  1.27D+00
                    CP:  1.11D+00  8.62D-01
 E= -504.861549205854     Delta-E=       -0.000000000008 Rises=F Damp=F
 DIIS: error= 1.03D-08 at cycle  18 NSaved=  18.
 NSaved=18 IEnMin=18 EnMin= -504.861549205854     IErMin=18 ErrMin= 1.03D-08
 ErrMax= 1.03D-08 EMaxC= 1.00D-01 BMatC= 1.99D-13 BMatP= 8.05D-13
 IDIUse=1 WtCom= 1.00D+00 WtEn= 0.00D+00
 Coeff-Com: -0.877D-07 0.402D-07-0.756D-06-0.327D-06 0.585D-05 0.670D-05
 Coeff-Com:  0.137D-04-0.651D-04-0.248D-03-0.251D-03 0.689D-03 0.582D-02
 Coeff-Com:  0.829D-02-0.242D-01-0.720D-01-0.263D-01 0.391D+00 0.717D+00
 Coeff:     -0.877D-07 0.402D-07-0.756D-06-0.327D-06 0.585D-05 0.670D-05
 Coeff:      0.137D-04-0.651D-04-0.248D-03-0.251D-03 0.689D-03 0.582D-02
 Coeff:      0.829D-02-0.242D-01-0.720D-01-0.263D-01 0.391D+00 0.717D+00
 Gap=     0.175 Goal=   None    Shift=    0.000
 Gap=     0.218 Goal=   None    Shift=    0.000
 RMSDP=5.17D-09 MaxDP=1.04D-06 DE=-7.50D-12 OVMax= 1.16D-07

 Cycle  19  Pass 1  IDiag  1:
 RMSU=  1.46D-09    CP:  9.01D-01  1.21D+00  8.65D-01  9.58D-01  1.04D+00
                    CP:  9.51D-01  1.03D+00  9.67D-01  9.96D-01  8.68D-01
                    CP:  8.80D-01  8.81D-01  1.15D+00  1.39D+00  1.29D+00
                    CP:  1.12D+00  9.63D-01  9.73D-01
 E= -504.861549205849     Delta-E=        0.000000000005 Rises=F Damp=F
 DIIS: error= 2.39D-09 at cycle  19 NSaved=  19.
 NSaved=19 IEnMin=18 EnMin= -504.861549205854     IErMin=19 ErrMin= 2.39D-09
 ErrMax= 2.39D-09 EMaxC= 1.00D-01 BMatC= 1.18D-14 BMatP= 1.99D-13
 IDIUse=1 WtCom= 1.00D+00 WtEn= 0.00D+00
 Coeff-Com:  0.189D-07-0.461D-07-0.118D-06-0.492D-08 0.809D-06 0.911D-06
 Coeff-Com:  0.633D-05 0.635D-05-0.161D-04-0.179D-03-0.419D-03-0.401D-04
 Coeff-Com:  0.392D-02 0.469D-02-0.955D-02-0.492D-01-0.123D-01 0.176D+00
 Coeff-Com:  0.887D+00
 Coeff:      0.189D-07-0.461D-07-0.118D-06-0.492D-08 0.809D-06 0.911D-06
 Coeff:      0.633D-05 0.635D-05-0.161D-04-0.179D-03-0.419D-03-0.401D-04
 Coeff:      0.392D-02 0.469D-02-0.955D-02-0.492D-01-0.123D-01 0.176D+00
 Coeff:      0.887D+00
 Gap=     0.175 Goal=   None    Shift=    0.000
 Gap=     0.218 Goal=   None    Shift=    0.000
 RMSDP=1.48D-09 MaxDP=1.78D-07 DE= 5.23D-12 OVMax= 3.95D-08

 SCF Done:  E(UB3LYP) =  -504.861549206     A.U. after   19 cycles
             Convg  =    0.1475D-08             -V/T =  2.0045
 <Sx>= 0.0000 <Sy>= 0.0000 <Sz>= 0.5000 <S**2>= 0.7541 S= 0.5021
 <L.S>= 0.000000000000E+00
 KE= 5.026077590382D+02 PE=-2.490956244073D+03 EE= 8.260492719930D+02
 Annihilation of the first spin contaminant:
 S**2 before annihilation     0.7541,   after     0.7500
 Leave Link  502 at Sun Feb  9 04:49:04 2014, MaxMem= 4026531840 cpu:    3441.7
 (Enter /usr/caen/gaussian-09revc/g09/l601.exe)
 Copying SCF densities to generalized density rwf, IOpCl= 1 IROHF=0.

 **********************************************************************

            Population analysis using the SCF density.

 **********************************************************************

 Orbital symmetries:
 Alpha Orbitals:
       Occupied  (A) (A) (A) (A) (A) (A) (A) (A) (A) (A) (A) (A)
                 (A) (A) (A) (A) (A) (A) (A) (A) (A) (A) (A) (A)
                 (A) (A) (A) (A) (A) (A) (A) (A) (A) (A) (A) (A)
                 (A) (A) (A) (A) (A) (A) (A) (A) (A)
       Virtual   (A) (A) (A) (A) (A) (A) (A) (A) (A) (A) (A) (A)
                 (A) (A) (A) (A) (A) (A) (A) (A) (A) (A) (A) (A)
                 (A) (A) (A) (A) (A) (A) (A) (A) (A) (A) (A) (A)
                 (A) (A) (A) (A) (A) (A) (A) (A) (A) (A) (A) (A)
                 (A) (A) (A) (A) (A) (A) (A) (A) (A) (A) (A) (A)
                 (A) (A) (A) (A) (A) (A) (A) (A) (A) (A) (A) (A)
                 (A) (A) (A) (A) (A) (A) (A) (A) (A) (A) (A) (A)
                 (A) (A) (A) (A) (A) (A) (A) (A) (A) (A) (A) (A)
                 (A) (A) (A) (A) (A) (A) (A) (A) (A) (A) (A) (A)
                 (A) (A) (A) (A) (A) (A) (A) (A) (A) (A) (A) (A)
                 (A) (A) (A) (A) (A) (A) (A) (A) (A) (A) (A) (A)
                 (A) (A) (A) (A) (A) (A) (A) (A) (A) (A) (A) (A)
                 (A) (A) (A) (A) (A) (A) (A) (A) (A) (A) (A) (A)
                 (A) (A) (A) (A) (A) (A) (A) (A) (A) (A) (A) (A)
                 (A) (A) (A) (A) (A) (A) (A) (A) (A) (A) (A) (A)
                 (A) (A) (A) (A) (A) (A) (A) (A) (A) (A) (A) (A)
                 (A) (A) (A) (A) (A) (A) (A) (A) (A) (A) (A) (A)
                 (A) (A) (A) (A) (A) (A) (A) (A) (A) (A) (A) (A)
                 (A) (A) (A) (A) (A) (A) (A) (A) (A) (A) (A) (A)
                 (A) (A) (A) (A) (A) (A) (A) (A) (A) (A) (A) (A)
                 (A) (A) (A) (A) (A) (A) (A) (A) (A) (A) (A) (A)
                 (A) (A) (A) (A) (A) (A) (A) (A) (A) (A) (A) (A)
                 (A) (A) (A) (A) (A) (A) (A) (A) (A) (A) (A) (A)
                 (A) (A) (A) (A) (A) (A) (A) (A) (A) (A) (A) (A)
                 (A) (A) (A) (A) (A) (A) (A) (A) (A) (A) (A) (A)
                 (A) (A) (A) (A) (A) (A) (A) (A) (A) (A) (A) (A)
                 (A) (A) (A) (A) (A) (A) (A) (A) (A) (A) (A) (A)
                 (A) (A) (A) (A) (A) (A)
 Beta  Orbitals:
       Occupied  (A) (A) (A) (A) (A) (A) (A) (A) (A) (A) (A) (A)
                 (A) (A) (A) (A) (A) (A) (A) (A) (A) (A) (A) (A)
                 (A) (A) (A) (A) (A) (A) (A) (A) (A) (A) (A) (A)
                 (A) (A) (A) (A) (A) (A) (A) (A)
       Virtual   (A) (A) (A) (A) (A) (A) (A) (A) (A) (A) (A) (A)
                 (A) (A) (A) (A) (A) (A) (A) (A) (A) (A) (A) (A)
                 (A) (A) (A) (A) (A) (A) (A) (A) (A) (A) (A) (A)
                 (A) (A) (A) (A) (A) (A) (A) (A) (A) (A) (A) (A)
                 (A) (A) (A) (A) (A) (A) (A) (A) (A) (A) (A) (A)
                 (A) (A) (A) (A) (A) (A) (A) (A) (A) (A) (A) (A)
                 (A) (A) (A) (A) (A) (A) (A) (A) (A) (A) (A) (A)
                 (A) (A) (A) (A) (A) (A) (A) (A) (A) (A) (A) (A)
                 (A) (A) (A) (A) (A) (A) (A) (A) (A) (A) (A) (A)
                 (A) (A) (A) (A) (A) (A) (A) (A) (A) (A) (A) (A)
                 (A) (A) (A) (A) (A) (A) (A) (A) (A) (A) (A) (A)
                 (A) (A) (A) (A) (A) (A) (A) (A) (A) (A) (A) (A)
                 (A) (A) (A) (A) (A) (A) (A) (A) (A) (A) (A) (A)
                 (A) (A) (A) (A) (A) (A) (A) (A) (A) (A) (A) (A)
                 (A) (A) (A) (A) (A) (A) (A) (A) (A) (A) (A) (A)
                 (A) (A) (A) (A) (A) (A) (A) (A) (A) (A) (A) (A)
                 (A) (A) (A) (A) (A) (A) (A) (A) (A) (A) (A) (A)
                 (A) (A) (A) (A) (A) (A) (A) (A) (A) (A) (A) (A)
                 (A) (A) (A) (A) (A) (A) (A) (A) (A) (A) (A) (A)
                 (A) (A) (A) (A) (A) (A) (A) (A) (A) (A) (A) (A)
                 (A) (A) (A) (A) (A) (A) (A) (A) (A) (A) (A) (A)
                 (A) (A) (A) (A) (A) (A) (A) (A) (A) (A) (A) (A)
                 (A) (A) (A) (A) (A) (A) (A) (A) (A) (A) (A) (A)
                 (A) (A) (A) (A) (A) (A) (A) (A) (A) (A) (A) (A)
                 (A) (A) (A) (A) (A) (A) (A) (A) (A) (A) (A) (A)
                 (A) (A) (A) (A) (A) (A) (A) (A) (A) (A) (A) (A)
                 (A) (A) (A) (A) (A) (A) (A) (A) (A) (A) (A) (A)
                 (A) (A) (A) (A) (A) (A) (A)
 The electronic state is 2-A.
 Alpha  occ. eigenvalues --  -19.17804 -19.17665 -10.22738 -10.18691 -10.17542
 Alpha  occ. eigenvalues --  -10.17395 -10.17167 -10.17042 -10.16228 -10.15767
 Alpha  occ. eigenvalues --  -10.15542  -1.12011  -0.92012  -0.81674  -0.80624
 Alpha  occ. eigenvalues --   -0.75153  -0.70365  -0.68453  -0.67688  -0.61344
 Alpha  occ. eigenvalues --   -0.56292  -0.55319  -0.53711  -0.48013  -0.46534
 Alpha  occ. eigenvalues --   -0.46266  -0.45739  -0.43827  -0.43064  -0.42223
 Alpha  occ. eigenvalues --   -0.41893  -0.39946  -0.39713  -0.38673  -0.37963
 Alpha  occ. eigenvalues --   -0.36900  -0.35966  -0.35798  -0.34840  -0.32586
 Alpha  occ. eigenvalues --   -0.32503  -0.32059  -0.29946  -0.27897  -0.19112
 Alpha virt. eigenvalues --   -0.01620  -0.00963   0.00074   0.00408   0.01302
 Alpha virt. eigenvalues --    0.01856   0.02259   0.02739   0.03360   0.03934
 Alpha virt. eigenvalues --    0.04104   0.04581   0.04849   0.05187   0.06134
 Alpha virt. eigenvalues --    0.06500   0.07310   0.07530   0.07973   0.08405
 Alpha virt. eigenvalues --    0.08785   0.09312   0.09969   0.10196   0.10575
 Alpha virt. eigenvalues --    0.10961   0.11534   0.11726   0.11928   0.12298
 Alpha virt. eigenvalues --    0.12928   0.13249   0.13559   0.13696   0.14022
 Alpha virt. eigenvalues --    0.14233   0.14685   0.14990   0.15165   0.15760
 Alpha virt. eigenvalues --    0.16167   0.16306   0.16396   0.16773   0.17292
 Alpha virt. eigenvalues --    0.17564   0.17734   0.18215   0.18539   0.19372
 Alpha virt. eigenvalues --    0.19482   0.19991   0.20258   0.20521   0.20651
 Alpha virt. eigenvalues --    0.21259   0.21687   0.22289   0.22724   0.23459
 Alpha virt. eigenvalues --    0.23786   0.24102   0.24384   0.24804   0.25612
 Alpha virt. eigenvalues --    0.25833   0.26622   0.27207   0.27947   0.28308
 Alpha virt. eigenvalues --    0.28728   0.28951   0.29550   0.30415   0.31721
 Alpha virt. eigenvalues --    0.32636   0.32813   0.33284   0.33523   0.34023
 Alpha virt. eigenvalues --    0.34541   0.35054   0.35434   0.36982   0.37409
 Alpha virt. eigenvalues --    0.38133   0.38862   0.40391   0.40584   0.41287
 Alpha virt. eigenvalues --    0.43167   0.44165   0.44980   0.45491   0.47378
 Alpha virt. eigenvalues --    0.47931   0.49099   0.51219   0.52452   0.53065
 Alpha virt. eigenvalues --    0.54269   0.54564   0.55595   0.56253   0.57932
 Alpha virt. eigenvalues --    0.58445   0.59177   0.60381   0.61920   0.61952
 Alpha virt. eigenvalues --    0.63172   0.64458   0.64846   0.66106   0.66511
 Alpha virt. eigenvalues --    0.66732   0.67249   0.67591   0.68253   0.69361
 Alpha virt. eigenvalues --    0.69415   0.70833   0.72137   0.72371   0.72700
 Alpha virt. eigenvalues --    0.73893   0.74520   0.75333   0.76150   0.76793
 Alpha virt. eigenvalues --    0.77181   0.78626   0.79213   0.80068   0.81740
 Alpha virt. eigenvalues --    0.82420   0.83728   0.85672   0.86775   0.89786
 Alpha virt. eigenvalues --    0.93233   0.97151   0.99045   1.00423   1.02284
 Alpha virt. eigenvalues --    1.03683   1.04512   1.05960   1.08223   1.09329
 Alpha virt. eigenvalues --    1.11895   1.12838   1.15285   1.15896   1.16725
 Alpha virt. eigenvalues --    1.19459   1.21787   1.23524   1.24491   1.28772
 Alpha virt. eigenvalues --    1.30090   1.33688   1.35709   1.37248   1.40407
 Alpha virt. eigenvalues --    1.41955   1.43971   1.45053   1.46126   1.46458
 Alpha virt. eigenvalues --    1.46948   1.48180   1.48628   1.50158   1.51301
 Alpha virt. eigenvalues --    1.53033   1.54553   1.56670   1.57259   1.57839
 Alpha virt. eigenvalues --    1.58640   1.59465   1.60276   1.60592   1.61717
 Alpha virt. eigenvalues --    1.61917   1.63745   1.63849   1.64861   1.65700
 Alpha virt. eigenvalues --    1.66740   1.67786   1.68421   1.69666   1.70542
 Alpha virt. eigenvalues --    1.71709   1.73520   1.74276   1.75590   1.75860
 Alpha virt. eigenvalues --    1.76690   1.78670   1.80353   1.81527   1.82968
 Alpha virt. eigenvalues --    1.83539   1.86870   1.88685   1.91519   1.93559
 Alpha virt. eigenvalues --    1.95074   1.96319   1.99663   1.99872   2.02084
 Alpha virt. eigenvalues --    2.04797   2.05785   2.06636   2.09066   2.10099
 Alpha virt. eigenvalues --    2.10828   2.12514   2.14446   2.15337   2.18390
 Alpha virt. eigenvalues --    2.20317   2.21880   2.23810   2.28430   2.29798
 Alpha virt. eigenvalues --    2.30706   2.33886   2.35166   2.37263   2.39344
 Alpha virt. eigenvalues --    2.42057   2.44472   2.46379   2.47071   2.49545
 Alpha virt. eigenvalues --    2.50156   2.50500   2.50729   2.51957   2.52943
 Alpha virt. eigenvalues --    2.53678   2.54209   2.55246   2.55781   2.57601
 Alpha virt. eigenvalues --    2.59126   2.59511   2.60481   2.60992   2.61794
 Alpha virt. eigenvalues --    2.63362   2.64194   2.66179   2.66854   2.68895
 Alpha virt. eigenvalues --    2.69993   2.72917   2.73896   2.74838   2.75710
 Alpha virt. eigenvalues --    2.76810   2.77297   2.78336   2.81589   2.82331
 Alpha virt. eigenvalues --    2.84870   2.89138   2.90486   2.92569   2.94204
 Alpha virt. eigenvalues --    2.96070   2.98749   3.00346   3.01751   3.02876
 Alpha virt. eigenvalues --    3.03486   3.05776   3.11739   3.13665   3.17734
 Alpha virt. eigenvalues --    3.19395   3.21779   3.27363   3.29241   3.32040
 Alpha virt. eigenvalues --    3.42801   3.50863   3.64319   3.72861   3.73776
 Alpha virt. eigenvalues --    3.78546   3.79191   3.79938   3.80805   3.81999
 Alpha virt. eigenvalues --    3.82926   3.83658   3.85304   3.87522   3.88330
 Alpha virt. eigenvalues --    3.99646   4.00098   4.11977   4.22921   4.27717
 Alpha virt. eigenvalues --    4.30185   4.30475   4.38479   4.92436   5.04714
 Alpha virt. eigenvalues --    5.11916   5.40442   5.49072   5.71354  23.77247
 Alpha virt. eigenvalues --   23.81119  23.83781  23.90687  23.92478  23.96815
 Alpha virt. eigenvalues --   23.98175  23.98590  23.98761  49.86852  49.90853
  Beta  occ. eigenvalues --  -19.17716 -19.17657 -10.22817 -10.17445 -10.17389
  Beta  occ. eigenvalues --  -10.17323 -10.17252 -10.17120 -10.16211 -10.15768
  Beta  occ. eigenvalues --  -10.15540  -1.11895  -0.91829  -0.81421  -0.79264
  Beta  occ. eigenvalues --   -0.74891  -0.70134  -0.68448  -0.67492  -0.60905
  Beta  occ. eigenvalues --   -0.56220  -0.54650  -0.53121  -0.47725  -0.46232
  Beta  occ. eigenvalues --   -0.45770  -0.45313  -0.43321  -0.42533  -0.41880
  Beta  occ. eigenvalues --   -0.41654  -0.39815  -0.39126  -0.38637  -0.37807
  Beta  occ. eigenvalues --   -0.36637  -0.35782  -0.35671  -0.34677  -0.32561
  Beta  occ. eigenvalues --   -0.32418  -0.31857  -0.29875  -0.27602
  Beta virt. eigenvalues --   -0.05836  -0.01539  -0.00947   0.00090   0.00424
  Beta virt. eigenvalues --    0.01317   0.01873   0.02258   0.02782   0.03433
  Beta virt. eigenvalues --    0.03997   0.04122   0.04590   0.04864   0.05241
  Beta virt. eigenvalues --    0.06161   0.06582   0.07356   0.07541   0.08000
  Beta virt. eigenvalues --    0.08418   0.08874   0.09379   0.09995   0.10204
  Beta virt. eigenvalues --    0.10639   0.10997   0.11587   0.11833   0.11952
  Beta virt. eigenvalues --    0.12367   0.12993   0.13267   0.13603   0.13784
  Beta virt. eigenvalues --    0.14054   0.14264   0.14732   0.15017   0.15189
  Beta virt. eigenvalues --    0.15815   0.16210   0.16343   0.16499   0.16821
  Beta virt. eigenvalues --    0.17316   0.17581   0.17818   0.18389   0.18631
  Beta virt. eigenvalues --    0.19396   0.19578   0.20167   0.20480   0.20586
  Beta virt. eigenvalues --    0.20711   0.21356   0.21858   0.22320   0.22923
  Beta virt. eigenvalues --    0.23663   0.23959   0.24218   0.24670   0.25080
  Beta virt. eigenvalues --    0.25898   0.25984   0.26782   0.27555   0.28318
  Beta virt. eigenvalues --    0.28500   0.28963   0.29350   0.29840   0.30615
  Beta virt. eigenvalues --    0.31825   0.32821   0.32852   0.33480   0.33678
  Beta virt. eigenvalues --    0.34060   0.34671   0.35142   0.35563   0.37049
  Beta virt. eigenvalues --    0.37731   0.38375   0.38940   0.40577   0.40769
  Beta virt. eigenvalues --    0.41389   0.43420   0.44226   0.45161   0.45615
  Beta virt. eigenvalues --    0.47576   0.48026   0.49154   0.51322   0.52575
  Beta virt. eigenvalues --    0.53284   0.54437   0.54731   0.55668   0.56310
  Beta virt. eigenvalues --    0.58296   0.58536   0.59292   0.60500   0.62016
  Beta virt. eigenvalues --    0.63165   0.63799   0.64767   0.65442   0.66240
  Beta virt. eigenvalues --    0.66933   0.67052   0.67443   0.67868   0.68311
  Beta virt. eigenvalues --    0.69516   0.69978   0.70955   0.72296   0.72442
  Beta virt. eigenvalues --    0.73013   0.74024   0.74737   0.75454   0.76214
  Beta virt. eigenvalues --    0.76932   0.77282   0.78807   0.79394   0.80268
  Beta virt. eigenvalues --    0.81797   0.82795   0.83917   0.85912   0.86872
  Beta virt. eigenvalues --    0.90418   0.93743   0.97612   0.99913   1.00854
  Beta virt. eigenvalues --    1.02375   1.03934   1.04598   1.06292   1.08351
  Beta virt. eigenvalues --    1.09434   1.12149   1.12930   1.15344   1.15994
  Beta virt. eigenvalues --    1.16886   1.19547   1.22001   1.23630   1.24789
  Beta virt. eigenvalues --    1.29024   1.30281   1.33982   1.36160   1.37455
  Beta virt. eigenvalues --    1.41047   1.43132   1.44715   1.45360   1.46241
  Beta virt. eigenvalues --    1.46600   1.47059   1.48480   1.48712   1.50477
  Beta virt. eigenvalues --    1.51727   1.53327   1.54749   1.56969   1.57614
  Beta virt. eigenvalues --    1.58035   1.59170   1.59585   1.60392   1.60741
  Beta virt. eigenvalues --    1.61953   1.62150   1.63927   1.64176   1.65187
  Beta virt. eigenvalues --    1.65941   1.66948   1.68557   1.68850   1.69935
  Beta virt. eigenvalues --    1.70720   1.71934   1.73811   1.74548   1.75733
  Beta virt. eigenvalues --    1.76018   1.76809   1.78870   1.80443   1.81746
  Beta virt. eigenvalues --    1.83101   1.84007   1.87140   1.89142   1.92117
  Beta virt. eigenvalues --    1.94479   1.95441   1.97125   2.00213   2.00291
  Beta virt. eigenvalues --    2.02200   2.04960   2.06059   2.06731   2.09206
  Beta virt. eigenvalues --    2.10554   2.11238   2.12706   2.14611   2.15446
  Beta virt. eigenvalues --    2.18701   2.20512   2.22187   2.23992   2.28624
  Beta virt. eigenvalues --    2.30336   2.31106   2.34569   2.35504   2.37871
  Beta virt. eigenvalues --    2.39416   2.42130   2.44813   2.46762   2.47090
  Beta virt. eigenvalues --    2.49738   2.50237   2.50656   2.50873   2.52068
  Beta virt. eigenvalues --    2.53127   2.53820   2.54443   2.55420   2.55908
  Beta virt. eigenvalues --    2.57749   2.59398   2.59731   2.60695   2.61129
  Beta virt. eigenvalues --    2.61931   2.63635   2.64263   2.66524   2.67223
  Beta virt. eigenvalues --    2.69024   2.70232   2.73157   2.74077   2.75169
  Beta virt. eigenvalues --    2.75787   2.76883   2.77519   2.78398   2.81884
  Beta virt. eigenvalues --    2.82441   2.84944   2.89377   2.91282   2.92969
  Beta virt. eigenvalues --    2.94872   2.96127   2.98893   3.00664   3.02400
  Beta virt. eigenvalues --    3.03046   3.03672   3.08536   3.11832   3.14080
  Beta virt. eigenvalues --    3.17764   3.19888   3.22304   3.27529   3.29472
  Beta virt. eigenvalues --    3.32123   3.42986   3.50900   3.64550   3.72928
  Beta virt. eigenvalues --    3.74075   3.78554   3.79204   3.80024   3.80903
  Beta virt. eigenvalues --    3.82324   3.83060   3.83742   3.85369   3.87536
  Beta virt. eigenvalues --    3.88372   3.99694   4.00255   4.12064   4.23124
  Beta virt. eigenvalues --    4.29010   4.30211   4.31537   4.38685   4.92479
  Beta virt. eigenvalues --    5.04728   5.11996   5.40604   5.49156   5.71418
  Beta virt. eigenvalues --   23.77947  23.81829  23.83788  23.90779  23.92573
  Beta virt. eigenvalues --   23.96740  23.98179  23.98557  23.98720  49.86874
  Beta virt. eigenvalues --   49.90928
          Condensed to atoms (all electrons):
              1          2          3          4          5          6
     1  C    6.736555   0.430834   0.423212   0.299547   0.907398  -0.208520
     2  H    0.430834   0.559014  -0.022573  -0.052703   0.218772   0.153303
     3  H    0.423212  -0.022573   0.574632  -0.050084  -0.031311   0.006283
     4  H    0.299547  -0.052703  -0.050084   0.601923  -0.185028  -0.047495
     5  C    0.907398   0.218772  -0.031311  -0.185028  16.065148   1.574080
     6  C   -0.208520   0.153303   0.006283  -0.047495   1.574080  11.220353
     7  H   -0.009750  -0.001753   0.005184  -0.013363  -0.007232   0.473087
     8  H    0.030038   0.010399  -0.003465   0.005429   0.323698   0.490715
     9  C   -0.002013  -0.032774  -0.004165   0.003938  -0.809434  -2.838079
    10  H    0.003464  -0.002853   0.000439   0.000520  -0.077972  -0.099659
    11  H   -0.000682   0.001650  -0.000609   0.000675   0.021391  -0.091991
    12  C   -0.079206   0.004449  -0.002087   0.001633  -0.305846   0.704004
    13  H    0.001880  -0.000761  -0.000005   0.000731  -0.012883  -0.023141
    14  C    0.003879   0.000574  -0.000127   0.000243  -0.008595  -0.309859
    15  H    0.000047   0.000179  -0.000001  -0.000029   0.004654   0.006060
    16  H   -0.000422  -0.000018  -0.000010   0.000016  -0.002081   0.002345
    17  H   -0.000071  -0.000207   0.000022  -0.000031  -0.002596  -0.003819
    18  C   -0.790847   0.049254   0.000964  -0.021979  -0.045809   0.330307
    19  H    0.043772  -0.000947   0.003923  -0.004884   0.129197   0.000647
    20  H    0.030264   0.001517   0.008222  -0.005595  -0.016288   0.001800
    21  H   -0.051221  -0.004045  -0.005904   0.019170  -0.190716  -0.068573
    22  C    0.003527   0.000157  -0.000454   0.000592   0.031047   0.162360
    23  H    0.000527  -0.000054  -0.000014   0.000058  -0.000114  -0.005008
    24  H   -0.001588   0.000133   0.000001  -0.000098  -0.002100   0.020586
    25  H   -0.000804   0.000715   0.000089  -0.000787  -0.002508   0.090567
    26  C   -1.055340  -0.522335  -0.058100   0.295058 -11.771196  -5.267643
    27  H   -0.041559   0.004681  -0.007473   0.004713  -0.605019   0.090235
    28  O   -0.105487   0.025816  -0.006065  -0.003861   0.010615   0.073276
    29  O    0.005360   0.001157   0.003540  -0.004900   0.349811  -0.052759
    30  H   -0.002988  -0.003106  -0.000613   0.000290  -0.012452  -0.040972
              7          8          9         10         11         12
     1  C   -0.009750   0.030038  -0.002013   0.003464  -0.000682  -0.079206
     2  H   -0.001753   0.010399  -0.032774  -0.002853   0.001650   0.004449
     3  H    0.005184  -0.003465  -0.004165   0.000439  -0.000609  -0.002087
     4  H   -0.013363   0.005429   0.003938   0.000520   0.000675   0.001633
     5  C   -0.007232   0.323698  -0.809434  -0.077972   0.021391  -0.305846
     6  C    0.473087   0.490715  -2.838079  -0.099659  -0.091991   0.704004
     7  H    0.587856  -0.073500  -0.125561   0.019904  -0.017179   0.047170
     8  H   -0.073500   0.639508  -0.077535  -0.027852   0.017536  -0.003715
     9  C   -0.125561  -0.077535   9.071027   0.423816   0.506299  -1.820556
    10  H    0.019904  -0.027852   0.423816   0.626678  -0.063735   0.016343
    11  H   -0.017179   0.017536   0.506299  -0.063735   0.563730  -0.079416
    12  C    0.047170  -0.003715  -1.820556   0.016343  -0.079416   7.347069
    13  H    0.009424   0.003994  -0.143845   0.023985  -0.015750   0.563261
    14  C   -0.016433   0.003338   0.535989   0.009357   0.013364  -0.344381
    15  H    0.000205   0.003094  -0.087458   0.001897   0.002259   0.084181
    16  H    0.001015  -0.000664   0.041526  -0.002558  -0.000039  -0.072680
    17  H    0.001505  -0.001846  -0.023221   0.003991   0.001659  -0.031423
    18  C    0.036319   0.017047  -0.024304  -0.009690   0.000122   0.037608
    19  H    0.001486   0.001861  -0.008656   0.000105   0.000210  -0.006671
    20  H    0.000042  -0.000834  -0.001322  -0.000061  -0.000149  -0.001010
    21  H    0.000244   0.000712   0.013180  -0.000339   0.000270   0.004308
    22  C   -0.033273   0.009353   0.084312  -0.082975   0.027874  -0.158948
    23  H   -0.001860   0.000412   0.056412  -0.004614  -0.001387  -0.118933
    24  H    0.004618   0.001570  -0.099625   0.010472  -0.003056   0.091181
    25  H   -0.003892  -0.000929  -0.073781   0.002200   0.002613  -0.038828
    26  C   -0.057075  -0.488383   1.967271   0.112103  -0.063873  -0.377456
    27  H   -0.007541  -0.024351   0.056716  -0.006839   0.006303   0.040215
    28  O   -0.026347   0.025765  -0.027025  -0.010540   0.011987  -0.018953
    29  O    0.010279   0.003005   0.005139   0.002568  -0.005639   0.001470
    30  H   -0.002970   0.001143   0.013620   0.000089   0.000590  -0.000593
             13         14         15         16         17         18
     1  C    0.001880   0.003879   0.000047  -0.000422  -0.000071  -0.790847
     2  H   -0.000761   0.000574   0.000179  -0.000018  -0.000207   0.049254
     3  H   -0.000005  -0.000127  -0.000001  -0.000010   0.000022   0.000964
     4  H    0.000731   0.000243  -0.000029   0.000016  -0.000031  -0.021979
     5  C   -0.012883  -0.008595   0.004654  -0.002081  -0.002596  -0.045809
     6  C   -0.023141  -0.309859   0.006060   0.002345  -0.003819   0.330307
     7  H    0.009424  -0.016433   0.000205   0.001015   0.001505   0.036319
     8  H    0.003994   0.003338   0.003094  -0.000664  -0.001846   0.017047
     9  C   -0.143845   0.535989  -0.087458   0.041526  -0.023221  -0.024304
    10  H    0.023985   0.009357   0.001897  -0.002558   0.003991  -0.009690
    11  H   -0.015750   0.013364   0.002259  -0.000039   0.001659   0.000122
    12  C    0.563261  -0.344381   0.084181  -0.072680  -0.031423   0.037608
    13  H    0.620542  -0.050644   0.015393  -0.013760  -0.012651  -0.001398
    14  C   -0.050644   5.796574   0.382623   0.388556   0.406846  -0.005007
    15  H    0.015393   0.382623   0.566026  -0.035939  -0.046010  -0.000073
    16  H   -0.013760   0.388556  -0.035939   0.568560  -0.017223   0.000262
    17  H   -0.012651   0.406846  -0.046010  -0.017223   0.571738   0.000208
    18  C   -0.001398  -0.005007  -0.000073   0.000262   0.000208   6.836815
    19  H   -0.000094   0.000306   0.000026  -0.000053  -0.000016   0.386515
    20  H   -0.000098  -0.000014  -0.000008  -0.000001   0.000011   0.361628
    21  H    0.000212  -0.000455  -0.000033   0.000058   0.000014   0.408834
    22  C   -0.129999  -0.159237  -0.032215  -0.009447   0.019201  -0.010038
    23  H   -0.005623   0.005985   0.003272  -0.001892   0.000962  -0.001025
    24  H    0.012437  -0.016587   0.010893   0.002744  -0.001935   0.002887
    25  H   -0.013442   0.010904  -0.005291   0.001766  -0.002263  -0.001875
    26  C    0.031079  -0.010645  -0.010732  -0.000379   0.004336  -0.874251
    27  H    0.002074   0.002309   0.001246   0.000744  -0.001784  -0.045575
    28  O   -0.001327   0.007126   0.000736  -0.000135  -0.001056   0.037365
    29  O    0.000114  -0.001160  -0.000106   0.000049   0.000280   0.038779
    30  H    0.000154  -0.000027   0.000000  -0.000014   0.000013   0.001257
             19         20         21         22         23         24
     1  C    0.043772   0.030264  -0.051221   0.003527   0.000527  -0.001588
     2  H   -0.000947   0.001517  -0.004045   0.000157  -0.000054   0.000133
     3  H    0.003923   0.008222  -0.005904  -0.000454  -0.000014   0.000001
     4  H   -0.004884  -0.005595   0.019170   0.000592   0.000058  -0.000098
     5  C    0.129197  -0.016288  -0.190716   0.031047  -0.000114  -0.002100
     6  C    0.000647   0.001800  -0.068573   0.162360  -0.005008   0.020586
     7  H    0.001486   0.000042   0.000244  -0.033273  -0.001860   0.004618
     8  H    0.001861  -0.000834   0.000712   0.009353   0.000412   0.001570
     9  C   -0.008656  -0.001322   0.013180   0.084312   0.056412  -0.099625
    10  H    0.000105  -0.000061  -0.000339  -0.082975  -0.004614   0.010472
    11  H    0.000210  -0.000149   0.000270   0.027874  -0.001387  -0.003056
    12  C   -0.006671  -0.001010   0.004308  -0.158948  -0.118933   0.091181
    13  H   -0.000094  -0.000098   0.000212  -0.129999  -0.005623   0.012437
    14  C    0.000306  -0.000014  -0.000455  -0.159237   0.005985  -0.016587
    15  H    0.000026  -0.000008  -0.000033  -0.032215   0.003272   0.010893
    16  H   -0.000053  -0.000001   0.000058  -0.009447  -0.001892   0.002744
    17  H   -0.000016   0.000011   0.000014   0.019201   0.000962  -0.001935
    18  C    0.386515   0.361628   0.408834  -0.010038  -0.001025   0.002887
    19  H    0.564275  -0.011964  -0.052473   0.001336   0.000099  -0.000411
    20  H   -0.011964   0.572951  -0.060613   0.000019  -0.000012  -0.000029
    21  H   -0.052473  -0.060613   0.628831  -0.000765  -0.000109   0.000422
    22  C    0.001336   0.000019  -0.000765   5.727818   0.419197   0.350453
    23  H    0.000099  -0.000012  -0.000109   0.419197   0.567703  -0.032224
    24  H   -0.000411  -0.000029   0.000422   0.350453  -0.032224   0.562169
    25  H    0.000068   0.000064  -0.000876   0.420851  -0.026788  -0.044217
    26  C   -0.179263  -0.028943   0.199180   0.028107   0.003635  -0.014958
    27  H   -0.013073  -0.001851   0.008599  -0.005218  -0.000654   0.001528
    28  O   -0.001366   0.001107  -0.003514   0.001437   0.000001  -0.000284
    29  O    0.007467   0.003453  -0.003331  -0.001001  -0.000024   0.000142
    30  H    0.000349  -0.000156   0.000194   0.000479   0.000025  -0.000061
             25         26         27         28         29         30
     1  C   -0.000804  -1.055340  -0.041559  -0.105487   0.005360  -0.002988
     2  H    0.000715  -0.522335   0.004681   0.025816   0.001157  -0.003106
     3  H    0.000089  -0.058100  -0.007473  -0.006065   0.003540  -0.000613
     4  H   -0.000787   0.295058   0.004713  -0.003861  -0.004900   0.000290
     5  C   -0.002508 -11.771196  -0.605019   0.010615   0.349811  -0.012452
     6  C    0.090567  -5.267643   0.090235   0.073276  -0.052759  -0.040972
     7  H   -0.003892  -0.057075  -0.007541  -0.026347   0.010279  -0.002970
     8  H   -0.000929  -0.488383  -0.024351   0.025765   0.003005   0.001143
     9  C   -0.073781   1.967271   0.056716  -0.027025   0.005139   0.013620
    10  H    0.002200   0.112103  -0.006839  -0.010540   0.002568   0.000089
    11  H    0.002613  -0.063873   0.006303   0.011987  -0.005639   0.000590
    12  C   -0.038828  -0.377456   0.040215  -0.018953   0.001470  -0.000593
    13  H   -0.013442   0.031079   0.002074  -0.001327   0.000114   0.000154
    14  C    0.010904  -0.010645   0.002309   0.007126  -0.001160  -0.000027
    15  H   -0.005291  -0.010732   0.001246   0.000736  -0.000106   0.000000
    16  H    0.001766  -0.000379   0.000744  -0.000135   0.000049  -0.000014
    17  H   -0.002263   0.004336  -0.001784  -0.001056   0.000280   0.000013
    18  C   -0.001875  -0.874251  -0.045575   0.037365   0.038779   0.001257
    19  H    0.000068  -0.179263  -0.013073  -0.001366   0.007467   0.000349
    20  H    0.000064  -0.028943  -0.001851   0.001107   0.003453  -0.000156
    21  H   -0.000876   0.199180   0.008599  -0.003514  -0.003331   0.000194
    22  C    0.420851   0.028107  -0.005218   0.001437  -0.001001   0.000479
    23  H   -0.026788   0.003635  -0.000654   0.000001  -0.000024   0.000025
    24  H   -0.044217  -0.014958   0.001528  -0.000284   0.000142  -0.000061
    25  H    0.589123  -0.038741   0.001435   0.001402  -0.000307  -0.000051
    26  C   -0.038741  24.148480   0.600791  -0.030813  -0.285702   0.052771
    27  H    0.001435   0.600791   0.753782   0.011777  -0.032429  -0.008704
    28  O    0.001402  -0.030813   0.011777   8.031210   0.027320  -0.034665
    29  O   -0.000307  -0.285702  -0.032429   0.027320   7.832989   0.243022
    30  H   -0.000051   0.052771  -0.008704  -0.034665   0.243022   0.553209
 Mulliken atomic charges:
              1
     1  C   -0.569805
     2  H    0.181524
     3  H    0.166550
     4  H    0.156300
     5  C    0.453369
     6  C   -0.342490
     7  H    0.199392
     8  H    0.114457
     9  C   -0.579890
    10  H    0.131756
    11  H    0.164975
    12  C    0.517809
    13  H    0.140141
    14  C   -0.644803
    15  H    0.135104
    16  H    0.149675
    17  H    0.135365
    18  C   -0.714302
    19  H    0.138228
    20  H    0.147868
    21  H    0.158740
    22  C   -0.664546
    23  H    0.142048
    24  H    0.144937
    25  H    0.133582
    26  C   -0.306983
    27  H    0.214919
    28  O    0.004497
    29  O   -0.148585
    30  H    0.240167
 Sum of Mulliken atomic charges =   0.00000
 Mulliken charges with hydrogens summed into heavy atoms:
              1
     1  C   -0.065432
     5  C    0.453369
     6  C   -0.028641
     9  C   -0.283159
    12  C    0.657950
    14  C   -0.224659
    18  C   -0.269465
    22  C   -0.243979
    26  C   -0.092064
    28  O    0.004497
    29  O    0.091583
 Sum of Mulliken charges with hydrogens summed into heavy atoms =   0.00000
          Atomic-Atomic Spin Densities.
              1          2          3          4          5          6
     1  C   -0.076372   0.022373   0.051912  -0.029578  -0.050637   0.022897
     2  H    0.022373   0.006868   0.005775  -0.011156  -0.005335   0.000887
     3  H    0.051912   0.005775   0.052115  -0.030589  -0.031848   0.010180
     4  H   -0.029578  -0.011156  -0.030589   0.133275  -0.057775  -0.020393
     5  C   -0.050637  -0.005335  -0.031848  -0.057775   1.295736   0.055177
     6  C    0.022897   0.000887   0.010180  -0.020393   0.055177   0.033746
     7  H    0.006224   0.002630   0.002103  -0.007790   0.008697   0.021570
     8  H   -0.005293  -0.002282  -0.002703   0.010230  -0.039144  -0.046557
     9  C   -0.016024  -0.001652  -0.001857   0.005528  -0.011863  -0.012544
    10  H    0.000213   0.000162   0.000127  -0.000357   0.003278   0.009021
    11  H   -0.000685  -0.000529  -0.000264   0.000776  -0.003040  -0.013911
    12  C   -0.003306  -0.001083  -0.000274   0.002232  -0.016017  -0.066416
    13  H   -0.000511  -0.000072  -0.000067   0.000425  -0.001293  -0.003170
    14  C   -0.000450  -0.000052   0.000009  -0.000027   0.001168   0.007062
    15  H    0.000003  -0.000006  -0.000003   0.000013  -0.000003  -0.000347
    16  H   -0.000051  -0.000007  -0.000004   0.000028  -0.000386  -0.001423
    17  H    0.000046   0.000023   0.000009  -0.000039   0.000283   0.001600
    18  C    0.051183  -0.002728   0.000253  -0.001434  -0.029921  -0.029510
    19  H    0.005603   0.000185   0.001691  -0.002191   0.007603   0.005972
    20  H    0.019693   0.000838   0.010283  -0.008824  -0.010262   0.010104
    21  H   -0.027106  -0.000993  -0.008691   0.019814  -0.098118  -0.022708
    22  C    0.000796   0.000113   0.000038  -0.000446   0.003538   0.006727
    23  H   -0.000044  -0.000004  -0.000001   0.000010   0.000191   0.000243
    24  H   -0.000024   0.000006  -0.000004   0.000021  -0.000739  -0.000735
    25  H    0.000407   0.000059   0.000102  -0.000666   0.004481   0.006394
    26  C   -0.079469  -0.014877  -0.040268   0.072646  -0.043525   0.008552
    27  H    0.002168   0.001014   0.001069  -0.001868   0.003195   0.029170
    28  O    0.021938   0.002868   0.003363  -0.005299  -0.013807   0.007363
    29  O    0.002310   0.000420   0.000880  -0.000431  -0.013993  -0.000805
    30  H   -0.001468  -0.000158   0.000111  -0.000160   0.002963  -0.001030
              7          8          9         10         11         12
     1  C    0.006224  -0.005293  -0.016024   0.000213  -0.000685  -0.003306
     2  H    0.002630  -0.002282  -0.001652   0.000162  -0.000529  -0.001083
     3  H    0.002103  -0.002703  -0.001857   0.000127  -0.000264  -0.000274
     4  H   -0.007790   0.010230   0.005528  -0.000357   0.000776   0.002232
     5  C    0.008697  -0.039144  -0.011863   0.003278  -0.003040  -0.016017
     6  C    0.021570  -0.046557  -0.012544   0.009021  -0.013911  -0.066416
     7  H    0.005693  -0.008082   0.000169   0.000981  -0.002011  -0.007458
     8  H   -0.008082   0.016490   0.005357  -0.001991   0.002365   0.016326
     9  C    0.000169   0.005357   0.021207  -0.001557  -0.000861  -0.026282
    10  H    0.000981  -0.001991  -0.001557   0.000410  -0.000806  -0.005050
[...]
 8064,0.00003038,-0.00087675,-0.00033987,0.00019194,-0.00030222,0.00232
 185,-0.00316946,0.03266853,0.00144972,-0.00593270,0.00178397,0.0006180
 7,0.00173304,0.00105247,-0.00034258,-0.00009759,-0.00088667,-0.0000552
 9,-0.00010289,-0.00008030,0.00012130,0.00028031,-0.00040532,0.00000088
 ,0.00000539,-0.00000061,-0.00000121,0.00000641,0.00000154,-0.00000006,
 -0.00000276,0.00000127,-0.00000037,-0.00000759,-0.00000696,0.00045544,
 -0.04757213,0.01472772,-0.00138864,-0.00036280,-0.00863490,-0.00223456
 ,0.05211315,-0.00000678,-0.00001554,0.00000172,0.00000856,-0.00001103,
 0.00000930,-0.00001317,0.00000211,0.00000260,0.00000906,0.00001460,0.0
 0000019,-0.00000345,0.00003959,-0.00000948,-0.00018878,0.00015827,0.00
 005467,0.00014092,-0.00005471,0.00010877,-0.00010033,-0.00002499,-0.00
 019114,0.00059849,-0.00071657,0.00066743,-0.00069616,0.00042941,0.0006
 0542,-0.00000215,0.00001517,0.00036457,-0.00112443,0.00137431,-0.01101
 748,-0.00033947,0.00214744,0.00114293,-0.00008618,-0.00068139,0.000549
 00,0.00052413,0.00055444,0.00047385,-0.00005132,0.00001144,-0.00004563
 ,0.00005390,0.00008051,0.00038048,0.00000728,0.00000191,-0.00001998,-0
 .00000798,0.00001644,0.00001431,-0.00000109,-0.00000860,0.00000884,-0.
 00000501,-0.00002620,-0.00000820,-0.01669669,0.01501202,-0.29755347,-0
 .00103102,0.00034432,-0.01216756,0.01932428,-0.01893000,0.32595642,0.0
 0000830,0.00000468,-0.00001356,-0.00000589,-0.00000207,-0.00000866,0.0
 0000915,0.00000101,0.00000497,-0.00000448,0.00001152,0.00000868,0.0000
 1851,-0.00003856,-0.00002005,-0.00100321,0.00041145,0.00022370,0.00000
 928,-0.00004958,-0.00004955,-0.00141477,0.00111800,0.00004583,0.000266
 26,-0.00055443,0.00039651,-0.00006185,0.00007443,0.00002780,0.00013098
 ,-0.00010828,-0.00013674,0.00612045,0.00526975,0.00348559,0.00036910,-
 0.00069934,0.00041267,0.00012723,0.00088093,0.00012138,-0.00006999,0.0
 0012539,0.00001866,0.00039749,0.00022772,-0.00019410,0.00040226,0.0002
 2205,-0.00015201,0.00000497,-0.00000275,0.00001714,-0.00000328,-0.0000
 0189,0.00000492,0.00001067,0.00000369,-0.00000334,-0.00000734,0.000012
 07,-0.00000269,-0.17386666,-0.11698334,-0.05776007,-0.01974294,-0.0180
 7758,-0.00990208,-0.00141102,0.00010308,-0.00025867,0.18964050,-0.0000
 1003,-0.00003628,0.00000648,0.00001617,-0.00000534,0.00001142,-0.00003
 153,0.00000459,0.00000247,0.00002307,0.00001843,0.00000797,0.00004908,
 0.00005970,0.00000997,-0.00028581,-0.00053692,0.00027956,0.00009842,-0
 .00012823,0.00013570,0.00093703,0.00047787,-0.00046101,-0.00117329,0.0
 0058853,-0.00025342,0.00011741,-0.00003388,0.00003177,-0.00001647,0.00
 012838,0.00014688,-0.02253766,-0.01756912,-0.01097702,-0.00001535,0.00
 128929,0.00038789,0.00332463,-0.00556482,0.00275686,0.00023903,0.00023
 225,-0.00008569,0.00002554,0.00027526,0.00017790,-0.00155731,-0.001405
 61,-0.00048261,0.00000439,-0.00002670,-0.00003485,0.00000895,0.0000060
 3,0.00000138,-0.00002773,0.00000153,0.00000120,0.00001533,0.00001464,-
 0.00000250,-0.11563208,-0.15364174,-0.05220586,0.00604683,0.00596992,0
 .00373604,0.00228417,0.00120401,0.00024570,0.12788433,0.16812335,0.000
 00846,-0.00000385,0.00000631,-0.00000054,0.00001282,-0.00000095,-0.000
 00374,-0.00000276,-0.00000523,-0.00000391,-0.00001433,0.00000115,0.000
 00346,0.00002309,0.00003029,-0.00028976,-0.00047508,0.00055197,-0.0000
 8989,0.00013237,-0.00019216,0.00035591,0.00025590,0.00000410,-0.000320
 26,-0.00060993,0.00000116,-0.00005468,-0.00004635,0.00001727,0.0001396
 2,0.00002986,-0.00004487,0.00808483,0.00618441,0.00205356,0.00051328,-
 0.00046289,0.00048749,-0.00050997,0.00174568,-0.00012746,0.00018858,0.
 00035000,0.00038043,-0.00032900,-0.00009562,-0.00005268,0.00022913,0.0
 0053610,0.00059686,-0.00000063,-0.00004060,-0.00001429,0.00001000,-0.0
 0000557,-0.00000827,-0.00001895,0.00001238,-0.00000415,0.00001699,0.00
 003832,0.00000625,-0.05744232,-0.05287163,-0.07332188,0.00915463,0.009
 41330,0.00397415,-0.02341842,-0.02092145,-0.00935684,0.06372252,0.0566
 0324,0.07520972,-0.00538135,-0.00343951,-0.00585976,-0.00019064,-0.000
 90780,0.00071404,0.00019875,-0.00035474,-0.00031041,-0.00045520,0.0013
 7420,0.00159984,-0.13917893,-0.06536372,-0.02572071,-0.12420669,0.0143
 9088,0.02247591,-0.00130508,0.00134683,0.00151709,-0.00201950,0.000839
 21,0.00067791,-0.03136091,0.00954467,0.01019387,0.00167246,0.00085952,
 0.00073015,0.00109305,0.00067965,0.00035736,-0.00142976,-0.00417558,-0
 .00254732,-0.00001127,-0.00007345,0.00019486,-0.00085933,0.00084491,0.
 00083098,-0.00000233,0.00002791,-0.00005725,-0.00030154,-0.00034983,-0
 .00016947,0.00002546,-0.00000745,0.00003146,-0.00328582,-0.00700442,0.
 00222901,0.00019066,0.00040599,-0.00219034,-0.00020439,-0.00071900,-0.
 00053951,-0.00108774,0.00159488,-0.00082996,0.00037227,-0.00072004,-0.
 00023664,0.00025322,0.00015579,0.00004215,-0.00004085,0.00006445,0.000
 01355,0.00006023,0.00055199,0.00013970,0.43509768,-0.00616872,0.001547
 97,-0.00696468,0.00025840,-0.00064584,0.00231547,0.00236466,0.00001247
 ,0.00170544,0.00046858,-0.00005271,0.00187057,-0.05667688,-0.09264421,
 -0.01068798,0.03051978,-0.07878476,-0.01552848,0.00070026,-0.00187140,
 -0.00125235,0.02563811,-0.01333210,-0.01131455,-0.01172459,0.01022333,
 0.00704543,-0.00026771,0.00021859,0.00016167,-0.00137896,-0.00119676,0
 .00090006,-0.00274732,-0.00361603,-0.00157778,0.00025511,-0.00003991,-
 0.00006181,-0.00109861,0.00080691,0.00043388,-0.00000879,0.00001463,-0
 .00005756,-0.00045686,-0.00028742,-0.00006988,-0.00000615,-0.00009631,
 0.00009263,-0.02016647,-0.00533003,0.00202807,0.00045577,0.00027741,-0
 .00180058,0.00117017,-0.00110272,0.00050054,0.00093883,0.00112252,-0.0
 0118623,0.00033261,-0.00041708,-0.00024453,0.00004280,0.00006541,0.000
 05040,0.00003151,0.00004909,0.00000786,0.00012032,0.00022313,0.0001070
 7,0.03468424,0.38863618,-0.02769395,-0.01370736,-0.00366924,-0.0004122
 7,0.00036089,-0.00061931,-0.00106323,-0.00115058,-0.00549631,-0.000137
 23,-0.00047004,-0.00100296,-0.02933456,-0.01735022,-0.09635444,0.02872
 557,-0.00916884,-0.09210701,0.03089567,-0.01498820,-0.01302646,-0.0117
 7539,0.00568187,0.00323573,-0.00620440,0.00548073,0.00325346,-0.002107
 06,0.00014170,-0.00029798,0.00072287,0.00006920,0.00040920,-0.00142823
 ,-0.00102287,-0.00183214,0.00012566,-0.00009876,0.00039427,-0.00054734
 ,0.00013585,0.00070358,0.00005442,0.00010168,-0.00004085,-0.00024407,-
 0.00017656,-0.00005925,0.00003864,-0.00000203,0.00000242,0.01636673,0.
 01065115,0.00497258,0.00163255,0.00107698,-0.00013738,0.00200824,0.003
 00205,-0.00304455,0.00051878,0.00115086,-0.00070000,-0.00009221,0.0000
 9755,0.00042499,-0.00013809,-0.00005316,-0.00005035,0.00000076,-0.0000
 0275,-0.00005027,-0.00001482,-0.00019707,-0.00021140,0.00387334,0.0419
 9552,0.59724408,-0.00314733,-0.00293157,0.00049843,0.00019676,0.000336
 05,0.00021273,-0.00026882,-0.00025944,-0.00098452,-0.00018301,-0.00024
 624,-0.00052918,-0.00567776,-0.00711796,-0.02691045,-0.00101017,0.0046
 7442,0.02773918,-0.00437564,0.00220401,0.00178272,0.00078538,-0.000171
 41,-0.00069604,0.00178579,-0.00001378,0.00124414,-0.00034545,0.0000796
 2,-0.00062837,-0.00001293,-0.00012333,-0.00000130,-0.00007847,0.000155
 55,0.00010833,0.00007390,-0.00003476,-0.00029579,0.00003343,-0.0000570
 4,-0.00011123,-0.00005127,-0.00002071,-0.00001861,0.00004136,0.0000206
 3,0.00000072,-0.00000562,-0.00000130,0.00000623,0.00052663,0.00065937,
 -0.00157531,-0.00000656,-0.00022476,0.00102760,0.00016609,0.00025127,0
 .00012022,0.00006264,0.00009474,0.00023043,0.00009224,0.00005702,-0.00
 001050,-0.00000149,-0.00004339,-0.00001276,-0.00003691,0.00001735,-0.0
 0002882,-0.00000408,-0.00007790,0.00001332,-0.04801983,-0.00738865,-0.
 01552556,0.05797833,-0.00306920,-0.00094657,0.00067794,0.00013359,-0.0
 0010836,0.00005273,-0.00025154,-0.00020152,-0.00084805,0.00001742,-0.0
 0002235,-0.00003869,-0.00226645,-0.00116271,-0.01699115,0.00036927,-0.
 00096959,-0.01455595,0.00256471,-0.00067042,-0.00058355,-0.00040995,0.
 00019811,0.00030889,-0.00103954,0.00027213,0.00050065,0.00027831,0.000
 24820,0.00030475,0.00021843,0.00006408,0.00010425,0.00004273,-0.000185
 72,-0.00001995,-0.00008848,-0.00000731,0.00010421,-0.00001524,0.000003
 24,0.00005970,0.00001617,0.00001587,0.00000280,0.00000036,-0.00001052,
 -0.00001245,-0.00000144,0.00000261,0.00000316,0.00028032,0.00004246,-0
 .00147142,-0.00029631,-0.00008917,0.00064293,0.00012167,0.00004534,0.0
 0021045,-0.00006648,-0.00007915,0.00005288,-0.00002393,-0.00001103,-0.
 00002478,0.00000899,0.00000045,0.00001220,0.00002836,0.00000127,0.0000
 3004,-0.00000630,0.00003949,-0.00002335,-0.00489481,-0.05703682,-0.054
 50684,0.00681692,0.06878992,-0.00001679,-0.00099041,0.00115202,0.00015
 178,0.00015706,0.00026457,-0.00006330,-0.00007803,-0.00013561,-0.00009
 021,-0.00014783,-0.00026714,-0.00196902,-0.00213867,-0.00825632,0.0014
 9193,-0.00269510,-0.00983263,0.00097451,-0.00086478,0.00054962,0.00036
 407,-0.00044970,0.00011294,-0.00130237,0.00020511,0.00037505,0.0008594
 0,0.00024035,0.00063594,0.00005532,0.00003034,-0.00004734,0.00020068,-
 0.00008384,0.00041409,-0.00026633,0.00004023,0.00012000,0.00003921,0.0
 0000964,-0.00000271,0.00003032,-0.00000343,0.00001096,-0.00000498,0.00
 000662,0.00000316,-0.00000390,-0.00000684,-0.00000848,0.00083741,0.001
 08616,0.00066717,-0.00028036,-0.00037450,0.00101267,0.00011092,0.00024
 883,0.00045015,0.00008234,-0.00011907,0.00009721,-0.00004197,-0.000053
 18,-0.00004687,-0.00000009,0.00001959,0.00001710,0.00004184,-0.0000006
 1,0.00003476,0.00000706,0.00005890,-0.00001070,-0.01958369,-0.04858150
 ,-0.28372484,0.01774552,0.04473186,0.31390213,0.00106738,-0.00008437,-
 0.00062914,-0.00056587,-0.00050361,0.00054972,-0.00003555,-0.00018467,
 0.00028439,-0.00012322,-0.00051093,0.00016440,-0.00081337,-0.02275292,
 0.01835361,-0.01046455,0.03122335,-0.00883501,0.00105542,-0.00013969,-
 0.00061906,-0.00378218,0.00200779,0.00138594,-0.00206600,-0.00127811,-
 0.00058994,0.00007648,0.00013535,-0.00002495,-0.00191483,0.00189803,-0
 .00101027,0.00050145,0.00115933,-0.00030101,-0.00005531,0.00001983,0.0
 0010804,0.00017642,-0.00011451,-0.00003067,0.00002391,-0.00000774,0.00
 000657,-0.00000014,0.00005569,0.00002116,0.00000595,0.00001065,-0.0000
 3247,-0.00394913,-0.00261668,-0.00214274,0.00009280,0.00009730,0.00002
 039,-0.00043206,-0.00090244,0.00068476,0.00000348,-0.00082912,0.000435
 82,-0.00035284,0.00011559,0.00023050,-0.00010890,0.00008351,-0.0000161
 1,0.00002172,-0.00003106,-0.00000573,0.00001490,-0.00009457,-0.0000469
 2,-0.06052665,-0.00227271,0.00523911,0.00079776,0.00423571,0.00006859,
 0.24118781,0.00024444,0.00063820,0.00163267,-0.00045238,-0.00040415,-0
 .00063447,-0.00003524,0.00015267,-0.00024420,0.00009461,-0.00039503,-0
 .00013680,-0.01478233,-0.03725182,0.01795262,0.01768502,-0.02208403,0.
 00478315,-0.00094083,0.00071752,0.00084968,0.00045214,0.00028426,-0.00
 021843,-0.00100746,-0.00056318,0.00072293,0.00012834,-0.00027646,-0.00
 016589,0.00046021,0.00048937,-0.00039662,-0.00003213,0.00032375,-0.000
 36185,0.00001852,-0.00002108,-0.00000746,0.00001408,-0.00001487,0.0000
 3820,0.00000311,-0.00001344,-0.00001244,-0.00003136,0.00001043,0.00001
 112,0.00004473,0.00005580,-0.00003033,-0.00195603,-0.00289864,-0.00444
 076,0.00033435,0.00035309,0.00033370,-0.00016536,-0.00076670,0.0009211
 9,-0.00018685,-0.00132902,0.00087353,-0.00010864,-0.00010816,0.0000576
 3,0.00001845,0.00009900,-0.00001182,-0.00003281,-0.00000237,-0.0000377
 7,0.00004157,0.00010220,0.00005374,-0.02108131,-0.12316883,0.06695677,
 0.00487970,-0.01143760,0.01142956,-0.07268445,0.28425864,0.00087436,-0
 .00105088,-0.00178269,-0.00070388,-0.00111346,0.00191867,0.00001557,-0
 .00038372,0.00073000,-0.00042051,-0.00049768,0.00056686,0.00642092,0.0
 0741777,0.00244509,0.00108432,-0.01083882,0.00557367,-0.00046017,-0.00
 097631,0.00066453,0.00313880,-0.00226306,-0.00094847,-0.00077336,-0.00
 031401,0.00064854,0.00050423,-0.00012198,0.00024665,-0.00034385,0.0002
 3453,-0.00013684,0.00014659,0.00003848,0.00013591,-0.00008038,0.000030
 37,0.00005330,0.00001313,0.00005895,-0.00003173,0.00001919,-0.00001274
 ,0.00001977,-0.00001685,0.00000343,0.00000845,0.00000418,-0.00001086,-
 0.00000551,0.00056983,0.00063452,0.00088991,-0.00030044,-0.00011876,0.
 00085297,0.00018777,0.00034265,0.00011344,0.00000299,0.00037437,0.0000
 1560,-0.00004449,-0.00009296,-0.00006348,0.00002742,0.00005075,0.00001
 843,0.00002999,0.00000301,0.00003707,0.00002666,0.00009199,0.00002431,
 0.02267467,0.03888020,-0.11613229,-0.00171109,0.04152771,-0.02089856,-
 0.09572033,-0.04936128,0.20492017,0.00034463,0.00011984,-0.00000559,-0
 .00042164,-0.00007704,0.00013610,0.00009714,0.00023655,-0.00000463,-0.
 00013512,-0.00014376,0.00009178,0.00249959,-0.00278917,-0.00076934,0.0
 0347340,0.00596312,-0.00401155,0.00043785,-0.00056049,-0.00003159,-0.0
 0206002,0.00065975,0.00087606,0.00112713,0.00035483,0.00001635,-0.0002
 3401,0.00017027,-0.00024228,0.00042878,0.00014323,0.00031415,0.0001799
 6,-0.00005445,-0.00021478,0.00002068,-0.00000552,-0.00000668,-0.000065
 72,0.00009777,0.00008188,-0.00000052,0.00000086,-0.00003990,-0.0001104
 9,-0.00001475,0.00000521,0.00003250,-0.00001328,0.00000573,0.00052995,
 0.00031706,0.00016189,-0.00018292,0.00010112,-0.00000433,0.00023037,0.
 00020597,-0.00002883,-0.00001664,-0.00015505,0.00003391,-0.00013121,0.
 00007438,0.00016333,-0.00014146,0.00002125,-0.00000960,0.00001781,-0.0
 0001053,-0.00003999,0.00001173,-0.00018030,-0.00005703,-0.01751622,0.0
 1074355,0.00742053,0.00093720,-0.00260225,0.00027370,-0.13296092,0.087
 96851,0.06866552,0.46639060,-0.00024803,-0.00010487,0.00078160,0.00028
 696,-0.00004242,-0.00043954,-0.00020855,0.00001768,0.00003251,0.000089
 03,0.00026170,-0.00028411,0.00154240,-0.00060693,-0.00105033,-0.003308
 48,-0.00806376,0.00482701,-0.00019758,0.00003793,-0.00006100,0.0026807
 3,-0.00035872,-0.00082030,-0.00059737,-0.00073176,-0.00021690,0.000045
 85,0.00016121,0.00001746,0.00053524,0.00053473,0.00003235,0.00011033,0
 .00034627,0.00020722,-0.00001735,-0.00002414,-0.00001999,0.00013193,-0
 .00014903,-0.00007111,-0.00000258,0.00000486,0.00001497,0.00009057,0.0
 0004654,0.00000361,0.00000067,0.00006617,-0.00001483,0.00080724,0.0002
 0797,-0.00026842,-0.00003422,0.00024169,-0.00012835,-0.00018562,0.0001
 3781,-0.00006360,-0.00009239,-0.00005967,0.00009633,-0.00008302,-0.000
 08092,-0.00008841,0.00009830,0.00005496,-0.00000092,-0.00001362,0.0000
 0879,0.00001855,0.00001101,0.00019798,0.00008135,0.03540492,-0.0262091
 5,-0.02413322,-0.00148528,0.00345545,-0.00162012,0.03549925,-0.0839610
 9,-0.03191534,0.00847774,0.16692229,-0.00026004,0.00030796,-0.00037625
 ,0.00029658,-0.00019163,0.00005034,-0.00003212,-0.00010570,0.00011896,
 0.00005461,0.00012079,0.00013991,0.00030281,0.00022191,0.00009736,-0.0
 0205016,0.00243176,0.00058318,-0.00063611,0.00068397,0.00049531,-0.000
 06933,0.00054282,0.00051305,0.00000394,0.00028410,0.00006511,-0.000007
 13,0.00003350,0.00002198,0.00007034,0.00000993,-0.00013731,0.00000520,
 0.00001697,-0.00008934,-0.00001719,0.00001411,0.00004227,-0.00001801,0
 .00002301,0.00000524,0.00000693,-0.00000403,0.00001296,-0.00000564,-0.
 00000286,-0.00000316,-0.00000438,-0.00001801,-0.00000658,-0.00026124,-
 0.00005191,0.00007082,0.00011533,-0.00015730,0.00006088,-0.00003493,-0
 .00007885,-0.00003847,0.00000038,0.00014110,-0.00002836,-0.00004187,0.
 00002227,0.00002743,-0.00001990,0.00000469,-0.00000468,0.00000727,-0.0
 0000882,0.00000965,-0.00000363,-0.00002297,-0.00000939,-0.00982983,-0.
 00075498,0.00913442,-0.00167721,0.00031487,0.00333901,0.04965131,-0.04
 798433,-0.08731768,0.15652986,0.13892531,0.24301340,0.00011740,0.00020
 305,0.00000015,0.00017987,0.00023701,0.00028486,-0.00017318,-0.0002047
 2,-0.00001834,-0.00007661,-0.00005082,-0.00007330,0.00015181,0.0002746
 3,-0.00050612,-0.00004820,-0.00007621,-0.00008044,-0.00001923,0.000056
 48,0.00005544,0.00007912,0.00000637,0.00011673,0.00003225,-0.00002783,
 -0.00004465,-0.00002657,0.00004006,-0.00001063,0.00007580,0.00004536,0
 .00001943,-0.00000884,0.00005499,0.00001204,-0.00000126,-0.00000108,0.
 00000715,0.00001487,-0.00001465,-0.00001237,-0.00000188,0.00000116,0.0
 0000814,0.00002056,0.00000179,-0.00000380,-0.00001141,-0.00000239,0.00
 000067,0.00005329,0.00012982,-0.00008880,0.00004080,0.00000570,-0.0000
 0872,-0.00011812,-0.00009534,0.00000218,-0.00002145,-0.00005024,0.0000
 2667,-0.00000517,0.00000251,-0.00000502,0.00001607,-0.00000244,-0.0000
 0465,-0.00000324,-0.00000068,0.00000707,-0.00000650,0.00001363,0.00000
 561,-0.00157976,0.00163773,-0.00090447,-0.00025216,-0.00010104,0.00028
 839,-0.02687395,0.00110939,-0.00383079,-0.32278244,-0.07933806,-0.1920
 7586,0.35122814,-0.00038887,-0.00018315,-0.00056033,0.00031770,-0.0001
 3553,-0.00038386,0.00003881,-0.00028047,-0.00009375,0.00004164,0.00016
 059,0.00005103,-0.00147063,0.00023820,0.00013481,-0.00011859,-0.001753
 10,0.00025010,-0.00007927,0.00012455,0.00001234,0.00036212,-0.00029125
 ,-0.00015934,-0.00026936,0.00021062,0.00014273,0.00002629,-0.00004958,
 0.00003002,-0.00013823,-0.00009778,-0.00004107,-0.00004937,-0.00013444
 ,-0.00006103,-0.00000139,0.00000924,0.00001165,-0.00004142,0.00004976,
 0.00002016,0.00000432,-0.00000358,0.00000025,-0.00002712,-0.00000999,-
 0.00000032,0.00000337,-0.00001609,-0.00000025,-0.00025240,-0.00020934,
 0.00026573,0.00006291,-0.00004762,-0.00010075,0.00007708,-0.00007504,-
 0.00004192,0.00003535,0.00028206,-0.00017086,0.00003234,-0.00000667,-0
 .00000551,-0.00000752,0.00000046,0.00000693,0.00000581,-0.00000078,0.0
 0000267,0.00000112,-0.00000796,-0.00000623,0.00632162,0.00263445,0.000
 12569,-0.00004912,-0.00023978,-0.00005663,0.02846622,-0.00278846,0.009
 38311,-0.10904919,-0.05231159,-0.09471768,0.07614579,0.05493226,-0.000
 38285,-0.00015128,0.00074328,0.00049343,-0.00007051,-0.00063603,-0.000
 12713,-0.00006906,0.00002007,0.00003361,0.00022994,-0.00038391,0.00027
 314,-0.00051335,0.00060252,-0.00010558,-0.00025263,0.00056109,0.000000
 20,0.00005695,-0.00005140,0.00014803,-0.00011288,-0.00005570,0.0000117
 4,-0.00011086,-0.00015034,0.00002898,-0.00005220,0.00004141,-0.0001454
 5,-0.00006767,-0.00005002,-0.00002085,0.00002487,0.00012641,-0.0000015
 1,-0.00000037,-0.00001607,0.00002881,-0.00004578,-0.00002616,-0.000001
 10,-0.00000010,0.00000322,0.00003046,0.00000900,0.00000285,-0.00000882
 ,0.00001269,-0.00000066,-0.00009291,0.00002960,-0.00035399,-0.00006755
 ,0.00011601,-0.00015597,-0.00006783,0.00008231,0.00008252,0.00002760,-
 0.00009366,0.00000497,0.00003912,-0.00001096,-0.00003520,0.00003005,-0
 .00001273,0.00000025,-0.00000924,0.00000225,-0.00000194,-0.00000413,0.
 00002966,0.00001525,-0.00042098,0.00198808,-0.00121769,-0.00001284,-0.
 00056583,0.00007266,0.03280006,-0.00257204,0.00743393,-0.22930987,-0.0
 8384177,-0.16979008,0.19683341,0.08596232,0.16321472\\-0.00000120,0.00
 000292,-0.00000058,-0.00000041,0.00000235,0.00000126,-0.00000043,0.000
 00278,0.00000029,-0.00000050,0.00000306,-0.00000123,0.00000063,-0.0000
 0157,-0.00000035,0.00000015,-0.00000019,-0.00000014,-0.00000012,0.0000
 0169,-0.00000028,-0.00000009,-0.00000017,-0.00000146,-0.00000008,-0.00
 000015,0.00000038,0.00000041,-0.00000193,0.00000045,0.00000040,-0.0000
 0022,0.00000212,0.00000030,-0.00000059,-0.00000032,-0.00000043,0.00000
 154,-0.00000036,0.00000014,-0.00000065,0.00000056,0.00000053,-0.000002
 14,0.00000049,-0.00000004,-0.00000018,-0.00000011,0.00000032,-0.000000
 23,0.00000196,-0.00000019,-0.00000113,-0.00000088,0.00000039,-0.000002
 35,-0.00000035,-0.00000006,-0.00000055,-0.00000047,0.00000001,-0.00000
 046,-0.00000269,-0.00000026,-0.00000061,-0.00000259,-0.00000048,0.0000
 0014,-0.00000330,0.00000007,-0.00000190,-0.00000263,-0.00000024,-0.000
 00019,-0.00000328,-0.00000038,0.00000092,0.00000075,0.00000033,-0.0000
 0158,0.00000137,0.00000073,0.00000052,0.00000255,0.00000044,0.00000069
 ,0.00000530,0.00000004,0.00000018,0.00000352\\\@
 Job cpu time:  0 days 16 hours 11 minutes 15.0 seconds.
 File lengths (MBytes):  RWF=  72773 Int=      0 D2E=      0 Chk=     32 Scr=      1
 Normal termination of Gaussian 09 at Sun Feb  9 18:56:50 2014.
