 Entering Gaussian System, Link 0=g09
 Initial command:
 /usr/caen/gaussian-09revc/g09/l1.exe /scratch/avioli_flux/hetanjin/scratch/Gau-32331.inp -scrdir=/scratch/avioli_flux/hetanjin/scratch/
 Entering Link 1 = /usr/caen/gaussian-09revc/g09/l1.exe PID=     32332.
  
 Copyright (c) 1988,1990,1992,1993,1995,1998,2003,2009,2011,
            Gaussian, Inc.  All Rights Reserved.
  
 This is part of the Gaussian(R) 09 program.  It is based on
 the Gaussian(R) 03 system (copyright 2003, Gaussian, Inc.),
 the Gaussian(R) 98 system (copyright 1998, Gaussian, Inc.),
 the Gaussian(R) 94 system (copyright 1995, Gaussian, Inc.),
 the Gaussian 92(TM) system (copyright 1992, Gaussian, Inc.),
 the Gaussian 90(TM) system (copyright 1990, Gaussian, Inc.),
 the Gaussian 88(TM) system (copyright 1988, Gaussian, Inc.),
 the Gaussian 86(TM) system (copyright 1986, Carnegie Mellon
 University), and the Gaussian 82(TM) system (copyright 1983,
 Carnegie Mellon University). Gaussian is a federally registered
 trademark of Gaussian, Inc.
  
 This software contains proprietary and confidential information,
 including trade secrets, belonging to Gaussian, Inc.
  
 This software is provided under written license and may be
 used, copied, transmitted, or stored only in accord with that
 written license.
  
 The following legend is applicable only to US Government
 contracts under FAR:
  
                    RESTRICTED RIGHTS LEGEND
  
 Use, reproduction and disclosure by the US Government is
 subject to restrictions as set forth in subparagraphs (a)
 and (c) of the Commercial Computer Software - Restricted
 Rights clause in FAR 52.227-19.
  
 Gaussian, Inc.
 340 Quinnipiac St., Bldg. 40, Wallingford CT 06492
  
  
 ---------------------------------------------------------------
 Warning -- This program may not be used in any manner that
 competes with the business of Gaussian, Inc. or will provide
 assistance to any competitor of Gaussian, Inc.  The licensee
 of this program is prohibited from giving any competitor of
 Gaussian, Inc. access to this program.  By using this program,
 the user acknowledges that Gaussian, Inc. is engaged in the
 business of creating and licensing software in the field of
 computational chemistry and represents and warrants to the
 licensee that it is not a competitor of Gaussian, Inc. and that
 it will not use this program in any manner prohibited above.
 ---------------------------------------------------------------
  

 Cite this work as:
 Gaussian 09, Revision C.01,
 M. J. Frisch, G. W. Trucks, H. B. Schlegel, G. E. Scuseria, 
 M. A. Robb, J. R. Cheeseman, G. Scalmani, V. Barone, B. Mennucci, 
 G. A. Petersson, H. Nakatsuji, M. Caricato, X. Li, H. P. Hratchian, 
 A. F. Izmaylov, J. Bloino, G. Zheng, J. L. Sonnenberg, M. Hada, 
 M. Ehara, K. Toyota, R. Fukuda, J. Hasegawa, M. Ishida, T. Nakajima, 
 Y. Honda, O. Kitao, H. Nakai, T. Vreven, J. A. Montgomery, Jr., 
 J. E. Peralta, F. Ogliaro, M. Bearpark, J. J. Heyd, E. Brothers, 
 K. N. Kudin, V. N. Staroverov, T. Keith, R. Kobayashi, J. Normand, 
 K. Raghavachari, A. Rendell, J. C. Burant, S. S. Iyengar, J. Tomasi, 
 M. Cossi, N. Rega, J. M. Millam, M. Klene, J. E. Knox, J. B. Cross, 
 V. Bakken, C. Adamo, J. Jaramillo, R. Gomperts, R. E. Stratmann, 
 O. Yazyev, A. J. Austin, R. Cammi, C. Pomelli, J. W. Ochterski, 
 R. L. Martin, K. Morokuma, V. G. Zakrzewski, G. A. Voth, 
 P. Salvador, J. J. Dannenberg, S. Dapprich, A. D. Daniels, 
 O. Farkas, J. B. Foresman, J. V. Ortiz, J. Cioslowski, 
 and D. J. Fox, Gaussian, Inc., Wallingford CT, 2010.
 
 ******************************************
 Gaussian 09:  EM64L-G09RevC.01 23-Sep-2011
                 9-Feb-2014 
 ******************************************
 %mem=30GB
 %nprocshared=8
 Will use up to    8 processors via shared memory.
 %chk=C9H18OOH_3_26_g.chk
 --------------------------------------------------
 #p UB3LYP/6-311++G(d,p) guess=mix stable=(opt,xqc)
 --------------------------------------------------
 1/38=1/1;
 2/12=2,17=6,18=5,40=1/2;
 3/5=4,6=6,7=1111,11=2,16=1,25=1,30=1,74=-5,116=2/1,2,3;
 4/13=-1/1;
 5/5=2,38=5/2;
 6/7=2,8=2,9=2,10=2,28=1/1;
 8/6=1,10=90,11=11/1;
 9/8=-3,42=1,46=1/14;
 5/5=2,8=3,13=1,17=40,38=5/2,8(-2);
 6/7=2,8=2,9=2,10=2,28=1/1;
 99/5=1,9=1/99;
 Leave Link    1 at Sun Feb  9 08:11:37 2014, MaxMem= 4026531840 cpu:       0.6
 (Enter /usr/caen/gaussian-09revc/g09/l101.exe)
 --------------------------------------------
 C9H18OOH_3_26_g using cbs-qb3 to cal. energy
 --------------------------------------------
 Charge =  0 Multiplicity = 2
 Symbolic Z-Matrix:
 C                    -3.5231   -0.14902  -0.25288 
 H                    -3.57342   0.70479  -0.93344 
 H                    -3.75417   0.19383   0.76055 
 H                    -4.30916  -0.8477   -0.5531 
 C                    -2.15224  -0.83755  -0.31481 
 H                    -1.97737  -1.13395  -1.35749 
 C                     0.37888  -0.39886  -0.39792 
 H                     0.40788  -0.27421  -1.48775 
 H                     0.46175  -1.47309  -0.21131 
 C                     1.5628    0.33576   0.23872 
 H                     1.55835   0.16586   1.32394 
 H                     1.43189   1.41155   0.09169 
 C                     2.93317  -0.08933  -0.32338 
 H                     2.90968   0.04599  -1.4139 
 C                     4.04984   0.84028   0.21759 
 H                     4.11386   0.7747    1.30788 
 H                     5.02484   0.56684  -0.19348 
 H                     3.84474   1.8817   -0.05031 
 C                    -2.16275  -2.10688   0.55281 
 H                    -2.35255  -1.85721   1.60242 
 H                    -2.95403  -2.78767   0.22722 
 H                    -1.21899  -2.65465   0.50419 
 C                     3.25056  -1.52096  -0.03375 
 H                     3.93222  -2.08151  -0.66315 
 H                     2.95526  -1.97042   0.90931 
 C                    -0.98647   0.09211   0.09438 
 H                    -0.97572   0.21529   1.18276 
 O                    -1.11595   1.41841  -0.47048 
 O                    -1.76107   2.29078   0.49581 
 H                    -2.61296   2.45304   0.06665 
 
 NAtoms=     30 NQM=        0 NQMF=       0 NMMI=     30 NMMIF=      0
                NMic=       0 NMicF=      0.
                    Isotopes and Nuclear Properties:
 (Nuclear quadrupole moments (NQMom) in fm**2, nuclear magnetic moments (NMagM)
  in nuclear magnetons)

  Atom         1           2           3           4           5           6           7           8           9          10
 IAtWgt=          12           1           1           1          12           1          12           1           1          12
 AtmWgt=  12.0000000   1.0078250   1.0078250   1.0078250  12.0000000   1.0078250  12.0000000   1.0078250   1.0078250  12.0000000
 NucSpn=           0           1           1           1           0           1           0           1           1           0
 AtZEff=   0.0000000   0.0000000   0.0000000   0.0000000   0.0000000   0.0000000   0.0000000   0.0000000   0.0000000   0.0000000
 NQMom=    0.0000000   0.0000000   0.0000000   0.0000000   0.0000000   0.0000000   0.0000000   0.0000000   0.0000000   0.0000000
 NMagM=    0.0000000   2.7928460   2.7928460   2.7928460   0.0000000   2.7928460   0.0000000   2.7928460   2.7928460   0.0000000

  Atom        11          12          13          14          15          16          17          18          19          20
 IAtWgt=           1           1          12           1          12           1           1           1          12           1
 AtmWgt=   1.0078250   1.0078250  12.0000000   1.0078250  12.0000000   1.0078250   1.0078250   1.0078250  12.0000000   1.0078250
 NucSpn=           1           1           0           1           0           1           1           1           0           1
 AtZEff=   0.0000000   0.0000000   0.0000000   0.0000000   0.0000000   0.0000000   0.0000000   0.0000000   0.0000000   0.0000000
 NQMom=    0.0000000   0.0000000   0.0000000   0.0000000   0.0000000   0.0000000   0.0000000   0.0000000   0.0000000   0.0000000
 NMagM=    2.7928460   2.7928460   0.0000000   2.7928460   0.0000000   2.7928460   2.7928460   2.7928460   0.0000000   2.7928460

  Atom        21          22          23          24          25          26          27          28          29          30
 IAtWgt=           1           1          12           1           1          12           1          16          16           1
 AtmWgt=   1.0078250   1.0078250  12.0000000   1.0078250   1.0078250  12.0000000   1.0078250  15.9949146  15.9949146   1.0078250
 NucSpn=           1           1           0           1           1           0           1           0           0           1
 AtZEff=   0.0000000   0.0000000   0.0000000   0.0000000   0.0000000   0.0000000   0.0000000   0.0000000   0.0000000   0.0000000
 NQMom=    0.0000000   0.0000000   0.0000000   0.0000000   0.0000000   0.0000000   0.0000000   0.0000000   0.0000000   0.0000000
 NMagM=    2.7928460   2.7928460   0.0000000   2.7928460   2.7928460   0.0000000   2.7928460   0.0000000   0.0000000   2.7928460
 Leave Link  101 at Sun Feb  9 08:11:37 2014, MaxMem= 4026531840 cpu:       0.5
 (Enter /usr/caen/gaussian-09revc/g09/l202.exe)
                          Input orientation:                          
 ---------------------------------------------------------------------
 Center     Atomic      Atomic             Coordinates (Angstroms)
 Number     Number       Type             X           Y           Z
 ---------------------------------------------------------------------
      1          6           0       -3.523100   -0.149018   -0.252882
      2          1           0       -3.573423    0.704792   -0.933436
      3          1           0       -3.754169    0.193827    0.760548
      4          1           0       -4.309156   -0.847695   -0.553101
      5          6           0       -2.152244   -0.837551   -0.314808
      6          1           0       -1.977367   -1.133948   -1.357491
      7          6           0        0.378882   -0.398859   -0.397920
      8          1           0        0.407875   -0.274207   -1.487746
      9          1           0        0.461746   -1.473091   -0.211311
     10          6           0        1.562796    0.335762    0.238723
     11          1           0        1.558346    0.165862    1.323936
     12          1           0        1.431890    1.411551    0.091688
     13          6           0        2.933169   -0.089325   -0.323378
     14          1           0        2.909681    0.045989   -1.413895
     15          6           0        4.049841    0.840281    0.217593
     16          1           0        4.113857    0.774698    1.307881
     17          1           0        5.024840    0.566842   -0.193483
     18          1           0        3.844744    1.881702   -0.050310
     19          6           0       -2.162753   -2.106882    0.552814
     20          1           0       -2.352548   -1.857210    1.602422
     21          1           0       -2.954030   -2.787672    0.227215
     22          1           0       -1.218989   -2.654649    0.504188
     23          6           0        3.250558   -1.520964   -0.033750
     24          1           0        3.932216   -2.081511   -0.663152
     25          1           0        2.955261   -1.970418    0.909309
     26          6           0       -0.986469    0.092110    0.094384
     27          1           0       -0.975721    0.215287    1.182760
     28          8           0       -1.115951    1.418406   -0.470479
     29          8           0       -1.761070    2.290780    0.495813
     30          1           0       -2.612960    2.453036    0.066649
 ---------------------------------------------------------------------
                    Distance matrix (angstroms):
                    1          2          3          4          5
     1  C    0.000000
     2  H    1.093013   0.000000
     3  H    1.094521   1.778577   0.000000
     4  H    1.093693   1.759595   1.765914   0.000000
     5  C    1.535304   2.186612   2.187760   2.170059   0.000000
     6  H    2.139986   2.471474   3.066937   2.483188   1.098008
     7  C    3.912662   4.138301   4.333063   4.712031   2.570206
     8  H    4.122272   4.137201   4.753577   4.842812   2.871820
     9  H    4.199273   4.641899   4.636493   4.823841   2.692130
    10  C    5.132546   5.281182   5.344396   6.042133   3.935045
    11  H    5.329784   5.632160   5.342378   6.243248   4.178612
    12  H    5.206345   5.157863   5.368932   6.203189   4.250849
    13  C    6.456930   6.583201   6.780528   7.285545   5.140169
    14  H    6.539622   6.534179   7.011202   7.324701   5.254686
    15  C    7.651764   7.710861   7.849540   8.562480   6.447048
    16  H    7.849353   8.007663   7.908402   8.777389   6.670569
    17  H    8.578069   8.631146   8.838570   9.447419   7.314204
    18  H    7.645259   7.562687   7.826231   8.613274   6.590005
    19  C    2.516530   3.479144   2.805177   2.723168   1.537556
    20  H    2.780335   3.805912   2.622984   3.081187   2.180733
    21  H    2.741684   3.732032   3.132731   2.491740   2.177067
    22  H    3.487158   4.346949   3.821868   3.732569   2.200810
    23  C    6.914673   7.233958   7.255179   7.607384   5.453102
    24  H    7.712625   8.010690   8.141535   8.333944   6.220083
    25  H    6.829154   7.292199   7.051421   7.494725   5.372938
    26  C    2.571621   2.850285   2.848558   3.513221   1.546201
    27  H    2.946680   3.386142   2.810426   3.905756   2.176094
    28  O    2.880717   2.600527   3.158356   3.916452   2.487464
    29  O    3.101275   2.800488   2.905123   4.176480   3.255239
    30  H    2.775093   2.231371   2.624477   3.762445   3.344508
                    6          7          8          9         10
     6  H    0.000000
     7  C    2.648215   0.000000
     8  H    2.538799   1.097315   0.000000
     9  H    2.716251   1.093464   1.752002   0.000000
    10  C    4.152192   1.531873   2.164856   2.164900   0.000000
    11  H    4.623940   2.162136   3.069658   2.499136   1.098441
    12  H    4.494743   2.150843   2.526855   3.058455   1.093653
    13  C    5.125816   2.574053   2.786942   2.834660   1.540967
    14  H    5.027790   2.763157   2.523294   3.121890   2.151561
    15  C    6.534960   3.923043   4.173030   4.290696   2.537790
    16  H    6.917380   4.270484   4.759205   4.549551   2.800656
    17  H    7.299213   4.749663   4.868146   4.998347   3.496562
    18  H    6.685794   4.163411   4.304211   4.767099   2.771418
    19  C    2.151798   3.206423   3.759084   2.805989   4.465969
    20  H    3.070009   3.686308   4.435648   3.370078   4.690279
    21  H    2.489973   4.147954   4.534424   3.686184   5.491602
    22  H    2.520618   2.907848   3.504425   2.175520   4.092842
    23  C    5.406780   3.104555   3.427733   2.794869   2.523928
    24  H    6.025210   3.940539   4.045650   3.552252   3.502961
    25  H    5.492621   3.288826   3.887439   2.778622   2.776168
    26  C    2.143137   1.532187   2.140448   2.154212   2.564947
    27  H    3.045752   2.170409   3.047219   2.619230   2.711049
    28  O    2.836078   2.354197   2.494357   3.304096   2.975025
    29  O    3.900036   3.551382   3.901024   4.428054   3.864748
    30  H    3.911343   4.159357   4.356540   4.994552   4.685018
                   11         12         13         14         15
    11  H    0.000000
    12  H    1.756749   0.000000
    13  C    2.160764   2.163041   0.000000
    14  H    3.055519   2.513047   1.099131   0.000000
    15  C    2.808270   2.682512   1.550411   2.143039   0.000000
    16  H    2.627085   3.012915   2.191248   3.064167   1.094133
    17  H    3.805250   3.701911   2.196023   2.496916   1.092875
    18  H    3.171794   2.462330   2.188717   2.470536   1.094712
    19  C    4.427931   5.051086   5.550376   5.850845   6.884364
    20  H    4.411969   5.223896   5.896857   6.356995   7.084123
    21  H    5.503426   6.073560   6.499488   6.716099   7.887734
    22  H    4.042383   4.871478   4.950371   5.293241   6.329079
    23  C    2.748140   3.452960   1.494728   2.115736   2.505495
    24  H    3.825502   4.361524   2.254406   2.476984   3.053918
    25  H    2.585919   3.798273   2.249115   3.076565   3.094609
    26  C    2.827246   2.754885   3.946011   4.178160   5.093070
    27  H    2.538478   2.901392   4.200079   4.676284   5.155428
    28  O    3.455525   2.609133   4.323224   4.356521   5.243384
    29  O    4.027355   3.336368   5.326524   5.522860   5.995668
    30  H    4.920542   4.176856   6.113531   6.203664   6.856871
                   16         17         18         19         20
    16  H    0.000000
    17  H    1.768386   0.000000
    18  H    1.772727   1.772564   0.000000
    19  C    6.947623   7.705015   7.236199   0.000000
    20  H    6.987710   7.970392   7.424110   1.095461   0.000000
    21  H    7.988326   8.665571   8.252479   1.093439   1.765994
    22  H    6.391055   7.060464   6.821095   1.092293   1.768328
    23  C    2.795590   2.744545   3.454196   5.476431   5.846787
    24  H    3.475039   2.903134   4.011270   6.215132   6.684414
    25  H    3.006138   3.454996   4.068277   5.132229   5.354069
    26  C    5.286949   6.036893   5.154046   2.535620   2.817836
    27  H    5.121758   6.166390   5.247312   2.682973   2.523294
    28  O    5.561278   6.205739   4.999968   3.817143   4.068876
    29  O    6.121497   7.035316   5.647189   4.416337   4.333619
    30  H    7.043262   7.871555   6.483984   4.607808   4.583081
                   21         22         23         24         25
    21  H    0.000000
    22  H    1.762038   0.000000
    23  C    6.337946   4.642356   0.000000
    24  H    6.979384   5.312822   1.083982   0.000000
    25  H    6.004405   4.249313   1.085619   1.854566   0.000000
    26  C    3.490284   2.786878   4.535507   5.430649   4.522760
    27  H    3.720825   2.959083   4.728202   5.724554   4.506074
    28  O    4.642887   4.189316   5.281764   6.145774   5.473820
    29  O    5.223598   4.975057   6.318722   7.271426   6.369660
    30  H    5.254249   5.312536   7.084038   7.995877   7.161153
                   26         27         28         29         30
    26  C    0.000000
    27  H    1.095377   0.000000
    28  O    1.447376   2.049478   0.000000
    29  O    2.365439   2.323002   1.452906   0.000000
    30  H    2.867092   2.988942   1.897367   0.967587   0.000000
 Stoichiometry    C9H19O2(2)
 Framework group  C1[X(C9H19O2)]
 Deg. of freedom    84
 Full point group                 C1      NOp   1
 Largest Abelian subgroup         C1      NOp   1
 Largest concise Abelian subgroup C1      NOp   1
                         Standard orientation:                         
 ---------------------------------------------------------------------
 Center     Atomic      Atomic             Coordinates (Angstroms)
 Number     Number       Type             X           Y           Z
 ---------------------------------------------------------------------
      1          6           0        3.523100    0.149018   -0.252882
      2          1           0        3.573423   -0.704792   -0.933436
      3          1           0        3.754169   -0.193827    0.760548
      4          1           0        4.309156    0.847695   -0.553101
      5          6           0        2.152244    0.837551   -0.314808
      6          1           0        1.977367    1.133948   -1.357491
      7          6           0       -0.378882    0.398859   -0.397920
      8          1           0       -0.407875    0.274207   -1.487746
      9          1           0       -0.461746    1.473091   -0.211311
     10          6           0       -1.562796   -0.335762    0.238723
     11          1           0       -1.558346   -0.165862    1.323936
     12          1           0       -1.431890   -1.411551    0.091688
     13          6           0       -2.933169    0.089325   -0.323378
     14          1           0       -2.909681   -0.045989   -1.413895
     15          6           0       -4.049841   -0.840281    0.217593
     16          1           0       -4.113857   -0.774698    1.307881
     17          1           0       -5.024840   -0.566842   -0.193483
     18          1           0       -3.844744   -1.881702   -0.050310
     19          6           0        2.162753    2.106882    0.552814
     20          1           0        2.352548    1.857210    1.602422
     21          1           0        2.954030    2.787672    0.227215
     22          1           0        1.218989    2.654649    0.504188
     23          6           0       -3.250558    1.520964   -0.033750
     24          1           0       -3.932216    2.081511   -0.663152
     25          1           0       -2.955261    1.970418    0.909309
     26          6           0        0.986469   -0.092110    0.094384
     27          1           0        0.975721   -0.215287    1.182760
     28          8           0        1.115951   -1.418406   -0.470479
     29          8           0        1.761070   -2.290780    0.495813
     30          1           0        2.612960   -2.453036    0.066649
 ---------------------------------------------------------------------
 Rotational constants (GHZ):      1.7068906      0.5037590      0.4108759
 Leave Link  202 at Sun Feb  9 08:11:37 2014, MaxMem= 4026531840 cpu:       0.5
 (Enter /usr/caen/gaussian-09revc/g09/l301.exe)
 Standard basis: 6-311++G(d,p) (5D, 7F)
 Ernie: Thresh=  0.10000D-02 Tol=  0.10000D-05 Strict=F.
 There are   375 symmetry adapted basis functions of A   symmetry.
 Integral buffers will be    131072 words long.
 Raffenetti 2 integral format.
 Two-electron integral symmetry is turned on.
   375 basis functions,   567 primitive gaussians,   386 cartesian basis functions
    45 alpha electrons       44 beta electrons
       nuclear repulsion energy       660.3899909851 Hartrees.
 IExCor=  402 DFT=T Ex+Corr=B3LYP ExCW=0 ScaHFX=  0.200000
 ScaDFX=  0.800000  0.720000  1.000000  0.810000 ScalE2=  1.000000  1.000000
 IRadAn=      0 IRanWt=     -1 IRanGd=            0 ICorTp=0
 NAtoms=   30 NActive=   30 NUniq=   30 SFac= 1.00D+00 NAtFMM=   60 NAOKFM=F Big=F
 Leave Link  301 at Sun Feb  9 08:11:38 2014, MaxMem= 4026531840 cpu:       0.8
 (Enter /usr/caen/gaussian-09revc/g09/l302.exe)
 NPDir=0 NMtPBC=     1 NCelOv=     1 NCel=       1 NClECP=     1 NCelD=      1
         NCelK=      1 NCelE2=     1 NClLst=     1 CellRange=     0.0.
 One-electron integrals computed using PRISM.
 NBasis=   375 RedAO= T  NBF=   375
 NBsUse=   375 1.00D-06 NBFU=   375
 Precomputing XC quadrature grid using
 IXCGrd= 2 IRadAn=           0 IRanWt=          -1 IRanGd=           0 AccXCQ= 0.00D+00.
 NRdTot=    1962 NPtTot=      249976 NUsed=      264113 NTot=      264145
 NSgBfM=   386   386   386   386   386 NAtAll=    30    30.
 Leave Link  302 at Sun Feb  9 08:11:40 2014, MaxMem= 4026531840 cpu:       9.0
 (Enter /usr/caen/gaussian-09revc/g09/l303.exe)
 DipDrv:  MaxL=1.
 Leave Link  303 at Sun Feb  9 08:11:41 2014, MaxMem= 4026531840 cpu:       1.7
 (Enter /usr/caen/gaussian-09revc/g09/l401.exe)
 Harris functional with IExCor=  402 diagonalized for initial guess.
 ExpMin= 3.60D-02 ExpMax= 8.59D+03 ExpMxC= 1.30D+03 IAcc=3 IRadAn=         5 AccDes= 0.00D+00
 HarFok:  IExCor=  402 AccDes= 0.00D+00 IRadAn=         5 IDoV= 1
 ScaDFX=  1.000000  1.000000  1.000000  1.000000
 FoFCou: FMM=F IPFlag=           0 FMFlag=      100000 FMFlg1=           0
         NFxFlg=           0 DoJE=T BraDBF=F KetDBF=T FulRan=T
         Omega=  0.000000  0.000000  1.000000  0.000000  0.000000 ICntrl=     500 IOpCl=  0
         NMat0=    1 NMatS0=    1 NMatT0=    0 NMatD0=    1 NMtDS0=    0 NMtDT0=    0
         I1Cent=           4 NGrid=           0.
 Petite list used in FoFCou.
 Harris En= -504.896545942960    
 Mixing orbitals, IMix= 1 IMixAn=  0 NRI=1 NE=   45 Coef=  7.07106781D-01  7.07106781D-01
 Mixing orbitals, IMix= 1 IMixAn=  0 NRI=1 NE=   44 Coef= -7.07106781D-01  7.07106781D-01
 Initial guess orbital symmetries:
 Alpha Orbitals:
       Occupied  (A) (A) (A) (A) (A) (A) (A) (A) (A) (A) (A) (A)
                 (A) (A) (A) (A) (A) (A) (A) (A) (A) (A) (A) (A)
                 (A) (A) (A) (A) (A) (A) (A) (A) (A) (A) (A) (A)
                 (A) (A) (A) (A) (A) (A) (A) (A) (A)
       Virtual   (A) (A) (A) (A) (A) (A) (A) (A) (A) (A) (A) (A)
                 (A) (A) (A) (A) (A) (A) (A) (A) (A) (A) (A) (A)
                 (A) (A) (A) (A) (A) (A) (A) (A) (A) (A) (A) (A)
                 (A) (A) (A) (A) (A) (A) (A) (A) (A) (A) (A) (A)
                 (A) (A) (A) (A) (A) (A) (A) (A) (A) (A) (A) (A)
                 (A) (A) (A) (A) (A) (A) (A) (A) (A) (A) (A) (A)
                 (A) (A) (A) (A) (A) (A) (A) (A) (A) (A) (A) (A)
                 (A) (A) (A) (A) (A) (A) (A) (A) (A) (A) (A) (A)
                 (A) (A) (A) (A) (A) (A) (A) (A) (A) (A) (A) (A)
                 (A) (A) (A) (A) (A) (A) (A) (A) (A) (A) (A) (A)
                 (A) (A) (A) (A) (A) (A) (A) (A) (A) (A) (A) (A)
                 (A) (A) (A) (A) (A) (A) (A) (A) (A) (A) (A) (A)
                 (A) (A) (A) (A) (A) (A) (A) (A) (A) (A) (A) (A)
                 (A) (A) (A) (A) (A) (A) (A) (A) (A) (A) (A) (A)
                 (A) (A) (A) (A) (A) (A) (A) (A) (A) (A) (A) (A)
                 (A) (A) (A) (A) (A) (A) (A) (A) (A) (A) (A) (A)
                 (A) (A) (A) (A) (A) (A) (A) (A) (A) (A) (A) (A)
                 (A) (A) (A) (A) (A) (A) (A) (A) (A) (A) (A) (A)
                 (A) (A) (A) (A) (A) (A) (A) (A) (A) (A) (A) (A)
                 (A) (A) (A) (A) (A) (A) (A) (A) (A) (A) (A) (A)
                 (A) (A) (A) (A) (A) (A) (A) (A) (A) (A) (A) (A)
                 (A) (A) (A) (A) (A) (A) (A) (A) (A) (A) (A) (A)
                 (A) (A) (A) (A) (A) (A) (A) (A) (A) (A) (A) (A)
                 (A) (A) (A) (A) (A) (A) (A) (A) (A) (A) (A) (A)
                 (A) (A) (A) (A) (A) (A) (A) (A) (A) (A) (A) (A)
                 (A) (A) (A) (A) (A) (A) (A) (A) (A) (A) (A) (A)
                 (A) (A) (A) (A) (A) (A) (A) (A) (A) (A) (A) (A)
                 (A) (A) (A) (A) (A) (A)
 Beta  Orbitals:
       Occupied  (A) (A) (A) (A) (A) (A) (A) (A) (A) (A) (A) (A)
                 (A) (A) (A) (A) (A) (A) (A) (A) (A) (A) (A) (A)
                 (A) (A) (A) (A) (A) (A) (A) (A) (A) (A) (A) (A)
                 (A) (A) (A) (A) (A) (A) (A) (A)
       Virtual   (A) (A) (A) (A) (A) (A) (A) (A) (A) (A) (A) (A)
                 (A) (A) (A) (A) (A) (A) (A) (A) (A) (A) (A) (A)
                 (A) (A) (A) (A) (A) (A) (A) (A) (A) (A) (A) (A)
                 (A) (A) (A) (A) (A) (A) (A) (A) (A) (A) (A) (A)
                 (A) (A) (A) (A) (A) (A) (A) (A) (A) (A) (A) (A)
                 (A) (A) (A) (A) (A) (A) (A) (A) (A) (A) (A) (A)
                 (A) (A) (A) (A) (A) (A) (A) (A) (A) (A) (A) (A)
                 (A) (A) (A) (A) (A) (A) (A) (A) (A) (A) (A) (A)
                 (A) (A) (A) (A) (A) (A) (A) (A) (A) (A) (A) (A)
                 (A) (A) (A) (A) (A) (A) (A) (A) (A) (A) (A) (A)
                 (A) (A) (A) (A) (A) (A) (A) (A) (A) (A) (A) (A)
                 (A) (A) (A) (A) (A) (A) (A) (A) (A) (A) (A) (A)
                 (A) (A) (A) (A) (A) (A) (A) (A) (A) (A) (A) (A)
                 (A) (A) (A) (A) (A) (A) (A) (A) (A) (A) (A) (A)
                 (A) (A) (A) (A) (A) (A) (A) (A) (A) (A) (A) (A)
                 (A) (A) (A) (A) (A) (A) (A) (A) (A) (A) (A) (A)
                 (A) (A) (A) (A) (A) (A) (A) (A) (A) (A) (A) (A)
                 (A) (A) (A) (A) (A) (A) (A) (A) (A) (A) (A) (A)
                 (A) (A) (A) (A) (A) (A) (A) (A) (A) (A) (A) (A)
                 (A) (A) (A) (A) (A) (A) (A) (A) (A) (A) (A) (A)
                 (A) (A) (A) (A) (A) (A) (A) (A) (A) (A) (A) (A)
                 (A) (A) (A) (A) (A) (A) (A) (A) (A) (A) (A) (A)
                 (A) (A) (A) (A) (A) (A) (A) (A) (A) (A) (A) (A)
                 (A) (A) (A) (A) (A) (A) (A) (A) (A) (A) (A) (A)
                 (A) (A) (A) (A) (A) (A) (A) (A) (A) (A) (A) (A)
                 (A) (A) (A) (A) (A) (A) (A) (A) (A) (A) (A) (A)
                 (A) (A) (A) (A) (A) (A) (A) (A) (A) (A) (A) (A)
                 (A) (A) (A) (A) (A) (A) (A)
 The electronic state of the initial guess is 2-A.
 Initial guess <Sx>= 0.0000 <Sy>= 0.0000 <Sz>= 0.5000 <S**2>= 1.0000 S= 0.6180
 Leave Link  401 at Sun Feb  9 08:11:47 2014, MaxMem= 4026531840 cpu:      39.6
 (Enter /usr/caen/gaussian-09revc/g09/l502.exe)
 UHF open shell SCF:
 Requested convergence on RMS density matrix=1.00D-08 within 128 cycles.
 Requested convergence on MAX density matrix=1.00D-06.
 Requested convergence on             energy=1.00D-06.
 No special actions if energy rises.
 Using DIIS extrapolation, IDIIS=  1040.
 Integral symmetry usage will be decided dynamically.
       263830 words used for storage of precomputed grid.
 IEnd=      734964 IEndB=      734964 NGot=  4026531840 MDV=  4025962899
 LenX=  4025962899 LenY=  4025813462
 Fock matrices will be formed incrementally for  20 cycles.

 Cycle   1  Pass 1  IDiag  1:
 FoFCou: FMM=F IPFlag=           0 FMFlag=      100000 FMFlg1=           0
         NFxFlg=           0 DoJE=F BraDBF=F KetDBF=F FulRan=T
         Omega=  0.000000  0.000000  1.000000  0.000000  0.000000 ICntrl=       0 IOpCl=  1
         NMat0=    1 NMatS0=    1 NMatT0=    0 NMatD0=    1 NMtDS0=    0 NMtDT0=    0
         I1Cent=           0 NGrid=           0.
 Symmetry not used in FoFCou.
 E= -504.336142485692    
 DIIS: error= 2.66D-02 at cycle   1 NSaved=   1.
 NSaved= 1 IEnMin= 1 EnMin= -504.336142485692     IErMin= 1 ErrMin= 2.66D-02
 ErrMax= 2.66D-02 EMaxC= 1.00D-01 BMatC= 1.53D+00 BMatP= 1.53D+00
 IDIUse=3 WtCom= 7.34D-01 WtEn= 2.66D-01
 Coeff-Com:  0.100D+01
 Coeff-En:   0.100D+01
 Coeff:      0.100D+01
 Gap=     0.011 Goal=   None    Shift=    0.000
 Gap=     0.015 Goal=   None    Shift=    0.000
 GapD=    0.011 DampG=0.250 DampE=0.500 DampFc=0.2500 IDamp=-1.
 Damping current iteration by 2.50D-01
 RMSDP=2.96D-02 MaxDP=3.86D+00              OVMax= 6.12D-01

 Cycle   2  Pass 1  IDiag  1:
 RMSU=  6.48D-03    CP:  9.02D-01
 E= -504.491326479634     Delta-E=       -0.155183993941 Rises=F Damp=T
 DIIS: error= 1.18D-02 at cycle   2 NSaved=   2.
 NSaved= 2 IEnMin= 2 EnMin= -504.491326479634     IErMin= 2 ErrMin= 1.18D-02
 ErrMax= 1.18D-02 EMaxC= 1.00D-01 BMatC= 3.72D-01 BMatP= 1.53D+00
 IDIUse=3 WtCom= 8.82D-01 WtEn= 1.18D-01
 Coeff-Com: -0.753D+00 0.175D+01
 Coeff-En:   0.000D+00 0.100D+01
 Coeff:     -0.664D+00 0.166D+01
 Gap=     0.114 Goal=   None    Shift=    0.000
 Gap=     0.153 Goal=   None    Shift=    0.000
 RMSDP=1.33D-02 MaxDP=2.73D+00 DE=-1.55D-01 OVMax= 3.40D-01

 Cycle   3  Pass 1  IDiag  1:
 RMSU=  6.83D-03    CP:  6.13D-01  4.49D-01
 E= -504.827974311622     Delta-E=       -0.336647831988 Rises=F Damp=F
 DIIS: error= 8.14D-03 at cycle   3 NSaved=   3.
 NSaved= 3 IEnMin= 3 EnMin= -504.827974311622     IErMin= 3 ErrMin= 8.14D-03
 ErrMax= 8.14D-03 EMaxC= 1.00D-01 BMatC= 8.37D-02 BMatP= 3.72D-01
 IDIUse=3 WtCom= 9.19D-01 WtEn= 8.14D-02
 Coeff-Com: -0.364D+00 0.817D+00 0.547D+00
 Coeff-En:   0.000D+00 0.000D+00 0.100D+01
 Coeff:     -0.334D+00 0.750D+00 0.584D+00
 Gap=     0.161 Goal=   None    Shift=    0.000
 Gap=     0.179 Goal=   None    Shift=    0.000
 RMSDP=2.87D-03 MaxDP=4.85D-01 DE=-3.37D-01 OVMax= 6.49D-02

 Cycle   4  Pass 1  IDiag  1:
 RMSU=  1.49D-03    CP:  5.92D-01  4.01D-01  8.66D-01
 E= -504.837920810768     Delta-E=       -0.009946499147 Rises=F Damp=F
 DIIS: error= 6.26D-03 at cycle   4 NSaved=   4.
 NSaved= 4 IEnMin= 4 EnMin= -504.837920810768     IErMin= 4 ErrMin= 6.26D-03
 ErrMax= 6.26D-03 EMaxC= 1.00D-01 BMatC= 4.32D-02 BMatP= 8.37D-02
 IDIUse=3 WtCom= 9.37D-01 WtEn= 6.26D-02
 Coeff-Com: -0.562D-01 0.123D+00 0.409D+00 0.525D+00
 Coeff-En:   0.000D+00 0.000D+00 0.315D+00 0.685D+00
 Coeff:     -0.527D-01 0.115D+00 0.403D+00 0.535D+00
 Gap=     0.187 Goal=   None    Shift=    0.000
 Gap=     0.196 Goal=   None    Shift=    0.000
 RMSDP=1.40D-03 MaxDP=1.54D-01 DE=-9.95D-03 OVMax= 2.16D-02

 Cycle   5  Pass 1  IDiag  1:
 RMSU=  8.44D-04    CP:  5.81D-01  3.60D-01  9.02D-01  7.18D-01
 E= -504.846100877046     Delta-E=       -0.008180066278 Rises=F Damp=F
 DIIS: error= 1.03D-03 at cycle   5 NSaved=   5.
 NSaved= 5 IEnMin= 5 EnMin= -504.846100877046     IErMin= 5 ErrMin= 1.03D-03
 ErrMax= 1.03D-03 EMaxC= 1.00D-01 BMatC= 1.95D-03 BMatP= 4.32D-02
 IDIUse=3 WtCom= 9.90D-01 WtEn= 1.03D-02
 Coeff-Com: -0.172D-02-0.105D-02 0.726D-01 0.197D+00 0.733D+00
 Coeff-En:   0.000D+00 0.000D+00 0.000D+00 0.000D+00 0.100D+01
 Coeff:     -0.170D-02-0.103D-02 0.719D-01 0.195D+00 0.736D+00
 Gap=     0.196 Goal=   None    Shift=    0.000
 Gap=     0.196 Goal=   None    Shift=    0.000
 RMSDP=4.63D-04 MaxDP=7.37D-02 DE=-8.18D-03 OVMax= 1.37D-02

 Cycle   6  Pass 1  IDiag  1:
 RMSU=  3.53D-04    CP:  5.84D-01  3.44D-01  9.12D-01  7.73D-01  9.80D-01
 E= -504.846502496342     Delta-E=       -0.000401619296 Rises=F Damp=F
 DIIS: error= 6.00D-04 at cycle   6 NSaved=   6.
 NSaved= 6 IEnMin= 6 EnMin= -504.846502496342     IErMin= 6 ErrMin= 6.00D-04
 ErrMax= 6.00D-04 EMaxC= 1.00D-01 BMatC= 6.14D-04 BMatP= 1.95D-03
 IDIUse=3 WtCom= 9.94D-01 WtEn= 6.00D-03
 Coeff-Com:  0.658D-02-0.164D-01-0.556D-01-0.179D-01 0.400D+00 0.683D+00
 Coeff-En:   0.000D+00 0.000D+00 0.000D+00 0.000D+00 0.438D-01 0.956D+00
 Coeff:      0.654D-02-0.163D-01-0.552D-01-0.178D-01 0.398D+00 0.685D+00
 Gap=     0.195 Goal=   None    Shift=    0.000
 Gap=     0.202 Goal=   None    Shift=    0.000
 RMSDP=1.84D-04 MaxDP=2.60D-02 DE=-4.02D-04 OVMax= 3.35D-03

 Cycle   7  Pass 1  IDiag  1:
 RMSU=  8.85D-05    CP:  5.84D-01  3.38D-01  9.05D-01  8.07D-01  1.05D+00
                    CP:  9.04D-01
 E= -504.846659179276     Delta-E=       -0.000156682934 Rises=F Damp=F
 DIIS: error= 1.06D-04 at cycle   7 NSaved=   7.
 NSaved= 7 IEnMin= 7 EnMin= -504.846659179276     IErMin= 7 ErrMin= 1.06D-04
 ErrMax= 1.06D-04 EMaxC= 1.00D-01 BMatC= 2.76D-05 BMatP= 6.14D-04
 IDIUse=3 WtCom= 9.99D-01 WtEn= 1.06D-03
 Coeff-Com: -0.179D-02 0.331D-02-0.187D-01-0.241D-01 0.348D-01 0.191D+00
 Coeff-Com:  0.816D+00
 Coeff-En:   0.000D+00 0.000D+00 0.000D+00 0.000D+00 0.000D+00 0.000D+00
 Coeff-En:   0.100D+01
 Coeff:     -0.179D-02 0.331D-02-0.187D-01-0.241D-01 0.348D-01 0.191D+00
 Coeff:      0.816D+00
 Gap=     0.195 Goal=   None    Shift=    0.000
 Gap=     0.201 Goal=   None    Shift=    0.000
 RMSDP=7.35D-05 MaxDP=7.27D-03 DE=-1.57D-04 OVMax= 1.08D-03

 Cycle   8  Pass 1  IDiag  1:
 RMSU=  5.13D-05    CP:  5.85D-01  3.37D-01  9.04D-01  8.02D-01  1.08D+00
                    CP:  9.08D-01  1.07D+00
 E= -504.846666287097     Delta-E=       -0.000007107821 Rises=F Damp=F
 DIIS: error= 4.36D-05 at cycle   8 NSaved=   8.
 NSaved= 8 IEnMin= 8 EnMin= -504.846666287097     IErMin= 8 ErrMin= 4.36D-05
 ErrMax= 4.36D-05 EMaxC= 1.00D-01 BMatC= 5.32D-06 BMatP= 2.76D-05
 IDIUse=1 WtCom= 1.00D+00 WtEn= 0.00D+00
 Coeff-Com: -0.127D-02 0.263D-02-0.239D-02-0.853D-02-0.214D-01 0.104D-01
 Coeff-Com:  0.324D+00 0.696D+00
 Coeff:     -0.127D-02 0.263D-02-0.239D-02-0.853D-02-0.214D-01 0.104D-01
 Coeff:      0.324D+00 0.696D+00
 Gap=     0.195 Goal=   None    Shift=    0.000
 Gap=     0.201 Goal=   None    Shift=    0.000
 RMSDP=1.40D-05 MaxDP=7.49D-04 DE=-7.11D-06 OVMax= 3.33D-04

 Cycle   9  Pass 1  IDiag  1:
 RMSU=  6.81D-06    CP:  5.85D-01  3.36D-01  9.04D-01  8.00D-01  1.08D+00
                    CP:  9.12D-01  1.12D+00  9.24D-01
 E= -504.846667568278     Delta-E=       -0.000001281181 Rises=F Damp=F
 DIIS: error= 1.97D-05 at cycle   9 NSaved=   9.
 NSaved= 9 IEnMin= 9 EnMin= -504.846667568278     IErMin= 9 ErrMin= 1.97D-05
 ErrMax= 1.97D-05 EMaxC= 1.00D-01 BMatC= 1.17D-06 BMatP= 5.32D-06
 IDIUse=1 WtCom= 1.00D+00 WtEn= 0.00D+00
 Coeff-Com: -0.170D-03 0.411D-03 0.252D-02 0.638D-03-0.181D-01-0.356D-01
 Coeff-Com: -0.180D-01 0.332D+00 0.736D+00
 Coeff:     -0.170D-03 0.411D-03 0.252D-02 0.638D-03-0.181D-01-0.356D-01
 Coeff:     -0.180D-01 0.332D+00 0.736D+00
 Gap=     0.195 Goal=   None    Shift=    0.000
 Gap=     0.201 Goal=   None    Shift=    0.000
 RMSDP=6.05D-06 MaxDP=8.43D-04 DE=-1.28D-06 OVMax= 1.50D-04

 Cycle  10  Pass 1  IDiag  1:
 RMSU=  4.18D-06    CP:  5.85D-01  3.36D-01  9.04D-01  8.00D-01  1.08D+00
                    CP:  9.12D-01  1.14D+00  9.14D-01  8.41D-01
 E= -504.846667872535     Delta-E=       -0.000000304257 Rises=F Damp=F
 DIIS: error= 5.95D-06 at cycle  10 NSaved=  10.
 NSaved=10 IEnMin=10 EnMin= -504.846667872535     IErMin=10 ErrMin= 5.95D-06
 ErrMax= 5.95D-06 EMaxC= 1.00D-01 BMatC= 1.30D-07 BMatP= 1.17D-06
 IDIUse=1 WtCom= 1.00D+00 WtEn= 0.00D+00
 Coeff-Com:  0.101D-03-0.174D-03 0.127D-02 0.128D-02-0.538D-02-0.159D-01
 Coeff-Com: -0.454D-01 0.596D-01 0.319D+00 0.686D+00
 Coeff:      0.101D-03-0.174D-03 0.127D-02 0.128D-02-0.538D-02-0.159D-01
 Coeff:     -0.454D-01 0.596D-01 0.319D+00 0.686D+00
 Gap=     0.195 Goal=   None    Shift=    0.000
 Gap=     0.201 Goal=   None    Shift=    0.000
 RMSDP=3.33D-06 MaxDP=3.96D-04 DE=-3.04D-07 OVMax= 4.47D-05

 Cycle  11  Pass 1  IDiag  1:
 RMSU=  1.24D-06    CP:  5.85D-01  3.36D-01  9.04D-01  8.01D-01  1.08D+00
                    CP:  9.13D-01  1.13D+00  9.39D-01  8.39D-01  6.69D-01
 E= -504.846667910060     Delta-E=       -0.000000037524 Rises=F Damp=F
 DIIS: error= 2.32D-06 at cycle  11 NSaved=  11.
 NSaved=11 IEnMin=11 EnMin= -504.846667910060     IErMin=11 ErrMin= 2.32D-06
 ErrMax= 2.32D-06 EMaxC= 1.00D-01 BMatC= 1.36D-08 BMatP= 1.30D-07
 IDIUse=1 WtCom= 1.00D+00 WtEn= 0.00D+00
 Coeff-Com:  0.537D-04-0.969D-04 0.113D-03 0.388D-03 0.543D-03-0.403D-03
 Coeff-Com: -0.131D-01-0.270D-01 0.634D-02 0.242D+00 0.791D+00
 Coeff:      0.537D-04-0.969D-04 0.113D-03 0.388D-03 0.543D-03-0.403D-03
 Coeff:     -0.131D-01-0.270D-01 0.634D-02 0.242D+00 0.791D+00
 Gap=     0.195 Goal=   None    Shift=    0.000
 Gap=     0.201 Goal=   None    Shift=    0.000
 RMSDP=1.09D-06 MaxDP=9.34D-05 DE=-3.75D-08 OVMax= 1.75D-05

 Cycle  12  Pass 1  IDiag  1:
 RMSU=  4.88D-07    CP:  5.85D-01  3.36D-01  9.04D-01  8.01D-01  1.08D+00
                    CP:  9.13D-01  1.13D+00  9.31D-01  8.32D-01  7.11D-01
                    CP:  9.70D-01
 E= -504.846667914910     Delta-E=       -0.000000004850 Rises=F Damp=F
 DIIS: error= 1.19D-06 at cycle  12 NSaved=  12.
 NSaved=12 IEnMin=12 EnMin= -504.846667914910     IErMin=12 ErrMin= 1.19D-06
 ErrMax= 1.19D-06 EMaxC= 1.00D-01 BMatC= 2.65D-09 BMatP= 1.36D-08
 IDIUse=1 WtCom= 1.00D+00 WtEn= 0.00D+00
 Coeff-Com:  0.103D-04-0.191D-04-0.103D-03 0.135D-04 0.950D-03 0.186D-02
 Coeff-Com:  0.280D-03-0.200D-01-0.394D-01 0.126D-01 0.341D+00 0.703D+00
 Coeff:      0.103D-04-0.191D-04-0.103D-03 0.135D-04 0.950D-03 0.186D-02
 Coeff:      0.280D-03-0.200D-01-0.394D-01 0.126D-01 0.341D+00 0.703D+00
 Gap=     0.195 Goal=   None    Shift=    0.000
 Gap=     0.201 Goal=   None    Shift=    0.000
 RMSDP=5.45D-07 MaxDP=8.09D-05 DE=-4.85D-09 OVMax= 8.33D-06

 Cycle  13  Pass 1  IDiag  1:
 RMSU=  1.41D-07    CP:  5.85D-01  3.36D-01  9.04D-01  8.01D-01  1.08D+00
                    CP:  9.13D-01  1.13D+00  9.26D-01  8.42D-01  7.28D-01
                    CP:  9.96D-01  9.56D-01
 E= -504.846667915932     Delta-E=       -0.000000001023 Rises=F Damp=F
 DIIS: error= 5.65D-07 at cycle  13 NSaved=  13.
 NSaved=13 IEnMin=13 EnMin= -504.846667915932     IErMin=13 ErrMin= 5.65D-07
 ErrMax= 5.65D-07 EMaxC= 1.00D-01 BMatC= 3.49D-10 BMatP= 2.65D-09
 IDIUse=1 WtCom= 1.00D+00 WtEn= 0.00D+00
 Coeff-Com: -0.112D-04 0.191D-04-0.456D-04-0.670D-04 0.174D-03 0.568D-03
 Coeff-Com:  0.236D-02-0.530D-03-0.116D-01-0.400D-01-0.505D-01 0.188D+00
 Coeff-Com:  0.911D+00
 Coeff:     -0.112D-04 0.191D-04-0.456D-04-0.670D-04 0.174D-03 0.568D-03
 Coeff:      0.236D-02-0.530D-03-0.116D-01-0.400D-01-0.505D-01 0.188D+00
 Coeff:      0.911D+00
 Gap=     0.195 Goal=   None    Shift=    0.000
 Gap=     0.201 Goal=   None    Shift=    0.000
 RMSDP=1.86D-07 MaxDP=2.09D-05 DE=-1.02D-09 OVMax= 6.05D-06

 Cycle  14  Pass 1  IDiag  1:
 RMSU=  6.60D-08    CP:  5.85D-01  3.36D-01  9.04D-01  8.01D-01  1.08D+00
                    CP:  9.13D-01  1.13D+00  9.25D-01  8.36D-01  7.25D-01
                    CP:  1.04D+00  1.01D+00  1.03D+00
 E= -504.846667916183     Delta-E=       -0.000000000251 Rises=F Damp=F
 DIIS: error= 2.96D-07 at cycle  14 NSaved=  14.
 NSaved=14 IEnMin=14 EnMin= -504.846667916183     IErMin=14 ErrMin= 2.96D-07
 ErrMax= 2.96D-07 EMaxC= 1.00D-01 BMatC= 6.62D-11 BMatP= 3.49D-10
 IDIUse=1 WtCom= 1.00D+00 WtEn= 0.00D+00
 Coeff-Com: -0.519D-05 0.862D-05 0.129D-04-0.196D-04-0.175D-03-0.313D-03
 Coeff-Com:  0.386D-03 0.438D-02 0.634D-02-0.103D-01-0.828D-01-0.120D+00
 Coeff-Com:  0.173D+00 0.103D+01
 Coeff:     -0.519D-05 0.862D-05 0.129D-04-0.196D-04-0.175D-03-0.313D-03
 Coeff:      0.386D-03 0.438D-02 0.634D-02-0.103D-01-0.828D-01-0.120D+00
 Coeff:      0.173D+00 0.103D+01
 Gap=     0.195 Goal=   None    Shift=    0.000
 Gap=     0.201 Goal=   None    Shift=    0.000
 RMSDP=8.71D-08 MaxDP=1.43D-05 DE=-2.51D-10 OVMax= 4.05D-06

 Cycle  15  Pass 1  IDiag  1:
 RMSU=  3.93D-08    CP:  5.85D-01  3.36D-01  9.04D-01  8.01D-01  1.08D+00
                    CP:  9.13D-01  1.13D+00  9.25D-01  8.37D-01  7.23D-01
                    CP:  1.03D+00  1.04D+00  1.14D+00  1.09D+00
 E= -504.846667916238     Delta-E=       -0.000000000055 Rises=F Damp=F
 DIIS: error= 1.14D-07 at cycle  15 NSaved=  15.
 NSaved=15 IEnMin=15 EnMin= -504.846667916238     IErMin=15 ErrMin= 1.14D-07
 ErrMax= 1.14D-07 EMaxC= 1.00D-01 BMatC= 1.69D-11 BMatP= 6.62D-11
 IDIUse=1 WtCom= 1.00D+00 WtEn= 0.00D+00
 Coeff-Com: -0.459D-06 0.947D-06 0.126D-04 0.323D-05-0.113D-03-0.233D-03
 Coeff-Com: -0.241D-03 0.191D-02 0.463D-02 0.312D-02-0.242D-01-0.829D-01
 Coeff-Com: -0.935D-01 0.415D+00 0.776D+00
 Coeff:     -0.459D-06 0.947D-06 0.126D-04 0.323D-05-0.113D-03-0.233D-03
 Coeff:     -0.241D-03 0.191D-02 0.463D-02 0.312D-02-0.242D-01-0.829D-01
 Coeff:     -0.935D-01 0.415D+00 0.776D+00
 Gap=     0.195 Goal=   None    Shift=    0.000
 Gap=     0.201 Goal=   None    Shift=    0.000
 RMSDP=5.25D-08 MaxDP=8.45D-06 DE=-5.50D-11 OVMax= 1.41D-06

 Cycle  16  Pass 1  IDiag  1:
 RMSU=  1.93D-08    CP:  5.85D-01  3.36D-01  9.04D-01  8.01D-01  1.08D+00
                    CP:  9.13D-01  1.13D+00  9.26D-01  8.37D-01  7.24D-01
                    CP:  1.03D+00  1.04D+00  1.18D+00  1.22D+00  1.07D+00
 E= -504.846667916253     Delta-E=       -0.000000000015 Rises=F Damp=F
 DIIS: error= 3.21D-08 at cycle  16 NSaved=  16.
 NSaved=16 IEnMin=16 EnMin= -504.846667916253     IErMin=16 ErrMin= 3.21D-08
 ErrMax= 3.21D-08 EMaxC= 1.00D-01 BMatC= 2.94D-12 BMatP= 1.69D-11
 IDIUse=1 WtCom= 1.00D+00 WtEn= 0.00D+00
 Coeff-Com:  0.632D-06-0.910D-06 0.267D-05 0.544D-05-0.160D-04-0.361D-04
 Coeff-Com: -0.160D-03-0.428D-04 0.718D-03 0.318D-02 0.561D-02-0.114D-01
 Coeff-Com: -0.722D-01-0.246D-01 0.322D+00 0.777D+00
 Coeff:      0.632D-06-0.910D-06 0.267D-05 0.544D-05-0.160D-04-0.361D-04
 Coeff:     -0.160D-03-0.428D-04 0.718D-03 0.318D-02 0.561D-02-0.114D-01
 Coeff:     -0.722D-01-0.246D-01 0.322D+00 0.777D+00
 Gap=     0.195 Goal=   None    Shift=    0.000
 Gap=     0.201 Goal=   None    Shift=    0.000
 RMSDP=1.47D-08 MaxDP=1.82D-06 DE=-1.48D-11 OVMax= 5.31D-07

 Cycle  17  Pass 1  IDiag  1:
 RMSU=  4.96D-09    CP:  5.85D-01  3.36D-01  9.04D-01  8.01D-01  1.08D+00
                    CP:  9.13D-01  1.13D+00  9.26D-01  8.37D-01  7.24D-01
                    CP:  1.03D+00  1.04D+00  1.19D+00  1.27D+00  1.15D+00
                    CP:  8.74D-01
 E= -504.846667916253     Delta-E=        0.000000000000 Rises=F Damp=F
 DIIS: error= 8.97D-09 at cycle  17 NSaved=  17.
 NSaved=17 IEnMin=17 EnMin= -504.846667916253     IErMin=17 ErrMin= 8.97D-09
 ErrMax= 8.97D-09 EMaxC= 1.00D-01 BMatC= 2.29D-13 BMatP= 2.94D-12
 IDIUse=1 WtCom= 1.00D+00 WtEn= 0.00D+00
 Coeff-Com:  0.197D-06-0.309D-06-0.688D-06 0.953D-06 0.952D-05 0.181D-04
 Coeff-Com: -0.113D-04-0.239D-03-0.353D-03 0.438D-03 0.417D-02 0.690D-02
 Coeff-Com: -0.769D-02-0.541D-01-0.880D-02 0.197D+00 0.863D+00
 Coeff:      0.197D-06-0.309D-06-0.688D-06 0.953D-06 0.952D-05 0.181D-04
 Coeff:     -0.113D-04-0.239D-03-0.353D-03 0.438D-03 0.417D-02 0.690D-02
 Coeff:     -0.769D-02-0.541D-01-0.880D-02 0.197D+00 0.863D+00
 Gap=     0.195 Goal=   None    Shift=    0.000
 Gap=     0.201 Goal=   None    Shift=    0.000
 RMSDP=4.12D-09 MaxDP=3.74D-07 DE=-4.55D-13 OVMax= 1.39D-07

 SCF Done:  E(UB3LYP) =  -504.846667916     A.U. after   17 cycles
             Convg  =    0.4124D-08             -V/T =  2.0045
 <Sx>= 0.0000 <Sy>= 0.0000 <Sz>= 0.5000 <S**2>= 0.7538 S= 0.5019
 <L.S>= 0.000000000000E+00
 KE= 5.025968508721D+02 PE=-2.496826604694D+03 EE= 8.289930949203D+02
 Annihilation of the first spin contaminant:
 S**2 before annihilation     0.7538,   after     0.7500
 Leave Link  502 at Sun Feb  9 08:15:41 2014, MaxMem= 4026531840 cpu:    1820.7
 (Enter /usr/caen/gaussian-09revc/g09/l601.exe)
 Copying SCF densities to generalized density rwf, IOpCl= 1 IROHF=0.

 **********************************************************************

            Population analysis using the SCF density.

 **********************************************************************

 Orbital symmetries:
 Alpha Orbitals:
       Occupied  (A) (A) (A) (A) (A) (A) (A) (A) (A) (A) (A) (A)
                 (A) (A) (A) (A) (A) (A) (A) (A) (A) (A) (A) (A)
                 (A) (A) (A) (A) (A) (A) (A) (A) (A) (A) (A) (A)
                 (A) (A) (A) (A) (A) (A) (A) (A) (A)
       Virtual   (A) (A) (A) (A) (A) (A) (A) (A) (A) (A) (A) (A)
                 (A) (A) (A) (A) (A) (A) (A) (A) (A) (A) (A) (A)
                 (A) (A) (A) (A) (A) (A) (A) (A) (A) (A) (A) (A)
                 (A) (A) (A) (A) (A) (A) (A) (A) (A) (A) (A) (A)
                 (A) (A) (A) (A) (A) (A) (A) (A) (A) (A) (A) (A)
                 (A) (A) (A) (A) (A) (A) (A) (A) (A) (A) (A) (A)
                 (A) (A) (A) (A) (A) (A) (A) (A) (A) (A) (A) (A)
                 (A) (A) (A) (A) (A) (A) (A) (A) (A) (A) (A) (A)
                 (A) (A) (A) (A) (A) (A) (A) (A) (A) (A) (A) (A)
                 (A) (A) (A) (A) (A) (A) (A) (A) (A) (A) (A) (A)
                 (A) (A) (A) (A) (A) (A) (A) (A) (A) (A) (A) (A)
                 (A) (A) (A) (A) (A) (A) (A) (A) (A) (A) (A) (A)
                 (A) (A) (A) (A) (A) (A) (A) (A) (A) (A) (A) (A)
                 (A) (A) (A) (A) (A) (A) (A) (A) (A) (A) (A) (A)
                 (A) (A) (A) (A) (A) (A) (A) (A) (A) (A) (A) (A)
                 (A) (A) (A) (A) (A) (A) (A) (A) (A) (A) (A) (A)
                 (A) (A) (A) (A) (A) (A) (A) (A) (A) (A) (A) (A)
                 (A) (A) (A) (A) (A) (A) (A) (A) (A) (A) (A) (A)
                 (A) (A) (A) (A) (A) (A) (A) (A) (A) (A) (A) (A)
                 (A) (A) (A) (A) (A) (A) (A) (A) (A) (A) (A) (A)
                 (A) (A) (A) (A) (A) (A) (A) (A) (A) (A) (A) (A)
                 (A) (A) (A) (A) (A) (A) (A) (A) (A) (A) (A) (A)
                 (A) (A) (A) (A) (A) (A) (A) (A) (A) (A) (A) (A)
                 (A) (A) (A) (A) (A) (A) (A) (A) (A) (A) (A) (A)
                 (A) (A) (A) (A) (A) (A) (A) (A) (A) (A) (A) (A)
                 (A) (A) (A) (A) (A) (A) (A) (A) (A) (A) (A) (A)
                 (A) (A) (A) (A) (A) (A) (A) (A) (A) (A) (A) (A)
                 (A) (A) (A) (A) (A) (A)
 Beta  Orbitals:
       Occupied  (A) (A) (A) (A) (A) (A) (A) (A) (A) (A) (A) (A)
                 (A) (A) (A) (A) (A) (A) (A) (A) (A) (A) (A) (A)
                 (A) (A) (A) (A) (A) (A) (A) (A) (A) (A) (A) (A)
                 (A) (A) (A) (A) (A) (A) (A) (A)
       Virtual   (A) (A) (A) (A) (A) (A) (A) (A) (A) (A) (A) (A)
                 (A) (A) (A) (A) (A) (A) (A) (A) (A) (A) (A) (A)
                 (A) (A) (A) (A) (A) (A) (A) (A) (A) (A) (A) (A)
                 (A) (A) (A) (A) (A) (A) (A) (A) (A) (A) (A) (A)
                 (A) (A) (A) (A) (A) (A) (A) (A) (A) (A) (A) (A)
                 (A) (A) (A) (A) (A) (A) (A) (A) (A) (A) (A) (A)
                 (A) (A) (A) (A) (A) (A) (A) (A) (A) (A) (A) (A)
                 (A) (A) (A) (A) (A) (A) (A) (A) (A) (A) (A) (A)
                 (A) (A) (A) (A) (A) (A) (A) (A) (A) (A) (A) (A)
                 (A) (A) (A) (A) (A) (A) (A) (A) (A) (A) (A) (A)
                 (A) (A) (A) (A) (A) (A) (A) (A) (A) (A) (A) (A)
                 (A) (A) (A) (A) (A) (A) (A) (A) (A) (A) (A) (A)
                 (A) (A) (A) (A) (A) (A) (A) (A) (A) (A) (A) (A)
                 (A) (A) (A) (A) (A) (A) (A) (A) (A) (A) (A) (A)
                 (A) (A) (A) (A) (A) (A) (A) (A) (A) (A) (A) (A)
                 (A) (A) (A) (A) (A) (A) (A) (A) (A) (A) (A) (A)
                 (A) (A) (A) (A) (A) (A) (A) (A) (A) (A) (A) (A)
                 (A) (A) (A) (A) (A) (A) (A) (A) (A) (A) (A) (A)
                 (A) (A) (A) (A) (A) (A) (A) (A) (A) (A) (A) (A)
                 (A) (A) (A) (A) (A) (A) (A) (A) (A) (A) (A) (A)
                 (A) (A) (A) (A) (A) (A) (A) (A) (A) (A) (A) (A)
                 (A) (A) (A) (A) (A) (A) (A) (A) (A) (A) (A) (A)
                 (A) (A) (A) (A) (A) (A) (A) (A) (A) (A) (A) (A)
                 (A) (A) (A) (A) (A) (A) (A) (A) (A) (A) (A) (A)
                 (A) (A) (A) (A) (A) (A) (A) (A) (A) (A) (A) (A)
                 (A) (A) (A) (A) (A) (A) (A) (A) (A) (A) (A) (A)
                 (A) (A) (A) (A) (A) (A) (A) (A) (A) (A) (A) (A)
                 (A) (A) (A) (A) (A) (A) (A)
 The electronic state is 2-A.
 Alpha  occ. eigenvalues --  -19.17862 -19.17758 -10.22442 -10.18215 -10.17921
 Alpha  occ. eigenvalues --  -10.17544 -10.16950 -10.16617 -10.16602 -10.16319
 Alpha  occ. eigenvalues --  -10.16092  -1.11968  -0.92129  -0.81840  -0.80513
 Alpha  occ. eigenvalues --   -0.75095  -0.69286  -0.67960  -0.67077  -0.60761
 Alpha  occ. eigenvalues --   -0.57470  -0.56031  -0.54171  -0.49153  -0.47044
 Alpha  occ. eigenvalues --   -0.45992  -0.45314  -0.44484  -0.42736  -0.41431
 Alpha  occ. eigenvalues --   -0.40671  -0.40229  -0.39553  -0.38759  -0.37776
 Alpha  occ. eigenvalues --   -0.36622  -0.35244  -0.35081  -0.33844  -0.33611
 Alpha  occ. eigenvalues --   -0.33092  -0.32325  -0.30540  -0.26567  -0.20794
 Alpha virt. eigenvalues --   -0.01304  -0.00838   0.00107   0.00431   0.01126
 Alpha virt. eigenvalues --    0.01792   0.02303   0.02413   0.03408   0.03909
 Alpha virt. eigenvalues --    0.04396   0.04513   0.05231   0.05402   0.05868
 Alpha virt. eigenvalues --    0.06820   0.07178   0.07693   0.07950   0.08448
 Alpha virt. eigenvalues --    0.08613   0.08958   0.10020   0.10368   0.10841
 Alpha virt. eigenvalues --    0.11177   0.11400   0.12156   0.12308   0.12514
 Alpha virt. eigenvalues --    0.12958   0.13119   0.13312   0.13713   0.14181
 Alpha virt. eigenvalues --    0.14294   0.14433   0.15090   0.15411   0.15461
 Alpha virt. eigenvalues --    0.15921   0.16445   0.16644   0.16903   0.17203
 Alpha virt. eigenvalues --    0.17632   0.17758   0.18334   0.18436   0.19314
 Alpha virt. eigenvalues --    0.19513   0.19908   0.20342   0.20362   0.21423
 Alpha virt. eigenvalues --    0.21522   0.22176   0.22409   0.22503   0.23142
 Alpha virt. eigenvalues --    0.23591   0.23929   0.24318   0.24647   0.25798
 Alpha virt. eigenvalues --    0.25990   0.26338   0.26775   0.27275   0.28199
 Alpha virt. eigenvalues --    0.28887   0.29400   0.29919   0.30491   0.31404
 Alpha virt. eigenvalues --    0.31727   0.32341   0.33276   0.33415   0.33514
 Alpha virt. eigenvalues --    0.34406   0.34661   0.35128   0.35456   0.36993
 Alpha virt. eigenvalues --    0.38908   0.39262   0.40085   0.41268   0.41941
 Alpha virt. eigenvalues --    0.42305   0.44528   0.44882   0.46263   0.46816
 Alpha virt. eigenvalues --    0.48046   0.49759   0.50696   0.52036   0.53560
 Alpha virt. eigenvalues --    0.54032   0.54698   0.55672   0.56173   0.56652
 Alpha virt. eigenvalues --    0.58083   0.59564   0.60461   0.61456   0.62336
 Alpha virt. eigenvalues --    0.63049   0.64743   0.65514   0.65780   0.66376
 Alpha virt. eigenvalues --    0.66582   0.68053   0.68246   0.68926   0.69998
 Alpha virt. eigenvalues --    0.70132   0.70860   0.71118   0.72336   0.73677
 Alpha virt. eigenvalues --    0.74611   0.74916   0.75232   0.76727   0.77349
 Alpha virt. eigenvalues --    0.78039   0.78469   0.78917   0.80246   0.80926
 Alpha virt. eigenvalues --    0.81616   0.82113   0.86780   0.88904   0.92847
 Alpha virt. eigenvalues --    0.94437   0.96600   0.98305   0.99360   1.01993
 Alpha virt. eigenvalues --    1.04013   1.04532   1.06364   1.07652   1.09495
 Alpha virt. eigenvalues --    1.10834   1.12789   1.15520   1.16963   1.17977
 Alpha virt. eigenvalues --    1.20156   1.20987   1.23667   1.27123   1.27830
 Alpha virt. eigenvalues --    1.29482   1.32843   1.33322   1.36768   1.38357
 Alpha virt. eigenvalues --    1.43304   1.44687   1.45143   1.46331   1.47124
 Alpha virt. eigenvalues --    1.47357   1.48804   1.49632   1.50654   1.51651
 Alpha virt. eigenvalues --    1.52518   1.54761   1.55715   1.55823   1.57197
 Alpha virt. eigenvalues --    1.58080   1.58987   1.60077   1.60613   1.61982
 Alpha virt. eigenvalues --    1.62657   1.63623   1.63944   1.65193   1.65899
 Alpha virt. eigenvalues --    1.67744   1.68301   1.69944   1.70950   1.71379
 Alpha virt. eigenvalues --    1.73345   1.73688   1.74212   1.76285   1.77896
 Alpha virt. eigenvalues --    1.79036   1.80219   1.80810   1.82329   1.83115
 Alpha virt. eigenvalues --    1.84693   1.86913   1.87739   1.88536   1.91961
 Alpha virt. eigenvalues --    1.94811   1.98038   2.00362   2.00899   2.01121
 Alpha virt. eigenvalues --    2.03924   2.05561   2.06991   2.09519   2.10892
 Alpha virt. eigenvalues --    2.12744   2.13926   2.16112   2.16374   2.19482
 Alpha virt. eigenvalues --    2.20215   2.21090   2.23902   2.24229   2.27690
 Alpha virt. eigenvalues --    2.31529   2.33173   2.34429   2.35929   2.38640
 Alpha virt. eigenvalues --    2.40041   2.42555   2.47126   2.47528   2.49327
 Alpha virt. eigenvalues --    2.49558   2.49825   2.51000   2.53543   2.53996
 Alpha virt. eigenvalues --    2.54087   2.55538   2.56388   2.56727   2.57777
 Alpha virt. eigenvalues --    2.59594   2.59760   2.61214   2.61604   2.64133
 Alpha virt. eigenvalues --    2.65454   2.65718   2.67549   2.68149   2.69456
 Alpha virt. eigenvalues --    2.70654   2.71185   2.72255   2.75190   2.75446
 Alpha virt. eigenvalues --    2.76131   2.77910   2.80528   2.83028   2.85548
 Alpha virt. eigenvalues --    2.86388   2.87492   2.90800   2.91751   2.93825
 Alpha virt. eigenvalues --    2.95050   2.96312   2.96841   3.00939   3.01358
 Alpha virt. eigenvalues --    3.04976   3.06881   3.09416   3.11785   3.14154
 Alpha virt. eigenvalues --    3.16737   3.20031   3.20922   3.27425   3.33961
 Alpha virt. eigenvalues --    3.38207   3.50032   3.55336   3.72040   3.75350
 Alpha virt. eigenvalues --    3.77984   3.79295   3.79583   3.81087   3.81680
 Alpha virt. eigenvalues --    3.83116   3.83863   3.86171   3.88398   3.93703
 Alpha virt. eigenvalues --    4.00771   4.02835   4.13419   4.21830   4.24549
 Alpha virt. eigenvalues --    4.28397   4.31566   4.39913   4.90728   5.05028
 Alpha virt. eigenvalues --    5.13890   5.38499   5.51482   5.69932  23.80547
 Alpha virt. eigenvalues --   23.84549  23.84763  23.87474  23.91718  23.93192
 Alpha virt. eigenvalues --   23.97664  23.97915  23.98501  49.86381  49.91461
  Beta  occ. eigenvalues --  -19.17861 -19.17756 -10.22442 -10.18215 -10.17997
  Beta  occ. eigenvalues --  -10.16940 -10.16617 -10.16602 -10.16293 -10.16161
  Beta  occ. eigenvalues --  -10.15941  -1.11965  -0.92124  -0.81445  -0.80330
  Beta  occ. eigenvalues --   -0.74762  -0.69278  -0.67288  -0.65440  -0.60522
  Beta  occ. eigenvalues --   -0.57408  -0.55425  -0.54101  -0.49079  -0.46754
  Beta  occ. eigenvalues --   -0.45895  -0.45218  -0.44369  -0.42438  -0.41225
  Beta  occ. eigenvalues --   -0.40386  -0.40124  -0.39219  -0.38651  -0.37416
  Beta  occ. eigenvalues --   -0.36484  -0.35118  -0.35004  -0.33705  -0.33268
  Beta  occ. eigenvalues --   -0.32875  -0.32227  -0.30515  -0.26559
  Beta virt. eigenvalues --   -0.06430  -0.01301  -0.00802   0.00252   0.00435
  Beta virt. eigenvalues --    0.01143   0.01954   0.02350   0.02430   0.03401
  Beta virt. eigenvalues --    0.03907   0.04398   0.04572   0.05230   0.05443
  Beta virt. eigenvalues --    0.05958   0.06877   0.07241   0.07689   0.07954
  Beta virt. eigenvalues --    0.08447   0.08630   0.09081   0.10045   0.10449
  Beta virt. eigenvalues --    0.10911   0.11350   0.11501   0.12228   0.12325
  Beta virt. eigenvalues --    0.12552   0.12986   0.13212   0.13395   0.13822
  Beta virt. eigenvalues --    0.14234   0.14378   0.14503   0.15162   0.15447
  Beta virt. eigenvalues --    0.15499   0.16060   0.16584   0.16664   0.16988
  Beta virt. eigenvalues --    0.17314   0.17666   0.17786   0.18431   0.18522
  Beta virt. eigenvalues --    0.19356   0.19574   0.20021   0.20361   0.20521
  Beta virt. eigenvalues --    0.21447   0.21605   0.22235   0.22478   0.22527
  Beta virt. eigenvalues --    0.23319   0.23642   0.24073   0.24456   0.24861
  Beta virt. eigenvalues --    0.25852   0.26146   0.26723   0.26946   0.27297
  Beta virt. eigenvalues --    0.28436   0.29243   0.29509   0.29968   0.30595
  Beta virt. eigenvalues --    0.31446   0.31803   0.32504   0.33415   0.33456
  Beta virt. eigenvalues --    0.33678   0.34472   0.34695   0.35167   0.35606
  Beta virt. eigenvalues --    0.37094   0.38975   0.39304   0.40286   0.41300
  Beta virt. eigenvalues --    0.41950   0.42394   0.44631   0.44948   0.46272
  Beta virt. eigenvalues --    0.47278   0.48068   0.49883   0.50789   0.52139
  Beta virt. eigenvalues --    0.53844   0.54156   0.54748   0.55894   0.56285
  Beta virt. eigenvalues --    0.56724   0.58212   0.59922   0.60595   0.61683
  Beta virt. eigenvalues --    0.62742   0.64590   0.65138   0.65719   0.66027
  Beta virt. eigenvalues --    0.66700   0.67260   0.68212   0.68353   0.69305
  Beta virt. eigenvalues --    0.70159   0.70525   0.70987   0.71360   0.72672
  Beta virt. eigenvalues --    0.73944   0.74778   0.74992   0.75340   0.76828
  Beta virt. eigenvalues --    0.77673   0.78106   0.78530   0.78995   0.80494
  Beta virt. eigenvalues --    0.81215   0.81705   0.82282   0.87726   0.89137
  Beta virt. eigenvalues --    0.93577   0.94648   0.96898   0.98631   0.99457
  Beta virt. eigenvalues --    1.02300   1.04072   1.04919   1.06844   1.07779
  Beta virt. eigenvalues --    1.09567   1.11953   1.12875   1.16032   1.16979
  Beta virt. eigenvalues --    1.17991   1.20333   1.21131   1.23835   1.27863
  Beta virt. eigenvalues --    1.28341   1.29608   1.32868   1.33381   1.37042
  Beta virt. eigenvalues --    1.38523   1.43324   1.44747   1.45149   1.46353
  Beta virt. eigenvalues --    1.47198   1.47402   1.49213   1.49951   1.50878
  Beta virt. eigenvalues --    1.51845   1.52612   1.55152   1.55792   1.56326
  Beta virt. eigenvalues --    1.57220   1.58370   1.59090   1.60459   1.60694
  Beta virt. eigenvalues --    1.62659   1.62788   1.63742   1.64176   1.65247
  Beta virt. eigenvalues --    1.66058   1.68170   1.68344   1.70025   1.71000
  Beta virt. eigenvalues --    1.71890   1.73498   1.73924   1.74331   1.77644
  Beta virt. eigenvalues --    1.78145   1.79208   1.80336   1.80917   1.82393
  Beta virt. eigenvalues --    1.83377   1.85476   1.87346   1.88142   1.88696
  Beta virt. eigenvalues --    1.92321   1.95138   1.98136   2.00840   2.01060
  Beta virt. eigenvalues --    2.02408   2.04227   2.05706   2.07466   2.09617
  Beta virt. eigenvalues --    2.11092   2.12935   2.14158   2.16182   2.16608
  Beta virt. eigenvalues --    2.19936   2.20404   2.21386   2.24024   2.24377
  Beta virt. eigenvalues --    2.27964   2.31575   2.33324   2.34538   2.35975
  Beta virt. eigenvalues --    2.38654   2.40250   2.42604   2.47323   2.47548
  Beta virt. eigenvalues --    2.49450   2.49617   2.49841   2.51019   2.53652
  Beta virt. eigenvalues --    2.54057   2.54186   2.55651   2.56459   2.57045
  Beta virt. eigenvalues --    2.57921   2.59742   2.59978   2.61262   2.61761
  Beta virt. eigenvalues --    2.64224   2.65494   2.65900   2.67757   2.68493
  Beta virt. eigenvalues --    2.69640   2.70890   2.71223   2.72295   2.75257
  Beta virt. eigenvalues --    2.75737   2.76358   2.78027   2.80598   2.83411
  Beta virt. eigenvalues --    2.85857   2.86530   2.87847   2.91742   2.92301
  Beta virt. eigenvalues --    2.93909   2.95558   2.96765   2.98061   3.00997
  Beta virt. eigenvalues --    3.02014   3.05033   3.07239   3.09495   3.11806
  Beta virt. eigenvalues --    3.14224   3.17462   3.20073   3.20968   3.27475
  Beta virt. eigenvalues --    3.34011   3.38245   3.50310   3.55354   3.72050
  Beta virt. eigenvalues --    3.77174   3.77988   3.79550   3.79604   3.81219
  Beta virt. eigenvalues --    3.81693   3.83123   3.83888   3.86241   3.88403
  Beta virt. eigenvalues --    3.93708   4.01041   4.02842   4.13540   4.22809
  Beta virt. eigenvalues --    4.24644   4.28402   4.31628   4.40047   4.90730
  Beta virt. eigenvalues --    5.05030   5.13893   5.38502   5.51485   5.69934
  Beta virt. eigenvalues --   23.80551  23.84551  23.84771  23.88547  23.91977
  Beta virt. eigenvalues --   23.93377  23.97829  23.97931  23.98502  49.86382
  Beta virt. eigenvalues --   49.91463
          Condensed to atoms (all electrons):
              1          2          3          4          5          6
     1  C    6.029931   0.316865   0.353521   0.461454  -0.554839  -0.065283
     2  H    0.316865   0.608576  -0.038663  -0.033909  -0.005638  -0.005454
     3  H    0.353521  -0.038663   0.546523  -0.039545   0.118089   0.013360
     4  H    0.461454  -0.033909  -0.039545   0.588086  -0.211782  -0.020480
     5  C   -0.554839  -0.005638   0.118089  -0.211782   9.460471   0.593804
     6  H   -0.065283  -0.005454   0.013360  -0.020480   0.593804   0.573510
     7  C   -0.262338   0.068754  -0.023230  -0.012964  -0.450095  -0.116333
     8  H   -0.007388   0.000400   0.000592   0.002128  -0.039283   0.006296
     9  H    0.011355  -0.003457  -0.000783   0.000415   0.176217   0.005175
    10  C   -0.022965  -0.011055  -0.004714   0.009511  -0.239534  -0.019503
    11  H   -0.008188   0.000270   0.001230  -0.000814  -0.010810   0.001628
    12  H    0.000787   0.000716  -0.000661   0.000137   0.016529  -0.001050
    13  C   -0.015187   0.003220  -0.001664   0.000037  -0.242217  -0.011916
    14  H   -0.001001   0.000013   0.000082  -0.000117  -0.007381   0.000657
    15  C   -0.002136  -0.000328  -0.000053   0.000011   0.009125   0.000257
    16  H    0.000292  -0.000034  -0.000029   0.000027  -0.000645  -0.000053
    17  H   -0.000086   0.000010  -0.000012   0.000004  -0.001002  -0.000116
    18  H   -0.000096   0.000020   0.000034  -0.000021   0.001507   0.000023
    19  C   -0.264079   0.032102  -0.040151   0.010641  -0.329678  -0.138122
    20  H   -0.008682  -0.000166   0.012816  -0.000853   0.004574   0.007614
    21  H   -0.018978  -0.001425   0.004157  -0.001884   0.030673  -0.003761
    22  H    0.022709  -0.001567  -0.004824   0.004585  -0.147900  -0.018737
    23  C    0.003339   0.000048  -0.000204   0.000157   0.025965  -0.002062
    24  H    0.000192  -0.000039   0.000015  -0.000001   0.001187   0.000152
    25  H   -0.000306   0.000131  -0.000048  -0.000013  -0.005815  -0.000393
    26  C    0.517710  -0.076162  -0.052768   0.087604  -2.260185   0.019426
    27  H    0.051025   0.002520   0.002898   0.001119  -0.094481   0.023138
    28  O    0.029963   0.029492  -0.005783  -0.000772  -0.334931  -0.007174
    29  O    0.033807  -0.017449  -0.009055   0.009162  -0.076811  -0.008258
    30  H    0.032300  -0.001265  -0.003666   0.001600  -0.025035   0.002631
              7          8          9         10         11         12
     1  C   -0.262338  -0.007388   0.011355  -0.022965  -0.008188   0.000787
     2  H    0.068754   0.000400  -0.003457  -0.011055   0.000270   0.000716
     3  H   -0.023230   0.000592  -0.000783  -0.004714   0.001230  -0.000661
     4  H   -0.012964   0.002128   0.000415   0.009511  -0.000814   0.000137
     5  C   -0.450095  -0.039283   0.176217  -0.239534  -0.010810   0.016529
     6  H   -0.116333   0.006296   0.005175  -0.019503   0.001628  -0.001050
     7  C    9.373698   0.567855   0.343587  -1.819221  -0.076199  -0.118168
     8  H    0.567855   0.573084  -0.069437  -0.071979   0.012302  -0.005810
     9  H    0.343587  -0.069437   0.664299  -0.128245  -0.014393   0.012571
    10  C   -1.819221  -0.071979  -0.128245   9.191490   0.375644   0.541039
    11  H   -0.076199   0.012302  -0.014393   0.375644   0.611059  -0.050173
    12  H   -0.118168  -0.005810   0.012571   0.541039  -0.050173   0.550743
    13  C    0.688857   0.077506  -0.045466  -1.616018   0.126017  -0.145570
    14  H   -0.029956   0.011306   0.000127  -0.129641   0.028355  -0.018306
    15  C   -0.268786  -0.001078   0.008840   0.264317   0.018367   0.026857
    16  H   -0.012158   0.000967   0.000569  -0.069777   0.004855   0.001325
    17  H    0.003220   0.001180  -0.000478   0.037532  -0.001861  -0.001110
    18  H    0.016682  -0.001291  -0.000185  -0.022891   0.002839   0.003190
    19  C    0.585358   0.003617  -0.047019   0.146830   0.001681   0.000235
    20  H    0.017030   0.005100  -0.006136  -0.006308   0.000281  -0.000521
    21  H   -0.005751  -0.002611   0.003077  -0.001111   0.000579   0.000226
    22  H    0.051558   0.007285  -0.016840   0.039749  -0.000175  -0.000599
    23  C    0.197904  -0.004288   0.013461   0.349589  -0.113032   0.022954
    24  H   -0.002505  -0.001975   0.003306   0.025270  -0.004659  -0.000037
    25  H    0.018885   0.002720  -0.000303  -0.061290   0.009586  -0.001626
    26  C   -2.056575  -0.240950  -0.057410   0.067914  -0.034465  -0.003192
    27  H   -0.131065  -0.001525   0.009678  -0.132942  -0.003305  -0.003095
    28  O   -0.309832  -0.024468   0.035599   0.037079  -0.010513   0.008440
    29  O    0.028315   0.011923  -0.012255   0.111876   0.004442  -0.002740
    30  H   -0.013567  -0.001471   0.000475   0.002465   0.000634  -0.000106
             13         14         15         16         17         18
     1  C   -0.015187  -0.001001  -0.002136   0.000292  -0.000086  -0.000096
     2  H    0.003220   0.000013  -0.000328  -0.000034   0.000010   0.000020
     3  H   -0.001664   0.000082  -0.000053  -0.000029  -0.000012   0.000034
     4  H    0.000037  -0.000117   0.000011   0.000027   0.000004  -0.000021
     5  C   -0.242217  -0.007381   0.009125  -0.000645  -0.001002   0.001507
     6  H   -0.011916   0.000657   0.000257  -0.000053  -0.000116   0.000023
     7  C    0.688857  -0.029956  -0.268786  -0.012158   0.003220   0.016682
     8  H    0.077506   0.011306  -0.001078   0.000967   0.001180  -0.001291
     9  H   -0.045466   0.000127   0.008840   0.000569  -0.000478  -0.000185
    10  C   -1.616018  -0.129641   0.264317  -0.069777   0.037532  -0.022891
    11  H    0.126017   0.028355   0.018367   0.004855  -0.001861   0.002839
    12  H   -0.145570  -0.018306   0.026857   0.001325  -0.001110   0.003190
    13  C    7.403682   0.607439  -0.046325   0.062749  -0.057508  -0.040409
    14  H    0.607439   0.611522  -0.053898   0.014260  -0.009283  -0.010255
    15  C   -0.046325  -0.053898   5.769805   0.390000   0.389809   0.372954
    16  H    0.062749   0.014260   0.390000   0.562879  -0.028665  -0.047904
    17  H   -0.057508  -0.009283   0.389809  -0.028665   0.551792  -0.021417
    18  H   -0.040409  -0.010255   0.372954  -0.047904  -0.021417   0.586271
    19  C    0.034233   0.000524   0.003520  -0.000163   0.000260  -0.000113
    20  H    0.003545  -0.000149  -0.000180  -0.000027   0.000023   0.000024
    21  H   -0.002297  -0.000032   0.000261  -0.000024  -0.000007   0.000009
    22  H   -0.009505  -0.000548   0.000143  -0.000013  -0.000021   0.000081
    23  C   -0.548018  -0.183730  -0.163895  -0.024362  -0.019257   0.029929
    24  H   -0.048829  -0.006267  -0.008919   0.000842  -0.000450   0.000079
    25  H    0.067749   0.012222  -0.004605   0.007377   0.001244  -0.002228
    26  C   -0.859742  -0.000469  -0.072204  -0.001859  -0.007492   0.005698
    27  H   -0.000867   0.000285  -0.008195   0.001074  -0.000175  -0.001109
    28  O   -0.016101  -0.002004   0.005102   0.000593   0.000049  -0.000755
    29  O    0.006275   0.000530   0.001275  -0.000072   0.000096   0.000023
    30  H   -0.002418  -0.000071  -0.000002  -0.000028  -0.000018   0.000104
             19         20         21         22         23         24
     1  C   -0.264079  -0.008682  -0.018978   0.022709   0.003339   0.000192
     2  H    0.032102  -0.000166  -0.001425  -0.001567   0.000048  -0.000039
     3  H   -0.040151   0.012816   0.004157  -0.004824  -0.000204   0.000015
     4  H    0.010641  -0.000853  -0.001884   0.004585   0.000157  -0.000001
     5  C   -0.329678   0.004574   0.030673  -0.147900   0.025965   0.001187
     6  H   -0.138122   0.007614  -0.003761  -0.018737  -0.002062   0.000152
     7  C    0.585358   0.017030  -0.005751   0.051558   0.197904  -0.002505
     8  H    0.003617   0.005100  -0.002611   0.007285  -0.004288  -0.001975
     9  H   -0.047019  -0.006136   0.003077  -0.016840   0.013461   0.003306
    10  C    0.146830  -0.006308  -0.001111   0.039749   0.349589   0.025270
    11  H    0.001681   0.000281   0.000579  -0.000175  -0.113032  -0.004659
    12  H    0.000235  -0.000521   0.000226  -0.000599   0.022954  -0.000037
    13  C    0.034233   0.003545  -0.002297  -0.009505  -0.548018  -0.048829
    14  H    0.000524  -0.000149  -0.000032  -0.000548  -0.183730  -0.006267
    15  C    0.003520  -0.000180   0.000261   0.000143  -0.163895  -0.008919
    16  H   -0.000163  -0.000027  -0.000024  -0.000013  -0.024362   0.000842
    17  H    0.000260   0.000023  -0.000007  -0.000021  -0.019257  -0.000450
    18  H   -0.000113   0.000024   0.000009   0.000081   0.029929   0.000079
    19  C    5.912497   0.388686   0.381334   0.447560   0.003966  -0.000538
    20  H    0.388686   0.547568  -0.032640  -0.034072   0.000998   0.000004
    21  H    0.381334  -0.032640   0.565559  -0.024629   0.000013   0.000045
    22  H    0.447560  -0.034072  -0.024629   0.601889   0.000926   0.000000
    23  C    0.003966   0.000998   0.000013   0.000926   6.200044   0.410556
    24  H   -0.000538   0.000004   0.000045   0.000000   0.410556   0.529452
    25  H    0.001268   0.000221  -0.000232  -0.001548   0.318592  -0.032005
    26  C   -0.345786  -0.057926  -0.022022  -0.034795   0.010937   0.005890
    27  H   -0.117589   0.013430  -0.009767  -0.014357  -0.000641  -0.000041
    28  O    0.013840  -0.000831  -0.004024  -0.000466   0.001907   0.000084
    29  O    0.022903  -0.000468  -0.000114   0.002506  -0.000872  -0.000019
    30  H   -0.002071   0.000973  -0.000567   0.000148   0.000296   0.000004
             25         26         27         28         29         30
     1  C   -0.000306   0.517710   0.051025   0.029963   0.033807   0.032300
     2  H    0.000131  -0.076162   0.002520   0.029492  -0.017449  -0.001265
     3  H   -0.000048  -0.052768   0.002898  -0.005783  -0.009055  -0.003666
     4  H   -0.000013   0.087604   0.001119  -0.000772   0.009162   0.001600
     5  C   -0.005815  -2.260185  -0.094481  -0.334931  -0.076811  -0.025035
     6  H   -0.000393   0.019426   0.023138  -0.007174  -0.008258   0.002631
     7  C    0.018885  -2.056575  -0.131065  -0.309832   0.028315  -0.013567
     8  H    0.002720  -0.240950  -0.001525  -0.024468   0.011923  -0.001471
     9  H   -0.000303  -0.057410   0.009678   0.035599  -0.012255   0.000475
    10  C   -0.061290   0.067914  -0.132942   0.037079   0.111876   0.002465
    11  H    0.009586  -0.034465  -0.003305  -0.010513   0.004442   0.000634
    12  H   -0.001626  -0.003192  -0.003095   0.008440  -0.002740  -0.000106
    13  C    0.067749  -0.859742  -0.000867  -0.016101   0.006275  -0.002418
    14  H    0.012222  -0.000469   0.000285  -0.002004   0.000530  -0.000071
    15  C   -0.004605  -0.072204  -0.008195   0.005102   0.001275  -0.000002
    16  H    0.007377  -0.001859   0.001074   0.000593  -0.000072  -0.000028
    17  H    0.001244  -0.007492  -0.000175   0.000049   0.000096  -0.000018
    18  H   -0.002228   0.005698  -0.001109  -0.000755   0.000023   0.000104
    19  C    0.001268  -0.345786  -0.117589   0.013840   0.022903  -0.002071
    20  H    0.000221  -0.057926   0.013430  -0.000831  -0.000468   0.000973
    21  H   -0.000232  -0.022022  -0.009767  -0.004024  -0.000114  -0.000567
    22  H   -0.001548  -0.034795  -0.014357  -0.000466   0.002506   0.000148
    23  C    0.318592   0.010937  -0.000641   0.001907  -0.000872   0.000296
    24  H   -0.032005   0.005890  -0.000041   0.000084  -0.000019   0.000004
    25  H    0.550916  -0.019909   0.000957  -0.000298   0.000043  -0.000043
    26  C   -0.019909  10.690577   0.631488   0.574673  -0.022613   0.019163
    27  H    0.000957   0.631488   0.631377  -0.010465  -0.042073  -0.008190
    28  O   -0.000298   0.574673  -0.010465   8.006491   0.018322  -0.027992
    29  O    0.000043  -0.022613  -0.042073   0.018322   7.903942   0.222975
    30  H   -0.000043   0.019163  -0.008190  -0.027992   0.222975   0.560580
 Mulliken atomic charges:
              1
     1  C   -0.633697
     2  H    0.133472
     3  H    0.172535
     4  H    0.146480
     5  C    0.599921
     6  H    0.171022
     7  C   -0.252963
     8  H    0.189295
     9  H    0.113654
    10  C   -0.843112
    11  H    0.128820
    12  H    0.167014
    13  C    0.628748
    14  H    0.165784
    15  C   -0.630038
    16  H    0.138006
    17  H    0.163737
    18  H    0.129209
    19  C   -0.705748
    20  H    0.146070
    21  H    0.145946
    22  H    0.131455
    23  C   -0.531221
    24  H    0.129205
    25  H    0.138751
    26  C   -0.404557
    27  H    0.210893
    28  O   -0.005226
    29  O   -0.185619
    30  H    0.242161
 Sum of Mulliken atomic charges =   0.00000
 Mulliken charges with hydrogens summed into heavy atoms:
              1
     1  C   -0.181210
     5  C    0.770943
     7  C    0.049987
    10  C   -0.547277
    13  C    0.794533
    15  C   -0.199086
    19  C   -0.282277
    23  C   -0.263265
    26  C   -0.193664
    28  O   -0.005226
    29  O    0.056542
 Sum of Mulliken charges with hydrogens summed into heavy atoms =   0.00000
          Atomic-Atomic Spin Densities.
              1          2          3          4          5          6
     1  C    0.024316  -0.002239   0.001692   0.000828  -0.007744   0.000072
     2  H   -0.002239   0.000238  -0.000177  -0.000095   0.001565  -0.000043
     3  H    0.001692  -0.000177   0.000187   0.000090  -0.000692   0.000023
     4  H    0.000828  -0.000095   0.000090   0.000056  -0.000688   0.000045
     5  C   -0.007744   0.001565  -0.000692  -0.000688  -0.010418   0.000137
     6  H    0.000072  -0.000043   0.000023   0.000045   0.000137   0.000022
     7  C   -0.048397   0.003901  -0.002787  -0.001415  -0.001623  -0.001213
     8  H   -0.001903   0.000153  -0.000081  -0.000043  -0.000853  -0.000033
     9  H   -0.001861   0.000198  -0.000135  -0.000138   0.000245  -0.000189
    10  C   -0.000048  -0.000221  -0.000023   0.000070   0.004643   0.000823
    11  H   -0.000140   0.000014  -0.000009  -0.000005   0.000219   0.000007
    12  H   -0.000731   0.000055  -0.000045  -0.000013  -0.000519  -0.000023
    13  C   -0.005901   0.000442  -0.000301  -0.000154  -0.004508  -0.000549
    14  H    0.000506  -0.000036   0.000016   0.000010   0.001276   0.000069
    15  C   -0.001113   0.000069  -0.000050  -0.000018  -0.002226  -0.000113
    16  H    0.000087  -0.000005   0.000005   0.000001   0.000141   0.000010
    17  H   -0.000032   0.000002  -0.000002  -0.000001  -0.000058  -0.000005
    18  H    0.000136  -0.000012   0.000009   0.000002  -0.000079   0.000028
    19  C   -0.006089   0.000239  -0.000200  -0.000004  -0.002748   0.000281
    20  H   -0.001431   0.000107  -0.000143  -0.000082  -0.000039  -0.000045
    21  H   -0.000302   0.000028  -0.000023  -0.000012  -0.000298   0.000005
    22  H    0.003647  -0.000215   0.000233   0.000196   0.002357   0.000060
    23  C   -0.001808   0.000086  -0.000069  -0.000028  -0.004576  -0.000305
    24  H    0.000052  -0.000003   0.000002   0.000001   0.000297   0.000008
    25  H    0.000019   0.000003  -0.000002  -0.000002  -0.000002  -0.000011
    26  C    0.048692  -0.004007   0.002510   0.001375   0.025373   0.000661
    27  H   -0.000595  -0.000024  -0.000045   0.000019   0.001350  -0.000022
    28  O    0.000649   0.000016   0.000031  -0.000002  -0.000364  -0.000008
    29  O   -0.000714   0.000015  -0.000033   0.000003   0.000468   0.000008
    30  H    0.000089   0.000000   0.000003   0.000000  -0.000108   0.000000
              7          8          9         10         11         12
     1  C   -0.048397  -0.001903  -0.001861  -0.000048  -0.000140  -0.000731
     2  H    0.003901   0.000153   0.000198  -0.000221   0.000014   0.000055
     3  H   -0.002787  -0.000081  -0.000135  -0.000023  -0.000009  -0.000045
     4  H   -0.001415  -0.000043  -0.000138   0.000070  -0.000005  -0.000013
     5  C   -0.001623  -0.000853   0.000245   0.004643   0.000219  -0.000519
     6  H   -0.001213  -0.000033  -0.000189   0.000823   0.000007  -0.000023
     7  C    0.308383   0.015929   0.027148  -0.091895   0.000116   0.015507
     8  H    0.015929   0.001866   0.001532  -0.006807  -0.000142   0.000875
     9  H    0.027148   0.001532  -0.000637  -0.033980   0.001183  -0.000203
    10  C   -0.091895  -0.006807  -0.033980   0.280815  -0.004093  -0.015143
    11  H    0.000116  -0.000142   0.001183  -0.004093  -0.000243   0.000089
    12  H    0.015507   0.000875  -0.000203  -0.015143   0.000089   0.000049
    13  C    0.109455   0.005728   0.024479  -0.233258   0.004148   0.010628
    14  H   -0.000431  -0.002847   0.000202   0.026423   0.000533  -0.002886
    15  C    0.011325   0.004795   0.001287  -0.104353  -0.002379   0.008697
    16  H   -0.000191  -0.000228  -0.000329   0.007515   0.000086  -0.000736
    17  H    0.000770   0.000138   0.000325  -0.006692  -0.000019   0.000339
    18  H   -0.002876  -0.000933  -0.000519   0.021036   0.000219  -0.003012
    19  C    0.014867   0.000973  -0.001178   0.000475  -0.000082   0.000350
    20  H    0.004841   0.000143   0.000526  -0.000699   0.000045   0.000059
    21  H    0.000509   0.000024  -0.000011  -0.000131   0.000003   0.000008
    22  H   -0.015918  -0.000678  -0.002041   0.005071  -0.000220  -0.000184
    23  C    0.033087   0.006514   0.002440   0.011575  -0.001244   0.003772
    24  H    0.003787  -0.000181  -0.001557   0.006020  -0.000713  -0.000007
    25  H    0.008983  -0.000146   0.002043  -0.025654   0.001952  -0.000675
    26  C   -0.351830  -0.022614  -0.015488   0.130519   0.002473  -0.018131
    27  H    0.003070   0.000087  -0.000138   0.003326  -0.000424   0.000195
    28  O   -0.004889  -0.000119  -0.000374  -0.001809  -0.000052  -0.000329
    29  O    0.003741   0.000108   0.000013   0.000564   0.000033   0.000251
    30  H    0.000054   0.000005  -0.000008  -0.000083   0.000013  -0.000006
             13         14         15         16         17         18
     1  C   -0.005901   0.000506  -0.001113   0.000087  -0.000032   0.000136
     2  H    0.000442  -0.000036   0.000069  -0.000005   0.000002  -0.000012
     3  H   -0.000301   0.000016  -0.000050   0.000005  -0.000002   0.000009
     4  H   -0.000154   0.000010  -0.000018   0.000001  -0.000001   0.000002
     5  C   -0.004508   0.001276  -0.002226   0.000141  -0.000058  -0.000079
     6  H   -0.000549   0.000069  -0.000113   0.000010  -0.000005   0.000028
     7  C    0.109455  -0.000431   0.011325  -0.000191   0.000770  -0.002876
     8  H    0.005728  -0.002847   0.004795  -0.000228   0.000138  -0.000933
     9  H    0.024479   0.000202   0.001287  -0.000329   0.000325  -0.000519
    10  C   -0.233258   0.026423  -0.104353   0.007515  -0.006692   0.021036
    11  H    0.004148   0.000533  -0.002379   0.000086  -0.000019   0.000219
[...]
 -0.00496229,0.00203130,-0.00011308,0.00007498,-0.00022363,0.00151988,-
 0.00031511,-0.00066774,0.01779192,-0.00607700,-0.01752306,-0.00041246,
 0.00121715,0.00056272,0.00061999,0.00034377,0.00020083,-0.00003812,-0.
 00006876,0.00000722,-0.00070645,-0.00019070,0.00000206,-0.00031797,-0.
 00006102,0.00016807,0.00002513,-0.00000924,0.00001273,0.00000508,-0.00
 000665,-0.00000754,0.00000957,0.00001786,-0.00000580,-0.00000418,-0.00
 000641,0.00001450,0.10028014,-0.12495688,-0.08129087,-0.11021797,0.126
 76357,-0.00000254,0.00000271,0.00000313,0.00000093,-0.00000731,0.00000
 242,-0.00000026,-0.00000132,-0.00000279,0.00000624,0.00000292,0.000000
 86,-0.00000196,-0.00000308,-0.00000887,-0.00000255,-0.00000161,0.00000
 142,-0.00006197,0.00000376,0.00000387,0.00002020,-0.00002087,0.0000281
 9,-0.00015925,-0.00005148,-0.00009311,-0.00058692,0.00138683,0.0004362
 1,-0.00022773,0.00018930,0.00039805,-0.00025562,0.00022570,0.00040039,
 -0.00344682,0.00576512,0.00526208,-0.00040706,-0.00091467,0.00113760,-
 0.00055290,0.00045788,-0.00012139,0.00010472,0.00003853,0.00006068,-0.
 00013076,-0.00023557,0.00007245,0.00005551,0.00013994,0.00006876,-0.00
 001756,0.00002082,0.00000567,-0.00000908,0.00000056,0.00000136,0.00002
 021,-0.00000138,0.00000763,0.00000181,-0.00003004,-0.00001433,0.120398
 23,-0.08216092,-0.14955169,-0.12938775,0.08845346,0.15149899,-0.000006
 14,-0.00000403,0.00000666,0.00000389,-0.00001284,0.00000381,0.00000049
 ,-0.00000277,-0.00000501,0.00000531,0.00000459,0.00000043,-0.00001098,
 0.00001570,-0.00001205,-0.00000353,0.00000136,-0.00000229,0.00007787,0
 .00012851,-0.00008641,0.00005385,-0.00000607,0.00004067,-0.00043450,0.
 00000782,-0.00018774,0.00099380,-0.00044859,-0.00170313,0.00017983,0.0
 0002976,0.00021060,-0.00000591,-0.00021029,0.00012755,0.00308054,0.002
 54829,-0.00282458,0.00036671,0.00177485,-0.00160328,-0.00031126,0.0010
 4928,-0.00064288,-0.00000825,-0.00030112,-0.00015735,0.00003673,-0.000
 07211,0.00007517,0.00022374,0.00018208,-0.00000961,-0.00004472,0.00003
 769,0.00001377,-0.00000230,-0.00000536,-0.00000301,0.00002718,-0.00000
 510,0.00000969,0.00000099,-0.00003876,-0.00001319,-0.04173821,-0.01419
 043,0.07509651,-0.00047208,-0.00716744,0.01466584,0.03806913,0.0000033
 4,0.00000341,0.00000430,-0.00000023,0.00000063,-0.00000008,0.00000187,
 -0.00000028,-0.00000185,0.00000150,-0.00000090,0.00000038,0.00001769,-
 0.00001493,-0.00001121,-0.00000504,-0.00000248,-0.00000560,0.00025414,
 -0.00006166,-0.00011076,-0.00017914,0.00001302,-0.00013537,0.00005080,
 0.00013727,0.00009289,-0.00139087,0.00162187,0.00110569,0.00051950,-0.
 00031008,-0.00091492,-0.00019186,0.00015904,-0.00040538,-0.00598089,-0
 .00494204,0.02570691,0.00085681,-0.00491628,0.00051705,0.00056766,0.00
 044722,0.00043348,-0.00034464,-0.00013503,-0.00066914,-0.00008499,-0.0
 0010843,-0.00004085,-0.00013299,-0.00008157,-0.00046717,-0.00000975,-0
 .00000705,0.00000630,0.00001006,-0.00000253,-0.00000604,-0.00000772,0.
 00000210,-0.00000529,0.00000177,0.00001607,0.00000756,-0.01520212,-0.0
 9440408,0.10344650,0.00435103,0.00814946,-0.01324096,0.01681370,0.0943
 6775,-0.00001612,-0.00002122,0.00000783,0.00001060,-0.00001645,0.00000
 600,0.00000237,0.00000141,-0.00000243,-0.00000482,0.00000356,-0.000002
 25,-0.00001281,0.00003388,-0.00002678,-0.00000691,0.00000068,0.0000004
 9,0.00011032,0.00041480,0.00000949,0.00006999,-0.00006746,0.00005173,-
 0.00040942,-0.00021572,-0.00012928,0.00075838,-0.00046945,0.00073133,-
 0.00056255,0.00030355,0.00023298,-0.00011869,-0.00007302,0.00018771,0.
 00064477,-0.00142011,-0.00210996,0.00018740,0.00140390,0.00062786,-0.0
 0012031,0.00038869,-0.00036290,0.00016343,0.00015617,0.00009165,-0.000
 07086,-0.00011229,0.00000497,0.00011187,0.00014473,0.00005683,-0.00007
 686,0.00004931,0.00001183,0.00000579,-0.00000687,-0.00000083,0.0000215
 4,-0.00001149,0.00000631,0.00000965,-0.00003561,-0.00000792,0.08072824
 ,0.10676415,-0.26613601,0.00173587,0.00828194,-0.00959446,-0.08304817,
 -0.11528234,0.27630436,-0.02894083,-0.01651433,-0.00847728,0.00085481,
 -0.00048242,-0.00003370,0.00174504,-0.00058024,-0.00024632,-0.00326961
 ,0.00272190,0.00004858,-0.12403529,-0.02751879,-0.02422879,0.00050010,
 0.00067855,-0.00007156,-0.14974220,0.01797989,0.03265338,-0.00350762,0
 .00219463,0.00225080,-0.00082751,0.00014756,0.00055355,-0.03036238,0.0
 0579921,0.00765698,0.00183805,0.00076764,0.00111422,0.00098808,0.00084
 488,0.00050250,-0.00157279,-0.00248874,-0.00202915,-0.00009897,-0.0001
 0418,0.00010102,-0.00071091,0.00051692,0.00048227,-0.00001122,0.000028
 00,-0.00002049,-0.00015231,-0.00026325,-0.00016497,0.00003914,0.000018
 98,0.00004169,0.00203173,-0.00495142,0.00424971,0.00024532,0.00058609,
 -0.00107902,0.00052625,0.00264604,-0.00174689,-0.00045355,0.00160542,-
 0.00005171,0.00058775,-0.00033802,0.00019946,0.00004620,0.00000873,-0.
 00005239,-0.00014816,0.00009292,-0.00017221,0.45382651,0.00593603,0.01
 333869,0.00505449,0.00162207,-0.00131870,0.00199356,0.00052415,0.00071
 685,-0.00093189,0.00526402,-0.00285249,0.00085001,-0.03036968,-0.09244
 808,-0.02440455,-0.00800234,-0.00661920,-0.00290464,0.02122524,-0.0787
 2626,-0.01317525,-0.00431117,0.00031609,0.00044702,0.02685972,-0.01081
 083,-0.01198333,-0.01198129,0.00893919,0.00877924,0.00007403,0.0002543
 4,-0.00000538,-0.00162773,-0.00164291,0.00038346,-0.00264432,-0.003419
 98,-0.00195887,0.00023645,-0.00002981,-0.00009599,-0.00140841,0.000750
 00,0.00036833,-0.00000374,0.00001230,-0.00006582,-0.00049077,-0.000316
 72,-0.00015011,0.00001776,-0.00009327,0.00009524,-0.01803750,-0.023619
 06,-0.00254419,0.00050852,0.00155075,-0.00170020,0.00068057,-0.0019176
 2,0.00154985,-0.00036757,0.00033923,-0.00041128,0.00054699,-0.00035081
 ,-0.00006826,-0.00001337,0.00001615,0.00003690,-0.00001036,0.00005042,
 -0.00005780,0.00203368,0.41079328,0.00115986,0.00215053,0.00037019,-0.
 00090074,-0.00003374,-0.00050963,0.00114506,0.00034869,0.00066450,0.00
 166064,0.00044451,0.00069909,-0.02176656,-0.02224300,-0.09374305,-0.02
 554537,-0.02156261,-0.01216086,0.03262151,-0.00734388,-0.09604835,0.03
 247187,-0.01246296,-0.01434753,-0.00843561,0.00318439,0.00136945,-0.01
 030872,0.00667349,0.00543340,-0.00198081,0.00026407,-0.00021342,0.0004
 7487,-0.00011849,0.00051860,-0.00172263,-0.00169665,-0.00256845,0.0001
 1113,-0.00017483,0.00042261,-0.00084564,0.00028021,0.00087777,0.000073
 34,0.00011016,-0.00003286,-0.00034432,-0.00024685,-0.00012514,0.000034
 71,-0.00001922,0.00000664,0.01373836,0.01095575,0.00443897,0.00156401,
 0.00161016,-0.00007425,0.00052837,0.00372317,-0.00240259,-0.00032786,-
 0.00003521,0.00051143,-0.00015162,-0.00027532,0.00009769,-0.00004807,0
 .00009919,-0.00001160,0.00004098,0.00001741,0.00006332,-0.02288182,0.0
 3797222,0.60850951,0.00152546,-0.00032849,-0.00047114,-0.00001468,0.00
 008069,-0.00003743,-0.00036416,0.00031442,0.00062764,-0.00001154,0.000
 14726,0.00035875,-0.00114923,-0.00601714,-0.02560062,-0.00331171,-0.00
 283350,-0.00143568,-0.00192631,0.00117815,0.02940030,-0.00468941,0.002
 05376,0.00188744,0.00071679,0.00010433,-0.00067392,0.00177600,-0.00002
 305,0.00144668,-0.00039410,0.00008925,-0.00081324,-0.00006877,-0.00016
 755,-0.00000777,-0.00005527,0.00009593,0.00008473,0.00012107,0.0000058
 2,-0.00029502,0.00004296,-0.00003362,-0.00010473,-0.00005273,-0.000022
 06,-0.00002510,0.00003545,0.00001987,0.00000477,-0.00000717,-0.0000003
 7,0.00000538,0.00115475,0.00114468,-0.00078913,-0.00006625,-0.00010670
 ,0.00071923,0.00001002,0.00041131,0.00016081,0.00001824,-0.00010683,0.
 00019333,0.00000428,-0.00002000,-0.00005555,0.00002985,-0.00002611,-0.
 00000505,-0.00000511,0.00003470,0.00000563,-0.04873638,-0.00388410,-0.
 00210234,0.05491917,0.00040152,-0.00007183,0.00027901,-0.00012982,0.00
 001121,-0.00001991,-0.00016383,0.00031030,0.00027097,-0.00004424,0.000
 10045,0.00012457,-0.00182640,-0.00294163,-0.01807913,-0.00289992,-0.00
 168545,-0.00112084,0.00037930,0.00064738,-0.01174099,0.00202031,-0.000
 45193,-0.00050738,-0.00045766,0.00015693,0.00032587,-0.00088980,0.0002
 4363,0.00039807,0.00011757,0.00019047,0.00033511,0.00014843,0.00005674
 ,0.00017733,-0.00000522,-0.00014245,-0.00006876,-0.00006399,-0.0000213
 8,0.00007701,-0.00002743,0.00000046,0.00004777,0.00001144,0.00001379,0
 .00000305,-0.00000381,-0.00001008,-0.00001124,0.00000006,0.00000093,0.
 00000455,0.00018396,0.00077665,-0.00153321,-0.00032618,-0.00001588,0.0
 0062329,0.00015146,0.00014650,0.00023116,0.00010819,-0.00000442,-0.000
 00926,0.00001882,0.00002330,-0.00001308,-0.00001261,-0.00000478,0.0000
 0783,0.00001149,-0.00001443,0.00000793,-0.00037232,-0.04789250,-0.0387
 0248,0.00232970,0.06467953,0.00015216,0.00001905,0.00014656,0.00012160
 ,-0.00004798,0.00008715,-0.00055108,0.00022135,0.00010514,-0.00016159,
 0.00002992,0.00010703,-0.00000011,-0.00278101,-0.01003360,-0.00137944,
 -0.00062573,0.00041785,0.00149677,-0.00145692,-0.00877077,0.00080948,-
 0.00081255,0.00043584,0.00039527,-0.00038476,-0.00003569,-0.00129405,0
 .00005061,0.00050705,0.00067628,0.00017501,0.00068210,0.00008945,0.000
 07271,-0.00006606,0.00009714,-0.00009263,0.00043912,-0.00026895,0.0000
 2121,0.00008250,0.00003782,0.00000324,-0.00000394,0.00002461,-0.000003
 21,0.00000592,-0.00000087,0.00000495,-0.00000052,-0.00000142,-0.000005
 27,-0.00000636,0.00061254,0.00085806,0.00084675,-0.00028919,-0.0005972
 1,0.00075587,-0.00000503,0.00011143,0.00044701,-0.00000652,-0.00020685
 ,-0.00003581,0.00004189,0.00001881,-0.00000063,-0.00002183,0.00000699,
 0.00000966,0.00001091,-0.00001913,-0.00000117,-0.00437401,-0.02783230,
 -0.29472027,0.00293230,0.02633239,0.32359807,0.00057036,-0.00000689,-0
 .00007704,-0.00017187,-0.00120447,0.00069669,-0.00040238,-0.00011689,0
 .00055180,0.00044714,-0.00047733,0.00075818,0.00447456,-0.02009179,0.0
 1135138,0.00015246,0.00001291,-0.00011785,-0.00951237,0.02931968,-0.00
 731892,0.00069692,0.00011541,-0.00006782,-0.00325066,0.00137875,0.0019
 4968,-0.00170703,-0.00122875,-0.00094009,-0.00008993,0.00040419,-0.000
 02974,-0.00078798,0.00218150,-0.00065580,0.00055343,0.00103893,-0.0003
 7511,-0.00007847,0.00000399,0.00013105,0.00018153,-0.00007576,0.000052
 38,0.00003175,-0.00000561,-0.00000202,-0.00004060,0.00004910,0.0000186
 7,0.00003528,0.00001754,-0.00003710,-0.00353701,-0.00341290,-0.0028155
 6,-0.00008426,0.00028934,-0.00002454,0.00007195,-0.00156254,0.00090552
 ,0.00016816,-0.00025187,-0.00000544,-0.00038204,0.00006793,0.00021673,
 -0.00007615,0.00014384,0.00000862,0.00002217,-0.00004281,0.00000691,-0
 .05415276,0.00690886,0.00390152,-0.00067686,0.00317835,-0.00044667,0.1
 5478530,0.00247313,0.00003792,0.00001111,-0.00097506,0.00013528,-0.000
 18229,-0.00037877,0.00003533,0.00056289,0.00026895,0.00024881,-0.00009
 866,-0.00225392,-0.03525069,0.01717125,0.00085089,0.00065107,-0.000887
 51,0.01834827,-0.02581592,0.00334934,-0.00081911,0.00044019,0.00073470
 ,0.00146892,-0.00005604,-0.00047337,-0.00219680,-0.00071433,0.00034628
 ,0.00004503,-0.00003194,-0.00022738,0.00056336,0.00112612,0.00003431,0
 .00001434,0.00056396,-0.00061185,0.00001610,-0.00003513,-0.00000713,-0
 .00003645,-0.00000308,0.00003865,0.00000761,-0.00000803,-0.00000813,-0
 .00002942,-0.00000323,0.00000238,0.00006523,0.00008024,-0.00002012,-0.
 00608097,-0.00243499,-0.00503798,0.00002187,0.00022494,0.00022081,0.00
 006519,-0.00217981,0.00171413,0.00038328,0.00009648,-0.00005915,-0.000
 01769,-0.00003463,0.00028387,-0.00003622,0.00011752,-0.00003766,-0.000
 07235,0.00003128,-0.00011231,-0.01612764,-0.13793564,0.06852659,0.0058
 5394,-0.01698681,0.01018458,-0.07977723,0.31898727,-0.00167118,0.00060
 514,-0.00043164,0.00070050,-0.00125527,0.00097225,0.00018160,-0.000112
 60,-0.00013679,0.00016530,-0.00075409,0.00024351,0.00181932,0.00242150
 ,0.00395011,0.00093898,0.00076008,0.00113934,0.00100780,-0.01187961,0.
 00529903,-0.00042553,-0.00109789,0.00066652,0.00318304,-0.00208370,-0.
 00048097,-0.00074246,-0.00002561,0.00029969,0.00028197,-0.00005184,0.0
 0016186,-0.00018076,0.00044859,-0.00008259,0.00016385,0.00006156,0.000
 02266,-0.00007829,0.00003482,0.00005298,-0.00001105,0.00007418,-0.0000
 2006,0.00001739,-0.00001107,0.00001181,-0.00003628,-0.00000430,0.00000
 625,0.00000557,-0.00001452,-0.00000111,0.00087335,0.00006653,0.0010095
 9,-0.00040451,-0.00039486,0.00045806,0.00006436,0.00054520,0.00019375,
 0.00001302,-0.00017384,-0.00008106,-0.00004785,0.00002590,0.00005639,-
 0.00002995,0.00003382,0.00000750,0.00001548,-0.00001264,-0.00001462,0.
 02213495,0.03149280,-0.11353429,-0.00367972,0.04114489,-0.01862306,-0.
 09075259,-0.01491876,0.24800908,-0.00258219,-0.00077509,-0.00058194,-0
 .00061473,-0.00163182,0.00104646,0.00062770,0.00010397,-0.00137487,0.0
 0067062,-0.00106384,-0.00032481,-0.00069161,-0.00049746,0.00002019,0.0
 0031704,0.00008335,-0.00011178,0.00221592,0.00776548,-0.00278364,0.000
 70412,-0.00066433,-0.00047919,-0.00244532,0.00068589,0.00040002,0.0011
 4516,0.00087993,0.00023496,-0.00021271,0.00008725,-0.00021331,0.000074
 11,-0.00030207,0.00035653,0.00001726,-0.00024518,-0.00015058,0.0000486
 9,-0.00000231,-0.00002202,-0.00004133,0.00007979,0.00010070,-0.0000018
 2,0.00000177,-0.00003482,-0.00009294,-0.00002009,-0.00000514,0.0000040
 0,-0.00002587,0.00000176,0.00015128,0.00019724,0.00020096,-0.00006853,
 -0.00002331,-0.00008039,0.00016366,0.00021230,-0.00001079,0.00014250,-
 0.00030801,0.00008726,-0.00018501,-0.00009904,-0.00006344,-0.00002630,
 0.00003071,0.00002952,0.00005244,-0.00000222,0.00004200,-0.01457787,0.
 00909487,0.00815096,0.00112933,-0.00174440,0.00069930,-0.07464065,0.07
 369060,0.06735213,0.46984057,-0.00250013,-0.00123168,0.00090621,-0.000
 48498,-0.00018810,-0.00019733,0.00013180,-0.00056489,-0.00149662,0.000
 08918,-0.00062402,-0.00082919,0.00141185,0.00018656,0.00091767,0.00008
 954,0.00005893,-0.00008199,-0.00350403,-0.00727235,0.00168633,-0.00002
 214,0.00002685,-0.00004038,0.00216246,0.00010955,-0.00051941,-0.000369
 47,-0.00059234,-0.00014004,0.00008328,0.00007266,0.00002012,0.00039767
 ,0.00035716,0.00004524,0.00003254,0.00026348,0.00024020,-0.00002406,-0
 .00002960,-0.00002616,0.00007197,-0.00015996,-0.00008716,-0.00000314,0
 .00000203,0.00001815,0.00008489,0.00004395,0.00001200,0.00001665,0.000
 07723,-0.00000763,-0.00008902,0.00034918,0.00002529,-0.00000571,-0.000
 04048,0.00004713,-0.00013939,-0.00001312,0.00000562,0.00005463,0.00005
 179,-0.00005419,0.00018945,0.00011283,0.00011312,-0.00000335,-0.000014
 70,-0.00003238,-0.00006938,0.00000295,-0.00006107,0.02434823,-0.025508
 55,-0.02988591,-0.00017916,0.00285296,-0.00279464,0.04146188,-0.091172
 25,-0.05279356,-0.12625184,0.14129119,0.00033442,0.00044106,-0.0008834
 3,-0.00050863,-0.00051594,-0.00018321,-0.00051721,-0.00000980,0.000594
 54,0.00002184,0.00008719,0.00035752,0.00168854,-0.00147702,0.00051843,
 0.00001361,0.00037498,0.00011819,-0.00290514,0.00248544,0.00022300,-0.
 00062434,0.00064503,0.00056133,-0.00030240,0.00068873,0.00038494,0.000
 04625,0.00005861,0.00012182,0.00008491,0.00001503,0.00004113,0.0000653
 5,-0.00002377,-0.00014951,-0.00004375,0.00001069,0.00001702,-0.0000271
 9,0.00000550,0.00003187,0.00000255,-0.00001570,-0.00001266,0.00000526,
 -0.00000631,0.00001721,0.00001497,0.00000512,0.00000018,-0.00000239,-0
 .00000871,-0.00001033,-0.00039303,-0.00012567,-0.00010526,0.00002995,-
 0.00005585,0.00006576,-0.00011949,-0.00012297,0.00002805,-0.00005272,0
 .00007574,-0.00001176,0.00004556,0.00002344,-0.00000051,0.00000567,-0.
 00000951,-0.00000091,-0.00000810,-0.00001445,0.00001006,-0.00895973,-0
 .00232144,0.00856357,-0.00157071,0.00192913,0.00341455,0.04638112,-0.0
 6319866,-0.13238432,0.16085500,0.06349437,0.26892170,-0.00034126,-0.00
 075675,0.00063360,0.00046494,0.00011563,-0.00118156,-0.00000455,-0.000
 63469,0.00026355,-0.00029958,0.00017381,-0.00012768,0.00135877,-0.0000
 2891,0.00021082,-0.00020826,0.00009626,-0.00003390,0.00008140,0.000227
 52,-0.00017996,-0.00000830,0.00004936,0.00004961,0.00001301,-0.0000340
 1,0.00008776,0.00004348,0.00006173,0.00000930,-0.00000676,-0.00000172,
 0.00000086,-0.00004167,-0.00005976,0.00000089,-0.00003538,-0.00001224,
 0.00001795,-0.00000006,0.00000146,0.00000639,0.00000230,0.00000364,-0.
 00001218,-0.00000269,-0.00000067,0.00000839,0.00001837,-0.00000213,-0.
 00000284,-0.00001596,-0.00001145,0.00000153,-0.00047576,-0.00001017,-0
 .00005439,0.00006704,-0.00000229,0.00001610,-0.00005130,-0.00014432,0.
 00002519,-0.00002737,0.00011955,-0.00006571,0.00001963,0.00001463,-0.0
 0001005,0.00000939,-0.00001694,-0.00000366,-0.00000352,-0.00000220,0.0
 0000496,-0.00192862,0.00161938,-0.00031510,0.00004632,-0.00009297,0.00
 060325,-0.01259998,0.00466492,-0.00085844,-0.38112338,0.06301977,-0.19
 356017,0.39504976,0.00094691,-0.00096581,0.00092154,-0.00088115,-0.000
 14691,-0.00211307,-0.00070801,-0.00082898,0.00097011,-0.00024619,0.001
 23979,-0.00002420,0.00086056,-0.00035703,-0.00027820,-0.00024515,0.000
 10713,0.00011140,-0.00019399,-0.00206435,0.00038107,-0.00010742,0.0000
 9905,0.00002437,0.00057688,-0.00026412,-0.00016123,-0.00024804,0.00003
 370,0.00003272,0.00002365,-0.00003556,0.00004020,0.00000361,-0.0000036
 7,-0.00007523,0.00000559,-0.00001887,-0.00002910,-0.00001054,0.0000087
 1,0.00001663,-0.00001907,0.00003546,0.00000632,0.00000498,-0.00000269,
 0.00000111,-0.00001819,-0.00000537,-0.00000037,0.00000632,-0.00001583,
 -0.00000043,-0.00032518,0.00004402,0.00005510,0.00004096,-0.00002533,0
 .00000760,-0.00000507,-0.00006095,0.00000979,-0.00013437,0.00024946,-0
 .00011074,-0.00002026,-0.00001242,-0.00001202,0.00000441,0.00000870,0.
 00000698,0.00001185,-0.00000073,0.00000852,0.00672205,-0.00157485,-0.0
 0155940,-0.00011512,0.00003236,-0.00045011,0.02168266,-0.01011390,0.00
 786915,0.04074376,-0.01844729,-0.00243427,-0.06835645,0.03308628,-0.00
 003417,-0.00125429,0.00218716,-0.00065279,0.00003171,-0.00086460,0.000
 41342,0.00050778,-0.00093636,-0.00005244,0.00009406,-0.00073926,0.0000
 3304,0.00032501,-0.00000195,0.00018149,-0.00011862,-0.00002759,-0.0001
 5208,-0.00144626,0.00078544,-0.00014272,0.00011566,0.00007467,0.000498
 71,-0.00021912,-0.00006239,-0.00015630,-0.00017519,-0.00012334,0.00004
 929,-0.00006090,0.00005945,-0.00008095,0.00003408,-0.00011985,0.000021
 41,0.00005224,0.00007920,-0.00001323,-0.00000060,-0.00000083,0.0000148
 7,-0.00003048,-0.00002359,0.00000327,-0.00000153,0.00000332,0.00001721
 ,0.00000940,0.00000570,0.00000207,0.00001739,-0.00000138,-0.00023620,0
 .00000094,0.00000168,-0.00001227,0.00001990,-0.00004356,-0.00002615,-0
 .00006503,0.00001336,-0.00000373,0.00007181,-0.00006669,0.00003610,0.0
 0001493,0.00001719,0.00000186,-0.00000412,-0.00000776,-0.00001130,0.00
 000472,-0.00001616,0.00260094,0.00158815,-0.00205447,-0.00015982,-0.00
 051366,0.00020971,0.03673604,-0.01729993,0.00323013,-0.23334104,0.0215
 1622,-0.15024897,0.19446551,-0.00321426,0.14867171\\-0.00000068,-0.000
 00265,0.00000349,-0.00000163,-0.00000112,0.00000453,0.00000020,-0.0000
 0442,0.00000400,-0.00000005,-0.00000235,0.00000267,0.00000047,-0.00000
 137,0.00000058,-0.00000039,0.00000069,0.00000024,-0.00000028,0.0000008
 6,-0.00000064,-0.00000128,0.00000281,-0.00000033,0.00000077,0.00000067
 ,-0.00000248,-0.00000009,0.00000079,-0.00000024,0.00000077,-0.00000104
 ,-0.00000054,-0.00000118,0.00000091,0.00000167,-0.00000071,0.00000275,
 -0.00000220,-0.00000137,0.00000462,-0.00000191,-0.00000055,0.00000274,
 -0.00000143,0.00000032,0.00000095,-0.00000176,-0.00000080,0.00000421,-
 0.00000283,-0.00000172,0.00000305,0.00000037,0.00000195,-0.00000272,-0
 .00000108,0.00000246,-0.00000450,-0.00000060,0.00000216,-0.00000268,-0
 .00000176,0.00000225,-0.00000189,-0.00000289,0.00000081,0.00000270,-0.
 00000498,0.00000096,0.00000413,-0.00000640,0.00000209,0.00000066,-0.00
 000535,-0.00000029,-0.00000116,0.00000153,0.00000071,-0.00000286,0.000
 00176,-0.00000166,0.,0.00000382,-0.00000126,-0.00000175,0.00000591,-0.
 00000198,-0.00000202,0.00000684\\\@
 Job cpu time:  0 days  6 hours 50 minutes  8.6 seconds.
 File lengths (MBytes):  RWF=  72717 Int=      0 D2E=      0 Chk=     32 Scr=      1
 Normal termination of Gaussian 09 at Sun Feb  9 18:33:28 2014.
