 Entering Gaussian System, Link 0=g09
 Initial command:
 /usr/caen/gaussian-09revc/g09/l1.exe /scratch/avioli_flux/hetanjin/scratch/Gau-130632.inp -scrdir=/scratch/avioli_flux/hetanjin/scratch/
 Entering Link 1 = /usr/caen/gaussian-09revc/g09/l1.exe PID=    130633.
  
 Copyright (c) 1988,1990,1992,1993,1995,1998,2003,2009,2011,
            Gaussian, Inc.  All Rights Reserved.
  
 This is part of the Gaussian(R) 09 program.  It is based on
 the Gaussian(R) 03 system (copyright 2003, Gaussian, Inc.),
 the Gaussian(R) 98 system (copyright 1998, Gaussian, Inc.),
 the Gaussian(R) 94 system (copyright 1995, Gaussian, Inc.),
 the Gaussian 92(TM) system (copyright 1992, Gaussian, Inc.),
 the Gaussian 90(TM) system (copyright 1990, Gaussian, Inc.),
 the Gaussian 88(TM) system (copyright 1988, Gaussian, Inc.),
 the Gaussian 86(TM) system (copyright 1986, Carnegie Mellon
 University), and the Gaussian 82(TM) system (copyright 1983,
 Carnegie Mellon University). Gaussian is a federally registered
 trademark of Gaussian, Inc.
  
 This software contains proprietary and confidential information,
 including trade secrets, belonging to Gaussian, Inc.
  
 This software is provided under written license and may be
 used, copied, transmitted, or stored only in accord with that
 written license.
  
 The following legend is applicable only to US Government
 contracts under FAR:
  
                    RESTRICTED RIGHTS LEGEND
  
 Use, reproduction and disclosure by the US Government is
 subject to restrictions as set forth in subparagraphs (a)
 and (c) of the Commercial Computer Software - Restricted
 Rights clause in FAR 52.227-19.
  
 Gaussian, Inc.
 340 Quinnipiac St., Bldg. 40, Wallingford CT 06492
  
  
 ---------------------------------------------------------------
 Warning -- This program may not be used in any manner that
 competes with the business of Gaussian, Inc. or will provide
 assistance to any competitor of Gaussian, Inc.  The licensee
 of this program is prohibited from giving any competitor of
 Gaussian, Inc. access to this program.  By using this program,
 the user acknowledges that Gaussian, Inc. is engaged in the
 business of creating and licensing software in the field of
 computational chemistry and represents and warrants to the
 licensee that it is not a competitor of Gaussian, Inc. and that
 it will not use this program in any manner prohibited above.
 ---------------------------------------------------------------
  

 Cite this work as:
 Gaussian 09, Revision C.01,
 M. J. Frisch, G. W. Trucks, H. B. Schlegel, G. E. Scuseria, 
 M. A. Robb, J. R. Cheeseman, G. Scalmani, V. Barone, B. Mennucci, 
 G. A. Petersson, H. Nakatsuji, M. Caricato, X. Li, H. P. Hratchian, 
 A. F. Izmaylov, J. Bloino, G. Zheng, J. L. Sonnenberg, M. Hada, 
 M. Ehara, K. Toyota, R. Fukuda, J. Hasegawa, M. Ishida, T. Nakajima, 
 Y. Honda, O. Kitao, H. Nakai, T. Vreven, J. A. Montgomery, Jr., 
 J. E. Peralta, F. Ogliaro, M. Bearpark, J. J. Heyd, E. Brothers, 
 K. N. Kudin, V. N. Staroverov, T. Keith, R. Kobayashi, J. Normand, 
 K. Raghavachari, A. Rendell, J. C. Burant, S. S. Iyengar, J. Tomasi, 
 M. Cossi, N. Rega, J. M. Millam, M. Klene, J. E. Knox, J. B. Cross, 
 V. Bakken, C. Adamo, J. Jaramillo, R. Gomperts, R. E. Stratmann, 
 O. Yazyev, A. J. Austin, R. Cammi, C. Pomelli, J. W. Ochterski, 
 R. L. Martin, K. Morokuma, V. G. Zakrzewski, G. A. Voth, 
 P. Salvador, J. J. Dannenberg, S. Dapprich, A. D. Daniels, 
 O. Farkas, J. B. Foresman, J. V. Ortiz, J. Cioslowski, 
 and D. J. Fox, Gaussian, Inc., Wallingford CT, 2010.
 
 ******************************************
 Gaussian 09:  EM64L-G09RevC.01 23-Sep-2011
                30-Apr-2014 
 ******************************************
 %mem=30GB
 %nprocshared=8
 Will use up to    8 processors via shared memory.
 %chk=TS_2f_26.chk
 -------------------------------
 #p cbs-qb3 opt=(TS,calcfc) freq
 -------------------------------
 1/5=1,10=4,14=-1,18=20,26=3,38=1/1,3;
 2/9=110,12=2,17=6,18=5,40=1/2;
 3/5=4,6=6,7=700,11=2,16=1,25=1,30=1,71=2,74=-5/1,2,3;
 4//1;
 5/5=2,38=5/2;
 8/6=4,10=90,11=11/1;
 11/6=1,8=1,9=11,15=111,16=1/1,2,10;
 10/6=1,7=6,13=1/2;
 6/7=2,8=2,9=2,10=2,28=1/1;
 7/10=1,18=20,25=1/1,2,3,16;
 1/5=1,10=4,14=-1,18=20/3(2);
 2/9=110/2;
 99//99;
 2/9=110/2;
 3/5=4,6=6,7=700,11=2,16=1,25=1,30=1,71=1,74=-5/1,2,3;
 4/5=5,16=3/1;
 5/5=2,38=5/2;
 7//1,2,3,16;
 1/5=1,14=-1,18=20/3(-5);
 2/9=110/2;
 6/7=2,8=2,9=2,10=2,19=2,28=1/1;
 99/9=1/99;
 Leave Link    1 at Wed Apr 30 21:10:10 2014, MaxMem= 4026531840 cpu:       0.6
 (Enter /usr/caen/gaussian-09revc/g09/l101.exe)
 -------------------------------------
 TS_2f_26 using cbs-qb3 to cal. energy
 -------------------------------------
 Charge =  0 Multiplicity = 2
 Symbolic Z-Matrix:
 C                    -2.49393  -0.09393  -1.0748 
 H                    -2.05373  -0.21936  -2.06671 
 H                    -3.23489   0.70994  -1.11996 
 H                    -2.99257  -1.0224   -0.80178 
 C                    -0.74059   1.58269  -0.47456 
 H                    -0.54214   1.54499  -1.55145 
 H                    -1.50886   2.3495   -0.32882 
 C                     0.5406    2.01535   0.24703 
 H                     0.44522   1.86976   1.32742 
 H                     0.67811   3.09145   0.09794 
 C                     1.79995   1.2997   -0.28042 
 H                     2.68162   1.74214   0.21143 
 H                     1.89859   1.51752  -1.34898 
 C                     1.80911  -0.18232  -0.06232 
 C                     2.15415  -1.0999   -1.18861 
 H                     3.24268  -1.26789  -1.23646 
 H                     1.67644  -2.07366  -1.05273 
 H                     1.83743  -0.69679  -2.15226 
 C                    -1.98185   0.32442   1.3634 
 H                    -2.77143   1.07915   1.42239 
 H                    -2.40898  -0.64223   1.63217 
 H                    -1.21181   0.57593   2.09675 
 C                     2.07398  -0.68291   1.32161 
 H                     1.6996   -1.70117   1.45463 
 H                     3.15889  -0.71267   1.51369 
 H                     1.62603  -0.04663   2.08791 
 C                    -1.39907   0.2455   -0.05431 
 O                    -0.36496  -0.76383  -0.09868 
 O                    -1.14528  -2.24963   0.10887 
 H                    -0.71235  -2.44143   0.95129 
 
 NAtoms=     30 NQM=        0 NQMF=       0 NMMI=     30 NMMIF=      0
                NMic=       0 NMicF=      0.
                    Isotopes and Nuclear Properties:
 (Nuclear quadrupole moments (NQMom) in fm**2, nuclear magnetic moments (NMagM)
  in nuclear magnetons)

  Atom         1           2           3           4           5           6           7           8           9          10
 IAtWgt=          12           1           1           1          12           1           1          12           1           1
 AtmWgt=  12.0000000   1.0078250   1.0078250   1.0078250  12.0000000   1.0078250   1.0078250  12.0000000   1.0078250   1.0078250
 NucSpn=           0           1           1           1           0           1           1           0           1           1
 AtZEff=   0.0000000   0.0000000   0.0000000   0.0000000   0.0000000   0.0000000   0.0000000   0.0000000   0.0000000   0.0000000
 NQMom=    0.0000000   0.0000000   0.0000000   0.0000000   0.0000000   0.0000000   0.0000000   0.0000000   0.0000000   0.0000000
 NMagM=    0.0000000   2.7928460   2.7928460   2.7928460   0.0000000   2.7928460   2.7928460   0.0000000   2.7928460   2.7928460

  Atom        11          12          13          14          15          16          17          18          19          20
 IAtWgt=          12           1           1          12          12           1           1           1          12           1
 AtmWgt=  12.0000000   1.0078250   1.0078250  12.0000000  12.0000000   1.0078250   1.0078250   1.0078250  12.0000000   1.0078250
 NucSpn=           0           1           1           0           0           1           1           1           0           1
 AtZEff=   0.0000000   0.0000000   0.0000000   0.0000000   0.0000000   0.0000000   0.0000000   0.0000000   0.0000000   0.0000000
 NQMom=    0.0000000   0.0000000   0.0000000   0.0000000   0.0000000   0.0000000   0.0000000   0.0000000   0.0000000   0.0000000
 NMagM=    0.0000000   2.7928460   2.7928460   0.0000000   0.0000000   2.7928460   2.7928460   2.7928460   0.0000000   2.7928460

  Atom        21          22          23          24          25          26          27          28          29          30
 IAtWgt=           1           1          12           1           1           1          12          16          16           1
 AtmWgt=   1.0078250   1.0078250  12.0000000   1.0078250   1.0078250   1.0078250  12.0000000  15.9949146  15.9949146   1.0078250
 NucSpn=           1           1           0           1           1           1           0           0           0           1
 AtZEff=   0.0000000   0.0000000   0.0000000   0.0000000   0.0000000   0.0000000   0.0000000   0.0000000   0.0000000   0.0000000
 NQMom=    0.0000000   0.0000000   0.0000000   0.0000000   0.0000000   0.0000000   0.0000000   0.0000000   0.0000000   0.0000000
 NMagM=    2.7928460   2.7928460   0.0000000   2.7928460   2.7928460   2.7928460   0.0000000   0.0000000   0.0000000   2.7928460
 Leave Link  101 at Wed Apr 30 21:10:11 2014, MaxMem= 4026531840 cpu:       2.9
 (Enter /usr/caen/gaussian-09revc/g09/l103.exe)

 GradGradGradGradGradGradGradGradGradGradGradGradGradGradGradGradGradGrad
 Berny optimization.
 Initialization pass.
                           ----------------------------
                           !    Initial Parameters    !
                           ! (Angstroms and Degrees)  !
 --------------------------                            --------------------------
 ! Name  Definition              Value          Derivative Info.                !
 --------------------------------------------------------------------------------
 ! R1    R(1,2)                  1.0924         calculate D2E/DX2 analytically  !
 ! R2    R(1,3)                  1.0942         calculate D2E/DX2 analytically  !
 ! R3    R(1,4)                  1.0887         calculate D2E/DX2 analytically  !
 ! R4    R(1,27)                 1.5347         calculate D2E/DX2 analytically  !
 ! R5    R(5,6)                  1.0957         calculate D2E/DX2 analytically  !
 ! R6    R(5,7)                  1.0952         calculate D2E/DX2 analytically  !
 ! R7    R(5,8)                  1.5328         calculate D2E/DX2 analytically  !
 ! R8    R(5,27)                 1.5486         calculate D2E/DX2 analytically  !
 ! R9    R(8,9)                  1.0943         calculate D2E/DX2 analytically  !
 ! R10   R(8,10)                 1.095          calculate D2E/DX2 analytically  !
 ! R11   R(8,11)                 1.5415         calculate D2E/DX2 analytically  !
 ! R12   R(11,12)                1.1023         calculate D2E/DX2 analytically  !
 ! R13   R(11,13)                1.095          calculate D2E/DX2 analytically  !
 ! R14   R(11,14)                1.498          calculate D2E/DX2 analytically  !
 ! R15   R(14,15)                1.4932         calculate D2E/DX2 analytically  !
 ! R16   R(14,23)                1.4953         calculate D2E/DX2 analytically  !
 ! R17   R(15,16)                1.1025         calculate D2E/DX2 analytically  !
 ! R18   R(15,17)                1.0931         calculate D2E/DX2 analytically  !
 ! R19   R(15,18)                1.0915         calculate D2E/DX2 analytically  !
 ! R20   R(19,20)                1.0939         calculate D2E/DX2 analytically  !
 ! R21   R(19,21)                1.0905         calculate D2E/DX2 analytically  !
 ! R22   R(19,22)                1.0927         calculate D2E/DX2 analytically  !
 ! R23   R(19,27)                1.5348         calculate D2E/DX2 analytically  !
 ! R24   R(23,24)                1.093          calculate D2E/DX2 analytically  !
 ! R25   R(23,25)                1.1022         calculate D2E/DX2 analytically  !
 ! R26   R(23,26)                1.0921         calculate D2E/DX2 analytically  !
 ! R27   R(27,28)                1.4457         calculate D2E/DX2 analytically  !
 ! R28   R(28,29)                1.691          calculate D2E/DX2 analytically  !
 ! R29   R(29,30)                0.9664         calculate D2E/DX2 analytically  !
 ! A1    A(2,1,3)              108.6474         calculate D2E/DX2 analytically  !
 ! A2    A(2,1,4)              108.3217         calculate D2E/DX2 analytically  !
 ! A3    A(2,1,27)             109.9794         calculate D2E/DX2 analytically  !
 ! A4    A(3,1,4)              109.071          calculate D2E/DX2 analytically  !
 ! A5    A(3,1,27)             110.3681         calculate D2E/DX2 analytically  !
 ! A6    A(4,1,27)             110.4031         calculate D2E/DX2 analytically  !
 ! A7    A(6,5,7)              106.3766         calculate D2E/DX2 analytically  !
 ! A8    A(6,5,8)              108.7247         calculate D2E/DX2 analytically  !
 ! A9    A(6,5,27)             108.3016         calculate D2E/DX2 analytically  !
 ! A10   A(7,5,8)              109.0305         calculate D2E/DX2 analytically  !
 ! A11   A(7,5,27)             105.6744         calculate D2E/DX2 analytically  !
 ! A12   A(8,5,27)             118.1244         calculate D2E/DX2 analytically  !
 ! A13   A(5,8,9)              110.7551         calculate D2E/DX2 analytically  !
 ! A14   A(5,8,10)             108.558          calculate D2E/DX2 analytically  !
 ! A15   A(5,8,11)             113.0005         calculate D2E/DX2 analytically  !
 ! A16   A(9,8,10)             106.0279         calculate D2E/DX2 analytically  !
 ! A17   A(9,8,11)             110.3186         calculate D2E/DX2 analytically  !
 ! A18   A(10,8,11)            107.881          calculate D2E/DX2 analytically  !
 ! A19   A(8,11,12)            108.326          calculate D2E/DX2 analytically  !
 ! A20   A(8,11,13)            108.369          calculate D2E/DX2 analytically  !
 ! A21   A(8,11,14)            114.4859         calculate D2E/DX2 analytically  !
 ! A22   A(12,11,13)           106.4722         calculate D2E/DX2 analytically  !
 ! A23   A(12,11,14)           109.1017         calculate D2E/DX2 analytically  !
 ! A24   A(13,11,14)           109.7757         calculate D2E/DX2 analytically  !
 ! A25   A(11,14,15)           119.9704         calculate D2E/DX2 analytically  !
 ! A26   A(11,14,23)           117.8414         calculate D2E/DX2 analytically  !
 ! A27   A(15,14,23)           116.8369         calculate D2E/DX2 analytically  !
 ! A28   A(14,15,16)           110.7653         calculate D2E/DX2 analytically  !
 ! A29   A(14,15,17)           110.6511         calculate D2E/DX2 analytically  !
 ! A30   A(14,15,18)           111.8349         calculate D2E/DX2 analytically  !
 ! A31   A(16,15,17)           107.527          calculate D2E/DX2 analytically  !
 ! A32   A(16,15,18)           107.7251         calculate D2E/DX2 analytically  !
 ! A33   A(17,15,18)           108.1752         calculate D2E/DX2 analytically  !
 ! A34   A(20,19,21)           108.3969         calculate D2E/DX2 analytically  !
 ! A35   A(20,19,22)           108.2806         calculate D2E/DX2 analytically  !
 ! A36   A(20,19,27)           111.0618         calculate D2E/DX2 analytically  !
 ! A37   A(21,19,22)           108.3393         calculate D2E/DX2 analytically  !
 ! A38   A(21,19,27)           109.3185         calculate D2E/DX2 analytically  !
 ! A39   A(22,19,27)           111.3564         calculate D2E/DX2 analytically  !
 ! A40   A(14,23,24)           111.336          calculate D2E/DX2 analytically  !
 ! A41   A(14,23,25)           110.1625         calculate D2E/DX2 analytically  !
 ! A42   A(14,23,26)           112.4393         calculate D2E/DX2 analytically  !
 ! A43   A(24,23,25)           106.9046         calculate D2E/DX2 analytically  !
 ! A44   A(24,23,26)           108.4739         calculate D2E/DX2 analytically  !
 ! A45   A(25,23,26)           107.2886         calculate D2E/DX2 analytically  !
 ! A46   A(1,27,5)             108.2919         calculate D2E/DX2 analytically  !
 ! A47   A(1,27,19)            110.7742         calculate D2E/DX2 analytically  !
 ! A48   A(1,27,28)            109.601          calculate D2E/DX2 analytically  !
 ! A49   A(5,27,19)            111.5742         calculate D2E/DX2 analytically  !
 ! A50   A(5,27,28)            106.8797         calculate D2E/DX2 analytically  !
 ! A51   A(19,27,28)           109.6241         calculate D2E/DX2 analytically  !
 ! A52   A(27,28,29)           106.2356         calculate D2E/DX2 analytically  !
 ! A53   A(28,29,30)            94.2817         calculate D2E/DX2 analytically  !
 ! D1    D(2,1,27,5)            61.4956         calculate D2E/DX2 analytically  !
 ! D2    D(2,1,27,19)         -175.8478         calculate D2E/DX2 analytically  !
 ! D3    D(2,1,27,28)          -54.7578         calculate D2E/DX2 analytically  !
 ! D4    D(3,1,27,5)           -58.3647         calculate D2E/DX2 analytically  !
 ! D5    D(3,1,27,19)           64.2919         calculate D2E/DX2 analytically  !
 ! D6    D(3,1,27,28)         -174.6181         calculate D2E/DX2 analytically  !
 ! D7    D(4,1,27,5)          -179.0255         calculate D2E/DX2 analytically  !
 ! D8    D(4,1,27,19)          -56.369          calculate D2E/DX2 analytically  !
 ! D9    D(4,1,27,28)           64.7211         calculate D2E/DX2 analytically  !
 ! D10   D(6,5,8,9)           -168.4872         calculate D2E/DX2 analytically  !
 ! D11   D(6,5,8,10)            75.4925         calculate D2E/DX2 analytically  !
 ! D12   D(6,5,8,11)           -44.1352         calculate D2E/DX2 analytically  !
 ! D13   D(7,5,8,9)             75.9289         calculate D2E/DX2 analytically  !
 ! D14   D(7,5,8,10)           -40.0914         calculate D2E/DX2 analytically  !
 ! D15   D(7,5,8,11)          -159.7192         calculate D2E/DX2 analytically  !
 ! D16   D(27,5,8,9)           -44.6294         calculate D2E/DX2 analytically  !
 ! D17   D(27,5,8,10)         -160.6497         calculate D2E/DX2 analytically  !
 ! D18   D(27,5,8,11)           79.7226         calculate D2E/DX2 analytically  !
 ! D19   D(6,5,27,1)           -45.619          calculate D2E/DX2 analytically  !
 ! D20   D(6,5,27,19)         -167.7875         calculate D2E/DX2 analytically  !
 ! D21   D(6,5,27,28)           72.385          calculate D2E/DX2 analytically  !
 ! D22   D(7,5,27,1)            68.0374         calculate D2E/DX2 analytically  !
 ! D23   D(7,5,27,19)          -54.1311         calculate D2E/DX2 analytically  !
 ! D24   D(7,5,27,28)         -173.9586         calculate D2E/DX2 analytically  !
 ! D25   D(8,5,27,1)          -169.6871         calculate D2E/DX2 analytically  !
 ! D26   D(8,5,27,19)           68.1444         calculate D2E/DX2 analytically  !
 ! D27   D(8,5,27,28)          -51.6831         calculate D2E/DX2 analytically  !
 ! D28   D(5,8,11,12)          174.0435         calculate D2E/DX2 analytically  !
 ! D29   D(5,8,11,13)           58.9106         calculate D2E/DX2 analytically  !
 ! D30   D(5,8,11,14)          -63.975          calculate D2E/DX2 analytically  !
 ! D31   D(9,8,11,12)          -61.3663         calculate D2E/DX2 analytically  !
 ! D32   D(9,8,11,13)         -176.4993         calculate D2E/DX2 analytically  !
 ! D33   D(9,8,11,14)           60.6152         calculate D2E/DX2 analytically  !
 ! D34   D(10,8,11,12)          54.027          calculate D2E/DX2 analytically  !
 ! D35   D(10,8,11,13)         -61.1059         calculate D2E/DX2 analytically  !
 ! D36   D(10,8,11,14)         176.0086         calculate D2E/DX2 analytically  !
 ! D37   D(8,11,14,15)         131.7643         calculate D2E/DX2 analytically  !
 ! D38   D(8,11,14,23)         -74.8644         calculate D2E/DX2 analytically  !
 ! D39   D(12,11,14,15)       -106.6785         calculate D2E/DX2 analytically  !
 ! D40   D(12,11,14,23)         46.6929         calculate D2E/DX2 analytically  !
 ! D41   D(13,11,14,15)          9.6421         calculate D2E/DX2 analytically  !
 ! D42   D(13,11,14,23)        163.0134         calculate D2E/DX2 analytically  !
 ! D43   D(11,14,15,16)         88.1152         calculate D2E/DX2 analytically  !
 ! D44   D(11,14,15,17)       -152.7347         calculate D2E/DX2 analytically  !
 ! D45   D(11,14,15,18)        -32.063          calculate D2E/DX2 analytically  !
 ! D46   D(23,14,15,16)        -65.5151         calculate D2E/DX2 analytically  !
 ! D47   D(23,14,15,17)         53.635          calculate D2E/DX2 analytically  !
 ! D48   D(23,14,15,18)        174.3067         calculate D2E/DX2 analytically  !
 ! D49   D(11,14,23,24)        158.6957         calculate D2E/DX2 analytically  !
 ! D50   D(11,14,23,25)        -82.8812         calculate D2E/DX2 analytically  !
 ! D51   D(11,14,23,26)         36.7331         calculate D2E/DX2 analytically  !
 ! D52   D(15,14,23,24)        -47.0985         calculate D2E/DX2 analytically  !
 ! D53   D(15,14,23,25)         71.3246         calculate D2E/DX2 analytically  !
 ! D54   D(15,14,23,26)       -169.0612         calculate D2E/DX2 analytically  !
 ! D55   D(20,19,27,1)         -58.6489         calculate D2E/DX2 analytically  !
 ! D56   D(20,19,27,5)          62.0794         calculate D2E/DX2 analytically  !
 ! D57   D(20,19,27,28)       -179.7253         calculate D2E/DX2 analytically  !
 ! D58   D(21,19,27,1)          60.9133         calculate D2E/DX2 analytically  !
 ! D59   D(21,19,27,5)        -178.3584         calculate D2E/DX2 analytically  !
 ! D60   D(21,19,27,28)        -60.1631         calculate D2E/DX2 analytically  !
 ! D61   D(22,19,27,1)        -179.4121         calculate D2E/DX2 analytically  !
 ! D62   D(22,19,27,5)         -58.6837         calculate D2E/DX2 analytically  !
 ! D63   D(22,19,27,28)         59.5116         calculate D2E/DX2 analytically  !
 ! D64   D(1,27,28,29)         -53.6816         calculate D2E/DX2 analytically  !
 ! D65   D(5,27,28,29)        -170.825          calculate D2E/DX2 analytically  !
 ! D66   D(19,27,28,29)         68.1007         calculate D2E/DX2 analytically  !
 ! D67   D(27,28,29,30)       -115.4468         calculate D2E/DX2 analytically  !
 --------------------------------------------------------------------------------
 Trust Radius=3.00D-01 FncErr=1.00D-07 GrdErr=1.00D-06
 Number of steps in this run=    159 maximum allowed number of steps=    180.
 Search for a saddle point of order  1.
 GradGradGradGradGradGradGradGradGradGradGradGradGradGradGradGradGradGrad

 Leave Link  103 at Wed Apr 30 21:10:11 2014, MaxMem= 4026531840 cpu:       0.1
 (Enter /usr/caen/gaussian-09revc/g09/l202.exe)
                          Input orientation:                          
 ---------------------------------------------------------------------
 Center     Atomic      Atomic             Coordinates (Angstroms)
 Number     Number       Type             X           Y           Z
 ---------------------------------------------------------------------
      1          6           0       -2.493927   -0.093934   -1.074798
      2          1           0       -2.053725   -0.219356   -2.066711
      3          1           0       -3.234888    0.709943   -1.119958
      4          1           0       -2.992571   -1.022401   -0.801782
      5          6           0       -0.740593    1.582694   -0.474563
      6          1           0       -0.542135    1.544989   -1.551453
      7          1           0       -1.508864    2.349497   -0.328817
      8          6           0        0.540597    2.015353    0.247025
      9          1           0        0.445215    1.869755    1.327419
     10          1           0        0.678110    3.091447    0.097939
     11          6           0        1.799952    1.299697   -0.280424
     12          1           0        2.681617    1.742135    0.211430
     13          1           0        1.898586    1.517523   -1.348979
     14          6           0        1.809110   -0.182320   -0.062321
     15          6           0        2.154150   -1.099902   -1.188612
     16          1           0        3.242681   -1.267894   -1.236462
     17          1           0        1.676441   -2.073657   -1.052733
     18          1           0        1.837434   -0.696794   -2.152262
     19          6           0       -1.981849    0.324418    1.363395
     20          1           0       -2.771428    1.079145    1.422389
     21          1           0       -2.408978   -0.642227    1.632174
     22          1           0       -1.211805    0.575928    2.096754
     23          6           0        2.073976   -0.682907    1.321607
     24          1           0        1.699595   -1.701170    1.454634
     25          1           0        3.158892   -0.712674    1.513688
     26          1           0        1.626034   -0.046632    2.087908
     27          6           0       -1.399067    0.245495   -0.054307
     28          8           0       -0.364964   -0.763833   -0.098683
     29          8           0       -1.145281   -2.249628    0.108873
     30          1           0       -0.712348   -2.441434    0.951286
 ---------------------------------------------------------------------
                    Distance matrix (angstroms):
                    1          2          3          4          5
     1  C    0.000000
     2  H    1.092428   0.000000
     3  H    1.094203   1.776256   0.000000
     4  H    1.088685   1.768151   1.777911   0.000000
     5  C    2.499109   2.739824   2.720246   3.459046   0.000000
     6  H    2.592829   2.379771   2.852088   3.627414   1.095673
     7  H    2.738100   3.148993   2.508625   3.714132   1.095203
     8  C    3.924875   4.132530   4.222206   4.776109   1.532753
     9  H    4.273790   4.704169   4.569242   4.971563   2.176163
    10  H    4.645835   4.807291   4.739872   5.586335   2.148677
    11  C    4.583736   4.511005   5.138311   5.350909   2.563620
    12  H    5.640194   5.608996   6.151670   6.392626   3.493927
    13  H    4.686805   4.376374   5.201653   5.538416   2.781028
    14  C    4.421431   4.352062   5.230358   4.930383   3.128291
    15  C    4.757052   4.387782   5.685243   5.161820   4.010701
    16  H    5.857729   5.462661   6.773796   6.255204   4.957097
    17  H    4.616466   4.287274   5.645715   4.792472   4.420999
    18  H    4.503894   3.921273   5.364048   5.025810   3.828441
    19  C    2.526267   3.473684   2.808163   2.742895   2.549915
    20  H    2.772916   3.791441   2.610485   3.067953   2.824231
    21  H    2.763248   3.739890   3.175645   2.531651   3.488857
    22  H    3.485871   4.321544   3.802376   3.758629   2.801301
    23  C    5.191857   5.360363   6.007105   5.503993   4.034969
    24  H    5.154305   5.355656   6.065568   5.250577   4.523282
    25  H    6.247997   6.343027   7.059770   6.580109   4.942453
    26  H    5.194134   5.552596   5.872936   5.534794   3.849920
    27  C    1.534709   2.166664   2.172916   2.169224   1.548646
    28  O    2.435990   2.649812   3.384004   2.732311   2.405945
    29  O    2.804807   3.111341   3.825643   2.397469   3.897546
    30  H    3.576282   3.980607   4.537007   3.207229   4.269362
                    6          7          8          9         10
     6  H    0.000000
     7  H    1.754034   0.000000
     8  C    2.151296   2.154887   0.000000
     9  H    3.060758   2.606088   1.094325   0.000000
    10  H    2.569246   2.348503   1.095041   1.748826   0.000000
    11  C    2.676015   3.471698   1.541539   2.178403   2.147570
    12  H    3.679565   4.268593   2.158676   2.502641   2.418174
    13  H    2.449259   3.652893   2.153880   3.065854   2.461782
    14  C    3.275586   4.182113   2.556284   2.828886   3.467332
    15  C    3.794345   5.104437   3.790702   4.250851   4.626155
    16  H    4.726136   6.040407   4.503521   4.923834   5.230823
    17  H    4.273804   5.498592   4.438414   4.767760   5.385073
    18  H    3.323990   4.878786   3.846311   4.542425   4.556117
    19  C    3.472594   2.681090   3.235472   2.877499   4.041437
    20  H    3.745730   2.504912   3.636960   3.313740   4.207474
    21  H    4.290046   3.688645   4.204921   3.814361   5.081763
    22  H    3.833660   3.019468   2.926492   2.238656   3.727583
    23  C    4.479066   4.975552   3.284294   3.028032   4.206133
    24  H    4.959784   5.466517   4.076045   3.786972   5.084607
    25  H    5.309400   5.878747   3.987736   3.750690   4.757096
    26  H    4.525391   4.627049   2.969647   2.375966   3.834850
    27  C    2.159737   2.124673   2.643009   2.819355   3.526654
    28  O    2.733604   3.324800   2.943370   3.102570   3.998731
    29  O    4.185640   4.634190   4.588173   4.580813   5.643754
    30  H    4.710015   5.022561   4.682820   4.479707   5.768392
                   11         12         13         14         15
    11  C    0.000000
    12  H    1.102273   0.000000
    13  H    1.094982   1.760246   0.000000
    14  C    1.498008   2.130665   2.133767   0.000000
    15  C    2.590046   3.211777   2.634757   1.493165   0.000000
    16  H    3.096449   3.386954   3.094802   2.147604   1.102457
    17  H    3.462836   4.143520   3.610219   2.139082   1.093100
    18  H    2.736998   3.499723   2.356311   2.152519   1.091525
    19  C    4.237373   5.008479   4.882443   4.081767   5.064377
    20  H    4.883209   5.625094   5.448090   4.977649   5.985557
    21  H    5.014398   5.798090   5.666295   4.568927   5.384091
    22  H    3.904548   4.480315   4.736476   3.789785   4.993164
    23  C    2.563652   2.735425   3.464778   1.495325   2.545881
    24  H    3.467809   3.790287   4.273152   2.149430   2.748617
    25  H    3.019138   2.819531   3.841486   2.141726   2.908931
    26  H    2.729807   2.799127   3.785902   2.162270   3.481934
    27  C    3.375825   4.354599   3.764139   3.236586   3.965109
    28  O    2.996339   3.956981   3.448403   2.250795   2.765289
    29  O    4.628570   5.530808   5.057854   3.609916   3.727141
    30  H    4.671704   5.437705   5.270819   3.533942   3.820430
                   16         17         18         19         20
    16  H    0.000000
    17  H    1.770909   0.000000
    18  H    1.771881   1.769360   0.000000
    19  C    6.049002   4.997152   5.290524   0.000000
    20  H    6.981947   5.987481   6.097024   1.093859   0.000000
    21  H    6.368813   5.093954   5.688317   1.090451   1.771582
    22  H    5.861097   5.028075   5.382547   1.092722   1.772123
    23  C    2.872594   2.780236   3.481941   4.179254   5.156833
    24  H    3.132226   2.534990   3.746661   4.202899   5.265096
    25  H    2.806887   3.261357   3.896882   5.246462   6.195776
    26  H    3.893130   3.738315   4.294932   3.698570   4.587806
    27  C    5.023312   3.979205   3.970423   1.534843   2.181508
    28  O    3.816244   2.606374   3.012016   2.436448   3.391356
    29  O    4.693393   3.056536   4.052236   2.983184   3.930701
    30  H    4.669657   3.139692   4.379174   3.071059   4.105633
                   21         22         23         24         25
    21  H    0.000000
    22  H    1.770017   0.000000
    23  C    4.493883   3.603037   0.000000
    24  H    4.246558   3.751499   1.093031   0.000000
    25  H    5.569576   4.593850   1.102191   1.763564   0.000000
    26  H    4.104114   2.905338   1.092115   1.773117   1.767200
    27  C    2.156893   2.184334   3.849298   3.958297   4.914437
    28  O    2.681165   2.707775   2.823509   2.748417   3.875554
    29  O    2.549728   3.455411   3.780073   3.194558   4.781385
    30  H    2.565016   3.265888   3.315593   2.572707   4.276845
                   26         27         28         29         30
    26  H    0.000000
    27  C    3.718287   0.000000
    28  O    3.042964   1.445711   0.000000
    29  O    4.055855   2.513299   1.691024   0.000000
    30  H    3.534829   2.949981   2.009342   0.966375   0.000000
 Stoichiometry    C9H19O2(2)
 Framework group  C1[X(C9H19O2)]
 Deg. of freedom    84
 Full point group                 C1      NOp   1
 Largest Abelian subgroup         C1      NOp   1
 Largest concise Abelian subgroup C1      NOp   1
                         Standard orientation:                         
 ---------------------------------------------------------------------
 Center     Atomic      Atomic             Coordinates (Angstroms)
 Number     Number       Type             X           Y           Z
 ---------------------------------------------------------------------
      1          6           0       -2.493927   -0.093934   -1.074798
      2          1           0       -2.053725   -0.219356   -2.066711
      3          1           0       -3.234888    0.709943   -1.119958
      4          1           0       -2.992571   -1.022401   -0.801782
      5          6           0       -0.740593    1.582694   -0.474563
      6          1           0       -0.542135    1.544989   -1.551453
      7          1           0       -1.508864    2.349497   -0.328817
      8          6           0        0.540597    2.015353    0.247025
      9          1           0        0.445215    1.869755    1.327419
     10          1           0        0.678110    3.091447    0.097939
     11          6           0        1.799952    1.299697   -0.280424
     12          1           0        2.681617    1.742135    0.211430
     13          1           0        1.898586    1.517523   -1.348979
     14          6           0        1.809110   -0.182320   -0.062321
     15          6           0        2.154150   -1.099902   -1.188612
     16          1           0        3.242681   -1.267894   -1.236462
     17          1           0        1.676441   -2.073657   -1.052733
     18          1           0        1.837434   -0.696794   -2.152262
     19          6           0       -1.981849    0.324418    1.363395
     20          1           0       -2.771428    1.079145    1.422389
     21          1           0       -2.408978   -0.642227    1.632174
     22          1           0       -1.211805    0.575928    2.096754
     23          6           0        2.073976   -0.682907    1.321607
     24          1           0        1.699595   -1.701170    1.454634
     25          1           0        3.158892   -0.712674    1.513688
     26          1           0        1.626034   -0.046632    2.087908
     27          6           0       -1.399067    0.245495   -0.054307
     28          8           0       -0.364964   -0.763833   -0.098683
     29          8           0       -1.145281   -2.249628    0.108873
     30          1           0       -0.712348   -2.441434    0.951286
 ---------------------------------------------------------------------
 Rotational constants (GHZ):      1.3474839      0.8902537      0.7141236
 Leave Link  202 at Wed Apr 30 21:10:11 2014, MaxMem= 4026531840 cpu:       0.3
 (Enter /usr/caen/gaussian-09revc/g09/l301.exe)
 Standard basis: 6-311G(2d,d,p) (5D, 7F)
 Ernie: Thresh=  0.10000D-02 Tol=  0.10000D-05 Strict=F.
 There are   312 symmetry adapted basis functions of A   symmetry.
 Integral buffers will be    131072 words long.
 Raffenetti 2 integral format.
 Two-electron integral symmetry is turned on.
   312 basis functions,   504 primitive gaussians,   323 cartesian basis functions
    45 alpha electrons       44 beta electrons
       nuclear repulsion energy       711.5160827979 Hartrees.
 IExCor=  402 DFT=T Ex+Corr=B3LYP ExCW=0 ScaHFX=  0.200000
 ScaDFX=  0.800000  0.720000  1.000000  0.810000 ScalE2=  1.000000  1.000000
 IRadAn=      0 IRanWt=     -1 IRanGd=            0 ICorTp=0
 NAtoms=   30 NActive=   30 NUniq=   30 SFac= 1.00D+00 NAtFMM=   60 NAOKFM=F Big=F
 Leave Link  301 at Wed Apr 30 21:10:11 2014, MaxMem= 4026531840 cpu:       0.3
 (Enter /usr/caen/gaussian-09revc/g09/l302.exe)
 NPDir=0 NMtPBC=     1 NCelOv=     1 NCel=       1 NClECP=     1 NCelD=      1
         NCelK=      1 NCelE2=     1 NClLst=     1 CellRange=     0.0.
 One-electron integrals computed using PRISM.
 NBasis=   312 RedAO= T  NBF=   312
 NBsUse=   312 1.00D-06 NBFU=   312
 Precomputing XC quadrature grid using
 IXCGrd= 2 IRadAn=           0 IRanWt=          -1 IRanGd=           0 AccXCQ= 0.00D+00.
 NRdTot=    1905 NPtTot=      241654 NUsed=      255392 NTot=      255424
 NSgBfM=   323   323   323   323   323 NAtAll=    30    30.
 Leave Link  302 at Wed Apr 30 21:10:12 2014, MaxMem= 4026531840 cpu:       5.5
 (Enter /usr/caen/gaussian-09revc/g09/l303.exe)
 DipDrv:  MaxL=1.
 Leave Link  303 at Wed Apr 30 21:10:13 2014, MaxMem= 4026531840 cpu:       1.0
 (Enter /usr/caen/gaussian-09revc/g09/l401.exe)
 Harris functional with IExCor=  402 diagonalized for initial guess.
 ExpMin= 1.03D-01 ExpMax= 8.59D+03 ExpMxC= 1.30D+03 IAcc=1 IRadAn=         1 AccDes= 0.00D+00
 HarFok:  IExCor=  402 AccDes= 0.00D+00 IRadAn=         1 IDoV= 1
 ScaDFX=  1.000000  1.000000  1.000000  1.000000
 FoFCou: FMM=F IPFlag=           0 FMFlag=      100000 FMFlg1=           0
         NFxFlg=           0 DoJE=T BraDBF=F KetDBF=T FulRan=T
         Omega=  0.000000  0.000000  1.000000  0.000000  0.000000 ICntrl=     500 IOpCl=  0
         NMat0=    1 NMatS0=    1 NMatT0=    0 NMatD0=    1 NMtDS0=    0 NMtDT0=    0
         I1Cent=           4 NGrid=           0.
 Petite list used in FoFCou.
 Harris En= -504.922887343254    
 Initial guess orbital symmetries:
 Alpha Orbitals:
       Occupied  (A) (A) (A) (A) (A) (A) (A) (A) (A) (A) (A) (A)
                 (A) (A) (A) (A) (A) (A) (A) (A) (A) (A) (A) (A)
                 (A) (A) (A) (A) (A) (A) (A) (A) (A) (A) (A) (A)
                 (A) (A) (A) (A) (A) (A) (A) (A) (A)
       Virtual   (A) (A) (A) (A) (A) (A) (A) (A) (A) (A) (A) (A)
                 (A) (A) (A) (A) (A) (A) (A) (A) (A) (A) (A) (A)
                 (A) (A) (A) (A) (A) (A) (A) (A) (A) (A) (A) (A)
                 (A) (A) (A) (A) (A) (A) (A) (A) (A) (A) (A) (A)
                 (A) (A) (A) (A) (A) (A) (A) (A) (A) (A) (A) (A)
                 (A) (A) (A) (A) (A) (A) (A) (A) (A) (A) (A) (A)
                 (A) (A) (A) (A) (A) (A) (A) (A) (A) (A) (A) (A)
                 (A) (A) (A) (A) (A) (A) (A) (A) (A) (A) (A) (A)
                 (A) (A) (A) (A) (A) (A) (A) (A) (A) (A) (A) (A)
                 (A) (A) (A) (A) (A) (A) (A) (A) (A) (A) (A) (A)
                 (A) (A) (A) (A) (A) (A) (A) (A) (A) (A) (A) (A)
                 (A) (A) (A) (A) (A) (A) (A) (A) (A) (A) (A) (A)
                 (A) (A) (A) (A) (A) (A) (A) (A) (A) (A) (A) (A)
                 (A) (A) (A) (A) (A) (A) (A) (A) (A) (A) (A) (A)
                 (A) (A) (A) (A) (A) (A) (A) (A) (A) (A) (A) (A)
                 (A) (A) (A) (A) (A) (A) (A) (A) (A) (A) (A) (A)
                 (A) (A) (A) (A) (A) (A) (A) (A) (A) (A) (A) (A)
                 (A) (A) (A) (A) (A) (A) (A) (A) (A) (A) (A) (A)
                 (A) (A) (A) (A) (A) (A) (A) (A) (A) (A) (A) (A)
                 (A) (A) (A) (A) (A) (A) (A) (A) (A) (A) (A) (A)
                 (A) (A) (A) (A) (A) (A) (A) (A) (A) (A) (A) (A)
                 (A) (A) (A) (A) (A) (A) (A) (A) (A) (A) (A) (A)
                 (A) (A) (A)
 Beta  Orbitals:
       Occupied  (A) (A) (A) (A) (A) (A) (A) (A) (A) (A) (A) (A)
                 (A) (A) (A) (A) (A) (A) (A) (A) (A) (A) (A) (A)
                 (A) (A) (A) (A) (A) (A) (A) (A) (A) (A) (A) (A)
                 (A) (A) (A) (A) (A) (A) (A) (A)
       Virtual   (A) (A) (A) (A) (A) (A) (A) (A) (A) (A) (A) (A)
                 (A) (A) (A) (A) (A) (A) (A) (A) (A) (A) (A) (A)
                 (A) (A) (A) (A) (A) (A) (A) (A) (A) (A) (A) (A)
                 (A) (A) (A) (A) (A) (A) (A) (A) (A) (A) (A) (A)
                 (A) (A) (A) (A) (A) (A) (A) (A) (A) (A) (A) (A)
                 (A) (A) (A) (A) (A) (A) (A) (A) (A) (A) (A) (A)
                 (A) (A) (A) (A) (A) (A) (A) (A) (A) (A) (A) (A)
                 (A) (A) (A) (A) (A) (A) (A) (A) (A) (A) (A) (A)
                 (A) (A) (A) (A) (A) (A) (A) (A) (A) (A) (A) (A)
                 (A) (A) (A) (A) (A) (A) (A) (A) (A) (A) (A) (A)
                 (A) (A) (A) (A) (A) (A) (A) (A) (A) (A) (A) (A)
                 (A) (A) (A) (A) (A) (A) (A) (A) (A) (A) (A) (A)
                 (A) (A) (A) (A) (A) (A) (A) (A) (A) (A) (A) (A)
                 (A) (A) (A) (A) (A) (A) (A) (A) (A) (A) (A) (A)
                 (A) (A) (A) (A) (A) (A) (A) (A) (A) (A) (A) (A)
                 (A) (A) (A) (A) (A) (A) (A) (A) (A) (A) (A) (A)
                 (A) (A) (A) (A) (A) (A) (A) (A) (A) (A) (A) (A)
                 (A) (A) (A) (A) (A) (A) (A) (A) (A) (A) (A) (A)
                 (A) (A) (A) (A) (A) (A) (A) (A) (A) (A) (A) (A)
                 (A) (A) (A) (A) (A) (A) (A) (A) (A) (A) (A) (A)
                 (A) (A) (A) (A) (A) (A) (A) (A) (A) (A) (A) (A)
                 (A) (A) (A) (A) (A) (A) (A) (A) (A) (A) (A) (A)
                 (A) (A) (A) (A)
 The electronic state of the initial guess is 2-A.
 Initial guess <Sx>= 0.0000 <Sy>= 0.0000 <Sz>= 0.5000 <S**2>= 0.7500 S= 0.5000
 Leave Link  401 at Wed Apr 30 21:10:14 2014, MaxMem= 4026531840 cpu:      10.3
 (Enter /usr/caen/gaussian-09revc/g09/l502.exe)
 UHF open shell SCF:
 Requested convergence on RMS density matrix=1.00D-08 within 128 cycles.
 Requested convergence on MAX density matrix=1.00D-06.
 Requested convergence on             energy=1.00D-06.
 No special actions if energy rises.
 Using DIIS extrapolation, IDIIS=  1040.
 Integral symmetry usage will be decided dynamically.
       255109 words used for storage of precomputed grid.
 Keep R1 and R2 ints in memory in canonical form, NReq=2755659840.
 IEnd=      591267 IEndB=      591267 NGot=  4026531840 MDV=  1287999236
 LenX=  1287999236 LenY=  1287894466
 Symmetry not used in FoFDir.
 MinBra= 0 MaxBra= 2 Meth= 1.
 IRaf=       0 NMat=   1 IRICut=       1 DoRegI=T DoRafI=F ISym2E= 0 JSym2E=0.
 Integral accuracy reduced to 1.0D-05 until final iterations.

 Cycle   1  Pass 0  IDiag  1:
 E= -504.421887979102    
 DIIS: error= 3.67D-02 at cycle   1 NSaved=   1.
 NSaved= 1 IEnMin= 1 EnMin= -504.421887979102     IErMin= 1 ErrMin= 3.67D-02
 ErrMax= 3.67D-02 EMaxC= 1.00D-01 BMatC= 1.73D+00 BMatP= 1.73D+00
 IDIUse=3 WtCom= 6.33D-01 WtEn= 3.67D-01
 Coeff-Com:  0.100D+01
 Coeff-En:   0.100D+01
 Coeff:      0.100D+01
 Gap=     0.098 Goal=   None    Shift=    0.000
 Gap=     0.171 Goal=   None    Shift=    0.000
 GapD=    0.098 DampG=0.500 DampE=0.500 DampFc=0.2500 IDamp=-1.
 Damping current iteration by 2.50D-01
 RMSDP=3.94D-03 MaxDP=1.49D-01              OVMax= 4.07D-01

 Cycle   2  Pass 0  IDiag  1:
 E= -504.572491822284     Delta-E=       -0.150603843182 Rises=F Damp=T
 DIIS: error= 1.79D-02 at cycle   2 NSaved=   2.
 NSaved= 2 IEnMin= 2 EnMin= -504.572491822284     IErMin= 2 ErrMin= 1.79D-02
 ErrMax= 1.79D-02 EMaxC= 1.00D-01 BMatC= 4.01D-01 BMatP= 1.73D+00
 IDIUse=3 WtCom= 8.21D-01 WtEn= 1.79D-01
 Coeff-Com: -0.734D+00 0.173D+01
 Coeff-En:   0.000D+00 0.100D+01
 Coeff:     -0.602D+00 0.160D+01
 Gap=     0.114 Goal=   None    Shift=    0.000
 Gap=     0.250 Goal=   None    Shift=    0.000
 RMSDP=1.11D-03 MaxDP=4.00D-02 DE=-1.51D-01 OVMax= 4.32D-01

 Cycle   3  Pass 0  IDiag  1:
 E= -504.778833337256     Delta-E=       -0.206341514972 Rises=F Damp=F
 DIIS: error= 1.37D-02 at cycle   3 NSaved=   3.
 NSaved= 3 IEnMin= 3 EnMin= -504.778833337256     IErMin= 3 ErrMin= 1.37D-02
 ErrMax= 1.37D-02 EMaxC= 1.00D-01 BMatC= 2.40D-01 BMatP= 4.01D-01
 IDIUse=3 WtCom= 8.63D-01 WtEn= 1.37D-01
 Coeff-Com: -0.475D+00 0.109D+01 0.387D+00
 Coeff-En:   0.000D+00 0.000D+00 0.100D+01
 Coeff:     -0.410D+00 0.939D+00 0.471D+00
 Gap=     0.093 Goal=   None    Shift=    0.000
 Gap=     0.199 Goal=   None    Shift=    0.000
 RMSDP=1.25D-03 MaxDP=8.38D-02 DE=-2.06D-01 OVMax= 3.32D-01

 Cycle   4  Pass 0  IDiag  1:
 E= -504.803735035410     Delta-E=       -0.024901698154 Rises=F Damp=F
 DIIS: error= 9.59D-03 at cycle   4 NSaved=   4.
 NSaved= 4 IEnMin= 4 EnMin= -504.803735035410     IErMin= 4 ErrMin= 9.59D-03
 ErrMax= 9.59D-03 EMaxC= 1.00D-01 BMatC= 1.35D-01 BMatP= 2.40D-01
 IDIUse=3 WtCom= 9.04D-01 WtEn= 9.59D-02
 Coeff-Com: -0.493D-01 0.152D+00 0.405D+00 0.493D+00
 Coeff-En:   0.000D+00 0.000D+00 0.396D+00 0.604D+00
 Coeff:     -0.446D-01 0.137D+00 0.404D+00 0.504D+00
 Gap=     0.099 Goal=   None    Shift=    0.000
 Gap=     0.197 Goal=   None    Shift=    0.000
 RMSDP=5.94D-04 MaxDP=2.97D-02 DE=-2.49D-02 OVMax= 1.36D-01

 Cycle   5  Pass 0  IDiag  1:
 E= -504.834013850871     Delta-E=       -0.030278815461 Rises=F Damp=F
 DIIS: error= 1.49D-03 at cycle   5 NSaved=   5.
 NSaved= 5 IEnMin= 5 EnMin= -504.834013850871     IErMin= 5 ErrMin= 1.49D-03
 ErrMax= 1.49D-03 EMaxC= 1.00D-01 BMatC= 2.11D-03 BMatP= 1.35D-01
 IDIUse=3 WtCom= 9.85D-01 WtEn= 1.49D-02
 Coeff-Com:  0.831D-02-0.663D-02 0.149D+00 0.218D+00 0.632D+00
 Coeff-En:   0.000D+00 0.000D+00 0.000D+00 0.000D+00 0.100D+01
 Coeff:      0.818D-02-0.653D-02 0.147D+00 0.214D+00 0.637D+00
 Gap=     0.106 Goal=   None    Shift=    0.000
 Gap=     0.183 Goal=   None    Shift=    0.000
 RMSDP=1.15D-04 MaxDP=5.05D-03 DE=-3.03D-02 OVMax= 1.59D-02

 Cycle   6  Pass 0  IDiag  1:
 E= -504.834622513109     Delta-E=       -0.000608662238 Rises=F Damp=F
 DIIS: error= 7.46D-04 at cycle   6 NSaved=   6.
 NSaved= 6 IEnMin= 6 EnMin= -504.834622513109     IErMin= 6 ErrMin= 7.46D-04
 ErrMax= 7.46D-04 EMaxC= 1.00D-01 BMatC= 5.72D-04 BMatP= 2.11D-03
 IDIUse=3 WtCom= 9.93D-01 WtEn= 7.46D-03
 Coeff-Com:  0.972D-02-0.223D-01-0.882D-02-0.186D-01 0.289D+00 0.751D+00
 Coeff-En:   0.000D+00 0.000D+00 0.000D+00 0.000D+00 0.000D+00 0.100D+01
 Coeff:      0.965D-02-0.222D-01-0.876D-02-0.185D-01 0.287D+00 0.752D+00
 Gap=     0.109 Goal=   None    Shift=    0.000
 Gap=     0.185 Goal=   None    Shift=    0.000
 RMSDP=4.71D-05 MaxDP=2.37D-03 DE=-6.09D-04 OVMax= 6.53D-03

 Cycle   7  Pass 0  IDiag  1:
 E= -504.834872512635     Delta-E=       -0.000249999526 Rises=F Damp=F
 DIIS: error= 3.01D-04 at cycle   7 NSaved=   7.
 NSaved= 7 IEnMin= 7 EnMin= -504.834872512635     IErMin= 7 ErrMin= 3.01D-04
 ErrMax= 3.01D-04 EMaxC= 1.00D-01 BMatC= 1.26D-04 BMatP= 5.72D-04
 IDIUse=3 WtCom= 9.97D-01 WtEn= 3.01D-03
 Coeff-Com:  0.126D-02-0.435D-02-0.309D-01-0.577D-01-0.225D-02 0.281D+00
 Coeff-Com:  0.813D+00
 Coeff-En:   0.000D+00 0.000D+00 0.000D+00 0.000D+00 0.000D+00 0.000D+00
 Coeff-En:   0.100D+01
 Coeff:      0.126D-02-0.433D-02-0.308D-01-0.575D-01-0.224D-02 0.280D+00
 Coeff:      0.814D+00
 Gap=     0.109 Goal=   None    Shift=    0.000
 Gap=     0.187 Goal=   None    Shift=    0.000
 RMSDP=3.74D-05 MaxDP=1.78D-03 DE=-2.50D-04 OVMax= 4.84D-03

 Cycle   8  Pass 0  IDiag  1:
 E= -504.834944104809     Delta-E=       -0.000071592174 Rises=F Damp=F
 DIIS: error= 4.14D-04 at cycle   8 NSaved=   8.
 NSaved= 8 IEnMin= 8 EnMin= -504.834944104809     IErMin= 7 ErrMin= 3.01D-04
 ErrMax= 4.14D-04 EMaxC= 1.00D-01 BMatC= 1.42D-04 BMatP= 1.26D-04
 IDIUse=3 WtCom= 9.97D-01 WtEn= 3.01D-03
 Coeff-Com: -0.377D-02 0.773D-02-0.195D-01-0.407D-01-0.152D+00-0.139D+00
 Coeff-Com:  0.807D+00 0.540D+00
 Coeff-En:   0.000D+00 0.000D+00 0.000D+00 0.000D+00 0.000D+00 0.000D+00
 Coeff-En:   0.000D+00 0.100D+01
 Coeff:     -0.376D-02 0.771D-02-0.195D-01-0.406D-01-0.152D+00-0.138D+00
 Coeff:      0.804D+00 0.542D+00
 Gap=     0.111 Goal=   None    Shift=    0.000
 Gap=     0.187 Goal=   None    Shift=    0.000
 RMSDP=2.64D-05 MaxDP=1.44D-03 DE=-7.16D-05 OVMax= 4.15D-03

 Cycle   9  Pass 0  IDiag  1:
 E= -504.835004893387     Delta-E=       -0.000060788578 Rises=F Damp=F
 DIIS: error= 1.21D-04 at cycle   9 NSaved=   9.
 NSaved= 9 IEnMin= 9 EnMin= -504.835004893387     IErMin= 9 ErrMin= 1.21D-04
 ErrMax= 1.21D-04 EMaxC= 1.00D-01 BMatC= 8.18D-06 BMatP= 1.26D-04
 IDIUse=3 WtCom= 9.99D-01 WtEn= 1.21D-03
 Coeff-Com: -0.181D-02 0.358D-02-0.172D-02-0.394D-03-0.584D-01-0.138D+00
 Coeff-Com:  0.658D-01 0.986D-01 0.103D+01
 Coeff-En:   0.000D+00 0.000D+00 0.000D+00 0.000D+00 0.000D+00 0.000D+00
 Coeff-En:   0.000D+00 0.000D+00 0.100D+01
 Coeff:     -0.181D-02 0.358D-02-0.171D-02-0.394D-03-0.584D-01-0.138D+00
 Coeff:      0.657D-01 0.984D-01 0.103D+01
 Gap=     0.111 Goal=   None    Shift=    0.000
 Gap=     0.187 Goal=   None    Shift=    0.000
 RMSDP=1.82D-05 MaxDP=1.00D-03 DE=-6.08D-05 OVMax= 2.79D-03

 Cycle  10  Pass 0  IDiag  1:
 E= -504.835018017239     Delta-E=       -0.000013123853 Rises=F Damp=F
 DIIS: error= 8.19D-05 at cycle  10 NSaved=  10.
 NSaved=10 IEnMin=10 EnMin= -504.835018017239     IErMin=10 ErrMin= 8.19D-05
 ErrMax= 8.19D-05 EMaxC= 1.00D-01 BMatC= 7.90D-06 BMatP= 8.18D-06
 IDIUse=1 WtCom= 1.00D+00 WtEn= 0.00D+00
 Coeff-Com: -0.624D-03 0.745D-03 0.143D-02 0.852D-02 0.783D-02-0.195D-01
 Coeff-Com: -0.101D+00-0.165D+00 0.472D+00 0.796D+00
 Coeff:     -0.624D-03 0.745D-03 0.143D-02 0.852D-02 0.783D-02-0.195D-01
 Coeff:     -0.101D+00-0.165D+00 0.472D+00 0.796D+00
 Gap=     0.112 Goal=   None    Shift=    0.000
 Gap=     0.187 Goal=   None    Shift=    0.000
 RMSDP=7.12D-06 MaxDP=3.50D-04 DE=-1.31D-05 OVMax= 1.21D-03

 Initial convergence to 1.0D-05 achieved.  Increase integral accuracy.
 Cycle  11  Pass 1  IDiag  1:
 E= -504.835198066904     Delta-E=       -0.000180049665 Rises=F Damp=F
 DIIS: error= 4.21D-05 at cycle   1 NSaved=   1.
 NSaved= 1 IEnMin= 1 EnMin= -504.835198066904     IErMin= 1 ErrMin= 4.21D-05
 ErrMax= 4.21D-05 EMaxC= 1.00D-01 BMatC= 3.52D-06 BMatP= 3.52D-06
 IDIUse=1 WtCom= 1.00D+00 WtEn= 0.00D+00
 Coeff-Com:  0.100D+01
 Coeff:      0.100D+01
 Gap=     0.112 Goal=   None    Shift=    0.000
 Gap=     0.187 Goal=   None    Shift=    0.000
 RMSDP=7.12D-06 MaxDP=3.50D-04 DE=-1.80D-04 OVMax= 1.31D-03

 Cycle  12  Pass 1  IDiag  1:
 E= -504.835196693399     Delta-E=        0.000001373505 Rises=F Damp=F
 DIIS: error= 8.09D-05 at cycle   2 NSaved=   2.
 NSaved= 2 IEnMin= 1 EnMin= -504.835198066904     IErMin= 1 ErrMin= 4.21D-05
 ErrMax= 8.09D-05 EMaxC= 1.00D-01 BMatC= 1.05D-05 BMatP= 3.52D-06
 IDIUse=1 WtCom= 1.00D+00 WtEn= 0.00D+00
 Coeff-Com:  0.649D+00 0.351D+00
 Coeff:      0.649D+00 0.351D+00
 Gap=     0.112 Goal=   None    Shift=    0.000
 Gap=     0.187 Goal=   None    Shift=    0.000
 RMSDP=7.62D-06 MaxDP=5.27D-04 DE= 1.37D-06 OVMax= 2.25D-03

 Cycle  13  Pass 1  IDiag  1:
 E= -504.835199203376     Delta-E=       -0.000002509977 Rises=F Damp=F
 DIIS: error= 3.27D-05 at cycle   3 NSaved=   3.
 NSaved= 3 IEnMin= 3 EnMin= -504.835199203376     IErMin= 3 ErrMin= 3.27D-05
 ErrMax= 3.27D-05 EMaxC= 1.00D-01 BMatC= 1.18D-06 BMatP= 3.52D-06
 IDIUse=1 WtCom= 1.00D+00 WtEn= 0.00D+00
 Coeff-Com:  0.484D-01 0.245D+00 0.707D+00
 Coeff:      0.484D-01 0.245D+00 0.707D+00
 Gap=     0.112 Goal=   None    Shift=    0.000
 Gap=     0.187 Goal=   None    Shift=    0.000
 RMSDP=1.71D-06 MaxDP=8.00D-05 DE=-2.51D-06 OVMax= 2.76D-04

 Cycle  14  Pass 1  IDiag  1:
 E= -504.835199504173     Delta-E=       -0.000000300798 Rises=F Damp=F
 DIIS: error= 1.29D-05 at cycle   4 NSaved=   4.
 NSaved= 4 IEnMin= 4 EnMin= -504.835199504173     IErMin= 4 ErrMin= 1.29D-05
 ErrMax= 1.29D-05 EMaxC= 1.00D-01 BMatC= 2.87D-07 BMatP= 1.18D-06
 IDIUse=1 WtCom= 1.00D+00 WtEn= 0.00D+00
 Coeff-Com: -0.962D-01 0.139D+00 0.421D+00 0.537D+00
 Coeff:     -0.962D-01 0.139D+00 0.421D+00 0.537D+00
 Gap=     0.112 Goal=   None    Shift=    0.000
 Gap=     0.187 Goal=   None    Shift=    0.000
 RMSDP=1.05D-06 MaxDP=5.60D-05 DE=-3.01D-07 OVMax= 1.81D-04

 Cycle  15  Pass 1  IDiag  1:
 E= -504.835199588533     Delta-E=       -0.000000084360 Rises=F Damp=F
 DIIS: error= 1.49D-05 at cycle   5 NSaved=   5.
 NSaved= 5 IEnMin= 5 EnMin= -504.835199588533     IErMin= 4 ErrMin= 1.29D-05
 ErrMax= 1.49D-05 EMaxC= 1.00D-01 BMatC= 1.18D-07 BMatP= 2.87D-07
 IDIUse=1 WtCom= 1.00D+00 WtEn= 0.00D+00
 Coeff-Com: -0.812D-01 0.568D-01 0.531D-01 0.370D+00 0.602D+00
 Coeff:     -0.812D-01 0.568D-01 0.531D-01 0.370D+00 0.602D+00
 Gap=     0.112 Goal=   None    Shift=    0.000
 Gap=     0.187 Goal=   None    Shift=    0.000
 RMSDP=7.40D-07 MaxDP=3.60D-05 DE=-8.44D-08 OVMax= 1.36D-04

 Cycle  16  Pass 1  IDiag  1:
 E= -504.835199632624     Delta-E=       -0.000000044090 Rises=F Damp=F
 DIIS: error= 6.56D-06 at cycle   6 NSaved=   6.
 NSaved= 6 IEnMin= 6 EnMin= -504.835199632624     IErMin= 6 ErrMin= 6.56D-06
 ErrMax= 6.56D-06 EMaxC= 1.00D-01 BMatC= 5.05D-08 BMatP= 1.18D-07
 IDIUse=1 WtCom= 1.00D+00 WtEn= 0.00D+00
 Coeff-Com:  0.151D-01-0.512D-01-0.391D+00-0.189D+00 0.592D+00 0.102D+01
 Coeff:      0.151D-01-0.512D-01-0.391D+00-0.189D+00 0.592D+00 0.102D+01
 Gap=     0.112 Goal=   None    Shift=    0.000
 Gap=     0.187 Goal=   None    Shift=    0.000
 RMSDP=1.13D-06 MaxDP=5.51D-05 DE=-4.41D-08 OVMax= 1.95D-04

 Cycle  17  Pass 1  IDiag  1:
 E= -504.835199667655     Delta-E=       -0.000000035031 Rises=F Damp=F
 DIIS: error= 1.82D-06 at cycle   7 NSaved=   7.
 NSaved= 7 IEnMin= 7 EnMin= -504.835199667655     IErMin= 7 ErrMin= 1.82D-06
 ErrMax= 1.82D-06 EMaxC= 1.00D-01 BMatC= 3.21D-09 BMatP= 5.05D-08
 IDIUse=1 WtCom= 1.00D+00 WtEn= 0.00D+00
 Coeff-Com:  0.148D-01-0.290D-01-0.150D+00-0.118D+00 0.185D+00 0.388D+00
 Coeff-Com:  0.709D+00
 Coeff:      0.148D-01-0.290D-01-0.150D+00-0.118D+00 0.185D+00 0.388D+00
 Coeff:      0.709D+00
 Gap=     0.112 Goal=   None    Shift=    0.000
 Gap=     0.187 Goal=   None    Shift=    0.000
 RMSDP=1.73D-07 MaxDP=9.05D-06 DE=-3.50D-08 OVMax= 2.47D-05

 Cycle  18  Pass 1  IDiag  1:
 E= -504.835199669520     Delta-E=       -0.000000001864 Rises=F Damp=F
 DIIS: error= 8.11D-07 at cycle   8 NSaved=   8.
 NSaved= 8 IEnMin= 8 EnMin= -504.835199669520     IErMin= 8 ErrMin= 8.11D-07
 ErrMax= 8.11D-07 EMaxC= 1.00D-01 BMatC= 1.63D-09 BMatP= 3.21D-09
 IDIUse=1 WtCom= 1.00D+00 WtEn= 0.00D+00
 Coeff-Com:  0.857D-03-0.497D-03 0.773D-01 0.150D-01-0.119D+00-0.181D+00
 Coeff-Com:  0.268D+00 0.940D+00
 Coeff:      0.857D-03-0.497D-03 0.773D-01 0.150D-01-0.119D+00-0.181D+00
 Coeff:      0.268D+00 0.940D+00
 Gap=     0.112 Goal=   None    Shift=    0.000
 Gap=     0.187 Goal=   None    Shift=    0.000
 RMSDP=1.18D-07 MaxDP=5.41D-06 DE=-1.86D-09 OVMax= 1.52D-05

 Cycle  19  Pass 1  IDiag  1:
 E= -504.835199670472     Delta-E=       -0.000000000952 Rises=F Damp=F
 DIIS: error= 4.83D-07 at cycle   9 NSaved=   9.
 NSaved= 9 IEnMin= 9 EnMin= -504.835199670472     IErMin= 9 ErrMin= 4.83D-07
 ErrMax= 4.83D-07 EMaxC= 1.00D-01 BMatC= 3.03D-10 BMatP= 1.63D-09
 IDIUse=1 WtCom= 1.00D+00 WtEn= 0.00D+00
 Coeff-Com: -0.423D-02 0.572D-02 0.772D-01 0.416D-01-0.109D+00-0.183D+00
 Coeff-Com: -0.133D+00 0.346D+00 0.958D+00
 Coeff:     -0.423D-02 0.572D-02 0.772D-01 0.416D-01-0.109D+00-0.183D+00
 Coeff:     -0.133D+00 0.346D+00 0.958D+00
 Gap=     0.112 Goal=   None    Shift=    0.000
 Gap=     0.187 Goal=   None    Shift=    0.000
 RMSDP=7.39D-08 MaxDP=3.34D-06 DE=-9.52D-10 OVMax= 1.01D-05

 Cycle  20  Pass 1  IDiag  1:
 E= -504.835199670671     Delta-E=       -0.000000000199 Rises=F Damp=F
 DIIS: error= 1.52D-07 at cycle  10 NSaved=  10.
 NSaved=10 IEnMin=10 EnMin= -504.835199670671     IErMin=10 ErrMin= 1.52D-07
 ErrMax= 1.52D-07 EMaxC= 1.00D-01 BMatC= 4.14D-11 BMatP= 3.03D-10
 IDIUse=1 WtCom= 1.00D+00 WtEn= 0.00D+00
 Coeff-Com: -0.181D-02 0.227D-02 0.262D-01 0.173D-01-0.354D-01-0.583D-01
 Coeff-Com: -0.903D-01 0.429D-01 0.421D+00 0.676D+00
 Coeff:     -0.181D-02 0.227D-02 0.262D-01 0.173D-01-0.354D-01-0.583D-01
 Coeff:     -0.903D-01 0.429D-01 0.421D+00 0.676D+00
 Gap=     0.112 Goal=   None    Shift=    0.000
 Gap=     0.187 Goal=   None    Shift=    0.000
 RMSDP=1.48D-08 MaxDP=1.02D-06 DE=-1.99D-10 OVMax= 1.41D-06

 Cycle  21  Pass 1  IDiag  1:
 E= -504.835199670680     Delta-E=       -0.000000000008 Rises=F Damp=F
 DIIS: error= 5.18D-08 at cycle  11 NSaved=  11.
 NSaved=11 IEnMin=11 EnMin= -504.835199670680     IErMin=11 ErrMin= 5.18D-08
 ErrMax= 5.18D-08 EMaxC= 1.00D-01 BMatC= 3.97D-12 BMatP= 4.14D-11
 IDIUse=1 WtCom= 1.00D+00 WtEn= 0.00D+00
 Coeff-Com: -0.107D-03-0.878D-04-0.125D-02 0.654D-03 0.254D-02 0.482D-02
 Coeff-Com: -0.179D-01-0.387D-01 0.355D-01 0.313D+00 0.701D+00
 Coeff:     -0.107D-03-0.878D-04-0.125D-02 0.654D-03 0.254D-02 0.482D-02
 Coeff:     -0.179D-01-0.387D-01 0.355D-01 0.313D+00 0.701D+00
 Gap=     0.112 Goal=   None    Shift=    0.000
 Gap=     0.187 Goal=   None    Shift=    0.000
 RMSDP=4.90D-09 MaxDP=1.70D-07 DE=-8.19D-12 OVMax= 5.54D-07

 SCF Done:  E(UB3LYP) =  -504.835199671     A.U. after   21 cycles
             Convg  =    0.4901D-08             -V/T =  2.0043
 <Sx>= 0.0000 <Sy>= 0.0000 <Sz>= 0.5000 <S**2>= 0.7875 S= 0.5186
 <L.S>= 0.000000000000E+00
 KE= 5.026739871023D+02 PE=-2.600071552355D+03 EE= 8.810462827840D+02
 Annihilation of the first spin contaminant:
 S**2 before annihilation     0.7875,   after     0.7502
 Leave Link  502 at Wed Apr 30 21:12:24 2014, MaxMem= 4026531840 cpu:    1035.7
 (Enter /usr/caen/gaussian-09revc/g09/l801.exe)
 Range of M.O.s used for correlation:     1   312
 NBasis=   312 NAE=    45 NBE=    44 NFC=     0 NFV=     0
 NROrb=    312 NOA=    45 NOB=    44 NVA=   267 NVB=   268
 Leave Link  801 at Wed Apr 30 21:12:26 2014, MaxMem= 4026531840 cpu:       0.8
 (Enter /usr/caen/gaussian-09revc/g09/l1101.exe)
 Using compressed storage, NAtomX=    30.
 Will process  31 centers per pass.
 Leave Link 1101 at Wed Apr 30 21:12:29 2014, MaxMem= 4026531840 cpu:      17.4
 (Enter /usr/caen/gaussian-09revc/g09/l1102.exe)
 Symmetrizing basis deriv contribution to polar:
 IMax=3 JMax=2 DiffMx= 0.00D+00
 Leave Link 1102 at Wed Apr 30 21:12:30 2014, MaxMem= 4026531840 cpu:       0.7
 (Enter /usr/caen/gaussian-09revc/g09/l1110.exe)
 Forming Gx(P) for the SCF density, NAtomX=    30.
 Integral derivatives from FoFDir/FoFCou, PRISM(SPDF).
 Do as many integral derivatives as possible in FoFDir.
 G2DrvN: MDV=    4026531496.
 G2DrvN: will do    31 centers at a time, making    1 passes doing MaxLOS=2.
 Calling FoFCou, ICntrl=  3107 FMM=F I1Cent=   0 AccDes= 0.00D+00.
 FoFCou: FMM=F IPFlag=           0 FMFlag=      100000 FMFlg1=           0
         NFxFlg=           0 DoJE=F BraDBF=F KetDBF=F FulRan=T
         Omega=  0.000000  0.000000  1.000000  0.000000  0.000000 ICntrl=    3107 IOpCl=  1
         NMat0=    1 NMatS0=    1 NMatT0=    0 NMatD0=    1 NMtDS0=    0 NMtDT0=    0
         I1Cent=           0 NGrid=           0.
 Symmetry not used in FoFCou.
 FoFDir/FoFCou used for L=0 through L=2.
 End of G2Drv Frequency-dependent properties file   721 does not exist.
 End of G2Drv Frequency-dependent properties file   722 does not exist.
 Leave Link 1110 at Wed Apr 30 21:15:21 2014, MaxMem= 4026531840 cpu:    1350.2
 (Enter /usr/caen/gaussian-09revc/g09/l1002.exe)
 Minotr:  UHF open shell wavefunction.
          IDoAtm=111111111111111111111111111111
          Direct CPHF calculation.
          Differentiating once with respect to nuclear coordinates.
          Requested convergence is 1.0D-06 RMS, and 1.0D-05 maximum.
          Secondary convergence is 1.0D-12 RMS, and 1.0D-12 maximum.
          NewPWx=T KeepS1=F KeepF1=F KeepIn=T MapXYZ=F SortEE=F KeepMc=T.
          MDV=    4026531536 using IRadAn=       2.
 Generate precomputed XC quadrature information.
          Keep R1 and R2 ints in memory in canonical form, NReq=2738891857.
 Symmetry not used in FoFDir.
 MinBra= 0 MaxBra= 2 Meth= 1.
 IRaf=       0 NMat=   1 IRICut=       1 DoRegI=T DoRafI=F ISym2E= 0 JSym2E=0.
          Solving linear equations simultaneously, MaxMat=       0.
          There are    93 degrees of freedom in the 1st order CPHF.  IDoFFX=5.
     87 vectors produced by pass  0 Test12= 2.56D-10 1.08D-07 XBig12= 2.98D-01 2.35D-01.
 AX will form    87 AO Fock derivatives at one time.
     87 vectors produced by pass  1 Test12= 2.56D-10 1.08D-07 XBig12= 9.87D-03 1.42D-02.
     87 vectors produced by pass  2 Test12= 2.56D-10 1.08D-07 XBig12= 1.07D-04 1.43D-03.
     87 vectors produced by pass  3 Test12= 2.56D-10 1.08D-07 XBig12= 5.54D-07 1.23D-04.
     83 vectors produced by pass  4 Test12= 2.56D-10 1.08D-07 XBig12= 2.23D-09 4.89D-06.
     14 vectors produced by pass  5 Test12= 2.56D-10 1.08D-07 XBig12= 1.19D-11 2.47D-07.
 Inverted reduced A of dimension   445 with in-core refinement.
 End of Minotr Frequency-dependent properties file   721 does not exist.
 End of Minotr Frequency-dependent properties file   722 does not exist.
 Leave Link 1002 at Wed Apr 30 21:19:16 2014, MaxMem= 4026531840 cpu:    1865.2
 (Enter /usr/caen/gaussian-09revc/g09/l601.exe)
 Copying SCF densities to generalized density rwf, IOpCl= 1 IROHF=0.

 **********************************************************************

            Population analysis using the SCF density.

 **********************************************************************

 Orbital symmetries:
 Alpha Orbitals:
       Occupied  (A) (A) (A) (A) (A) (A) (A) (A) (A) (A) (A) (A)
                 (A) (A) (A) (A) (A) (A) (A) (A) (A) (A) (A) (A)
                 (A) (A) (A) (A) (A) (A) (A) (A) (A) (A) (A) (A)
                 (A) (A) (A) (A) (A) (A) (A) (A) (A)
       Virtual   (A) (A) (A) (A) (A) (A) (A) (A) (A) (A) (A) (A)
                 (A) (A) (A) (A) (A) (A) (A) (A) (A) (A) (A) (A)
                 (A) (A) (A) (A) (A) (A) (A) (A) (A) (A) (A) (A)
                 (A) (A) (A) (A) (A) (A) (A) (A) (A) (A) (A) (A)
                 (A) (A) (A) (A) (A) (A) (A) (A) (A) (A) (A) (A)
                 (A) (A) (A) (A) (A) (A) (A) (A) (A) (A) (A) (A)
                 (A) (A) (A) (A) (A) (A) (A) (A) (A) (A) (A) (A)
                 (A) (A) (A) (A) (A) (A) (A) (A) (A) (A) (A) (A)
                 (A) (A) (A) (A) (A) (A) (A) (A) (A) (A) (A) (A)
                 (A) (A) (A) (A) (A) (A) (A) (A) (A) (A) (A) (A)
                 (A) (A) (A) (A) (A) (A) (A) (A) (A) (A) (A) (A)
                 (A) (A) (A) (A) (A) (A) (A) (A) (A) (A) (A) (A)
                 (A) (A) (A) (A) (A) (A) (A) (A) (A) (A) (A) (A)
                 (A) (A) (A) (A) (A) (A) (A) (A) (A) (A) (A) (A)
                 (A) (A) (A) (A) (A) (A) (A) (A) (A) (A) (A) (A)
                 (A) (A) (A) (A) (A) (A) (A) (A) (A) (A) (A) (A)
                 (A) (A) (A) (A) (A) (A) (A) (A) (A) (A) (A) (A)
                 (A) (A) (A) (A) (A) (A) (A) (A) (A) (A) (A) (A)
                 (A) (A) (A) (A) (A) (A) (A) (A) (A) (A) (A) (A)
                 (A) (A) (A) (A) (A) (A) (A) (A) (A) (A) (A) (A)
                 (A) (A) (A) (A) (A) (A) (A) (A) (A) (A) (A) (A)
                 (A) (A) (A) (A) (A) (A) (A) (A) (A) (A) (A) (A)
                 (A) (A) (A)
 Beta  Orbitals:
       Occupied  (A) (A) (A) (A) (A) (A) (A) (A) (A) (A) (A) (A)
                 (A) (A) (A) (A) (A) (A) (A) (A) (A) (A) (A) (A)
                 (A) (A) (A) (A) (A) (A) (A) (A) (A) (A) (A) (A)
                 (A) (A) (A) (A) (A) (A) (A) (A)
       Virtual   (A) (A) (A) (A) (A) (A) (A) (A) (A) (A) (A) (A)
                 (A) (A) (A) (A) (A) (A) (A) (A) (A) (A) (A) (A)
                 (A) (A) (A) (A) (A) (A) (A) (A) (A) (A) (A) (A)
                 (A) (A) (A) (A) (A) (A) (A) (A) (A) (A) (A) (A)
                 (A) (A) (A) (A) (A) (A) (A) (A) (A) (A) (A) (A)
                 (A) (A) (A) (A) (A) (A) (A) (A) (A) (A) (A) (A)
                 (A) (A) (A) (A) (A) (A) (A) (A) (A) (A) (A) (A)
                 (A) (A) (A) (A) (A) (A) (A) (A) (A) (A) (A) (A)
                 (A) (A) (A) (A) (A) (A) (A) (A) (A) (A) (A) (A)
                 (A) (A) (A) (A) (A) (A) (A) (A) (A) (A) (A) (A)
                 (A) (A) (A) (A) (A) (A) (A) (A) (A) (A) (A) (A)
                 (A) (A) (A) (A) (A) (A) (A) (A) (A) (A) (A) (A)
                 (A) (A) (A) (A) (A) (A) (A) (A) (A) (A) (A) (A)
                 (A) (A) (A) (A) (A) (A) (A) (A) (A) (A) (A) (A)
                 (A) (A) (A) (A) (A) (A) (A) (A) (A) (A) (A) (A)
                 (A) (A) (A) (A) (A) (A) (A) (A) (A) (A) (A) (A)
                 (A) (A) (A) (A) (A) (A) (A) (A) (A) (A) (A) (A)
                 (A) (A) (A) (A) (A) (A) (A) (A) (A) (A) (A) (A)
                 (A) (A) (A) (A) (A) (A) (A) (A) (A) (A) (A) (A)
                 (A) (A) (A) (A) (A) (A) (A) (A) (A) (A) (A) (A)
                 (A) (A) (A) (A) (A) (A) (A) (A) (A) (A) (A) (A)
                 (A) (A) (A) (A) (A) (A) (A) (A) (A) (A) (A) (A)
                 (A) (A) (A) (A)
 The electronic state is 2-A.
 Alpha  occ. eigenvalues --  -19.14501 -19.12394 -10.22252 -10.20474 -10.17533
 Alpha  occ. eigenvalues --  -10.17407 -10.17012 -10.16797 -10.16018 -10.15136
 Alpha  occ. eigenvalues --  -10.14497  -1.02385  -0.91797  -0.82628  -0.79090
 Alpha  occ. eigenvalues --   -0.74759  -0.69830  -0.68846  -0.68297  -0.61513
 Alpha  occ. eigenvalues --   -0.54766  -0.53267  -0.48170  -0.47392  -0.46230
 Alpha  occ. eigenvalues --   -0.45192  -0.44622  -0.43357  -0.42519  -0.41591
 Alpha  occ. eigenvalues --   -0.39866  -0.39404  -0.39059  -0.37988  -0.36950
 Alpha  occ. eigenvalues --   -0.36280  -0.35442  -0.34994  -0.34721  -0.33864
 Alpha  occ. eigenvalues --   -0.33002  -0.31171  -0.28583  -0.25424  -0.16921
 Alpha virt. eigenvalues --   -0.05733   0.02721   0.05514   0.05855   0.06173
 Alpha virt. eigenvalues --    0.07745   0.07827   0.10215   0.10440   0.11026
 Alpha virt. eigenvalues --    0.11353   0.12513   0.13153   0.13831   0.14115
 Alpha virt. eigenvalues --    0.15069   0.15472   0.15943   0.16836   0.17664
 Alpha virt. eigenvalues --    0.18243   0.19237   0.20209   0.21689   0.23693
 Alpha virt. eigenvalues --    0.23896   0.25082   0.25762   0.27581   0.28477
 Alpha virt. eigenvalues --    0.29588   0.31547   0.32562   0.33059   0.35772
 Alpha virt. eigenvalues --    0.37724   0.38238   0.39456   0.40733   0.40870
 Alpha virt. eigenvalues --    0.42712   0.43722   0.44465   0.45016   0.47212
 Alpha virt. eigenvalues --    0.48360   0.51129   0.51810   0.53268   0.54336
 Alpha virt. eigenvalues --    0.55485   0.56143   0.56981   0.58114   0.58618
 Alpha virt. eigenvalues --    0.58949   0.59206   0.60015   0.60601   0.61003
 Alpha virt. eigenvalues --    0.61169   0.61717   0.62213   0.62776   0.63097
 Alpha virt. eigenvalues --    0.63357   0.64295   0.64603   0.65712   0.66331
 Alpha virt. eigenvalues --    0.67742   0.68341   0.69221   0.70604   0.72921
 Alpha virt. eigenvalues --    0.75414   0.83008   0.85472   0.86554   0.90184
 Alpha virt. eigenvalues --    0.90800   0.93277   0.95114   0.96508   0.97350
 Alpha virt. eigenvalues --    1.00959   1.01689   1.02302   1.05522   1.10775
 Alpha virt. eigenvalues --    1.12148   1.16576   1.17808   1.19381   1.22324
 Alpha virt. eigenvalues --    1.28004   1.29055   1.30759   1.32823   1.33815
 Alpha virt. eigenvalues --    1.35486   1.36268   1.36628   1.38036   1.38875
 Alpha virt. eigenvalues --    1.41058   1.43611   1.44436   1.46007   1.46775
 Alpha virt. eigenvalues --    1.47277   1.48040   1.48273   1.49324   1.50006
 Alpha virt. eigenvalues --    1.50821   1.51886   1.53162   1.53435   1.55064
 Alpha virt. eigenvalues --    1.55329   1.57628   1.58515   1.59226   1.60303
 Alpha virt. eigenvalues --    1.61176   1.62065   1.62344   1.63041   1.65257
 Alpha virt. eigenvalues --    1.65735   1.66169   1.67735   1.69093   1.69632
 Alpha virt. eigenvalues --    1.71407   1.73447   1.73888   1.74420   1.76007
 Alpha virt. eigenvalues --    1.77338   1.78809   1.79081   1.82801   1.83361
 Alpha virt. eigenvalues --    1.87948   1.88976   1.90577   1.91009   1.92808
 Alpha virt. eigenvalues --    1.93879   1.95121   1.96835   1.99447   2.01292
 Alpha virt. eigenvalues --    2.03213   2.06036   2.07489   2.08438   2.10657
 Alpha virt. eigenvalues --    2.12090   2.14068   2.16722   2.19328   2.20881
 Alpha virt. eigenvalues --    2.24000   2.25027   2.26842   2.27520   2.29508
 Alpha virt. eigenvalues --    2.32171   2.33477   2.35115   2.35290   2.37095
 Alpha virt. eigenvalues --    2.39459   2.40632   2.41604   2.43643   2.45587
 Alpha virt. eigenvalues --    2.47253   2.47594   2.48241   2.48978   2.49753
 Alpha virt. eigenvalues --    2.51008   2.51562   2.51866   2.52734   2.54331
 Alpha virt. eigenvalues --    2.54883   2.55495   2.56505   2.58171   2.59338
 Alpha virt. eigenvalues --    2.60168   2.61301   2.63962   2.66083   2.67888
 Alpha virt. eigenvalues --    2.69522   2.71540   2.72012   2.73035   2.74719
 Alpha virt. eigenvalues --    2.77671   2.78999   2.81195   2.83079   2.85275
 Alpha virt. eigenvalues --    2.85768   2.88285   2.91362   2.95384   2.97964
 Alpha virt. eigenvalues --    2.98315   3.03062   3.04047   3.10141   3.11724
 Alpha virt. eigenvalues --    3.12960   3.14758   3.16579   3.20015   3.21238
 Alpha virt. eigenvalues --    3.22595   3.28517   3.35647   3.46878   3.56470
 Alpha virt. eigenvalues --    3.66426   3.73118   3.74887   3.76258   3.78523
 Alpha virt. eigenvalues --    3.80431   3.81431   3.82285   3.82619   3.83588
 Alpha virt. eigenvalues --    3.85328   3.85719   3.90470   4.03905   4.15921
 Alpha virt. eigenvalues --    4.20368   4.27367   4.27960   4.33139   4.36357
 Alpha virt. eigenvalues --    4.85391   4.92777   5.10298   5.33097   5.47069
 Alpha virt. eigenvalues --    5.49309  23.70890  23.76383  23.83767  23.88177
 Alpha virt. eigenvalues --   23.90073  23.94811  23.95352  23.95871  23.97654
 Alpha virt. eigenvalues --   49.81804  49.88385
  Beta  occ. eigenvalues --  -19.14492 -19.11355 -10.22221 -10.19392 -10.17589
  Beta  occ. eigenvalues --  -10.17336 -10.17027 -10.16855 -10.16078 -10.15139
  Beta  occ. eigenvalues --  -10.14509  -1.01593  -0.90382  -0.81687  -0.78756
  Beta  occ. eigenvalues --   -0.74574  -0.69680  -0.68792  -0.68279  -0.61236
  Beta  occ. eigenvalues --   -0.53943  -0.52576  -0.47668  -0.47045  -0.45824
  Beta  occ. eigenvalues --   -0.44793  -0.44115  -0.43031  -0.42275  -0.41178
  Beta  occ. eigenvalues --   -0.39269  -0.39088  -0.38729  -0.37598  -0.36847
  Beta  occ. eigenvalues --   -0.36098  -0.35311  -0.34715  -0.34553  -0.33656
  Beta  occ. eigenvalues --   -0.32817  -0.30461  -0.27789  -0.25046
  Beta virt. eigenvalues --   -0.06322  -0.01319   0.02809   0.05628   0.05873
  Beta virt. eigenvalues --    0.06322   0.07821   0.08003   0.10323   0.10627
  Beta virt. eigenvalues --    0.11083   0.11470   0.12559   0.13209   0.13922
  Beta virt. eigenvalues --    0.14243   0.15200   0.15539   0.16089   0.16938
  Beta virt. eigenvalues --    0.17753   0.18951   0.19380   0.20370   0.21778
  Beta virt. eigenvalues --    0.23754   0.24024   0.25289   0.26050   0.27889
  Beta virt. eigenvalues --    0.28652   0.29697   0.31607   0.32749   0.33219
  Beta virt. eigenvalues --    0.36082   0.37987   0.38347   0.39605   0.40819
  Beta virt. eigenvalues --    0.41014   0.43025   0.44538   0.44899   0.45437
  Beta virt. eigenvalues --    0.47388   0.48432   0.51370   0.52094   0.53547
  Beta virt. eigenvalues --    0.54542   0.55765   0.56598   0.57231   0.58191
  Beta virt. eigenvalues --    0.58863   0.59057   0.59439   0.60179   0.60804
  Beta virt. eigenvalues --    0.61072   0.61390   0.61866   0.62413   0.62854
  Beta virt. eigenvalues --    0.63154   0.63427   0.64427   0.65215   0.65816
  Beta virt. eigenvalues --    0.66387   0.67943   0.68488   0.69356   0.70695
  Beta virt. eigenvalues --    0.73072   0.75754   0.83195   0.85746   0.87012
  Beta virt. eigenvalues --    0.91346   0.91830   0.93741   0.95771   0.96613
  Beta virt. eigenvalues --    0.97870   1.01217   1.02178   1.02662   1.05948
  Beta virt. eigenvalues --    1.10944   1.12398   1.16637   1.17859   1.19589
  Beta virt. eigenvalues --    1.22732   1.28205   1.29242   1.31182   1.32989
  Beta virt. eigenvalues --    1.34235   1.35815   1.36434   1.36842   1.38231
  Beta virt. eigenvalues --    1.39215   1.41475   1.43748   1.44766   1.46195
  Beta virt. eigenvalues --    1.47044   1.47333   1.48170   1.48406   1.49386
  Beta virt. eigenvalues --    1.50203   1.51142   1.52054   1.53544   1.53688
  Beta virt. eigenvalues --    1.55304   1.55525   1.58210   1.58962   1.59405
  Beta virt. eigenvalues --    1.60422   1.61432   1.62348   1.62507   1.63222
  Beta virt. eigenvalues --    1.65560   1.66054   1.66542   1.67898   1.69270
  Beta virt. eigenvalues --    1.69888   1.71649   1.73559   1.74027   1.74559
  Beta virt. eigenvalues --    1.76405   1.77525   1.79091   1.79252   1.83045
  Beta virt. eigenvalues --    1.83500   1.88361   1.89335   1.90665   1.91542
  Beta virt. eigenvalues --    1.93651   1.94001   1.95553   1.97253   1.99775
  Beta virt. eigenvalues --    2.01578   2.03408   2.06273   2.07703   2.08548
  Beta virt. eigenvalues --    2.10875   2.12316   2.14259   2.16760   2.19703
  Beta virt. eigenvalues --    2.21046   2.24177   2.25284   2.27194   2.28098
  Beta virt. eigenvalues --    2.29942   2.32286   2.33548   2.35254   2.35463
  Beta virt. eigenvalues --    2.37311   2.39676   2.40837   2.41722   2.43771
  Beta virt. eigenvalues --    2.45711   2.47385   2.47822   2.48411   2.49060
  Beta virt. eigenvalues --    2.49822   2.51189   2.51661   2.52053   2.52836
  Beta virt. eigenvalues --    2.54445   2.54969   2.55694   2.56740   2.58284
  Beta virt. eigenvalues --    2.59563   2.60414   2.61567   2.64201   2.66184
  Beta virt. eigenvalues --    2.68097   2.69777   2.71643   2.72172   2.73136
  Beta virt. eigenvalues --    2.74955   2.78131   2.79243   2.81389   2.83296
  Beta virt. eigenvalues --    2.85592   2.86197   2.89315   2.91405   2.95603
  Beta virt. eigenvalues --    2.98282   2.99650   3.03535   3.04589   3.11271
  Beta virt. eigenvalues --    3.12719   3.14473   3.14920   3.17031   3.20387
  Beta virt. eigenvalues --    3.21865   3.23260   3.28719   3.35829   3.48230
  Beta virt. eigenvalues --    3.56462   3.66895   3.73177   3.75019   3.76458
  Beta virt. eigenvalues --    3.78657   3.80524   3.81472   3.82444   3.83131
  Beta virt. eigenvalues --    3.83687   3.85533   3.86022   3.90536   4.03998
  Beta virt. eigenvalues --    4.16139   4.20654   4.27596   4.28728   4.33681
  Beta virt. eigenvalues --    4.36636   4.87092   4.96038   5.10290   5.32324
  Beta virt. eigenvalues --    5.47810   5.49382  23.70935  23.77371  23.83769
  Beta virt. eigenvalues --   23.88169  23.90247  23.94841  23.95320  23.95862
  Beta virt. eigenvalues --   23.97621  49.82851  49.88446
          Condensed to atoms (all electrons):
              1          2          3          4          5          6
     1  C    4.909157   0.392128   0.386905   0.404148  -0.070759  -0.010012
     2  H    0.392128   0.575592  -0.027371  -0.023963  -0.008436   0.005443
     3  H    0.386905  -0.027371   0.616072  -0.029267  -0.004499   0.000167
     4  H    0.404148  -0.023963  -0.029267   0.535517   0.007222   0.000187
     5  C   -0.070759  -0.008436  -0.004499   0.007222   5.002031   0.406627
     6  H   -0.010012   0.005443   0.000167   0.000187   0.406627   0.588549
     7  H   -0.005825   0.000298   0.002808  -0.000339   0.398506  -0.028241
     8  C    0.009651  -0.000469  -0.000219  -0.000342   0.345555  -0.046260
     9  H   -0.000072   0.000015   0.000041   0.000007  -0.039072   0.008884
    10  H   -0.000223  -0.000044  -0.000048   0.000017  -0.033417  -0.002541
    11  C   -0.000970   0.000166   0.000035   0.000012  -0.060607  -0.006549
    12  H    0.000030   0.000002   0.000000  -0.000004   0.008477   0.000321
    13  H   -0.000063  -0.000025   0.000005   0.000002  -0.008151   0.005581
    14  C    0.000626  -0.000110   0.000011  -0.000297  -0.011507  -0.000713
    15  C   -0.000173   0.000156   0.000011   0.000023  -0.000099  -0.000092
    16  H   -0.000001   0.000012   0.000000  -0.000004   0.000065   0.000064
    17  H    0.000197   0.000012   0.000000   0.000039  -0.000210  -0.000027
    18  H   -0.000091   0.000178   0.000007   0.000005   0.000118   0.000309
    19  C   -0.082810   0.009621  -0.001452  -0.007893  -0.062322   0.009612
    20  H   -0.001048  -0.000426  -0.000506   0.000076  -0.003947  -0.000257
    21  H   -0.011862   0.000139   0.000252   0.003502   0.008661  -0.000425
    22  H    0.008868  -0.000638  -0.000297   0.000118  -0.006490  -0.000341
    23  C    0.000038  -0.000025  -0.000005   0.000011   0.000369  -0.000006
    24  H   -0.000007  -0.000007  -0.000002  -0.000009   0.000077  -0.000009
    25  H    0.000009  -0.000001  -0.000001  -0.000001  -0.000075   0.000001
    26  H    0.000007  -0.000003   0.000000   0.000008  -0.000217  -0.000035
    27  C    0.368781  -0.030273  -0.035519  -0.028063   0.352120  -0.041431
    28  O   -0.048480   0.003676   0.004627  -0.004415  -0.033890   0.001649
    29  O   -0.016017  -0.000495   0.000554   0.014901   0.004116  -0.000098
    30  H    0.000167   0.000048  -0.000125  -0.001127  -0.000703   0.000005
              7          8          9         10         11         12
     1  C   -0.005825   0.009651  -0.000072  -0.000223  -0.000970   0.000030
     2  H    0.000298  -0.000469   0.000015  -0.000044   0.000166   0.000002
     3  H    0.002808  -0.000219   0.000041  -0.000048   0.000035   0.000000
     4  H   -0.000339  -0.000342   0.000007   0.000017   0.000012  -0.000004
     5  C    0.398506   0.345555  -0.039072  -0.033417  -0.060607   0.008477
     6  H   -0.028241  -0.046260   0.008884  -0.002541  -0.006549   0.000321
     7  H    0.589566  -0.032164  -0.001499  -0.009509   0.006790  -0.000218
     8  C   -0.032164   4.968694   0.399959   0.401988   0.360963  -0.044980
     9  H   -0.001499   0.399959   0.604035  -0.033523  -0.035418  -0.005709
    10  H   -0.009509   0.401988  -0.033523   0.595725  -0.035624  -0.003338
    11  C    0.006790   0.360963  -0.035418  -0.035624   4.924516   0.392121
    12  H   -0.000218  -0.044980  -0.005709  -0.003338   0.392121   0.610533
    13  H    0.000094  -0.036565   0.008940  -0.006193   0.410405  -0.031315
    14  C    0.001358  -0.071555  -0.006959   0.009657   0.352158  -0.042698
    15  C   -0.000017   0.004977  -0.000001  -0.000398  -0.055607   0.002176
    16  H    0.000007  -0.000590  -0.000003   0.000056  -0.002732   0.001879
    17  H   -0.000019  -0.000290   0.000049   0.000005   0.008517  -0.000804
    18  H   -0.000004   0.000053   0.000015  -0.000127  -0.007990   0.000017
    19  C   -0.004206  -0.014242   0.002287  -0.000466   0.000696   0.000024
    20  H    0.001262   0.001133   0.000008   0.000030  -0.000105   0.000001
    21  H    0.000070  -0.000111  -0.000326   0.000023  -0.000081  -0.000006
    22  H   -0.000212   0.001004   0.000991   0.000018  -0.000308   0.000048
    23  C   -0.000096  -0.005011   0.000850  -0.000272  -0.060880  -0.004286
    24  H   -0.000026  -0.000178  -0.000356   0.000025   0.008162  -0.000401
    25  H    0.000009  -0.000012  -0.000114   0.000115  -0.005725   0.005627
    26  H   -0.000018   0.000732   0.002077  -0.000388  -0.004113  -0.000921
    27  C   -0.034728  -0.055727  -0.006799   0.007048   0.003285  -0.000235
    28  O    0.003677   0.001934  -0.001192   0.000192  -0.008639   0.000722
    29  O   -0.000058  -0.000180  -0.000049   0.000015  -0.000135   0.000021
    30  H    0.000001   0.000130   0.000001  -0.000014   0.000246  -0.000039
             13         14         15         16         17         18
     1  C   -0.000063   0.000626  -0.000173  -0.000001   0.000197  -0.000091
     2  H   -0.000025  -0.000110   0.000156   0.000012   0.000012   0.000178
     3  H    0.000005   0.000011   0.000011   0.000000   0.000000   0.000007
     4  H    0.000002  -0.000297   0.000023  -0.000004   0.000039   0.000005
     5  C   -0.008151  -0.011507  -0.000099   0.000065  -0.000210   0.000118
     6  H    0.005581  -0.000713  -0.000092   0.000064  -0.000027   0.000309
     7  H    0.000094   0.001358  -0.000017   0.000007  -0.000019  -0.000004
     8  C   -0.036565  -0.071555   0.004977  -0.000590  -0.000290   0.000053
     9  H    0.008940  -0.006959  -0.000001  -0.000003   0.000049   0.000015
    10  H   -0.006193   0.009657  -0.000398   0.000056   0.000005  -0.000127
    11  C    0.410405   0.352158  -0.055607  -0.002732   0.008517  -0.007990
    12  H   -0.031315  -0.042698   0.002176   0.001879  -0.000804   0.000017
    13  H    0.589327  -0.043165  -0.008082   0.000175   0.000363   0.004095
    14  C   -0.043165   5.416722   0.370603  -0.049581  -0.035638  -0.030620
    15  C   -0.008082   0.370603   4.783941   0.391079   0.396052   0.403844
    16  H    0.000175  -0.049581   0.391079   0.624508  -0.036426  -0.031160
    17  H    0.000363  -0.035638   0.396052  -0.036426   0.559282  -0.023600
[...]
 05,-0.00000165,0.00003616,-0.00068149,0.00111114,0.00271468,-0.0000102
 7,0.00047055,-0.00036679,0.00019921,-0.00073361,0.00030170,-0.00068816
 ,-0.01231024,0.00373724,0.00059250,0.00032437,-0.00108829,-0.00003161,
 -0.00002996,-0.00012059,-0.00001479,0.00073230,0.00029753,0.00023931,0
 .00022203,-0.00012446,0.00003657,0.00011323,0.00003486,-0.00002443,0.0
 0001169,-0.00003926,0.00006830,0.00004723,0.00002893,-0.00004374,-0.00
 012692,-0.00000156,-0.08461498,-0.27146760,0.02433476,0.09353468,0.295
 48502,0.00005274,-0.00009645,0.00003682,0.00000051,0.00000591,-0.00001
 214,0.00001743,0.00000618,0.00001131,-0.00000584,-0.00001601,0.0000018
 4,-0.00024110,0.00003692,0.00012482,0.00007383,0.00001880,0.00002820,-
 0.00001009,0.00005486,-0.00001816,0.00022073,0.00002961,-0.00031387,-0
 .00019873,0.00003572,0.00020096,-0.00008123,-0.00001993,0.00011615,-0.
 00081170,0.00040853,-0.00528288,0.00010463,-0.00040130,0.00007558,-0.0
 0028200,0.00157596,-0.00032273,0.00849427,0.02966814,-0.00296313,0.000
 27912,0.00071276,0.00127878,-0.00003842,-0.00000452,-0.00000736,-0.000
 27180,-0.00057485,-0.00058553,-0.00023095,-0.00017597,0.00043874,-0.00
 001472,-0.00002452,-0.00001209,-0.00000032,0.00001749,-0.00001989,0.00
 002400,0.00001282,0.00002367,-0.00002564,-0.00004290,0.00000572,0.0121
 5474,0.02432135,-0.05026886,-0.01046171,-0.03054070,0.05407557,-0.0000
 9132,0.00013234,0.00008471,0.00002539,-0.00000943,-0.00000969,-0.00008
 666,0.00002532,-0.00004488,0.00003748,-0.00002859,0.00001510,-0.000095
 49,-0.00019105,0.00007957,0.00000983,0.00000157,-0.00004741,0.00005670
 ,0.00008929,0.00000466,-0.00010890,0.00020545,0.00033047,-0.00001356,-
 0.00010077,-0.00008123,0.00003017,0.00004612,-0.00006282,-0.00010007,-
 0.00086217,-0.00035899,0.00015354,0.00071274,0.00008334,0.00012104,0.0
 0015923,-0.00004414,-0.00668989,0.00270283,-0.00785342,0.00023818,0.00
 043661,0.00042250,0.00036184,-0.00047364,-0.00050885,-0.00013640,-0.00
 003942,0.00013987,0.00026331,0.00003210,-0.00017950,0.00001434,0.00012
 573,0.00008690,-0.00007562,0.00004320,-0.00001172,0.00004342,-0.000026
 66,-0.00003000,0.00001580,-0.00007810,-0.00006562,-0.27544707,0.003408
 31,-0.03221483,-0.01205414,-0.00023997,-0.00118027,0.30552817,-0.00004
 970,0.00008312,-0.00000417,0.00000005,0.00000351,0.00000616,-0.0000002
 6,-0.00001251,-0.00001163,-0.00001119,0.00001261,0.00000194,0.00019758
 ,-0.00004072,-0.00004779,-0.00000337,0.00001247,0.00002782,-0.00002076
 ,-0.00010232,0.00002074,0.00006388,0.00007115,-0.00024180,-0.00004796,
 0.00009903,0.00014473,-0.00002554,-0.00001047,0.00011109,-0.00020365,0
 .00107688,0.00025055,-0.00055052,-0.00059569,-0.00018258,-0.00033338,-
 0.00011365,-0.00010052,0.01186010,-0.00239054,0.00414657,0.00016357,-0
 .00007154,-0.00047447,-0.00012248,0.00020178,-0.00006978,-0.00015173,0
 .00008840,-0.00000751,0.00001605,-0.00010638,-0.00004948,-0.00000237,-
 0.00004662,-0.00005235,0.00003261,0.00000013,-0.00000488,0.00001311,0.
 00002349,0.00002535,-0.00002163,0.00001171,0.00004379,0.00746407,-0.04
 285915,-0.00000493,-0.03029078,0.00070177,-0.00479725,-0.00639916,0.04
 390083,-0.00018848,0.00013306,0.00016798,0.00004528,-0.00000630,0.0000
 2762,-0.00011618,0.00003895,-0.00006780,0.00007167,-0.00004890,0.00000
 476,-0.00060605,-0.00001890,0.00019727,0.00002594,-0.00002625,0.000019
 66,0.00011105,0.00028333,-0.00003715,-0.00001467,-0.00032911,-0.000052
 64,-0.00006194,0.00007521,0.00018204,0.00011461,0.00001267,0.00009372,
 0.00019744,-0.00149864,-0.00041767,0.00057512,0.00063401,0.00033013,0.
 00035830,0.00008588,0.00011955,-0.03109915,0.00256843,-0.00970315,0.00
 045775,0.00022455,0.00137944,0.00072451,-0.00033544,-0.00064302,-0.000
 12590,0.00020897,0.00002695,0.00047279,0.00018577,0.00028066,-0.000239
 29,-0.00004306,-0.00020745,-0.00001215,0.00006985,0.00012575,0.0000821
 1,-0.00004440,-0.00004905,0.00004045,0.00010018,0.00013286,-0.04216434
 ,0.00005151,-0.04986604,0.00336585,-0.00053040,-0.00001620,0.04385196,
 -0.00228705,0.05482052,-0.00000360,-0.00003680,0.00003129,0.00000008,0
 .00000701,0.00002391,0.00002880,-0.00001326,0.00000516,-0.00002181,0.0
 0000287,-0.00001121,0.00009485,0.00004327,-0.00011594,-0.00002934,-0.0
 0001906,0.00001130,-0.00002238,-0.00005511,0.00000529,-0.00004110,0.00
 013179,-0.00037774,-0.00001569,0.00058984,-0.00019290,0.00001266,-0.00
 010364,0.00013727,0.00008295,0.00034888,0.00052210,-0.00031661,-0.0002
 3876,0.00014621,-0.00016379,-0.00018573,-0.00005250,0.00190825,-0.0053
 2258,-0.00621154,0.00042274,0.00051567,-0.00131112,0.00025783,-0.00019
 170,-0.00036377,-0.00000062,0.00026246,0.00017482,0.00041843,0.0000220
 4,-0.00043855,-0.00011347,-0.00011836,-0.00016108,0.00010148,-0.000013
 84,0.00005790,-0.00000574,0.00000378,0.00003048,-0.00020778,0.00018525
 ,0.00020423,-0.08961078,0.06398128,0.07801915,0.00470395,-0.00646262,-
 0.00926353,-0.01354567,0.01926339,0.02202881,0.09596311,-0.00003896,-0
 .00004750,0.00005219,0.00001039,0.00000943,0.00003606,0.00001247,0.000
 00680,-0.00000125,-0.00001554,-0.00001221,-0.00001901,0.00011801,0.000
 12284,-0.00000530,-0.00003868,-0.00003444,0.00002858,-0.00002385,0.000
 01207,0.00000306,0.00023920,-0.00017848,0.00064657,0.00043242,-0.00032
 462,0.00018078,-0.00010437,0.00008274,-0.00008869,-0.00033689,-0.00006
 372,-0.00009930,-0.00012501,-0.00011211,0.00008716,-0.00001543,0.00021
 651,-0.00020711,-0.00603789,0.00832471,0.00650989,0.00074625,-0.000263
 46,0.00170574,0.00007211,-0.00017851,-0.00002755,0.00021014,0.00032933
 ,0.00025949,0.00014446,0.00057414,0.00041305,-0.00010900,-0.00020717,-
 0.00012589,0.00007324,0.00000049,0.00008511,-0.00005764,-0.00002546,-0
 .00002846,0.00010450,0.00023709,0.00011070,0.06368614,-0.14075094,-0.1
 0623074,0.01368800,-0.01585441,-0.02000353,-0.00005017,-0.00063660,0.0
 0044796,-0.07251423,0.14874593,-0.00004427,0.00003493,0.00004690,0.000
 02591,-0.00001254,0.00004512,-0.00003782,0.00002850,-0.00001166,0.0000
 5182,-0.00000599,0.00000139,-0.00055888,0.00000822,0.00011158,0.000122
 35,0.00000429,0.00012088,0.00008610,0.00014346,-0.00000874,-0.00003807
 ,0.00010755,-0.00059533,-0.00048238,0.00047680,0.00068378,-0.00001152,
 -0.00006047,0.00037445,-0.00012594,-0.00091208,0.00077901,0.00029513,0
 .00037419,-0.00001388,0.00003018,-0.00029178,0.00029039,0.01099563,-0.
 02023635,-0.02145043,-0.00176480,0.00399460,-0.00442021,0.00017631,0.0
 0016619,0.00036816,-0.00008128,0.00017654,0.00031291,0.00044745,-0.001
 02413,-0.00132065,-0.00021041,-0.00008897,-0.00027716,0.00004822,0.000
 04200,0.00010823,0.00010043,0.00000744,-0.00000474,-0.00007814,0.00013
 453,0.00034223,0.07599018,-0.10529060,-0.17137984,-0.00260318,0.002310
 17,0.00281383,-0.00160649,0.00361284,0.00379236,-0.08254793,0.11614628
 ,0.18904203,-0.11371832,-0.02555231,-0.04226578,0.00807664,0.00391408,
 0.01036148,-0.01414715,-0.00547536,-0.01163866,-0.01224555,-0.00324959
 ,-0.00998809,-0.08856972,-0.03563020,0.01194246,-0.00515719,-0.0083351
 1,0.00410890,0.00597534,0.02014917,-0.00624138,-0.00766896,-0.02162621
 ,0.00624060,0.00151938,0.00030077,0.00094451,-0.00381807,0.00015935,-0
 .00107333,-0.00009636,-0.00221813,0.00169330,-0.00000928,0.00204233,-0
 .00031966,0.00003074,0.00047920,-0.00029453,0.00627508,0.00436316,-0.0
 0087068,0.00123660,0.00089604,0.00124488,0.00071551,-0.00107419,-0.001
 00622,-0.00040866,-0.00051484,-0.00034305,-0.00018981,-0.00010050,-0.0
 0040294,-0.08323291,-0.00776282,0.02679270,-0.00886252,-0.00057623,0.0
 1818988,-0.00674029,0.00053236,0.01253455,0.00892693,-0.00012844,-0.02
 485203,0.00117787,0.00068663,-0.00175945,-0.00050048,-0.00051149,0.000
 40907,0.00051568,-0.00052379,0.00136220,-0.00032591,0.00011033,0.00052
 982,0.45034039,-0.02029098,-0.07968256,-0.02017025,-0.00342785,-0.0029
 1572,-0.00312522,0.01732457,0.00366927,0.01618086,-0.01997893,-0.00624
 776,-0.01979734,-0.02639050,-0.11911387,0.02087520,0.00063268,-0.00114
 166,-0.00013838,-0.00879673,-0.02382823,0.00913689,-0.00824049,-0.0087
 1909,-0.00478144,-0.00023087,0.00076728,0.00121291,0.00021361,0.000812
 34,-0.00031146,0.00116146,-0.00008473,0.00011936,0.00069125,-0.0006346
 5,0.00035260,-0.00017573,-0.00017179,0.00016255,0.01566475,0.00778578,
 -0.00043486,-0.00282570,0.00075756,0.00053122,-0.00059246,-0.00007449,
 0.00050797,0.00010956,-0.00095923,-0.00015759,0.00021959,0.00012296,-0
 .00007908,-0.00523278,-0.07257479,-0.00066463,0.00768263,-0.00236736,-
 0.01941315,-0.01140814,0.00078061,0.02876382,0.00410919,-0.00178860,-0
 .00637432,-0.00204413,0.00036502,-0.00047027,0.00010871,-0.00074085,0.
 00038087,-0.00043262,-0.00031065,-0.00043364,0.00020923,0.00005196,-0.
 00006887,0.04045900,0.42370345,-0.04127757,-0.01966574,-0.12156706,-0.
 02233125,-0.00625531,-0.02256538,0.00301246,-0.00048177,-0.00006063,0.
 00641630,0.00153056,0.00498062,0.00750120,0.01914262,-0.08356988,0.012
 49019,0.02878587,-0.01183083,-0.00103796,-0.00418437,0.00003082,-0.003
 23045,-0.01596536,0.00738207,0.00001691,-0.00054162,-0.00082775,-0.003
 93719,-0.00144069,-0.00201702,-0.00004836,0.00002703,-0.00081865,-0.00
 042371,-0.00008552,0.00028940,0.00000772,-0.00007699,0.00008753,-0.000
 15479,-0.00000746,-0.00119605,0.00069248,-0.00045191,-0.00038456,0.000
 17144,0.00016435,0.00001743,0.00014221,0.00040654,0.00001379,0.0000999
 2,-0.00003547,0.00002551,0.02520573,0.00253684,-0.16258597,-0.00271794
 ,0.00172670,0.00292048,0.00383029,-0.00008885,-0.00885956,0.00881856,-
 0.00083124,-0.02047229,-0.00142278,0.00045270,0.00025012,-0.00002878,-
 0.00007026,-0.00001661,-0.00023854,-0.00009803,-0.00059862,-0.00018281
 ,-0.00019723,-0.00034213,-0.00187849,-0.00211332,0.48549763,-0.0341562
 3,0.03374644,-0.00603301,0.00216759,0.00025039,0.00096081,-0.00548349,
 -0.00364571,-0.00500171,0.00008435,0.00024027,0.00169647,0.02235807,-0
 .00208645,-0.00476074,0.00035296,-0.00025822,0.00014910,-0.00281685,-0
 .00802572,0.00204119,0.00259497,0.00040787,-0.00177895,-0.00050336,0.0
 0036689,0.00007837,-0.00207823,0.00085636,0.00011156,-0.00055137,-0.00
 683233,0.00313120,0.00055396,0.00437121,0.00007069,0.00018067,0.001154
 39,-0.00068354,0.04828003,0.01159473,-0.00160688,-0.00838098,0.0035462
 7,0.00582386,0.00159236,-0.00294897,-0.00259057,0.00020167,-0.00352931
 ,-0.00224812,0.00022918,-0.00068508,-0.00224446,-0.02144062,0.02545040
 ,0.00763068,-0.00105781,-0.00108034,0.00573379,-0.00097621,-0.00003418
 ,-0.00097785,0.00156987,-0.00049776,-0.00060073,-0.00630284,0.00304590
 ,-0.00758399,-0.00033261,-0.00336432,0.00284025,0.00147087,-0.00189443
 ,0.00356332,-0.00000410,-0.00006986,0.00286749,-0.16374541,0.01506148,
 0.01441648,0.16478177,0.00928506,-0.00228829,0.00652756,-0.00078502,0.
 00076158,0.00017846,0.00074923,-0.00101088,0.00074312,-0.00287041,0.00
 009808,-0.00077138,0.02925700,-0.04242462,0.00164172,0.00051455,0.0014
 7162,-0.00002529,-0.00392226,-0.00775779,0.00138602,0.00604965,0.00317
 747,-0.00246490,-0.00012452,-0.00019400,0.00013350,-0.00200587,0.00211
 764,0.00139570,-0.00291143,-0.00471256,0.00406861,0.00044905,0.0052730
 7,-0.00043421,0.00016068,0.00153250,-0.00087574,0.03701957,-0.00021501
 ,-0.00257143,0.00916365,0.00156133,0.00428201,0.00261535,-0.00330234,-
 0.00509898,0.00175915,-0.00203046,-0.00252902,-0.00015267,-0.00081562,
 -0.00251498,0.01888755,-0.01346298,-0.00640972,0.00202030,-0.00081688,
 -0.00399942,-0.00255533,0.00070299,0.00198928,-0.00113810,0.00005673,0
 .00016444,0.00626727,0.00291438,-0.00583897,-0.00012622,-0.00234576,0.
 00240883,0.00173064,-0.00139602,0.00570476,-0.00102353,0.00031149,0.00
 314858,0.01376113,-0.08997483,-0.00588604,-0.13731602,0.10127771,-0.01
 805223,0.01600864,0.00250666,0.00128477,0.00091598,0.00279688,-0.00475
 008,-0.00027633,-0.00192419,0.00064659,-0.00014762,0.00047979,-0.00553
 875,0.00629163,0.00031275,-0.00094715,-0.00018443,0.00073237,0.0004217
 8,0.00177461,-0.00012517,-0.00111489,-0.00096210,0.00004449,0.00009232
 ,-0.00005671,0.00035044,0.00017649,-0.00034533,0.00003189,0.00090708,0
 .00021178,-0.00028995,0.00005219,-0.00040067,0.00015223,-0.00001772,-0
 .00032410,0.00027966,-0.00556490,-0.00143223,-0.00809840,0.00434201,-0
 .00036074,-0.00118013,0.00035239,0.00004563,0.00044645,0.00013968,0.00
 060704,0.00002232,-0.00026362,-0.00013366,0.00105492,0.02666326,-0.024
 69337,0.00091332,0.00423477,-0.00063529,-0.00606055,-0.00021725,0.0002
 8387,0.00130550,-0.00058856,0.00003496,0.00314779,-0.00612710,-0.00081
 399,-0.00028938,0.00004493,-0.00038335,-0.00009637,-0.00091552,0.00038
 356,-0.00087380,-0.00009741,0.00045085,0.00014943,0.00974519,-0.003636
 61,-0.06135541,-0.00449629,0.00532652,0.08320269,-0.00152423,0.0009256
 6,-0.00159047,0.00020082,0.00016922,-0.00031293,0.00027473,0.00146023,
 -0.00025760,0.00079714,0.00260769,-0.00027151,-0.00724880,0.00441749,0
 .00064139,0.00002162,0.00010170,-0.00036209,0.00149733,0.00245866,-0.0
 0048425,-0.00290341,-0.00080172,0.00114939,0.00010304,-0.00007013,-0.0
 0015210,0.00140567,-0.00088491,-0.00039678,-0.00073904,0.00263592,-0.0
 0268018,-0.00028696,-0.00315907,0.00034689,-0.00012239,-0.00078618,0.0
 0047655,-0.02449598,-0.00781319,0.00193357,-0.00201549,-0.00107426,-0.
 00263405,-0.00094240,0.00170299,0.00204205,0.00015310,0.00133444,0.000
 78058,0.00001471,0.00009296,0.00122556,-0.00251000,0.00007166,0.001342
 32,0.00004688,0.00145836,0.00013724,0.00183719,0.00114273,-0.00158907,
 0.00039058,0.00046928,0.00036546,-0.00177975,-0.00143208,0.00328038,0.
 00054260,0.00141227,-0.00086789,-0.00063895,0.00096654,-0.00250873,0.0
 0033399,-0.00028938,-0.00152172,0.02581064,0.00672629,-0.00333528,-0.0
 0368612,0.02258393,-0.01144011,0.13275715,0.00163546,-0.00138024,0.000
 31100,0.00017736,-0.00057312,0.00044201,-0.00133583,0.00120081,-0.0002
 6059,0.00277878,-0.00234655,0.00151829,-0.00674426,0.00566218,-0.00042
 359,-0.00007294,0.00003789,-0.00017941,0.00147189,0.00316888,0.0001014
 1,-0.00552573,-0.00184158,0.00210509,0.00006366,-0.00003557,-0.0003410
 7,0.00218894,-0.00177906,-0.00103971,-0.00156968,0.00412111,-0.0052116
 0,-0.00077392,-0.00608040,0.00079460,-0.00022983,-0.00150674,0.0009202
 0,-0.04865708,-0.01602502,0.00347961,-0.00480928,-0.00354214,-0.005101
 11,-0.00150653,0.00397222,0.00422900,-0.00065634,0.00345754,0.00247454
 ,0.00023813,0.00064318,0.00228102,-0.00164582,0.00096821,-0.00142128,-
 0.00140584,0.00095174,0.00145506,0.00147185,-0.00206470,-0.00125274,0.
 00017254,-0.00033038,0.00054067,-0.00389917,-0.00423171,0.00687878,0.0
 0064363,0.00359421,-0.00298782,-0.00109623,0.00228177,-0.00509816,0.00
 086689,-0.00011626,-0.00277337,0.02723066,-0.02397804,0.00046958,0.064
 30296,0.06247073,-0.01435671,-0.05984307,0.00692240,-0.00167063,0.0022
 4404,-0.00048667,-0.00005959,-0.00004461,0.00004926,0.00069847,0.00038
 074,0.00006272,-0.00032242,0.00142713,-0.00087592,-0.00071825,-0.00010
 767,0.00070011,-0.00011610,-0.00048143,0.00027374,-0.00006638,0.000280
 01,0.00013798,0.00110394,0.00028355,-0.00064246,0.00010822,0.00008162,
 0.00023404,-0.00032174,0.00034616,0.00022867,0.00001183,-0.00052513,0.
 00094559,0.00016807,0.00097791,-0.00017962,-0.00002402,0.00021121,-0.0
 0010175,0.00684038,0.00189647,0.00107582,0.00071373,0.00043406,0.00106
 757,0.00016300,-0.00046046,-0.00058205,-0.00035801,-0.00040529,-0.0004
 1616,-0.00014013,-0.00001654,-0.00028097,0.00162966,-0.00103657,-0.001
 10957,-0.00041291,-0.00110947,0.00048130,-0.00177607,-0.00124361,0.001
 09999,-0.00022236,-0.00010002,-0.00006623,0.00090315,0.00094095,-0.001
 18271,-0.00018477,-0.00083307,0.00033699,0.00031521,-0.00050269,0.0010
 5534,-0.00002749,0.00015152,0.00057111,-0.00165798,0.00403308,-0.00330
 471,-0.01196439,0.00175336,-0.01906308,0.22126830,-0.07611525,0.414941
 54,-0.00135635,0.00009385,0.00013080,0.00003617,-0.00012956,0.00011793
 ,0.00011984,0.00047249,-0.00014606,0.00069346,0.00037123,-0.00033294,0
 .00033714,-0.00005529,0.00015689,-0.00009104,-0.00003700,0.00006623,-0
 .00003196,-0.00003611,-0.00004362,-0.00001000,0.00004662,0.00009651,0.
 00005772,-0.00001257,-0.00001468,0.00000469,-0.00003360,-0.00003587,-0
 .00010941,0.00011978,-0.00032655,-0.00004867,-0.00024172,0.00007004,-0
 .00003353,0.00003050,-0.00001609,-0.00134918,-0.00091104,0.00054601,-0
 .00053408,-0.00037676,-0.00027761,-0.00000020,0.00027695,0.00018458,0.
 00001681,0.00029665,0.00037865,0.00009853,0.00014231,-0.00005875,0.001
 00105,0.00091887,-0.00028855,-0.00016727,-0.00044188,0.00015685,-0.000
 86037,0.00020333,0.00018703,-0.00003626,-0.00009811,0.00003889,-0.0002
 4437,-0.00163627,0.00062588,-0.00061138,0.00086594,-0.00068537,0.00019
 798,0.00061176,-0.00031229,0.00009925,0.00017922,-0.00005420,-0.001164
 21,-0.00030607,-0.00057598,0.00509792,-0.00734236,0.01102813,-0.117293
 68,0.03652880,-0.21388069,0.11618137,-0.00031000,-0.00033742,-0.000192
 91,-0.00003584,-0.00004799,-0.00006155,-0.00012974,-0.00004524,0.00007
 532,-0.00006477,-0.00002125,-0.00007618,0.00105017,-0.00069539,-0.0003
 0858,0.00006412,0.00014480,-0.00009018,-0.00018407,-0.00035785,0.00007
 528,-0.00005817,0.00002907,0.00008769,-0.00007051,-0.00006913,-0.00009
 880,0.00000734,0.00003155,-0.00005903,0.00006093,-0.00004054,-0.000009
 11,0.00000757,0.00001715,0.00001258,0.00002026,0.00002108,-0.00004933,
 -0.00077069,-0.00021006,0.00007903,0.00010257,0.00006590,-0.00001173,0
 .00007848,-0.00003379,-0.00004171,-0.00013499,0.00006158,-0.00003507,-
 0.00001350,-0.00006357,-0.00002171,-0.00022328,0.00004670,0.00014227,-
 0.00005979,0.00045970,-0.00019706,0.00109337,-0.00026755,-0.00046530,-
 0.00003327,-0.00027749,-0.00015766,0.00002042,-0.00012078,-0.00004480,
 -0.00044281,0.00040702,-0.00000899,0.00017650,0.00012423,-0.00012481,-
 0.00013442,-0.00021962,-0.00015196,-0.00180502,-0.00350732,0.00323438,
 0.00787315,-0.01097927,0.01680814,0.02341598,-0.03362136,0.06753999,-0
 .02949998,0.04950686,0.00014152,-0.00044718,-0.00003926,-0.00006627,-0
 .00013353,0.00002774,0.00018916,0.00014438,0.00011300,0.00024994,0.000
 16717,-0.00002945,0.00046930,-0.00014499,-0.00025643,0.00001169,0.0000
 5971,-0.00003044,0.00003034,-0.00025504,0.00006416,-0.00013942,0.00004
 511,0.00019317,-0.00001247,-0.00000351,-0.00006051,0.00006546,-0.00007
 926,-0.00004278,-0.00000114,0.00010431,-0.00032054,-0.00005217,-0.0002
 1747,0.00003958,0.00000424,-0.00001505,0.00001948,-0.00001547,0.000180
 40,0.00021028,-0.00014928,0.00023306,-0.00021234,-0.00015804,0.0000247
 8,0.00015064,0.00021204,-0.00008188,-0.00019366,-0.00002814,-0.0001124
 0,0.00006663,-0.00002710,-0.00036483,0.00007525,0.00001504,0.00016304,
 -0.00021246,0.00054570,-0.00022886,-0.00002648,-0.00006805,-0.00017767
 ,-0.00004557,-0.00001603,-0.00031378,0.00033038,0.00017334,0.00037863,
 0.00036687,0.00003962,0.00016174,-0.00022402,-0.00004242,-0.00028091,-
 0.00012901,-0.00150726,-0.00008688,0.00087771,0.00145596,-0.00143240,0
 .00142682,-0.20458492,0.08856152,-0.39496987,0.20326484,-0.08584821,0.
 39283114\\-0.00000346,-0.00000271,0.00000812,-0.00000541,-0.00000530,0
 .00000579,-0.00000290,-0.00000320,0.00000738,-0.00000246,-0.00000250,0
 .00001060,-0.00000206,-0.00000136,-0.00000231,-0.00000485,-0.00000393,
 -0.00000130,-0.00000088,-0.00000124,-0.00000100,0.00000012,0.00000105,
 -0.00000564,0.00000314,0.00000300,-0.00000480,-0.00000007,-0.00000025,
 -0.00000849,-0.00000078,-0.00000101,-0.00000734,0.00000034,0.00000025,
 -0.00001027,-0.00000369,-0.00000243,-0.00000815,0.00000086,-0.00000001
 ,-0.00000425,-0.00000374,-0.00000319,-0.00000219,-0.00000282,-0.000002
 74,-0.00000513,-0.00000275,-0.00000195,0.00000055,-0.00000586,-0.00000
 494,-0.00000269,0.00000317,0.00000320,0.00000447,0.00000381,0.00000268
 ,0.00000515,0.00000404,0.00000340,0.00000865,0.00000581,0.00000531,0.0
 0000255,0.00000334,0.00000336,-0.00000447,0.00000407,0.00000282,0.0000
 0047,0.00000413,0.00000380,-0.00000623,0.00000471,0.00000512,-0.000003
 64,0.00000114,0.00000073,0.00000394,0.,0.00000035,0.00000362,0.0000006
 6,-0.00000037,0.00000925,0.00000236,0.00000203,0.00000736\\\@
 Job cpu time:  0 days  9 hours 52 minutes  7.7 seconds.
 File lengths (MBytes):  RWF=  79704 Int=      0 D2E=      0 Chk=     26 Scr=      1
 Normal termination of Gaussian 09 at Thu May  1 11:07:32 2014.
