 Entering Gaussian System, Link 0=g09
 Initial command:
 /usr/caen/gaussian-09revc/g09/l1.exe /scratch/avioli_flux/hetanjin/scratch/Gau-97131.inp -scrdir=/scratch/avioli_flux/hetanjin/scratch/
 Entering Link 1 = /usr/caen/gaussian-09revc/g09/l1.exe PID=     97132.
  
 Copyright (c) 1988,1990,1992,1993,1995,1998,2003,2009,2011,
            Gaussian, Inc.  All Rights Reserved.
  
 This is part of the Gaussian(R) 09 program.  It is based on
 the Gaussian(R) 03 system (copyright 2003, Gaussian, Inc.),
 the Gaussian(R) 98 system (copyright 1998, Gaussian, Inc.),
 the Gaussian(R) 94 system (copyright 1995, Gaussian, Inc.),
 the Gaussian 92(TM) system (copyright 1992, Gaussian, Inc.),
 the Gaussian 90(TM) system (copyright 1990, Gaussian, Inc.),
 the Gaussian 88(TM) system (copyright 1988, Gaussian, Inc.),
 the Gaussian 86(TM) system (copyright 1986, Carnegie Mellon
 University), and the Gaussian 82(TM) system (copyright 1983,
 Carnegie Mellon University). Gaussian is a federally registered
 trademark of Gaussian, Inc.
  
 This software contains proprietary and confidential information,
 including trade secrets, belonging to Gaussian, Inc.
  
 This software is provided under written license and may be
 used, copied, transmitted, or stored only in accord with that
 written license.
  
 The following legend is applicable only to US Government
 contracts under FAR:
  
                    RESTRICTED RIGHTS LEGEND
  
 Use, reproduction and disclosure by the US Government is
 subject to restrictions as set forth in subparagraphs (a)
 and (c) of the Commercial Computer Software - Restricted
 Rights clause in FAR 52.227-19.
  
 Gaussian, Inc.
 340 Quinnipiac St., Bldg. 40, Wallingford CT 06492
  
  
 ---------------------------------------------------------------
 Warning -- This program may not be used in any manner that
 competes with the business of Gaussian, Inc. or will provide
 assistance to any competitor of Gaussian, Inc.  The licensee
 of this program is prohibited from giving any competitor of
 Gaussian, Inc. access to this program.  By using this program,
 the user acknowledges that Gaussian, Inc. is engaged in the
 business of creating and licensing software in the field of
 computational chemistry and represents and warrants to the
 licensee that it is not a competitor of Gaussian, Inc. and that
 it will not use this program in any manner prohibited above.
 ---------------------------------------------------------------
  

 Cite this work as:
 Gaussian 09, Revision C.01,
 M. J. Frisch, G. W. Trucks, H. B. Schlegel, G. E. Scuseria, 
 M. A. Robb, J. R. Cheeseman, G. Scalmani, V. Barone, B. Mennucci, 
 G. A. Petersson, H. Nakatsuji, M. Caricato, X. Li, H. P. Hratchian, 
 A. F. Izmaylov, J. Bloino, G. Zheng, J. L. Sonnenberg, M. Hada, 
 M. Ehara, K. Toyota, R. Fukuda, J. Hasegawa, M. Ishida, T. Nakajima, 
 Y. Honda, O. Kitao, H. Nakai, T. Vreven, J. A. Montgomery, Jr., 
 J. E. Peralta, F. Ogliaro, M. Bearpark, J. J. Heyd, E. Brothers, 
 K. N. Kudin, V. N. Staroverov, T. Keith, R. Kobayashi, J. Normand, 
 K. Raghavachari, A. Rendell, J. C. Burant, S. S. Iyengar, J. Tomasi, 
 M. Cossi, N. Rega, J. M. Millam, M. Klene, J. E. Knox, J. B. Cross, 
 V. Bakken, C. Adamo, J. Jaramillo, R. Gomperts, R. E. Stratmann, 
 O. Yazyev, A. J. Austin, R. Cammi, C. Pomelli, J. W. Ochterski, 
 R. L. Martin, K. Morokuma, V. G. Zakrzewski, G. A. Voth, 
 P. Salvador, J. J. Dannenberg, S. Dapprich, A. D. Daniels, 
 O. Farkas, J. B. Foresman, J. V. Ortiz, J. Cioslowski, 
 and D. J. Fox, Gaussian, Inc., Wallingford CT, 2010.
 
 ******************************************
 Gaussian 09:  EM64L-G09RevC.01 23-Sep-2011
                29-Apr-2014 
 ******************************************
 %mem=30GB
 %nprocshared=8
 Will use up to    8 processors via shared memory.
 %chk=TS_2d_24.chk
 -------------------------------
 #p cbs-qb3 opt=(TS,calcfc) freq
 -------------------------------
 1/5=1,10=4,14=-1,18=20,26=3,38=1/1,3;
 2/9=110,12=2,17=6,18=5,40=1/2;
 3/5=4,6=6,7=700,11=2,16=1,25=1,30=1,71=2,74=-5/1,2,3;
 4//1;
 5/5=2,38=5/2;
 8/6=4,10=90,11=11/1;
 11/6=1,8=1,9=11,15=111,16=1/1,2,10;
 10/6=1,7=6,13=1/2;
 6/7=2,8=2,9=2,10=2,28=1/1;
 7/10=1,18=20,25=1/1,2,3,16;
 1/5=1,10=4,14=-1,18=20/3(2);
 2/9=110/2;
 99//99;
 2/9=110/2;
 3/5=4,6=6,7=700,11=2,16=1,25=1,30=1,71=1,74=-5/1,2,3;
 4/5=5,16=3/1;
 5/5=2,38=5/2;
 7//1,2,3,16;
 1/5=1,14=-1,18=20/3(-5);
 2/9=110/2;
 6/7=2,8=2,9=2,10=2,19=2,28=1/1;
 99/9=1/99;
 Leave Link    1 at Tue Apr 29 03:35:01 2014, MaxMem= 4026531840 cpu:       0.7
 (Enter /usr/caen/gaussian-09revc/g09/l101.exe)
 ----------------------------------------------------
 TS_2d_24 using b3lyp/6-311++g(d,p) to calculate freq
 ----------------------------------------------------
 Charge =  0 Multiplicity = 2
 Symbolic Z-Matrix:
 C                    -2.57622  -0.49743   1.46039 
 H                    -1.9247   -0.07485   2.23357 
 H                    -2.81197  -1.53192   1.73959 
 H                    -3.50307   0.07976   1.43289 
 C                    -0.49794  -1.17344   0.1091 
 H                    -0.14538  -1.33889   1.13291 
 H                    -0.52065  -2.14369  -0.40541 
 C                     0.3508   -0.13941  -0.58579 
 H                     0.32955  -0.12785  -1.67375 
 C                     1.47319   0.60149   0.0642 
 H                     1.36734   0.55655   1.15705 
 H                     1.39558   1.66273  -0.21563 
 C                     2.89091   0.10557  -0.33149 
 H                     2.96395   0.16267  -1.42808 
 C                     3.96273   1.03019   0.26246 
 H                     3.9292    1.01571   1.35966 
 H                     4.96793   0.7166   -0.04284 
 H                     3.82085   2.06785  -0.06191 
 C                    -2.78419  -0.94292  -1.02747 
 H                    -3.13713  -1.96341  -0.83445 
 H                    -3.65     -0.28207  -1.11706 
 H                    -2.24846  -0.93761  -1.98305 
 C                     3.12852  -1.35307   0.08402 
 H                     4.12713  -1.69053  -0.21759 
 H                     3.05545  -1.46731   1.17367 
 H                     2.39637  -2.02893  -0.37269 
 C                    -1.87462  -0.46745   0.10512 
 O                    -1.35478   0.86941  -0.20304 
 O                    -2.71292   1.86017  -0.18891 
 H                    -2.30949   2.50735   0.41548 
 
 NAtoms=     30 NQM=        0 NQMF=       0 NMMI=     30 NMMIF=      0
                NMic=       0 NMicF=      0.
                    Isotopes and Nuclear Properties:
 (Nuclear quadrupole moments (NQMom) in fm**2, nuclear magnetic moments (NMagM)
  in nuclear magnetons)

  Atom         1           2           3           4           5           6           7           8           9          10
 IAtWgt=          12           1           1           1          12           1           1          12           1          12
 AtmWgt=  12.0000000   1.0078250   1.0078250   1.0078250  12.0000000   1.0078250   1.0078250  12.0000000   1.0078250  12.0000000
 NucSpn=           0           1           1           1           0           1           1           0           1           0
 AtZEff=   0.0000000   0.0000000   0.0000000   0.0000000   0.0000000   0.0000000   0.0000000   0.0000000   0.0000000   0.0000000
 NQMom=    0.0000000   0.0000000   0.0000000   0.0000000   0.0000000   0.0000000   0.0000000   0.0000000   0.0000000   0.0000000
 NMagM=    0.0000000   2.7928460   2.7928460   2.7928460   0.0000000   2.7928460   2.7928460   0.0000000   2.7928460   0.0000000

  Atom        11          12          13          14          15          16          17          18          19          20
 IAtWgt=           1           1          12           1          12           1           1           1          12           1
 AtmWgt=   1.0078250   1.0078250  12.0000000   1.0078250  12.0000000   1.0078250   1.0078250   1.0078250  12.0000000   1.0078250
 NucSpn=           1           1           0           1           0           1           1           1           0           1
 AtZEff=   0.0000000   0.0000000   0.0000000   0.0000000   0.0000000   0.0000000   0.0000000   0.0000000   0.0000000   0.0000000
 NQMom=    0.0000000   0.0000000   0.0000000   0.0000000   0.0000000   0.0000000   0.0000000   0.0000000   0.0000000   0.0000000
 NMagM=    2.7928460   2.7928460   0.0000000   2.7928460   0.0000000   2.7928460   2.7928460   2.7928460   0.0000000   2.7928460

  Atom        21          22          23          24          25          26          27          28          29          30
 IAtWgt=           1           1          12           1           1           1          12          16          16           1
 AtmWgt=   1.0078250   1.0078250  12.0000000   1.0078250   1.0078250   1.0078250  12.0000000  15.9949146  15.9949146   1.0078250
 NucSpn=           1           1           0           1           1           1           0           0           0           1
 AtZEff=   0.0000000   0.0000000   0.0000000   0.0000000   0.0000000   0.0000000   0.0000000   0.0000000   0.0000000   0.0000000
 NQMom=    0.0000000   0.0000000   0.0000000   0.0000000   0.0000000   0.0000000   0.0000000   0.0000000   0.0000000   0.0000000
 NMagM=    2.7928460   2.7928460   0.0000000   2.7928460   2.7928460   2.7928460   0.0000000   0.0000000   0.0000000   2.7928460
 Leave Link  101 at Tue Apr 29 03:35:02 2014, MaxMem= 4026531840 cpu:       3.3
 (Enter /usr/caen/gaussian-09revc/g09/l103.exe)

 GradGradGradGradGradGradGradGradGradGradGradGradGradGradGradGradGradGrad
 Berny optimization.
 Initialization pass.
                           ----------------------------
                           !    Initial Parameters    !
                           ! (Angstroms and Degrees)  !
 --------------------------                            --------------------------
 ! Name  Definition              Value          Derivative Info.                !
 --------------------------------------------------------------------------------
 ! R1    R(1,2)                  1.0958         calculate D2E/DX2 analytically  !
 ! R2    R(1,3)                  1.0971         calculate D2E/DX2 analytically  !
 ! R3    R(1,4)                  1.0922         calculate D2E/DX2 analytically  !
 ! R4    R(1,27)                 1.5264         calculate D2E/DX2 analytically  !
 ! R5    R(5,6)                  1.0954         calculate D2E/DX2 analytically  !
 ! R6    R(5,7)                  1.0985         calculate D2E/DX2 analytically  !
 ! R7    R(5,8)                  1.5075         calculate D2E/DX2 analytically  !
 ! R8    R(5,27)                 1.5472         calculate D2E/DX2 analytically  !
 ! R9    R(8,9)                  1.0882         calculate D2E/DX2 analytically  !
 ! R10   R(8,10)                 1.4937         calculate D2E/DX2 analytically  !
 ! R11   R(10,11)                1.0989         calculate D2E/DX2 analytically  !
 ! R12   R(10,12)                1.1003         calculate D2E/DX2 analytically  !
 ! R13   R(10,13)                1.5532         calculate D2E/DX2 analytically  !
 ! R14   R(13,14)                1.1005         calculate D2E/DX2 analytically  !
 ! R15   R(13,15)                1.5351         calculate D2E/DX2 analytically  !
 ! R16   R(13,23)                1.5352         calculate D2E/DX2 analytically  !
 ! R17   R(15,16)                1.0978         calculate D2E/DX2 analytically  !
 ! R18   R(15,17)                1.0963         calculate D2E/DX2 analytically  !
 ! R19   R(15,18)                1.0964         calculate D2E/DX2 analytically  !
 ! R20   R(19,20)                1.0969         calculate D2E/DX2 analytically  !
 ! R21   R(19,21)                1.0929         calculate D2E/DX2 analytically  !
 ! R22   R(19,22)                1.0955         calculate D2E/DX2 analytically  !
 ! R23   R(19,27)                1.5284         calculate D2E/DX2 analytically  !
 ! R24   R(23,24)                1.0964         calculate D2E/DX2 analytically  !
 ! R25   R(23,25)                1.0981         calculate D2E/DX2 analytically  !
 ! R26   R(23,26)                1.0961         calculate D2E/DX2 analytically  !
 ! R27   R(27,28)                1.4671         calculate D2E/DX2 analytically  !
 ! R28   R(28,29)                1.6812         calculate D2E/DX2 analytically  !
 ! R29   R(29,30)                0.9731         calculate D2E/DX2 analytically  !
 ! A1    A(2,1,3)              108.1688         calculate D2E/DX2 analytically  !
 ! A2    A(2,1,4)              108.5719         calculate D2E/DX2 analytically  !
 ! A3    A(2,1,27)             110.2184         calculate D2E/DX2 analytically  !
 ! A4    A(3,1,4)              108.8049         calculate D2E/DX2 analytically  !
 ! A5    A(3,1,27)             110.0745         calculate D2E/DX2 analytically  !
 ! A6    A(4,1,27)             110.9352         calculate D2E/DX2 analytically  !
 ! A7    A(6,5,7)              108.121          calculate D2E/DX2 analytically  !
 ! A8    A(6,5,8)              110.686          calculate D2E/DX2 analytically  !
 ! A9    A(6,5,27)             110.9608         calculate D2E/DX2 analytically  !
 ! A10   A(7,5,8)              113.6782         calculate D2E/DX2 analytically  !
 ! A11   A(7,5,27)             112.5474         calculate D2E/DX2 analytically  !
 ! A12   A(8,5,27)             100.7659         calculate D2E/DX2 analytically  !
 ! A13   A(5,8,9)              117.203          calculate D2E/DX2 analytically  !
 ! A14   A(5,8,10)             124.2433         calculate D2E/DX2 analytically  !
 ! A15   A(9,8,10)             116.388          calculate D2E/DX2 analytically  !
 ! A16   A(8,10,11)            109.8826         calculate D2E/DX2 analytically  !
 ! A17   A(8,10,12)            108.346          calculate D2E/DX2 analytically  !
 ! A18   A(8,10,13)            114.6225         calculate D2E/DX2 analytically  !
 ! A19   A(11,10,12)           106.594          calculate D2E/DX2 analytically  !
 ! A20   A(11,10,13)           109.1605         calculate D2E/DX2 analytically  !
 ! A21   A(12,10,13)           107.9124         calculate D2E/DX2 analytically  !
 ! A22   A(10,13,14)           107.3292         calculate D2E/DX2 analytically  !
 ! A23   A(10,13,15)           110.2691         calculate D2E/DX2 analytically  !
 ! A24   A(10,13,23)           112.0675         calculate D2E/DX2 analytically  !
 ! A25   A(14,13,15)           107.9352         calculate D2E/DX2 analytically  !
 ! A26   A(14,13,23)           107.9827         calculate D2E/DX2 analytically  !
 ! A27   A(15,13,23)           111.07           calculate D2E/DX2 analytically  !
 ! A28   A(13,15,16)           110.9422         calculate D2E/DX2 analytically  !
 ! A29   A(13,15,17)           111.1088         calculate D2E/DX2 analytically  !
 ! A30   A(13,15,18)           111.4222         calculate D2E/DX2 analytically  !
 ! A31   A(16,15,17)           107.6108         calculate D2E/DX2 analytically  !
 ! A32   A(16,15,18)           107.7109         calculate D2E/DX2 analytically  !
 ! A33   A(17,15,18)           107.8768         calculate D2E/DX2 analytically  !
 ! A34   A(20,19,21)           108.7886         calculate D2E/DX2 analytically  !
 ! A35   A(20,19,22)           108.3815         calculate D2E/DX2 analytically  !
 ! A36   A(20,19,27)           110.5177         calculate D2E/DX2 analytically  !
 ! A37   A(21,19,22)           108.2386         calculate D2E/DX2 analytically  !
 ! A38   A(21,19,27)           110.1263         calculate D2E/DX2 analytically  !
 ! A39   A(22,19,27)           110.7218         calculate D2E/DX2 analytically  !
 ! A40   A(13,23,24)           111.0365         calculate D2E/DX2 analytically  !
 ! A41   A(13,23,25)           110.925          calculate D2E/DX2 analytically  !
 ! A42   A(13,23,26)           111.6979         calculate D2E/DX2 analytically  !
 ! A43   A(24,23,25)           107.5524         calculate D2E/DX2 analytically  !
 ! A44   A(24,23,26)           107.6966         calculate D2E/DX2 analytically  !
 ! A45   A(25,23,26)           107.751          calculate D2E/DX2 analytically  !
 ! A46   A(1,27,5)             113.4373         calculate D2E/DX2 analytically  !
 ! A47   A(1,27,19)            112.2274         calculate D2E/DX2 analytically  !
 ! A48   A(1,27,28)            111.5469         calculate D2E/DX2 analytically  !
 ! A49   A(5,27,19)            112.9224         calculate D2E/DX2 analytically  !
 ! A50   A(5,27,28)             95.8002         calculate D2E/DX2 analytically  !
 ! A51   A(19,27,28)           109.7966         calculate D2E/DX2 analytically  !
 ! A52   A(27,28,29)           104.4183         calculate D2E/DX2 analytically  !
 ! A53   A(28,29,30)            93.5688         calculate D2E/DX2 analytically  !
 ! D1    D(2,1,27,5)            55.1204         calculate D2E/DX2 analytically  !
 ! D2    D(2,1,27,19)         -175.4048         calculate D2E/DX2 analytically  !
 ! D3    D(2,1,27,28)          -51.7136         calculate D2E/DX2 analytically  !
 ! D4    D(3,1,27,5)           -64.1136         calculate D2E/DX2 analytically  !
 ! D5    D(3,1,27,19)           65.3613         calculate D2E/DX2 analytically  !
 ! D6    D(3,1,27,28)         -170.9475         calculate D2E/DX2 analytically  !
 ! D7    D(4,1,27,5)           175.4049         calculate D2E/DX2 analytically  !
 ! D8    D(4,1,27,19)          -55.1202         calculate D2E/DX2 analytically  !
 ! D9    D(4,1,27,28)           68.571          calculate D2E/DX2 analytically  !
 ! D10   D(6,5,8,9)            159.7921         calculate D2E/DX2 analytically  !
 ! D11   D(6,5,8,10)            -2.8363         calculate D2E/DX2 analytically  !
 ! D12   D(7,5,8,9)             37.8813         calculate D2E/DX2 analytically  !
 ! D13   D(7,5,8,10)          -124.7471         calculate D2E/DX2 analytically  !
 ! D14   D(27,5,8,9)           -82.7544         calculate D2E/DX2 analytically  !
 ! D15   D(27,5,8,10)          114.6172         calculate D2E/DX2 analytically  !
 ! D16   D(6,5,27,1)           -15.1034         calculate D2E/DX2 analytically  !
 ! D17   D(6,5,27,19)         -144.2253         calculate D2E/DX2 analytically  !
 ! D18   D(6,5,27,28)          101.4085         calculate D2E/DX2 analytically  !
 ! D19   D(7,5,27,1)           106.2073         calculate D2E/DX2 analytically  !
 ! D20   D(7,5,27,19)          -22.9145         calculate D2E/DX2 analytically  !
 ! D21   D(7,5,27,28)         -137.2808         calculate D2E/DX2 analytically  !
 ! D22   D(8,5,27,1)          -132.3549         calculate D2E/DX2 analytically  !
 ! D23   D(8,5,27,19)           98.5233         calculate D2E/DX2 analytically  !
 ! D24   D(8,5,27,28)          -15.843          calculate D2E/DX2 analytically  !
 ! D25   D(5,8,10,11)          -19.6525         calculate D2E/DX2 analytically  !
 ! D26   D(5,8,10,12)         -135.7487         calculate D2E/DX2 analytically  !
 ! D27   D(5,8,10,13)          103.6926         calculate D2E/DX2 analytically  !
 ! D28   D(9,8,10,11)          177.5909         calculate D2E/DX2 analytically  !
 ! D29   D(9,8,10,12)           61.4946         calculate D2E/DX2 analytically  !
 ! D30   D(9,8,10,13)          -59.0641         calculate D2E/DX2 analytically  !
 ! D31   D(8,10,13,14)          56.253          calculate D2E/DX2 analytically  !
 ! D32   D(8,10,13,15)         173.5826         calculate D2E/DX2 analytically  !
 ! D33   D(8,10,13,23)         -62.1368         calculate D2E/DX2 analytically  !
 ! D34   D(11,10,13,14)        179.9843         calculate D2E/DX2 analytically  !
 ! D35   D(11,10,13,15)        -62.6862         calculate D2E/DX2 analytically  !
 ! D36   D(11,10,13,23)         61.5945         calculate D2E/DX2 analytically  !
 ! D37   D(12,10,13,14)        -64.545          calculate D2E/DX2 analytically  !
 ! D38   D(12,10,13,15)         52.7845         calculate D2E/DX2 analytically  !
 ! D39   D(12,10,13,23)        177.0652         calculate D2E/DX2 analytically  !
 ! D40   D(10,13,15,16)         62.6797         calculate D2E/DX2 analytically  !
 ! D41   D(10,13,15,17)       -177.6511         calculate D2E/DX2 analytically  !
 ! D42   D(10,13,15,18)        -57.3241         calculate D2E/DX2 analytically  !
 ! D43   D(14,13,15,16)        179.6335         calculate D2E/DX2 analytically  !
 ! D44   D(14,13,15,17)        -60.6973         calculate D2E/DX2 analytically  !
 ! D45   D(14,13,15,18)         59.6297         calculate D2E/DX2 analytically  !
 ! D46   D(23,13,15,16)        -62.1733         calculate D2E/DX2 analytically  !
 ! D47   D(23,13,15,17)         57.496          calculate D2E/DX2 analytically  !
 ! D48   D(23,13,15,18)        177.8229         calculate D2E/DX2 analytically  !
 ! D49   D(10,13,23,24)        179.0734         calculate D2E/DX2 analytically  !
 ! D50   D(10,13,23,25)        -61.3898         calculate D2E/DX2 analytically  !
 ! D51   D(10,13,23,26)         58.8382         calculate D2E/DX2 analytically  !
 ! D52   D(14,13,23,24)         61.0716         calculate D2E/DX2 analytically  !
 ! D53   D(14,13,23,25)       -179.3916         calculate D2E/DX2 analytically  !
 ! D54   D(14,13,23,26)        -59.1636         calculate D2E/DX2 analytically  !
 ! D55   D(15,13,23,24)        -57.0929         calculate D2E/DX2 analytically  !
 ! D56   D(15,13,23,25)         62.4439         calculate D2E/DX2 analytically  !
 ! D57   D(15,13,23,26)       -177.3281         calculate D2E/DX2 analytically  !
 ! D58   D(20,19,27,1)         -58.3443         calculate D2E/DX2 analytically  !
 ! D59   D(20,19,27,5)          71.397          calculate D2E/DX2 analytically  !
 ! D60   D(20,19,27,28)        176.9918         calculate D2E/DX2 analytically  !
 ! D61   D(21,19,27,1)          61.881          calculate D2E/DX2 analytically  !
 ! D62   D(21,19,27,5)        -168.3777         calculate D2E/DX2 analytically  !
 ! D63   D(21,19,27,28)        -62.7828         calculate D2E/DX2 analytically  !
 ! D64   D(22,19,27,1)        -178.4479         calculate D2E/DX2 analytically  !
 ! D65   D(22,19,27,5)         -48.7066         calculate D2E/DX2 analytically  !
 ! D66   D(22,19,27,28)         56.8883         calculate D2E/DX2 analytically  !
 ! D67   D(1,27,28,29)         -59.3922         calculate D2E/DX2 analytically  !
 ! D68   D(5,27,28,29)        -177.4225         calculate D2E/DX2 analytically  !
 ! D69   D(19,27,28,29)         65.6641         calculate D2E/DX2 analytically  !
 ! D70   D(27,28,29,30)        128.8986         calculate D2E/DX2 analytically  !
 --------------------------------------------------------------------------------
 Trust Radius=3.00D-01 FncErr=1.00D-07 GrdErr=1.00D-06
 Number of steps in this run=    162 maximum allowed number of steps=    180.
 Search for a saddle point of order  1.
 GradGradGradGradGradGradGradGradGradGradGradGradGradGradGradGradGradGrad

 Leave Link  103 at Tue Apr 29 03:35:02 2014, MaxMem= 4026531840 cpu:       0.2
 (Enter /usr/caen/gaussian-09revc/g09/l202.exe)
                          Input orientation:                          
 ---------------------------------------------------------------------
 Center     Atomic      Atomic             Coordinates (Angstroms)
 Number     Number       Type             X           Y           Z
 ---------------------------------------------------------------------
      1          6           0       -2.576219   -0.497434    1.460391
      2          1           0       -1.924696   -0.074847    2.233567
      3          1           0       -2.811973   -1.531921    1.739588
      4          1           0       -3.503068    0.079764    1.432892
      5          6           0       -0.497936   -1.173435    0.109104
      6          1           0       -0.145382   -1.338891    1.132906
      7          1           0       -0.520647   -2.143689   -0.405413
      8          6           0        0.350802   -0.139409   -0.585788
      9          1           0        0.329546   -0.127847   -1.673751
     10          6           0        1.473186    0.601493    0.064195
     11          1           0        1.367338    0.556551    1.157045
     12          1           0        1.395578    1.662730   -0.215633
     13          6           0        2.890909    0.105569   -0.331487
     14          1           0        2.963952    0.162673   -1.428083
     15          6           0        3.962733    1.030190    0.262458
     16          1           0        3.929200    1.015709    1.359661
     17          1           0        4.967931    0.716600   -0.042842
     18          1           0        3.820854    2.067849   -0.061906
     19          6           0       -2.784186   -0.942922   -1.027469
     20          1           0       -3.137131   -1.963412   -0.834450
     21          1           0       -3.650001   -0.282065   -1.117063
     22          1           0       -2.248457   -0.937613   -1.983052
     23          6           0        3.128516   -1.353066    0.084023
     24          1           0        4.127133   -1.690527   -0.217593
     25          1           0        3.055446   -1.467309    1.173670
     26          1           0        2.396369   -2.028930   -0.372689
     27          6           0       -1.874615   -0.467448    0.105115
     28          8           0       -1.354783    0.869406   -0.203042
     29          8           0       -2.712922    1.860168   -0.188905
     30          1           0       -2.309493    2.507346    0.415475
 ---------------------------------------------------------------------
                    Distance matrix (angstroms):
                    1          2          3          4          5
     1  C    0.000000
     2  H    1.095839   0.000000
     3  H    1.097130   1.776046   0.000000
     4  H    1.092228   1.776582   1.780226   0.000000
     5  C    2.569477   2.784939   2.853377   3.514789   0.000000
     6  H    2.593119   2.444426   2.741538   3.657407   1.095372
     7  H    3.227500   3.635337   3.197728   4.149451   1.098470
     8  C    3.589218   3.623648   4.165286   4.356078   1.507462
     9  H    4.289861   4.511269   4.846798   4.937941   2.226332
    10  C    4.422068   4.087690   5.071586   5.187354   2.652868
    11  H    4.093232   3.520661   4.708260   4.901456   2.751414
    12  H    4.821881   4.476826   5.633131   5.405566   3.425592
    13  C    5.784801   5.459130   6.284392   6.632996   3.648869
    14  H    6.282716   6.112526   6.801992   7.072086   4.016565
    15  C    6.821039   6.306203   7.392088   7.616522   4.977655
    16  H    6.679837   6.018399   7.216521   7.491326   5.094681
    17  H    7.787669   7.301831   8.292153   8.622133   5.785415
    18  H    7.058371   6.547647   7.758745   7.734774   5.402510
    19  C    2.535973   3.482332   2.829187   2.759720   2.563567
    20  H    2.780289   3.801237   2.630130   3.073974   2.911994
    21  H    2.800475   3.774432   3.228759   2.579686   3.497648
    22  H    3.486902   4.316140   3.811666   3.778595   2.738075
    23  C    5.930472   5.638203   6.169465   6.917395   3.630985
    24  H    7.012420   6.726310   7.211581   8.004873   4.665338
    25  H    5.721758   5.278650   5.895002   6.743496   3.721046
    26  H    5.516547   5.411341   5.642301   6.519975   3.056305
    27  C    1.526408   2.164937   2.164081   2.171242   1.547152
    28  O    2.475311   2.674599   3.415199   2.813351   2.237146
    29  O    2.880478   3.199055   3.903225   2.534639   3.767986
    30  H    3.192443   3.181391   4.280355   2.890141   4.113849
                    6          7          8          9         10
     6  H    0.000000
     7  H    1.776218   0.000000
     8  C    2.153802   2.192965   0.000000
     9  H    3.093462   2.528859   1.088232   0.000000
    10  C    2.743537   3.425190   1.493707   2.204610   0.000000
    11  H    2.425202   3.646513   2.134285   3.091734   1.098883
    12  H    3.633572   4.265766   2.115721   2.543364   1.100250
    13  C    3.667421   4.086972   2.564532   2.901161   1.553204
    14  H    4.298990   4.302045   2.762113   2.661738   2.154493
    15  C    4.821497   5.533557   3.890184   4.276681   2.533956
    16  H    4.711452   5.735714   4.233675   4.844256   2.807456
    17  H    5.635015   6.199774   4.727094   4.988744   3.498278
    18  H    5.363253   6.058356   4.145805   4.428132   2.770857
    19  C    3.433263   2.636741   3.266323   3.282888   4.658558
    20  H    3.634705   2.657548   3.943919   4.011430   5.351759
    21  H    4.296696   3.710114   4.038444   4.021253   5.331331
    22  H    3.780627   2.632279   3.057061   2.719832   4.517820
    23  C    3.437843   3.765770   3.104401   3.524935   2.561408
    24  H    4.494650   4.673595   4.099050   4.357067   3.517982
    25  H    3.203662   3.967296   3.489142   4.163231   2.830976
    26  H    3.033722   2.919456   2.792856   3.094937   2.821748
    27  C    2.192262   2.214419   2.353176   2.852721   3.514553
    28  O    2.850260   3.132966   2.018223   2.448359   2.853174
    29  O    4.309690   4.569881   3.679977   3.926014   4.378564
    30  H    4.471199   5.050342   3.883942   4.274767   4.250216
                   11         12         13         14         15
    11  H    0.000000
    12  H    1.763143   0.000000
    13  C    2.177242   2.161987   0.000000
    14  H    3.063854   2.485961   1.100508   0.000000
    15  C    2.785802   2.686813   1.535090   2.146643   0.000000
    16  H    2.610559   3.052774   2.183205   3.070976   1.097811
    17  H    3.798633   3.699557   2.184192   2.498331   1.096344
    18  H    3.128834   2.463680   2.188153   2.496080   1.096393
    19  C    4.925005   4.991886   5.812953   5.867190   7.146887
    20  H    5.532315   5.837576   6.393037   6.488132   7.782861
    21  H    5.572121   5.482032   6.599310   6.636181   7.847217
    22  H    5.016643   4.812956   5.498089   5.356102   6.891549
    23  C    2.810651   3.491116   1.535162   2.147326   2.531337
    24  H    3.815162   4.325012   2.183388   2.500525   2.767630
    25  H    2.635525   3.805584   2.183235   3.071536   2.809089
    26  H    3.175485   3.828133   2.191427   2.497825   3.495014
    27  C    3.558847   3.915955   4.819667   5.114634   6.028458
    28  O    3.059029   2.862518   4.315767   4.544411   5.340273
    29  O    4.489935   4.113328   5.873829   6.053425   6.742178
    30  H    4.227838   3.852171   5.776735   6.058500   6.445636
                   16         17         18         19         20
    16  H    0.000000
    17  H    1.770718   0.000000
    18  H    1.771889   1.772575   0.000000
    19  C    7.389464   7.988668   7.322814   0.000000
    20  H    7.976360   8.573280   8.078456   1.096917   0.000000
    21  H    8.078531   8.741855   7.902476   1.092884   1.780403
    22  H    7.290586   7.653567   7.039896   1.095524   1.778002
    23  C    2.807034   2.771833   3.493320   6.030230   6.361953
    24  H    3.138570   2.555727   3.774048   6.998653   7.295513
    25  H    2.638829   3.147532   3.822282   6.262691   6.528911
    26  H    3.823668   3.776197   4.348487   5.333507   5.553120
    27  C    6.120287   6.945811   6.236505   1.528444   2.171322
    28  O    5.512161   6.326589   5.314452   2.451001   3.405921
    29  O    6.872332   7.766890   6.538309   2.926702   3.900826
    30  H    6.483653   7.508510   6.164593   3.769850   4.715398
                   21         22         23         24         25
    21  H    0.000000
    22  H    1.773134   0.000000
    23  C    6.966918   5.775573   0.000000
    24  H    7.954661   6.658218   1.096398   0.000000
    25  H    7.184378   6.194906   1.098053   1.770297   0.000000
    26  H    6.337525   5.035737   1.096092   1.770343   1.772294
    27  C    2.163350   2.172845   5.080953   6.133599   5.142668
    28  O    2.725683   2.689313   5.012161   6.050196   5.177421
    29  O    2.515702   3.355931   6.672463   7.706790   6.797263
    30  H    3.453469   4.198142   6.677169   7.710582   6.719770
                   26         27         28         29         30
    26  H    0.000000
    27  C    4.572508   0.000000
    28  O    4.743445   1.467094   0.000000
    29  O    6.423684   2.491386   1.681175   0.000000
    30  H    6.583627   3.022390   1.994212   0.973072   0.000000
 Stoichiometry    C9H19O2(2)
 Framework group  C1[X(C9H19O2)]
 Deg. of freedom    84
 Full point group                 C1      NOp   1
 Largest Abelian subgroup         C1      NOp   1
 Largest concise Abelian subgroup C1      NOp   1
                         Standard orientation:                         
 ---------------------------------------------------------------------
 Center     Atomic      Atomic             Coordinates (Angstroms)
 Number     Number       Type             X           Y           Z
 ---------------------------------------------------------------------
      1          6           0       -2.576219   -0.497434    1.460391
      2          1           0       -1.924696   -0.074847    2.233567
      3          1           0       -2.811973   -1.531921    1.739588
      4          1           0       -3.503068    0.079764    1.432892
      5          6           0       -0.497936   -1.173435    0.109104
      6          1           0       -0.145382   -1.338891    1.132906
      7          1           0       -0.520647   -2.143689   -0.405413
      8          6           0        0.350802   -0.139409   -0.585788
      9          1           0        0.329546   -0.127847   -1.673751
     10          6           0        1.473186    0.601493    0.064195
     11          1           0        1.367338    0.556551    1.157045
     12          1           0        1.395578    1.662730   -0.215633
     13          6           0        2.890909    0.105569   -0.331487
     14          1           0        2.963952    0.162673   -1.428083
     15          6           0        3.962733    1.030190    0.262458
     16          1           0        3.929200    1.015709    1.359661
     17          1           0        4.967931    0.716600   -0.042842
     18          1           0        3.820854    2.067849   -0.061906
     19          6           0       -2.784186   -0.942922   -1.027469
     20          1           0       -3.137131   -1.963412   -0.834450
     21          1           0       -3.650001   -0.282065   -1.117063
     22          1           0       -2.248457   -0.937613   -1.983052
     23          6           0        3.128516   -1.353066    0.084023
     24          1           0        4.127133   -1.690527   -0.217593
     25          1           0        3.055446   -1.467309    1.173670
     26          1           0        2.396369   -2.028930   -0.372689
     27          6           0       -1.874615   -0.467448    0.105115
     28          8           0       -1.354783    0.869406   -0.203042
     29          8           0       -2.712922    1.860168   -0.188905
     30          1           0       -2.309493    2.507346    0.415475
 ---------------------------------------------------------------------
 Rotational constants (GHZ):      2.0127358      0.4904928      0.4454903
 Leave Link  202 at Tue Apr 29 03:35:02 2014, MaxMem= 4026531840 cpu:       0.6
 (Enter /usr/caen/gaussian-09revc/g09/l301.exe)
 Standard basis: 6-311G(2d,d,p) (5D, 7F)
 Ernie: Thresh=  0.10000D-02 Tol=  0.10000D-05 Strict=F.
 There are   312 symmetry adapted basis functions of A   symmetry.
 Integral buffers will be    131072 words long.
 Raffenetti 2 integral format.
 Two-electron integral symmetry is turned on.
   312 basis functions,   504 primitive gaussians,   323 cartesian basis functions
    45 alpha electrons       44 beta electrons
       nuclear repulsion energy       669.9090758555 Hartrees.
 IExCor=  402 DFT=T Ex+Corr=B3LYP ExCW=0 ScaHFX=  0.200000
 ScaDFX=  0.800000  0.720000  1.000000  0.810000 ScalE2=  1.000000  1.000000
 IRadAn=      0 IRanWt=     -1 IRanGd=            0 ICorTp=0
 NAtoms=   30 NActive=   30 NUniq=   30 SFac= 1.00D+00 NAtFMM=   60 NAOKFM=F Big=F
 Leave Link  301 at Tue Apr 29 03:35:03 2014, MaxMem= 4026531840 cpu:       0.8
 (Enter /usr/caen/gaussian-09revc/g09/l302.exe)
 NPDir=0 NMtPBC=     1 NCelOv=     1 NCel=       1 NClECP=     1 NCelD=      1
         NCelK=      1 NCelE2=     1 NClLst=     1 CellRange=     0.0.
 One-electron integrals computed using PRISM.
 NBasis=   312 RedAO= T  NBF=   312
 NBsUse=   312 1.00D-06 NBFU=   312
 Precomputing XC quadrature grid using
 IXCGrd= 2 IRadAn=           0 IRanWt=          -1 IRanGd=           0 AccXCQ= 0.00D+00.
 NRdTot=    1909 NPtTot=      243114 NUsed=      256880 NTot=      256912
 NSgBfM=   323   323   323   323   323 NAtAll=    30    30.
 Leave Link  302 at Tue Apr 29 03:35:04 2014, MaxMem= 4026531840 cpu:       7.7
 (Enter /usr/caen/gaussian-09revc/g09/l303.exe)
 DipDrv:  MaxL=1.
 Leave Link  303 at Tue Apr 29 03:35:05 2014, MaxMem= 4026531840 cpu:       2.4
 (Enter /usr/caen/gaussian-09revc/g09/l401.exe)
 Harris functional with IExCor=  402 diagonalized for initial guess.
 ExpMin= 1.03D-01 ExpMax= 8.59D+03 ExpMxC= 1.30D+03 IAcc=1 IRadAn=         1 AccDes= 0.00D+00
 HarFok:  IExCor=  402 AccDes= 0.00D+00 IRadAn=         1 IDoV= 1
 ScaDFX=  1.000000  1.000000  1.000000  1.000000
 FoFCou: FMM=F IPFlag=           0 FMFlag=      100000 FMFlg1=           0
         NFxFlg=           0 DoJE=T BraDBF=F KetDBF=T FulRan=T
         Omega=  0.000000  0.000000  1.000000  0.000000  0.000000 ICntrl=     500 IOpCl=  0
         NMat0=    1 NMatS0=    1 NMatT0=    0 NMatD0=    1 NMtDS0=    0 NMtDT0=    0
         I1Cent=           4 NGrid=           0.
 Petite list used in FoFCou.
 Harris En= -504.909753276480    
 Initial guess orbital symmetries:
 Alpha Orbitals:
       Occupied  (A) (A) (A) (A) (A) (A) (A) (A) (A) (A) (A) (A)
                 (A) (A) (A) (A) (A) (A) (A) (A) (A) (A) (A) (A)
                 (A) (A) (A) (A) (A) (A) (A) (A) (A) (A) (A) (A)
                 (A) (A) (A) (A) (A) (A) (A) (A) (A)
       Virtual   (A) (A) (A) (A) (A) (A) (A) (A) (A) (A) (A) (A)
                 (A) (A) (A) (A) (A) (A) (A) (A) (A) (A) (A) (A)
                 (A) (A) (A) (A) (A) (A) (A) (A) (A) (A) (A) (A)
                 (A) (A) (A) (A) (A) (A) (A) (A) (A) (A) (A) (A)
                 (A) (A) (A) (A) (A) (A) (A) (A) (A) (A) (A) (A)
                 (A) (A) (A) (A) (A) (A) (A) (A) (A) (A) (A) (A)
                 (A) (A) (A) (A) (A) (A) (A) (A) (A) (A) (A) (A)
                 (A) (A) (A) (A) (A) (A) (A) (A) (A) (A) (A) (A)
                 (A) (A) (A) (A) (A) (A) (A) (A) (A) (A) (A) (A)
                 (A) (A) (A) (A) (A) (A) (A) (A) (A) (A) (A) (A)
                 (A) (A) (A) (A) (A) (A) (A) (A) (A) (A) (A) (A)
                 (A) (A) (A) (A) (A) (A) (A) (A) (A) (A) (A) (A)
                 (A) (A) (A) (A) (A) (A) (A) (A) (A) (A) (A) (A)
                 (A) (A) (A) (A) (A) (A) (A) (A) (A) (A) (A) (A)
                 (A) (A) (A) (A) (A) (A) (A) (A) (A) (A) (A) (A)
                 (A) (A) (A) (A) (A) (A) (A) (A) (A) (A) (A) (A)
                 (A) (A) (A) (A) (A) (A) (A) (A) (A) (A) (A) (A)
                 (A) (A) (A) (A) (A) (A) (A) (A) (A) (A) (A) (A)
                 (A) (A) (A) (A) (A) (A) (A) (A) (A) (A) (A) (A)
                 (A) (A) (A) (A) (A) (A) (A) (A) (A) (A) (A) (A)
                 (A) (A) (A) (A) (A) (A) (A) (A) (A) (A) (A) (A)
                 (A) (A) (A) (A) (A) (A) (A) (A) (A) (A) (A) (A)
                 (A) (A) (A)
 Beta  Orbitals:
       Occupied  (A) (A) (A) (A) (A) (A) (A) (A) (A) (A) (A) (A)
                 (A) (A) (A) (A) (A) (A) (A) (A) (A) (A) (A) (A)
                 (A) (A) (A) (A) (A) (A) (A) (A) (A) (A) (A) (A)
                 (A) (A) (A) (A) (A) (A) (A) (A)
       Virtual   (A) (A) (A) (A) (A) (A) (A) (A) (A) (A) (A) (A)
                 (A) (A) (A) (A) (A) (A) (A) (A) (A) (A) (A) (A)
                 (A) (A) (A) (A) (A) (A) (A) (A) (A) (A) (A) (A)
                 (A) (A) (A) (A) (A) (A) (A) (A) (A) (A) (A) (A)
                 (A) (A) (A) (A) (A) (A) (A) (A) (A) (A) (A) (A)
                 (A) (A) (A) (A) (A) (A) (A) (A) (A) (A) (A) (A)
                 (A) (A) (A) (A) (A) (A) (A) (A) (A) (A) (A) (A)
                 (A) (A) (A) (A) (A) (A) (A) (A) (A) (A) (A) (A)
                 (A) (A) (A) (A) (A) (A) (A) (A) (A) (A) (A) (A)
                 (A) (A) (A) (A) (A) (A) (A) (A) (A) (A) (A) (A)
                 (A) (A) (A) (A) (A) (A) (A) (A) (A) (A) (A) (A)
                 (A) (A) (A) (A) (A) (A) (A) (A) (A) (A) (A) (A)
                 (A) (A) (A) (A) (A) (A) (A) (A) (A) (A) (A) (A)
                 (A) (A) (A) (A) (A) (A) (A) (A) (A) (A) (A) (A)
                 (A) (A) (A) (A) (A) (A) (A) (A) (A) (A) (A) (A)
                 (A) (A) (A) (A) (A) (A) (A) (A) (A) (A) (A) (A)
                 (A) (A) (A) (A) (A) (A) (A) (A) (A) (A) (A) (A)
                 (A) (A) (A) (A) (A) (A) (A) (A) (A) (A) (A) (A)
                 (A) (A) (A) (A) (A) (A) (A) (A) (A) (A) (A) (A)
                 (A) (A) (A) (A) (A) (A) (A) (A) (A) (A) (A) (A)
                 (A) (A) (A) (A) (A) (A) (A) (A) (A) (A) (A) (A)
                 (A) (A) (A) (A) (A) (A) (A) (A) (A) (A) (A) (A)
                 (A) (A) (A) (A)
 The electronic state of the initial guess is 2-A.
 Initial guess <Sx>= 0.0000 <Sy>= 0.0000 <Sz>= 0.5000 <S**2>= 0.7500 S= 0.5000
 Leave Link  401 at Tue Apr 29 03:35:07 2014, MaxMem= 4026531840 cpu:       7.0
 (Enter /usr/caen/gaussian-09revc/g09/l502.exe)
 UHF open shell SCF:
 Requested convergence on RMS density matrix=1.00D-08 within 128 cycles.
 Requested convergence on MAX density matrix=1.00D-06.
 Requested convergence on             energy=1.00D-06.
 No special actions if energy rises.
 Using DIIS extrapolation, IDIIS=  1040.
 Integral symmetry usage will be decided dynamically.
       256597 words used for storage of precomputed grid.
 Keep R1 and R2 ints in memory in canonical form, NReq=2755661328.
 IEnd=      592755 IEndB=      592755 NGot=  4026531840 MDV=  1287997748
 LenX=  1287997748 LenY=  1287892978
 Symmetry not used in FoFDir.
 MinBra= 0 MaxBra= 2 Meth= 1.
 IRaf=       0 NMat=   1 IRICut=       1 DoRegI=T DoRafI=F ISym2E= 0 JSym2E=0.
 Integral accuracy reduced to 1.0D-05 until final iterations.

 Cycle   1  Pass 0  IDiag  1:
 E= -504.431188621704    
 DIIS: error= 3.59D-02 at cycle   1 NSaved=   1.
 NSaved= 1 IEnMin= 1 EnMin= -504.431188621704     IErMin= 1 ErrMin= 3.59D-02
 ErrMax= 3.59D-02 EMaxC= 1.00D-01 BMatC= 1.66D+00 BMatP= 1.66D+00
 IDIUse=3 WtCom= 6.41D-01 WtEn= 3.59D-01
 Coeff-Com:  0.100D+01
 Coeff-En:   0.100D+01
 Coeff:      0.100D+01
 Gap=     0.131 Goal=   None    Shift=    0.000
 Gap=     0.174 Goal=   None    Shift=    0.000
 GapD=    0.131 DampG=1.000 DampE=0.500 DampFc=0.5000 IDamp=-1.
 Damping current iteration by 5.00D-01
 RMSDP=3.56D-03 MaxDP=1.33D-01              OVMax= 2.80D-01

 Cycle   2  Pass 0  IDiag  1:
 E= -504.584005001910     Delta-E=       -0.152816380206 Rises=F Damp=T
 DIIS: error= 9.07D-03 at cycle   2 NSaved=   2.
 NSaved= 2 IEnMin= 2 EnMin= -504.584005001910     IErMin= 2 ErrMin= 9.07D-03
 ErrMax= 9.07D-03 EMaxC= 1.00D-01 BMatC= 1.51D-01 BMatP= 1.66D+00
 IDIUse=3 WtCom= 9.09D-01 WtEn= 9.07D-02
 Coeff-Com:  0.129D+00 0.871D+00
 Coeff-En:   0.218D+00 0.782D+00
 Coeff:      0.138D+00 0.862D+00
 Gap=     0.147 Goal=   None    Shift=    0.000
 Gap=     0.239 Goal=   None    Shift=    0.000
 RMSDP=1.07D-03 MaxDP=5.45D-02 DE=-1.53D-01 OVMax= 2.81D-01

 Cycle   3  Pass 0  IDiag  1:
 E= -504.762659286784     Delta-E=       -0.178654284874 Rises=F Damp=F
 DIIS: error= 1.84D-02 at cycle   3 NSaved=   3.
 NSaved= 3 IEnMin= 3 EnMin= -504.762659286784     IErMin= 2 ErrMin= 9.07D-03
 ErrMax= 1.84D-02 EMaxC= 1.00D-01 BMatC= 3.16D-01 BMatP= 1.51D-01
 IDIUse=2 WtCom= 0.00D+00 WtEn= 1.00D+00
 Coeff-En:   0.000D+00 0.000D+00 0.100D+01
 Coeff:      0.000D+00 0.000D+00 0.100D+01
 Gap=     0.126 Goal=   None    Shift=    0.000
 Gap=     0.236 Goal=   None    Shift=    0.000
 RMSDP=3.19D-03 MaxDP=1.22D-01 DE=-1.79D-01 OVMax= 8.37D-01

 Cycle   4  Pass 0  IDiag  1:
 E= -503.604946658583     Delta-E=        1.157712628201 Rises=F Damp=F
 DIIS: error= 5.75D-02 at cycle   4 NSaved=   4.
 NSaved= 4 IEnMin= 3 EnMin= -504.762659286784     IErMin= 2 ErrMin= 9.07D-03
 ErrMax= 5.75D-02 EMaxC= 1.00D-01 BMatC= 4.77D+00 BMatP= 1.51D-01
 IDIUse=2 WtCom= 0.00D+00 WtEn= 1.00D+00
 Coeff-En:   0.000D+00 0.000D+00 0.907D+00 0.934D-01
 Coeff:      0.000D+00 0.000D+00 0.907D+00 0.934D-01
 Gap=     0.147 Goal=   None    Shift=    0.000
 Gap=    -0.024 Goal=   None    Shift=    0.000
 RMSDP=2.29D-03 MaxDP=1.18D-01 DE= 1.16D+00 OVMax= 7.91D-01

 Cycle   5  Pass 0  IDiag  1:
 E= -504.693943354999     Delta-E=       -1.088996696416 Rises=F Damp=F
 DIIS: error= 2.53D-02 at cycle   5 NSaved=   5.
 NSaved= 5 IEnMin= 3 EnMin= -504.762659286784     IErMin= 2 ErrMin= 9.07D-03
 ErrMax= 2.53D-02 EMaxC= 1.00D-01 BMatC= 6.71D-01 BMatP= 1.51D-01
 IDIUse=2 WtCom= 0.00D+00 WtEn= 1.00D+00
 Coeff-En:   0.000D+00 0.000D+00 0.622D+00 0.000D+00 0.378D+00
 Coeff:      0.000D+00 0.000D+00 0.622D+00 0.000D+00 0.378D+00
 Gap=     0.141 Goal=   None    Shift=    0.000
 Gap=     0.168 Goal=   None    Shift=    0.000
 RMSDP=7.70D-04 MaxDP=3.78D-02 DE=-1.09D+00 OVMax= 1.15D-01

 Cycle   6  Pass 0  IDiag  1:
 E= -504.823970839913     Delta-E=       -0.130027484915 Rises=F Damp=F
 DIIS: error= 3.72D-03 at cycle   6 NSaved=   6.
 NSaved= 6 IEnMin= 6 EnMin= -504.823970839913     IErMin= 6 ErrMin= 3.72D-03
 ErrMax= 3.72D-03 EMaxC= 1.00D-01 BMatC= 1.79D-02 BMatP= 1.51D-01
 IDIUse=3 WtCom= 9.63D-01 WtEn= 3.72D-02
 Coeff-Com:  0.300D-02 0.134D-01 0.309D+00-0.240D-01 0.200D+00 0.499D+00
 Coeff-En:   0.000D+00 0.000D+00 0.557D-01 0.000D+00 0.000D+00 0.944D+00
 Coeff:      0.288D-02 0.129D-01 0.299D+00-0.231D-01 0.193D+00 0.516D+00
 Gap=     0.140 Goal=   None    Shift=    0.000
 Gap=     0.174 Goal=   None    Shift=    0.000
 RMSDP=1.96D-04 MaxDP=6.85D-03 DE=-1.30D-01 OVMax= 4.49D-02

 Cycle   7  Pass 0  IDiag  1:
 E= -504.827838467010     Delta-E=       -0.003867627097 Rises=F Damp=F
 DIIS: error= 1.77D-03 at cycle   7 NSaved=   7.
 NSaved= 7 IEnMin= 7 EnMin= -504.827838467010     IErMin= 7 ErrMin= 1.77D-03
 ErrMax= 1.77D-03 EMaxC= 1.00D-01 BMatC= 1.96D-03 BMatP= 1.79D-02
 IDIUse=3 WtCom= 9.82D-01 WtEn= 1.77D-02
 Coeff-Com: -0.147D-02-0.531D-02 0.200D-01-0.187D-03-0.455D-01 0.273D+00
 Coeff-Com:  0.759D+00
 Coeff-En:   0.000D+00 0.000D+00 0.000D+00 0.000D+00 0.000D+00 0.000D+00
 Coeff-En:   0.100D+01
 Coeff:     -0.145D-02-0.522D-02 0.197D-01-0.183D-03-0.447D-01 0.268D+00
 Coeff:      0.764D+00
 Gap=     0.145 Goal=   None    Shift=    0.000
 Gap=     0.172 Goal=   None    Shift=    0.000
 RMSDP=5.94D-05 MaxDP=4.22D-03 DE=-3.87D-03 OVMax= 9.40D-03

 Cycle   8  Pass 0  IDiag  1:
 E= -504.828355879027     Delta-E=       -0.000517412017 Rises=F Damp=F
 DIIS: error= 4.12D-04 at cycle   8 NSaved=   8.
 NSaved= 8 IEnMin= 8 EnMin= -504.828355879027     IErMin= 8 ErrMin= 4.12D-04
 ErrMax= 4.12D-04 EMaxC= 1.00D-01 BMatC= 1.08D-04 BMatP= 1.96D-03
 IDIUse=3 WtCom= 9.96D-01 WtEn= 4.12D-03
 Coeff-Com: -0.599D-03-0.998D-03-0.158D-01 0.244D-02-0.301D-01 0.508D-01
 Coeff-Com:  0.234D+00 0.761D+00
 Coeff-En:   0.000D+00 0.000D+00 0.000D+00 0.000D+00 0.000D+00 0.000D+00
 Coeff-En:   0.000D+00 0.100D+01
 Coeff:     -0.596D-03-0.994D-03-0.157D-01 0.243D-02-0.300D-01 0.506D-01
 Coeff:      0.233D+00 0.762D+00
 Gap=     0.146 Goal=   None    Shift=    0.000
 Gap=     0.172 Goal=   None    Shift=    0.000
 RMSDP=2.86D-05 MaxDP=1.48D-03 DE=-5.17D-04 OVMax= 3.58D-03

 Cycle   9  Pass 0  IDiag  1:
 E= -504.828439165968     Delta-E=       -0.000083286941 Rises=F Damp=F
 DIIS: error= 2.30D-04 at cycle   9 NSaved=   9.
 NSaved= 9 IEnMin= 9 EnMin= -504.828439165968     IErMin= 9 ErrMin= 2.30D-04
 ErrMax= 2.30D-04 EMaxC= 1.00D-01 BMatC= 4.90D-05 BMatP= 1.08D-04
 IDIUse=3 WtCom= 9.98D-01 WtEn= 2.30D-03
 Coeff-Com: -0.420D-04 0.248D-02-0.249D-01 0.192D-03 0.962D-02-0.111D+00
 Coeff-Com: -0.315D+00 0.283D+00 0.116D+01
 Coeff-En:   0.000D+00 0.000D+00 0.000D+00 0.000D+00 0.000D+00 0.000D+00
 Coeff-En:   0.000D+00 0.000D+00 0.100D+01
 Coeff:     -0.419D-04 0.248D-02-0.248D-01 0.192D-03 0.959D-02-0.111D+00
 Coeff:     -0.315D+00 0.282D+00 0.116D+01
 Gap=     0.148 Goal=   None    Shift=    0.000
 Gap=     0.173 Goal=   None    Shift=    0.000
 RMSDP=3.42D-05 MaxDP=2.07D-03 DE=-8.33D-05 OVMax= 6.41D-03

 Cycle  10  Pass 0  IDiag  1:
 E= -504.828503424426     Delta-E=       -0.000064258458 Rises=F Damp=F
 DIIS: error= 9.10D-05 at cycle  10 NSaved=  10.
 NSaved=10 IEnMin=10 EnMin= -504.828503424426     IErMin=10 ErrMin= 9.10D-05
 ErrMax= 9.10D-05 EMaxC= 1.00D-01 BMatC= 1.07D-05 BMatP= 4.90D-05
 IDIUse=1 WtCom= 1.00D+00 WtEn= 0.00D+00
 Coeff-Com:  0.196D-05 0.131D-02-0.925D-02-0.300D-03 0.804D-02-0.562D-01
 Coeff-Com: -0.188D+00-0.466D-01 0.517D+00 0.775D+00
 Coeff:      0.196D-05 0.131D-02-0.925D-02-0.300D-03 0.804D-02-0.562D-01
 Coeff:     -0.188D+00-0.466D-01 0.517D+00 0.775D+00
 Gap=     0.148 Goal=   None    Shift=    0.000
 Gap=     0.174 Goal=   None    Shift=    0.000
 RMSDP=1.41D-05 MaxDP=7.07D-04 DE=-6.43D-05 OVMax= 1.91D-03

 Cycle  11  Pass 0  IDiag  1:
 E= -504.828511838585     Delta-E=       -0.000008414159 Rises=F Damp=F
 DIIS: error= 4.18D-05 at cycle  11 NSaved=  11.
 NSaved=11 IEnMin=11 EnMin= -504.828511838585     IErMin=11 ErrMin= 4.18D-05
 ErrMax= 4.18D-05 EMaxC= 1.00D-01 BMatC= 2.54D-06 BMatP= 1.07D-05
 IDIUse=1 WtCom= 1.00D+00 WtEn= 0.00D+00
 Coeff-Com: -0.631D-04 0.181D-03 0.357D-03-0.916D-04 0.108D-02-0.565D-03
 Coeff-Com: -0.324D-01-0.738D-01 0.405D-01 0.351D+00 0.714D+00
 Coeff:     -0.631D-04 0.181D-03 0.357D-03-0.916D-04 0.108D-02-0.565D-03
 Coeff:     -0.324D-01-0.738D-01 0.405D-01 0.351D+00 0.714D+00
 Gap=     0.148 Goal=   None    Shift=    0.000
 Gap=     0.174 Goal=   None    Shift=    0.000
 RMSDP=4.49D-06 MaxDP=1.95D-04 DE=-8.41D-06 OVMax= 8.33D-04

 Initial convergence to 1.0D-05 achieved.  Increase integral accuracy.
 Cycle  12  Pass 1  IDiag  1:
 E= -504.828545642368     Delta-E=       -0.000033803783 Rises=F Damp=F
 DIIS: error= 2.13D-05 at cycle   1 NSaved=   1.
 NSaved= 1 IEnMin= 1 EnMin= -504.828545642368     IErMin= 1 ErrMin= 2.13D-05
 ErrMax= 2.13D-05 EMaxC= 1.00D-01 BMatC= 1.25D-06 BMatP= 1.25D-06
 IDIUse=1 WtCom= 1.00D+00 WtEn= 0.00D+00
 Coeff-Com:  0.100D+01
 Coeff:      0.100D+01
 Gap=     0.149 Goal=   None    Shift=    0.000
 Gap=     0.173 Goal=   None    Shift=    0.000
 RMSDP=4.49D-06 MaxDP=1.95D-04 DE=-3.38D-05 OVMax= 3.48D-04

 Cycle  13  Pass 1  IDiag  1:
 E= -504.828545723144     Delta-E=       -0.000000080775 Rises=F Damp=F
 DIIS: error= 3.64D-05 at cycle   2 NSaved=   2.
 NSaved= 2 IEnMin= 2 EnMin= -504.828545723144     IErMin= 1 ErrMin= 2.13D-05
 ErrMax= 3.64D-05 EMaxC= 1.00D-01 BMatC= 1.69D-06 BMatP= 1.25D-06
 IDIUse=1 WtCom= 1.00D+00 WtEn= 0.00D+00
 Coeff-Com:  0.548D+00 0.452D+00
 Coeff:      0.548D+00 0.452D+00
 Gap=     0.148 Goal=   None    Shift=    0.000
 Gap=     0.174 Goal=   None    Shift=    0.000
 RMSDP=3.19D-06 MaxDP=1.06D-04 DE=-8.08D-08 OVMax= 8.20D-04

 Cycle  14  Pass 1  IDiag  1:
 E= -504.828546070159     Delta-E=       -0.000000347015 Rises=F Damp=F
 DIIS: error= 2.32D-05 at cycle   3 NSaved=   3.
 NSaved= 3 IEnMin= 3 EnMin= -504.828546070159     IErMin= 1 ErrMin= 2.13D-05
 ErrMax= 2.32D-05 EMaxC= 1.00D-01 BMatC= 5.37D-07 BMatP= 1.25D-06
 IDIUse=1 WtCom= 1.00D+00 WtEn= 0.00D+00
 Coeff-Com:  0.423D-01 0.349D+00 0.608D+00
 Coeff:      0.423D-01 0.349D+00 0.608D+00
 Gap=     0.148 Goal=   None    Shift=    0.000
 Gap=     0.173 Goal=   None    Shift=    0.000
 RMSDP=1.14D-06 MaxDP=4.66D-05 DE=-3.47D-07 OVMax= 1.19D-04

 Cycle  15  Pass 1  IDiag  1:
 E= -504.828546194797     Delta-E=       -0.000000124638 Rises=F Damp=F
 DIIS: error= 5.73D-06 at cycle   4 NSaved=   4.
 NSaved= 4 IEnMin= 4 EnMin= -504.828546194797     IErMin= 4 ErrMin= 5.73D-06
 ErrMax= 5.73D-06 EMaxC= 1.00D-01 BMatC= 6.42D-08 BMatP= 5.37D-07
 IDIUse=1 WtCom= 1.00D+00 WtEn= 0.00D+00
 Coeff-Com: -0.613D-01 0.172D+00 0.314D+00 0.575D+00
 Coeff:     -0.613D-01 0.172D+00 0.314D+00 0.575D+00
 Gap=     0.148 Goal=   None    Shift=    0.000
 Gap=     0.173 Goal=   None    Shift=    0.000
 RMSDP=5.74D-07 MaxDP=2.23D-05 DE=-1.25D-07 OVMax= 1.22D-04

 Cycle  16  Pass 1  IDiag  1:
 E= -504.828546217590     Delta-E=       -0.000000022793 Rises=F Damp=F
 DIIS: error= 4.26D-06 at cycle   5 NSaved=   5.
 NSaved= 5 IEnMin= 5 EnMin= -504.828546217590     IErMin= 5 ErrMin= 4.26D-06
 ErrMax= 4.26D-06 EMaxC= 1.00D-01 BMatC= 2.06D-08 BMatP= 6.42D-08
 IDIUse=1 WtCom= 1.00D+00 WtEn= 0.00D+00
 Coeff-Com: -0.321D-01 0.237D-01-0.562D-01 0.264D+00 0.801D+00
 Coeff:     -0.321D-01 0.237D-01-0.562D-01 0.264D+00 0.801D+00
 Gap=     0.148 Goal=   None    Shift=    0.000
 Gap=     0.173 Goal=   None    Shift=    0.000
 RMSDP=4.03D-07 MaxDP=1.99D-05 DE=-2.28D-08 OVMax= 6.30D-05

 Cycle  17  Pass 1  IDiag  1:
 E= -504.828546226766     Delta-E=       -0.000000009176 Rises=F Damp=F
 DIIS: error= 4.68D-06 at cycle   6 NSaved=   6.
 NSaved= 6 IEnMin= 6 EnMin= -504.828546226766     IErMin= 5 ErrMin= 4.26D-06
 ErrMax= 4.68D-06 EMaxC= 1.00D-01 BMatC= 1.71D-08 BMatP= 2.06D-08
 IDIUse=1 WtCom= 1.00D+00 WtEn= 0.00D+00
 Coeff-Com:  0.405D-02-0.794D-01-0.283D+00-0.836D-01 0.843D+00 0.599D+00
 Coeff:      0.405D-02-0.794D-01-0.283D+00-0.836D-01 0.843D+00 0.599D+00
 Gap=     0.148 Goal=   None    Shift=    0.000
 Gap=     0.173 Goal=   None    Shift=    0.000
 RMSDP=4.00D-07 MaxDP=1.61D-05 DE=-9.18D-09 OVMax= 6.21D-05

 Cycle  18  Pass 1  IDiag  1:
 E= -504.828546233611     Delta-E=       -0.000000006846 Rises=F Damp=F
 DIIS: error= 1.10D-06 at cycle   7 NSaved=   7.
 NSaved= 7 IEnMin= 7 EnMin= -504.828546233611     IErMin= 7 ErrMin= 1.10D-06
 ErrMax= 1.10D-06 EMaxC= 1.00D-01 BMatC= 1.20D-09 BMatP= 1.71D-08
 IDIUse=1 WtCom= 1.00D+00 WtEn= 0.00D+00
 Coeff-Com:  0.103D-01-0.492D-01-0.142D+00-0.115D+00 0.302D+00 0.309D+00
 Coeff-Com:  0.685D+00
 Coeff:      0.103D-01-0.492D-01-0.142D+00-0.115D+00 0.302D+00 0.309D+00
 Coeff:      0.685D+00
 Gap=     0.148 Goal=   None    Shift=    0.000
 Gap=     0.173 Goal=   None    Shift=    0.000
 RMSDP=1.38D-07 MaxDP=4.96D-06 DE=-6.85D-09 OVMax= 2.08D-05

 Cycle  19  Pass 1  IDiag  1:
 E= -504.828546234403     Delta-E=       -0.000000000792 Rises=F Damp=F
 DIIS: error= 3.56D-07 at cycle   8 NSaved=   8.
 NSaved= 8 IEnMin= 8 EnMin= -504.828546234403     IErMin= 8 ErrMin= 3.56D-07
 ErrMax= 3.56D-07 EMaxC= 1.00D-01 BMatC= 2.57D-10 BMatP= 1.20D-09
 IDIUse=1 WtCom= 1.00D+00 WtEn= 0.00D+00
 Coeff-Com:  0.319D-02-0.633D-02-0.231D-02-0.305D-01-0.701D-02 0.369D-02
 Coeff-Com:  0.238D+00 0.801D+00
 Coeff:      0.319D-02-0.633D-02-0.231D-02-0.305D-01-0.701D-02 0.369D-02
 Coeff:      0.238D+00 0.801D+00
 Gap=     0.148 Goal=   None    Shift=    0.000
 Gap=     0.173 Goal=   None    Shift=    0.000
 RMSDP=4.49D-08 MaxDP=2.16D-06 DE=-7.92D-10 OVMax= 7.98D-06

 Cycle  20  Pass 1  IDiag  1:
 E= -504.828546234563     Delta-E=       -0.000000000159 Rises=F Damp=F
 DIIS: error= 2.25D-07 at cycle   9 NSaved=   9.
 NSaved= 9 IEnMin= 9 EnMin= -504.828546234563     IErMin= 9 ErrMin= 2.25D-07
 ErrMax= 2.25D-07 EMaxC= 1.00D-01 BMatC= 7.15D-11 BMatP= 2.57D-10
 IDIUse=1 WtCom= 1.00D+00 WtEn= 0.00D+00
 Coeff-Com: -0.308D-02 0.166D-01 0.617D-01 0.313D-01-0.132D+00-0.137D+00
 Coeff-Com: -0.200D+00 0.340D+00 0.102D+01
 Coeff:     -0.308D-02 0.166D-01 0.617D-01 0.313D-01-0.132D+00-0.137D+00
 Coeff:     -0.200D+00 0.340D+00 0.102D+01
 Gap=     0.148 Goal=   None    Shift=    0.000
 Gap=     0.173 Goal=   None    Shift=    0.000
 RMSDP=4.40D-08 MaxDP=2.32D-06 DE=-1.59D-10 OVMax= 8.39D-06

 Cycle  21  Pass 1  IDiag  1:
 E= -504.828546234638     Delta-E=       -0.000000000075 Rises=F Damp=F
 DIIS: error= 7.41D-08 at cycle  10 NSaved=  10.
 NSaved=10 IEnMin=10 EnMin= -504.828546234638     IErMin=10 ErrMin= 7.41D-08
 ErrMax= 7.41D-08 EMaxC= 1.00D-01 BMatC= 9.95D-12 BMatP= 7.15D-11
 IDIUse=1 WtCom= 1.00D+00 WtEn= 0.00D+00
 Coeff-Com: -0.121D-02 0.481D-02 0.179D-01 0.115D-01-0.329D-01-0.363D-01
 Coeff-Com: -0.935D-01-0.288D-01 0.300D+00 0.859D+00
 Coeff:     -0.121D-02 0.481D-02 0.179D-01 0.115D-01-0.329D-01-0.363D-01
 Coeff:     -0.935D-01-0.288D-01 0.300D+00 0.859D+00
 Gap=     0.148 Goal=   None    Shift=    0.000
 Gap=     0.173 Goal=   None    Shift=    0.000
 RMSDP=1.18D-08 MaxDP=5.23D-07 DE=-7.55D-11 OVMax= 2.28D-06

 Cycle  22  Pass 1  IDiag  1:
 E= -504.828546234649     Delta-E=       -0.000000000010 Rises=F Damp=F
 DIIS: error= 3.17D-08 at cycle  11 NSaved=  11.
 NSaved=11 IEnMin=11 EnMin= -504.828546234649     IErMin=11 ErrMin= 3.17D-08
 ErrMax= 3.17D-08 EMaxC= 1.00D-01 BMatC= 1.25D-12 BMatP= 9.95D-12
 IDIUse=1 WtCom= 1.00D+00 WtEn= 0.00D+00
 Coeff-Com: -0.614D-04-0.339D-03-0.753D-03 0.397D-03 0.436D-02 0.367D-02
 Coeff-Com: -0.115D-01-0.565D-01-0.765D-02 0.329D+00 0.739D+00
 Coeff:     -0.614D-04-0.339D-03-0.753D-03 0.397D-03 0.436D-02 0.367D-02
 Coeff:     -0.115D-01-0.565D-01-0.765D-02 0.329D+00 0.739D+00
 Gap=     0.148 Goal=   None    Shift=    0.000
 Gap=     0.173 Goal=   None    Shift=    0.000
 RMSDP=3.09D-09 MaxDP=1.23D-07 DE=-1.05D-11 OVMax= 5.78D-07

 SCF Done:  E(UB3LYP) =  -504.828546235     A.U. after   22 cycles
             Convg  =    0.3093D-08             -V/T =  2.0044
 <Sx>= 0.0000 <Sy>= 0.0000 <Sz>= 0.5000 <S**2>= 0.7854 S= 0.5175
 <L.S>= 0.000000000000E+00
 KE= 5.026030958723D+02 PE=-2.516594822405D+03 EE= 8.392541044422D+02
 Annihilation of the first spin contaminant:
 S**2 before annihilation     0.7854,   after     0.7502
 Leave Link  502 at Tue Apr 29 03:37:17 2014, MaxMem= 4026531840 cpu:    1027.8
 (Enter /usr/caen/gaussian-09revc/g09/l801.exe)
 Range of M.O.s used for correlation:     1   312
 NBasis=   312 NAE=    45 NBE=    44 NFC=     0 NFV=     0
 NROrb=    312 NOA=    45 NOB=    44 NVA=   267 NVB=   268
 Leave Link  801 at Tue Apr 29 03:37:18 2014, MaxMem= 4026531840 cpu:       2.0
 (Enter /usr/caen/gaussian-09revc/g09/l1101.exe)
 Using compressed storage, NAtomX=    30.
 Will process  31 centers per pass.
 Leave Link 1101 at Tue Apr 29 03:37:21 2014, MaxMem= 4026531840 cpu:      15.4
 (Enter /usr/caen/gaussian-09revc/g09/l1102.exe)
 Symmetrizing basis deriv contribution to polar:
 IMax=3 JMax=2 DiffMx= 0.00D+00
 Leave Link 1102 at Tue Apr 29 03:37:21 2014, MaxMem= 4026531840 cpu:       1.3
 (Enter /usr/caen/gaussian-09revc/g09/l1110.exe)
 Forming Gx(P) for the SCF density, NAtomX=    30.
 Integral derivatives from FoFDir/FoFCou, PRISM(SPDF).
 Do as many integral derivatives as possible in FoFDir.
 G2DrvN: MDV=    4026531496.
 G2DrvN: will do    31 centers at a time, making    1 passes doing MaxLOS=2.
 Calling FoFCou, ICntrl=  3107 FMM=F I1Cent=   0 AccDes= 0.00D+00.
 FoFCou: FMM=F IPFlag=           0 FMFlag=      100000 FMFlg1=           0
         NFxFlg=           0 DoJE=F BraDBF=F KetDBF=F FulRan=T
         Omega=  0.000000  0.000000  1.000000  0.000000  0.000000 ICntrl=    3107 IOpCl=  1
         NMat0=    1 NMatS0=    1 NMatT0=    0 NMatD0=    1 NMtDS0=    0 NMtDT0=    0
         I1Cent=           0 NGrid=           0.
 Symmetry not used in FoFCou.
 FoFDir/FoFCou used for L=0 through L=2.
 End of G2Drv Frequency-dependent properties file   721 does not exist.
 End of G2Drv Frequency-dependent properties file   722 does not exist.
 Leave Link 1110 at Tue Apr 29 03:39:47 2014, MaxMem= 4026531840 cpu:    1166.8
 (Enter /usr/caen/gaussian-09revc/g09/l1002.exe)
 Minotr:  UHF open shell wavefunction.
          IDoAtm=111111111111111111111111111111
          Direct CPHF calculation.
          Differentiating once with respect to nuclear coordinates.
          Requested convergence is 1.0D-06 RMS, and 1.0D-05 maximum.
          Secondary convergence is 1.0D-12 RMS, and 1.0D-12 maximum.
          NewPWx=T KeepS1=F KeepF1=F KeepIn=T MapXYZ=F SortEE=F KeepMc=T.
          MDV=    4026531536 using IRadAn=       2.
 Generate precomputed XC quadrature information.
          Keep R1 and R2 ints in memory in canonical form, NReq=2738891878.
 Symmetry not used in FoFDir.
 MinBra= 0 MaxBra= 2 Meth= 1.
 IRaf=       0 NMat=   1 IRICut=       1 DoRegI=T DoRafI=F ISym2E= 0 JSym2E=0.
          Solving linear equations simultaneously, MaxMat=       0.
          There are    93 degrees of freedom in the 1st order CPHF.  IDoFFX=5.
     87 vectors produced by pass  0 Test12= 2.56D-10 1.08D-07 XBig12= 2.45D-01 2.86D-01.
 AX will form    87 AO Fock derivatives at one time.
     87 vectors produced by pass  1 Test12= 2.56D-10 1.08D-07 XBig12= 3.62D-02 4.49D-02.
     87 vectors produced by pass  2 Test12= 2.56D-10 1.08D-07 XBig12= 1.36D-04 1.52D-03.
     87 vectors produced by pass  3 Test12= 2.56D-10 1.08D-07 XBig12= 9.40D-07 1.28D-04.
     73 vectors produced by pass  4 Test12= 2.56D-10 1.08D-07 XBig12= 6.49D-09 6.99D-06.
     16 vectors produced by pass  5 Test12= 2.56D-10 1.08D-07 XBig12= 2.37D-11 3.31D-07.
 Inverted reduced A of dimension   437 with in-core refinement.
 End of Minotr Frequency-dependent properties file   721 does not exist.
 End of Minotr Frequency-dependent properties file   722 does not exist.
 Leave Link 1002 at Tue Apr 29 03:43:26 2014, MaxMem= 4026531840 cpu:    1744.8
 (Enter /usr/caen/gaussian-09revc/g09/l601.exe)
 Copying SCF densities to generalized density rwf, IOpCl= 1 IROHF=0.

 **********************************************************************

            Population analysis using the SCF density.

 **********************************************************************

 Orbital symmetries:
 Alpha Orbitals:
       Occupied  (A) (A) (A) (A) (A) (A) (A) (A) (A) (A) (A) (A)
                 (A) (A) (A) (A) (A) (A) (A) (A) (A) (A) (A) (A)
                 (A) (A) (A) (A) (A) (A) (A) (A) (A) (A) (A) (A)
                 (A) (A) (A) (A) (A) (A) (A) (A) (A)
       Virtual   (A) (A) (A) (A) (A) (A) (A) (A) (A) (A) (A) (A)
                 (A) (A) (A) (A) (A) (A) (A) (A) (A) (A) (A) (A)
                 (A) (A) (A) (A) (A) (A) (A) (A) (A) (A) (A) (A)
                 (A) (A) (A) (A) (A) (A) (A) (A) (A) (A) (A) (A)
                 (A) (A) (A) (A) (A) (A) (A) (A) (A) (A) (A) (A)
                 (A) (A) (A) (A) (A) (A) (A) (A) (A) (A) (A) (A)
                 (A) (A) (A) (A) (A) (A) (A) (A) (A) (A) (A) (A)
                 (A) (A) (A) (A) (A) (A) (A) (A) (A) (A) (A) (A)
                 (A) (A) (A) (A) (A) (A) (A) (A) (A) (A) (A) (A)
                 (A) (A) (A) (A) (A) (A) (A) (A) (A) (A) (A) (A)
                 (A) (A) (A) (A) (A) (A) (A) (A) (A) (A) (A) (A)
                 (A) (A) (A) (A) (A) (A) (A) (A) (A) (A) (A) (A)
                 (A) (A) (A) (A) (A) (A) (A) (A) (A) (A) (A) (A)
                 (A) (A) (A) (A) (A) (A) (A) (A) (A) (A) (A) (A)
                 (A) (A) (A) (A) (A) (A) (A) (A) (A) (A) (A) (A)
                 (A) (A) (A) (A) (A) (A) (A) (A) (A) (A) (A) (A)
                 (A) (A) (A) (A) (A) (A) (A) (A) (A) (A) (A) (A)
                 (A) (A) (A) (A) (A) (A) (A) (A) (A) (A) (A) (A)
                 (A) (A) (A) (A) (A) (A) (A) (A) (A) (A) (A) (A)
                 (A) (A) (A) (A) (A) (A) (A) (A) (A) (A) (A) (A)
                 (A) (A) (A) (A) (A) (A) (A) (A) (A) (A) (A) (A)
                 (A) (A) (A) (A) (A) (A) (A) (A) (A) (A) (A) (A)
                 (A) (A) (A)
 Beta  Orbitals:
       Occupied  (A) (A) (A) (A) (A) (A) (A) (A) (A) (A) (A) (A)
                 (A) (A) (A) (A) (A) (A) (A) (A) (A) (A) (A) (A)
                 (A) (A) (A) (A) (A) (A) (A) (A) (A) (A) (A) (A)
                 (A) (A) (A) (A) (A) (A) (A) (A)
       Virtual   (A) (A) (A) (A) (A) (A) (A) (A) (A) (A) (A) (A)
                 (A) (A) (A) (A) (A) (A) (A) (A) (A) (A) (A) (A)
                 (A) (A) (A) (A) (A) (A) (A) (A) (A) (A) (A) (A)
                 (A) (A) (A) (A) (A) (A) (A) (A) (A) (A) (A) (A)
                 (A) (A) (A) (A) (A) (A) (A) (A) (A) (A) (A) (A)
                 (A) (A) (A) (A) (A) (A) (A) (A) (A) (A) (A) (A)
                 (A) (A) (A) (A) (A) (A) (A) (A) (A) (A) (A) (A)
                 (A) (A) (A) (A) (A) (A) (A) (A) (A) (A) (A) (A)
                 (A) (A) (A) (A) (A) (A) (A) (A) (A) (A) (A) (A)
                 (A) (A) (A) (A) (A) (A) (A) (A) (A) (A) (A) (A)
                 (A) (A) (A) (A) (A) (A) (A) (A) (A) (A) (A) (A)
                 (A) (A) (A) (A) (A) (A) (A) (A) (A) (A) (A) (A)
                 (A) (A) (A) (A) (A) (A) (A) (A) (A) (A) (A) (A)
                 (A) (A) (A) (A) (A) (A) (A) (A) (A) (A) (A) (A)
                 (A) (A) (A) (A) (A) (A) (A) (A) (A) (A) (A) (A)
                 (A) (A) (A) (A) (A) (A) (A) (A) (A) (A) (A) (A)
                 (A) (A) (A) (A) (A) (A) (A) (A) (A) (A) (A) (A)
                 (A) (A) (A) (A) (A) (A) (A) (A) (A) (A) (A) (A)
                 (A) (A) (A) (A) (A) (A) (A) (A) (A) (A) (A) (A)
                 (A) (A) (A) (A) (A) (A) (A) (A) (A) (A) (A) (A)
                 (A) (A) (A) (A) (A) (A) (A) (A) (A) (A) (A) (A)
                 (A) (A) (A) (A) (A) (A) (A) (A) (A) (A) (A) (A)
                 (A) (A) (A) (A)
 The electronic state is 2-A.
 Alpha  occ. eigenvalues --  -19.14983 -19.11857 -10.22916 -10.20742 -10.18491
 Alpha  occ. eigenvalues --  -10.17945 -10.17527 -10.16433 -10.16369 -10.15443
 Alpha  occ. eigenvalues --  -10.15266  -1.02758  -0.92144  -0.82396  -0.78129
 Alpha  occ. eigenvalues --   -0.75731  -0.69537  -0.68976  -0.68788  -0.60076
 Alpha  occ. eigenvalues --   -0.56715  -0.54187  -0.48595  -0.47965  -0.47258
 Alpha  occ. eigenvalues --   -0.45337  -0.44374  -0.42954  -0.42311  -0.41881
 Alpha  occ. eigenvalues --   -0.39715  -0.39418  -0.38788  -0.38083  -0.37013
 Alpha  occ. eigenvalues --   -0.36124  -0.35988  -0.35105  -0.34516  -0.33697
 Alpha  occ. eigenvalues --   -0.33359  -0.31903  -0.29097  -0.25366  -0.18400
 Alpha virt. eigenvalues --   -0.03551   0.03476   0.04755   0.05133   0.06559
 Alpha virt. eigenvalues --    0.07768   0.08241   0.08993   0.09304   0.09946
 Alpha virt. eigenvalues --    0.10456   0.11204   0.11708   0.12585   0.12833
 Alpha virt. eigenvalues --    0.13893   0.14694   0.15421   0.16192   0.16534
 Alpha virt. eigenvalues --    0.17589   0.18569   0.19963   0.20367   0.22834
 Alpha virt. eigenvalues --    0.23835   0.24785   0.25874   0.27131   0.28922
 Alpha virt. eigenvalues --    0.29045   0.31442   0.31796   0.33910   0.34575
 Alpha virt. eigenvalues --    0.35503   0.36536   0.37977   0.39729   0.40462
 Alpha virt. eigenvalues --    0.40957   0.43899   0.44491   0.45723   0.46478
 Alpha virt. eigenvalues --    0.49441   0.50462   0.51769   0.54256   0.54281
 Alpha virt. eigenvalues --    0.55115   0.56131   0.56840   0.57030   0.57353
 Alpha virt. eigenvalues --    0.58072   0.58344   0.58886   0.58948   0.59986
 Alpha virt. eigenvalues --    0.60445   0.60764   0.61017   0.61633   0.61931
 Alpha virt. eigenvalues --    0.62372   0.63048   0.64609   0.64873   0.66059
 Alpha virt. eigenvalues --    0.66801   0.67537   0.69776   0.71711   0.74157
 Alpha virt. eigenvalues --    0.75298   0.80951   0.82619   0.84102   0.89322
 Alpha virt. eigenvalues --    0.92333   0.93551   0.94291   0.95545   0.96150
 Alpha virt. eigenvalues --    0.98311   1.03078   1.04137   1.04473   1.06569
 Alpha virt. eigenvalues --    1.07971   1.10157   1.13676   1.16710   1.18336
 Alpha virt. eigenvalues --    1.19409   1.22883   1.26515   1.29219   1.33340
 Alpha virt. eigenvalues --    1.33680   1.35489   1.37028   1.37461   1.40020
 Alpha virt. eigenvalues --    1.40666   1.43417   1.44109   1.44426   1.45285
 Alpha virt. eigenvalues --    1.45478   1.46242   1.47646   1.48228   1.49755
 Alpha virt. eigenvalues --    1.49973   1.50218   1.51391   1.52161   1.52699
 Alpha virt. eigenvalues --    1.53840   1.56288   1.56710   1.57666   1.58926
 Alpha virt. eigenvalues --    1.59395   1.61270   1.61917   1.62946   1.63743
 Alpha virt. eigenvalues --    1.65084   1.66495   1.67508   1.68924   1.69697
 Alpha virt. eigenvalues --    1.71726   1.72684   1.75003   1.75441   1.76161
 Alpha virt. eigenvalues --    1.77772   1.78573   1.80792   1.81857   1.86259
 Alpha virt. eigenvalues --    1.86548   1.88199   1.88961   1.89636   1.91994
 Alpha virt. eigenvalues --    1.93154   1.96744   1.97686   1.98776   2.00391
 Alpha virt. eigenvalues --    2.01950   2.05678   2.07096   2.08358   2.09503
 Alpha virt. eigenvalues --    2.10125   2.13815   2.15096   2.17017   2.17405
 Alpha virt. eigenvalues --    2.20405   2.22665   2.24180   2.26215   2.29234
 Alpha virt. eigenvalues --    2.31493   2.32202   2.34542   2.35398   2.36605
 Alpha virt. eigenvalues --    2.38010   2.40373   2.41936   2.42969   2.44378
 Alpha virt. eigenvalues --    2.45679   2.46463   2.47241   2.48071   2.49446
 Alpha virt. eigenvalues --    2.50316   2.50673   2.51477   2.51813   2.52048
 Alpha virt. eigenvalues --    2.53788   2.54324   2.56864   2.57437   2.58319
 Alpha virt. eigenvalues --    2.59707   2.60258   2.62848   2.63446   2.65595
 Alpha virt. eigenvalues --    2.67781   2.69338   2.71340   2.73215   2.75914
 Alpha virt. eigenvalues --    2.77066   2.79168   2.80720   2.83677   2.84094
 Alpha virt. eigenvalues --    2.86959   2.88647   2.89825   2.91118   2.93980
 Alpha virt. eigenvalues --    2.94429   2.98677   3.03692   3.06342   3.08773
 Alpha virt. eigenvalues --    3.10383   3.13378   3.14471   3.16867   3.17728
 Alpha virt. eigenvalues --    3.20860   3.23535   3.36617   3.44014   3.47114
 Alpha virt. eigenvalues --    3.55209   3.72326   3.76251   3.77376   3.77702
 Alpha virt. eigenvalues --    3.78802   3.80033   3.80483   3.81203   3.82579
 Alpha virt. eigenvalues --    3.84234   3.85203   3.94334   3.98679   4.00768
 Alpha virt. eigenvalues --    4.23201   4.28194   4.28814   4.29799   4.39665
 Alpha virt. eigenvalues --    4.82633   4.91250   5.01784   5.32753   5.38970
 Alpha virt. eigenvalues --    5.46489  23.71824  23.79816  23.80422  23.85505
 Alpha virt. eigenvalues --   23.89922  23.91357  23.92649  23.94852  23.95613
 Alpha virt. eigenvalues --   49.81653  49.90769
  Beta  occ. eigenvalues --  -19.14979 -19.10749 -10.22814 -10.19701 -10.18400
  Beta  occ. eigenvalues --  -10.18011 -10.17587 -10.16432 -10.16363 -10.15449
  Beta  occ. eigenvalues --  -10.15267  -1.02029  -0.90395  -0.81969  -0.77740
  Beta  occ. eigenvalues --   -0.75002  -0.69442  -0.68937  -0.68766  -0.59095
  Beta  occ. eigenvalues --   -0.56395  -0.53556  -0.47899  -0.47538  -0.47094
  Beta  occ. eigenvalues --   -0.45018  -0.44121  -0.42835  -0.42001  -0.41426
  Beta  occ. eigenvalues --   -0.39412  -0.39280  -0.38342  -0.37930  -0.36513
  Beta  occ. eigenvalues --   -0.35917  -0.35470  -0.35012  -0.34058  -0.33441
  Beta  occ. eigenvalues --   -0.33210  -0.31221  -0.28232  -0.24666
  Beta virt. eigenvalues --   -0.07324   0.00153   0.03573   0.05029   0.05228
  Beta virt. eigenvalues --    0.06745   0.07942   0.08404   0.09042   0.09419
  Beta virt. eigenvalues --    0.10016   0.10534   0.11333   0.11741   0.12771
  Beta virt. eigenvalues --    0.12882   0.14129   0.14723   0.15638   0.16227
  Beta virt. eigenvalues --    0.16630   0.17773   0.18784   0.20145   0.20556
  Beta virt. eigenvalues --    0.23010   0.24013   0.25159   0.25974   0.27219
  Beta virt. eigenvalues --    0.29060   0.29147   0.31514   0.31896   0.34062
  Beta virt. eigenvalues --    0.34780   0.35696   0.36761   0.38269   0.39947
  Beta virt. eigenvalues --    0.40737   0.41578   0.44148   0.44744   0.46038
  Beta virt. eigenvalues --    0.46871   0.49642   0.50960   0.52076   0.54394
  Beta virt. eigenvalues --    0.54777   0.55272   0.56278   0.56913   0.57244
  Beta virt. eigenvalues --    0.57632   0.58146   0.58418   0.59038   0.59120
  Beta virt. eigenvalues --    0.60063   0.60523   0.60905   0.61155   0.61737
  Beta virt. eigenvalues --    0.62100   0.62552   0.63160   0.64757   0.65007
  Beta virt. eigenvalues --    0.66247   0.67027   0.67642   0.69964   0.71986
  Beta virt. eigenvalues --    0.74388   0.75398   0.81411   0.83224   0.85534
  Beta virt. eigenvalues --    0.90018   0.92858   0.94044   0.94825   0.95955
  Beta virt. eigenvalues --    0.96467   0.98378   1.03408   1.04462   1.04649
  Beta virt. eigenvalues --    1.07037   1.08325   1.10320   1.13939   1.17163
  Beta virt. eigenvalues --    1.18432   1.19465   1.23232   1.27254   1.29536
  Beta virt. eigenvalues --    1.33699   1.34256   1.35651   1.37145   1.37658
  Beta virt. eigenvalues --    1.40291   1.41077   1.43555   1.44406   1.44550
  Beta virt. eigenvalues --    1.45306   1.45759   1.46322   1.47767   1.48460
  Beta virt. eigenvalues --    1.49898   1.50086   1.50272   1.51595   1.52473
  Beta virt. eigenvalues --    1.52932   1.54042   1.56427   1.56914   1.57898
  Beta virt. eigenvalues --    1.59074   1.59524   1.61362   1.62180   1.63184
  Beta virt. eigenvalues --    1.63986   1.65358   1.66596   1.67692   1.69084
  Beta virt. eigenvalues --    1.70300   1.72072   1.72951   1.75134   1.75498
  Beta virt. eigenvalues --    1.76293   1.77835   1.78681   1.81099   1.82066
  Beta virt. eigenvalues --    1.86608   1.86754   1.88565   1.89217   1.89865
  Beta virt. eigenvalues --    1.92129   1.93426   1.97216   1.98155   1.99177
  Beta virt. eigenvalues --    2.00741   2.02319   2.06163   2.07229   2.08486
  Beta virt. eigenvalues --    2.09601   2.10252   2.13956   2.15254   2.17379
  Beta virt. eigenvalues --    2.17696   2.20783   2.22933   2.24275   2.26322
  Beta virt. eigenvalues --    2.29520   2.31683   2.32322   2.34618   2.35478
  Beta virt. eigenvalues --    2.36757   2.38187   2.40514   2.42014   2.43098
  Beta virt. eigenvalues --    2.44462   2.45796   2.46592   2.47338   2.48125
  Beta virt. eigenvalues --    2.49485   2.50403   2.50731   2.51580   2.51883
  Beta virt. eigenvalues --    2.52224   2.53926   2.54472   2.57000   2.57637
  Beta virt. eigenvalues --    2.58457   2.59774   2.60357   2.62901   2.63574
  Beta virt. eigenvalues --    2.65813   2.67912   2.69443   2.71462   2.73347
  Beta virt. eigenvalues --    2.76222   2.77943   2.79396   2.81251   2.83905
  Beta virt. eigenvalues --    2.84503   2.87469   2.89707   2.90259   2.91269
  Beta virt. eigenvalues --    2.94270   2.95110   2.98958   3.03895   3.07564
  Beta virt. eigenvalues --    3.09404   3.11667   3.13698   3.14808   3.17566
  Beta virt. eigenvalues --    3.18539   3.21195   3.24502   3.37023   3.44598
  Beta virt. eigenvalues --    3.48280   3.55346   3.72443   3.76264   3.77401
  Beta virt. eigenvalues --    3.77862   3.78857   3.80128   3.80520   3.81879
  Beta virt. eigenvalues --    3.82591   3.84412   3.85277   3.94797   3.98971
  Beta virt. eigenvalues --    4.01276   4.23720   4.28348   4.28971   4.29980
  Beta virt. eigenvalues --    4.40129   4.84966   4.94091   5.01927   5.31571
  Beta virt. eigenvalues --    5.39408   5.47294  23.71981  23.79926  23.80949
  Beta virt. eigenvalues --   23.85808  23.90123  23.91355  23.92664  23.94844
  Beta virt. eigenvalues --   23.95597  49.82778  49.90814
          Condensed to atoms (all electrons):
              1          2          3          4          5          6
     1  C    4.901960   0.388437   0.388470   0.404422  -0.061320  -0.009313
     2  H    0.388437   0.589905  -0.026933  -0.027261  -0.007835   0.003521
     3  H    0.388470  -0.026933   0.605222  -0.027044  -0.001765   0.000684
     4  H    0.404422  -0.027261  -0.027044   0.545721   0.007593   0.000167
     5  C   -0.061320  -0.007835  -0.001765   0.007593   4.958404   0.413915
     6  H   -0.009313   0.003521   0.000684   0.000167   0.413915   0.570542
     7  H    0.002828   0.000184   0.001028  -0.000639   0.397237  -0.028189
     8  C    0.016120  -0.000051   0.000212  -0.001031   0.345192  -0.040600
     9  H   -0.000512   0.000004  -0.000002   0.000046  -0.031471   0.006396
    10  C   -0.000173   0.000111  -0.000026   0.000003  -0.060764  -0.006799
    11  H   -0.000581   0.000538   0.000041   0.000007  -0.005959   0.004930
    12  H    0.000015  -0.000009  -0.000015   0.000004   0.005088  -0.000097
    13  C   -0.000007   0.000045   0.000002  -0.000001   0.000953   0.000423
    14  H   -0.000003   0.000001   0.000000   0.000000   0.000035   0.000059
    15  C    0.000000  -0.000002   0.000000   0.000000  -0.000206  -0.000097
    16  H    0.000000  -0.000001   0.000000   0.000000   0.000007  -0.000033
    17  H    0.000000   0.000000   0.000000   0.000000   0.000013   0.000009
    18  H    0.000000   0.000000   0.000000   0.000000  -0.000008   0.000000
    19  C   -0.076475   0.010029  -0.001935  -0.009406  -0.063418   0.006588
    20  H   -0.002118  -0.000441   0.000135   0.000035  -0.004420  -0.000086
    21  H   -0.008341   0.000006  -0.000205   0.003394   0.007090  -0.000412
    22  H    0.008507  -0.000617  -0.000282   0.000105  -0.005598   0.000009
    23  C    0.000002  -0.000006  -0.000001   0.000000  -0.000340   0.000435
    24  H    0.000000   0.000000   0.000000   0.000000   0.000055  -0.000003
    25  H   -0.000001  -0.000004   0.000000   0.000000   0.000300   0.000502
    26  H   -0.000003  -0.000002  -0.000003   0.000001  -0.001004  -0.000597
    27  C    0.334464  -0.031709  -0.039379  -0.034167   0.361391  -0.038804
    28  O   -0.049464   0.004262   0.004214  -0.002056  -0.045301   0.003054
    29  O    0.006561   0.000222   0.000912   0.017666   0.004936  -0.000117
    30  H    0.002080   0.000285  -0.000141  -0.000797  -0.000924  -0.000023
              7          8          9         10         11         12
     1  C    0.002828   0.016120  -0.000512  -0.000173  -0.000581   0.000015
     2  H    0.000184  -0.000051   0.000004   0.000111   0.000538  -0.000009
     3  H    0.001028   0.000212  -0.000002  -0.000026   0.000041  -0.000015
     4  H   -0.000639  -0.001031   0.000046   0.000003   0.000007   0.000004
     5  C    0.397237   0.345192  -0.031471  -0.060764  -0.005959   0.005088
     6  H   -0.028189  -0.040600   0.006396  -0.006799   0.004930  -0.000097
     7  H    0.580642  -0.031872  -0.006900   0.004452   0.000303  -0.000690
     8  C   -0.031872   5.235983   0.388723   0.361534  -0.044352  -0.035926
     9  H   -0.006900   0.388723   0.552588  -0.031197   0.007368  -0.003467
    10  C    0.004452   0.361534  -0.031197   4.908364   0.405910   0.398905
    11  H    0.000303  -0.044352   0.007368   0.405910   0.592493  -0.030772
    12  H   -0.000690  -0.035926  -0.003467   0.398905  -0.030772   0.579688
    13  C    0.000313  -0.061150  -0.003371   0.347835  -0.038937  -0.042397
    14  H    0.000071  -0.005326   0.004628  -0.047079   0.009463  -0.006469
    15  C   -0.000002   0.008263  -0.000013  -0.062501  -0.004434  -0.005607
    16  H    0.000002  -0.000017   0.000012  -0.006672   0.004839  -0.000783
    17  H   -0.000001  -0.000467   0.000006   0.007860  -0.000244   0.000032
    18  H   -0.000002   0.000152   0.000021  -0.005007  -0.000548   0.005086
    19  C   -0.002682  -0.006792   0.001179   0.000186   0.000102   0.000064
    20  H    0.001453   0.000897  -0.000097  -0.000030  -0.000008  -0.000005
    21  H    0.000089  -0.001592   0.000048   0.000020   0.000007   0.000001
    22  H    0.001079   0.002592   0.000289   0.000064  -0.000028   0.000009
    23  C   -0.000047  -0.007647  -0.000319  -0.066044  -0.007735   0.008512
    24  H   -0.000013  -0.000134  -0.000031   0.007846  -0.000185  -0.000421
    25  H   -0.000013  -0.001126   0.000069  -0.005026   0.004878  -0.000116
    26  H    0.000442   0.007299   0.000119  -0.007238  -0.000425   0.000119
    27  C   -0.044862  -0.127157   0.001741   0.003359  -0.000284   0.000185
    28  O    0.004963   0.032421  -0.005383   0.000361   0.002001   0.001812
    29  O    0.000084   0.011373  -0.000187  -0.000194  -0.000058  -0.000429
    30  H   -0.000037  -0.002804   0.000028   0.000205   0.000016   0.000547
             13         14         15         16         17         18
     1  C   -0.000007  -0.000003   0.000000   0.000000   0.000000   0.000000
     2  H    0.000045   0.000001  -0.000002  -0.000001   0.000000   0.000000
     3  H    0.000002   0.000000   0.000000   0.000000   0.000000   0.000000
     4  H   -0.000001   0.000000   0.000000   0.000000   0.000000   0.000000
     5  C    0.000953   0.000035  -0.000206   0.000007   0.000013  -0.000008
[...]
 ,-0.00582126,0.00255005,-0.00029650,0.00012108,-0.00004142,0.00186831,
 -0.00070922,-0.00029573,0.02887022,-0.00884186,-0.01056416,-0.00034157
 ,0.00127103,0.00021101,0.00143838,0.00144363,-0.00044313,-0.00008208,-
 0.00010466,-0.00001823,-0.00096036,-0.00039175,0.00004932,-0.00018210,
 0.00042195,0.00025435,-0.00000616,0.00005804,-0.00000492,0.00001705,0.
 00001740,0.00000649,-0.00001487,-0.00001235,-0.00000958,-0.00000378,-0
 .00001049,-0.00000232,0.06600162,-0.06729797,-0.02130334,-0.07449767,0
 .07414032,-0.00001631,-0.00001274,-0.00000638,-0.00000127,0.00001197,0
 .00000446,-0.00000696,-0.00000382,0.00000239,0.00000786,0.00000121,0.0
 0000452,-0.00000773,0.00002614,-0.00026061,-0.00004549,-0.00002115,0.0
 0010904,0.00004734,0.00001458,0.00003040,0.00003885,0.00012237,0.00009
 574,0.00001289,-0.00002256,0.00002412,0.00000605,0.00167634,-0.0001780
 9,-0.00029716,0.00022743,0.00035954,-0.00039210,0.00020818,0.00053222,
 -0.00947965,0.00281977,0.00192799,-0.00032851,-0.00057330,0.00037416,0
 .00015069,-0.00038753,-0.00003462,0.00017481,-0.00003039,-0.00005340,-
 0.00005164,-0.00022878,0.00025390,-0.00020354,-0.00001591,-0.00012141,
 0.00001023,-0.00002478,0.00000321,-0.00000343,-0.00000195,-0.00000345,
 0.00000910,0.00000358,0.00000552,-0.00000058,0.00000105,0.00000070,0.0
 6944194,-0.02195778,-0.06933188,-0.07602351,0.02234428,0.07097459,-0.0
 0000318,-0.00001882,-0.00000231,-0.00000599,0.00001785,0.00001264,-0.0
 0001135,-0.00000277,0.00000177,0.00001507,-0.00000249,0.00000234,0.000
 01097,-0.00010542,-0.00025001,-0.00020336,0.00001040,0.00018156,0.0000
 2543,0.00002193,-0.00000860,-0.00015690,0.00000424,-0.00003946,0.00007
 275,-0.00004329,0.00010830,0.00052328,-0.00022398,-0.00137967,0.000071
 68,0.00007204,0.00039923,0.00004962,-0.00010071,0.00019818,-0.00079490
 ,0.00081848,-0.00603978,0.00048072,0.00122904,-0.00041060,-0.00002024,
 -0.00020128,0.00075512,0.00025077,-0.00018344,0.00000624,-0.00000006,0
 .00001033,0.00015868,-0.00011768,0.00002398,-0.00015442,0.00003392,-0.
 00004097,-0.00000690,-0.00000415,0.00000051,-0.00000390,0.00001598,0.0
 0000440,0.00001285,-0.00000496,-0.00000022,0.00000416,-0.04838567,-0.0
 0177172,0.01550053,-0.00096102,-0.00328704,0.03013212,0.04746231,-0.00
 000065,0.00000907,0.00000664,0.00000194,0.00000334,-0.00000397,-0.0000
 0702,-0.00000743,-0.00000034,0.00000043,-0.00000029,0.00000014,0.00004
 321,-0.00002152,-0.00011376,0.00001854,0.00007385,0.00006895,0.0000242
 8,0.00002313,-0.00004021,0.00003254,0.00003360,-0.00008016,-0.00009099
 ,-0.00008944,-0.00004970,-0.00105367,0.00146286,0.00075575,0.00034833,
 0.00010935,-0.00086008,-0.00031203,0.00020286,-0.00034254,-0.00202853,
 -0.00438792,0.03309892,0.00113264,-0.00612511,0.00171110,0.00049066,0.
 00186213,0.00112702,-0.00022113,-0.00026731,-0.00077311,-0.00004206,-0
 .00008498,-0.00008474,0.00019028,0.00030974,-0.00037166,0.00000415,-0.
 00000597,-0.00000235,-0.00000194,-0.00000362,-0.00000350,0.00000093,0.
 00000302,0.00000465,0.00000036,-0.00000412,0.00000360,-0.00159122,-0.0
 4918759,0.02350257,-0.00031071,0.00006517,-0.00909521,0.00078104,0.054
 21095,-0.00002767,-0.00002766,-0.00000034,0.00000282,0.00002541,0.0000
 0727,-0.00001964,-0.00001812,0.00000846,0.00001662,0.00000792,0.000001
 38,0.00002059,-0.00009201,-0.00040745,-0.00007210,-0.00000568,0.000291
 05,0.00003977,-0.00001038,0.00000007,-0.00029817,0.00037312,0.00004042
 ,0.00010262,-0.00002788,0.00010456,0.00035849,-0.00055482,0.00055154,-
 0.00067162,0.00023667,0.00043122,-0.00004274,-0.00001850,0.00032544,0.
 00048757,0.00165083,-0.01061999,-0.00045026,0.00199919,0.00117221,-0.0
 0020290,-0.00070433,0.00072317,0.00046796,0.00061980,0.00051452,-0.000
 04038,0.00000100,-0.00005698,-0.00000835,0.00006376,0.00036005,0.00002
 838,-0.00005602,-0.00000817,-0.00001177,-0.00001446,-0.00000721,0.0000
 1998,0.00001364,0.00001696,-0.00000141,0.00000258,0.00001491,0.0153656
 9,0.02388526,-0.29746118,0.00041802,0.00043648,-0.00867695,-0.01696580
 ,-0.02878319,0.32543685,0.00001547,0.00000633,-0.00000188,-0.00000219,
 0.00000047,0.00001270,0.00000433,0.00001146,-0.00000636,0.00000067,-0.
 00000817,0.00000378,-0.00065133,0.00041863,0.00011025,-0.00005035,0.00
 002561,-0.00005548,-0.00007061,-0.00000249,-0.00000848,-0.00005264,-0.
 00002644,-0.00017445,-0.00004558,0.00003517,0.00001379,0.00055582,-0.0
 0015510,0.00033743,-0.00003306,-0.00001372,0.00001118,0.00014437,-0.00
 015736,-0.00002471,0.00407905,0.00457657,0.00386359,0.00010446,-0.0006
 1934,0.00032731,0.00022268,0.00059129,0.00003508,-0.00008588,0.0000657
 2,-0.00005256,0.00047487,0.00027647,-0.00008650,0.00046916,0.00014052,
 -0.00015485,0.00001800,0.00000294,-0.00001116,0.00000853,0.00001222,-0
 .00000071,-0.00000029,-0.00000699,0.00000228,-0.00000683,-0.00000731,0
 .00000164,-0.16348470,-0.10607581,-0.07366466,-0.01922789,-0.01794799,
 -0.01323325,0.00157664,0.00252371,0.00125523,0.17620569,-0.00008074,0.
 00000978,-0.00003355,0.00001293,0.00000389,-0.00000060,0.00000108,-0.0
 0002154,0.00001456,-0.00000574,0.00002336,0.00000927,0.00006085,0.0001
 2436,-0.00003971,0.00006959,-0.00003911,-0.00003909,0.00022442,0.00011
 036,-0.00001391,-0.00047551,0.00008306,0.00006305,0.00020994,-0.000139
 79,0.00017960,-0.00045951,0.00115384,-0.00041375,0.00008618,-0.0000100
 7,0.00003989,-0.00022411,0.00012149,0.00024843,-0.02188928,-0.01767620
 ,-0.01461107,-0.00012259,0.00122485,0.00040142,0.00283736,-0.00570225,
 0.00305409,0.00024191,0.00021364,-0.00005413,0.00000710,0.00026527,0.0
 0019989,-0.00146925,-0.00139059,-0.00078926,-0.00005886,0.00003365,0.0
 0001979,-0.00000592,-0.00002471,-0.00000667,-0.00001308,0.00001314,-0.
 00000556,0.00001615,-0.00000652,0.00001163,-0.10505553,-0.14288208,-0.
 06651524,0.00595756,0.00591014,0.00490966,0.00296939,0.00182093,0.0010
 0651,0.11634112,0.15683120,-0.00004269,0.00002968,-0.00003335,0.000007
 35,-0.00001002,-0.00000111,0.00002055,0.00000458,-0.00000356,-0.000021
 34,0.00000834,0.00001493,-0.00038484,0.00015516,0.00014030,0.00016512,
 -0.00012629,-0.00028614,0.00018015,0.00010405,0.00016981,-0.00007953,-
 0.00033047,0.00030014,-0.00004073,0.00009906,-0.00011976,-0.00001268,-
 0.00068193,0.00001474,-0.00006824,0.00001692,-0.00001695,0.00013584,-0
 .00001969,-0.00006200,0.00763632,0.00618516,0.00344548,0.00052515,-0.0
 0049440,0.00051942,-0.00038800,0.00153875,-0.00004905,0.00012347,0.000
 36274,0.00040813,-0.00024247,-0.00003758,-0.00011873,0.00015691,0.0004
 6196,0.00060156,-0.00005973,0.00006441,0.00003059,0.00001483,0.0000021
 1,0.00000085,-0.00002562,-0.00000310,-0.00002324,0.00000877,-0.0000057
 8,-0.00000768,-0.07344456,-0.06719425,-0.09371416,0.00661565,0.0070272
 2,0.00391336,-0.02230743,-0.01969747,-0.01282052,0.08139708,0.07250089
 ,0.09777418,-0.09833829,0.00875044,0.04181826,0.00736752,-0.00037316,-
 0.01938288,-0.00442643,0.00046547,0.00367324,-0.01429428,-0.00057350,0
 .02573180,-0.12642947,0.04457612,-0.00889482,-0.01138526,0.00428817,0.
 00002535,0.00063459,-0.00078017,-0.00152066,-0.03251767,-0.01738411,0.
 01118215,0.00058290,0.00042794,-0.00036704,-0.00140061,-0.00016159,0.0
 0000625,0.00007596,-0.00002236,0.00027905,0.00063793,0.00109522,0.0004
 1177,-0.00088530,0.00058991,0.00065369,0.00000140,-0.00006304,-0.00008
 489,0.00028369,-0.00030064,-0.00028215,-0.00001478,0.00000550,0.000079
 44,0.00022231,0.00009642,0.00006906,-0.00005549,0.00007349,0.00000653,
 -0.11110949,-0.00886195,-0.04662180,-0.00630007,-0.00074260,-0.0050899
 7,-0.01778029,-0.00861992,-0.01981704,0.00962763,0.00537607,0.01427928
 ,0.00007282,-0.00008844,-0.00035816,0.00029560,0.00003740,0.00003013,-
 0.00003680,0.00002409,0.00009180,-0.00013205,0.00042659,0.00022302,0.5
 0046585,0.00339827,-0.07300416,-0.00565362,0.00676822,-0.00225854,-0.0
 1322847,-0.01440665,-0.00169985,0.02718282,0.00818071,0.00000657,-0.01
 800157,0.03807331,-0.07538663,-0.00277218,0.00252736,-0.00223938,-0.00
 123146,0.02303557,-0.01043094,-0.00009433,-0.01835805,0.00806595,-0.00
 205786,0.00072819,-0.00157502,0.00079177,0.00156518,-0.00287028,0.0009
 1494,-0.00005022,0.00046117,0.00017172,-0.00102250,-0.00048260,0.00024
 539,-0.00070988,0.00042443,0.00093439,-0.00000586,-0.00005712,-0.00008
 649,0.00019309,-0.00031787,-0.00026854,-0.00001142,0.00002902,0.000060
 24,0.00013941,0.00011512,0.00005434,-0.00006860,0.00000714,0.00002413,
 -0.01278977,-0.07469826,-0.02296679,-0.01620451,-0.00967114,-0.0207579
 2,0.01190381,0.00635141,0.01680534,0.00042741,-0.00187879,0.00174652,0
 .00017842,0.00025841,-0.00021339,0.00002632,-0.00016721,0.00005363,0.0
 0006861,0.00002761,0.00017606,-0.00004907,0.00004238,-0.00008329,-0.00
 568220,0.38518890,0.03938862,-0.01082852,-0.16341070,0.01141239,0.0014
 3803,-0.02332011,0.00138707,-0.00143967,-0.00381935,-0.00048671,-0.000
 45145,0.00135117,-0.00162679,-0.00423156,-0.07584270,-0.02781240,0.011
 43807,0.00018331,0.01435300,-0.00680972,-0.00152944,0.01741151,0.00004
 033,0.00203630,0.00008240,0.00099617,-0.00052053,0.00052570,-0.0001619
 9,-0.00131726,-0.00035058,-0.00018978,0.00005254,0.00006966,-0.0000938
 8,-0.00004529,0.00032105,0.00016961,-0.00005571,0.00005440,0.00000009,
 0.00001424,0.00005214,0.00003826,0.00005108,-0.00000718,0.00000056,-0.
 00002480,-0.00000654,-0.00001402,-0.00000608,0.00000678,-0.00001325,0.
 00000141,-0.04483711,-0.02037789,-0.14389941,0.00638999,0.00444712,0.0
 0587837,-0.00186876,-0.00077007,-0.00253167,-0.01878186,-0.00911895,-0
 .02329215,-0.00015685,-0.00008922,-0.00005466,-0.00004286,-0.00000628,
 0.00006116,0.00006889,0.00002795,0.00006289,0.00003823,-0.00005277,-0.
 00004137,-0.00618552,0.02196117,0.49778859,-0.00408098,-0.02160703,0.0
 0729391,0.00094577,-0.00005664,0.00030053,-0.00179396,0.00216766,0.003
 13383,-0.00207945,-0.00017656,0.00002277,0.00363940,0.06328854,-0.0099
 8690,-0.00264805,0.00117784,0.00101085,-0.00834071,0.00461363,-0.00182
 881,0.10932030,-0.07899242,-0.02306876,-0.00690106,0.00610700,0.000416
 77,-0.01361333,-0.00128738,-0.00553997,0.00237135,0.00080358,0.0026756
 6,0.00389733,0.00564990,0.00226101,0.00166465,0.00256774,0.00334485,-0
 .00078748,-0.00015361,0.00013391,0.00165420,-0.00141019,-0.00079343,0.
 00005135,0.00005124,0.00035196,0.00096727,0.00052155,0.00028704,-0.000
 23672,0.00027610,-0.00005358,-0.00768749,-0.02855087,0.00242611,-0.002
 80213,-0.00039576,-0.00392351,-0.00141195,-0.00042743,0.00064716,0.001
 22284,0.00068242,0.00117022,-0.00007901,0.00020704,-0.00067180,0.00067
 675,-0.00012428,0.00014620,0.00026628,0.00015193,0.00062328,-0.0002664
 8,0.00156427,-0.00007419,-0.10783214,-0.03732934,0.01655874,-0.0199004
 9,-0.00960729,-0.01700330,0.00975704,0.00097803,0.00161628,-0.00019655
 ,-0.00168678,0.00045110,0.00322573,0.00143647,0.00030707,-0.00050498,-
 0.00428029,-0.06890366,0.01385474,0.00088337,-0.00030316,-0.00021617,0
 .00660295,-0.00417750,0.00202366,-0.06384310,0.04244048,0.00836578,0.0
 0324686,-0.00228496,-0.00026287,0.00015550,0.00299556,0.00466955,-0.00
 117840,-0.00062347,-0.00147148,-0.00141445,-0.00173553,-0.00135348,-0.
 00057267,-0.00160446,-0.00358248,0.00042951,0.00007033,0.00004488,-0.0
 0125926,0.00124066,0.00075261,0.00000711,-0.00005525,-0.00027742,-0.00
 083868,-0.00042900,-0.00023182,0.00025239,-0.00015208,0.00001741,-0.01
 683580,-0.03371123,0.00288012,-0.00431134,-0.00178347,-0.00539152,0.00
 200768,0.00141349,0.00090676,0.00148158,0.00098287,-0.00013050,-0.0004
 5786,-0.00039925,0.00070699,-0.00051690,0.00031877,-0.00011429,-0.0001
 3344,-0.00010185,-0.00048897,0.00016208,-0.00091168,0.00004258,-0.0334
 3925,-0.12858052,0.01280939,0.15898411,0.20988431,0.01225865,0.0338435
 3,-0.00678170,-0.00099621,0.00055134,0.00337614,0.00478263,0.00026030,
 -0.00543601,0.00027062,-0.00017844,0.00084223,0.00059627,0.00458684,0.
 00246449,0.00076325,-0.00079338,0.00043497,0.00044640,0.00088682,0.000
 02370,-0.01063134,0.00311881,-0.01235480,0.00601076,-0.00516798,0.0009
 9406,-0.00172026,0.00246154,0.00128931,0.00018805,0.00009162,0.0004329
 0,-0.00041776,-0.00059999,-0.00017677,-0.00047741,-0.00066291,-0.00039
 215,-0.00015232,0.00001856,0.00016683,-0.00031437,0.00022275,0.0002061
 6,0.00004442,0.00000209,-0.00001755,-0.00015937,-0.00010420,-0.0000525
 7,0.00002680,-0.00005147,-0.00000857,-0.00704289,-0.02112033,0.0092567
 9,-0.00417045,-0.00268670,-0.00263486,0.00078133,0.00070961,0.00092109
 ,0.00100855,0.00044434,0.00259875,-0.00002500,-0.00012414,0.00006647,-
 0.00008329,0.00003879,-0.00001153,0.00002174,-0.00000820,-0.00002561,0
 .00008819,-0.00009974,-0.00002326,0.01248309,0.01598080,-0.06598595,-0
 .00377839,-0.03623530,0.08423403,-0.00184000,-0.00319866,0.00139830,0.
 00008790,0.00050904,-0.00029019,0.00004895,-0.00148722,0.00101587,0.00
 278794,0.00002391,-0.00126081,-0.00575592,-0.02183971,0.00676436,0.001
 34273,-0.00030994,-0.00057777,0.00418676,-0.00138993,0.00043296,-0.066
 81630,0.05185265,0.01298516,0.00144205,-0.00135170,-0.00024008,0.00207
 993,0.00342701,0.00534485,-0.00114109,-0.00048429,-0.00175182,-0.00170
 562,-0.00354483,-0.00155312,0.00044760,-0.00258641,-0.00372786,0.00045
 990,0.00012149,0.00002914,-0.00145599,0.00136173,0.00085795,-0.0000108
 3,-0.00004290,-0.00030200,-0.00086660,-0.00048345,-0.00027535,0.000217
 15,-0.00022248,0.00003207,-0.00028874,-0.00288173,0.00076373,-0.000430
 52,-0.00122326,-0.00061089,0.00195051,0.00020338,0.00076960,-0.0000165
 5,0.00016094,-0.00064965,-0.00025397,-0.00022784,0.00067981,-0.0005898
 0,0.00023258,-0.00011797,-0.00014540,-0.00011042,-0.00048395,0.0002311
 1,-0.00111560,0.00000008,0.01670884,0.00882468,-0.00649225,0.05176062,
 -0.05847112,-0.02083820,0.11193488,-0.00099221,0.00016157,0.00143139,0
 .00031393,-0.00051698,0.00043479,0.00147813,0.00015844,-0.00080861,0.0
 0014809,-0.00209301,0.00128523,0.00701614,0.01146087,-0.00518612,-0.00
 053614,-0.00017877,0.00034904,-0.00205391,0.00101810,-0.00007998,0.048
 62001,-0.04015131,-0.00851751,-0.00073825,0.00082403,-0.00003630,-0.00
 165496,-0.00238329,-0.00363891,0.00083106,0.00030642,0.00122715,0.0016
 0221,0.00274574,0.00105764,-0.00002017,0.00182361,0.00261417,-0.000344
 30,-0.00008365,-0.00002979,0.00103478,-0.00098953,-0.00058411,0.000010
 93,0.00002422,0.00020853,0.00062015,0.00035331,0.00019907,-0.00013522,
 0.00021210,-0.00003685,-0.00019974,0.00115465,-0.00193435,0.00107463,0
 .00098297,0.00086101,-0.00075354,-0.00231119,-0.00076408,0.00032658,-0
 .00051807,0.00023372,0.00008976,0.00009636,-0.00051779,0.00045742,-0.0
 0009466,0.00006837,0.00007313,0.00007592,0.00031260,-0.00013860,0.0008
 8026,0.00009410,0.00949160,-0.01349800,0.00257741,-0.07422875,0.011737
 31,0.01122948,0.16177066,0.26652149,0.00168557,0.00238109,-0.00165144,
 0.00024236,-0.00026981,0.00016306,-0.00128958,0.00101817,0.00043197,-0
 .00232709,0.00105768,-0.00060926,-0.00052303,0.00014577,0.00099677,0.0
 0024741,-0.00033629,0.00002649,-0.00026487,-0.00029209,0.00031265,0.00
 062946,0.00095654,0.00220886,-0.00033227,0.00018926,0.00030956,0.00034
 344,-0.00034665,-0.00047039,0.00015149,-0.00002557,0.00017941,0.000086
 01,0.00014496,0.00002931,0.00010060,0.00018464,0.00030244,-0.00005483,
 0.00001362,0.00000866,0.00011483,-0.00009172,-0.00009737,0.00000418,-0
 .00000477,0.00004083,0.00006837,0.00004399,0.00002701,-0.00002208,0.00
 000242,-0.00000703,-0.00022695,-0.00109727,-0.00037211,0.00035372,-0.0
 0004982,0.00017085,0.00031227,-0.00057430,-0.00006067,0.00006221,-0.00
 002762,0.00014769,0.00004126,0.00005071,-0.00006384,0.00003192,-0.0000
 3403,0.00000663,0.00000765,0.00000197,0.00004742,-0.00003567,0.0000491
 6,-0.00001049,-0.00089651,-0.00003694,-0.00268484,0.00518373,-0.012529
 65,-0.01458032,0.14097710,0.21440857,0.20861299,0.00051896,-0.00032911
 ,0.00021667,0.00010756,0.00006638,-0.00007114,-0.00013488,0.00006396,0
 .00008629,-0.00008260,-0.00018353,-0.00034794,-0.00023196,0.00093419,0
 .00008506,-0.00003123,0.00019401,-0.00001012,-0.00022708,0.00012048,-0
 .00020372,-0.00070016,0.00126129,0.00037944,-0.00010971,0.00007874,-0.
 00000745,0.00015316,0.00024030,0.00012406,-0.00008404,0.00003921,-0.00
 010681,-0.00028507,-0.00026423,0.00005891,-0.00010975,-0.00014514,-0.0
 0010447,0.00004219,-0.00000349,-0.00001381,-0.00004744,0.00004784,0.00
 000942,-0.00001280,0.00000659,-0.00000913,-0.00000303,-0.00002982,-0.0
 0001493,-0.00001632,-0.00003082,0.00001551,-0.00095089,-0.00039857,-0.
 00008747,0.00016508,-0.00028814,-0.00007834,0.00062664,0.00001611,0.00
 019416,0.00006587,-0.00001928,-0.00001139,0.00005619,0.00001599,0.0000
 0410,-0.00000590,-0.00002999,0.00000087,-0.00000376,0.00000131,-0.0000
 0208,-0.00000098,-0.00005075,-0.00001824,-0.00403860,0.00064951,0.0005
 3483,0.00202333,0.02221898,0.01103651,-0.11436952,-0.15316342,-0.14467
 071,0.11768674,0.00018390,0.00016123,-0.00035539,0.00018801,-0.0001943
 2,0.00037657,-0.00001043,0.00030598,0.00010056,-0.00034725,-0.00034784
 ,-0.00009245,0.00049279,-0.00069550,0.00025005,0.00014256,-0.00006171,
 -0.00004505,0.00009256,0.00010178,0.00005337,0.00004837,0.00007024,0.0
 0064132,-0.00014677,0.00010404,0.00004027,-0.00007649,0.00019037,0.000
 17261,0.00003942,-0.00004079,0.00000039,-0.00000444,-0.00010233,-0.000
 07553,0.00018540,-0.00016019,-0.00019711,-0.00001110,0.00001825,0.0000
 2411,-0.00008540,0.00011475,0.00004542,0.00000722,-0.00000178,-0.00001
 357,-0.00006358,-0.00002863,-0.00001477,0.00001410,-0.00002840,0.00000
 844,-0.00000470,0.00031836,-0.00003086,0.00028187,-0.00003933,0.000063
 15,0.00033544,-0.00004357,0.00026384,0.00003512,-0.00005790,0.00002472
 ,-0.00003460,-0.00000412,0.00003079,-0.00004931,0.00002530,0.00000162,
 0.00001023,-0.00000638,-0.00000879,0.00001808,-0.00006104,-0.00001344,
 0.00136849,-0.00216181,-0.00129514,-0.00407431,-0.01069785,-0.00661442
 ,-0.12751656,-0.23771890,-0.20493202,0.12898138,0.25104210,-0.00004463
 ,0.00034874,0.00015026,-0.00028259,0.00028353,-0.00031749,0.00009723,-
 0.00024664,-0.00027441,0.00038716,0.00022861,0.00014068,0.00018562,0.0
 0026889,0.00005872,-0.00008256,0.00009267,-0.00006194,-0.00009121,0.00
 012722,-0.00006463,-0.00062540,0.00034367,-0.00005192,0.00004678,-0.00
 010625,-0.00006595,-0.00009862,0.00001579,0.00030990,-0.00006616,0.000
 06153,-0.00012071,0.00006672,-0.00000809,0.00000662,0.00005793,-0.0000
 7045,-0.00018749,0.00002785,-0.00001093,-0.00001710,-0.00005006,0.0000
 3720,0.00006144,-0.00000451,0.00000737,-0.00002918,-0.00003756,-0.0000
 1674,-0.00001548,0.00001451,0.00000561,0.00000619,-0.00023861,0.000286
 76,-0.00017015,0.00021164,-0.00002038,0.00012409,0.00033219,-0.0000595
 1,-0.00007999,-0.00007345,0.00003846,-0.00010649,-0.00003670,-0.000009
 21,0.00004318,-0.00002659,0.00002076,-0.00000532,-0.00000313,0.0000009
 5,-0.00002598,0.00001294,-0.00003279,-0.00000211,-0.00154248,0.0003495
 8,0.00090092,0.00173080,0.00293024,0.00117371,-0.13287907,-0.21645790,
 -0.19341485,0.13301194,0.21159133,0.19203547\\-0.00000083,0.00000591,-
 0.00000021,-0.00000089,0.00000798,-0.00000126,-0.00000162,0.00000702,0
 .00000277,-0.00000037,0.00000654,-0.00000251,-0.00000081,0.00000144,0.
 00000304,-0.00000092,0.00000324,0.00000327,-0.00000092,-0.00000100,0.0
 0000565,0.00000080,-0.00000229,-0.00000080,0.00000097,-0.00000558,0.,0
 .00000048,-0.00000086,-0.00000176,-0.00000014,0.00000259,-0.00000160,0
 .00000119,-0.00000137,-0.00000489,0.00000052,-0.00000316,0.00000039,0.
 00000083,-0.00000625,0.00000012,0.00000062,-0.00000169,-0.00000206,0.0
 0000014,0.00000165,-0.00000191,0.00000063,-0.00000337,-0.00000064,0.00
 000150,-0.00000254,-0.00000530,0.00000003,-0.00000142,0.00000099,-0.00
 000079,-0.00000058,0.00000396,0.00000052,-0.00000112,-0.00000137,0.000
 00042,-0.00000472,0.00000127,-0.00000075,-0.00000168,0.00000473,-0.000
 00084,-0.00000332,0.00000630,-0.00000131,0.00000149,0.00000534,-0.0000
 0103,-0.00000278,0.00000692,-0.00000018,0.00000146,-0.00000027,-0.0000
 0071,0.00000110,-0.00000343,0.00000145,-0.00000047,-0.00000830,0.00000
 200,0.00000375,-0.00000842\\\@
 Job cpu time:  0 days  9 hours 43 minutes  7.3 seconds.
 File lengths (MBytes):  RWF=  73612 Int=      0 D2E=      0 Chk=     26 Scr=      1
 Normal termination of Gaussian 09 at Tue Apr 29 19:20:05 2014.
