 Entering Gaussian System, Link 0=g09
 Initial command:
 /usr/caen/gaussian-09revc/g09/l1.exe /scratch/avioli_flux/hetanjin/scratch/Gau-41765.inp -scrdir=/scratch/avioli_flux/hetanjin/scratch/
 Entering Link 1 = /usr/caen/gaussian-09revc/g09/l1.exe PID=     41766.
  
 Copyright (c) 1988,1990,1992,1993,1995,1998,2003,2009,2011,
            Gaussian, Inc.  All Rights Reserved.
  
 This is part of the Gaussian(R) 09 program.  It is based on
 the Gaussian(R) 03 system (copyright 2003, Gaussian, Inc.),
 the Gaussian(R) 98 system (copyright 1998, Gaussian, Inc.),
 the Gaussian(R) 94 system (copyright 1995, Gaussian, Inc.),
 the Gaussian 92(TM) system (copyright 1992, Gaussian, Inc.),
 the Gaussian 90(TM) system (copyright 1990, Gaussian, Inc.),
 the Gaussian 88(TM) system (copyright 1988, Gaussian, Inc.),
 the Gaussian 86(TM) system (copyright 1986, Carnegie Mellon
 University), and the Gaussian 82(TM) system (copyright 1983,
 Carnegie Mellon University). Gaussian is a federally registered
 trademark of Gaussian, Inc.
  
 This software contains proprietary and confidential information,
 including trade secrets, belonging to Gaussian, Inc.
  
 This software is provided under written license and may be
 used, copied, transmitted, or stored only in accord with that
 written license.
  
 The following legend is applicable only to US Government
 contracts under FAR:
  
                    RESTRICTED RIGHTS LEGEND
  
 Use, reproduction and disclosure by the US Government is
 subject to restrictions as set forth in subparagraphs (a)
 and (c) of the Commercial Computer Software - Restricted
 Rights clause in FAR 52.227-19.
  
 Gaussian, Inc.
 340 Quinnipiac St., Bldg. 40, Wallingford CT 06492
  
  
 ---------------------------------------------------------------
 Warning -- This program may not be used in any manner that
 competes with the business of Gaussian, Inc. or will provide
 assistance to any competitor of Gaussian, Inc.  The licensee
 of this program is prohibited from giving any competitor of
 Gaussian, Inc. access to this program.  By using this program,
 the user acknowledges that Gaussian, Inc. is engaged in the
 business of creating and licensing software in the field of
 computational chemistry and represents and warrants to the
 licensee that it is not a competitor of Gaussian, Inc. and that
 it will not use this program in any manner prohibited above.
 ---------------------------------------------------------------
  

 Cite this work as:
 Gaussian 09, Revision C.01,
 M. J. Frisch, G. W. Trucks, H. B. Schlegel, G. E. Scuseria, 
 M. A. Robb, J. R. Cheeseman, G. Scalmani, V. Barone, B. Mennucci, 
 G. A. Petersson, H. Nakatsuji, M. Caricato, X. Li, H. P. Hratchian, 
 A. F. Izmaylov, J. Bloino, G. Zheng, J. L. Sonnenberg, M. Hada, 
 M. Ehara, K. Toyota, R. Fukuda, J. Hasegawa, M. Ishida, T. Nakajima, 
 Y. Honda, O. Kitao, H. Nakai, T. Vreven, J. A. Montgomery, Jr., 
 J. E. Peralta, F. Ogliaro, M. Bearpark, J. J. Heyd, E. Brothers, 
 K. N. Kudin, V. N. Staroverov, T. Keith, R. Kobayashi, J. Normand, 
 K. Raghavachari, A. Rendell, J. C. Burant, S. S. Iyengar, J. Tomasi, 
 M. Cossi, N. Rega, J. M. Millam, M. Klene, J. E. Knox, J. B. Cross, 
 V. Bakken, C. Adamo, J. Jaramillo, R. Gomperts, R. E. Stratmann, 
 O. Yazyev, A. J. Austin, R. Cammi, C. Pomelli, J. W. Ochterski, 
 R. L. Martin, K. Morokuma, V. G. Zakrzewski, G. A. Voth, 
 P. Salvador, J. J. Dannenberg, S. Dapprich, A. D. Daniels, 
 O. Farkas, J. B. Foresman, J. V. Ortiz, J. Cioslowski, 
 and D. J. Fox, Gaussian, Inc., Wallingford CT, 2010.
 
 ******************************************
 Gaussian 09:  EM64L-G09RevC.01 23-Sep-2011
                31-Mar-2014 
 ******************************************
 %mem=30GB
 %nprocshared=8
 Will use up to    8 processors via shared memory.
 %chk=TS_2e_25.chk
 -------------------------------
 #p cbs-qb3 opt=(TS,calcfc) freq
 -------------------------------
 1/5=1,10=4,14=-1,18=20,26=3,38=1/1,3;
 2/9=110,12=2,17=6,18=5,40=1/2;
 3/5=4,6=6,7=700,11=2,16=1,25=1,30=1,71=2,74=-5/1,2,3;
 4//1;
 5/5=2,38=5/2;
 8/6=4,10=90,11=11/1;
 11/6=1,8=1,9=11,15=111,16=1/1,2,10;
 10/6=1,7=6,13=1/2;
 6/7=2,8=2,9=2,10=2,28=1/1;
 7/10=1,18=20,25=1/1,2,3,16;
 1/5=1,10=4,14=-1,18=20/3(2);
 2/9=110/2;
 99//99;
 2/9=110/2;
 3/5=4,6=6,7=700,11=2,16=1,25=1,30=1,71=1,74=-5/1,2,3;
 4/5=5,16=3/1;
 5/5=2,38=5/2;
 7//1,2,3,16;
 1/5=1,14=-1,18=20/3(-5);
 2/9=110/2;
 6/7=2,8=2,9=2,10=2,19=2,28=1/1;
 99/9=1/99;
 Leave Link    1 at Mon Mar 31 16:18:44 2014, MaxMem= 4026531840 cpu:       1.5
 (Enter /usr/caen/gaussian-09revc/g09/l101.exe)
 ----------------------------------------------------
 TS_2e_25 using b3lyp/6-311++g(d,p) to calculate freq
 ----------------------------------------------------
 Charge =  0 Multiplicity = 2
 Symbolic Z-Matrix:
 C                     1.93939  -0.32204   1.54673 
 H                     2.67972  -1.09058   1.78828 
 H                     2.31741   0.64305   1.88551 
 C                     1.68366  -0.27897   0.03555 
 C                     2.98102  -0.00568  -0.73354 
 H                     2.77177   0.12409  -1.79866 
 H                     3.46575   0.89575  -0.36006 
 C                    -1.1673   -0.51831  -0.56036 
 H                    -1.17369  -0.33692  -1.63278 
 C                    -2.20901   0.17473   0.25855 
 H                    -1.84236   0.22402   1.29197 
 C                    -2.46295   1.60684  -0.23094 
 H                    -2.81186   1.60714  -1.26951 
 H                    -3.22989   2.095     0.37733 
 H                    -1.54902   2.19963  -0.17252 
 C                    -3.52291  -0.64609   0.27258 
 H                    -4.26747  -0.15965   0.91056 
 H                    -3.94289  -0.72633  -0.73496 
 H                    -3.3625   -1.65815   0.65384 
 H                     3.67058  -0.84745  -0.61919 
 H                     1.0226   -0.53866   2.09872 
 O                     0.68796   0.73105  -0.26265 
 C                     1.05118  -1.59475  -0.48223 
 H                     1.12346  -1.60641  -1.5748 
 H                     1.6388   -2.44168  -0.11134 
 C                    -0.42517  -1.71863  -0.0836 
 H                    -0.83217  -2.64093  -0.52631 
 H                    -0.52865  -1.82315   1.00082 
 O                     1.36942   2.17905   0.17766 
 H                     1.18389   2.61779  -0.66346 
 
 NAtoms=     30 NQM=        0 NQMF=       0 NMMI=     30 NMMIF=      0
                NMic=       0 NMicF=      0.
                    Isotopes and Nuclear Properties:
 (Nuclear quadrupole moments (NQMom) in fm**2, nuclear magnetic moments (NMagM)
  in nuclear magnetons)

  Atom         1           2           3           4           5           6           7           8           9          10
 IAtWgt=          12           1           1          12          12           1           1          12           1          12
 AtmWgt=  12.0000000   1.0078250   1.0078250  12.0000000  12.0000000   1.0078250   1.0078250  12.0000000   1.0078250  12.0000000
 NucSpn=           0           1           1           0           0           1           1           0           1           0
 AtZEff=   0.0000000   0.0000000   0.0000000   0.0000000   0.0000000   0.0000000   0.0000000   0.0000000   0.0000000   0.0000000
 NQMom=    0.0000000   0.0000000   0.0000000   0.0000000   0.0000000   0.0000000   0.0000000   0.0000000   0.0000000   0.0000000
 NMagM=    0.0000000   2.7928460   2.7928460   0.0000000   0.0000000   2.7928460   2.7928460   0.0000000   2.7928460   0.0000000

  Atom        11          12          13          14          15          16          17          18          19          20
 IAtWgt=           1          12           1           1           1          12           1           1           1           1
 AtmWgt=   1.0078250  12.0000000   1.0078250   1.0078250   1.0078250  12.0000000   1.0078250   1.0078250   1.0078250   1.0078250
 NucSpn=           1           0           1           1           1           0           1           1           1           1
 AtZEff=   0.0000000   0.0000000   0.0000000   0.0000000   0.0000000   0.0000000   0.0000000   0.0000000   0.0000000   0.0000000
 NQMom=    0.0000000   0.0000000   0.0000000   0.0000000   0.0000000   0.0000000   0.0000000   0.0000000   0.0000000   0.0000000
 NMagM=    2.7928460   0.0000000   2.7928460   2.7928460   2.7928460   0.0000000   2.7928460   2.7928460   2.7928460   2.7928460

  Atom        21          22          23          24          25          26          27          28          29          30
 IAtWgt=           1          16          12           1           1          12           1           1          16           1
 AtmWgt=   1.0078250  15.9949146  12.0000000   1.0078250   1.0078250  12.0000000   1.0078250   1.0078250  15.9949146   1.0078250
 NucSpn=           1           0           0           1           1           0           1           1           0           1
 AtZEff=   0.0000000   0.0000000   0.0000000   0.0000000   0.0000000   0.0000000   0.0000000   0.0000000   0.0000000   0.0000000
 NQMom=    0.0000000   0.0000000   0.0000000   0.0000000   0.0000000   0.0000000   0.0000000   0.0000000   0.0000000   0.0000000
 NMagM=    2.7928460   0.0000000   0.0000000   2.7928460   2.7928460   0.0000000   2.7928460   2.7928460   0.0000000   2.7928460
 Leave Link  101 at Mon Mar 31 16:18:45 2014, MaxMem= 4026531840 cpu:       3.0
 (Enter /usr/caen/gaussian-09revc/g09/l103.exe)

 GradGradGradGradGradGradGradGradGradGradGradGradGradGradGradGradGradGrad
 Berny optimization.
 Initialization pass.
                           ----------------------------
                           !    Initial Parameters    !
                           ! (Angstroms and Degrees)  !
 --------------------------                            --------------------------
 ! Name  Definition              Value          Derivative Info.                !
 --------------------------------------------------------------------------------
 ! R1    R(1,2)                  1.0941         calculate D2E/DX2 analytically  !
 ! R2    R(1,3)                  1.0904         calculate D2E/DX2 analytically  !
 ! R3    R(1,4)                  1.5333         calculate D2E/DX2 analytically  !
 ! R4    R(1,21)                 1.0918         calculate D2E/DX2 analytically  !
 ! R5    R(4,5)                  1.5328         calculate D2E/DX2 analytically  !
 ! R6    R(4,22)                 1.4493         calculate D2E/DX2 analytically  !
 ! R7    R(4,23)                 1.549          calculate D2E/DX2 analytically  !
 ! R8    R(5,6)                  1.0932         calculate D2E/DX2 analytically  !
 ! R9    R(5,7)                  1.0895         calculate D2E/DX2 analytically  !
 ! R10   R(5,20)                 1.0941         calculate D2E/DX2 analytically  !
 ! R11   R(8,9)                  1.0877         calculate D2E/DX2 analytically  !
 ! R12   R(8,10)                 1.4953         calculate D2E/DX2 analytically  !
 ! R13   R(8,26)                 1.4896         calculate D2E/DX2 analytically  !
 ! R14   R(10,11)                1.0976         calculate D2E/DX2 analytically  !
 ! R15   R(10,12)                1.5346         calculate D2E/DX2 analytically  !
 ! R16   R(10,16)                1.5493         calculate D2E/DX2 analytically  !
 ! R17   R(12,13)                1.0956         calculate D2E/DX2 analytically  !
 ! R18   R(12,14)                1.0938         calculate D2E/DX2 analytically  !
 ! R19   R(12,15)                1.0909         calculate D2E/DX2 analytically  !
 ! R20   R(16,17)                1.0945         calculate D2E/DX2 analytically  !
 ! R21   R(16,18)                1.0945         calculate D2E/DX2 analytically  !
 ! R22   R(16,19)                1.0933         calculate D2E/DX2 analytically  !
 ! R23   R(22,29)                1.6598         calculate D2E/DX2 analytically  !
 ! R24   R(23,24)                1.095          calculate D2E/DX2 analytically  !
 ! R25   R(23,25)                1.0955         calculate D2E/DX2 analytically  !
 ! R26   R(23,26)                1.5342         calculate D2E/DX2 analytically  !
 ! R27   R(26,27)                1.101          calculate D2E/DX2 analytically  !
 ! R28   R(26,28)                1.0943         calculate D2E/DX2 analytically  !
 ! R29   R(29,30)                0.9666         calculate D2E/DX2 analytically  !
 ! A1    A(2,1,3)              108.5737         calculate D2E/DX2 analytically  !
 ! A2    A(2,1,4)              110.4978         calculate D2E/DX2 analytically  !
 ! A3    A(2,1,21)             108.4931         calculate D2E/DX2 analytically  !
 ! A4    A(3,1,4)              109.8262         calculate D2E/DX2 analytically  !
 ! A5    A(3,1,21)             108.0356         calculate D2E/DX2 analytically  !
 ! A6    A(4,1,21)             111.3338         calculate D2E/DX2 analytically  !
 ! A7    A(1,4,5)              111.0001         calculate D2E/DX2 analytically  !
 ! A8    A(1,4,22)             109.6912         calculate D2E/DX2 analytically  !
 ! A9    A(1,4,23)             111.9435         calculate D2E/DX2 analytically  !
 ! A10   A(5,4,22)             110.7328         calculate D2E/DX2 analytically  !
 ! A11   A(5,4,23)             109.2288         calculate D2E/DX2 analytically  !
 ! A12   A(22,4,23)            104.045          calculate D2E/DX2 analytically  !
 ! A13   A(4,5,6)              110.3661         calculate D2E/DX2 analytically  !
 ! A14   A(4,5,7)              110.6158         calculate D2E/DX2 analytically  !
 ! A15   A(4,5,20)             110.1103         calculate D2E/DX2 analytically  !
 ! A16   A(6,5,7)              108.7197         calculate D2E/DX2 analytically  !
 ! A17   A(6,5,20)             108.2873         calculate D2E/DX2 analytically  !
 ! A18   A(7,5,20)             108.6823         calculate D2E/DX2 analytically  !
 ! A19   A(9,8,10)             117.2952         calculate D2E/DX2 analytically  !
 ! A20   A(9,8,26)             116.9293         calculate D2E/DX2 analytically  !
 ! A21   A(10,8,26)            123.0422         calculate D2E/DX2 analytically  !
 ! A22   A(8,10,11)            107.681          calculate D2E/DX2 analytically  !
 ! A23   A(8,10,12)            111.907          calculate D2E/DX2 analytically  !
 ! A24   A(8,10,16)            110.5004         calculate D2E/DX2 analytically  !
 ! A25   A(11,10,12)           108.2803         calculate D2E/DX2 analytically  !
 ! A26   A(11,10,16)           107.3702         calculate D2E/DX2 analytically  !
 ! A27   A(12,10,16)           110.9145         calculate D2E/DX2 analytically  !
 ! A28   A(10,12,13)           110.8128         calculate D2E/DX2 analytically  !
 ! A29   A(10,12,14)           110.8009         calculate D2E/DX2 analytically  !
 ! A30   A(10,12,15)           110.5724         calculate D2E/DX2 analytically  !
 ! A31   A(13,12,14)           107.6814         calculate D2E/DX2 analytically  !
 ! A32   A(13,12,15)           108.5067         calculate D2E/DX2 analytically  !
 ! A33   A(14,12,15)           108.367          calculate D2E/DX2 analytically  !
 ! A34   A(10,16,17)           110.2869         calculate D2E/DX2 analytically  !
 ! A35   A(10,16,18)           110.8495         calculate D2E/DX2 analytically  !
 ! A36   A(10,16,19)           111.6637         calculate D2E/DX2 analytically  !
 ! A37   A(17,16,18)           107.9457         calculate D2E/DX2 analytically  !
 ! A38   A(17,16,19)           107.9355         calculate D2E/DX2 analytically  !
 ! A39   A(18,16,19)           108.0259         calculate D2E/DX2 analytically  !
 ! A40   A(4,22,29)            105.7434         calculate D2E/DX2 analytically  !
 ! A41   A(4,23,24)            108.3977         calculate D2E/DX2 analytically  !
 ! A42   A(4,23,25)            108.9361         calculate D2E/DX2 analytically  !
 ! A43   A(4,23,26)            112.0025         calculate D2E/DX2 analytically  !
 ! A44   A(24,23,25)           107.1069         calculate D2E/DX2 analytically  !
 ! A45   A(24,23,26)           108.778          calculate D2E/DX2 analytically  !
 ! A46   A(25,23,26)           111.4547         calculate D2E/DX2 analytically  !
 ! A47   A(8,26,23)            109.3413         calculate D2E/DX2 analytically  !
 ! A48   A(8,26,27)            111.2321         calculate D2E/DX2 analytically  !
 ! A49   A(8,26,28)            110.3047         calculate D2E/DX2 analytically  !
 ! A50   A(23,26,27)           108.5946         calculate D2E/DX2 analytically  !
 ! A51   A(23,26,28)           110.8655         calculate D2E/DX2 analytically  !
 ! A52   A(27,26,28)           106.4677         calculate D2E/DX2 analytically  !
 ! A53   A(22,29,30)            94.9525         calculate D2E/DX2 analytically  !
 ! D1    D(2,1,4,5)            -58.092          calculate D2E/DX2 analytically  !
 ! D2    D(2,1,4,22)           179.2157         calculate D2E/DX2 analytically  !
 ! D3    D(2,1,4,23)            64.2504         calculate D2E/DX2 analytically  !
 ! D4    D(3,1,4,5)             61.6611         calculate D2E/DX2 analytically  !
 ! D5    D(3,1,4,22)           -61.0311         calculate D2E/DX2 analytically  !
 ! D6    D(3,1,4,23)          -175.9965         calculate D2E/DX2 analytically  !
 ! D7    D(21,1,4,5)          -178.7258         calculate D2E/DX2 analytically  !
 ! D8    D(21,1,4,22)           58.5819         calculate D2E/DX2 analytically  !
 ! D9    D(21,1,4,23)          -56.3834         calculate D2E/DX2 analytically  !
 ! D10   D(1,4,5,6)           -174.245          calculate D2E/DX2 analytically  !
 ! D11   D(1,4,5,7)            -53.8864         calculate D2E/DX2 analytically  !
 ! D12   D(1,4,5,20)            66.2592         calculate D2E/DX2 analytically  !
 ! D13   D(22,4,5,6)           -52.1574         calculate D2E/DX2 analytically  !
 ! D14   D(22,4,5,7)            68.2013         calculate D2E/DX2 analytically  !
 ! D15   D(22,4,5,20)         -171.6532         calculate D2E/DX2 analytically  !
 ! D16   D(23,4,5,6)            61.8497         calculate D2E/DX2 analytically  !
 ! D17   D(23,4,5,7)          -177.7916         calculate D2E/DX2 analytically  !
 ! D18   D(23,4,5,20)          -57.6461         calculate D2E/DX2 analytically  !
 ! D19   D(1,4,22,29)           64.0279         calculate D2E/DX2 analytically  !
 ! D20   D(5,4,22,29)          -58.8225         calculate D2E/DX2 analytically  !
 ! D21   D(23,4,22,29)        -176.0607         calculate D2E/DX2 analytically  !
 ! D22   D(1,4,23,24)         -166.0368         calculate D2E/DX2 analytically  !
 ! D23   D(1,4,23,25)          -49.8149         calculate D2E/DX2 analytically  !
 ! D24   D(1,4,23,26)           73.944          calculate D2E/DX2 analytically  !
 ! D25   D(5,4,23,24)          -42.6895         calculate D2E/DX2 analytically  !
 ! D26   D(5,4,23,25)           73.5324         calculate D2E/DX2 analytically  !
 ! D27   D(5,4,23,26)         -162.7087         calculate D2E/DX2 analytically  !
 ! D28   D(22,4,23,24)          75.5877         calculate D2E/DX2 analytically  !
 ! D29   D(22,4,23,25)        -168.1903         calculate D2E/DX2 analytically  !
 ! D30   D(22,4,23,26)         -44.4315         calculate D2E/DX2 analytically  !
 ! D31   D(9,8,10,11)         -157.7238         calculate D2E/DX2 analytically  !
 ! D32   D(9,8,10,12)          -38.8402         calculate D2E/DX2 analytically  !
 ! D33   D(9,8,10,16)           85.2936         calculate D2E/DX2 analytically  !
 ! D34   D(26,8,10,11)          41.608          calculate D2E/DX2 analytically  !
 ! D35   D(26,8,10,12)         160.4916         calculate D2E/DX2 analytically  !
 ! D36   D(26,8,10,16)         -75.3746         calculate D2E/DX2 analytically  !
 ! D37   D(9,8,26,23)           60.5207         calculate D2E/DX2 analytically  !
 ! D38   D(9,8,26,27)          -59.4081         calculate D2E/DX2 analytically  !
 ! D39   D(9,8,26,28)         -177.3141         calculate D2E/DX2 analytically  !
 ! D40   D(10,8,26,23)        -138.7456         calculate D2E/DX2 analytically  !
 ! D41   D(10,8,26,27)         101.3257         calculate D2E/DX2 analytically  !
 ! D42   D(10,8,26,28)         -16.5803         calculate D2E/DX2 analytically  !
 ! D43   D(8,10,12,13)          60.2979         calculate D2E/DX2 analytically  !
 ! D44   D(8,10,12,14)         179.7688         calculate D2E/DX2 analytically  !
 ! D45   D(8,10,12,15)         -60.0583         calculate D2E/DX2 analytically  !
 ! D46   D(11,10,12,13)        178.8263         calculate D2E/DX2 analytically  !
 ! D47   D(11,10,12,14)        -61.7027         calculate D2E/DX2 analytically  !
 ! D48   D(11,10,12,15)         58.4702         calculate D2E/DX2 analytically  !
 ! D49   D(16,10,12,13)        -63.6041         calculate D2E/DX2 analytically  !
 ! D50   D(16,10,12,14)         55.8669         calculate D2E/DX2 analytically  !
 ! D51   D(16,10,12,15)        176.0398         calculate D2E/DX2 analytically  !
 ! D52   D(8,10,16,17)         177.3648         calculate D2E/DX2 analytically  !
 ! D53   D(8,10,16,18)         -63.1439         calculate D2E/DX2 analytically  !
 ! D54   D(8,10,16,19)          57.3586         calculate D2E/DX2 analytically  !
 ! D55   D(11,10,16,17)         60.1902         calculate D2E/DX2 analytically  !
 ! D56   D(11,10,16,18)        179.6816         calculate D2E/DX2 analytically  !
 ! D57   D(11,10,16,19)        -59.816          calculate D2E/DX2 analytically  !
 ! D58   D(12,10,16,17)        -57.9334         calculate D2E/DX2 analytically  !
 ! D59   D(12,10,16,18)         61.558          calculate D2E/DX2 analytically  !
 ! D60   D(12,10,16,19)       -177.9396         calculate D2E/DX2 analytically  !
 ! D61   D(4,22,29,30)         129.0251         calculate D2E/DX2 analytically  !
 ! D62   D(4,23,26,8)           55.2898         calculate D2E/DX2 analytically  !
 ! D63   D(4,23,26,27)         176.8258         calculate D2E/DX2 analytically  !
 ! D64   D(4,23,26,28)         -66.5384         calculate D2E/DX2 analytically  !
 ! D65   D(24,23,26,8)         -64.5071         calculate D2E/DX2 analytically  !
 ! D66   D(24,23,26,27)         57.0289         calculate D2E/DX2 analytically  !
 ! D67   D(24,23,26,28)        173.6648         calculate D2E/DX2 analytically  !
 ! D68   D(25,23,26,8)         177.6244         calculate D2E/DX2 analytically  !
 ! D69   D(25,23,26,27)        -60.8395         calculate D2E/DX2 analytically  !
 ! D70   D(25,23,26,28)         55.7963         calculate D2E/DX2 analytically  !
 --------------------------------------------------------------------------------
 Trust Radius=3.00D-01 FncErr=1.00D-07 GrdErr=1.00D-06
 Number of steps in this run=    162 maximum allowed number of steps=    180.
 Search for a saddle point of order  1.
 GradGradGradGradGradGradGradGradGradGradGradGradGradGradGradGradGradGrad

 Leave Link  103 at Mon Mar 31 16:18:45 2014, MaxMem= 4026531840 cpu:       0.3
 (Enter /usr/caen/gaussian-09revc/g09/l202.exe)
                          Input orientation:                          
 ---------------------------------------------------------------------
 Center     Atomic      Atomic             Coordinates (Angstroms)
 Number     Number       Type             X           Y           Z
 ---------------------------------------------------------------------
      1          6           0        1.939389   -0.322037    1.546734
      2          1           0        2.679723   -1.090583    1.788278
      3          1           0        2.317406    0.643046    1.885514
      4          6           0        1.683656   -0.278971    0.035546
      5          6           0        2.981023   -0.005679   -0.733536
      6          1           0        2.771766    0.124088   -1.798655
      7          1           0        3.465748    0.895747   -0.360059
      8          6           0       -1.167302   -0.518305   -0.560361
      9          1           0       -1.173694   -0.336918   -1.632775
     10          6           0       -2.209008    0.174725    0.258546
     11          1           0       -1.842363    0.224023    1.291973
     12          6           0       -2.462947    1.606836   -0.230944
     13          1           0       -2.811856    1.607140   -1.269506
     14          1           0       -3.229889    2.095000    0.377330
     15          1           0       -1.549024    2.199631   -0.172518
     16          6           0       -3.522909   -0.646091    0.272583
     17          1           0       -4.267469   -0.159646    0.910560
     18          1           0       -3.942887   -0.726325   -0.734955
     19          1           0       -3.362498   -1.658150    0.653841
     20          1           0        3.670578   -0.847448   -0.619189
     21          1           0        1.022604   -0.538656    2.098722
     22          8           0        0.687964    0.731051   -0.262653
     23          6           0        1.051181   -1.594750   -0.482228
     24          1           0        1.123462   -1.606413   -1.574803
     25          1           0        1.638798   -2.441675   -0.111340
     26          6           0       -0.425169   -1.718631   -0.083597
     27          1           0       -0.832166   -2.640933   -0.526307
     28          1           0       -0.528654   -1.823152    1.000816
     29          8           0        1.369415    2.179055    0.177662
     30          1           0        1.183893    2.617792   -0.663458
 ---------------------------------------------------------------------
                    Distance matrix (angstroms):
                    1          2          3          4          5
     1  C    0.000000
     2  H    1.094121   0.000000
     3  H    1.090437   1.773753   0.000000
     4  C    1.533279   2.173231   2.161975   0.000000
     5  C    2.526799   2.761765   2.778607   1.532755   0.000000
     6  H    3.476134   3.788138   3.748181   2.170422   1.093209
     7  H    2.729218   3.029636   2.534787   2.170787   1.089501
     8  C    3.758976   4.543480   4.412962   2.922387   4.183465
     9  H    4.449807   5.207729   5.052372   3.309245   4.263804
    10  C    4.372116   5.276436   4.832678   3.925354   5.287078
    11  H    3.829456   4.735374   4.222742   3.776827   5.236459
    12  C    5.124573   6.148201   5.316019   4.563069   5.699966
    13  H    5.850407   6.839970   6.098603   5.046801   6.037044
    14  H    5.825033   6.860191   5.929188   5.467676   6.649985
    15  H    4.635047   5.705482   4.648412   4.078845   5.069463
    16  C    5.618289   6.400590   6.194570   5.224872   6.612377
    17  H    6.241488   7.064029   6.704881   6.016293   7.434204
    18  H    6.322240   7.096362   6.923388   5.696647   6.961312
    19  H    5.540078   6.173938   6.250906   5.267646   6.700428
    20  H    2.822108   2.614729   3.213438   2.167880   1.094137
    21  H    1.091838   1.773990   1.765896   2.181999   3.484416
    22  O    2.439045   3.389952   2.697674   1.449300   2.454103
    23  C    2.554486   2.839284   3.495320   1.548996   2.512487
    24  H    3.472658   3.741436   4.296436   2.160820   2.592414
    25  H    2.707846   2.552944   3.736768   2.168150   2.850048
    26  C    3.193679   3.679499   4.120271   2.556161   3.867657
    27  H    4.166089   4.482661   5.149874   3.496270   4.639819
    28  H    2.939831   3.383849   3.868447   2.865407   4.316135
    29  O    2.907695   3.873180   2.484908   2.482103   2.863673
    30  H    3.754773   4.690476   3.417855   3.021524   3.180753
                    6          7          8          9         10
     6  H    0.000000
     7  H    1.773873   0.000000
     8  C    4.178791   4.848177   0.000000
     9  H    3.975764   4.966255   1.087664   0.000000
    10  C    5.389133   5.753729   1.495343   2.216021   0.000000
    11  H    5.554472   5.599684   2.106632   3.052200   1.097648
    12  C    5.662021   5.972583   2.510664   2.721302   1.534610
    13  H    5.801403   6.382906   2.779381   2.568054   2.179491
    14  H    6.681262   6.842040   3.458741   3.765991   2.178018
    15  H    5.061761   5.184903   2.771878   2.950814   2.172933
    16  C    6.671292   7.184624   2.501801   3.040524   1.549281
    17  H    7.547926   7.907653   3.450113   4.008918   2.184992
    18  H    6.851367   7.593388   2.788840   2.937031   2.192093
    19  H    6.842536   7.360389   2.755434   3.430033   2.201415
    20  H    1.772818   1.774213   4.849420   4.975437   6.031980
    21  H    4.323002   3.751276   3.444826   4.334570   3.786618
    22  O    2.658935   2.784366   2.256442   2.546284   2.995596
    23  C    2.765465   3.470970   2.467084   2.802850   3.782674
    24  H    2.400344   3.636305   2.731423   2.625244   4.199878
    25  H    3.273192   3.812872   3.431497   3.828169   4.667759
    26  C    4.069082   4.695811   1.489580   2.206666   2.623726
    27  H    4.717259   5.568466   2.149192   2.578643   3.231040
    28  H    4.745688   5.019924   2.132550   3.092049   2.714050
    29  O    3.177311   2.516075   3.775627   4.009390   4.102315
    30  H    3.166792   2.874779   3.920950   3.902320   4.281407
                   11         12         13         14         15
    11  H    0.000000
    12  C    2.148621   0.000000
    13  H    3.068241   1.095604   0.000000
    14  H    2.502470   1.093847   1.767718   0.000000
    15  H    2.476653   1.090905   1.774591   1.771606   0.000000
    16  C    2.149532   2.540224   2.821469   2.758698   3.491772
    17  H    2.484717   2.771243   3.161175   2.538569   3.758881
    18  H    3.069821   2.808539   2.647647   3.115352   3.822059
    19  H    2.502119   3.500310   3.829437   3.765658   4.342123
    20  H    5.932378   6.617732   6.962030   7.567529   6.060400
    21  H    3.072549   4.709516   5.536469   5.289899   4.389763
    22  O    3.012722   3.270511   3.745667   4.197560   2.677493
    23  C    3.850756   4.760503   5.078874   5.716700   4.610240
    24  H    4.512762   4.999326   5.089878   6.038456   4.857423
    25  H    4.603663   5.764465   6.127199   6.672656   5.630957
    26  C    2.770295   3.902945   4.261855   4.756332   4.077221
    27  H    3.540426   4.559630   4.745276   5.384672   4.906130
    28  H    2.449802   4.125959   4.704708   4.799721   4.312847
    29  O    3.921652   3.896331   4.461436   4.604403   2.939445
    30  H    4.325745   3.809008   4.165900   4.564868   2.807974
                   16         17         18         19         20
    16  C    0.000000
    17  H    1.094538   0.000000
    18  H    1.094510   1.770367   0.000000
    19  H    1.093322   1.769291   1.770283   0.000000
    20  H    7.251349   8.113310   7.615308   7.193191   0.000000
    21  H    4.899797   5.435094   5.720231   4.750797   3.807120
    22  O    4.462561   5.169728   4.877683   4.791084   3.393341
    23  C    4.732018   5.682202   5.075308   4.557986   2.727354
    24  H    5.091544   6.110016   5.210354   5.009328   2.824363
    25  H    5.478571   6.413729   5.872523   5.119802   2.632033
    26  C    3.297453   4.264042   3.712584   3.029088   4.221488
    27  H    3.443504   4.474671   3.658667   2.959931   4.847672
    28  H    3.298690   4.093182   3.984083   2.859771   4.605428
    29  O    5.650247   6.146635   6.123288   6.110801   3.884590
    30  H    5.803713   6.317360   6.121446   6.378764   4.265378
                   21         22         23         24         25
    21  H    0.000000
    22  O    2.701894   0.000000
    23  C    2.788809   2.364210   0.000000
    24  H    3.826887   2.715720   1.095025   0.000000
    25  H    2.980864   3.315595   1.095506   1.762089   0.000000
    26  C    2.872439   2.696677   1.534230   2.152800   2.187126
    27  H    3.840640   3.708178   2.154864   2.448276   2.513477
    28  H    2.293846   3.098462   2.178868   3.067617   2.513426
    29  O    3.346147   1.659810   3.844260   4.178683   4.637589
    30  H    4.197477   1.991578   4.218527   4.321818   5.109792
                   26         27         28         29         30
    26  C    0.000000
    27  H    1.101036   0.000000
    28  H    1.094342   1.758690   0.000000
    29  O    4.298924   5.345542   4.505320   0.000000
    30  H    4.661532   5.633604   5.042282   0.966639   0.000000
 Stoichiometry    C9H19O2(2)
 Framework group  C1[X(C9H19O2)]
 Deg. of freedom    84
 Full point group                 C1      NOp   1
 Largest Abelian subgroup         C1      NOp   1
 Largest concise Abelian subgroup C1      NOp   1
                         Standard orientation:                         
 ---------------------------------------------------------------------
 Center     Atomic      Atomic             Coordinates (Angstroms)
 Number     Number       Type             X           Y           Z
 ---------------------------------------------------------------------
      1          6           0        1.939389   -0.322037    1.546734
      2          1           0        2.679723   -1.090583    1.788278
      3          1           0        2.317406    0.643046    1.885514
      4          6           0        1.683656   -0.278971    0.035546
      5          6           0        2.981023   -0.005679   -0.733536
      6          1           0        2.771766    0.124088   -1.798655
      7          1           0        3.465748    0.895747   -0.360059
      8          6           0       -1.167302   -0.518305   -0.560361
      9          1           0       -1.173694   -0.336918   -1.632775
     10          6           0       -2.209008    0.174725    0.258546
     11          1           0       -1.842363    0.224023    1.291973
     12          6           0       -2.462947    1.606836   -0.230944
     13          1           0       -2.811856    1.607140   -1.269506
     14          1           0       -3.229889    2.095000    0.377330
     15          1           0       -1.549024    2.199631   -0.172518
     16          6           0       -3.522909   -0.646091    0.272583
     17          1           0       -4.267469   -0.159646    0.910560
     18          1           0       -3.942887   -0.726325   -0.734955
     19          1           0       -3.362498   -1.658150    0.653841
     20          1           0        3.670578   -0.847448   -0.619189
     21          1           0        1.022604   -0.538656    2.098722
     22          8           0        0.687964    0.731051   -0.262653
     23          6           0        1.051181   -1.594750   -0.482228
     24          1           0        1.123462   -1.606413   -1.574803
     25          1           0        1.638798   -2.441675   -0.111340
     26          6           0       -0.425169   -1.718631   -0.083597
     27          1           0       -0.832166   -2.640933   -0.526307
     28          1           0       -0.528654   -1.823152    1.000816
     29          8           0        1.369415    2.179055    0.177662
     30          1           0        1.183893    2.617792   -0.663458
 ---------------------------------------------------------------------
 Rotational constants (GHZ):      1.6313316      0.6894415      0.5634726
 Leave Link  202 at Mon Mar 31 16:18:46 2014, MaxMem= 4026531840 cpu:       0.3
 (Enter /usr/caen/gaussian-09revc/g09/l301.exe)
 Standard basis: 6-311G(2d,d,p) (5D, 7F)
 Ernie: Thresh=  0.10000D-02 Tol=  0.10000D-05 Strict=F.
 There are   312 symmetry adapted basis functions of A   symmetry.
 Integral buffers will be    131072 words long.
 Raffenetti 2 integral format.
 Two-electron integral symmetry is turned on.
   312 basis functions,   504 primitive gaussians,   323 cartesian basis functions
    45 alpha electrons       44 beta electrons
       nuclear repulsion energy       693.1571546994 Hartrees.
 IExCor=  402 DFT=T Ex+Corr=B3LYP ExCW=0 ScaHFX=  0.200000
 ScaDFX=  0.800000  0.720000  1.000000  0.810000 ScalE2=  1.000000  1.000000
 IRadAn=      0 IRanWt=     -1 IRanGd=            0 ICorTp=0
 NAtoms=   30 NActive=   30 NUniq=   30 SFac= 1.00D+00 NAtFMM=   60 NAOKFM=F Big=F
 Leave Link  301 at Mon Mar 31 16:18:46 2014, MaxMem= 4026531840 cpu:       1.0
 (Enter /usr/caen/gaussian-09revc/g09/l302.exe)
 NPDir=0 NMtPBC=     1 NCelOv=     1 NCel=       1 NClECP=     1 NCelD=      1
         NCelK=      1 NCelE2=     1 NClLst=     1 CellRange=     0.0.
 One-electron integrals computed using PRISM.
 NBasis=   312 RedAO= T  NBF=   312
 NBsUse=   312 1.00D-06 NBFU=   312
 Precomputing XC quadrature grid using
 IXCGrd= 2 IRadAn=           0 IRanWt=          -1 IRanGd=           0 AccXCQ= 0.00D+00.
 NRdTot=    1907 NPtTot=      242676 NUsed=      256428 NTot=      256460
 NSgBfM=   323   323   323   323   323 NAtAll=    30    30.
 Leave Link  302 at Mon Mar 31 16:18:48 2014, MaxMem= 4026531840 cpu:       9.6
 (Enter /usr/caen/gaussian-09revc/g09/l303.exe)
 DipDrv:  MaxL=1.
 Leave Link  303 at Mon Mar 31 16:18:49 2014, MaxMem= 4026531840 cpu:       2.4
 (Enter /usr/caen/gaussian-09revc/g09/l401.exe)
 Harris functional with IExCor=  402 diagonalized for initial guess.
 ExpMin= 1.03D-01 ExpMax= 8.59D+03 ExpMxC= 1.30D+03 IAcc=1 IRadAn=         1 AccDes= 0.00D+00
 HarFok:  IExCor=  402 AccDes= 0.00D+00 IRadAn=         1 IDoV= 1
 ScaDFX=  1.000000  1.000000  1.000000  1.000000
 FoFCou: FMM=F IPFlag=           0 FMFlag=      100000 FMFlg1=           0
         NFxFlg=           0 DoJE=T BraDBF=F KetDBF=T FulRan=T
         Omega=  0.000000  0.000000  1.000000  0.000000  0.000000 ICntrl=     500 IOpCl=  0
         NMat0=    1 NMatS0=    1 NMatT0=    0 NMatD0=    1 NMtDS0=    0 NMtDT0=    0
         I1Cent=           4 NGrid=           0.
 Petite list used in FoFCou.
 Harris En= -504.916032484320    
 Initial guess orbital symmetries:
 Alpha Orbitals:
       Occupied  (A) (A) (A) (A) (A) (A) (A) (A) (A) (A) (A) (A)
                 (A) (A) (A) (A) (A) (A) (A) (A) (A) (A) (A) (A)
                 (A) (A) (A) (A) (A) (A) (A) (A) (A) (A) (A) (A)
                 (A) (A) (A) (A) (A) (A) (A) (A) (A)
       Virtual   (A) (A) (A) (A) (A) (A) (A) (A) (A) (A) (A) (A)
                 (A) (A) (A) (A) (A) (A) (A) (A) (A) (A) (A) (A)
                 (A) (A) (A) (A) (A) (A) (A) (A) (A) (A) (A) (A)
                 (A) (A) (A) (A) (A) (A) (A) (A) (A) (A) (A) (A)
                 (A) (A) (A) (A) (A) (A) (A) (A) (A) (A) (A) (A)
                 (A) (A) (A) (A) (A) (A) (A) (A) (A) (A) (A) (A)
                 (A) (A) (A) (A) (A) (A) (A) (A) (A) (A) (A) (A)
                 (A) (A) (A) (A) (A) (A) (A) (A) (A) (A) (A) (A)
                 (A) (A) (A) (A) (A) (A) (A) (A) (A) (A) (A) (A)
                 (A) (A) (A) (A) (A) (A) (A) (A) (A) (A) (A) (A)
                 (A) (A) (A) (A) (A) (A) (A) (A) (A) (A) (A) (A)
                 (A) (A) (A) (A) (A) (A) (A) (A) (A) (A) (A) (A)
                 (A) (A) (A) (A) (A) (A) (A) (A) (A) (A) (A) (A)
                 (A) (A) (A) (A) (A) (A) (A) (A) (A) (A) (A) (A)
                 (A) (A) (A) (A) (A) (A) (A) (A) (A) (A) (A) (A)
                 (A) (A) (A) (A) (A) (A) (A) (A) (A) (A) (A) (A)
                 (A) (A) (A) (A) (A) (A) (A) (A) (A) (A) (A) (A)
                 (A) (A) (A) (A) (A) (A) (A) (A) (A) (A) (A) (A)
                 (A) (A) (A) (A) (A) (A) (A) (A) (A) (A) (A) (A)
                 (A) (A) (A) (A) (A) (A) (A) (A) (A) (A) (A) (A)
                 (A) (A) (A) (A) (A) (A) (A) (A) (A) (A) (A) (A)
                 (A) (A) (A) (A) (A) (A) (A) (A) (A) (A) (A) (A)
                 (A) (A) (A)
 Beta  Orbitals:
       Occupied  (A) (A) (A) (A) (A) (A) (A) (A) (A) (A) (A) (A)
                 (A) (A) (A) (A) (A) (A) (A) (A) (A) (A) (A) (A)
                 (A) (A) (A) (A) (A) (A) (A) (A) (A) (A) (A) (A)
                 (A) (A) (A) (A) (A) (A) (A) (A)
       Virtual   (A) (A) (A) (A) (A) (A) (A) (A) (A) (A) (A) (A)
                 (A) (A) (A) (A) (A) (A) (A) (A) (A) (A) (A) (A)
                 (A) (A) (A) (A) (A) (A) (A) (A) (A) (A) (A) (A)
                 (A) (A) (A) (A) (A) (A) (A) (A) (A) (A) (A) (A)
                 (A) (A) (A) (A) (A) (A) (A) (A) (A) (A) (A) (A)
                 (A) (A) (A) (A) (A) (A) (A) (A) (A) (A) (A) (A)
                 (A) (A) (A) (A) (A) (A) (A) (A) (A) (A) (A) (A)
                 (A) (A) (A) (A) (A) (A) (A) (A) (A) (A) (A) (A)
                 (A) (A) (A) (A) (A) (A) (A) (A) (A) (A) (A) (A)
                 (A) (A) (A) (A) (A) (A) (A) (A) (A) (A) (A) (A)
                 (A) (A) (A) (A) (A) (A) (A) (A) (A) (A) (A) (A)
                 (A) (A) (A) (A) (A) (A) (A) (A) (A) (A) (A) (A)
                 (A) (A) (A) (A) (A) (A) (A) (A) (A) (A) (A) (A)
                 (A) (A) (A) (A) (A) (A) (A) (A) (A) (A) (A) (A)
                 (A) (A) (A) (A) (A) (A) (A) (A) (A) (A) (A) (A)
                 (A) (A) (A) (A) (A) (A) (A) (A) (A) (A) (A) (A)
                 (A) (A) (A) (A) (A) (A) (A) (A) (A) (A) (A) (A)
                 (A) (A) (A) (A) (A) (A) (A) (A) (A) (A) (A) (A)
                 (A) (A) (A) (A) (A) (A) (A) (A) (A) (A) (A) (A)
                 (A) (A) (A) (A) (A) (A) (A) (A) (A) (A) (A) (A)
                 (A) (A) (A) (A) (A) (A) (A) (A) (A) (A) (A) (A)
                 (A) (A) (A) (A) (A) (A) (A) (A) (A) (A) (A) (A)
                 (A) (A) (A) (A)
 The electronic state of the initial guess is 2-A.
 Initial guess <Sx>= 0.0000 <Sy>= 0.0000 <Sz>= 0.5000 <S**2>= 0.7500 S= 0.5000
 Leave Link  401 at Mon Mar 31 16:18:52 2014, MaxMem= 4026531840 cpu:      17.7
 (Enter /usr/caen/gaussian-09revc/g09/l502.exe)
 UHF open shell SCF:
 Requested convergence on RMS density matrix=1.00D-08 within 128 cycles.
 Requested convergence on MAX density matrix=1.00D-06.
 Requested convergence on             energy=1.00D-06.
 No special actions if energy rises.
 Using DIIS extrapolation, IDIIS=  1040.
 Integral symmetry usage will be decided dynamically.
       256145 words used for storage of precomputed grid.
 Keep R1 and R2 ints in memory in canonical form, NReq=2755660876.
 IEnd=      592303 IEndB=      592303 NGot=  4026531840 MDV=  1287998200
 LenX=  1287998200 LenY=  1287893430
 Symmetry not used in FoFDir.
 MinBra= 0 MaxBra= 2 Meth= 1.
 IRaf=       0 NMat=   1 IRICut=       1 DoRegI=T DoRafI=F ISym2E= 0 JSym2E=0.
 Integral accuracy reduced to 1.0D-05 until final iterations.

 Cycle   1  Pass 0  IDiag  1:
 E= -504.445387634981    
 DIIS: error= 3.39D-02 at cycle   1 NSaved=   1.
 NSaved= 1 IEnMin= 1 EnMin= -504.445387634981     IErMin= 1 ErrMin= 3.39D-02
 ErrMax= 3.39D-02 EMaxC= 1.00D-01 BMatC= 1.62D+00 BMatP= 1.62D+00
 IDIUse=3 WtCom= 6.61D-01 WtEn= 3.39D-01
 Coeff-Com:  0.100D+01
 Coeff-En:   0.100D+01
 Coeff:      0.100D+01
 Gap=     0.113 Goal=   None    Shift=    0.000
 Gap=     0.203 Goal=   None    Shift=    0.000
 GapD=    0.113 DampG=1.000 DampE=0.500 DampFc=0.5000 IDamp=-1.
 Damping current iteration by 5.00D-01
 RMSDP=3.45D-03 MaxDP=1.25D-01              OVMax= 1.80D-01

 Cycle   2  Pass 0  IDiag  1:
 E= -504.608405725749     Delta-E=       -0.163018090768 Rises=F Damp=T
 DIIS: error= 6.16D-03 at cycle   2 NSaved=   2.
 NSaved= 2 IEnMin= 2 EnMin= -504.608405725749     IErMin= 2 ErrMin= 6.16D-03
 ErrMax= 6.16D-03 EMaxC= 1.00D-01 BMatC= 1.06D-01 BMatP= 1.62D+00
 IDIUse=3 WtCom= 9.38D-01 WtEn= 6.16D-02
 Coeff-Com:  0.930D-01 0.907D+00
 Coeff-En:   0.169D+00 0.831D+00
 Coeff:      0.977D-01 0.902D+00
 Gap=     0.120 Goal=   None    Shift=    0.000
 Gap=     0.215 Goal=   None    Shift=    0.000
 RMSDP=7.92D-04 MaxDP=3.98D-02 DE=-1.63D-01 OVMax= 1.33D-01

 Cycle   3  Pass 0  IDiag  1:
 E= -504.806960403753     Delta-E=       -0.198554678004 Rises=F Damp=F
 DIIS: error= 1.15D-02 at cycle   3 NSaved=   3.
 NSaved= 3 IEnMin= 3 EnMin= -504.806960403753     IErMin= 2 ErrMin= 6.16D-03
 ErrMax= 1.15D-02 EMaxC= 1.00D-01 BMatC= 1.54D-01 BMatP= 1.06D-01
 IDIUse=2 WtCom= 0.00D+00 WtEn= 1.00D+00
 Coeff-En:   0.000D+00 0.000D+00 0.100D+01
 Coeff:      0.000D+00 0.000D+00 0.100D+01
 Gap=     0.114 Goal=   None    Shift=    0.000
 Gap=     0.231 Goal=   None    Shift=    0.000
 RMSDP=1.61D-03 MaxDP=7.73D-02 DE=-1.99D-01 OVMax= 2.65D-01

 Cycle   4  Pass 0  IDiag  1:
 E= -504.601410321777     Delta-E=        0.205550081977 Rises=F Damp=F
 DIIS: error= 3.32D-02 at cycle   4 NSaved=   4.
 NSaved= 4 IEnMin= 3 EnMin= -504.806960403753     IErMin= 2 ErrMin= 6.16D-03
 ErrMax= 3.32D-02 EMaxC= 1.00D-01 BMatC= 1.20D+00 BMatP= 1.06D-01
 IDIUse=2 WtCom= 0.00D+00 WtEn= 1.00D+00
 Coeff-En:   0.000D+00 0.000D+00 0.827D+00 0.173D+00
 Coeff:      0.000D+00 0.000D+00 0.827D+00 0.173D+00
 Gap=     0.129 Goal=   None    Shift=    0.000
 Gap=     0.184 Goal=   None    Shift=    0.000
 RMSDP=8.77D-04 MaxDP=4.21D-02 DE= 2.06D-01 OVMax= 1.62D-01

 Cycle   5  Pass 0  IDiag  1:
 E= -504.812269208825     Delta-E=       -0.210858887049 Rises=F Damp=F
 DIIS: error= 1.01D-02 at cycle   5 NSaved=   5.
 NSaved= 5 IEnMin= 5 EnMin= -504.812269208825     IErMin= 2 ErrMin= 6.16D-03
 ErrMax= 1.01D-02 EMaxC= 1.00D-01 BMatC= 1.28D-01 BMatP= 1.06D-01
 IDIUse=2 WtCom= 0.00D+00 WtEn= 1.00D+00
 Coeff-En:   0.000D+00 0.000D+00 0.465D+00 0.000D+00 0.535D+00
 Coeff:      0.000D+00 0.000D+00 0.465D+00 0.000D+00 0.535D+00
 Gap=     0.119 Goal=   None    Shift=    0.000
 Gap=     0.195 Goal=   None    Shift=    0.000
 RMSDP=3.98D-04 MaxDP=1.99D-02 DE=-2.11D-01 OVMax= 6.35D-02

 Cycle   6  Pass 0  IDiag  1:
 E= -504.835932149913     Delta-E=       -0.023662941088 Rises=F Damp=F
 DIIS: error= 1.25D-03 at cycle   6 NSaved=   6.
 NSaved= 6 IEnMin= 6 EnMin= -504.835932149913     IErMin= 6 ErrMin= 1.25D-03
 ErrMax= 1.25D-03 EMaxC= 1.00D-01 BMatC= 1.09D-03 BMatP= 1.06D-01
 IDIUse=3 WtCom= 9.87D-01 WtEn= 1.25D-02
 Coeff-Com: -0.953D-03-0.125D-01 0.688D-01-0.656D-02 0.167D+00 0.785D+00
 Coeff-En:   0.000D+00 0.000D+00 0.000D+00 0.000D+00 0.000D+00 0.100D+01
 Coeff:     -0.941D-03-0.123D-01 0.679D-01-0.647D-02 0.164D+00 0.787D+00
 Gap=     0.123 Goal=   None    Shift=    0.000
 Gap=     0.185 Goal=   None    Shift=    0.000
 RMSDP=5.61D-05 MaxDP=2.34D-03 DE=-2.37D-02 OVMax= 8.51D-03

 Cycle   7  Pass 0  IDiag  1:
 E= -504.836209333869     Delta-E=       -0.000277183956 Rises=F Damp=F
 DIIS: error= 4.38D-04 at cycle   7 NSaved=   7.
 NSaved= 7 IEnMin= 7 EnMin= -504.836209333869     IErMin= 7 ErrMin= 4.38D-04
 ErrMax= 4.38D-04 EMaxC= 1.00D-01 BMatC= 1.40D-04 BMatP= 1.09D-03
 IDIUse=3 WtCom= 9.96D-01 WtEn= 4.38D-03
 Coeff-Com: -0.798D-03-0.495D-02-0.166D-01-0.733D-02 0.260D-01 0.355D+00
 Coeff-Com:  0.649D+00
 Coeff-En:   0.000D+00 0.000D+00 0.000D+00 0.000D+00 0.000D+00 0.000D+00
 Coeff-En:   0.100D+01
 Coeff:     -0.795D-03-0.493D-02-0.165D-01-0.729D-02 0.259D-01 0.353D+00
 Coeff:      0.650D+00
 Gap=     0.124 Goal=   None    Shift=    0.000
 Gap=     0.186 Goal=   None    Shift=    0.000
 RMSDP=2.29D-05 MaxDP=1.14D-03 DE=-2.77D-04 OVMax= 2.87D-03

 Cycle   8  Pass 0  IDiag  1:
 E= -504.836272595093     Delta-E=       -0.000063261225 Rises=F Damp=F
 DIIS: error= 1.64D-04 at cycle   8 NSaved=   8.
 NSaved= 8 IEnMin= 8 EnMin= -504.836272595093     IErMin= 8 ErrMin= 1.64D-04
 ErrMax= 1.64D-04 EMaxC= 1.00D-01 BMatC= 3.13D-05 BMatP= 1.40D-04
 IDIUse=3 WtCom= 9.98D-01 WtEn= 1.64D-03
 Coeff-Com: -0.632D-03 0.149D-02-0.614D-01 0.165D-01-0.129D+00-0.580D-01
 Coeff-Com:  0.210D+00 0.102D+01
 Coeff-En:   0.000D+00 0.000D+00 0.000D+00 0.000D+00 0.000D+00 0.000D+00
 Coeff-En:   0.000D+00 0.100D+01
 Coeff:     -0.631D-03 0.149D-02-0.613D-01 0.165D-01-0.129D+00-0.579D-01
 Coeff:      0.209D+00 0.102D+01
 Gap=     0.125 Goal=   None    Shift=    0.000
 Gap=     0.186 Goal=   None    Shift=    0.000
 RMSDP=2.27D-05 MaxDP=1.06D-03 DE=-6.33D-05 OVMax= 3.81D-03

 Cycle   9  Pass 0  IDiag  1:
 E= -504.836310572003     Delta-E=       -0.000037976909 Rises=F Damp=F
 DIIS: error= 1.49D-04 at cycle   9 NSaved=   9.
 NSaved= 9 IEnMin= 9 EnMin= -504.836310572003     IErMin= 9 ErrMin= 1.49D-04
 ErrMax= 1.49D-04 EMaxC= 1.00D-01 BMatC= 1.26D-05 BMatP= 3.13D-05
 IDIUse=3 WtCom= 9.99D-01 WtEn= 1.49D-03
 Coeff-Com: -0.197D-03 0.211D-02-0.336D-01 0.116D-01-0.814D-01-0.130D+00
 Coeff-Com: -0.476D-01 0.500D+00 0.779D+00
 Coeff-En:   0.000D+00 0.000D+00 0.000D+00 0.000D+00 0.000D+00 0.000D+00
 Coeff-En:   0.000D+00 0.000D+00 0.100D+01
 Coeff:     -0.197D-03 0.211D-02-0.336D-01 0.116D-01-0.813D-01-0.130D+00
 Coeff:     -0.475D-01 0.499D+00 0.779D+00
 Gap=     0.125 Goal=   None    Shift=    0.000
 Gap=     0.187 Goal=   None    Shift=    0.000
 RMSDP=1.61D-05 MaxDP=8.66D-04 DE=-3.80D-05 OVMax= 3.20D-03

 Cycle  10  Pass 0  IDiag  1:
 E= -504.836320092938     Delta-E=       -0.000009520935 Rises=F Damp=F
 DIIS: error= 1.02D-04 at cycle  10 NSaved=  10.
 NSaved=10 IEnMin=10 EnMin= -504.836320092938     IErMin=10 ErrMin= 1.02D-04
 ErrMax= 1.02D-04 EMaxC= 1.00D-01 BMatC= 1.28D-05 BMatP= 1.26D-05
 IDIUse=3 WtCom= 9.99D-01 WtEn= 1.02D-03
 Coeff-Com:  0.602D-04 0.651D-03 0.134D-02 0.515D-03 0.199D-02-0.565D-01
 Coeff-Com: -0.950D-01-0.141D+00 0.702D+00 0.586D+00
 Coeff-En:   0.000D+00 0.000D+00 0.000D+00 0.000D+00 0.000D+00 0.000D+00
 Coeff-En:   0.000D+00 0.000D+00 0.000D+00 0.100D+01
 Coeff:      0.602D-04 0.651D-03 0.134D-02 0.514D-03 0.199D-02-0.564D-01
 Coeff:     -0.949D-01-0.141D+00 0.701D+00 0.586D+00
 Gap=     0.125 Goal=   None    Shift=    0.000
 Gap=     0.187 Goal=   None    Shift=    0.000
 RMSDP=7.66D-06 MaxDP=3.34D-04 DE=-9.52D-06 OVMax= 1.17D-03

 Initial convergence to 1.0D-05 achieved.  Increase integral accuracy.
 Cycle  11  Pass 1  IDiag  1:
 E= -504.836431630661     Delta-E=       -0.000111537723 Rises=F Damp=F
 DIIS: error= 3.27D-05 at cycle   1 NSaved=   1.
 NSaved= 1 IEnMin= 1 EnMin= -504.836431630661     IErMin= 1 ErrMin= 3.27D-05
 ErrMax= 3.27D-05 EMaxC= 1.00D-01 BMatC= 1.38D-06 BMatP= 1.38D-06
 IDIUse=1 WtCom= 1.00D+00 WtEn= 0.00D+00
 Coeff-Com:  0.100D+01
 Coeff:      0.100D+01
 Gap=     0.126 Goal=   None    Shift=    0.000
 Gap=     0.187 Goal=   None    Shift=    0.000
 RMSDP=7.66D-06 MaxDP=3.34D-04 DE=-1.12D-04 OVMax= 5.50D-04

 Cycle  12  Pass 1  IDiag  1:
 E= -504.836432216719     Delta-E=       -0.000000586057 Rises=F Damp=F
 DIIS: error= 3.33D-05 at cycle   2 NSaved=   2.
 NSaved= 2 IEnMin= 2 EnMin= -504.836432216719     IErMin= 1 ErrMin= 3.27D-05
 ErrMax= 3.33D-05 EMaxC= 1.00D-01 BMatC= 1.11D-06 BMatP= 1.38D-06
 IDIUse=1 WtCom= 1.00D+00 WtEn= 0.00D+00
 Coeff-Com:  0.459D+00 0.541D+00
 Coeff:      0.459D+00 0.541D+00
 Gap=     0.125 Goal=   None    Shift=    0.000
 Gap=     0.187 Goal=   None    Shift=    0.000
 RMSDP=2.64D-06 MaxDP=1.30D-04 DE=-5.86D-07 OVMax= 6.60D-04

 Cycle  13  Pass 1  IDiag  1:
 E= -504.836432456998     Delta-E=       -0.000000240279 Rises=F Damp=F
 DIIS: error= 2.47D-05 at cycle   3 NSaved=   3.
 NSaved= 3 IEnMin= 3 EnMin= -504.836432456998     IErMin= 3 ErrMin= 2.47D-05
 ErrMax= 2.47D-05 EMaxC= 1.00D-01 BMatC= 6.04D-07 BMatP= 1.11D-06
 IDIUse=1 WtCom= 1.00D+00 WtEn= 0.00D+00
 Coeff-Com: -0.238D-01 0.410D+00 0.613D+00
 Coeff:     -0.238D-01 0.410D+00 0.613D+00
 Gap=     0.126 Goal=   None    Shift=    0.000
 Gap=     0.187 Goal=   None    Shift=    0.000
 RMSDP=1.51D-06 MaxDP=8.13D-05 DE=-2.40D-07 OVMax= 2.32D-04

 Cycle  14  Pass 1  IDiag  1:
 E= -504.836432636092     Delta-E=       -0.000000179093 Rises=F Damp=F
 DIIS: error= 1.46D-05 at cycle   4 NSaved=   4.
 NSaved= 4 IEnMin= 4 EnMin= -504.836432636092     IErMin= 4 ErrMin= 1.46D-05
 ErrMax= 1.46D-05 EMaxC= 1.00D-01 BMatC= 1.66D-07 BMatP= 6.04D-07
 IDIUse=1 WtCom= 1.00D+00 WtEn= 0.00D+00
 Coeff-Com: -0.116D+00 0.191D+00 0.413D+00 0.512D+00
 Coeff:     -0.116D+00 0.191D+00 0.413D+00 0.512D+00
 Gap=     0.126 Goal=   None    Shift=    0.000
 Gap=     0.187 Goal=   None    Shift=    0.000
 RMSDP=1.12D-06 MaxDP=5.77D-05 DE=-1.79D-07 OVMax= 3.00D-04

 Cycle  15  Pass 1  IDiag  1:
 E= -504.836432712125     Delta-E=       -0.000000076034 Rises=F Damp=F
 DIIS: error= 1.03D-05 at cycle   5 NSaved=   5.
 NSaved= 5 IEnMin= 5 EnMin= -504.836432712125     IErMin= 5 ErrMin= 1.03D-05
 ErrMax= 1.03D-05 EMaxC= 1.00D-01 BMatC= 5.23D-08 BMatP= 1.66D-07
 IDIUse=1 WtCom= 1.00D+00 WtEn= 0.00D+00
 Coeff-Com: -0.373D-01-0.962D-01-0.200D+00 0.299D+00 0.103D+01
 Coeff:     -0.373D-01-0.962D-01-0.200D+00 0.299D+00 0.103D+01
 Gap=     0.126 Goal=   None    Shift=    0.000
 Gap=     0.187 Goal=   None    Shift=    0.000
 RMSDP=1.09D-06 MaxDP=4.59D-05 DE=-7.60D-08 OVMax= 2.39D-04

 Cycle  16  Pass 1  IDiag  1:
 E= -504.836432759224     Delta-E=       -0.000000047098 Rises=F Damp=F
 DIIS: error= 5.29D-06 at cycle   6 NSaved=   6.
 NSaved= 6 IEnMin= 6 EnMin= -504.836432759224     IErMin= 6 ErrMin= 5.29D-06
 ErrMax= 5.29D-06 EMaxC= 1.00D-01 BMatC= 3.42D-08 BMatP= 5.23D-08
 IDIUse=1 WtCom= 1.00D+00 WtEn= 0.00D+00
 Coeff-Com:  0.755D-02-0.162D+00-0.358D+00 0.524D-01 0.879D+00 0.581D+00
 Coeff:      0.755D-02-0.162D+00-0.358D+00 0.524D-01 0.879D+00 0.581D+00
 Gap=     0.126 Goal=   None    Shift=    0.000
 Gap=     0.187 Goal=   None    Shift=    0.000
 RMSDP=6.53D-07 MaxDP=3.03D-05 DE=-4.71D-08 OVMax= 8.33D-05

 Cycle  17  Pass 1  IDiag  1:
 E= -504.836432776702     Delta-E=       -0.000000017478 Rises=F Damp=F
 DIIS: error= 1.86D-06 at cycle   7 NSaved=   7.
 NSaved= 7 IEnMin= 7 EnMin= -504.836432776702     IErMin= 7 ErrMin= 1.86D-06
 ErrMax= 1.86D-06 EMaxC= 1.00D-01 BMatC= 5.47D-09 BMatP= 3.42D-08
 IDIUse=1 WtCom= 1.00D+00 WtEn= 0.00D+00
 Coeff-Com:  0.167D-01-0.573D-01-0.127D+00-0.616D-01 0.205D+00 0.369D+00
 Coeff-Com:  0.655D+00
 Coeff:      0.167D-01-0.573D-01-0.127D+00-0.616D-01 0.205D+00 0.369D+00
 Coeff:      0.655D+00
 Gap=     0.126 Goal=   None    Shift=    0.000
 Gap=     0.187 Goal=   None    Shift=    0.000
 RMSDP=1.83D-07 MaxDP=8.53D-06 DE=-1.75D-08 OVMax= 2.79D-05

 Cycle  18  Pass 1  IDiag  1:
 E= -504.836432779168     Delta-E=       -0.000000002466 Rises=F Damp=F
 DIIS: error= 7.30D-07 at cycle   8 NSaved=   8.
 NSaved= 8 IEnMin= 8 EnMin= -504.836432779168     IErMin= 8 ErrMin= 7.30D-07
 ErrMax= 7.30D-07 EMaxC= 1.00D-01 BMatC= 8.00D-10 BMatP= 5.47D-09
 IDIUse=1 WtCom= 1.00D+00 WtEn= 0.00D+00
 Coeff-Com:  0.243D-03 0.238D-01 0.740D-01-0.488D-01-0.170D+00-0.208D-01
 Coeff-Com:  0.592D-02 0.114D+01
 Coeff:      0.243D-03 0.238D-01 0.740D-01-0.488D-01-0.170D+00-0.208D-01
 Coeff:      0.592D-02 0.114D+01
 Gap=     0.126 Goal=   None    Shift=    0.000
 Gap=     0.187 Goal=   None    Shift=    0.000
 RMSDP=1.08D-07 MaxDP=4.75D-06 DE=-2.47D-09 OVMax= 1.54D-05

 Cycle  19  Pass 1  IDiag  1:
 E= -504.836432779752     Delta-E=       -0.000000000585 Rises=F Damp=F
 DIIS: error= 3.30D-07 at cycle   9 NSaved=   9.
 NSaved= 9 IEnMin= 9 EnMin= -504.836432779752     IErMin= 9 ErrMin= 3.30D-07
 ErrMax= 3.30D-07 EMaxC= 1.00D-01 BMatC= 2.85D-10 BMatP= 8.00D-10
 IDIUse=1 WtCom= 1.00D+00 WtEn= 0.00D+00
 Coeff-Com: -0.392D-02 0.261D-01 0.748D-01-0.174D-01-0.144D+00-0.872D-01
 Coeff-Com: -0.185D+00 0.642D+00 0.695D+00
 Coeff:     -0.392D-02 0.261D-01 0.748D-01-0.174D-01-0.144D+00-0.872D-01
 Coeff:     -0.185D+00 0.642D+00 0.695D+00
 Gap=     0.126 Goal=   None    Shift=    0.000
 Gap=     0.187 Goal=   None    Shift=    0.000
 RMSDP=4.62D-08 MaxDP=1.73D-06 DE=-5.85D-10 OVMax= 5.30D-06

 Cycle  20  Pass 1  IDiag  1:
 E= -504.836432779874     Delta-E=       -0.000000000121 Rises=F Damp=F
 DIIS: error= 9.13D-08 at cycle  10 NSaved=  10.
 NSaved=10 IEnMin=10 EnMin= -504.836432779874     IErMin=10 ErrMin= 9.13D-08
 ErrMax= 9.13D-08 EMaxC= 1.00D-01 BMatC= 1.26D-11 BMatP= 2.85D-10
 IDIUse=1 WtCom= 1.00D+00 WtEn= 0.00D+00
 Coeff-Com: -0.107D-02 0.459D-02 0.143D-01-0.149D-02-0.228D-01-0.179D-01
 Coeff-Com: -0.568D-01 0.616D-01 0.186D+00 0.833D+00
 Coeff:     -0.107D-02 0.459D-02 0.143D-01-0.149D-02-0.228D-01-0.179D-01
 Coeff:     -0.568D-01 0.616D-01 0.186D+00 0.833D+00
 Gap=     0.126 Goal=   None    Shift=    0.000
 Gap=     0.187 Goal=   None    Shift=    0.000
 RMSDP=1.03D-08 MaxDP=4.05D-07 DE=-1.21D-10 OVMax= 1.23D-06

 Cycle  21  Pass 1  IDiag  1:
 E= -504.836432779878     Delta-E=       -0.000000000004 Rises=F Damp=F
 DIIS: error= 2.31D-08 at cycle  11 NSaved=  11.
 NSaved=11 IEnMin=11 EnMin= -504.836432779878     IErMin=11 ErrMin= 2.31D-08
 ErrMax= 2.31D-08 EMaxC= 1.00D-01 BMatC= 1.20D-12 BMatP= 1.26D-11
 IDIUse=1 WtCom= 1.00D+00 WtEn= 0.00D+00
 Coeff-Com: -0.206D-04-0.725D-03-0.158D-02 0.879D-03 0.475D-02 0.232D-02
 Coeff-Com: -0.295D-02-0.342D-01-0.112D-02 0.263D+00 0.770D+00
 Coeff:     -0.206D-04-0.725D-03-0.158D-02 0.879D-03 0.475D-02 0.232D-02
 Coeff:     -0.295D-02-0.342D-01-0.112D-02 0.263D+00 0.770D+00
 Gap=     0.126 Goal=   None    Shift=    0.000
 Gap=     0.187 Goal=   None    Shift=    0.000
 RMSDP=2.89D-09 MaxDP=8.45D-08 DE=-4.09D-12 OVMax= 4.24D-07

 SCF Done:  E(UB3LYP) =  -504.836432780     A.U. after   21 cycles
             Convg  =    0.2895D-08             -V/T =  2.0043
 <Sx>= 0.0000 <Sy>= 0.0000 <Sz>= 0.5000 <S**2>= 0.7819 S= 0.5158
 <L.S>= 0.000000000000E+00
 KE= 5.026588791096D+02 PE=-2.563294099060D+03 EE= 8.626416324709D+02
 Annihilation of the first spin contaminant:
 S**2 before annihilation     0.7819,   after     0.7502
 Leave Link  502 at Mon Mar 31 16:22:09 2014, MaxMem= 4026531840 cpu:    1375.5
 (Enter /usr/caen/gaussian-09revc/g09/l801.exe)
 Range of M.O.s used for correlation:     1   312
 NBasis=   312 NAE=    45 NBE=    44 NFC=     0 NFV=     0
 NROrb=    312 NOA=    45 NOB=    44 NVA=   267 NVB=   268
 Leave Link  801 at Mon Mar 31 16:22:11 2014, MaxMem= 4026531840 cpu:       0.8
 (Enter /usr/caen/gaussian-09revc/g09/l1101.exe)
 Using compressed storage, NAtomX=    30.
 Will process  31 centers per pass.
 Leave Link 1101 at Mon Mar 31 16:22:13 2014, MaxMem= 4026531840 cpu:      13.2
 (Enter /usr/caen/gaussian-09revc/g09/l1102.exe)
 Symmetrizing basis deriv contribution to polar:
 IMax=3 JMax=2 DiffMx= 0.00D+00
 Leave Link 1102 at Mon Mar 31 16:22:13 2014, MaxMem= 4026531840 cpu:       1.4
 (Enter /usr/caen/gaussian-09revc/g09/l1110.exe)
 Forming Gx(P) for the SCF density, NAtomX=    30.
 Integral derivatives from FoFDir/FoFCou, PRISM(SPDF).
 Do as many integral derivatives as possible in FoFDir.
 G2DrvN: MDV=    4026531496.
 G2DrvN: will do    31 centers at a time, making    1 passes doing MaxLOS=2.
 Calling FoFCou, ICntrl=  3107 FMM=F I1Cent=   0 AccDes= 0.00D+00.
 FoFCou: FMM=F IPFlag=           0 FMFlag=      100000 FMFlg1=           0
         NFxFlg=           0 DoJE=F BraDBF=F KetDBF=F FulRan=T
         Omega=  0.000000  0.000000  1.000000  0.000000  0.000000 ICntrl=    3107 IOpCl=  1
         NMat0=    1 NMatS0=    1 NMatT0=    0 NMatD0=    1 NMtDS0=    0 NMtDT0=    0
         I1Cent=           0 NGrid=           0.
 Symmetry not used in FoFCou.
 FoFDir/FoFCou used for L=0 through L=2.
 End of G2Drv Frequency-dependent properties file   721 does not exist.
 End of G2Drv Frequency-dependent properties file   722 does not exist.
 Leave Link 1110 at Mon Mar 31 16:25:13 2014, MaxMem= 4026531840 cpu:    1250.1
 (Enter /usr/caen/gaussian-09revc/g09/l1002.exe)
 Minotr:  UHF open shell wavefunction.
          IDoAtm=111111111111111111111111111111
          Direct CPHF calculation.
          Differentiating once with respect to nuclear coordinates.
          Requested convergence is 1.0D-06 RMS, and 1.0D-05 maximum.
          Secondary convergence is 1.0D-12 RMS, and 1.0D-12 maximum.
          NewPWx=T KeepS1=F KeepF1=F KeepIn=T MapXYZ=F SortEE=F KeepMc=T.
          MDV=    4026531536 using IRadAn=       2.
 Generate precomputed XC quadrature information.
          Keep R1 and R2 ints in memory in canonical form, NReq=2738891857.
 Symmetry not used in FoFDir.
 MinBra= 0 MaxBra= 2 Meth= 1.
 IRaf=       0 NMat=   1 IRICut=       1 DoRegI=T DoRafI=F ISym2E= 0 JSym2E=0.
          Solving linear equations simultaneously, MaxMat=       0.
          There are    93 degrees of freedom in the 1st order CPHF.  IDoFFX=5.
     87 vectors produced by pass  0 Test12= 2.56D-10 1.08D-07 XBig12= 2.34D-01 2.05D-01.
 AX will form    87 AO Fock derivatives at one time.
     87 vectors produced by pass  1 Test12= 2.56D-10 1.08D-07 XBig12= 5.91D-02 5.55D-02.
     87 vectors produced by pass  2 Test12= 2.56D-10 1.08D-07 XBig12= 1.56D-04 2.14D-03.
     87 vectors produced by pass  3 Test12= 2.56D-10 1.08D-07 XBig12= 1.17D-06 1.11D-04.
     80 vectors produced by pass  4 Test12= 2.56D-10 1.08D-07 XBig12= 5.50D-09 7.82D-06.
     14 vectors produced by pass  5 Test12= 2.56D-10 1.08D-07 XBig12= 2.22D-11 4.22D-07.
 Inverted reduced A of dimension   442 with in-core refinement.
 End of Minotr Frequency-dependent properties file   721 does not exist.
 End of Minotr Frequency-dependent properties file   722 does not exist.
 Leave Link 1002 at Mon Mar 31 16:31:30 2014, MaxMem= 4026531840 cpu:    2636.9
 (Enter /usr/caen/gaussian-09revc/g09/l601.exe)
 Copying SCF densities to generalized density rwf, IOpCl= 1 IROHF=0.

 **********************************************************************

            Population analysis using the SCF density.

 **********************************************************************

 Orbital symmetries:
 Alpha Orbitals:
       Occupied  (A) (A) (A) (A) (A) (A) (A) (A) (A) (A) (A) (A)
                 (A) (A) (A) (A) (A) (A) (A) (A) (A) (A) (A) (A)
                 (A) (A) (A) (A) (A) (A) (A) (A) (A) (A) (A) (A)
                 (A) (A) (A) (A) (A) (A) (A) (A) (A)
       Virtual   (A) (A) (A) (A) (A) (A) (A) (A) (A) (A) (A) (A)
                 (A) (A) (A) (A) (A) (A) (A) (A) (A) (A) (A) (A)
                 (A) (A) (A) (A) (A) (A) (A) (A) (A) (A) (A) (A)
                 (A) (A) (A) (A) (A) (A) (A) (A) (A) (A) (A) (A)
                 (A) (A) (A) (A) (A) (A) (A) (A) (A) (A) (A) (A)
                 (A) (A) (A) (A) (A) (A) (A) (A) (A) (A) (A) (A)
                 (A) (A) (A) (A) (A) (A) (A) (A) (A) (A) (A) (A)
                 (A) (A) (A) (A) (A) (A) (A) (A) (A) (A) (A) (A)
                 (A) (A) (A) (A) (A) (A) (A) (A) (A) (A) (A) (A)
                 (A) (A) (A) (A) (A) (A) (A) (A) (A) (A) (A) (A)
                 (A) (A) (A) (A) (A) (A) (A) (A) (A) (A) (A) (A)
                 (A) (A) (A) (A) (A) (A) (A) (A) (A) (A) (A) (A)
                 (A) (A) (A) (A) (A) (A) (A) (A) (A) (A) (A) (A)
                 (A) (A) (A) (A) (A) (A) (A) (A) (A) (A) (A) (A)
                 (A) (A) (A) (A) (A) (A) (A) (A) (A) (A) (A) (A)
                 (A) (A) (A) (A) (A) (A) (A) (A) (A) (A) (A) (A)
                 (A) (A) (A) (A) (A) (A) (A) (A) (A) (A) (A) (A)
                 (A) (A) (A) (A) (A) (A) (A) (A) (A) (A) (A) (A)
                 (A) (A) (A) (A) (A) (A) (A) (A) (A) (A) (A) (A)
                 (A) (A) (A) (A) (A) (A) (A) (A) (A) (A) (A) (A)
                 (A) (A) (A) (A) (A) (A) (A) (A) (A) (A) (A) (A)
                 (A) (A) (A) (A) (A) (A) (A) (A) (A) (A) (A) (A)
                 (A) (A) (A)
 Beta  Orbitals:
       Occupied  (A) (A) (A) (A) (A) (A) (A) (A) (A) (A) (A) (A)
                 (A) (A) (A) (A) (A) (A) (A) (A) (A) (A) (A) (A)
                 (A) (A) (A) (A) (A) (A) (A) (A) (A) (A) (A) (A)
                 (A) (A) (A) (A) (A) (A) (A) (A)
       Virtual   (A) (A) (A) (A) (A) (A) (A) (A) (A) (A) (A) (A)
                 (A) (A) (A) (A) (A) (A) (A) (A) (A) (A) (A) (A)
                 (A) (A) (A) (A) (A) (A) (A) (A) (A) (A) (A) (A)
                 (A) (A) (A) (A) (A) (A) (A) (A) (A) (A) (A) (A)
                 (A) (A) (A) (A) (A) (A) (A) (A) (A) (A) (A) (A)
                 (A) (A) (A) (A) (A) (A) (A) (A) (A) (A) (A) (A)
                 (A) (A) (A) (A) (A) (A) (A) (A) (A) (A) (A) (A)
                 (A) (A) (A) (A) (A) (A) (A) (A) (A) (A) (A) (A)
                 (A) (A) (A) (A) (A) (A) (A) (A) (A) (A) (A) (A)
                 (A) (A) (A) (A) (A) (A) (A) (A) (A) (A) (A) (A)
                 (A) (A) (A) (A) (A) (A) (A) (A) (A) (A) (A) (A)
                 (A) (A) (A) (A) (A) (A) (A) (A) (A) (A) (A) (A)
                 (A) (A) (A) (A) (A) (A) (A) (A) (A) (A) (A) (A)
                 (A) (A) (A) (A) (A) (A) (A) (A) (A) (A) (A) (A)
                 (A) (A) (A) (A) (A) (A) (A) (A) (A) (A) (A) (A)
                 (A) (A) (A) (A) (A) (A) (A) (A) (A) (A) (A) (A)
                 (A) (A) (A) (A) (A) (A) (A) (A) (A) (A) (A) (A)
                 (A) (A) (A) (A) (A) (A) (A) (A) (A) (A) (A) (A)
                 (A) (A) (A) (A) (A) (A) (A) (A) (A) (A) (A) (A)
                 (A) (A) (A) (A) (A) (A) (A) (A) (A) (A) (A) (A)
                 (A) (A) (A) (A) (A) (A) (A) (A) (A) (A) (A) (A)
                 (A) (A) (A) (A) (A) (A) (A) (A) (A) (A) (A) (A)
                 (A) (A) (A) (A)
 The electronic state is 2-A.
 Alpha  occ. eigenvalues --  -19.15452 -19.13227 -10.22691 -10.18870 -10.17673
 Alpha  occ. eigenvalues --  -10.17607 -10.17581 -10.16249 -10.15329 -10.15194
 Alpha  occ. eigenvalues --  -10.15051  -1.03604  -0.92243  -0.82138  -0.78949
 Alpha  occ. eigenvalues --   -0.75380  -0.68766  -0.68407  -0.67604  -0.61042
 Alpha  occ. eigenvalues --   -0.56029  -0.54381  -0.48859  -0.47728  -0.45770
 Alpha  occ. eigenvalues --   -0.45467  -0.44371  -0.42801  -0.41226  -0.41019
 Alpha  occ. eigenvalues --   -0.40656  -0.39205  -0.38889  -0.38557  -0.37265
 Alpha  occ. eigenvalues --   -0.36157  -0.35333  -0.34567  -0.34137  -0.33130
 Alpha  occ. eigenvalues --   -0.32964  -0.31941  -0.29727  -0.25667  -0.17522
 Alpha virt. eigenvalues --   -0.04965   0.03560   0.05374   0.05533   0.06159
 Alpha virt. eigenvalues --    0.07924   0.08535   0.09412   0.09891   0.11184
 Alpha virt. eigenvalues --    0.11657   0.11827   0.12536   0.13116   0.13534
 Alpha virt. eigenvalues --    0.14900   0.15282   0.16240   0.16659   0.17267
 Alpha virt. eigenvalues --    0.18723   0.19453   0.20871   0.22174   0.22624
 Alpha virt. eigenvalues --    0.23439   0.24231   0.24775   0.26595   0.28664
 Alpha virt. eigenvalues --    0.29802   0.31277   0.31817   0.33307   0.34585
 Alpha virt. eigenvalues --    0.37333   0.38029   0.38860   0.40194   0.41430
 Alpha virt. eigenvalues --    0.42695   0.44649   0.46785   0.47290   0.47801
 Alpha virt. eigenvalues --    0.48885   0.49976   0.51531   0.53150   0.55024
 Alpha virt. eigenvalues --    0.55357   0.57028   0.57340   0.57660   0.58123
 Alpha virt. eigenvalues --    0.58535   0.59025   0.59588   0.59833   0.60022
 Alpha virt. eigenvalues --    0.60857   0.61648   0.61717   0.62231   0.62575
 Alpha virt. eigenvalues --    0.63349   0.64583   0.64686   0.65295   0.66167
 Alpha virt. eigenvalues --    0.67426   0.67884   0.70373   0.71211   0.74663
 Alpha virt. eigenvalues --    0.77930   0.81460   0.84074   0.86422   0.89645
 Alpha virt. eigenvalues --    0.91369   0.92672   0.94435   0.96291   0.98120
 Alpha virt. eigenvalues --    0.98931   1.01984   1.04288   1.05528   1.06906
 Alpha virt. eigenvalues --    1.11563   1.12796   1.14548   1.16741   1.18631
 Alpha virt. eigenvalues --    1.24393   1.26080   1.27930   1.30575   1.32186
 Alpha virt. eigenvalues --    1.34175   1.34504   1.36298   1.38451   1.40302
 Alpha virt. eigenvalues --    1.41662   1.42940   1.43251   1.44814   1.46095
 Alpha virt. eigenvalues --    1.46914   1.47465   1.47909   1.49577   1.50047
 Alpha virt. eigenvalues --    1.51226   1.51422   1.51870   1.52472   1.54452
 Alpha virt. eigenvalues --    1.54757   1.55405   1.56358   1.57120   1.57981
 Alpha virt. eigenvalues --    1.58618   1.60605   1.60991   1.63713   1.65160
 Alpha virt. eigenvalues --    1.66104   1.67196   1.67639   1.69355   1.70474
 Alpha virt. eigenvalues --    1.72960   1.73541   1.76075   1.76542   1.77440
 Alpha virt. eigenvalues --    1.77490   1.79030   1.79651   1.80433   1.83826
 Alpha virt. eigenvalues --    1.86774   1.88475   1.89832   1.90467   1.94047
 Alpha virt. eigenvalues --    1.94426   1.95526   1.98147   1.99833   2.01333
 Alpha virt. eigenvalues --    2.02804   2.04875   2.08212   2.09915   2.10615
 Alpha virt. eigenvalues --    2.11869   2.12317   2.14125   2.16400   2.20454
 Alpha virt. eigenvalues --    2.22194   2.24814   2.25199   2.26976   2.27928
 Alpha virt. eigenvalues --    2.31664   2.33985   2.34989   2.36502   2.37967
 Alpha virt. eigenvalues --    2.39805   2.41084   2.42995   2.43442   2.45868
 Alpha virt. eigenvalues --    2.47021   2.47802   2.48904   2.49895   2.50902
 Alpha virt. eigenvalues --    2.51088   2.51381   2.52453   2.53065   2.53643
 Alpha virt. eigenvalues --    2.54555   2.55066   2.56223   2.57208   2.60272
 Alpha virt. eigenvalues --    2.62002   2.63489   2.64142   2.65461   2.66999
 Alpha virt. eigenvalues --    2.67216   2.68779   2.71213   2.73578   2.75571
 Alpha virt. eigenvalues --    2.77238   2.79702   2.82018   2.83918   2.85930
 Alpha virt. eigenvalues --    2.88147   2.89768   2.89857   2.92654   2.95436
 Alpha virt. eigenvalues --    2.95984   3.00709   3.01677   3.05116   3.08826
 Alpha virt. eigenvalues --    3.10451   3.12854   3.15162   3.16511   3.20946
 Alpha virt. eigenvalues --    3.23685   3.23991   3.35952   3.48590   3.50517
 Alpha virt. eigenvalues --    3.55934   3.76622   3.77352   3.77982   3.78253
 Alpha virt. eigenvalues --    3.79134   3.81192   3.81843   3.82344   3.82724
 Alpha virt. eigenvalues --    3.84020   3.85543   3.97388   4.06346   4.10173
 Alpha virt. eigenvalues --    4.19216   4.26340   4.27418   4.30194   4.37944
 Alpha virt. eigenvalues --    4.85378   4.90368   5.03713   5.32717   5.43740
 Alpha virt. eigenvalues --    5.46266  23.70289  23.79178  23.83815  23.87241
 Alpha virt. eigenvalues --   23.90235  23.93589  23.93736  23.95502  23.96811
 Alpha virt. eigenvalues --   49.80623  49.89091
  Beta  occ. eigenvalues --  -19.15433 -19.12341 -10.22679 -10.17742 -10.17708
  Beta  occ. eigenvalues --  -10.17659 -10.17528 -10.16147 -10.15336 -10.15178
  Beta  occ. eigenvalues --  -10.15052  -1.02887  -0.91092  -0.81289  -0.78803
  Beta  occ. eigenvalues --   -0.75137  -0.68765  -0.68269  -0.66774  -0.60621
  Beta  occ. eigenvalues --   -0.55268  -0.53971  -0.48447  -0.47425  -0.45349
  Beta  occ. eigenvalues --   -0.45046  -0.44157  -0.42394  -0.40927  -0.40614
  Beta  occ. eigenvalues --   -0.40498  -0.38722  -0.38606  -0.38156  -0.37005
  Beta  occ. eigenvalues --   -0.36101  -0.35329  -0.34301  -0.33861  -0.32968
  Beta  occ. eigenvalues --   -0.32591  -0.31424  -0.28971  -0.25183
  Beta virt. eigenvalues --   -0.06514  -0.00883   0.03634   0.05573   0.05648
  Beta virt. eigenvalues --    0.06348   0.08045   0.08658   0.09509   0.09986
  Beta virt. eigenvalues --    0.11267   0.11735   0.11965   0.12618   0.13328
  Beta virt. eigenvalues --    0.13642   0.14931   0.15370   0.16275   0.16777
  Beta virt. eigenvalues --    0.17402   0.18772   0.19518   0.20926   0.22251
  Beta virt. eigenvalues --    0.23044   0.23616   0.24497   0.25126   0.26797
  Beta virt. eigenvalues --    0.28719   0.29983   0.31424   0.32071   0.33565
  Beta virt. eigenvalues --    0.34750   0.37495   0.38205   0.39213   0.40322
  Beta virt. eigenvalues --    0.41775   0.42962   0.44768   0.47131   0.47564
  Beta virt. eigenvalues --    0.48214   0.49379   0.50441   0.51772   0.53733
  Beta virt. eigenvalues --    0.55242   0.55728   0.57113   0.57416   0.57761
  Beta virt. eigenvalues --    0.58354   0.58751   0.59285   0.59732   0.60023
  Beta virt. eigenvalues --    0.60159   0.60958   0.61775   0.61835   0.62439
  Beta virt. eigenvalues --    0.62639   0.63547   0.64729   0.65060   0.65485
  Beta virt. eigenvalues --    0.66454   0.67603   0.68360   0.70524   0.71566
  Beta virt. eigenvalues --    0.74884   0.78099   0.81809   0.84760   0.87057
  Beta virt. eigenvalues --    0.90178   0.91967   0.93437   0.94752   0.96522
  Beta virt. eigenvalues --    0.98379   0.99294   1.02396   1.04484   1.05732
  Beta virt. eigenvalues --    1.07000   1.11818   1.13245   1.14813   1.16980
  Beta virt. eigenvalues --    1.18764   1.24936   1.26764   1.28403   1.30833
  Beta virt. eigenvalues --    1.32353   1.34380   1.34699   1.36411   1.38599
  Beta virt. eigenvalues --    1.40500   1.42203   1.43262   1.43436   1.44914
  Beta virt. eigenvalues --    1.46181   1.46942   1.47615   1.48027   1.49688
  Beta virt. eigenvalues --    1.50202   1.51404   1.51552   1.52202   1.52734
  Beta virt. eigenvalues --    1.54799   1.54853   1.55605   1.56537   1.57268
  Beta virt. eigenvalues --    1.58147   1.59160   1.60766   1.61251   1.63845
  Beta virt. eigenvalues --    1.65418   1.66214   1.67479   1.68108   1.69767
  Beta virt. eigenvalues --    1.70925   1.73055   1.73646   1.76373   1.76764
  Beta virt. eigenvalues --    1.77655   1.77871   1.79209   1.79879   1.80832
  Beta virt. eigenvalues --    1.84149   1.87112   1.88586   1.89973   1.90858
  Beta virt. eigenvalues --    1.94118   1.94750   1.95657   1.98475   2.00157
  Beta virt. eigenvalues --    2.01586   2.03093   2.05643   2.08299   2.10391
  Beta virt. eigenvalues --    2.10718   2.12205   2.12721   2.14256   2.16562
  Beta virt. eigenvalues --    2.20586   2.22657   2.25011   2.25263   2.27215
  Beta virt. eigenvalues --    2.28157   2.31773   2.34073   2.35109   2.36603
  Beta virt. eigenvalues --    2.38203   2.39999   2.41213   2.43188   2.43521
  Beta virt. eigenvalues --    2.46111   2.47143   2.47890   2.48952   2.49975
  Beta virt. eigenvalues --    2.51008   2.51254   2.51438   2.52545   2.53205
  Beta virt. eigenvalues --    2.53768   2.54675   2.55184   2.56349   2.57399
  Beta virt. eigenvalues --    2.60422   2.62098   2.63611   2.64436   2.65719
  Beta virt. eigenvalues --    2.67263   2.67315   2.68948   2.71434   2.73805
  Beta virt. eigenvalues --    2.75811   2.77727   2.80031   2.82353   2.84141
  Beta virt. eigenvalues --    2.86443   2.88688   2.90139   2.90302   2.93214
  Beta virt. eigenvalues --    2.95792   2.96689   3.01813   3.02187   3.05864
  Beta virt. eigenvalues --    3.09063   3.11284   3.13162   3.15407   3.17229
  Beta virt. eigenvalues --    3.21274   3.24125   3.24769   3.36232   3.49247
  Beta virt. eigenvalues --    3.51437   3.56030   3.76733   3.77413   3.78096
  Beta virt. eigenvalues --    3.78371   3.79204   3.81788   3.81932   3.82389
  Beta virt. eigenvalues --    3.82759   3.84075   3.85602   3.98064   4.06597
  Beta virt. eigenvalues --    4.10672   4.19382   4.26624   4.27495   4.30272
  Beta virt. eigenvalues --    4.38645   4.87176   4.92589   5.03819   5.31876
  Beta virt. eigenvalues --    5.43995   5.46927  23.70316  23.79526  23.84370
  Beta virt. eigenvalues --   23.87337  23.90316  23.93741  23.93876  23.95524
  Beta virt. eigenvalues --   23.96803  49.81523  49.89150
          Condensed to atoms (all electrons):
              1          2          3          4          5          6
     1  C    4.915939   0.384636   0.406411   0.334562  -0.078979   0.009921
     2  H    0.384636   0.610795  -0.027694  -0.030623  -0.001768  -0.000445
     3  H    0.406411  -0.027694   0.533226  -0.027598  -0.007780   0.000089
     4  C    0.334562  -0.030623  -0.027598   5.105251   0.348636  -0.033211
     5  C   -0.078979  -0.001768  -0.007780   0.348636   4.903312   0.391510
     6  H    0.009921  -0.000445   0.000089  -0.033211   0.391510   0.584741
     7  H   -0.008164   0.000110   0.002976  -0.033271   0.405979  -0.026478
     8  C    0.002424  -0.000081  -0.000603  -0.028848   0.001391   0.000640
     9  H    0.000235  -0.000012   0.000015  -0.001417  -0.000273   0.000126
    10  C   -0.000025   0.000010   0.000040   0.000618   0.000014  -0.000037
    11  H   -0.000366   0.000055   0.000107  -0.000545   0.000008  -0.000011
    12  C    0.000001  -0.000004   0.000006  -0.000077   0.000001   0.000011
    13  H   -0.000003   0.000000   0.000000  -0.000023   0.000001   0.000001
    14  H   -0.000001   0.000000  -0.000001   0.000000   0.000001   0.000000
    15  H    0.000270   0.000000   0.000032   0.000760  -0.000155  -0.000017
    16  C   -0.000018   0.000001  -0.000003  -0.000044   0.000004   0.000000
    17  H    0.000001   0.000000   0.000001   0.000001   0.000000   0.000000
    18  H   -0.000001   0.000000   0.000000   0.000001   0.000000   0.000000
    19  H   -0.000004   0.000000   0.000000   0.000001   0.000000   0.000000
    20  H   -0.001564  -0.000191  -0.000120  -0.035212   0.387655  -0.026382
    21  H    0.396857  -0.029569  -0.024113  -0.028608   0.008216  -0.000605
    22  O   -0.056962   0.004928  -0.005081   0.188216  -0.046845   0.004287
    23  C   -0.066224  -0.005163   0.007121   0.357146  -0.063289  -0.008352
    24  H    0.009338  -0.000217  -0.000410  -0.040381  -0.010849   0.005077
    25  H   -0.003543   0.001740   0.000023  -0.031771  -0.004453   0.000295
    26  C   -0.017005   0.001330  -0.000220  -0.055445   0.009317  -0.000768
    27  H   -0.000561   0.000030  -0.000001   0.007689  -0.000102  -0.000049
    28  H    0.001844   0.000171  -0.000238  -0.004618  -0.000114  -0.000008
    29  O   -0.010970   0.000198   0.012218  -0.047298   0.000880  -0.000084
    30  H    0.000714  -0.000077  -0.001073  -0.001406   0.002432   0.000324
              7          8          9         10         11         12
     1  C   -0.008164   0.002424   0.000235  -0.000025  -0.000366   0.000001
     2  H    0.000110  -0.000081  -0.000012   0.000010   0.000055  -0.000004
     3  H    0.002976  -0.000603   0.000015   0.000040   0.000107   0.000006
     4  C   -0.033271  -0.028848  -0.001417   0.000618  -0.000545  -0.000077
     5  C    0.405979   0.001391  -0.000273   0.000014   0.000008   0.000001
     6  H   -0.026478   0.000640   0.000126  -0.000037  -0.000011   0.000011
     7  H    0.544763  -0.000203   0.000017   0.000001   0.000007   0.000013
     8  C   -0.000203   5.338984   0.396790   0.346380  -0.052469  -0.057423
     9  H    0.000017   0.396790   0.565417  -0.037057   0.007719  -0.006242
    10  C    0.000001   0.346380  -0.037057   4.972222   0.415108   0.369716
    11  H    0.000007  -0.052469   0.007719   0.415108   0.597823  -0.036454
    12  C    0.000013  -0.057423  -0.006242   0.369716  -0.036454   4.891376
    13  H    0.000001  -0.008206   0.004646  -0.038255   0.009280   0.400284
    14  H    0.000000   0.008919  -0.000122  -0.034205  -0.006683   0.401597
    15  H   -0.000102  -0.006799  -0.000662  -0.029306  -0.006972   0.387986
    16  C    0.000000  -0.077238  -0.000875   0.355165  -0.047855  -0.070338
    17  H    0.000000   0.010190  -0.000296  -0.032562  -0.005745  -0.004543
    18  H    0.000000  -0.002969   0.003155  -0.037127   0.009479  -0.004771
    19  H    0.000000  -0.007069  -0.000261  -0.031176  -0.005306   0.007881
    20  H   -0.027786   0.000153   0.000005  -0.000007  -0.000005   0.000002
    21  H    0.000198  -0.000331  -0.000062   0.000191   0.000571  -0.000070
    22  O   -0.004622   0.010921   0.000283   0.004011   0.002961  -0.002438
    23  C    0.007747  -0.072205  -0.001550   0.004125  -0.000212  -0.000157
    24  H    0.000170  -0.006556   0.003679   0.000159  -0.000033   0.000029
    25  H   -0.000521   0.011580  -0.000453  -0.000389  -0.000143   0.000015
    26  C   -0.000403   0.338955  -0.039098  -0.054453  -0.003971   0.006224
    27  H    0.000020  -0.034123  -0.004538   0.001513  -0.000199  -0.000338
    28  H    0.000026  -0.048191   0.007695  -0.003626   0.004403   0.000296
    29  O    0.017700   0.008141  -0.000302  -0.000202  -0.000405  -0.003523
    30  H   -0.000735  -0.002294   0.000175   0.000119   0.000091   0.000666
             13         14         15         16         17         18
     1  C   -0.000003  -0.000001   0.000270  -0.000018   0.000001  -0.000001
     2  H    0.000000   0.000000   0.000000   0.000001   0.000000   0.000000
     3  H    0.000000  -0.000001   0.000032  -0.000003   0.000001   0.000000
     4  C   -0.000023   0.000000   0.000760  -0.000044   0.000001   0.000001
     5  C    0.000001   0.000001  -0.000155   0.000004   0.000000   0.000000
     6  H    0.000001   0.000000  -0.000017   0.000000   0.000000   0.000000
     7  H    0.000001   0.000000  -0.000102   0.000000   0.000000   0.000000
     8  C   -0.008206   0.008919  -0.006799  -0.077238   0.010190  -0.002969
     9  H    0.004646  -0.000122  -0.000662  -0.000875  -0.000296   0.003155
    10  C   -0.038255  -0.034205  -0.029306   0.355165  -0.032562  -0.037127
    11  H    0.009280  -0.006683  -0.006972  -0.047855  -0.005745   0.009479
    12  C    0.400284   0.401597   0.387986  -0.070338  -0.004543  -0.004771
    13  H    0.603324  -0.032720  -0.029219  -0.006017  -0.000582   0.005292
    14  H   -0.032720   0.591382  -0.025906  -0.004351   0.003569  -0.000768
[...]
 6828,-0.00001313,0.00001056,-0.00006084,0.00003210,-0.00001825,-0.0000
 1066,-0.00001932,0.00001849,0.00000459,0.00000972,-0.00001103,0.000009
 65,0.00001561,-0.00000025,0.00000543,-0.00001447,-0.00000418,0.0000106
 0,0.00002823,-0.00002365,0.00000310,0.00000109,0.00000021,0.00001044,-
 0.00001079,0.00001705,0.00000865,0.00000678,-0.00007640,0.00002582,0.0
 0020397,0.00019259,-0.00000722,0.00014350,-0.00077802,0.00210160,-0.00
 022286,0.00289319,-0.04787103,-0.00169680,0.00326504,0.05170491,-0.000
 74780,-0.00297630,0.00086372,0.00009739,0.00013297,0.00022480,-0.00017
 390,-0.00001805,-0.00085345,-0.00079003,-0.00008489,-0.01356791,0.0012
 5283,0.00147932,0.00069615,-0.00043006,-0.00032919,0.00107461,0.000250
 82,0.00003824,0.00048692,-0.00072821,0.00079852,0.00054156,0.00057399,
 -0.00059976,0.00031686,0.00006743,-0.00024004,0.00024823,-0.00013116,0
 .00010404,0.00010565,0.00003295,-0.00001967,-0.00004796,0.00002889,-0.
 00001144,0.00002093,0.00000228,-0.00002209,0.00000878,-0.00000907,0.00
 000386,-0.00001584,-0.00004101,0.00004382,0.00000357,-0.00000136,-0.00
 001083,-0.00000059,0.00002651,-0.00001556,0.00002314,-0.00004279,-0.00
 003183,0.00000313,-0.00022323,-0.00008902,-0.00011638,0.00006240,0.000
 16734,0.00022449,-0.00029272,0.00019969,0.00098782,0.01474983,-0.00413
 219,-0.30032055,-0.01792787,0.00464793,0.32700424,0.00038645,-0.000164
 51,-0.00002839,0.00016611,-0.00027693,-0.00000495,0.00007580,-0.000051
 42,0.00014448,0.00515358,-0.00832861,0.00428414,0.00034868,0.00012977,
 0.00023577,-0.00005039,-0.00013108,-0.00004482,0.00004181,0.00019328,-
 0.00007722,-0.00378409,0.00011177,0.00352898,0.00009592,-0.00010312,-0
 .00013116,-0.00018040,0.00093480,-0.00115943,0.00004504,-0.00002253,0.
 00006659,-0.00031653,0.00004070,0.00033405,0.00000111,-0.00001689,-0.0
 0002587,-0.00003905,0.00016676,-0.00002471,0.00002467,-0.00002491,-0.0
 0000281,0.00010810,0.00002099,-0.00001873,-0.00005151,-0.00001090,0.00
 003242,-0.00001995,-0.00000160,-0.00000925,-0.00000114,-0.00005281,0.0
 0000213,-0.00012657,-0.00029618,-0.00002283,-0.00010002,0.00012248,-0.
 00002518,-0.00398161,-0.00487857,-0.00126576,-0.12078110,0.10331435,-0
 .04975060,0.00113887,-0.00204724,0.00038945,0.13318702,0.00119697,0.00
 107983,0.00087934,-0.00072951,0.00023975,-0.00074181,-0.00022382,0.000
 33859,0.00026432,0.01555799,-0.01955974,0.01061361,0.00078256,0.000160
 05,-0.00005387,-0.00002347,0.00005731,-0.00020149,-0.00029330,0.000220
 06,-0.00021594,0.00155025,0.00005268,0.00094075,-0.00009357,-0.0001113
 6,0.00001719,0.00044328,0.00120540,0.00046201,-0.00001092,-0.00007129,
 -0.00013962,-0.00009641,0.00009451,-0.00001749,-0.00000676,0.00001162,
 0.00001277,0.00004447,-0.00001649,-0.00001131,-0.00002004,0.00000014,0
 .00002421,0.00021592,-0.00043686,-0.00037902,0.00024326,0.00006416,-0.
 00005837,-0.00004713,-0.00000626,0.00002351,-0.00003581,0.00001865,0.0
 0000241,-0.00084013,0.00020110,0.00018217,-0.00005323,-0.00008695,-0.0
 0018345,-0.00583880,-0.00861975,-0.00295281,0.10355403,-0.19389203,0.0
 6942735,-0.00084061,0.00071470,-0.00001511,-0.11354778,0.21060339,0.00
 022195,-0.00041975,0.00019183,-0.00022206,-0.00034032,-0.00005016,0.00
 014759,0.00013971,0.00013686,0.00543747,-0.00851291,0.00236431,-0.0000
 9549,0.00044414,-0.00042006,-0.00004658,0.00004777,0.00017781,0.000190
 23,-0.00005717,0.00000229,0.00183450,0.00057653,0.00043000,0.00042691,
 -0.00021040,0.00025203,0.00015019,-0.00033948,0.00037427,-0.00004256,0
 .00000188,-0.00003964,0.00006601,-0.00001476,-0.00010618,0.00000999,0.
 00001320,-0.00000009,0.00000378,-0.00004509,0.00001016,-0.00000387,-0.
 00001093,-0.00000711,-0.00003291,-0.00004119,-0.00003024,0.00002475,0.
 00000461,-0.00002074,-0.00000922,-0.00000227,-0.00000645,-0.00000129,0
 .00001228,0.00000479,0.00027190,0.00005013,0.00023604,0.00013333,-0.00
 002959,-0.00005901,-0.00154209,-0.00344648,-0.00056905,-0.05021970,0.0
 7067550,-0.08087278,-0.01750851,0.02464823,-0.01099710,0.05503651,-0.0
 7587797,0.08491676,0.00035598,0.00037738,-0.00025772,-0.00017722,-0.00
 007935,0.00005782,0.00011356,0.00008958,0.00040034,-0.01956377,-0.0083
 6026,0.00373258,0.00036590,-0.00195410,-0.00202153,0.00011455,-0.00000
 390,0.00020998,-0.00046314,0.00014381,0.00066495,-0.09519443,0.0657791
 9,-0.01711892,0.00155832,0.00093154,0.00169112,-0.00484605,0.02092238,
 -0.00785485,0.00058425,-0.00071613,-0.00027640,-0.00260300,-0.00043433
 ,0.00308854,-0.00010193,0.00002262,-0.00014291,0.00017427,0.00111820,-
 0.00055533,0.00012442,0.00008151,0.00002441,0.00132269,-0.00043335,-0.
 00028160,0.00035468,0.00007000,-0.00005767,-0.00019866,0.00011899,-0.0
 0008550,0.00003818,-0.00006438,0.00000771,0.00011525,0.00030348,-0.000
 12603,-0.00060911,-0.00025757,-0.00025736,-0.00066607,-0.00035344,0.00
 047153,-0.16027750,-0.00572371,0.02353426,-0.00601500,-0.00124513,0.00
 204580,-0.01572681,-0.00379462,0.00630088,0.42140499,0.00038119,0.0002
 1199,0.00011884,-0.00034398,0.00001197,-0.00006448,-0.00008841,0.00005
 330,0.00013651,-0.02300793,-0.00968038,0.00772973,-0.00091717,-0.00376
 528,-0.00148712,0.00007559,0.00000231,0.00003131,-0.00113234,-0.000277
 29,0.00056023,0.07072552,-0.15374473,0.04096838,0.00078973,-0.00166785
 ,-0.00113562,0.00744164,-0.00579158,0.00195191,-0.00080424,0.00047262,
 0.00195942,0.00115699,-0.00026323,0.00009745,0.00008787,-0.00018560,0.
 00004074,0.00004637,0.00000003,0.00015963,-0.00005891,0.00007172,-0.00
 002216,0.00058130,-0.00077241,-0.00024394,-0.00004664,0.00010500,0.000
 22914,0.00010894,0.00008523,0.00005743,-0.00006593,-0.00002544,0.00009
 992,-0.00019741,0.00024037,-0.00007392,-0.00051535,-0.00003330,-0.0000
 6185,-0.00954584,-0.00405671,0.00000548,-0.01015131,-0.06634433,0.0053
 5118,-0.00005781,-0.00053295,0.00033811,0.02303255,0.00413046,-0.00751
 623,0.01394523,0.50396737,-0.00108136,-0.00025807,0.00090470,0.0001501
 5,0.00006300,-0.00013629,0.00033498,0.00000571,-0.00025223,-0.00847949
 ,0.00097211,0.00540207,-0.00047073,-0.00120512,-0.00080404,-0.00004816
 ,-0.00038232,0.00041410,-0.00023806,-0.00038658,0.00086054,-0.02226491
 ,0.04585993,-0.10649764,-0.01332987,0.02636170,-0.00716993,0.00465374,
 -0.01228993,0.00854089,0.00061280,-0.00155776,0.00052767,0.00230600,-0
 .00110249,-0.00250903,0.00023840,0.00001910,0.00047958,0.00044314,-0.0
 0120686,0.00049264,-0.00010995,0.00016024,-0.00002950,0.00015127,-0.00
 077402,-0.00065958,0.00037642,0.00001308,-0.00003080,0.00004388,0.0002
 2101,-0.00004133,0.00024354,0.00019439,0.00037745,-0.00003555,-0.00000
 167,-0.00016680,-0.00032945,-0.00064415,-0.00085723,0.00232733,0.00462
 193,0.00170456,0.02652535,0.00298026,-0.08927846,0.03366060,0.00420235
 ,-0.00905418,-0.01209902,-0.00224345,0.00291524,0.00295271,0.00871731,
 0.58181153,0.00016361,0.00001885,0.00042579,-0.00003474,-0.00002249,-0
 .00000115,-0.00000821,-0.00000434,-0.00012846,-0.00506337,0.00091616,0
 .00241365,-0.00027417,-0.00150915,-0.00054934,-0.00001781,-0.00002123,
 0.00010069,-0.00048995,-0.00016073,0.00032307,0.00524949,0.01531323,0.
 00802755,0.00037284,-0.00082118,-0.00005833,-0.00078337,-0.00003894,-0
 .00055683,0.00010192,0.00000939,-0.00026609,-0.00021400,0.00015017,-0.
 00017695,-0.00000875,0.00003066,-0.00002257,-0.00008849,0.00003697,0.0
 0003619,0.00000376,-0.00005760,0.00001573,-0.00029971,0.00031889,0.000
 13280,-0.00005819,-0.00020225,-0.00007527,-0.00007583,0.00003995,-0.00
 005520,-0.00017381,-0.00001327,0.00020152,0.00004756,0.00001878,-0.000
 05684,0.00006857,0.00005473,-0.00001447,-0.00192879,-0.00066364,-0.000
 48260,-0.01466558,-0.02841014,-0.01288775,0.00158999,0.00013407,0.0002
 8715,0.00089245,0.00051610,-0.00073246,-0.06983001,-0.06964994,-0.0356
 2467,0.08373984,-0.00006697,0.00018746,-0.00000267,-0.00004980,0.00003
 667,-0.00007794,0.00005360,-0.00003077,0.00007011,0.00135608,0.0000048
 0,0.00088699,-0.00020906,-0.00001758,-0.00014425,0.00003052,-0.0000380
 9,0.00000203,0.00008194,-0.00002656,0.00002880,-0.00329674,-0.02543838
 ,-0.00739238,0.00095678,0.00137213,0.00058551,-0.00062200,-0.00114421,
 0.00148695,-0.00017855,0.00007073,0.00009314,0.00054898,-0.00027549,-0
 .00020012,0.00001575,0.00000033,0.00006135,0.00017224,-0.00022259,0.00
 001876,-0.00004500,0.00017999,-0.00002155,-0.00000968,-0.00058973,-0.0
 0004094,0.00019116,0.00025088,-0.00006561,0.00005917,-0.00004980,0.000
 05143,0.00017392,0.00029945,-0.00027985,-0.00007826,0.00004361,0.00001
 403,0.00004300,-0.00003819,-0.00001425,0.00201163,0.00353038,0.0012422
 7,-0.00195819,-0.00171360,-0.00185618,-0.00000287,0.00011511,0.0003922
 8,-0.00044634,0.00040101,0.00016856,-0.07769608,-0.21093300,-0.0848021
 1,0.07972137,0.23529742,0.00033282,-0.00010247,-0.00025658,-0.00010800
 ,-0.00004809,0.00010046,-0.00020533,-0.00000774,0.00008284,0.00011226,
 0.00129183,-0.00066209,0.00010734,-0.00001642,0.00013981,-0.00002027,0
 .00003452,0.00001739,-0.00001194,0.00006702,-0.00002136,0.00519452,0.0
 0738837,0.00541396,0.00005529,-0.00072705,0.00039083,-0.00016064,-0.00
 035809,-0.00034536,-0.00006378,0.00012360,0.00029869,0.00023836,0.0000
 9901,0.00017348,-0.00000526,-0.00006385,0.00001033,-0.00003295,-0.0000
 4218,-0.00000853,0.00002866,0.00000118,-0.00002176,-0.00021695,-0.0001
 9969,0.00032701,-0.00002235,0.00008242,-0.00007920,0.00001055,0.000053
 74,-0.00003754,0.00010024,0.00012265,-0.00011982,0.00006198,-0.0000309
 8,-0.00001750,-0.00014398,0.00006510,0.00049332,-0.00059387,-0.0026112
 5,-0.00014021,0.00540769,0.00671593,0.00243401,-0.00032168,0.00045881,
 0.00076941,-0.00049499,-0.00039293,-0.00001650,-0.03750359,-0.07884474
 ,-0.08779531,0.03857018,0.09084121,0.09136781,-0.00059423,-0.00022375,
 0.00002351,-0.00001130,-0.00003491,0.00001142,0.00024813,0.00006392,-0
 .00020625,0.00077504,0.00033886,0.00087565,-0.00008198,-0.00005980,-0.
 00019016,0.00009535,0.00015292,-0.00024455,-0.00011833,-0.00008266,-0.
 00015510,0.00111431,0.00175368,-0.01848184,-0.00067024,0.00343972,-0.0
 0054423,0.00013757,-0.00081909,-0.00097628,0.00026482,0.00010407,0.000
 38077,0.00006601,0.00007724,-0.00007309,0.00004472,-0.00005295,0.00016
 496,0.00000571,-0.00004922,0.00006846,0.00001067,-0.00005596,0.0000022
 7,-0.00006511,0.00028819,-0.00011118,-0.00000014,-0.00010377,0.0000765
 8,0.00013847,-0.00007265,0.00006780,-0.00022014,-0.00019092,0.00001771
 ,0.00007327,0.00001171,0.00005464,-0.00013402,-0.00059898,-0.00096264,
 -0.00072094,-0.00115157,-0.00046965,-0.00269216,-0.00136055,0.03337932
 ,-0.00623753,-0.00108205,0.00153592,0.00135991,0.00041454,-0.00051032,
 -0.05003350,-0.00186113,0.02175997,0.00071379,0.00109167,-0.01167416,0
 .05609504,-0.00067546,-0.00002791,0.00014696,0.00016007,-0.00002431,-0
 .00005155,0.00019599,-0.00001054,-0.00001175,0.00023949,0.00014345,0.0
 0118917,-0.00012579,-0.00000516,-0.00011676,0.00003517,-0.00000149,-0.
 00006571,0.00000843,-0.00001991,-0.00000353,-0.00200573,-0.00425018,0.
 02861932,0.00286175,-0.00330354,0.00146902,-0.00073497,0.00114313,0.00
 118993,0.00003923,-0.00030149,-0.00084144,-0.00016794,-0.00010893,-0.0
 0005557,-0.00008290,0.00011907,-0.00022664,-0.00000050,0.00006157,-0.0
 0007634,-0.00000602,0.00000392,0.00003779,0.00010768,0.00018837,-0.000
 11489,0.00000559,-0.00003210,0.00001377,-0.00013572,-0.00005267,-0.000
 04830,0.00005327,-0.00000146,0.00001433,0.00000561,0.00000788,0.000002
 24,-0.00036817,-0.00003850,-0.00073027,0.00107018,0.00122071,0.0002048
 7,-0.00021068,-0.00067618,0.00175644,-0.00009192,0.00079918,0.00035575
 ,0.00011732,0.00018993,-0.00042749,-0.00171375,-0.05020202,0.01784057,
 0.00271518,0.00234854,-0.02680630,-0.00076143,0.05392044,-0.00008674,-
 0.00020299,-0.00053935,-0.00014987,-0.00003448,0.00006080,-0.00021354,
 -0.00001977,0.00021833,-0.00049578,-0.00035857,-0.00085226,0.00009312,
 0.00018128,0.00005463,-0.00001999,-0.00002477,0.00014257,0.00004565,0.
 00006109,-0.00000494,-0.00000358,0.00234335,-0.01262764,-0.00080543,0.
 00156949,0.00067665,0.00126667,-0.00137711,0.00046600,-0.00044779,0.00
 051705,0.00096963,0.00017062,0.00002078,0.00047348,0.00011932,-0.00026
 485,0.00002831,-0.00002724,0.00005225,0.00003864,0.00000479,-0.0000363
 3,-0.00003563,-0.00015473,0.00029489,0.00012493,-0.00007657,-0.0000955
 4,0.00003065,0.00013253,-0.00008062,0.00006915,-0.00026678,-0.00019291
 ,-0.00003650,-0.00000842,-0.00003196,-0.00001736,-0.00112512,-0.000520
 55,0.00033156,-0.00077579,-0.00155097,0.00003722,0.00192206,0.00024063
 ,-0.00765257,0.00144269,-0.00006223,0.00117505,0.00038875,-0.00028304,
 0.00057685,0.02176176,0.02115795,-0.29753220,0.00070586,0.00014653,-0.
 01324127,-0.02402635,-0.02289263,0.32662940,-0.00041138,0.00030414,-0.
 00034869,-0.00015225,0.00054156,-0.00031823,0.00036320,0.00090625,0.00
 046135,0.02089551,0.00676805,0.00759284,-0.00418795,0.00189427,0.00078
 344,0.00014023,-0.00026739,0.00001611,0.00235161,0.00283525,0.00133303
 ,-0.02332377,-0.01417228,-0.00742278,0.00032325,0.00027131,-0.00010969
 ,-0.00086463,-0.00331565,-0.00297308,-0.00029872,0.00069282,0.00138428
 ,-0.00007284,-0.00030260,0.00106996,-0.00020023,-0.00033494,-0.0002050
 2,-0.00043273,0.00059946,-0.00005579,-0.00044634,0.00063191,-0.0002988
 8,-0.00049498,0.00250830,0.00221655,-0.00156856,-0.00028549,0.00046522
 ,0.00040344,0.00002867,-0.00017855,0.00024511,-0.00014305,-0.00007595,
 0.00055309,0.00225237,0.00042732,0.00028132,0.00012626,-0.00046362,-0.
 00733847,0.02208577,-0.00870451,-0.00701400,0.00449001,-0.00063825,-0.
 00020738,-0.00014343,0.00008895,0.00213301,0.00192504,0.00076913,-0.00
 021920,0.00017564,-0.00250698,0.00106079,-0.00179684,0.00129600,0.0004
 5998,-0.00053541,0.00059190,0.02831995,-0.00182128,0.00183080,0.001156
 15,-0.00095655,0.00106289,-0.00186130,0.00151402,-0.00165486,0.0022906
 4,0.02496636,-0.03292011,-0.00194629,0.00046660,0.00167722,0.00150669,
 0.00017768,-0.00078441,-0.00046126,0.00319705,-0.00186576,-0.00104193,
 -0.05390672,-0.03199559,-0.01538297,0.00087894,0.00102510,-0.00063316,
 -0.00112624,-0.00837522,-0.00622321,-0.00085021,0.00152448,0.00300845,
 -0.00242351,-0.00236724,0.00241569,0.00045350,-0.00012696,-0.00007718,
 -0.00005850,0.00206590,-0.00024852,-0.00109179,0.00154435,-0.00014315,
 -0.00171778,0.00671320,0.00495932,-0.00376685,-0.00079415,0.00108186,0
 .00091049,-0.00003250,-0.00039370,0.00097368,0.00021123,-0.00029230,-0
 .00168444,0.00056806,0.00009291,0.00022995,-0.00055362,-0.00055148,0.0
 5755335,0.07034389,0.01438847,-0.00621458,0.00796364,0.00344517,-0.000
 22563,-0.00036335,-0.00002037,0.00232395,0.00310055,0.00073859,-0.0011
 9614,-0.00113992,-0.00539092,0.00156860,-0.00371479,0.00290622,0.00084
 315,-0.00109988,0.00148483,-0.03723328,0.07627865,-0.00063461,0.001960
 50,-0.00105351,0.00008769,0.00057434,0.00017177,0.00030295,0.00150612,
 0.00034947,0.01534247,0.00090632,0.00160140,0.00055386,-0.00071720,0.0
 0048221,0.00010921,0.00014503,0.00016041,0.00015357,-0.00077972,-0.000
 80130,-0.01420446,-0.00820570,-0.00212350,0.00042977,0.00039597,0.0001
 4737,-0.00044654,-0.00211235,-0.00138187,-0.00026841,0.00031222,0.0007
 4944,-0.00048213,-0.00047693,0.00085696,0.00017230,0.00000097,0.000018
 62,-0.00009099,0.00041007,-0.00005187,-0.00021245,0.00050991,-0.000658
 07,-0.00051556,0.00151507,0.00117172,-0.00088011,-0.00018745,0.0002327
 7,0.00022058,0.00000889,-0.00008831,0.00020803,0.00003213,-0.00005991,
 -0.00079589,-0.00033640,0.00018421,0.00011931,0.00017956,-0.00013034,0
 .00456713,0.03469434,-0.02358858,-0.00330265,0.00314843,0.00016349,0.0
 0006335,0.00040364,0.00024740,0.00070681,0.00117001,0.00074699,-0.0005
 0589,-0.00030851,-0.00124439,0.00037233,-0.00099618,0.00060546,0.00019
 160,-0.00034018,0.00036859,0.05890567,-0.18847977,0.47069921,-0.000690
 32,0.00016678,-0.00036731,0.00004412,0.00027770,-0.00011563,0.00026247
 ,0.00012802,0.00042455,-0.00053805,0.00002672,-0.00133583,0.00049164,0
 .00056791,0.00019725,0.00004039,0.00028188,0.00034150,-0.00058078,0.00
 026325,-0.00069803,-0.00018836,-0.00038387,0.00006263,0.00000161,-0.00
 003895,-0.00009483,0.00007533,-0.00050952,0.00002561,-0.00002835,0.000
 09118,-0.00002129,-0.00054941,-0.00035496,-0.00024128,-0.00001396,0.00
 002984,0.00000414,0.00031575,0.00025839,-0.00007996,-0.00034734,-0.000
 03132,0.00069193,-0.00014060,0.00040629,0.00007168,-0.00013325,-0.0000
 5090,0.00003859,0.00001214,-0.00003021,-0.00000567,0.00010580,0.000122
 41,-0.00002571,-0.00018604,-0.00048062,0.00016413,0.00002080,0.0000983
 2,0.00011266,-0.00047372,-0.01009031,0.00675779,-0.00006327,0.00002174
 ,0.00023520,0.00006952,0.00002030,0.00004663,0.00000065,0.00005150,-0.
 00005807,-0.00010162,-0.00010424,-0.00016206,0.00001015,-0.00005141,0.
 00006387,-0.00002318,0.00000145,0.00003799,-0.01029707,0.01821614,-0.0
 6016694,0.01290494,-0.00044679,0.00010084,-0.00044557,-0.00012238,0.00
 002078,-0.00016308,0.00008535,0.00003008,-0.00012621,-0.00237576,-0.00
 423768,0.00059042,-0.00014933,0.00032135,0.00040750,0.00020449,-0.0002
 7850,-0.00039096,0.00059880,-0.00013071,0.00018760,-0.00035792,-0.0002
 9536,-0.00019096,-0.00007669,-0.00006797,-0.00012998,0.00000487,0.0001
 6464,-0.00000352,-0.00000727,-0.00004575,0.00000387,0.00006444,-0.0001
 3794,-0.00002991,-0.00003456,0.00001165,0.00001355,0.00011240,0.000008
 60,-0.00003534,-0.00017616,0.00028305,-0.00005950,0.00001900,-0.000145
 86,-0.00004899,0.00008168,0.00001689,-0.00002454,0.00000158,0.00001097
 ,0.00001822,-0.00002362,-0.00001114,0.00000492,-0.00008181,0.00028928,
 -0.00014457,0.00005099,-0.00003687,-0.00004905,0.00146568,-0.01693519,
 0.01723115,0.00057584,-0.00061255,0.00022368,-0.00001112,-0.00015664,-
 0.00008552,-0.00010731,-0.00008317,-0.00022910,0.00012232,0.00006364,0
 .00001276,0.00001180,0.00009428,0.00000019,-0.00001828,0.00001007,-0.0
 0004080,0.00949327,-0.08812162,0.15506686,-0.00890351,0.10987084,-0.00
 030948,-0.00045806,-0.00039499,0.00013951,0.00029143,0.00018350,0.0004
 1266,0.00032539,0.00036672,-0.00247625,-0.00124696,-0.00074585,0.00030
 690,0.00010124,0.00044830,0.00009041,-0.00026261,-0.00022931,0.0001642
 1,0.00003465,-0.00002755,-0.00088284,-0.00043805,-0.00022243,-0.000059
 12,-0.00004445,-0.00005317,-0.00024804,-0.00031390,-0.00040162,-0.0000
 0497,0.00006455,0.00009929,0.00013375,-0.00000021,0.00022521,-0.000132
 56,-0.00007370,-0.00008239,-0.00009538,0.00005937,-0.00003872,0.000245
 19,0.00005065,-0.00001004,-0.00002287,0.00025044,0.00025337,-0.0001693
 6,-0.00003045,0.00003951,0.00002469,-0.00000137,-0.00002939,0.00002084
 ,-0.00002684,-0.00001014,0.00001181,0.00006896,-0.00017029,0.00002818,
 -0.00002880,-0.00008944,0.00114991,-0.00960617,0.00841166,0.00044391,-
 0.00037207,0.00058856,0.00000592,-0.00002162,-0.00005250,0.00003563,-0
 .00025197,-0.00014113,0.00010091,0.00004789,-0.00037204,0.00007647,-0.
 00019591,0.00013819,0.00001520,-0.00003081,0.00006726,-0.05310171,0.18
 367250,-0.44777586,0.05409649,-0.17156311,0.44002526\\-0.00000032,-0.0
 0000507,0.00000185,-0.00000073,-0.00000461,-0.00000048,-0.00000340,-0.
 00000557,0.00000526,-0.00000067,-0.00000013,0.00000227,-0.00000024,0.0
 0000292,0.00000253,0.00000157,0.00000749,0.00000370,0.00000127,0.00000
 233,0.00000718,-0.00000003,0.00000202,-0.00000208,0.00000109,0.0000046
 8,-0.00000205,-0.00000038,-0.00000177,-0.00000116,-0.00000150,-0.00000
 580,-0.00000035,-0.00000075,-0.00000054,0.00000515,0.00000112,0.000003
 72,0.00000363,-0.00000167,-0.00000264,0.00000475,-0.00000124,0.0000005
 8,0.00000525,-0.00000008,-0.00000141,-0.00000529,-0.00000080,-0.000004
 49,-0.00000385,0.00000103,0.00000162,-0.00000518,0.00000012,-0.0000031
 8,-0.00000874,0.00000127,0.00000420,0.00000169,-0.00000171,-0.00000812
 ,-0.00000043,0.00000184,0.00000380,0.00000467,0.00000047,0.00000261,-0
 .00000477,0.00000256,0.00000559,-0.00000390,0.00000054,0.00000112,-0.0
 0000569,0.00000111,0.00000061,-0.00000719,0.00000119,0.00000169,-0.000
 00948,-0.00000016,-0.00000365,-0.00000613,-0.00000099,-0.00000223,0.00
 000729,-0.00000051,0.00000424,0.00001153\\\@
 Job cpu time:  0 days  7 hours 53 minutes  4.5 seconds.
 File lengths (MBytes):  RWF=  77191 Int=      0 D2E=      0 Chk=     26 Scr=      1
 Normal termination of Gaussian 09 at Tue Apr  1 07:05:14 2014.
