 Entering Gaussian System, Link 0=g09
 Initial command:
 /usr/caen/gaussian-09revc/g09/l1.exe /scratch/avioli_flux/hetanjin/scratch/Gau-115300.inp -scrdir=/scratch/avioli_flux/hetanjin/scratch/
 Entering Link 1 = /usr/caen/gaussian-09revc/g09/l1.exe PID=    115301.
  
 Copyright (c) 1988,1990,1992,1993,1995,1998,2003,2009,2011,
            Gaussian, Inc.  All Rights Reserved.
  
 This is part of the Gaussian(R) 09 program.  It is based on
 the Gaussian(R) 03 system (copyright 2003, Gaussian, Inc.),
 the Gaussian(R) 98 system (copyright 1998, Gaussian, Inc.),
 the Gaussian(R) 94 system (copyright 1995, Gaussian, Inc.),
 the Gaussian 92(TM) system (copyright 1992, Gaussian, Inc.),
 the Gaussian 90(TM) system (copyright 1990, Gaussian, Inc.),
 the Gaussian 88(TM) system (copyright 1988, Gaussian, Inc.),
 the Gaussian 86(TM) system (copyright 1986, Carnegie Mellon
 University), and the Gaussian 82(TM) system (copyright 1983,
 Carnegie Mellon University). Gaussian is a federally registered
 trademark of Gaussian, Inc.
  
 This software contains proprietary and confidential information,
 including trade secrets, belonging to Gaussian, Inc.
  
 This software is provided under written license and may be
 used, copied, transmitted, or stored only in accord with that
 written license.
  
 The following legend is applicable only to US Government
 contracts under FAR:
  
                    RESTRICTED RIGHTS LEGEND
  
 Use, reproduction and disclosure by the US Government is
 subject to restrictions as set forth in subparagraphs (a)
 and (c) of the Commercial Computer Software - Restricted
 Rights clause in FAR 52.227-19.
  
 Gaussian, Inc.
 340 Quinnipiac St., Bldg. 40, Wallingford CT 06492
  
  
 ---------------------------------------------------------------
 Warning -- This program may not be used in any manner that
 competes with the business of Gaussian, Inc. or will provide
 assistance to any competitor of Gaussian, Inc.  The licensee
 of this program is prohibited from giving any competitor of
 Gaussian, Inc. access to this program.  By using this program,
 the user acknowledges that Gaussian, Inc. is engaged in the
 business of creating and licensing software in the field of
 computational chemistry and represents and warrants to the
 licensee that it is not a competitor of Gaussian, Inc. and that
 it will not use this program in any manner prohibited above.
 ---------------------------------------------------------------
  

 Cite this work as:
 Gaussian 09, Revision C.01,
 M. J. Frisch, G. W. Trucks, H. B. Schlegel, G. E. Scuseria, 
 M. A. Robb, J. R. Cheeseman, G. Scalmani, V. Barone, B. Mennucci, 
 G. A. Petersson, H. Nakatsuji, M. Caricato, X. Li, H. P. Hratchian, 
 A. F. Izmaylov, J. Bloino, G. Zheng, J. L. Sonnenberg, M. Hada, 
 M. Ehara, K. Toyota, R. Fukuda, J. Hasegawa, M. Ishida, T. Nakajima, 
 Y. Honda, O. Kitao, H. Nakai, T. Vreven, J. A. Montgomery, Jr., 
 J. E. Peralta, F. Ogliaro, M. Bearpark, J. J. Heyd, E. Brothers, 
 K. N. Kudin, V. N. Staroverov, T. Keith, R. Kobayashi, J. Normand, 
 K. Raghavachari, A. Rendell, J. C. Burant, S. S. Iyengar, J. Tomasi, 
 M. Cossi, N. Rega, J. M. Millam, M. Klene, J. E. Knox, J. B. Cross, 
 V. Bakken, C. Adamo, J. Jaramillo, R. Gomperts, R. E. Stratmann, 
 O. Yazyev, A. J. Austin, R. Cammi, C. Pomelli, J. W. Ochterski, 
 R. L. Martin, K. Morokuma, V. G. Zakrzewski, G. A. Voth, 
 P. Salvador, J. J. Dannenberg, S. Dapprich, A. D. Daniels, 
 O. Farkas, J. B. Foresman, J. V. Ortiz, J. Cioslowski, 
 and D. J. Fox, Gaussian, Inc., Wallingford CT, 2010.
 
 ******************************************
 Gaussian 09:  EM64L-G09RevC.01 23-Sep-2011
                 1-May-2014 
 ******************************************
 %mem=30GB
 %nprocshared=8
 Will use up to    8 processors via shared memory.
 %chk=TS_2d_1.chk
 -------------------------------
 #p cbs-qb3 opt=(TS,calcfc) freq
 -------------------------------
 1/5=1,10=4,14=-1,18=20,26=3,38=1/1,3;
 2/9=110,12=2,17=6,18=5,40=1/2;
 3/5=4,6=6,7=700,11=2,16=1,25=1,30=1,71=2,74=-5/1,2,3;
 4//1;
 5/5=2,38=5/2;
 8/6=4,10=90,11=11/1;
 11/6=1,8=1,9=11,15=111,16=1/1,2,10;
 10/6=1,7=6,13=1/2;
 6/7=2,8=2,9=2,10=2,28=1/1;
 7/10=1,18=20,25=1/1,2,3,16;
 1/5=1,10=4,14=-1,18=20/3(2);
 2/9=110/2;
 99//99;
 2/9=110/2;
 3/5=4,6=6,7=700,11=2,16=1,25=1,30=1,71=1,74=-5/1,2,3;
 4/5=5,16=3/1;
 5/5=2,38=5/2;
 7//1,2,3,16;
 1/5=1,14=-1,18=20/3(-5);
 2/9=110/2;
 6/7=2,8=2,9=2,10=2,19=2,28=1/1;
 99/9=1/99;
 Leave Link    1 at Thu May  1 03:03:27 2014, MaxMem= 4026531840 cpu:       2.9
 (Enter /usr/caen/gaussian-09revc/g09/l101.exe)
 ---------------------------------------------------
 TS_2d_1 using b3lyp/6-311++g(d,p) to calculate freq
 ---------------------------------------------------
 Charge =  0 Multiplicity = 2
 Symbolic Z-Matrix:
 C                     2.16199  -1.83577  -0.63259 
 H                     3.06273  -2.32004  -0.24604 
 H                     2.25331  -1.75298  -1.71632 
 H                     1.29387  -2.4547   -0.38631 
 C                     0.50565   0.20672  -0.7192 
 H                     0.57656   1.21584  -0.3208 
 H                     0.7976    0.16565  -1.76699 
 C                    -0.67596  -0.50437  -0.3995 
 H                    -0.96064  -1.34402  -1.02959 
 C                    -1.54044  -0.2313    0.78596 
 H                    -1.08891   0.5541    1.3992 
 H                    -1.60132  -1.1333    1.41295 
 C                    -3.0042    0.18506   0.44586 
 H                    -3.49526   0.33792   1.41492 
 C                    -3.7721   -0.92015  -0.29075 
 H                    -3.73777  -1.86642   0.25787 
 H                    -4.82337  -0.6437   -0.41043 
 H                    -3.36601  -1.09526  -1.29149 
 C                     1.84947  -0.4757    1.52566 
 H                     2.76695  -0.87861   1.96557 
 H                     1.71852   0.54195   1.89346 
 H                     1.00962  -1.09596   1.84508 
 C                    -3.0559    1.5127   -0.31992 
 H                    -4.09085   1.82908  -0.47834 
 H                    -2.54285   2.309     0.22687 
 H                    -2.57973   1.42385  -1.30111 
 C                     2.00598  -0.45102   0.00656 
 O                     2.99007   0.32616  -0.4231 
 O                     2.56886   2.04885  -0.03651 
 H                     3.48921   2.29051  -0.20421 
 
 NAtoms=     30 NQM=        0 NQMF=       0 NMMI=     30 NMMIF=      0
                NMic=       0 NMicF=      0.
                    Isotopes and Nuclear Properties:
 (Nuclear quadrupole moments (NQMom) in fm**2, nuclear magnetic moments (NMagM)
  in nuclear magnetons)

  Atom         1           2           3           4           5           6           7           8           9          10
 IAtWgt=          12           1           1           1          12           1           1          12           1          12
 AtmWgt=  12.0000000   1.0078250   1.0078250   1.0078250  12.0000000   1.0078250   1.0078250  12.0000000   1.0078250  12.0000000
 NucSpn=           0           1           1           1           0           1           1           0           1           0
 AtZEff=   0.0000000   0.0000000   0.0000000   0.0000000   0.0000000   0.0000000   0.0000000   0.0000000   0.0000000   0.0000000
 NQMom=    0.0000000   0.0000000   0.0000000   0.0000000   0.0000000   0.0000000   0.0000000   0.0000000   0.0000000   0.0000000
 NMagM=    0.0000000   2.7928460   2.7928460   2.7928460   0.0000000   2.7928460   2.7928460   0.0000000   2.7928460   0.0000000

  Atom        11          12          13          14          15          16          17          18          19          20
 IAtWgt=           1           1          12           1          12           1           1           1          12           1
 AtmWgt=   1.0078250   1.0078250  12.0000000   1.0078250  12.0000000   1.0078250   1.0078250   1.0078250  12.0000000   1.0078250
 NucSpn=           1           1           0           1           0           1           1           1           0           1
 AtZEff=   0.0000000   0.0000000   0.0000000   0.0000000   0.0000000   0.0000000   0.0000000   0.0000000   0.0000000   0.0000000
 NQMom=    0.0000000   0.0000000   0.0000000   0.0000000   0.0000000   0.0000000   0.0000000   0.0000000   0.0000000   0.0000000
 NMagM=    2.7928460   2.7928460   0.0000000   2.7928460   0.0000000   2.7928460   2.7928460   2.7928460   0.0000000   2.7928460

  Atom        21          22          23          24          25          26          27          28          29          30
 IAtWgt=           1           1          12           1           1           1          12          16          16           1
 AtmWgt=   1.0078250   1.0078250  12.0000000   1.0078250   1.0078250   1.0078250  12.0000000  15.9949146  15.9949146   1.0078250
 NucSpn=           1           1           0           1           1           1           0           0           0           1
 AtZEff=   0.0000000   0.0000000   0.0000000   0.0000000   0.0000000   0.0000000   0.0000000   0.0000000   0.0000000   0.0000000
 NQMom=    0.0000000   0.0000000   0.0000000   0.0000000   0.0000000   0.0000000   0.0000000   0.0000000   0.0000000   0.0000000
 NMagM=    2.7928460   2.7928460   0.0000000   2.7928460   2.7928460   2.7928460   0.0000000   0.0000000   0.0000000   2.7928460
 Leave Link  101 at Thu May  1 03:03:28 2014, MaxMem= 4026531840 cpu:       5.4
 (Enter /usr/caen/gaussian-09revc/g09/l103.exe)

 GradGradGradGradGradGradGradGradGradGradGradGradGradGradGradGradGradGrad
 Berny optimization.
 Initialization pass.
                           ----------------------------
                           !    Initial Parameters    !
                           ! (Angstroms and Degrees)  !
 --------------------------                            --------------------------
 ! Name  Definition              Value          Derivative Info.                !
 --------------------------------------------------------------------------------
 ! R1    R(1,2)                  1.0933         calculate D2E/DX2 analytically  !
 ! R2    R(1,3)                  1.0907         calculate D2E/DX2 analytically  !
 ! R3    R(1,4)                  1.0942         calculate D2E/DX2 analytically  !
 ! R4    R(1,27)                 1.5331         calculate D2E/DX2 analytically  !
 ! R5    R(5,6)                  1.0872         calculate D2E/DX2 analytically  !
 ! R6    R(5,7)                  1.0885         calculate D2E/DX2 analytically  !
 ! R7    R(5,8)                  1.4157         calculate D2E/DX2 analytically  !
 ! R8    R(5,27)                 1.7917         calculate D2E/DX2 analytically  !
 ! R9    R(6,29)                 2.1781         calculate D2E/DX2 analytically  !
 ! R10   R(8,9)                  1.0877         calculate D2E/DX2 analytically  !
 ! R11   R(8,10)                 1.4924         calculate D2E/DX2 analytically  !
 ! R12   R(10,11)                1.094          calculate D2E/DX2 analytically  !
 ! R13   R(10,12)                1.1002         calculate D2E/DX2 analytically  !
 ! R14   R(10,13)                1.5594         calculate D2E/DX2 analytically  !
 ! R15   R(13,14)                1.0971         calculate D2E/DX2 analytically  !
 ! R16   R(13,15)                1.5342         calculate D2E/DX2 analytically  !
 ! R17   R(13,23)                1.5335         calculate D2E/DX2 analytically  !
 ! R18   R(15,16)                1.0943         calculate D2E/DX2 analytically  !
 ! R19   R(15,17)                1.0936         calculate D2E/DX2 analytically  !
 ! R20   R(15,18)                1.0941         calculate D2E/DX2 analytically  !
 ! R21   R(19,20)                1.0944         calculate D2E/DX2 analytically  !
 ! R22   R(19,21)                1.09           calculate D2E/DX2 analytically  !
 ! R23   R(19,22)                1.0918         calculate D2E/DX2 analytically  !
 ! R24   R(19,27)                1.5273         calculate D2E/DX2 analytically  !
 ! R25   R(23,24)                1.0938         calculate D2E/DX2 analytically  !
 ! R26   R(23,25)                1.0938         calculate D2E/DX2 analytically  !
 ! R27   R(23,26)                1.0942         calculate D2E/DX2 analytically  !
 ! R28   R(27,28)                1.3255         calculate D2E/DX2 analytically  !
 ! R29   R(28,29)                1.8151         calculate D2E/DX2 analytically  !
 ! R30   R(28,30)                2.0386         calculate D2E/DX2 analytically  !
 ! R31   R(29,30)                0.9662         calculate D2E/DX2 analytically  !
 ! A1    A(2,1,3)              108.4183         calculate D2E/DX2 analytically  !
 ! A2    A(2,1,4)              108.8756         calculate D2E/DX2 analytically  !
 ! A3    A(2,1,27)             109.6649         calculate D2E/DX2 analytically  !
 ! A4    A(3,1,4)              109.45           calculate D2E/DX2 analytically  !
 ! A5    A(3,1,27)             110.744          calculate D2E/DX2 analytically  !
 ! A6    A(4,1,27)             109.6531         calculate D2E/DX2 analytically  !
 ! A7    A(6,5,7)              111.7323         calculate D2E/DX2 analytically  !
 ! A8    A(6,5,8)              115.9709         calculate D2E/DX2 analytically  !
 ! A9    A(6,5,27)              97.9134         calculate D2E/DX2 analytically  !
 ! A10   A(7,5,8)              114.9802         calculate D2E/DX2 analytically  !
 ! A11   A(7,5,27)              98.7121         calculate D2E/DX2 analytically  !
 ! A12   A(8,5,27)             115.0274         calculate D2E/DX2 analytically  !
 ! A13   A(5,6,29)             117.5466         calculate D2E/DX2 analytically  !
 ! A14   A(5,8,9)              118.3856         calculate D2E/DX2 analytically  !
 ! A15   A(5,8,10)             124.8175         calculate D2E/DX2 analytically  !
 ! A16   A(9,8,10)             116.7307         calculate D2E/DX2 analytically  !
 ! A17   A(8,10,11)            109.7281         calculate D2E/DX2 analytically  !
 ! A18   A(8,10,12)            109.5557         calculate D2E/DX2 analytically  !
 ! A19   A(8,10,13)            114.7939         calculate D2E/DX2 analytically  !
 ! A20   A(11,10,12)           106.9763         calculate D2E/DX2 analytically  !
 ! A21   A(11,10,13)           108.5421         calculate D2E/DX2 analytically  !
 ! A22   A(12,10,13)           106.9336         calculate D2E/DX2 analytically  !
 ! A23   A(10,13,14)           105.3503         calculate D2E/DX2 analytically  !
 ! A24   A(10,13,15)           112.4705         calculate D2E/DX2 analytically  !
 ! A25   A(10,13,23)           111.8214         calculate D2E/DX2 analytically  !
 ! A26   A(14,13,15)           107.4833         calculate D2E/DX2 analytically  !
 ! A27   A(14,13,23)           107.7805         calculate D2E/DX2 analytically  !
 ! A28   A(15,13,23)           111.5331         calculate D2E/DX2 analytically  !
 ! A29   A(13,15,16)           111.5007         calculate D2E/DX2 analytically  !
 ! A30   A(13,15,17)           110.5853         calculate D2E/DX2 analytically  !
 ! A31   A(13,15,18)           111.6341         calculate D2E/DX2 analytically  !
 ! A32   A(16,15,17)           107.6746         calculate D2E/DX2 analytically  !
 ! A33   A(16,15,18)           107.9689         calculate D2E/DX2 analytically  !
 ! A34   A(17,15,18)           107.2871         calculate D2E/DX2 analytically  !
 ! A35   A(20,19,21)           107.9883         calculate D2E/DX2 analytically  !
 ! A36   A(20,19,22)           108.5496         calculate D2E/DX2 analytically  !
 ! A37   A(20,19,27)           108.6538         calculate D2E/DX2 analytically  !
 ! A38   A(21,19,22)           109.8322         calculate D2E/DX2 analytically  !
 ! A39   A(21,19,27)           109.4416         calculate D2E/DX2 analytically  !
 ! A40   A(22,19,27)           112.2701         calculate D2E/DX2 analytically  !
 ! A41   A(13,23,24)           110.7717         calculate D2E/DX2 analytically  !
 ! A42   A(13,23,25)           111.3981         calculate D2E/DX2 analytically  !
 ! A43   A(13,23,26)           111.2719         calculate D2E/DX2 analytically  !
 ! A44   A(24,23,25)           107.7984         calculate D2E/DX2 analytically  !
 ! A45   A(24,23,26)           107.7805         calculate D2E/DX2 analytically  !
 ! A46   A(25,23,26)           107.6543         calculate D2E/DX2 analytically  !
 ! A47   A(1,27,5)             104.3544         calculate D2E/DX2 analytically  !
 ! A48   A(1,27,19)            114.2356         calculate D2E/DX2 analytically  !
 ! A49   A(1,27,28)            108.596          calculate D2E/DX2 analytically  !
 ! A50   A(5,27,19)            108.8443         calculate D2E/DX2 analytically  !
 ! A51   A(5,27,28)            105.9697         calculate D2E/DX2 analytically  !
 ! A52   A(19,27,28)           114.0755         calculate D2E/DX2 analytically  !
 ! A53   A(27,28,29)           108.3697         calculate D2E/DX2 analytically  !
 ! A54   A(27,28,30)           135.3935         calculate D2E/DX2 analytically  !
 ! A55   A(6,29,28)             79.7165         calculate D2E/DX2 analytically  !
 ! A56   A(6,29,30)            160.7851         calculate D2E/DX2 analytically  !
 ! D1    D(2,1,27,5)           179.9736         calculate D2E/DX2 analytically  !
 ! D2    D(2,1,27,19)          -61.2867         calculate D2E/DX2 analytically  !
 ! D3    D(2,1,27,28)           67.2837         calculate D2E/DX2 analytically  !
 ! D4    D(3,1,27,5)            60.3613         calculate D2E/DX2 analytically  !
 ! D5    D(3,1,27,19)          179.101          calculate D2E/DX2 analytically  !
 ! D6    D(3,1,27,28)          -52.3286         calculate D2E/DX2 analytically  !
 ! D7    D(4,1,27,5)           -60.5262         calculate D2E/DX2 analytically  !
 ! D8    D(4,1,27,19)           58.2135         calculate D2E/DX2 analytically  !
 ! D9    D(4,1,27,28)         -173.216          calculate D2E/DX2 analytically  !
 ! D10   D(7,5,6,29)           -70.3839         calculate D2E/DX2 analytically  !
 ! D11   D(8,5,6,29)           155.2018         calculate D2E/DX2 analytically  !
 ! D12   D(27,5,6,29)           32.3271         calculate D2E/DX2 analytically  !
 ! D13   D(6,5,8,9)            158.8516         calculate D2E/DX2 analytically  !
 ! D14   D(6,5,8,10)           -24.2091         calculate D2E/DX2 analytically  !
 ! D15   D(7,5,8,9)             25.9062         calculate D2E/DX2 analytically  !
 ! D16   D(7,5,8,10)          -157.1544         calculate D2E/DX2 analytically  !
 ! D17   D(27,5,8,9)           -87.793          calculate D2E/DX2 analytically  !
 ! D18   D(27,5,8,10)           89.1464         calculate D2E/DX2 analytically  !
 ! D19   D(6,5,27,1)          -172.0532         calculate D2E/DX2 analytically  !
 ! D20   D(6,5,27,19)           65.5992         calculate D2E/DX2 analytically  !
 ! D21   D(6,5,27,28)          -57.495          calculate D2E/DX2 analytically  !
 ! D22   D(7,5,27,1)           -58.5066         calculate D2E/DX2 analytically  !
 ! D23   D(7,5,27,19)          179.1457         calculate D2E/DX2 analytically  !
 ! D24   D(7,5,27,28)           56.0516         calculate D2E/DX2 analytically  !
 ! D25   D(8,5,27,1)            64.3849         calculate D2E/DX2 analytically  !
 ! D26   D(8,5,27,19)          -57.9627         calculate D2E/DX2 analytically  !
 ! D27   D(8,5,27,28)          178.9432         calculate D2E/DX2 analytically  !
 ! D28   D(5,6,29,28)           -9.1641         calculate D2E/DX2 analytically  !
 ! D29   D(5,6,29,30)           45.0833         calculate D2E/DX2 analytically  !
 ! D30   D(5,8,10,11)           -3.5889         calculate D2E/DX2 analytically  !
 ! D31   D(5,8,10,12)         -120.7537         calculate D2E/DX2 analytically  !
 ! D32   D(5,8,10,13)          118.944          calculate D2E/DX2 analytically  !
 ! D33   D(9,8,10,11)          173.3963         calculate D2E/DX2 analytically  !
 ! D34   D(9,8,10,12)           56.2315         calculate D2E/DX2 analytically  !
 ! D35   D(9,8,10,13)          -64.0708         calculate D2E/DX2 analytically  !
 ! D36   D(8,10,13,14)         179.5806         calculate D2E/DX2 analytically  !
 ! D37   D(8,10,13,15)          62.7933         calculate D2E/DX2 analytically  !
 ! D38   D(8,10,13,23)         -63.6098         calculate D2E/DX2 analytically  !
 ! D39   D(11,10,13,14)        -57.2491         calculate D2E/DX2 analytically  !
 ! D40   D(11,10,13,15)       -174.0365         calculate D2E/DX2 analytically  !
 ! D41   D(11,10,13,23)         59.5604         calculate D2E/DX2 analytically  !
 ! D42   D(12,10,13,14)         57.8408         calculate D2E/DX2 analytically  !
 ! D43   D(12,10,13,15)        -58.9465         calculate D2E/DX2 analytically  !
 ! D44   D(12,10,13,23)        174.6504         calculate D2E/DX2 analytically  !
 ! D45   D(10,13,15,16)         53.6378         calculate D2E/DX2 analytically  !
 ! D46   D(10,13,15,17)        173.4082         calculate D2E/DX2 analytically  !
 ! D47   D(10,13,15,18)        -67.2219         calculate D2E/DX2 analytically  !
 ! D48   D(14,13,15,16)        -61.8693         calculate D2E/DX2 analytically  !
 ! D49   D(14,13,15,17)         57.9011         calculate D2E/DX2 analytically  !
 ! D50   D(14,13,15,18)        177.271          calculate D2E/DX2 analytically  !
 ! D51   D(23,13,15,16)       -179.8041         calculate D2E/DX2 analytically  !
 ! D52   D(23,13,15,17)        -60.0336         calculate D2E/DX2 analytically  !
 ! D53   D(23,13,15,18)         59.3363         calculate D2E/DX2 analytically  !
 ! D54   D(10,13,23,24)       -175.4034         calculate D2E/DX2 analytically  !
 ! D55   D(10,13,23,25)        -55.4198         calculate D2E/DX2 analytically  !
 ! D56   D(10,13,23,26)         64.7191         calculate D2E/DX2 analytically  !
 ! D57   D(14,13,23,24)        -60.0715         calculate D2E/DX2 analytically  !
 ! D58   D(14,13,23,25)         59.9122         calculate D2E/DX2 analytically  !
 ! D59   D(14,13,23,26)       -179.9489         calculate D2E/DX2 analytically  !
 ! D60   D(15,13,23,24)         57.6845         calculate D2E/DX2 analytically  !
 ! D61   D(15,13,23,25)        177.6681         calculate D2E/DX2 analytically  !
 ! D62   D(15,13,23,26)        -62.193          calculate D2E/DX2 analytically  !
 ! D63   D(20,19,27,1)          63.7907         calculate D2E/DX2 analytically  !
 ! D64   D(20,19,27,5)         179.953          calculate D2E/DX2 analytically  !
 ! D65   D(20,19,27,28)        -61.9541         calculate D2E/DX2 analytically  !
 ! D66   D(21,19,27,1)        -178.5113         calculate D2E/DX2 analytically  !
 ! D67   D(21,19,27,5)         -62.3489         calculate D2E/DX2 analytically  !
 ! D68   D(21,19,27,28)         55.744          calculate D2E/DX2 analytically  !
 ! D69   D(22,19,27,1)         -56.2805         calculate D2E/DX2 analytically  !
 ! D70   D(22,19,27,5)          59.8819         calculate D2E/DX2 analytically  !
 ! D71   D(22,19,27,28)        177.9748         calculate D2E/DX2 analytically  !
 ! D72   D(1,27,28,29)         165.0805         calculate D2E/DX2 analytically  !
 ! D73   D(1,27,28,30)         175.1289         calculate D2E/DX2 analytically  !
 ! D74   D(5,27,28,29)          53.4659         calculate D2E/DX2 analytically  !
 ! D75   D(5,27,28,30)          63.5143         calculate D2E/DX2 analytically  !
 ! D76   D(19,27,28,29)        -66.2592         calculate D2E/DX2 analytically  !
 ! D77   D(19,27,28,30)        -56.2108         calculate D2E/DX2 analytically  !
 ! D78   D(27,28,29,6)         -30.4795         calculate D2E/DX2 analytically  !
 --------------------------------------------------------------------------------
 Trust Radius=3.00D-01 FncErr=1.00D-07 GrdErr=1.00D-06
 Number of steps in this run=    175 maximum allowed number of steps=    180.
 Search for a saddle point of order  1.
 GradGradGradGradGradGradGradGradGradGradGradGradGradGradGradGradGradGrad

 Leave Link  103 at Thu May  1 03:03:29 2014, MaxMem= 4026531840 cpu:       0.2
 (Enter /usr/caen/gaussian-09revc/g09/l202.exe)
                          Input orientation:                          
 ---------------------------------------------------------------------
 Center     Atomic      Atomic             Coordinates (Angstroms)
 Number     Number       Type             X           Y           Z
 ---------------------------------------------------------------------
      1          6           0        2.161993   -1.835774   -0.632592
      2          1           0        3.062734   -2.320039   -0.246037
      3          1           0        2.253310   -1.752982   -1.716322
      4          1           0        1.293873   -2.454702   -0.386311
      5          6           0        0.505646    0.206724   -0.719196
      6          1           0        0.576563    1.215837   -0.320795
      7          1           0        0.797595    0.165649   -1.766992
      8          6           0       -0.675964   -0.504374   -0.399503
      9          1           0       -0.960642   -1.344020   -1.029586
     10          6           0       -1.540441   -0.231297    0.785959
     11          1           0       -1.088913    0.554099    1.399195
     12          1           0       -1.601315   -1.133295    1.412951
     13          6           0       -3.004197    0.185064    0.445861
     14          1           0       -3.495262    0.337920    1.414918
     15          6           0       -3.772103   -0.920146   -0.290746
     16          1           0       -3.737773   -1.866416    0.257869
     17          1           0       -4.823367   -0.643700   -0.410432
     18          1           0       -3.366008   -1.095262   -1.291490
     19          6           0        1.849473   -0.475700    1.525659
     20          1           0        2.766947   -0.878613    1.965566
     21          1           0        1.718524    0.541945    1.893457
     22          1           0        1.009622   -1.095963    1.845078
     23          6           0       -3.055896    1.512703   -0.319916
     24          1           0       -4.090847    1.829079   -0.478335
     25          1           0       -2.542847    2.309003    0.226874
     26          1           0       -2.579731    1.423847   -1.301108
     27          6           0        2.005980   -0.451024    0.006564
     28          8           0        2.990067    0.326156   -0.423098
     29          8           0        2.568857    2.048850   -0.036506
     30          1           0        3.489214    2.290514   -0.204213
 ---------------------------------------------------------------------
                    Distance matrix (angstroms):
                    1          2          3          4          5
     1  C    0.000000
     2  H    1.093285   0.000000
     3  H    1.090717   1.771570   0.000000
     4  H    1.094239   1.779517   1.783777   0.000000
     5  C    2.631118   3.625894   2.808743   2.795586   0.000000
     6  H    3.452989   4.323084   3.684137   3.740546   1.087227
     7  H    2.674722   3.690908   2.408904   3.003134   1.088484
     8  C    3.143399   4.159093   3.445821   2.772041   1.415650
     9  H    3.185950   4.213563   3.311849   2.594274   2.156652
    10  C    4.277225   5.159174   4.792649   3.788282   2.577562
    11  H    4.517526   5.310709   5.118547   4.233035   2.674111
    12  H    4.340531   5.090575   5.003448   3.655896   3.283441
    13  C    5.651227   6.600145   6.006033   5.112170   3.698219
    14  H    6.397013   7.268482   6.871871   5.829149   4.536399
    15  C    6.014044   6.976869   6.247518   5.294158   4.444383
    16  H    5.966666   6.834222   6.308991   5.106712   4.822776
    17  H    7.089827   8.063977   7.281155   6.379728   5.405269
    18  H    5.616164   6.627350   5.673607   4.937805   4.124608
    19  C    2.570120   2.830635   3.507845   2.807271   2.703876
    20  H    2.834176   2.656386   3.818985   3.191446   3.674151
    21  H    3.497304   3.817759   4.310822   3.789138   2.899897
    22  H    2.830924   3.175908   3.829100   2.627940   2.920015
    23  C    6.207772   7.220319   6.387669   5.887716   3.814392
    24  H    7.249341   8.273020   7.390000   6.881458   4.880348
    25  H    6.328774   7.285205   6.578667   6.147300   3.822033
    26  H    5.792753   6.853267   5.798528   5.557410   3.367426
    27  C    1.533099   2.161887   2.173615   2.162446   1.791748
    28  O    2.324551   2.653107   2.556962   3.257545   2.504852
    29  O    3.951096   4.401705   4.168366   4.693605   2.848918
    30  H    4.355603   4.630425   4.490411   5.231611   3.675468
                    6          7          8          9         10
     6  H    0.000000
     7  H    1.800899   0.000000
     8  C    2.129353   2.119041   0.000000
     9  H    3.068917   2.431926   1.087682   0.000000
    10  C    2.792993   3.484471   1.492385   2.206926   0.000000
    11  H    2.483963   3.706015   2.127488   3.085172   1.093976
    12  H    3.642451   4.189757   2.129978   2.533940   1.100193
    13  C    3.804221   4.398945   2.571115   2.948077   1.559360
    14  H    4.512560   5.346293   3.456881   3.902412   2.130944
    15  C    4.845020   4.923453   3.125823   2.937663   2.571794
    16  H    5.333726   5.366462   3.414963   3.105301   2.789402
    17  H    5.711844   5.838708   4.149757   3.974222   3.518385
    18  H    4.671969   4.376253   2.895017   2.432336   2.897400
    19  C    2.809091   3.515583   3.175674   3.896152   3.478276
    20  H    3.796307   4.347507   4.193715   4.804421   4.512658
    21  H    2.580914   3.793230   3.476496   4.390783   3.527791
    22  H    3.197337   3.831928   2.868679   3.493875   2.893476
    23  C    3.644570   4.331048   3.120739   3.613113   2.561464
    24  H    4.710159   5.322077   4.136743   4.491171   3.513995
    25  H    3.350473   4.441624   3.434049   4.174523   2.787565
    26  H    3.311567   3.634067   2.855741   3.218115   2.859279
    27  C    2.220095   2.232931   2.713035   3.266787   3.637697
    28  O    2.574296   2.576577   3.759005   4.331907   4.722084
    29  O    2.178065   3.111012   4.144826   4.995512   4.770938
    30  H    3.106776   3.768573   5.019785   5.804507   5.712915
                   11         12         13         14         15
    11  H    0.000000
    12  H    1.763532   0.000000
    13  C    2.171024   2.154394   0.000000
    14  H    2.416091   2.398231   1.097079   0.000000
    15  C    3.496971   2.767731   1.534196   2.137443   0.000000
    16  H    3.765365   2.536954   2.186789   2.501334   1.094342
    17  H    4.319215   3.734441   2.174734   2.461573   1.093574
    18  H    3.891701   3.229487   2.188271   3.065185   1.094106
    19  C    3.116182   3.514694   5.016043   5.407442   5.924439
    20  H    4.152240   4.410438   6.061932   6.403001   6.917503
    21  H    2.850639   3.749486   4.952473   5.239675   6.087318
    22  H    2.706541   2.646719   4.439547   4.747108   5.239995
    23  C    2.782676   3.481370   1.533529   2.140749   2.536249
    24  H    3.763283   4.307017   2.176633   2.482475   2.773991
    25  H    2.562801   3.760675   2.184472   2.490725   3.493766
    26  H    3.204783   3.855177   2.183267   3.065001   2.817248
    27  C    3.539499   3.931411   5.069464   5.733198   5.804715
    28  O    4.473342   5.155760   6.058564   6.740767   6.877334
    29  O    4.204141   5.442179   5.896211   6.465868   7.006236
    30  H    5.152213   6.344381   6.857106   7.430822   7.939934
                   16         17         18         19         20
    16  H    0.000000
    17  H    1.766402   0.000000
    18  H    1.770142   1.761836   0.000000
    19  C    5.895651   6.950069   5.959986   0.000000
    20  H    6.797306   7.956973   6.947553   1.094356   0.000000
    21  H    6.184378   7.036334   6.219067   1.089965   1.767024
    22  H    5.064641   6.270218   5.383697   1.091835   1.774810
    23  C    3.495316   2.789663   2.800287   5.605581   6.696814
    24  H    3.784619   2.579890   3.120638   6.679476   7.767470
    25  H    4.343148   3.784889   3.817335   5.360400   6.432562
    26  H    3.820641   3.178358   2.638984   5.587194   6.675286
    27  C    5.920911   6.844778   5.564013   1.527335   2.144666
    28  O    7.108792   7.873407   6.570709   2.396160   2.684579
    29  O    7.428967   7.876206   6.832499   3.054705   3.552122
    30  H    8.350026   8.817661   7.722676   3.651458   3.908066
                   21         22         23         24         25
    21  H    0.000000
    22  H    1.785392   0.000000
    23  C    5.351306   5.293465   0.000000
    24  H    6.405537   6.322096   1.093761   0.000000
    25  H    4.905026   5.180001   1.093751   1.767470   0.000000
    26  H    5.427522   5.397350   1.094242   1.767665   1.766236
    27  C    2.151507   2.188335   5.439246   6.527273   5.325234
    28  O    2.651380   3.330046   6.162159   7.238865   5.913314
    29  O    2.592024   3.982640   5.657351   6.677961   5.125092
    30  H    3.254698   4.670781   6.592180   7.599039   6.047474
                   26         27         28         29         30
    26  H    0.000000
    27  C    5.123855   0.000000
    28  O    5.744430   1.325536   0.000000
    29  O    5.338334   2.562822   1.815088   0.000000
    30  H    6.227872   3.124170   2.038568   0.966222   0.000000
 Stoichiometry    C9H19O2(2)
 Framework group  C1[X(C9H19O2)]
 Deg. of freedom    84
 Full point group                 C1      NOp   1
 Largest Abelian subgroup         C1      NOp   1
 Largest concise Abelian subgroup C1      NOp   1
                         Standard orientation:                         
 ---------------------------------------------------------------------
 Center     Atomic      Atomic             Coordinates (Angstroms)
 Number     Number       Type             X           Y           Z
 ---------------------------------------------------------------------
      1          6           0        2.161993   -1.835774   -0.632592
      2          1           0        3.062734   -2.320039   -0.246037
      3          1           0        2.253310   -1.752982   -1.716322
      4          1           0        1.293873   -2.454702   -0.386311
      5          6           0        0.505646    0.206724   -0.719196
      6          1           0        0.576563    1.215837   -0.320795
      7          1           0        0.797595    0.165649   -1.766992
      8          6           0       -0.675964   -0.504374   -0.399503
      9          1           0       -0.960642   -1.344020   -1.029586
     10          6           0       -1.540441   -0.231297    0.785959
     11          1           0       -1.088913    0.554099    1.399195
     12          1           0       -1.601315   -1.133295    1.412951
     13          6           0       -3.004197    0.185064    0.445861
     14          1           0       -3.495262    0.337920    1.414918
     15          6           0       -3.772103   -0.920146   -0.290746
     16          1           0       -3.737773   -1.866416    0.257869
     17          1           0       -4.823367   -0.643700   -0.410432
     18          1           0       -3.366008   -1.095262   -1.291490
     19          6           0        1.849473   -0.475700    1.525659
     20          1           0        2.766947   -0.878613    1.965566
     21          1           0        1.718524    0.541945    1.893457
     22          1           0        1.009622   -1.095963    1.845078
     23          6           0       -3.055896    1.512703   -0.319916
     24          1           0       -4.090847    1.829079   -0.478335
     25          1           0       -2.542847    2.309003    0.226874
     26          1           0       -2.579731    1.423847   -1.301108
     27          6           0        2.005980   -0.451024    0.006564
     28          8           0        2.990067    0.326156   -0.423098
     29          8           0        2.568857    2.048850   -0.036506
     30          1           0        3.489214    2.290514   -0.204213
 ---------------------------------------------------------------------
 Rotational constants (GHZ):      1.7811282      0.4845972      0.4362819
 Leave Link  202 at Thu May  1 03:03:29 2014, MaxMem= 4026531840 cpu:       0.6
 (Enter /usr/caen/gaussian-09revc/g09/l301.exe)
 Standard basis: 6-311G(2d,d,p) (5D, 7F)
 Ernie: Thresh=  0.10000D-02 Tol=  0.10000D-05 Strict=F.
 There are   312 symmetry adapted basis functions of A   symmetry.
 Integral buffers will be    131072 words long.
 Raffenetti 2 integral format.
 Two-electron integral symmetry is turned on.
   312 basis functions,   504 primitive gaussians,   323 cartesian basis functions
    45 alpha electrons       44 beta electrons
       nuclear repulsion energy       658.7009543939 Hartrees.
 IExCor=  402 DFT=T Ex+Corr=B3LYP ExCW=0 ScaHFX=  0.200000
 ScaDFX=  0.800000  0.720000  1.000000  0.810000 ScalE2=  1.000000  1.000000
 IRadAn=      0 IRanWt=     -1 IRanGd=            0 ICorTp=0
 NAtoms=   30 NActive=   30 NUniq=   30 SFac= 1.00D+00 NAtFMM=   60 NAOKFM=F Big=F
 Leave Link  301 at Thu May  1 03:03:30 2014, MaxMem= 4026531840 cpu:       1.0
 (Enter /usr/caen/gaussian-09revc/g09/l302.exe)
 NPDir=0 NMtPBC=     1 NCelOv=     1 NCel=       1 NClECP=     1 NCelD=      1
         NCelK=      1 NCelE2=     1 NClLst=     1 CellRange=     0.0.
 One-electron integrals computed using PRISM.
 NBasis=   312 RedAO= T  NBF=   312
 NBsUse=   312 1.00D-06 NBFU=   312
 Precomputing XC quadrature grid using
 IXCGrd= 2 IRadAn=           0 IRanWt=          -1 IRanGd=           0 AccXCQ= 0.00D+00.
 NRdTot=    1911 NPtTot=      243260 NUsed=      257040 NTot=      257072
 NSgBfM=   323   323   323   323   323 NAtAll=    30    30.
 Leave Link  302 at Thu May  1 03:03:31 2014, MaxMem= 4026531840 cpu:       5.6
 (Enter /usr/caen/gaussian-09revc/g09/l303.exe)
 DipDrv:  MaxL=1.
 Leave Link  303 at Thu May  1 03:03:32 2014, MaxMem= 4026531840 cpu:       3.2
 (Enter /usr/caen/gaussian-09revc/g09/l401.exe)
 Harris functional with IExCor=  402 diagonalized for initial guess.
 ExpMin= 1.03D-01 ExpMax= 8.59D+03 ExpMxC= 1.30D+03 IAcc=1 IRadAn=         1 AccDes= 0.00D+00
 HarFok:  IExCor=  402 AccDes= 0.00D+00 IRadAn=         1 IDoV= 1
 ScaDFX=  1.000000  1.000000  1.000000  1.000000
 FoFCou: FMM=F IPFlag=           0 FMFlag=      100000 FMFlg1=           0
         NFxFlg=           0 DoJE=T BraDBF=F KetDBF=T FulRan=T
         Omega=  0.000000  0.000000  1.000000  0.000000  0.000000 ICntrl=     500 IOpCl=  0
         NMat0=    1 NMatS0=    1 NMatT0=    0 NMatD0=    1 NMtDS0=    0 NMtDT0=    0
         I1Cent=           4 NGrid=           0.
 Petite list used in FoFCou.
 Harris En= -504.911390673699    
 Initial guess orbital symmetries:
 Alpha Orbitals:
       Occupied  (A) (A) (A) (A) (A) (A) (A) (A) (A) (A) (A) (A)
                 (A) (A) (A) (A) (A) (A) (A) (A) (A) (A) (A) (A)
                 (A) (A) (A) (A) (A) (A) (A) (A) (A) (A) (A) (A)
                 (A) (A) (A) (A) (A) (A) (A) (A) (A)
       Virtual   (A) (A) (A) (A) (A) (A) (A) (A) (A) (A) (A) (A)
                 (A) (A) (A) (A) (A) (A) (A) (A) (A) (A) (A) (A)
                 (A) (A) (A) (A) (A) (A) (A) (A) (A) (A) (A) (A)
                 (A) (A) (A) (A) (A) (A) (A) (A) (A) (A) (A) (A)
                 (A) (A) (A) (A) (A) (A) (A) (A) (A) (A) (A) (A)
                 (A) (A) (A) (A) (A) (A) (A) (A) (A) (A) (A) (A)
                 (A) (A) (A) (A) (A) (A) (A) (A) (A) (A) (A) (A)
                 (A) (A) (A) (A) (A) (A) (A) (A) (A) (A) (A) (A)
                 (A) (A) (A) (A) (A) (A) (A) (A) (A) (A) (A) (A)
                 (A) (A) (A) (A) (A) (A) (A) (A) (A) (A) (A) (A)
                 (A) (A) (A) (A) (A) (A) (A) (A) (A) (A) (A) (A)
                 (A) (A) (A) (A) (A) (A) (A) (A) (A) (A) (A) (A)
                 (A) (A) (A) (A) (A) (A) (A) (A) (A) (A) (A) (A)
                 (A) (A) (A) (A) (A) (A) (A) (A) (A) (A) (A) (A)
                 (A) (A) (A) (A) (A) (A) (A) (A) (A) (A) (A) (A)
                 (A) (A) (A) (A) (A) (A) (A) (A) (A) (A) (A) (A)
                 (A) (A) (A) (A) (A) (A) (A) (A) (A) (A) (A) (A)
                 (A) (A) (A) (A) (A) (A) (A) (A) (A) (A) (A) (A)
                 (A) (A) (A) (A) (A) (A) (A) (A) (A) (A) (A) (A)
                 (A) (A) (A) (A) (A) (A) (A) (A) (A) (A) (A) (A)
                 (A) (A) (A) (A) (A) (A) (A) (A) (A) (A) (A) (A)
                 (A) (A) (A) (A) (A) (A) (A) (A) (A) (A) (A) (A)
                 (A) (A) (A)
 Beta  Orbitals:
       Occupied  (A) (A) (A) (A) (A) (A) (A) (A) (A) (A) (A) (A)
                 (A) (A) (A) (A) (A) (A) (A) (A) (A) (A) (A) (A)
                 (A) (A) (A) (A) (A) (A) (A) (A) (A) (A) (A) (A)
                 (A) (A) (A) (A) (A) (A) (A) (A)
       Virtual   (A) (A) (A) (A) (A) (A) (A) (A) (A) (A) (A) (A)
                 (A) (A) (A) (A) (A) (A) (A) (A) (A) (A) (A) (A)
                 (A) (A) (A) (A) (A) (A) (A) (A) (A) (A) (A) (A)
                 (A) (A) (A) (A) (A) (A) (A) (A) (A) (A) (A) (A)
                 (A) (A) (A) (A) (A) (A) (A) (A) (A) (A) (A) (A)
                 (A) (A) (A) (A) (A) (A) (A) (A) (A) (A) (A) (A)
                 (A) (A) (A) (A) (A) (A) (A) (A) (A) (A) (A) (A)
                 (A) (A) (A) (A) (A) (A) (A) (A) (A) (A) (A) (A)
                 (A) (A) (A) (A) (A) (A) (A) (A) (A) (A) (A) (A)
                 (A) (A) (A) (A) (A) (A) (A) (A) (A) (A) (A) (A)
                 (A) (A) (A) (A) (A) (A) (A) (A) (A) (A) (A) (A)
                 (A) (A) (A) (A) (A) (A) (A) (A) (A) (A) (A) (A)
                 (A) (A) (A) (A) (A) (A) (A) (A) (A) (A) (A) (A)
                 (A) (A) (A) (A) (A) (A) (A) (A) (A) (A) (A) (A)
                 (A) (A) (A) (A) (A) (A) (A) (A) (A) (A) (A) (A)
                 (A) (A) (A) (A) (A) (A) (A) (A) (A) (A) (A) (A)
                 (A) (A) (A) (A) (A) (A) (A) (A) (A) (A) (A) (A)
                 (A) (A) (A) (A) (A) (A) (A) (A) (A) (A) (A) (A)
                 (A) (A) (A) (A) (A) (A) (A) (A) (A) (A) (A) (A)
                 (A) (A) (A) (A) (A) (A) (A) (A) (A) (A) (A) (A)
                 (A) (A) (A) (A) (A) (A) (A) (A) (A) (A) (A) (A)
                 (A) (A) (A) (A) (A) (A) (A) (A) (A) (A) (A) (A)
                 (A) (A) (A) (A)
 The electronic state of the initial guess is 2-A.
 Initial guess <Sx>= 0.0000 <Sy>= 0.0000 <Sz>= 0.5000 <S**2>= 0.7500 S= 0.5000
 Leave Link  401 at Thu May  1 03:03:34 2014, MaxMem= 4026531840 cpu:       8.9
 (Enter /usr/caen/gaussian-09revc/g09/l502.exe)
 UHF open shell SCF:
 Requested convergence on RMS density matrix=1.00D-08 within 128 cycles.
 Requested convergence on MAX density matrix=1.00D-06.
 Requested convergence on             energy=1.00D-06.
 No special actions if energy rises.
 Using DIIS extrapolation, IDIIS=  1040.
 Integral symmetry usage will be decided dynamically.
       256757 words used for storage of precomputed grid.
 Keep R1 and R2 ints in memory in canonical form, NReq=2755661488.
 IEnd=      592915 IEndB=      592915 NGot=  4026531840 MDV=  1287997588
 LenX=  1287997588 LenY=  1287892818
 Symmetry not used in FoFDir.
 MinBra= 0 MaxBra= 2 Meth= 1.
 IRaf=       0 NMat=   1 IRICut=       1 DoRegI=T DoRafI=F ISym2E= 0 JSym2E=0.
 Integral accuracy reduced to 1.0D-05 until final iterations.

 Cycle   1  Pass 0  IDiag  1:
 E= -504.393662614221    
 DIIS: error= 3.27D-02 at cycle   1 NSaved=   1.
 NSaved= 1 IEnMin= 1 EnMin= -504.393662614221     IErMin= 1 ErrMin= 3.27D-02
 ErrMax= 3.27D-02 EMaxC= 1.00D-01 BMatC= 1.79D+00 BMatP= 1.79D+00
 IDIUse=3 WtCom= 6.73D-01 WtEn= 3.27D-01
 Coeff-Com:  0.100D+01
 Coeff-En:   0.100D+01
 Coeff:      0.100D+01
 Gap=    -0.006 Goal=   None    Shift=    0.000
 Gap=     0.157 Goal=   None    Shift=    0.000
 GapD=   -0.006 DampG=0.250 DampE=0.500 DampFc=0.2500 IDamp=-1.
 Damping current iteration by 2.50D-01
 RMSDP=4.83D-03 MaxDP=1.74D-01              OVMax= 8.58D-01

 Cycle   2  Pass 0  IDiag  1:
 E= -504.510255331456     Delta-E=       -0.116592717235 Rises=F Damp=T
 DIIS: error= 1.45D-02 at cycle   2 NSaved=   2.
 NSaved= 2 IEnMin= 2 EnMin= -504.510255331456     IErMin= 2 ErrMin= 1.45D-02
 ErrMax= 1.45D-02 EMaxC= 1.00D-01 BMatC= 4.29D-01 BMatP= 1.79D+00
 IDIUse=3 WtCom= 8.55D-01 WtEn= 1.45D-01
 Coeff-Com: -0.378D+00 0.138D+01
 Coeff-En:   0.555D-01 0.945D+00
 Coeff:     -0.315D+00 0.132D+01
 Gap=     0.355 Goal=   None    Shift=    0.000
 Gap=    -0.166 Goal=   None    Shift=    0.000
 RMSDP=2.11D-03 MaxDP=6.88D-02 DE=-1.17D-01 OVMax= 6.84D-01

 Cycle   3  Pass 0  IDiag  1:
 E= -504.379356221695     Delta-E=        0.130899109761 Rises=F Damp=F
 DIIS: error= 4.84D-02 at cycle   3 NSaved=   3.
 NSaved= 3 IEnMin= 2 EnMin= -504.510255331456     IErMin= 2 ErrMin= 1.45D-02
 ErrMax= 4.84D-02 EMaxC= 1.00D-01 BMatC= 1.63D+00 BMatP= 4.29D-01
 IDIUse=2 WtCom= 0.00D+00 WtEn= 1.00D+00
 Coeff-En:   0.000D+00 0.619D+00 0.381D+00
 Coeff:      0.000D+00 0.619D+00 0.381D+00
 Gap=     0.019 Goal=   None    Shift=    0.000
 Gap=     0.217 Goal=   None    Shift=    0.000
 RMSDP=3.77D-03 MaxDP=1.71D-01 DE= 1.31D-01 OVMax= 8.41D-01

 Cycle   4  Pass 0  IDiag  1:
 E= -503.828983079364     Delta-E=        0.550373142331 Rises=F Damp=F
 DIIS: error= 6.32D-02 at cycle   4 NSaved=   4.
 NSaved= 4 IEnMin= 2 EnMin= -504.510255331456     IErMin= 2 ErrMin= 1.45D-02
 ErrMax= 6.32D-02 EMaxC= 1.00D-01 BMatC= 3.08D+00 BMatP= 4.29D-01
 IDIUse=2 WtCom= 0.00D+00 WtEn= 1.00D+00
 EnCoef did     2 forward-backward iterations
 Coeff-En:   0.537D-01 0.000D+00 0.590D+00 0.356D+00
 Coeff:      0.537D-01 0.000D+00 0.590D+00 0.356D+00
 Gap=     0.100 Goal=   None    Shift=    0.000
 Gap=    -0.022 Goal=   None    Shift=    0.000
 RMSDP=2.90D-03 MaxDP=1.67D-01 DE= 5.50D-01 OVMax= 8.37D-01

 Problem detected with inexpensive integrals.
 Switching to full accuracy and repeating last cycle.
 Cycle   5  Pass 1  IDiag  1:
 E= -503.829080689391     Delta-E=       -0.000097610027 Rises=F Damp=F
 DIIS: error= 6.32D-02 at cycle   1 NSaved=   1.
 NSaved= 1 IEnMin= 1 EnMin= -503.829080689391     IErMin= 1 ErrMin= 6.32D-02
 ErrMax= 6.32D-02 EMaxC= 1.00D-01 BMatC= 3.08D+00 BMatP= 3.08D+00
 IDIUse=3 WtCom= 3.68D-01 WtEn= 6.32D-01
 Coeff-Com:  0.100D+01
 Coeff-En:   0.100D+01
 Coeff:      0.100D+01
 Gap=     0.193 Goal=   None    Shift=    0.000
 Gap=    -0.589 Goal=   None    Shift=    0.000
 GapD=   -0.589 DampG=0.250 DampE=0.500 DampFc=0.2500 IDamp=-1.
 Damping current iteration by 2.50D-01
 RMSDP=7.78D-03 MaxDP=4.87D-01 DE=-9.76D-05 OVMax= 8.78D-01

 Cycle   6  Pass 1  IDiag  1:
 E= -504.090693834608     Delta-E=       -0.261613145217 Rises=F Damp=T
 DIIS: error= 1.22D-02 at cycle   2 NSaved=   2.
 NSaved= 2 IEnMin= 2 EnMin= -504.090693834608     IErMin= 2 ErrMin= 1.22D-02
 ErrMax= 1.22D-02 EMaxC= 1.00D-01 BMatC= 2.44D-01 BMatP= 3.08D+00
 IDIUse=3 WtCom= 8.78D-01 WtEn= 1.22D-01
 Coeff-Com: -0.278D-01 0.103D+01
 Coeff-En:   0.332D+00 0.668D+00
 Coeff:      0.160D-01 0.984D+00
 Gap=     0.017 Goal=   None    Shift=    0.000
 Gap=    -0.139 Goal=   None    Shift=    0.000
 RMSDP=3.00D-03 MaxDP=1.60D-01 DE=-2.62D-01 OVMax= 7.21D-01

 Cycle   7  Pass 1  IDiag  1:
 E= -503.877623617056     Delta-E=        0.213070217551 Rises=F Damp=F
 DIIS: error= 5.12D-02 at cycle   3 NSaved=   3.
 NSaved= 3 IEnMin= 2 EnMin= -504.090693834608     IErMin= 2 ErrMin= 1.22D-02
 ErrMax= 5.12D-02 EMaxC= 1.00D-01 BMatC= 3.72D+00 BMatP= 2.44D-01
 IDIUse=2 WtCom= 0.00D+00 WtEn= 1.00D+00
 EnCoef did     2 forward-backward iterations
 Coeff-En:   0.258D+00 0.369D+00 0.372D+00
 Coeff:      0.258D+00 0.369D+00 0.372D+00
 Gap=     0.000 Goal=   None    Shift=    0.000
 Gap=    -0.045 Goal=   None    Shift=    0.000
 RMSDP=4.15D-03 MaxDP=1.67D-01 DE= 2.13D-01 OVMax= 7.37D-01

 Cycle   8  Pass 1  IDiag  1:
 E= -502.606109945338     Delta-E=        1.271513671718 Rises=F Damp=F
 DIIS: error= 7.27D-02 at cycle   4 NSaved=   4.
 NSaved= 4 IEnMin= 2 EnMin= -504.090693834608     IErMin= 2 ErrMin= 1.22D-02
 ErrMax= 7.27D-02 EMaxC= 1.00D-01 BMatC= 6.49D+00 BMatP= 2.44D-01
 IDIUse=2 WtCom= 0.00D+00 WtEn= 1.00D+00
 EnCoef did   100 forward-backward iterations
 Coeff-En:   0.401D+00 0.791D-02 0.315D+00 0.276D+00
 Coeff:      0.401D+00 0.791D-02 0.315D+00 0.276D+00
 Gap=     0.240 Goal=   None    Shift=    0.000
 Gap=     0.022 Goal=   None    Shift=    0.000
 RMSDP=2.68D-03 MaxDP=1.26D-01 DE= 1.27D+00 OVMax= 9.37D-01

 Cycle   9  Pass 1  IDiag  1:
 E= -504.645964068174     Delta-E=       -2.039854122836 Rises=F Damp=F
 DIIS: error= 2.00D-02 at cycle   5 NSaved=   5.
 NSaved= 5 IEnMin= 5 EnMin= -504.645964068174     IErMin= 2 ErrMin= 1.22D-02
 ErrMax= 2.00D-02 EMaxC= 1.00D-01 BMatC= 5.00D-01 BMatP= 2.44D-01
 IDIUse=2 WtCom= 0.00D+00 WtEn= 1.00D+00
 EnCoef did     1 forward-backward iterations
 Coeff-En:   0.210D+00 0.000D+00 0.623D-01 0.000D+00 0.727D+00
 Coeff:      0.210D+00 0.000D+00 0.623D-01 0.000D+00 0.727D+00
 Gap=     0.002 Goal=   None    Shift=    0.000
 Gap=     0.163 Goal=   None    Shift=    0.000
 RMSDP=2.38D-03 MaxDP=8.75D-02 DE=-2.04D+00 OVMax= 5.92D-01

 Cycle  10  Pass 1  IDiag  1:
 E= -504.601917653361     Delta-E=        0.044046414813 Rises=F Damp=F
 DIIS: error= 2.43D-02 at cycle   6 NSaved=   6.
 NSaved= 6 IEnMin= 5 EnMin= -504.645964068174     IErMin= 2 ErrMin= 1.22D-02
 ErrMax= 2.43D-02 EMaxC= 1.00D-01 BMatC= 8.30D-01 BMatP= 2.44D-01
 IDIUse=2 WtCom= 0.00D+00 WtEn= 1.00D+00
 EnCoef did     9 forward-backward iterations
 Coeff-En:   0.324D-01 0.000D+00 0.000D+00 0.000D+00 0.551D+00 0.417D+00
 Coeff:      0.324D-01 0.000D+00 0.000D+00 0.000D+00 0.551D+00 0.417D+00
 Gap=     0.055 Goal=   None    Shift=    0.000
 Gap=     0.063 Goal=   None    Shift=    0.000
 RMSDP=1.26D-03 MaxDP=5.25D-02 DE= 4.40D-02 OVMax= 2.93D-01

 Cycle  11  Pass 1  IDiag  1:
 E= -504.693509038273     Delta-E=       -0.091591384911 Rises=F Damp=F
 DIIS: error= 2.70D-02 at cycle   7 NSaved=   7.
 NSaved= 7 IEnMin= 7 EnMin= -504.693509038273     IErMin= 2 ErrMin= 1.22D-02
 ErrMax= 2.70D-02 EMaxC= 1.00D-01 BMatC= 5.11D-01 BMatP= 2.44D-01
 IDIUse=2 WtCom= 0.00D+00 WtEn= 1.00D+00
 EnCoef did     1 forward-backward iterations
 Coeff-En:   0.000D+00 0.000D+00 0.000D+00 0.000D+00 0.412D+00 0.288D+00
 Coeff-En:   0.300D+00
 Coeff:      0.000D+00 0.000D+00 0.000D+00 0.000D+00 0.412D+00 0.288D+00
 Coeff:      0.300D+00
 Gap=     0.047 Goal=   None    Shift=    0.000
 Gap=     0.134 Goal=   None    Shift=    0.000
 RMSDP=1.10D-03 MaxDP=6.41D-02 DE=-9.16D-02 OVMax= 2.78D-01

 Cycle  12  Pass 1  IDiag  1:
 E= -504.806929137228     Delta-E=       -0.113420098956 Rises=F Damp=F
 DIIS: error= 7.26D-03 at cycle   8 NSaved=   8.
 NSaved= 8 IEnMin= 8 EnMin= -504.806929137228     IErMin= 8 ErrMin= 7.26D-03
 ErrMax= 7.26D-03 EMaxC= 1.00D-01 BMatC= 2.65D-02 BMatP= 2.44D-01
 IDIUse=3 WtCom= 9.27D-01 WtEn= 7.26D-02
 Coeff-Com: -0.110D-01 0.107D-01-0.192D-01-0.103D-01 0.516D-01 0.233D-01
 Coeff-Com:  0.167D+00 0.788D+00
 Coeff-En:   0.000D+00 0.000D+00 0.000D+00 0.000D+00 0.000D+00 0.000D+00
 Coeff-En:   0.743D-01 0.926D+00
 Coeff:     -0.102D-01 0.994D-02-0.178D-01-0.956D-02 0.479D-01 0.216D-01
 Coeff:      0.161D+00 0.798D+00
 Gap=     0.068 Goal=   None    Shift=    0.000
 Gap=     0.128 Goal=   None    Shift=    0.000
 RMSDP=2.94D-04 MaxDP=1.26D-02 DE=-1.13D-01 OVMax= 7.47D-02

 Cycle  13  Pass 1  IDiag  1:
 E= -504.813978014403     Delta-E=       -0.007048877175 Rises=F Damp=F
 DIIS: error= 1.40D-03 at cycle   9 NSaved=   9.
 NSaved= 9 IEnMin= 9 EnMin= -504.813978014403     IErMin= 9 ErrMin= 1.40D-03
 ErrMax= 1.40D-03 EMaxC= 1.00D-01 BMatC= 2.00D-03 BMatP= 2.65D-02
 IDIUse=3 WtCom= 9.86D-01 WtEn= 1.40D-02
 Coeff-Com:  0.138D-02 0.776D-02 0.941D-03 0.402D-02-0.191D-01-0.271D-01
 Coeff-Com:  0.159D-01 0.269D+00 0.747D+00
 Coeff-En:   0.000D+00 0.000D+00 0.000D+00 0.000D+00 0.000D+00 0.000D+00
 Coeff-En:   0.000D+00 0.000D+00 0.100D+01
 Coeff:      0.136D-02 0.765D-02 0.928D-03 0.397D-02-0.189D-01-0.268D-01
 Coeff:      0.157D-01 0.265D+00 0.751D+00
 Gap=     0.073 Goal=   None    Shift=    0.000
 Gap=     0.134 Goal=   None    Shift=    0.000
 RMSDP=1.33D-04 MaxDP=4.89D-03 DE=-7.05D-03 OVMax= 2.74D-02

 Cycle  14  Pass 1  IDiag  1:
 E= -504.815092873597     Delta-E=       -0.001114859194 Rises=F Damp=F
 DIIS: error= 7.75D-04 at cycle  10 NSaved=  10.
 NSaved=10 IEnMin=10 EnMin= -504.815092873597     IErMin=10 ErrMin= 7.75D-04
 ErrMax= 7.75D-04 EMaxC= 1.00D-01 BMatC= 1.08D-03 BMatP= 2.00D-03
 IDIUse=3 WtCom= 9.92D-01 WtEn= 7.75D-03
 Coeff-Com:  0.423D-02 0.402D-02 0.383D-02 0.397D-02 0.163D-02-0.222D-01
 Coeff-Com: -0.408D-01-0.724D-01 0.248D+00 0.869D+00
 Coeff-En:   0.000D+00 0.000D+00 0.000D+00 0.000D+00 0.000D+00 0.000D+00
 Coeff-En:   0.000D+00 0.000D+00 0.000D+00 0.100D+01
 Coeff:      0.419D-02 0.399D-02 0.380D-02 0.394D-02 0.162D-02-0.220D-01
 Coeff:     -0.405D-01-0.719D-01 0.246D+00 0.870D+00
 Gap=     0.076 Goal=   None    Shift=    0.000
 Gap=     0.141 Goal=   None    Shift=    0.000
 RMSDP=1.18D-04 MaxDP=4.81D-03 DE=-1.11D-03 OVMax= 2.84D-02

 Cycle  15  Pass 1  IDiag  1:
 E= -504.815885347662     Delta-E=       -0.000792474064 Rises=F Damp=F
 DIIS: error= 7.28D-04 at cycle  11 NSaved=  11.
 NSaved=11 IEnMin=11 EnMin= -504.815885347662     IErMin=11 ErrMin= 7.28D-04
 ErrMax= 7.28D-04 EMaxC= 1.00D-01 BMatC= 7.84D-04 BMatP= 1.08D-03
 IDIUse=3 WtCom= 9.93D-01 WtEn= 7.28D-03
 Coeff-Com:  0.182D-02 0.317D-02 0.582D-02-0.644D-03 0.279D-01-0.149D-01
 Coeff-Com: -0.303D-01-0.149D+00-0.359D+00 0.453D+00 0.106D+01
 Coeff-En:   0.000D+00 0.000D+00 0.000D+00 0.000D+00 0.000D+00 0.000D+00
 Coeff-En:   0.000D+00 0.000D+00 0.000D+00 0.000D+00 0.100D+01
 Coeff:      0.181D-02 0.315D-02 0.578D-02-0.639D-03 0.277D-01-0.148D-01
 Coeff:     -0.301D-01-0.148D+00-0.357D+00 0.449D+00 0.106D+01
 Gap=     0.080 Goal=   None    Shift=    0.000
 Gap=     0.151 Goal=   None    Shift=    0.000
 RMSDP=1.35D-04 MaxDP=4.87D-03 DE=-7.92D-04 OVMax= 2.94D-02

 Cycle  16  Pass 1  IDiag  1:
 E= -504.816487520926     Delta-E=       -0.000602173264 Rises=F Damp=F
 DIIS: error= 3.10D-04 at cycle  12 NSaved=  12.
 NSaved=12 IEnMin=12 EnMin= -504.816487520926     IErMin=12 ErrMin= 3.10D-04
 ErrMax= 3.10D-04 EMaxC= 1.00D-01 BMatC= 1.71D-04 BMatP= 7.84D-04
 IDIUse=3 WtCom= 9.97D-01 WtEn= 3.10D-03
 Coeff-Com:  0.319D-03-0.409D-04 0.785D-03-0.739D-03 0.171D-01-0.327D-02
 Coeff-Com: -0.400D-02-0.427D-01-0.311D+00-0.843D-01 0.547D+00 0.880D+00
 Coeff-En:   0.000D+00 0.000D+00 0.000D+00 0.000D+00 0.000D+00 0.000D+00
 Coeff-En:   0.000D+00 0.000D+00 0.000D+00 0.000D+00 0.000D+00 0.100D+01
 Coeff:      0.318D-03-0.408D-04 0.783D-03-0.737D-03 0.170D-01-0.326D-02
 Coeff:     -0.398D-02-0.425D-01-0.310D+00-0.841D-01 0.546D+00 0.880D+00
 Gap=     0.082 Goal=   None    Shift=    0.000
 Gap=     0.156 Goal=   None    Shift=    0.000
 RMSDP=7.82D-05 MaxDP=3.20D-03 DE=-6.02D-04 OVMax= 1.59D-02

 Cycle  17  Pass 1  IDiag  1:
 E= -504.816616131669     Delta-E=       -0.000128610744 Rises=F Damp=F
 DIIS: error= 1.56D-04 at cycle  13 NSaved=  13.
 NSaved=13 IEnMin=13 EnMin= -504.816616131669     IErMin=13 ErrMin= 1.56D-04
 ErrMax= 1.56D-04 EMaxC= 1.00D-01 BMatC= 3.24D-05 BMatP= 1.71D-04
 IDIUse=3 WtCom= 9.98D-01 WtEn= 1.56D-03
 Coeff-Com: -0.926D-03-0.245D-03-0.550D-03 0.869D-04 0.348D-02 0.399D-03
 Coeff-Com:  0.681D-02 0.102D-01-0.643D-01-0.125D+00 0.276D-01 0.438D+00
 Coeff-Com:  0.704D+00
 Coeff-En:   0.000D+00 0.000D+00 0.000D+00 0.000D+00 0.000D+00 0.000D+00
 Coeff-En:   0.000D+00 0.000D+00 0.000D+00 0.000D+00 0.000D+00 0.000D+00
 Coeff-En:   0.100D+01
 Coeff:     -0.924D-03-0.244D-03-0.549D-03 0.867D-04 0.348D-02 0.398D-03
 Coeff:      0.680D-02 0.102D-01-0.642D-01-0.124D+00 0.275D-01 0.437D+00
 Coeff:      0.705D+00
 Gap=     0.083 Goal=   None    Shift=    0.000
 Gap=     0.156 Goal=   None    Shift=    0.000
 RMSDP=1.53D-05 MaxDP=7.91D-04 DE=-1.29D-04 OVMax= 2.84D-03

 Cycle  18  Pass 1  IDiag  1:
 E= -504.816627733488     Delta-E=       -0.000011601819 Rises=F Damp=F
 DIIS: error= 5.52D-05 at cycle  14 NSaved=  14.
 NSaved=14 IEnMin=14 EnMin= -504.816627733488     IErMin=14 ErrMin= 5.52D-05
 ErrMax= 5.52D-05 EMaxC= 1.00D-01 BMatC= 3.18D-06 BMatP= 3.24D-05
 IDIUse=1 WtCom= 1.00D+00 WtEn= 0.00D+00
 Coeff-Com: -0.202D-03 0.947D-04 0.287D-04 0.503D-04-0.127D-02-0.457D-03
 Coeff-Com:  0.377D-03 0.538D-02 0.502D-01 0.129D-01-0.675D-01-0.102D+00
 Coeff-Com:  0.119D+00 0.983D+00
 Coeff:     -0.202D-03 0.947D-04 0.287D-04 0.503D-04-0.127D-02-0.457D-03
 Coeff:      0.377D-03 0.538D-02 0.502D-01 0.129D-01-0.675D-01-0.102D+00
 Coeff:      0.119D+00 0.983D+00
 Gap=     0.083 Goal=   None    Shift=    0.000
 Gap=     0.156 Goal=   None    Shift=    0.000
 RMSDP=1.31D-05 MaxDP=3.81D-04 DE=-1.16D-05 OVMax= 3.65D-03

 Cycle  19  Pass 1  IDiag  1:
 E= -504.816631323248     Delta-E=       -0.000003589760 Rises=F Damp=F
 DIIS: error= 5.04D-05 at cycle  15 NSaved=  15.
 NSaved=15 IEnMin=15 EnMin= -504.816631323248     IErMin=15 ErrMin= 5.04D-05
 ErrMax= 5.04D-05 EMaxC= 1.00D-01 BMatC= 3.45D-06 BMatP= 3.18D-06
 IDIUse=1 WtCom= 1.00D+00 WtEn= 0.00D+00
 Coeff-Com:  0.677D-04 0.395D-03 0.221D-03-0.902D-04-0.146D-02 0.648D-04
 Coeff-Com: -0.151D-02-0.104D-02 0.291D-01 0.177D-01-0.243D-01-0.952D-01
 Coeff-Com: -0.279D-01 0.424D+00 0.680D+00
 Coeff:      0.677D-04 0.395D-03 0.221D-03-0.902D-04-0.146D-02 0.648D-04
 Coeff:     -0.151D-02-0.104D-02 0.291D-01 0.177D-01-0.243D-01-0.952D-01
 Coeff:     -0.279D-01 0.424D+00 0.680D+00
 Gap=     0.083 Goal=   None    Shift=    0.000
 Gap=     0.155 Goal=   None    Shift=    0.000
 RMSDP=4.33D-06 MaxDP=2.21D-04 DE=-3.59D-06 OVMax= 9.68D-04

 Cycle  20  Pass 1  IDiag  1:
 E= -504.816632400504     Delta-E=       -0.000001077255 Rises=F Damp=F
 DIIS: error= 5.51D-05 at cycle  16 NSaved=  16.
 NSaved=16 IEnMin=16 EnMin= -504.816632400504     IErMin=15 ErrMin= 5.04D-05
 ErrMax= 5.51D-05 EMaxC= 1.00D-01 BMatC= 2.98D-06 BMatP= 3.18D-06
 IDIUse=1 WtCom= 1.00D+00 WtEn= 0.00D+00
 Coeff-Com: -0.352D-04 0.330D-03-0.124D-03-0.148D-03-0.462D-03 0.154D-02
 Coeff-Com: -0.565D-03-0.595D-02-0.188D-01-0.157D-01 0.280D-01 0.554D-01
 Coeff-Com:  0.252D-01-0.307D+00 0.673D-01 0.117D+01
 Coeff:     -0.352D-04 0.330D-03-0.124D-03-0.148D-03-0.462D-03 0.154D-02
 Coeff:     -0.565D-03-0.595D-02-0.188D-01-0.157D-01 0.280D-01 0.554D-01
 Coeff:      0.252D-01-0.307D+00 0.673D-01 0.117D+01
 Gap=     0.083 Goal=   None    Shift=    0.000
 Gap=     0.155 Goal=   None    Shift=    0.000
 RMSDP=4.69D-06 MaxDP=2.17D-04 DE=-1.08D-06 OVMax= 1.03D-03

 Cycle  21  Pass 1  IDiag  1:
 E= -504.816633818415     Delta-E=       -0.000001417912 Rises=F Damp=F
 DIIS: error= 4.31D-05 at cycle  17 NSaved=  17.
 NSaved=17 IEnMin=17 EnMin= -504.816633818415     IErMin=17 ErrMin= 4.31D-05
 ErrMax= 4.31D-05 EMaxC= 1.00D-01 BMatC= 7.41D-07 BMatP= 2.98D-06
 IDIUse=1 WtCom= 1.00D+00 WtEn= 0.00D+00
 Coeff-Com: -0.536D-04 0.136D-03-0.494D-04-0.783D-04 0.264D-03 0.484D-03
 Coeff-Com:  0.545D-03-0.466D-02-0.151D-01-0.644D-02 0.219D-01 0.452D-01
 Coeff-Com:  0.168D-01-0.278D+00-0.313D+00 0.218D+00 0.131D+01
 Coeff:     -0.536D-04 0.136D-03-0.494D-04-0.783D-04 0.264D-03 0.484D-03
 Coeff:      0.545D-03-0.466D-02-0.151D-01-0.644D-02 0.219D-01 0.452D-01
 Coeff:      0.168D-01-0.278D+00-0.313D+00 0.218D+00 0.131D+01
 Gap=     0.083 Goal=   None    Shift=    0.000
 Gap=     0.155 Goal=   None    Shift=    0.000
 RMSDP=4.60D-06 MaxDP=2.02D-04 DE=-1.42D-06 OVMax= 1.03D-03

 Cycle  22  Pass 1  IDiag  1:
 E= -504.816634444631     Delta-E=       -0.000000626216 Rises=F Damp=F
 DIIS: error= 9.12D-06 at cycle  18 NSaved=  18.
 NSaved=18 IEnMin=18 EnMin= -504.816634444631     IErMin=18 ErrMin= 9.12D-06
 ErrMax= 9.12D-06 EMaxC= 1.00D-01 BMatC= 4.43D-08 BMatP= 7.41D-07
 IDIUse=1 WtCom= 1.00D+00 WtEn= 0.00D+00
 Coeff-Com: -0.518D-06 0.270D-04 0.403D-04-0.834D-05 0.149D-03-0.140D-03
 Coeff-Com:  0.677D-04-0.724D-03 0.118D-02 0.439D-02 0.138D-02-0.783D-02
 Coeff-Com: -0.162D-01-0.112D-01-0.196D-01-0.108D+00 0.115D+00 0.104D+01
 Coeff:     -0.518D-06 0.270D-04 0.403D-04-0.834D-05 0.149D-03-0.140D-03
 Coeff:      0.677D-04-0.724D-03 0.118D-02 0.439D-02 0.138D-02-0.783D-02
 Coeff:     -0.162D-01-0.112D-01-0.196D-01-0.108D+00 0.115D+00 0.104D+01
 Gap=     0.083 Goal=   None    Shift=    0.000
 Gap=     0.155 Goal=   None    Shift=    0.000
 RMSDP=1.83D-06 MaxDP=6.22D-05 DE=-6.26D-07 OVMax= 4.70D-04

 Cycle  23  Pass 1  IDiag  1:
 E= -504.816634511734     Delta-E=       -0.000000067103 Rises=F Damp=F
 DIIS: error= 3.67D-06 at cycle  19 NSaved=  19.
 NSaved=19 IEnMin=19 EnMin= -504.816634511734     IErMin=19 ErrMin= 3.67D-06
 ErrMax= 3.67D-06 EMaxC= 1.00D-01 BMatC= 1.41D-08 BMatP= 4.43D-08
 IDIUse=1 WtCom= 1.00D+00 WtEn= 0.00D+00
 Coeff-Com:  0.626D-05 0.387D-05 0.142D-04 0.991D-05 0.462D-04-0.918D-04
 Coeff-Com: -0.710D-04 0.595D-03 0.151D-02 0.128D-02-0.201D-02-0.533D-02
 Coeff-Com: -0.689D-02 0.265D-01 0.306D-01-0.467D-01-0.164D+00 0.359D+00
 Coeff-Com:  0.806D+00
 Coeff:      0.626D-05 0.387D-05 0.142D-04 0.991D-05 0.462D-04-0.918D-04
 Coeff:     -0.710D-04 0.595D-03 0.151D-02 0.128D-02-0.201D-02-0.533D-02
 Coeff:     -0.689D-02 0.265D-01 0.306D-01-0.467D-01-0.164D+00 0.359D+00
 Coeff:      0.806D+00
 Gap=     0.083 Goal=   None    Shift=    0.000
 Gap=     0.155 Goal=   None    Shift=    0.000
 RMSDP=5.06D-07 MaxDP=2.66D-05 DE=-6.71D-08 OVMax= 1.58D-04

 Cycle  24  Pass 1  IDiag  1:
 E= -504.816634522321     Delta-E=       -0.000000010587 Rises=F Damp=F
 DIIS: error= 2.80D-06 at cycle  20 NSaved=  20.
 NSaved=20 IEnMin=20 EnMin= -504.816634522321     IErMin=20 ErrMin= 2.80D-06
 ErrMax= 2.80D-06 EMaxC= 1.00D-01 BMatC= 7.58D-09 BMatP= 1.41D-08
 IDIUse=1 WtCom= 1.00D+00 WtEn= 0.00D+00
 Coeff-Com:  0.144D-05-0.651D-05-0.822D-05 0.640D-05-0.329D-05 0.325D-06
 Coeff-Com: -0.240D-04 0.523D-03-0.385D-03-0.139D-02-0.879D-03 0.182D-02
 Coeff-Com:  0.241D-02 0.648D-02 0.756D-02 0.263D-01-0.654D-01-0.164D+00
 Coeff-Com:  0.279D+00 0.908D+00
 Coeff:      0.144D-05-0.651D-05-0.822D-05 0.640D-05-0.329D-05 0.325D-06
 Coeff:     -0.240D-04 0.523D-03-0.385D-03-0.139D-02-0.879D-03 0.182D-02
 Coeff:      0.241D-02 0.648D-02 0.756D-02 0.263D-01-0.654D-01-0.164D+00
 Coeff:      0.279D+00 0.908D+00
 Gap=     0.083 Goal=   None    Shift=    0.000
 Gap=     0.155 Goal=   None    Shift=    0.000
 RMSDP=3.65D-07 MaxDP=1.67D-05 DE=-1.06D-08 OVMax= 1.07D-04

 Cycle  25  Pass 1  IDiag  1:
 E= -504.816634527474     Delta-E=       -0.000000005153 Rises=F Damp=F
 DIIS: error= 1.36D-06 at cycle  21 NSaved=  20.
 NSaved=20 IEnMin=20 EnMin= -504.816634527474     IErMin=20 ErrMin= 1.36D-06
 ErrMax= 1.36D-06 EMaxC= 1.00D-01 BMatC= 2.11D-09 BMatP= 7.58D-09
 IDIUse=1 WtCom= 1.00D+00 WtEn= 0.00D+00
 Coeff-Com:  0.599D-06-0.825D-05-0.490D-06-0.112D-04-0.355D-05 0.181D-04
 Coeff-Com: -0.349D-04-0.372D-03-0.337D-03 0.395D-03 0.660D-03 0.898D-03
 Coeff-Com: -0.559D-02-0.264D-02 0.235D-01 0.302D-01-0.164D+00-0.235D+00
 Coeff-Com:  0.209D+00 0.114D+01
 Coeff:      0.599D-06-0.825D-05-0.490D-06-0.112D-04-0.355D-05 0.181D-04
 Coeff:     -0.349D-04-0.372D-03-0.337D-03 0.395D-03 0.660D-03 0.898D-03
 Coeff:     -0.559D-02-0.264D-02 0.235D-01 0.302D-01-0.164D+00-0.235D+00
 Coeff:      0.209D+00 0.114D+01
 Gap=     0.083 Goal=   None    Shift=    0.000
 Gap=     0.155 Goal=   None    Shift=    0.000
 RMSDP=2.97D-07 MaxDP=1.54D-05 DE=-5.15D-09 OVMax= 9.04D-05

 Cycle  26  Pass 1  IDiag  1:
 E= -504.816634529935     Delta-E=       -0.000000002460 Rises=F Damp=F
 DIIS: error= 4.15D-07 at cycle  22 NSaved=  20.
 NSaved=20 IEnMin=20 EnMin= -504.816634529935     IErMin=20 ErrMin= 4.15D-07
 ErrMax= 4.15D-07 EMaxC= 1.00D-01 BMatC= 2.06D-10 BMatP= 2.11D-09
 IDIUse=1 WtCom= 1.00D+00 WtEn= 0.00D+00
 Coeff-Com: -0.305D-05 0.314D-05-0.143D-05-0.143D-04 0.492D-05-0.576D-07
 Coeff-Com:  0.519D-03 0.570D-03-0.362D-03-0.139D-02-0.104D-02 0.399D-02
 Coeff-Com:  0.354D-02-0.151D-01-0.102D-01 0.521D-01-0.349D-01-0.211D+00
 Coeff-Com:  0.416D-01 0.117D+01
 Coeff:     -0.305D-05 0.314D-05-0.143D-05-0.143D-04 0.492D-05-0.576D-07
 Coeff:      0.519D-03 0.570D-03-0.362D-03-0.139D-02-0.104D-02 0.399D-02
 Coeff:      0.354D-02-0.151D-01-0.102D-01 0.521D-01-0.349D-01-0.211D+00
 Coeff:      0.416D-01 0.117D+01
 Gap=     0.083 Goal=   None    Shift=    0.000
 Gap=     0.155 Goal=   None    Shift=    0.000
 RMSDP=1.76D-07 MaxDP=8.52D-06 DE=-2.46D-09 OVMax= 5.01D-05

 Cycle  27  Pass 1  IDiag  1:
 E= -504.816634530336     Delta-E=       -0.000000000401 Rises=F Damp=F
 DIIS: error= 3.55D-07 at cycle  23 NSaved=  20.
 NSaved=20 IEnMin=20 EnMin= -504.816634530336     IErMin=20 ErrMin= 3.55D-07
 ErrMax= 3.55D-07 EMaxC= 1.00D-01 BMatC= 1.40D-10 BMatP= 2.06D-10
 IDIUse=1 WtCom= 1.00D+00 WtEn= 0.00D+00
 Coeff-Com: -0.192D-05 0.204D-05-0.714D-06 0.369D-05 0.258D-04 0.234D-03
 Coeff-Com:  0.194D-03-0.244D-03-0.443D-03-0.375D-03 0.258D-02 0.570D-03
 Coeff-Com: -0.113D-01-0.521D-02 0.559D-01 0.164D-01-0.148D+00-0.179D+00
 Coeff-Com:  0.526D+00 0.743D+00
 Coeff:     -0.192D-05 0.204D-05-0.714D-06 0.369D-05 0.258D-04 0.234D-03
 Coeff:      0.194D-03-0.244D-03-0.443D-03-0.375D-03 0.258D-02 0.570D-03
 Coeff:     -0.113D-01-0.521D-02 0.559D-01 0.164D-01-0.148D+00-0.179D+00
 Coeff:      0.526D+00 0.743D+00
 Gap=     0.083 Goal=   None    Shift=    0.000
 Gap=     0.155 Goal=   None    Shift=    0.000
 RMSDP=5.74D-08 MaxDP=2.25D-06 DE=-4.01D-10 OVMax= 1.40D-05

 Cycle  28  Pass 1  IDiag  1:
 E= -504.816634530430     Delta-E=       -0.000000000095 Rises=F Damp=F
 DIIS: error= 2.52D-07 at cycle  24 NSaved=  20.
 NSaved=20 IEnMin=20 EnMin= -504.816634530430     IErMin=20 ErrMin= 2.52D-07
 ErrMax= 2.52D-07 EMaxC= 1.00D-01 BMatC= 3.44D-11 BMatP= 1.40D-10
 IDIUse=1 WtCom= 1.00D+00 WtEn= 0.00D+00
 Coeff-Com:  0.104D-05 0.144D-05 0.124D-05 0.190D-04 0.192D-04-0.846D-05
 Coeff-Com: -0.756D-04-0.383D-04-0.129D-03 0.854D-03-0.392D-03-0.296D-02
 Coeff-Com:  0.887D-03 0.210D-01 0.117D-01-0.372D-01-0.957D-01 0.324D-02
 Coeff-Com:  0.293D+00 0.805D+00
 Coeff:      0.104D-05 0.144D-05 0.124D-05 0.190D-04 0.192D-04-0.846D-05
 Coeff:     -0.756D-04-0.383D-04-0.129D-03 0.854D-03-0.392D-03-0.296D-02
 Coeff:      0.887D-03 0.210D-01 0.117D-01-0.372D-01-0.957D-01 0.324D-02
 Coeff:      0.293D+00 0.805D+00
 Gap=     0.083 Goal=   None    Shift=    0.000
 Gap=     0.155 Goal=   None    Shift=    0.000
 RMSDP=3.41D-08 MaxDP=9.94D-07 DE=-9.48D-11 OVMax= 9.24D-06

 Cycle  29  Pass 1  IDiag  1:
 E= -504.816634530460     Delta-E=       -0.000000000029 Rises=F Damp=F
 DIIS: error= 6.68D-08 at cycle  25 NSaved=  20.
 NSaved=20 IEnMin=20 EnMin= -504.816634530460     IErMin=20 ErrMin= 6.68D-08
 ErrMax= 6.68D-08 EMaxC= 1.00D-01 BMatC= 5.86D-12 BMatP= 3.44D-11
 IDIUse=1 WtCom= 1.00D+00 WtEn= 0.00D+00
 Coeff-Com:  0.492D-06-0.826D-07 0.296D-05 0.981D-06 0.675D-05-0.173D-04
 Coeff-Com: -0.704D-04-0.123D-03 0.202D-03 0.187D-03 0.905D-04 0.315D-03
 Coeff-Com:  0.185D-02-0.248D-03-0.242D-02-0.740D-02-0.234D-01-0.203D-01
 Coeff-Com:  0.191D+00 0.861D+00
 Coeff:      0.492D-06-0.826D-07 0.296D-05 0.981D-06 0.675D-05-0.173D-04
 Coeff:     -0.704D-04-0.123D-03 0.202D-03 0.187D-03 0.905D-04 0.315D-03
 Coeff:      0.185D-02-0.248D-03-0.242D-02-0.740D-02-0.234D-01-0.203D-01
 Coeff:      0.191D+00 0.861D+00
 Gap=     0.083 Goal=   None    Shift=    0.000
 Gap=     0.155 Goal=   None    Shift=    0.000
 RMSDP=9.40D-09 MaxDP=2.70D-07 DE=-2.93D-11 OVMax= 2.29D-06

 SCF Done:  E(UB3LYP) =  -504.816634530     A.U. after   29 cycles
             Convg  =    0.9402D-08             -V/T =  2.0043
 <Sx>= 0.0000 <Sy>= 0.0000 <Sz>= 0.5000 <S**2>= 0.8759 S= 0.5611
 <L.S>= 0.000000000000E+00
 KE= 5.026792240219D+02 PE=-2.494111503131D+03 EE= 8.279146901843D+02
 Annihilation of the first spin contaminant:
 S**2 before annihilation     0.8759,   after     0.7515
 Leave Link  502 at Thu May  1 03:06:40 2014, MaxMem= 4026531840 cpu:    1455.0
 (Enter /usr/caen/gaussian-09revc/g09/l801.exe)
 Range of M.O.s used for correlation:     1   312
 NBasis=   312 NAE=    45 NBE=    44 NFC=     0 NFV=     0
 NROrb=    312 NOA=    45 NOB=    44 NVA=   267 NVB=   268

 **** Warning!!: The smallest alpha delta epsilon is  0.82693233D-01

 Leave Link  801 at Thu May  1 03:06:42 2014, MaxMem= 4026531840 cpu:       0.3
 (Enter /usr/caen/gaussian-09revc/g09/l1101.exe)
 Using compressed storage, NAtomX=    30.
 Will process  31 centers per pass.
 Leave Link 1101 at Thu May  1 03:06:43 2014, MaxMem= 4026531840 cpu:       4.4
 (Enter /usr/caen/gaussian-09revc/g09/l1102.exe)
 Symmetrizing basis deriv contribution to polar:
 IMax=3 JMax=2 DiffMx= 0.00D+00
 Leave Link 1102 at Thu May  1 03:06:43 2014, MaxMem= 4026531840 cpu:       1.8
 (Enter /usr/caen/gaussian-09revc/g09/l1110.exe)
 Forming Gx(P) for the SCF density, NAtomX=    30.
 Integral derivatives from FoFDir/FoFCou, PRISM(SPDF).
 Do as many integral derivatives as possible in FoFDir.
 G2DrvN: MDV=    4026531496.
 G2DrvN: will do    31 centers at a time, making    1 passes doing MaxLOS=2.
 Calling FoFCou, ICntrl=  3107 FMM=F I1Cent=   0 AccDes= 0.00D+00.
 FoFCou: FMM=F IPFlag=           0 FMFlag=      100000 FMFlg1=           0
         NFxFlg=           0 DoJE=F BraDBF=F KetDBF=F FulRan=T
         Omega=  0.000000  0.000000  1.000000  0.000000  0.000000 ICntrl=    3107 IOpCl=  1
         NMat0=    1 NMatS0=    1 NMatT0=    0 NMatD0=    1 NMtDS0=    0 NMtDT0=    0
         I1Cent=           0 NGrid=           0.
 Symmetry not used in FoFCou.
 FoFDir/FoFCou used for L=0 through L=2.
 End of G2Drv Frequency-dependent properties file   721 does not exist.
 End of G2Drv Frequency-dependent properties file   722 does not exist.
 Leave Link 1110 at Thu May  1 03:09:02 2014, MaxMem= 4026531840 cpu:    1097.4
 (Enter /usr/caen/gaussian-09revc/g09/l1002.exe)
 Minotr:  UHF open shell wavefunction.
          IDoAtm=111111111111111111111111111111
          Direct CPHF calculation.
          Differentiating once with respect to nuclear coordinates.
          Requested convergence is 1.0D-06 RMS, and 1.0D-05 maximum.
          Secondary convergence is 1.0D-12 RMS, and 1.0D-12 maximum.
          NewPWx=T KeepS1=F KeepF1=F KeepIn=T MapXYZ=F SortEE=F KeepMc=T.
          MDV=    4026531536 using IRadAn=       2.
 Generate precomputed XC quadrature information.
          Keep R1 and R2 ints in memory in canonical form, NReq=2738891864.
 Symmetry not used in FoFDir.
 MinBra= 0 MaxBra= 2 Meth= 1.
 IRaf=       0 NMat=   1 IRICut=       1 DoRegI=T DoRafI=F ISym2E= 0 JSym2E=0.
          Solving linear equations simultaneously, MaxMat=       0.
          There are    93 degrees of freedom in the 1st order CPHF.  IDoFFX=5.
     87 vectors produced by pass  0 Test12= 2.56D-10 1.08D-07 XBig12= 4.79D-01 3.50D-01.
 AX will form    87 AO Fock derivatives at one time.
     87 vectors produced by pass  1 Test12= 2.56D-10 1.08D-07 XBig12= 6.67D-02 8.81D-02.
     87 vectors produced by pass  2 Test12= 2.56D-10 1.08D-07 XBig12= 4.96D-04 4.40D-03.
     87 vectors produced by pass  3 Test12= 2.56D-10 1.08D-07 XBig12= 2.68D-06 1.55D-04.
     73 vectors produced by pass  4 Test12= 2.56D-10 1.08D-07 XBig12= 1.70D-08 1.04D-05.
     18 vectors produced by pass  5 Test12= 2.56D-10 1.08D-07 XBig12= 6.69D-11 6.32D-07.
 Inverted reduced A of dimension   439 with in-core refinement.
 End of Minotr Frequency-dependent properties file   721 does not exist.
 End of Minotr Frequency-dependent properties file   722 does not exist.
 Leave Link 1002 at Thu May  1 03:12:36 2014, MaxMem= 4026531840 cpu:    1701.8
 (Enter /usr/caen/gaussian-09revc/g09/l601.exe)
 Copying SCF densities to generalized density rwf, IOpCl= 1 IROHF=0.

 **********************************************************************

            Population analysis using the SCF density.

 **********************************************************************

 Orbital symmetries:
 Alpha Orbitals:
       Occupied  (A) (A) (A) (A) (A) (A) (A) (A) (A) (A) (A) (A)
                 (A) (A) (A) (A) (A) (A) (A) (A) (A) (A) (A) (A)
                 (A) (A) (A) (A) (A) (A) (A) (A) (A) (A) (A) (A)
                 (A) (A) (A) (A) (A) (A) (A) (A) (A)
       Virtual   (A) (A) (A) (A) (A) (A) (A) (A) (A) (A) (A) (A)
                 (A) (A) (A) (A) (A) (A) (A) (A) (A) (A) (A) (A)
                 (A) (A) (A) (A) (A) (A) (A) (A) (A) (A) (A) (A)
                 (A) (A) (A) (A) (A) (A) (A) (A) (A) (A) (A) (A)
                 (A) (A) (A) (A) (A) (A) (A) (A) (A) (A) (A) (A)
                 (A) (A) (A) (A) (A) (A) (A) (A) (A) (A) (A) (A)
                 (A) (A) (A) (A) (A) (A) (A) (A) (A) (A) (A) (A)
                 (A) (A) (A) (A) (A) (A) (A) (A) (A) (A) (A) (A)
                 (A) (A) (A) (A) (A) (A) (A) (A) (A) (A) (A) (A)
                 (A) (A) (A) (A) (A) (A) (A) (A) (A) (A) (A) (A)
                 (A) (A) (A) (A) (A) (A) (A) (A) (A) (A) (A) (A)
                 (A) (A) (A) (A) (A) (A) (A) (A) (A) (A) (A) (A)
                 (A) (A) (A) (A) (A) (A) (A) (A) (A) (A) (A) (A)
                 (A) (A) (A) (A) (A) (A) (A) (A) (A) (A) (A) (A)
                 (A) (A) (A) (A) (A) (A) (A) (A) (A) (A) (A) (A)
                 (A) (A) (A) (A) (A) (A) (A) (A) (A) (A) (A) (A)
                 (A) (A) (A) (A) (A) (A) (A) (A) (A) (A) (A) (A)
                 (A) (A) (A) (A) (A) (A) (A) (A) (A) (A) (A) (A)
                 (A) (A) (A) (A) (A) (A) (A) (A) (A) (A) (A) (A)
                 (A) (A) (A) (A) (A) (A) (A) (A) (A) (A) (A) (A)
                 (A) (A) (A) (A) (A) (A) (A) (A) (A) (A) (A) (A)
                 (A) (A) (A) (A) (A) (A) (A) (A) (A) (A) (A) (A)
                 (A) (A) (A)
 Beta  Orbitals:
       Occupied  (A) (A) (A) (A) (A) (A) (A) (A) (A) (A) (A) (A)
                 (A) (A) (A) (A) (A) (A) (A) (A) (A) (A) (A) (A)
                 (A) (A) (A) (A) (A) (A) (A) (A) (A) (A) (A) (A)
                 (A) (A) (A) (A) (A) (A) (A) (A)
       Virtual   (A) (A) (A) (A) (A) (A) (A) (A) (A) (A) (A) (A)
                 (A) (A) (A) (A) (A) (A) (A) (A) (A) (A) (A) (A)
                 (A) (A) (A) (A) (A) (A) (A) (A) (A) (A) (A) (A)
                 (A) (A) (A) (A) (A) (A) (A) (A) (A) (A) (A) (A)
                 (A) (A) (A) (A) (A) (A) (A) (A) (A) (A) (A) (A)
                 (A) (A) (A) (A) (A) (A) (A) (A) (A) (A) (A) (A)
                 (A) (A) (A) (A) (A) (A) (A) (A) (A) (A) (A) (A)
                 (A) (A) (A) (A) (A) (A) (A) (A) (A) (A) (A) (A)
                 (A) (A) (A) (A) (A) (A) (A) (A) (A) (A) (A) (A)
                 (A) (A) (A) (A) (A) (A) (A) (A) (A) (A) (A) (A)
                 (A) (A) (A) (A) (A) (A) (A) (A) (A) (A) (A) (A)
                 (A) (A) (A) (A) (A) (A) (A) (A) (A) (A) (A) (A)
                 (A) (A) (A) (A) (A) (A) (A) (A) (A) (A) (A) (A)
                 (A) (A) (A) (A) (A) (A) (A) (A) (A) (A) (A) (A)
                 (A) (A) (A) (A) (A) (A) (A) (A) (A) (A) (A) (A)
                 (A) (A) (A) (A) (A) (A) (A) (A) (A) (A) (A) (A)
                 (A) (A) (A) (A) (A) (A) (A) (A) (A) (A) (A) (A)
                 (A) (A) (A) (A) (A) (A) (A) (A) (A) (A) (A) (A)
                 (A) (A) (A) (A) (A) (A) (A) (A) (A) (A) (A) (A)
                 (A) (A) (A) (A) (A) (A) (A) (A) (A) (A) (A) (A)
                 (A) (A) (A) (A) (A) (A) (A) (A) (A) (A) (A) (A)
                 (A) (A) (A) (A) (A) (A) (A) (A) (A) (A) (A) (A)
                 (A) (A) (A) (A)
 The electronic state is 2-A.
 Alpha  occ. eigenvalues --  -19.13625 -19.11343 -10.24534 -10.19977 -10.18727
 Alpha  occ. eigenvalues --  -10.18058 -10.17305 -10.17038 -10.16508 -10.16105
 Alpha  occ. eigenvalues --  -10.15468  -1.02957  -0.93343  -0.83166  -0.78625
 Alpha  occ. eigenvalues --   -0.74837  -0.69871  -0.69282  -0.69178  -0.60652
 Alpha  occ. eigenvalues --   -0.55721  -0.53652  -0.48306  -0.47934  -0.47071
 Alpha  occ. eigenvalues --   -0.45764  -0.45003  -0.44050  -0.42500  -0.41727
 Alpha  occ. eigenvalues --   -0.40327  -0.39630  -0.38925  -0.38867  -0.37401
 Alpha  occ. eigenvalues --   -0.36683  -0.36210  -0.35547  -0.34531  -0.33865
 Alpha  occ. eigenvalues --   -0.32928  -0.31549  -0.28749  -0.24944  -0.18619
 Alpha virt. eigenvalues --   -0.10350   0.02981   0.04952   0.05717   0.06524
 Alpha virt. eigenvalues --    0.08077   0.08310   0.08911   0.09277   0.09646
 Alpha virt. eigenvalues --    0.10584   0.11307   0.12367   0.13019   0.13435
 Alpha virt. eigenvalues --    0.13844   0.15157   0.15563   0.16217   0.16573
 Alpha virt. eigenvalues --    0.17788   0.19074   0.20377   0.21685   0.23263
 Alpha virt. eigenvalues --    0.24418   0.25411   0.26937   0.27476   0.28799
 Alpha virt. eigenvalues --    0.29300   0.30475   0.31637   0.32282   0.34418
 Alpha virt. eigenvalues --    0.36137   0.36864   0.38790   0.39905   0.40050
 Alpha virt. eigenvalues --    0.40591   0.42637   0.44360   0.45210   0.46457
 Alpha virt. eigenvalues --    0.47121   0.49112   0.52801   0.53661   0.54457
 Alpha virt. eigenvalues --    0.55464   0.55900   0.56257   0.56874   0.57176
 Alpha virt. eigenvalues --    0.57591   0.58790   0.59260   0.59500   0.60171
 Alpha virt. eigenvalues --    0.60449   0.61113   0.61169   0.61583   0.63148
 Alpha virt. eigenvalues --    0.63933   0.64553   0.65373   0.66002   0.66706
 Alpha virt. eigenvalues --    0.67870   0.68534   0.69583   0.71424   0.72660
 Alpha virt. eigenvalues --    0.75620   0.78627   0.82962   0.83580   0.86273
 Alpha virt. eigenvalues --    0.90676   0.92795   0.94208   0.95410   0.97192
 Alpha virt. eigenvalues --    0.97371   0.99158   0.99541   1.01979   1.04631
 Alpha virt. eigenvalues --    1.05887   1.10289   1.13463   1.14473   1.15245
 Alpha virt. eigenvalues --    1.16698   1.19711   1.25287   1.26239   1.29253
 Alpha virt. eigenvalues --    1.33745   1.36159   1.36437   1.37352   1.37624
 Alpha virt. eigenvalues --    1.39836   1.41164   1.42462   1.43880   1.44622
 Alpha virt. eigenvalues --    1.45576   1.46535   1.46991   1.48539   1.48929
 Alpha virt. eigenvalues --    1.49184   1.50147   1.50803   1.51638   1.52135
 Alpha virt. eigenvalues --    1.53244   1.53666   1.55591   1.57547   1.58441
 Alpha virt. eigenvalues --    1.59664   1.60297   1.61276   1.62479   1.63770
 Alpha virt. eigenvalues --    1.64250   1.65400   1.67770   1.68500   1.69089
 Alpha virt. eigenvalues --    1.70962   1.71905   1.73856   1.74240   1.74854
 Alpha virt. eigenvalues --    1.77539   1.78205   1.79181   1.80407   1.82821
 Alpha virt. eigenvalues --    1.85606   1.86689   1.88067   1.89541   1.91491
 Alpha virt. eigenvalues --    1.93411   1.95712   1.96805   1.98645   1.99586
 Alpha virt. eigenvalues --    2.02199   2.04971   2.05338   2.08744   2.09795
 Alpha virt. eigenvalues --    2.11189   2.12295   2.13973   2.17376   2.19434
 Alpha virt. eigenvalues --    2.21077   2.22881   2.24171   2.27112   2.27454
 Alpha virt. eigenvalues --    2.29282   2.31708   2.34437   2.35364   2.35561
 Alpha virt. eigenvalues --    2.37819   2.41741   2.42080   2.42413   2.43401
 Alpha virt. eigenvalues --    2.45034   2.45803   2.46564   2.47654   2.48863
 Alpha virt. eigenvalues --    2.49524   2.50513   2.51654   2.52359   2.52919
 Alpha virt. eigenvalues --    2.53774   2.53903   2.55887   2.58016   2.60800
 Alpha virt. eigenvalues --    2.61642   2.62656   2.64176   2.65226   2.66879
 Alpha virt. eigenvalues --    2.69234   2.70177   2.73717   2.74861   2.77030
 Alpha virt. eigenvalues --    2.78393   2.80090   2.81941   2.83120   2.85236
 Alpha virt. eigenvalues --    2.86548   2.88913   2.89516   2.91111   2.94171
 Alpha virt. eigenvalues --    2.96956   2.98154   3.00929   3.07645   3.09876
 Alpha virt. eigenvalues --    3.11734   3.15356   3.16325   3.18134   3.23559
 Alpha virt. eigenvalues --    3.27696   3.28484   3.32436   3.41026   3.45138
 Alpha virt. eigenvalues --    3.46932   3.74625   3.76444   3.77451   3.78824
 Alpha virt. eigenvalues --    3.79921   3.80459   3.80713   3.81789   3.82661
 Alpha virt. eigenvalues --    3.84205   3.85440   3.86882   3.96320   3.99002
 Alpha virt. eigenvalues --    4.09576   4.24901   4.27139   4.28691   4.34444
 Alpha virt. eigenvalues --    4.83678   4.88028   4.97239   5.09274   5.48027
 Alpha virt. eigenvalues --    5.57791  23.70991  23.76535  23.79904  23.89472
 Alpha virt. eigenvalues --   23.91212  23.92248  23.93591  23.94618  24.03790
 Alpha virt. eigenvalues --   49.81401  49.91463
  Beta  occ. eigenvalues --  -19.13632 -19.10041 -10.24265 -10.19119 -10.18652
[...]
 00482308,0.00231831,-0.00001381,0.00020140,0.00013149,0.00161711,-0.00
 053676,0.00052503,0.02764527,-0.00844249,0.00267707,-0.00037241,0.0011
 8669,-0.00021005,0.00131026,0.00117375,-0.00012548,-0.00027053,0.00043
 907,0.00003235,-0.00084097,-0.00035403,-0.00013703,-0.00001756,-0.0000
 9474,-0.00004617,-0.00009889,-0.00004444,0.00003124,0.00002595,0.00001
 318,-0.00003146,0.00001348,-0.00000101,-0.00000679,-0.00000281,0.00003
 963,-0.00000870,0.06757559,-0.06669503,0.00935661,-0.07550576,0.072227
 03,0.00009880,-0.00000066,-0.00000146,0.00000480,-0.00001587,-0.000006
 55,-0.00000690,-0.00000258,0.00000308,-0.00000025,0.00002297,0.0000058
 3,0.00023544,-0.00015540,0.00024112,-0.00008139,-0.00002435,-0.0000951
 1,-0.00008587,0.00002638,0.00001202,0.00062090,-0.00023815,-0.00043501
 ,-0.00006674,0.00009061,0.00004202,-0.00010204,0.00320015,-0.00106654,
 0.00043425,-0.00004442,0.00022068,-0.00089210,0.00075231,-0.00006729,-
 0.01650547,0.00441033,-0.00330151,-0.00029151,-0.00067797,0.00016261,0
 .00001129,-0.00083154,0.00030422,0.00004980,-0.00014190,-0.00018592,0.
 00024272,0.00006842,0.00033980,0.00016955,-0.00002718,-0.00000810,0.00
 010672,-0.00000701,-0.00000784,-0.00001258,0.00000311,0.00003371,0.000
 00049,0.00000520,0.00000813,0.00000262,-0.00002680,0.00000114,-0.03332
 002,0.00939162,-0.05151374,0.03753538,-0.01324251,0.05288271,0.0000017
 6,-0.00000884,0.00002428,0.00001112,-0.00000851,-0.00000087,-0.0000024
 6,0.00000484,0.00000017,-0.00000199,-0.00000113,-0.00000347,0.00000366
 ,0.00003288,0.00002826,-0.00010705,-0.00000234,-0.00002547,0.00001979,
 -0.00002075,-0.00001390,0.00007879,-0.00009413,0.00013498,0.00000591,-
 0.00003778,-0.00000746,0.00065710,0.00072283,0.00048087,0.00013083,0.0
 0009107,-0.00012676,0.00005174,-0.00006420,0.00008255,-0.00098856,0.00
 153520,0.00116686,-0.00011764,-0.00030859,0.00015741,0.00042799,0.0002
 3395,0.00036308,0.00047029,-0.00015631,-0.00017943,0.00045477,0.000269
 75,0.00008574,-0.00004014,-0.00009831,-0.00022117,0.00000319,-0.000013
 48,0.00001461,0.00001367,-0.00000583,0.00000150,-0.00000768,0.00000039
 ,-0.00001345,-0.00000292,0.00000686,-0.00000341,-0.10464092,-0.0878037
 2,-0.06253072,-0.01374580,-0.02259412,-0.01594174,0.11029088,-0.000051
 45,0.00000449,0.00000598,-0.00000961,0.00001551,0.00000177,0.00000020,
 -0.00000023,0.00000628,-0.00000084,-0.00001260,-0.00000556,-0.00015249
 ,-0.00009541,-0.00010028,0.00018739,0.00007500,0.00000106,-0.00001199,
 0.00005762,0.00002356,0.00024702,-0.00005587,-0.00002411,-0.00008912,0
 .00010192,0.00015711,-0.00100623,0.00065995,-0.00128277,0.00096822,0.0
 0014593,0.00063505,-0.00014453,0.00050536,0.00020007,-0.01320310,-0.02
 017232,-0.01598750,-0.00015464,0.00108472,0.00025862,0.00128110,-0.004
 27341,0.00468318,-0.00106001,-0.00143143,-0.00083114,-0.00008661,0.000
 27455,0.00008480,0.00021266,0.00029386,0.00006701,-0.00003430,-0.00001
 096,0.00000022,-0.00001734,0.00001480,-0.00000541,0.00002998,0.0000165
 8,0.00001261,0.00000936,-0.00001579,0.00000310,-0.08696663,-0.18042559
 ,-0.09465230,0.00390205,0.00735045,0.00540097,0.09685329,0.19814151,-0
 .00009235,0.00001303,0.00001046,-0.00000696,0.00001994,0.00000664,0.00
 000071,0.00000114,0.00000169,-0.00000795,-0.00002978,-0.00000684,-0.00
 036890,-0.00012005,-0.00010319,0.00017205,0.00005536,0.00011060,-0.000
 01074,0.00000880,0.00002457,-0.00000227,0.00000422,-0.00002028,0.00002
 859,0.00007694,-0.00001315,0.00047093,-0.00012092,0.00061134,-0.000074
 55,-0.00013304,-0.00003612,0.00026416,-0.00013441,0.00002016,0.0085792
 9,0.01284479,0.00902496,0.00026622,-0.00072055,0.00085286,-0.00040259,
 0.00278003,-0.00139839,0.00035919,0.00087927,0.00066497,-0.00001006,-0
 .00005738,-0.00017578,-0.00010054,0.00034189,0.00023566,-0.00005464,0.
 00000770,0.00000302,-0.00000195,0.00000600,-0.00002078,0.00000937,-0.0
 0000272,0.00000779,-0.00000249,0.00000358,0.00000773,-0.06258728,-0.09
 596662,-0.11524951,-0.00128897,-0.00213893,-0.00277334,0.06937530,0.10
 276975,0.12254617,-0.00004815,-0.00000223,0.00004188,0.00001150,-0.000
 00342,-0.00000100,0.00000123,0.00001176,-0.00000179,-0.00001028,-0.000
 02354,-0.00000450,-0.00046248,0.00009919,-0.00015449,0.00003540,-0.000
 00260,-0.00000442,-0.00000574,0.00003175,0.00002521,-0.00011555,0.0002
 9499,0.00015383,-0.00004084,-0.00001553,-0.00004806,0.00053044,-0.0004
 1287,-0.00042564,0.00000341,-0.00002625,-0.00007932,0.00001780,-0.0000
 9119,0.00015972,0.00005835,-0.00056551,-0.00175152,0.00095702,0.000207
 30,-0.00044865,-0.00019182,0.00015827,0.00044371,0.00003030,-0.0000406
 4,-0.00027548,-0.00003738,0.00003041,0.00012881,0.00013399,-0.00039925
 ,-0.00008888,-0.00001144,-0.00001049,0.00000932,0.00000849,-0.00000188
 ,0.00000296,0.00000399,0.00000109,-0.00001339,-0.00001175,-0.00000277,
 0.00000652,-0.09637390,0.01065510,0.10077486,-0.01282722,0.00289512,0.
 02811212,0.00704563,-0.00079074,-0.01473655,0.10118054,0.00011474,-0.0
 0001131,-0.00003040,0.00000063,-0.00002059,-0.00000657,0.00000024,-0.0
 0000381,-0.00000171,0.00001330,0.00003983,0.00001183,0.00073407,-0.000
 10000,0.00002520,-0.00010749,-0.00003768,-0.00011802,0.00003574,0.0000
 4178,-0.00002274,0.00042406,0.00010099,-0.00016220,0.00008802,-0.00017
 576,-0.00002624,-0.00040106,0.00126504,-0.00078514,0.00009859,-0.00007
 603,0.00002705,-0.00018870,0.00008549,-0.00024884,-0.01421666,0.002498
 94,0.02738843,0.00008638,-0.00503445,0.00326027,-0.00006481,0.00199323
 ,0.00096236,0.00028512,0.00024407,-0.00026726,-0.00000401,-0.00009270,
 -0.00006582,0.00015730,-0.00025081,-0.00077597,0.00004470,-0.00002715,
 -0.00001344,0.00000112,-0.00000389,0.00001882,-0.00000744,-0.00000352,
 0.00000340,0.00000992,0.00001340,-0.00000658,0.01066616,-0.04952670,-0
 .02268197,0.00309344,-0.00180065,-0.00800064,0.01144608,-0.00223674,-0
 .02039677,-0.01195954,0.05305353,0.00004367,-0.00000312,0.00009454,0.0
 0002731,-0.00003072,-0.00000897,-0.00000772,0.00001560,0.00000644,-0.0
 0002321,-0.00002367,-0.00000440,0.00016440,-0.00022397,0.00054472,-0.0
 0016136,-0.00009227,-0.00015297,-0.00013340,-0.00001365,0.00001528,0.0
 0029694,-0.00020015,0.00003922,-0.00008038,0.00011077,0.00002112,0.000
 10700,-0.00028997,0.00018945,0.00005882,-0.00000626,-0.00001816,0.0000
 0916,0.00009407,0.00018452,0.00751878,-0.00125757,-0.01649891,-0.00061
 708,0.00342817,-0.00042267,-0.00059193,-0.00086501,0.00085173,-0.00021
 012,0.00007548,0.00023118,-0.00002677,0.00001944,-0.00000028,0.0003239
 8,0.00058990,0.00064719,0.00010216,-0.00003611,0.00003012,0.00000520,0
 .00000328,0.00004123,0.00001350,0.00002087,-0.00001940,-0.00001742,-0.
 00004029,0.00000756,0.10014830,-0.02202793,-0.25230238,-0.00207561,0.0
 0017254,0.00527858,0.00719810,-0.00146701,-0.01437913,-0.11183061,0.02
 195928,0.27584435,-0.01727024,0.02156640,0.01442561,-0.00295166,0.0135
 9882,0.00793760,-0.00343058,0.00210664,-0.00035714,0.00089044,-0.01192
 520,-0.00660522,0.24759469,-0.01597850,0.06399210,-0.02592145,0.013431
 75,-0.01938277,-0.01480264,0.01825647,-0.01202576,-0.12221887,-0.06708
 337,0.01853797,-0.00092427,0.00155072,0.00073299,-0.00585777,0.0010584
 9,-0.00836365,-0.00070226,0.00069085,0.00229704,-0.00042656,0.00067391
 ,0.00278668,0.00193384,0.00026061,0.00501967,-0.00245406,0.00067399,0.
 00030877,-0.00004904,0.00094364,-0.00015226,0.00019503,-0.00003089,0.0
 0021749,-0.00063899,-0.00001912,-0.00003576,0.00073604,0.00014111,0.00
 042781,-0.04048821,-0.01552105,0.00257239,0.00084933,-0.00096422,-0.01
 924218,-0.00416373,0.00029693,0.00398845,-0.00193056,0.00264625,0.0221
 4849,-0.00074464,-0.00057696,0.00033282,-0.00021702,0.00061527,-0.0005
 4714,-0.00005219,0.00026639,0.00049715,0.00026670,-0.00070578,-0.00034
 207,0.06338803,0.01073196,-0.13777088,-0.03122132,0.00136478,-0.016315
 62,-0.00616960,-0.00007388,0.00165315,0.00150634,0.00476374,-0.0184931
 0,-0.00850139,-0.02511466,-0.02625658,-0.00059464,0.01586161,-0.012081
 81,0.00737270,0.00349189,-0.00229008,0.00197413,0.00319457,0.00550204,
 -0.00802547,0.00037905,-0.00210157,0.00131328,-0.00054429,-0.00111062,
 0.00075969,0.00005173,0.00017478,-0.00015430,-0.00028158,0.00031033,0.
 00050199,0.00046632,0.00000727,-0.00002628,-0.00008623,0.00000816,0.00
 002509,-0.00008686,0.00006195,-0.00004534,0.00002166,-0.00001623,0.000
 02899,-0.00006423,-0.00001278,-0.00001022,0.00005157,0.00002381,0.0000
 2086,-0.00051038,-0.07604097,-0.01111553,-0.00145341,-0.00164278,0.012
 29476,0.00258935,0.00009726,-0.03285176,-0.00022925,-0.00196673,0.0181
 4212,-0.00005984,0.00000339,-0.00013584,-0.00006366,0.00003525,-0.0000
 0573,0.00000538,-0.00002120,0.00002710,0.00003092,-0.00003550,0.000081
 91,0.10280928,0.46689051,0.00949171,-0.04342656,-0.09586580,-0.0009439
 3,0.01055368,0.00378081,0.00428410,-0.03058244,-0.01491794,-0.00060415
 ,0.00810624,0.00200780,0.02528910,0.00171297,-0.03307659,0.00131348,-0
 .00239668,0.00117507,-0.01992476,0.00966069,-0.01481501,-0.00197207,-0
 .00736822,0.00430883,0.00035691,-0.00011439,0.00008889,0.00044948,0.00
 351133,-0.00110198,0.00045577,-0.00112326,-0.00046223,0.00124499,-0.00
 000851,-0.00155302,-0.00104726,-0.00054833,-0.00078040,0.00052222,-0.0
 0012436,-0.00011415,-0.00010509,-0.00009054,0.00013072,-0.00004126,0.0
 0007085,-0.00005538,0.00012738,-0.00004689,-0.00004480,-0.00015928,-0.
 00006020,-0.00018647,-0.00151793,-0.00783774,-0.17386678,0.00080313,0.
 00005689,-0.01648321,-0.00015724,-0.00018995,-0.01231784,-0.00212576,-
 0.00161053,-0.00107481,0.00014440,0.00013786,0.00037422,0.00017327,-0.
 00004918,-0.00004304,-0.00006128,-0.00001900,-0.00002246,-0.00008461,0
 .00007144,-0.00034342,-0.09823511,0.01065689,0.46596193,-0.01832472,-0
 .01655371,-0.00829744,0.00103844,0.00515269,0.00193917,0.00024172,0.00
 102052,0.00068160,0.00010751,-0.00255639,-0.00041519,-0.11856751,-0.00
 622843,-0.01804760,0.00673222,-0.00366921,0.00553227,0.00535543,-0.005
 77129,0.00487541,0.02750434,0.02387644,-0.00951757,0.00073837,-0.00131
 067,0.00045309,0.00179970,-0.00237838,0.00326847,0.00015379,-0.0000713
 4,-0.00048294,-0.00027832,0.00030936,-0.00012205,0.00000128,0.00005299
 ,-0.00160477,0.00061026,-0.00017068,-0.00001660,-0.00007363,-0.0001749
 8,0.00001974,-0.00001003,0.00000753,-0.00003211,0.00008244,-0.00000016
 ,-0.00000402,-0.00013096,-0.00001986,-0.00008946,-0.02103422,-0.010776
 65,0.01838907,0.00141987,-0.00009842,-0.00212873,0.00064984,0.00011631
 ,-0.00192181,0.00080673,-0.00056344,0.00436538,0.00005552,0.00014325,-
 0.00022632,-0.00002403,-0.00010434,0.00012634,0.00003263,-0.00008876,-
 0.00009843,-0.00004876,0.00015182,0.00017423,-0.11863241,-0.10131572,0
 .08942755,0.27804603,-0.06231208,-0.05231065,0.00149029,-0.00223654,0.
 00862532,0.00269119,0.00000238,0.00320559,0.00304468,-0.00188735,-0.01
 602394,-0.00374172,-0.14242623,0.01123635,-0.03938877,0.01608679,-0.00
 439107,0.01031801,0.00617878,-0.00984225,0.00712867,0.06122440,0.03770
 503,-0.00599391,0.00006729,-0.00018603,-0.00111340,0.00779531,0.000137
 63,0.00671918,0.00063355,-0.00100911,-0.00202739,0.00082125,-0.0005925
 3,-0.00376109,-0.00408877,-0.00024704,-0.00550599,0.00287068,-0.000732
 38,-0.00032201,0.00022287,-0.00115820,0.00032276,-0.00024370,0.0001266
 6,-0.00030421,0.00084581,0.00007000,0.00010189,-0.00083871,-0.00018831
 ,-0.00049186,-0.03381440,0.00749497,0.01741914,-0.00062053,0.00106414,
 -0.00889941,0.00264115,0.00066551,-0.00098217,-0.00167443,-0.00130894,
 0.00458762,0.00110978,0.00077452,0.00038787,0.00056302,-0.00067687,0.0
 0038770,-0.00008005,-0.00019003,-0.00051498,-0.00044305,0.00071238,-0.
 00029343,0.10405474,-0.15100070,0.04522431,0.06093682,0.07968187,-0.00
 609551,-0.00304085,0.00836727,0.00028494,-0.00078904,-0.00019315,-0.00
 083284,0.00038090,0.00173269,-0.00064986,-0.00281230,0.00003492,0.0109
 9377,-0.00372484,0.00551281,-0.00078462,0.00115200,-0.00094652,-0.0007
 3350,0.00002843,0.00154237,-0.00734536,-0.00319318,0.00269281,-0.00034
 653,0.00017790,-0.00005728,0.00098475,-0.00084988,-0.00043162,-0.00010
 182,0.00039779,0.00005736,-0.00043768,-0.00035251,0.00039001,-0.000416
 39,0.00012006,0.00016687,-0.00006551,0.00001595,0.00004399,0.00010699,
 -0.00005969,-0.00004170,-0.00001043,-0.00001977,0.00000091,0.00001986,
 0.00004101,0.00004930,0.00001463,0.00001998,0.00006729,0.04132725,0.02
 897212,-0.01798874,0.00056683,0.00007689,0.00344818,0.00048448,-0.0003
 3662,0.00217853,0.00219143,0.00025494,-0.01006220,0.00014283,0.0000291
 1,-0.00004478,-0.00000219,-0.00004214,0.00003542,0.00000064,0.00000350
 ,-0.00003037,0.00000923,-0.00000204,0.00004503,0.05586779,0.04290617,-
 0.11143784,-0.10708321,-0.04403022,0.12512574,-0.00850543,-0.00433115,
 0.00272775,-0.00017964,0.00061632,0.00031640,0.00005443,0.00050629,0.0
 0021806,0.00064838,-0.00331524,-0.00096452,-0.02665098,-0.00237399,-0.
 00599017,0.00124003,-0.00384450,0.00071221,0.00095697,-0.00209664,0.00
 127095,0.01211664,0.00595764,-0.00135012,-0.00072475,-0.00002834,-0.00
 043309,0.00190585,0.00010424,0.00136508,0.00015434,-0.00020777,-0.0004
 8897,0.00014154,-0.00027051,-0.00084073,-0.00088337,-0.00007601,-0.001
 15012,0.00058285,-0.00014898,-0.00006378,0.00003736,-0.00023373,0.0000
 4713,-0.00004284,0.00002038,-0.00006623,0.00015558,0.00002429,0.000027
 77,-0.00017182,-0.00004219,-0.00007812,-0.00450258,0.00248980,0.001191
 87,-0.00015291,-0.00033148,-0.00143193,0.00029638,-0.00026796,-0.00065
 550,-0.00014695,-0.00076684,0.00064011,0.00024214,0.00017636,0.0000947
 1,0.00008624,-0.00015040,0.00008240,0.00000873,-0.00006462,-0.00013425
 ,-0.00007913,0.00016427,-0.00004809,0.04329475,-0.01803602,-0.00843016
 ,-0.05064950,-0.01636903,0.01235996,0.51169933,0.02662290,0.01151602,0
 .00233699,0.00107858,-0.00593575,-0.00152071,-0.00064279,-0.00086196,-
 0.00129871,0.00039285,0.00862060,0.00206229,0.09920157,-0.01134493,0.0
 2770729,-0.01257780,-0.00004512,-0.00874523,-0.00409465,0.00746607,-0.
 00611425,-0.04479316,-0.02773002,0.00243569,-0.00023756,0.00044094,0.0
 0071915,-0.00720727,-0.00064239,-0.00539966,-0.00050619,0.00085879,0.0
 0186882,-0.00072902,0.00070821,0.00326050,0.00413642,0.00023146,0.0048
 0671,-0.00258028,0.00067389,0.00029367,-0.00027137,0.00108306,-0.00033
 442,0.00026072,-0.00007664,0.00025802,-0.00081479,-0.00006416,-0.00010
 217,0.00076409,0.00014978,0.00047059,0.01627997,-0.00808143,-0.0017188
 2,0.00089722,-0.00104337,0.00582590,-0.00181583,-0.00164617,0.00092332
 ,0.00133650,0.00197020,-0.00297206,-0.00117762,-0.00079385,-0.00050690
 ,-0.00054824,0.00065572,-0.00033074,0.00011447,0.00020294,0.00053139,0
 .00040660,-0.00064551,0.00033588,-0.17440638,-0.02121773,0.00772503,0.
 07776220,0.09997232,-0.01819111,0.14187661,-0.01369936,0.00566614,0.00
 169619,0.00106020,0.00021472,-0.00147801,-0.00040099,-0.00011895,0.000
 19949,0.00011672,0.00032692,0.00133066,0.00059212,0.02090393,-0.001049
 81,0.00555875,-0.00384781,-0.00105422,-0.00210015,-0.00070868,0.002146
 75,-0.00071006,-0.00925409,-0.00620051,0.00072095,0.00018147,-0.000005
 44,0.00030195,-0.00190458,-0.00004568,-0.00112629,-0.00012773,0.000242
 65,0.00040076,-0.00013247,0.00016903,0.00064633,0.00086191,0.00008566,
 0.00107081,-0.00055483,0.00012996,0.00006344,-0.00001981,0.00019806,-0
 .00006882,0.00004563,-0.00002703,0.00005326,-0.00014720,-0.00000984,-0
 .00002079,0.00014623,0.00003666,0.00009943,0.00366015,-0.00071094,-0.0
 0166904,0.00003730,-0.00034846,0.00118958,-0.00135238,0.00113483,0.000
 86272,0.00005564,0.00113791,0.00013586,-0.00021443,-0.00019994,-0.0001
 2164,-0.00009682,0.00012814,-0.00006345,0.00001650,0.00006096,0.000088
 31,0.00007590,-0.00009974,0.00008286,-0.03729845,0.00286973,0.00166329
 ,0.02561145,0.02077515,-0.01053470,-0.09117081,-0.03583906,0.01949359,
 -0.00010531,0.00002823,-0.00049156,-0.00007075,0.00023377,0.00001446,0
 .00002080,-0.00008211,0.00004011,-0.00000428,0.00003881,0.00002164,-0.
 00537556,0.00073564,-0.00056991,0.00131389,-0.00056971,0.00035914,0.00
 009708,-0.00060661,0.00007790,0.00238000,0.00088097,-0.00033742,-0.000
 28307,-0.00002792,-0.00008402,0.00056320,0.00013424,0.00028504,0.00003
 956,-0.00005052,-0.00014915,0.00003056,-0.00008794,-0.00023231,-0.0003
 1534,-0.00002834,-0.00030680,0.00016857,-0.00004056,-0.00002036,0.0000
 1599,-0.00006749,0.00002006,-0.00002008,0.00000328,-0.00001657,0.00005
 432,0.00000402,0.00000976,-0.00005054,-0.00001053,-0.00002792,-0.00041
 925,0.00064842,0.00002202,-0.00002960,0.00007681,-0.00025182,0.0000432
 8,-0.00006253,-0.00013147,-0.00001292,-0.00011911,-0.00008138,0.000084
 43,0.00007011,0.00005061,0.00003330,-0.00005045,0.00002012,-0.00000115
 ,-0.00002464,-0.00004150,-0.00002035,0.00003980,-0.00002577,0.00472828
 ,0.00210618,0.00132639,0.00239797,0.00098026,-0.00044995,-0.48093165,-
 0.11872774,0.08914515,0.47566860,-0.00123009,-0.00082989,0.00082783,-0
 .00000947,-0.00003584,0.00001738,-0.00002167,0.00006702,-0.00001480,0.
 00030442,-0.00048762,-0.00023855,-0.00013186,-0.00178934,0.00000436,0.
 00101559,0.00049906,0.00090317,-0.00010219,-0.00018566,-0.00006224,0.0
 0075247,0.00053040,0.00005652,-0.00020990,0.00021733,-0.00023001,0.000
 40636,0.00008755,0.00018336,0.00000585,-0.00002831,-0.00006208,0.00003
 932,-0.00007201,-0.00017197,-0.00028828,0.00000032,-0.00020466,0.00012
 856,-0.00003180,-0.00001680,0.00003022,-0.00006119,0.00002347,-0.00002
 058,-0.00000381,-0.00001077,0.00005425,0.00000590,0.00001103,-0.000041
 09,-0.00000587,-0.00002364,-0.00026842,0.00029634,-0.00055053,-0.00000
 346,-0.00004105,-0.00004295,-0.00006028,0.00020584,-0.00007035,0.00008
 127,-0.00002359,-0.00004776,0.00008599,0.00004282,0.00005993,0.0000463
 4,-0.00003721,0.00001366,-0.00001892,-0.00000360,-0.00003480,-0.000031
 00,0.00003412,-0.00003606,0.00156920,-0.00639302,-0.00189140,-0.017677
 50,-0.01161425,0.00286744,-0.09898079,-0.04072159,0.01472683,0.1145756
 6,0.06037896,-0.00025675,-0.00029102,0.00047740,-0.00000446,-0.0000301
 4,0.00000514,-0.00004443,0.00000111,-0.00005474,0.00007464,-0.00014810
 ,-0.00008911,-0.00066483,-0.00143555,0.00068084,0.00075372,0.00056645,
 -0.00029605,-0.00001377,-0.00002131,-0.00010775,0.00028426,0.00003415,
 -0.00031359,-0.00019845,0.00012294,-0.00014252,0.00007649,-0.00010829,
 0.00005541,-0.00000808,0.00000107,0.00002184,-0.00001169,0.00001917,0.
 00002693,0.00004718,-0.00000671,-0.00000081,-0.00000202,0.00000754,-0.
 00000589,-0.00001099,0.00001229,-0.00000220,0.00000410,0.00000530,-0.0
 0000069,-0.00000977,-0.00000046,0.00000174,0.00000826,-0.00000320,0.00
 000363,0.00023607,0.00020899,-0.00040039,-0.00006555,0.00031841,-0.000
 02784,0.00013940,0.00000818,0.00050094,-0.00009854,0.00006797,-0.00014
 106,-0.00002151,0.00000542,0.00000140,-0.00000528,0.00000756,-0.000002
 16,-0.00000172,-0.00000054,0.00001241,0.00000486,-0.00001596,-0.000004
 45,0.00049670,-0.00162432,-0.00092838,-0.00477553,-0.00322790,0.000277
 42,0.09224219,0.02151258,-0.01738500,-0.08817446,-0.01598563,0.0178375
 4\\-0.00000763,-0.00000821,0.00000206,-0.00000141,-0.00000018,0.000000
 26,-0.00000150,-0.00000118,0.00000006,-0.00000163,-0.00000256,0.000000
 63,-0.00001698,-0.00001135,-0.00001516,0.00000232,0.00001399,0.0000016
 8,-0.00000174,-0.00000079,0.00000655,0.00000624,0.00000438,-0.00000063
 ,-0.00000146,0.00000013,0.00000062,0.00000142,0.00000101,0.00000011,0.
 00000066,0.00000092,0.00000052,0.,0.00000074,0.00000072,-0.00000031,0.
 00000144,0.00000021,0.00000121,0.00000143,0.00000116,0.00000040,0.0000
 0030,0.00000099,-0.00000057,0.00000127,0.00000202,-0.00000057,0.000001
 56,0.00000168,-0.00000118,0.00000078,0.00000169,0.00000569,0.00000464,
 0.00000043,-0.00000019,-0.00000004,-0.00000170,0.00000072,0.00000110,-
 0.00000266,-0.00000999,-0.00000836,0.00000673,0.00000071,0.00000088,0.
 00000033,0.00000051,0.00000087,0.00000019,0.00000083,0.00000056,-0.000
 00085,0.00000015,0.00000009,-0.00000062,0.00003179,-0.00000986,0.00000
 012,-0.00001046,-0.00000806,-0.00000495,0.00001274,0.00000755,-0.00000
 429,-0.00000975,0.00000697,0.00000208\\\@
 Job cpu time:  0 days  8 hours 27 minutes 41.9 seconds.
 File lengths (MBytes):  RWF=  73829 Int=      0 D2E=      0 Chk=     26 Scr=      1
 Normal termination of Gaussian 09 at Thu May  1 17:53:48 2014.
