 Entering Gaussian System, Link 0=g09
 Initial command:
 /usr/caen/gaussian-09revc/g09/l1.exe /scratch/avioli_flux/hetanjin/scratch/Gau-82962.inp -scrdir=/scratch/avioli_flux/hetanjin/scratch/
 Entering Link 1 = /usr/caen/gaussian-09revc/g09/l1.exe PID=     82963.
  
 Copyright (c) 1988,1990,1992,1993,1995,1998,2003,2009,2011,
            Gaussian, Inc.  All Rights Reserved.
  
 This is part of the Gaussian(R) 09 program.  It is based on
 the Gaussian(R) 03 system (copyright 2003, Gaussian, Inc.),
 the Gaussian(R) 98 system (copyright 1998, Gaussian, Inc.),
 the Gaussian(R) 94 system (copyright 1995, Gaussian, Inc.),
 the Gaussian 92(TM) system (copyright 1992, Gaussian, Inc.),
 the Gaussian 90(TM) system (copyright 1990, Gaussian, Inc.),
 the Gaussian 88(TM) system (copyright 1988, Gaussian, Inc.),
 the Gaussian 86(TM) system (copyright 1986, Carnegie Mellon
 University), and the Gaussian 82(TM) system (copyright 1983,
 Carnegie Mellon University). Gaussian is a federally registered
 trademark of Gaussian, Inc.
  
 This software contains proprietary and confidential information,
 including trade secrets, belonging to Gaussian, Inc.
  
 This software is provided under written license and may be
 used, copied, transmitted, or stored only in accord with that
 written license.
  
 The following legend is applicable only to US Government
 contracts under FAR:
  
                    RESTRICTED RIGHTS LEGEND
  
 Use, reproduction and disclosure by the US Government is
 subject to restrictions as set forth in subparagraphs (a)
 and (c) of the Commercial Computer Software - Restricted
 Rights clause in FAR 52.227-19.
  
 Gaussian, Inc.
 340 Quinnipiac St., Bldg. 40, Wallingford CT 06492
  
  
 ---------------------------------------------------------------
 Warning -- This program may not be used in any manner that
 competes with the business of Gaussian, Inc. or will provide
 assistance to any competitor of Gaussian, Inc.  The licensee
 of this program is prohibited from giving any competitor of
 Gaussian, Inc. access to this program.  By using this program,
 the user acknowledges that Gaussian, Inc. is engaged in the
 business of creating and licensing software in the field of
 computational chemistry and represents and warrants to the
 licensee that it is not a competitor of Gaussian, Inc. and that
 it will not use this program in any manner prohibited above.
 ---------------------------------------------------------------
  

 Cite this work as:
 Gaussian 09, Revision C.01,
 M. J. Frisch, G. W. Trucks, H. B. Schlegel, G. E. Scuseria, 
 M. A. Robb, J. R. Cheeseman, G. Scalmani, V. Barone, B. Mennucci, 
 G. A. Petersson, H. Nakatsuji, M. Caricato, X. Li, H. P. Hratchian, 
 A. F. Izmaylov, J. Bloino, G. Zheng, J. L. Sonnenberg, M. Hada, 
 M. Ehara, K. Toyota, R. Fukuda, J. Hasegawa, M. Ishida, T. Nakajima, 
 Y. Honda, O. Kitao, H. Nakai, T. Vreven, J. A. Montgomery, Jr., 
 J. E. Peralta, F. Ogliaro, M. Bearpark, J. J. Heyd, E. Brothers, 
 K. N. Kudin, V. N. Staroverov, T. Keith, R. Kobayashi, J. Normand, 
 K. Raghavachari, A. Rendell, J. C. Burant, S. S. Iyengar, J. Tomasi, 
 M. Cossi, N. Rega, J. M. Millam, M. Klene, J. E. Knox, J. B. Cross, 
 V. Bakken, C. Adamo, J. Jaramillo, R. Gomperts, R. E. Stratmann, 
 O. Yazyev, A. J. Austin, R. Cammi, C. Pomelli, J. W. Ochterski, 
 R. L. Martin, K. Morokuma, V. G. Zakrzewski, G. A. Voth, 
 P. Salvador, J. J. Dannenberg, S. Dapprich, A. D. Daniels, 
 O. Farkas, J. B. Foresman, J. V. Ortiz, J. Cioslowski, 
 and D. J. Fox, Gaussian, Inc., Wallingford CT, 2010.
 
 ******************************************
 Gaussian 09:  EM64L-G09RevC.01 23-Sep-2011
                21-Apr-2014 
 ******************************************
 %mem=30GB
 %nprocshared=8
 Will use up to    8 processors via shared memory.
 %chk=TS_2a_1.chk
 -------------------------------
 #p cbs-qb3 opt=(TS,calcfc) freq
 -------------------------------
 1/5=1,10=4,14=-1,18=20,26=3,38=1/1,3;
 2/9=110,12=2,17=6,18=5,40=1/2;
 3/5=4,6=6,7=700,11=2,16=1,25=1,30=1,71=2,74=-5/1,2,3;
 4//1;
 5/5=2,38=5/2;
 8/6=4,10=90,11=11/1;
 11/6=1,8=1,9=11,15=111,16=1/1,2,10;
 10/6=1,7=6,13=1/2;
 6/7=2,8=2,9=2,10=2,28=1/1;
 7/10=1,18=20,25=1/1,2,3,16;
 1/5=1,10=4,14=-1,18=20/3(2);
 2/9=110/2;
 99//99;
 2/9=110/2;
 3/5=4,6=6,7=700,11=2,16=1,25=1,30=1,71=1,74=-5/1,2,3;
 4/5=5,16=3/1;
 5/5=2,38=5/2;
 7//1,2,3,16;
 1/5=1,14=-1,18=20/3(-5);
 2/9=110/2;
 6/7=2,8=2,9=2,10=2,19=2,28=1/1;
 99/9=1/99;
 Leave Link    1 at Mon Apr 21 10:53:34 2014, MaxMem= 4026531840 cpu:      21.9
 (Enter /usr/caen/gaussian-09revc/g09/l101.exe)
 ---------------------------------------------------
 TS_2a_1 using b3lyp/6-311++g(d,p) to calculate freq
 ---------------------------------------------------
 Charge =  0 Multiplicity = 2
 Symbolic Z-Matrix:
 C                    -3.28744  -0.37001   1.09084 
 H                    -3.33056   0.68755   1.36054 
 H                    -3.21935  -0.94267   2.02149 
 H                    -4.21367  -0.64945   0.58447 
 C                    -0.76322  -0.17765   0.81505 
 H                    -0.88052   0.88305   1.06021 
 H                    -0.626    -0.69729   1.7742 
 C                     0.48165  -0.36471  -0.05662 
 H                     0.28605   0.07816  -1.03838 
 H                     0.66684  -1.43182  -0.21464 
 C                     1.72429   0.2868    0.56406 
 H                     1.9266   -0.16487   1.54563 
 H                     1.50203   1.34355   0.75629 
 C                     3.00301   0.20643  -0.29146 
 H                     2.763     0.61566  -1.28223 
 C                     4.11273   1.07506   0.31737 
 H                     4.38752   0.71487   1.31506 
 H                     5.01515   1.05763  -0.30085 
 H                     3.79415   2.11688   0.41609 
 C                    -2.13817  -1.75081  -0.62791 
 H                    -3.09263  -2.19243  -0.88798 
 H                    -1.26256  -2.11822  -1.14588 
 C                     3.49436  -1.23577  -0.48293 
 H                     4.40612  -1.26096  -1.08695 
 H                     3.72466  -1.69831   0.48361 
 H                     2.75212  -1.86157  -0.98422 
 C                    -2.08043  -0.6474    0.22517 
 O                    -2.29137   0.71259  -1.13048 
 O                    -2.50985   1.95297  -0.50981 
 H                    -3.46989   2.06412  -0.57564 
 
 NAtoms=     30 NQM=        0 NQMF=       0 NMMI=     30 NMMIF=      0
                NMic=       0 NMicF=      0.
                    Isotopes and Nuclear Properties:
 (Nuclear quadrupole moments (NQMom) in fm**2, nuclear magnetic moments (NMagM)
  in nuclear magnetons)

  Atom         1           2           3           4           5           6           7           8           9          10
 IAtWgt=          12           1           1           1          12           1           1          12           1           1
 AtmWgt=  12.0000000   1.0078250   1.0078250   1.0078250  12.0000000   1.0078250   1.0078250  12.0000000   1.0078250   1.0078250
 NucSpn=           0           1           1           1           0           1           1           0           1           1
 AtZEff=   0.0000000   0.0000000   0.0000000   0.0000000   0.0000000   0.0000000   0.0000000   0.0000000   0.0000000   0.0000000
 NQMom=    0.0000000   0.0000000   0.0000000   0.0000000   0.0000000   0.0000000   0.0000000   0.0000000   0.0000000   0.0000000
 NMagM=    0.0000000   2.7928460   2.7928460   2.7928460   0.0000000   2.7928460   2.7928460   0.0000000   2.7928460   2.7928460

  Atom        11          12          13          14          15          16          17          18          19          20
 IAtWgt=          12           1           1          12           1          12           1           1           1          12
 AtmWgt=  12.0000000   1.0078250   1.0078250  12.0000000   1.0078250  12.0000000   1.0078250   1.0078250   1.0078250  12.0000000
 NucSpn=           0           1           1           0           1           0           1           1           1           0
 AtZEff=   0.0000000   0.0000000   0.0000000   0.0000000   0.0000000   0.0000000   0.0000000   0.0000000   0.0000000   0.0000000
 NQMom=    0.0000000   0.0000000   0.0000000   0.0000000   0.0000000   0.0000000   0.0000000   0.0000000   0.0000000   0.0000000
 NMagM=    0.0000000   2.7928460   2.7928460   0.0000000   2.7928460   0.0000000   2.7928460   2.7928460   2.7928460   0.0000000

  Atom        21          22          23          24          25          26          27          28          29          30
 IAtWgt=           1           1          12           1           1           1          12          16          16           1
 AtmWgt=   1.0078250   1.0078250  12.0000000   1.0078250   1.0078250   1.0078250  12.0000000  15.9949146  15.9949146   1.0078250
 NucSpn=           1           1           0           1           1           1           0           0           0           1
 AtZEff=   0.0000000   0.0000000   0.0000000   0.0000000   0.0000000   0.0000000   0.0000000   0.0000000   0.0000000   0.0000000
 NQMom=    0.0000000   0.0000000   0.0000000   0.0000000   0.0000000   0.0000000   0.0000000   0.0000000   0.0000000   0.0000000
 NMagM=    2.7928460   2.7928460   0.0000000   2.7928460   2.7928460   2.7928460   0.0000000   0.0000000   0.0000000   2.7928460
 Leave Link  101 at Mon Apr 21 10:53:34 2014, MaxMem= 4026531840 cpu:       2.6
 (Enter /usr/caen/gaussian-09revc/g09/l103.exe)

 GradGradGradGradGradGradGradGradGradGradGradGradGradGradGradGradGradGrad
 Berny optimization.
 Initialization pass.
                           ----------------------------
                           !    Initial Parameters    !
                           ! (Angstroms and Degrees)  !
 --------------------------                            --------------------------
 ! Name  Definition              Value          Derivative Info.                !
 --------------------------------------------------------------------------------
 ! R1    R(1,2)                  1.0923         calculate D2E/DX2 analytically  !
 ! R2    R(1,3)                  1.0948         calculate D2E/DX2 analytically  !
 ! R3    R(1,4)                  1.092          calculate D2E/DX2 analytically  !
 ! R4    R(1,27)                 1.511          calculate D2E/DX2 analytically  !
 ! R5    R(2,29)                 2.4027         calculate D2E/DX2 analytically  !
 ! R6    R(5,6)                  1.095          calculate D2E/DX2 analytically  !
 ! R7    R(5,7)                  1.0995         calculate D2E/DX2 analytically  !
 ! R8    R(5,8)                  1.5312         calculate D2E/DX2 analytically  !
 ! R9    R(5,27)                 1.5178         calculate D2E/DX2 analytically  !
 ! R10   R(6,29)                 2.5029         calculate D2E/DX2 analytically  !
 ! R11   R(8,9)                  1.0946         calculate D2E/DX2 analytically  !
 ! R12   R(8,10)                 1.0945         calculate D2E/DX2 analytically  !
 ! R13   R(8,11)                 1.5342         calculate D2E/DX2 analytically  !
 ! R14   R(11,12)                1.0993         calculate D2E/DX2 analytically  !
 ! R15   R(11,13)                1.0968         calculate D2E/DX2 analytically  !
 ! R16   R(11,14)                1.5406         calculate D2E/DX2 analytically  !
 ! R17   R(14,15)                1.0985         calculate D2E/DX2 analytically  !
 ! R18   R(14,16)                1.5351         calculate D2E/DX2 analytically  !
 ! R19   R(14,23)                1.5356         calculate D2E/DX2 analytically  !
 ! R20   R(16,17)                1.0957         calculate D2E/DX2 analytically  !
 ! R21   R(16,18)                1.094          calculate D2E/DX2 analytically  !
 ! R22   R(16,19)                1.0939         calculate D2E/DX2 analytically  !
 ! R23   R(20,21)                1.0834         calculate D2E/DX2 analytically  !
 ! R24   R(20,22)                1.0817         calculate D2E/DX2 analytically  !
 ! R25   R(20,27)                1.3959         calculate D2E/DX2 analytically  !
 ! R26   R(23,24)                1.094          calculate D2E/DX2 analytically  !
 ! R27   R(23,25)                1.096          calculate D2E/DX2 analytically  !
 ! R28   R(23,26)                1.0926         calculate D2E/DX2 analytically  !
 ! R29   R(27,28)                1.9318         calculate D2E/DX2 analytically  !
 ! R30   R(28,29)                1.4041         calculate D2E/DX2 analytically  !
 ! R31   R(29,30)                0.9687         calculate D2E/DX2 analytically  !
 ! A1    A(2,1,3)              107.3981         calculate D2E/DX2 analytically  !
 ! A2    A(2,1,4)              109.1944         calculate D2E/DX2 analytically  !
 ! A3    A(2,1,27)             110.5329         calculate D2E/DX2 analytically  !
 ! A4    A(3,1,4)              108.2448         calculate D2E/DX2 analytically  !
 ! A5    A(3,1,27)             109.9555         calculate D2E/DX2 analytically  !
 ! A6    A(4,1,27)             111.4021         calculate D2E/DX2 analytically  !
 ! A7    A(1,2,29)             107.7124         calculate D2E/DX2 analytically  !
 ! A8    A(6,5,7)              106.0149         calculate D2E/DX2 analytically  !
 ! A9    A(6,5,8)              109.4445         calculate D2E/DX2 analytically  !
 ! A10   A(6,5,27)             107.0897         calculate D2E/DX2 analytically  !
 ! A11   A(7,5,8)              109.7195         calculate D2E/DX2 analytically  !
 ! A12   A(7,5,27)             107.5227         calculate D2E/DX2 analytically  !
 ! A13   A(8,5,27)             116.5205         calculate D2E/DX2 analytically  !
 ! A14   A(5,6,29)             110.0831         calculate D2E/DX2 analytically  !
 ! A15   A(5,8,9)              108.4134         calculate D2E/DX2 analytically  !
 ! A16   A(5,8,10)             109.8067         calculate D2E/DX2 analytically  !
 ! A17   A(5,8,11)             112.1054         calculate D2E/DX2 analytically  !
 ! A18   A(9,8,10)             107.1689         calculate D2E/DX2 analytically  !
 ! A19   A(9,8,11)             109.6189         calculate D2E/DX2 analytically  !
 ! A20   A(10,8,11)            109.5962         calculate D2E/DX2 analytically  !
 ! A21   A(8,11,12)            109.6222         calculate D2E/DX2 analytically  !
 ! A22   A(8,11,13)            108.4157         calculate D2E/DX2 analytically  !
 ! A23   A(8,11,14)            115.179          calculate D2E/DX2 analytically  !
 ! A24   A(12,11,13)           106.0611         calculate D2E/DX2 analytically  !
 ! A25   A(12,11,14)           108.7631         calculate D2E/DX2 analytically  !
 ! A26   A(13,11,14)           108.4075         calculate D2E/DX2 analytically  !
 ! A27   A(11,14,15)           107.4615         calculate D2E/DX2 analytically  !
 ! A28   A(11,14,16)           110.502          calculate D2E/DX2 analytically  !
 ! A29   A(11,14,23)           112.5701         calculate D2E/DX2 analytically  !
 ! A30   A(15,14,16)           107.7493         calculate D2E/DX2 analytically  !
 ! A31   A(15,14,23)           107.8986         calculate D2E/DX2 analytically  !
 ! A32   A(16,14,23)           110.461          calculate D2E/DX2 analytically  !
 ! A33   A(14,16,17)           110.8786         calculate D2E/DX2 analytically  !
 ! A34   A(14,16,18)           111.2942         calculate D2E/DX2 analytically  !
 ! A35   A(14,16,19)           111.3555         calculate D2E/DX2 analytically  !
 ! A36   A(17,16,18)           107.6036         calculate D2E/DX2 analytically  !
 ! A37   A(17,16,19)           107.6937         calculate D2E/DX2 analytically  !
 ! A38   A(18,16,19)           107.8428         calculate D2E/DX2 analytically  !
 ! A39   A(21,20,22)           117.3727         calculate D2E/DX2 analytically  !
 ! A40   A(21,20,27)           120.3555         calculate D2E/DX2 analytically  !
 ! A41   A(22,20,27)           121.8478         calculate D2E/DX2 analytically  !
 ! A42   A(14,23,24)           110.9253         calculate D2E/DX2 analytically  !
 ! A43   A(14,23,25)           110.7107         calculate D2E/DX2 analytically  !
 ! A44   A(14,23,26)           112.1951         calculate D2E/DX2 analytically  !
 ! A45   A(24,23,25)           107.582          calculate D2E/DX2 analytically  !
 ! A46   A(24,23,26)           107.4371         calculate D2E/DX2 analytically  !
 ! A47   A(25,23,26)           107.7959         calculate D2E/DX2 analytically  !
 ! A48   A(1,27,5)             114.4415         calculate D2E/DX2 analytically  !
 ! A49   A(1,27,20)            117.5282         calculate D2E/DX2 analytically  !
 ! A50   A(1,27,28)            100.6945         calculate D2E/DX2 analytically  !
 ! A51   A(5,27,20)            121.2018         calculate D2E/DX2 analytically  !
 ! A52   A(5,27,28)             98.6043         calculate D2E/DX2 analytically  !
 ! A53   A(20,27,28)            97.0712         calculate D2E/DX2 analytically  !
 ! A54   A(27,28,29)           109.19           calculate D2E/DX2 analytically  !
 ! A55   A(2,29,6)              60.589          calculate D2E/DX2 analytically  !
 ! A56   A(2,29,28)             86.1007         calculate D2E/DX2 analytically  !
 ! A57   A(2,29,30)             76.9857         calculate D2E/DX2 analytically  !
 ! A58   A(6,29,28)             78.3671         calculate D2E/DX2 analytically  !
 ! A59   A(6,29,30)            137.4635         calculate D2E/DX2 analytically  !
 ! A60   A(28,29,30)           103.0345         calculate D2E/DX2 analytically  !
 ! D1    D(3,1,2,29)           155.1648         calculate D2E/DX2 analytically  !
 ! D2    D(4,1,2,29)           -87.6748         calculate D2E/DX2 analytically  !
 ! D3    D(27,1,2,29)           35.2127         calculate D2E/DX2 analytically  !
 ! D4    D(2,1,27,5)            53.5525         calculate D2E/DX2 analytically  !
 ! D5    D(2,1,27,20)         -154.9759         calculate D2E/DX2 analytically  !
 ! D6    D(2,1,27,28)          -51.107          calculate D2E/DX2 analytically  !
 ! D7    D(3,1,27,5)           -64.8513         calculate D2E/DX2 analytically  !
 ! D8    D(3,1,27,20)           86.6203         calculate D2E/DX2 analytically  !
 ! D9    D(3,1,27,28)         -169.5107         calculate D2E/DX2 analytically  !
 ! D10   D(4,1,27,5)           175.1452         calculate D2E/DX2 analytically  !
 ! D11   D(4,1,27,20)          -33.3832         calculate D2E/DX2 analytically  !
 ! D12   D(4,1,27,28)           70.4857         calculate D2E/DX2 analytically  !
 ! D13   D(1,2,29,6)           -80.6154         calculate D2E/DX2 analytically  !
 ! D14   D(1,2,29,28)           -1.7775         calculate D2E/DX2 analytically  !
 ! D15   D(1,2,29,30)          102.5684         calculate D2E/DX2 analytically  !
 ! D16   D(7,5,6,29)          -144.5922         calculate D2E/DX2 analytically  !
 ! D17   D(8,5,6,29)            97.1396         calculate D2E/DX2 analytically  !
 ! D18   D(27,5,6,29)          -30.0127         calculate D2E/DX2 analytically  !
 ! D19   D(6,5,8,9)            -69.3582         calculate D2E/DX2 analytically  !
 ! D20   D(6,5,8,10)           173.8609         calculate D2E/DX2 analytically  !
 ! D21   D(6,5,8,11)            51.7849         calculate D2E/DX2 analytically  !
 ! D22   D(7,5,8,9)            174.7077         calculate D2E/DX2 analytically  !
 ! D23   D(7,5,8,10)            57.9267         calculate D2E/DX2 analytically  !
 ! D24   D(7,5,8,11)           -64.1493         calculate D2E/DX2 analytically  !
 ! D25   D(27,5,8,9)            52.274          calculate D2E/DX2 analytically  !
 ! D26   D(27,5,8,10)          -64.507          calculate D2E/DX2 analytically  !
 ! D27   D(27,5,8,11)          173.417          calculate D2E/DX2 analytically  !
 ! D28   D(6,5,27,1)           -53.8548         calculate D2E/DX2 analytically  !
 ! D29   D(6,5,27,20)          155.8246         calculate D2E/DX2 analytically  !
 ! D30   D(6,5,27,28)           52.1031         calculate D2E/DX2 analytically  !
 ! D31   D(7,5,27,1)            59.7076         calculate D2E/DX2 analytically  !
 ! D32   D(7,5,27,20)          -90.613          calculate D2E/DX2 analytically  !
 ! D33   D(7,5,27,28)          165.6654         calculate D2E/DX2 analytically  !
 ! D34   D(8,5,27,1)          -176.719          calculate D2E/DX2 analytically  !
 ! D35   D(8,5,27,20)           32.9604         calculate D2E/DX2 analytically  !
 ! D36   D(8,5,27,28)          -70.7612         calculate D2E/DX2 analytically  !
 ! D37   D(5,6,29,2)            80.8092         calculate D2E/DX2 analytically  !
 ! D38   D(5,6,29,28)          -11.274          calculate D2E/DX2 analytically  !
 ! D39   D(5,6,29,30)           85.4001         calculate D2E/DX2 analytically  !
 ! D40   D(5,8,11,12)           60.1118         calculate D2E/DX2 analytically  !
 ! D41   D(5,8,11,13)          -55.2467         calculate D2E/DX2 analytically  !
 ! D42   D(5,8,11,14)         -176.8671         calculate D2E/DX2 analytically  !
 ! D43   D(9,8,11,12)         -179.4423         calculate D2E/DX2 analytically  !
 ! D44   D(9,8,11,13)           65.1993         calculate D2E/DX2 analytically  !
 ! D45   D(9,8,11,14)          -56.4212         calculate D2E/DX2 analytically  !
 ! D46   D(10,8,11,12)         -62.0842         calculate D2E/DX2 analytically  !
 ! D47   D(10,8,11,13)        -177.4426         calculate D2E/DX2 analytically  !
 ! D48   D(10,8,11,14)          60.9369         calculate D2E/DX2 analytically  !
 ! D49   D(8,11,14,15)          53.6802         calculate D2E/DX2 analytically  !
 ! D50   D(8,11,14,16)         170.9906         calculate D2E/DX2 analytically  !
 ! D51   D(8,11,14,23)         -64.9823         calculate D2E/DX2 analytically  !
 ! D52   D(12,11,14,15)        177.1574         calculate D2E/DX2 analytically  !
 ! D53   D(12,11,14,16)        -65.5321         calculate D2E/DX2 analytically  !
 ! D54   D(12,11,14,23)         58.495          calculate D2E/DX2 analytically  !
 ! D55   D(13,11,14,15)        -67.9447         calculate D2E/DX2 analytically  !
 ! D56   D(13,11,14,16)         49.3657         calculate D2E/DX2 analytically  !
 ! D57   D(13,11,14,23)        173.3928         calculate D2E/DX2 analytically  !
 ! D58   D(11,14,16,17)         62.4228         calculate D2E/DX2 analytically  !
 ! D59   D(11,14,16,18)       -177.8367         calculate D2E/DX2 analytically  !
 ! D60   D(11,14,16,19)        -57.4721         calculate D2E/DX2 analytically  !
 ! D61   D(15,14,16,17)        179.5557         calculate D2E/DX2 analytically  !
 ! D62   D(15,14,16,18)        -60.7038         calculate D2E/DX2 analytically  !
 ! D63   D(15,14,16,19)         59.6608         calculate D2E/DX2 analytically  !
 ! D64   D(23,14,16,17)        -62.8084         calculate D2E/DX2 analytically  !
 ! D65   D(23,14,16,18)         56.9321         calculate D2E/DX2 analytically  !
 ! D66   D(23,14,16,19)        177.2967         calculate D2E/DX2 analytically  !
 ! D67   D(11,14,23,24)       -179.578          calculate D2E/DX2 analytically  !
 ! D68   D(11,14,23,25)        -60.2172         calculate D2E/DX2 analytically  !
 ! D69   D(11,14,23,26)         60.2567         calculate D2E/DX2 analytically  !
 ! D70   D(15,14,23,24)         62.0157         calculate D2E/DX2 analytically  !
 ! D71   D(15,14,23,25)       -178.6234         calculate D2E/DX2 analytically  !
 ! D72   D(15,14,23,26)        -58.1496         calculate D2E/DX2 analytically  !
 ! D73   D(16,14,23,24)        -55.5283         calculate D2E/DX2 analytically  !
 ! D74   D(16,14,23,25)         63.8326         calculate D2E/DX2 analytically  !
 ! D75   D(16,14,23,26)       -175.6936         calculate D2E/DX2 analytically  !
 ! D76   D(21,20,27,1)          18.6634         calculate D2E/DX2 analytically  !
 ! D77   D(21,20,27,5)         168.1111         calculate D2E/DX2 analytically  !
 ! D78   D(21,20,27,28)        -87.3296         calculate D2E/DX2 analytically  !
 ! D79   D(22,20,27,1)        -169.0073         calculate D2E/DX2 analytically  !
 ! D80   D(22,20,27,5)         -19.5596         calculate D2E/DX2 analytically  !
 ! D81   D(22,20,27,28)         84.9996         calculate D2E/DX2 analytically  !
 ! D82   D(1,27,28,29)          49.6617         calculate D2E/DX2 analytically  !
 ! D83   D(5,27,28,29)         -67.3676         calculate D2E/DX2 analytically  !
 ! D84   D(20,27,28,29)        169.489          calculate D2E/DX2 analytically  !
 ! D85   D(27,28,29,2)         -24.5034         calculate D2E/DX2 analytically  !
 ! D86   D(27,28,29,6)          36.2545         calculate D2E/DX2 analytically  !
 ! D87   D(27,28,29,30)       -100.1758         calculate D2E/DX2 analytically  !
 --------------------------------------------------------------------------------
 Trust Radius=3.00D-01 FncErr=1.00D-07 GrdErr=1.00D-06
 Number of steps in this run=    180 maximum allowed number of steps=    180.
 Search for a saddle point of order  1.
 GradGradGradGradGradGradGradGradGradGradGradGradGradGradGradGradGradGrad

 Leave Link  103 at Mon Apr 21 10:53:35 2014, MaxMem= 4026531840 cpu:       0.1
 (Enter /usr/caen/gaussian-09revc/g09/l202.exe)
                          Input orientation:                          
 ---------------------------------------------------------------------
 Center     Atomic      Atomic             Coordinates (Angstroms)
 Number     Number       Type             X           Y           Z
 ---------------------------------------------------------------------
      1          6           0       -3.287435   -0.370012    1.090844
      2          1           0       -3.330565    0.687550    1.360536
      3          1           0       -3.219352   -0.942674    2.021495
      4          1           0       -4.213673   -0.649447    0.584467
      5          6           0       -0.763224   -0.177651    0.815052
      6          1           0       -0.880516    0.883050    1.060213
      7          1           0       -0.625999   -0.697292    1.774201
      8          6           0        0.481654   -0.364708   -0.056620
      9          1           0        0.286052    0.078158   -1.038379
     10          1           0        0.666836   -1.431824   -0.214642
     11          6           0        1.724287    0.286803    0.564062
     12          1           0        1.926600   -0.164873    1.545632
     13          1           0        1.502030    1.343546    0.756294
     14          6           0        3.003015    0.206430   -0.291461
     15          1           0        2.763000    0.615660   -1.282234
     16          6           0        4.112732    1.075060    0.317367
     17          1           0        4.387519    0.714869    1.315063
     18          1           0        5.015154    1.057630   -0.300846
     19          1           0        3.794148    2.116879    0.416092
     20          6           0       -2.138167   -1.750810   -0.627911
     21          1           0       -3.092633   -2.192427   -0.887978
     22          1           0       -1.262559   -2.118224   -1.145881
     23          6           0        3.494357   -1.235766   -0.482926
     24          1           0        4.406117   -1.260962   -1.086946
     25          1           0        3.724655   -1.698312    0.483607
     26          1           0        2.752119   -1.861568   -0.984217
     27          6           0       -2.080428   -0.647404    0.225173
     28          8           0       -2.291370    0.712593   -1.130479
     29          8           0       -2.509854    1.952969   -0.509812
     30          1           0       -3.469888    2.064118   -0.575642
 ---------------------------------------------------------------------
                    Distance matrix (angstroms):
                    1          2          3          4          5
     1  C    0.000000
     2  H    1.092260   0.000000
     3  H    1.094846   1.762630   0.000000
     4  H    1.091979   1.780372   1.771921   0.000000
     5  C    2.546508   2.763578   2.841361   3.490180   0.000000
     6  H    2.713736   2.476117   3.118892   3.699300   1.094965
     7  H    2.767188   3.066526   2.616648   3.780101   1.099465
     8  C    3.939890   4.201023   4.283696   4.747438   1.531184
     9  H    4.183809   4.382473   4.763694   4.838446   2.145140
    10  H    4.297441   4.790840   4.510214   5.007001   2.162936
    11  C    5.081955   5.132884   5.298612   6.011352   2.542917
    12  H    5.237850   5.329040   5.226112   6.233907   2.787304
    13  H    5.097762   4.914205   5.396201   6.055643   2.729262
    14  C    6.466283   6.563140   6.737066   7.319861   3.944166
    15  H    6.573493   6.642359   7.009391   7.332055   4.178781
    16  C    7.579510   7.526024   7.793251   8.507308   5.058846
    17  H    7.754493   7.718266   7.817351   8.739315   5.251358
    18  H    8.538615   8.517522   8.786443   9.427043   6.013385
    19  H    7.535830   7.327789   7.818399   8.473848   5.117976
    20  C    2.486270   3.364719   2.973449   2.643972   2.539181
    21  H    2.697199   3.661515   3.169065   2.409484   3.519344
    22  H    3.487020   4.293151   3.904258   3.722967   2.803644
    23  C    7.015624   7.326463   7.171605   7.803642   4.575079
    24  H    8.045328   8.345245   8.240843   8.801611   5.613666
    25  H    7.162578   7.499165   7.152295   8.007955   4.750087
    26  H    6.557959   6.999637   6.748121   7.242394   4.293085
    27  C    1.511026   2.152671   2.147348   2.163292   1.517778
    28  O    2.664293   2.699205   3.679130   2.914008   2.629231
    29  O    2.926256   2.402718   3.910965   3.297425   3.057045
    30  H    2.955580   2.379734   3.981041   3.043436   3.779628
                    6          7          8          9         10
     6  H    0.000000
     7  H    1.752723   0.000000
     8  C    2.158639   2.165505   0.000000
     9  H    2.532355   3.056757   1.094642   0.000000
    10  H    3.062384   2.483235   1.094532   1.761699   0.000000
    11  C    2.717844   2.820767   1.534226   2.163301   2.162929
    12  H    3.035404   2.617532   2.166798   3.070436   2.508134
    13  H    2.445598   3.119241   2.149448   2.510112   3.056623
    14  C    4.167331   4.272402   2.595883   2.820679   2.854384
    15  H    4.339788   4.748784   2.769078   2.546300   3.118629
    16  C    5.051852   5.264900   3.923968   4.180352   4.294380
    17  H    5.276877   5.228802   4.278175   4.771386   4.559799
    18  H    6.053254   6.261643   4.757658   4.885461   5.011256
    19  H    4.877470   5.413106   4.165855   4.310291   4.771918
    20  C    3.371745   3.027655   3.018462   3.064383   2.853171
    21  H    4.259985   3.925164   4.099663   4.073535   3.894291
    22  H    3.744390   3.309250   2.702515   2.689581   2.249648
    23  C    5.100017   4.728838   3.164942   3.511146   2.846979
    24  H    6.095537   5.816019   4.155268   4.332498   3.843479
    25  H    5.310697   4.647135   3.547873   4.158879   3.147829
    26  H    4.990858   4.513988   2.873332   3.137986   2.263919
    27  C    2.116452   2.125404   2.592988   2.779070   2.890711
    28  O    2.611263   3.632961   3.162817   2.655955   3.766731
    29  O    2.502888   3.973601   3.811316   3.407549   4.651377
    30  H    3.282650   4.608129   4.667254   4.273786   5.428114
                   11         12         13         14         15
    11  C    0.000000
    12  H    1.099282   0.000000
    13  H    1.096840   1.754606   0.000000
    14  C    1.540625   2.161353   2.154943   0.000000
    15  H    2.143800   3.050512   2.505087   1.098502   0.000000
    16  C    2.527227   2.797363   2.660922   1.535142   2.142790
    17  H    2.800009   2.623591   3.005579   2.180890   3.065103
    18  H    3.488846   3.800416   3.679855   2.184796   2.496129
    19  H    2.766839   3.157529   2.442864   2.185483   2.490228
    20  C    4.526723   4.874609   4.974143   5.511419   5.481766
    21  H    5.608718   5.935161   6.026414   6.577786   6.506092
    22  H    4.198727   4.607663   4.821315   4.932461   4.868043
    23  C    2.558818   2.778439   3.486816   1.535580   2.145123
    24  H    3.509076   3.778873   4.314478   2.180535   2.501935
    25  H    2.819331   2.590817   3.777211   2.179343   3.065525
    26  H    2.840617   3.156009   3.855497   2.195330   2.495113
    27  C    3.932359   4.246495   4.132793   5.180476   5.227466
    28  O    4.379300   5.071764   4.283445   5.384298   5.057577
    29  O    4.675175   5.328436   4.250839   5.787037   5.494363
    30  H    5.606891   6.212108   5.197427   6.740196   6.437872
                   16         17         18         19         20
    16  C    0.000000
    17  H    1.095738   0.000000
    18  H    1.094009   1.767080   0.000000
    19  H    1.093905   1.768013   1.768294   0.000000
    20  C    6.924798   7.241498   7.691834   7.158304   0.000000
    21  H    8.002913   8.322165   8.754645   8.227908   1.083359
    22  H    6.421208   6.782775   7.085888   6.778358   1.081654
    23  C    2.522454   2.799193   2.757833   3.484012   5.657881
    24  H    2.741381   3.110290   2.522845   3.747458   6.578626
    25  H    2.805322   2.637072   3.142606   3.816421   5.967488
    26  H    3.488434   3.820896   3.756333   4.344506   4.904500
    27  C    6.428889   6.699103   7.316496   6.495256   1.395919
    28  O    6.575725   7.112541   7.361565   6.434083   2.518809
    29  O    6.731537   7.241327   7.580966   6.373743   3.724255
    30  H    7.698820   8.193539   8.548945   7.331612   4.041026
                   21         22         23         24         25
    21  H    0.000000
    22  H    1.849646   0.000000
    23  C    6.668411   4.883287   0.000000
    24  H    7.558999   5.733433   1.093975   0.000000
    25  H    6.971428   5.263446   1.095980   1.767004   0.000000
    26  H    5.854900   4.026121   1.092629   1.762666   1.768329
    27  C    2.156562   2.170717   5.650292   6.646305   5.905098
    28  O    3.023238   3.012012   6.139223   6.982345   6.679094
    29  O    4.203207   4.305223   6.798478   7.648078   7.292999
    30  H    4.284630   4.763345   7.707045   8.564406   8.187755
                   26         27         28         29         30
    26  H    0.000000
    27  C    5.127410   0.000000
    28  O    5.664316   1.931808   0.000000
    29  O    6.516449   2.736156   1.404099   0.000000
    30  H    7.368264   3.150279   1.877064   0.968686   0.000000
 Stoichiometry    C9H19O2(2)
 Framework group  C1[X(C9H19O2)]
 Deg. of freedom    84
 Full point group                 C1      NOp   1
 Largest Abelian subgroup         C1      NOp   1
 Largest concise Abelian subgroup C1      NOp   1
                         Standard orientation:                         
 ---------------------------------------------------------------------
 Center     Atomic      Atomic             Coordinates (Angstroms)
 Number     Number       Type             X           Y           Z
 ---------------------------------------------------------------------
      1          6           0       -3.287435   -0.370012    1.090844
      2          1           0       -3.330565    0.687550    1.360536
      3          1           0       -3.219352   -0.942674    2.021495
      4          1           0       -4.213673   -0.649447    0.584467
      5          6           0       -0.763224   -0.177651    0.815052
      6          1           0       -0.880516    0.883050    1.060213
      7          1           0       -0.625999   -0.697292    1.774201
      8          6           0        0.481654   -0.364708   -0.056620
      9          1           0        0.286052    0.078158   -1.038379
     10          1           0        0.666836   -1.431824   -0.214642
     11          6           0        1.724287    0.286803    0.564062
     12          1           0        1.926600   -0.164873    1.545632
     13          1           0        1.502030    1.343546    0.756294
     14          6           0        3.003015    0.206430   -0.291461
     15          1           0        2.763000    0.615660   -1.282234
     16          6           0        4.112732    1.075060    0.317367
     17          1           0        4.387519    0.714869    1.315063
     18          1           0        5.015154    1.057630   -0.300846
     19          1           0        3.794148    2.116879    0.416092
     20          6           0       -2.138167   -1.750810   -0.627911
     21          1           0       -3.092633   -2.192427   -0.887978
     22          1           0       -1.262559   -2.118224   -1.145881
     23          6           0        3.494357   -1.235766   -0.482926
     24          1           0        4.406117   -1.260962   -1.086946
     25          1           0        3.724655   -1.698312    0.483607
     26          1           0        2.752119   -1.861568   -0.984217
     27          6           0       -2.080428   -0.647404    0.225173
     28          8           0       -2.291370    0.712593   -1.130479
     29          8           0       -2.509854    1.952969   -0.509812
     30          1           0       -3.469888    2.064118   -0.575642
 ---------------------------------------------------------------------
 Rotational constants (GHZ):      1.8892785      0.4259781      0.3929462
 Leave Link  202 at Mon Apr 21 10:53:35 2014, MaxMem= 4026531840 cpu:       0.3
 (Enter /usr/caen/gaussian-09revc/g09/l301.exe)
 Standard basis: 6-311G(2d,d,p) (5D, 7F)
 Ernie: Thresh=  0.10000D-02 Tol=  0.10000D-05 Strict=F.
 There are   312 symmetry adapted basis functions of A   symmetry.
 Integral buffers will be    131072 words long.
 Raffenetti 2 integral format.
 Two-electron integral symmetry is turned on.
   312 basis functions,   504 primitive gaussians,   323 cartesian basis functions
    45 alpha electrons       44 beta electrons
       nuclear repulsion energy       648.4089358480 Hartrees.
 IExCor=  402 DFT=T Ex+Corr=B3LYP ExCW=0 ScaHFX=  0.200000
 ScaDFX=  0.800000  0.720000  1.000000  0.810000 ScalE2=  1.000000  1.000000
 IRadAn=      0 IRanWt=     -1 IRanGd=            0 ICorTp=0
 NAtoms=   30 NActive=   30 NUniq=   30 SFac= 1.00D+00 NAtFMM=   60 NAOKFM=F Big=F
 Leave Link  301 at Mon Apr 21 10:53:36 2014, MaxMem= 4026531840 cpu:       0.8
 (Enter /usr/caen/gaussian-09revc/g09/l302.exe)
 NPDir=0 NMtPBC=     1 NCelOv=     1 NCel=       1 NClECP=     1 NCelD=      1
         NCelK=      1 NCelE2=     1 NClLst=     1 CellRange=     0.0.
 One-electron integrals computed using PRISM.
 NBasis=   312 RedAO= T  NBF=   312
 NBsUse=   312 1.00D-06 NBFU=   312
 Precomputing XC quadrature grid using
 IXCGrd= 2 IRadAn=           0 IRanWt=          -1 IRanGd=           0 AccXCQ= 0.00D+00.
 NRdTot=    1913 NPtTot=      243844 NUsed=      257638 NTot=      257670
 NSgBfM=   323   323   323   323   323 NAtAll=    30    30.
 Leave Link  302 at Mon Apr 21 10:53:37 2014, MaxMem= 4026531840 cpu:       6.5
 (Enter /usr/caen/gaussian-09revc/g09/l303.exe)
 DipDrv:  MaxL=1.
 Leave Link  303 at Mon Apr 21 10:53:38 2014, MaxMem= 4026531840 cpu:       1.4
 (Enter /usr/caen/gaussian-09revc/g09/l401.exe)
 Harris functional with IExCor=  402 diagonalized for initial guess.
 ExpMin= 1.03D-01 ExpMax= 8.59D+03 ExpMxC= 1.30D+03 IAcc=1 IRadAn=         1 AccDes= 0.00D+00
 HarFok:  IExCor=  402 AccDes= 0.00D+00 IRadAn=         1 IDoV= 1
 ScaDFX=  1.000000  1.000000  1.000000  1.000000
 FoFCou: FMM=F IPFlag=           0 FMFlag=      100000 FMFlg1=           0
         NFxFlg=           0 DoJE=T BraDBF=F KetDBF=T FulRan=T
         Omega=  0.000000  0.000000  1.000000  0.000000  0.000000 ICntrl=     500 IOpCl=  0
         NMat0=    1 NMatS0=    1 NMatT0=    0 NMatD0=    1 NMtDS0=    0 NMtDT0=    0
         I1Cent=           4 NGrid=           0.
 Petite list used in FoFCou.
 Harris En= -504.908010802556    
 Initial guess orbital symmetries:
 Alpha Orbitals:
       Occupied  (A) (A) (A) (A) (A) (A) (A) (A) (A) (A) (A) (A)
                 (A) (A) (A) (A) (A) (A) (A) (A) (A) (A) (A) (A)
                 (A) (A) (A) (A) (A) (A) (A) (A) (A) (A) (A) (A)
                 (A) (A) (A) (A) (A) (A) (A) (A) (A)
       Virtual   (A) (A) (A) (A) (A) (A) (A) (A) (A) (A) (A) (A)
                 (A) (A) (A) (A) (A) (A) (A) (A) (A) (A) (A) (A)
                 (A) (A) (A) (A) (A) (A) (A) (A) (A) (A) (A) (A)
                 (A) (A) (A) (A) (A) (A) (A) (A) (A) (A) (A) (A)
                 (A) (A) (A) (A) (A) (A) (A) (A) (A) (A) (A) (A)
                 (A) (A) (A) (A) (A) (A) (A) (A) (A) (A) (A) (A)
                 (A) (A) (A) (A) (A) (A) (A) (A) (A) (A) (A) (A)
                 (A) (A) (A) (A) (A) (A) (A) (A) (A) (A) (A) (A)
                 (A) (A) (A) (A) (A) (A) (A) (A) (A) (A) (A) (A)
                 (A) (A) (A) (A) (A) (A) (A) (A) (A) (A) (A) (A)
                 (A) (A) (A) (A) (A) (A) (A) (A) (A) (A) (A) (A)
                 (A) (A) (A) (A) (A) (A) (A) (A) (A) (A) (A) (A)
                 (A) (A) (A) (A) (A) (A) (A) (A) (A) (A) (A) (A)
                 (A) (A) (A) (A) (A) (A) (A) (A) (A) (A) (A) (A)
                 (A) (A) (A) (A) (A) (A) (A) (A) (A) (A) (A) (A)
                 (A) (A) (A) (A) (A) (A) (A) (A) (A) (A) (A) (A)
                 (A) (A) (A) (A) (A) (A) (A) (A) (A) (A) (A) (A)
                 (A) (A) (A) (A) (A) (A) (A) (A) (A) (A) (A) (A)
                 (A) (A) (A) (A) (A) (A) (A) (A) (A) (A) (A) (A)
                 (A) (A) (A) (A) (A) (A) (A) (A) (A) (A) (A) (A)
                 (A) (A) (A) (A) (A) (A) (A) (A) (A) (A) (A) (A)
                 (A) (A) (A) (A) (A) (A) (A) (A) (A) (A) (A) (A)
                 (A) (A) (A)
 Beta  Orbitals:
       Occupied  (A) (A) (A) (A) (A) (A) (A) (A) (A) (A) (A) (A)
                 (A) (A) (A) (A) (A) (A) (A) (A) (A) (A) (A) (A)
                 (A) (A) (A) (A) (A) (A) (A) (A) (A) (A) (A) (A)
                 (A) (A) (A) (A) (A) (A) (A) (A)
       Virtual   (A) (A) (A) (A) (A) (A) (A) (A) (A) (A) (A) (A)
                 (A) (A) (A) (A) (A) (A) (A) (A) (A) (A) (A) (A)
                 (A) (A) (A) (A) (A) (A) (A) (A) (A) (A) (A) (A)
                 (A) (A) (A) (A) (A) (A) (A) (A) (A) (A) (A) (A)
                 (A) (A) (A) (A) (A) (A) (A) (A) (A) (A) (A) (A)
                 (A) (A) (A) (A) (A) (A) (A) (A) (A) (A) (A) (A)
                 (A) (A) (A) (A) (A) (A) (A) (A) (A) (A) (A) (A)
                 (A) (A) (A) (A) (A) (A) (A) (A) (A) (A) (A) (A)
                 (A) (A) (A) (A) (A) (A) (A) (A) (A) (A) (A) (A)
                 (A) (A) (A) (A) (A) (A) (A) (A) (A) (A) (A) (A)
                 (A) (A) (A) (A) (A) (A) (A) (A) (A) (A) (A) (A)
                 (A) (A) (A) (A) (A) (A) (A) (A) (A) (A) (A) (A)
                 (A) (A) (A) (A) (A) (A) (A) (A) (A) (A) (A) (A)
                 (A) (A) (A) (A) (A) (A) (A) (A) (A) (A) (A) (A)
                 (A) (A) (A) (A) (A) (A) (A) (A) (A) (A) (A) (A)
                 (A) (A) (A) (A) (A) (A) (A) (A) (A) (A) (A) (A)
                 (A) (A) (A) (A) (A) (A) (A) (A) (A) (A) (A) (A)
                 (A) (A) (A) (A) (A) (A) (A) (A) (A) (A) (A) (A)
                 (A) (A) (A) (A) (A) (A) (A) (A) (A) (A) (A) (A)
                 (A) (A) (A) (A) (A) (A) (A) (A) (A) (A) (A) (A)
                 (A) (A) (A) (A) (A) (A) (A) (A) (A) (A) (A) (A)
                 (A) (A) (A) (A) (A) (A) (A) (A) (A) (A) (A) (A)
                 (A) (A) (A) (A)
 The electronic state of the initial guess is 2-A.
 Initial guess <Sx>= 0.0000 <Sy>= 0.0000 <Sz>= 0.5000 <S**2>= 0.7500 S= 0.5000
 Leave Link  401 at Mon Apr 21 10:53:48 2014, MaxMem= 4026531840 cpu:      32.8
 (Enter /usr/caen/gaussian-09revc/g09/l502.exe)
 UHF open shell SCF:
 Requested convergence on RMS density matrix=1.00D-08 within 128 cycles.
 Requested convergence on MAX density matrix=1.00D-06.
 Requested convergence on             energy=1.00D-06.
 No special actions if energy rises.
 Using DIIS extrapolation, IDIIS=  1040.
 Integral symmetry usage will be decided dynamically.
       257355 words used for storage of precomputed grid.
 Keep R1 and R2 ints in memory in canonical form, NReq=2755662086.
 IEnd=      593513 IEndB=      593513 NGot=  4026531840 MDV=  1287996990
 LenX=  1287996990 LenY=  1287892220
 Symmetry not used in FoFDir.
 MinBra= 0 MaxBra= 2 Meth= 1.
 IRaf=       0 NMat=   1 IRICut=       1 DoRegI=T DoRafI=F ISym2E= 0 JSym2E=0.
 Integral accuracy reduced to 1.0D-05 until final iterations.

 Cycle   1  Pass 0  IDiag  1:
 E= -504.429472065610    
 DIIS: error= 3.00D-02 at cycle   1 NSaved=   1.
 NSaved= 1 IEnMin= 1 EnMin= -504.429472065610     IErMin= 1 ErrMin= 3.00D-02
 ErrMax= 3.00D-02 EMaxC= 1.00D-01 BMatC= 1.57D+00 BMatP= 1.57D+00
 IDIUse=3 WtCom= 7.00D-01 WtEn= 3.00D-01
 Coeff-Com:  0.100D+01
 Coeff-En:   0.100D+01
 Coeff:      0.100D+01
 Gap=     0.255 Goal=   None    Shift=    0.000
 Gap=     0.202 Goal=   None    Shift=    0.000
 GapD=    0.202 DampG=1.000 DampE=0.500 DampFc=0.5000 IDamp=-1.
 Damping current iteration by 5.00D-01
 RMSDP=3.47D-03 MaxDP=1.20D-01              OVMax= 3.67D-01

 Cycle   2  Pass 0  IDiag  1:
 E= -504.593148114880     Delta-E=       -0.163676049270 Rises=F Damp=T
 DIIS: error= 5.43D-03 at cycle   2 NSaved=   2.
 NSaved= 2 IEnMin= 2 EnMin= -504.593148114880     IErMin= 2 ErrMin= 5.43D-03
 ErrMax= 5.43D-03 EMaxC= 1.00D-01 BMatC= 9.72D-02 BMatP= 1.57D+00
 IDIUse=3 WtCom= 9.46D-01 WtEn= 5.43D-02
 Coeff-Com:  0.719D-01 0.928D+00
 Coeff-En:   0.172D+00 0.828D+00
 Coeff:      0.773D-01 0.923D+00
 Gap=     0.280 Goal=   None    Shift=    0.000
 Gap=     0.211 Goal=   None    Shift=    0.000
 RMSDP=1.02D-03 MaxDP=3.48D-02 DE=-1.64D-01 OVMax= 3.53D-01

 Cycle   3  Pass 0  IDiag  1:
 E= -504.795115019565     Delta-E=       -0.201966904685 Rises=F Damp=F
 DIIS: error= 8.71D-03 at cycle   3 NSaved=   3.
 NSaved= 3 IEnMin= 3 EnMin= -504.795115019565     IErMin= 2 ErrMin= 5.43D-03
 ErrMax= 8.71D-03 EMaxC= 1.00D-01 BMatC= 1.21D-01 BMatP= 9.72D-02
 IDIUse=3 WtCom= 9.68D-02 WtEn= 9.03D-01
 Coeff-Com:  0.228D-02 0.533D+00 0.465D+00
 Coeff-En:   0.000D+00 0.000D+00 0.100D+01
 Coeff:      0.221D-03 0.516D-01 0.948D+00
 Gap=     0.290 Goal=   None    Shift=    0.000
 Gap=     0.209 Goal=   None    Shift=    0.000
 RMSDP=1.37D-03 MaxDP=6.17D-02 DE=-2.02D-01 OVMax= 4.12D-01

 Cycle   4  Pass 0  IDiag  1:
 E= -504.700464478428     Delta-E=        0.094650541137 Rises=F Damp=F
 DIIS: error= 1.81D-02 at cycle   4 NSaved=   4.
 NSaved= 4 IEnMin= 3 EnMin= -504.795115019565     IErMin= 2 ErrMin= 5.43D-03
 ErrMax= 1.81D-02 EMaxC= 1.00D-01 BMatC= 5.40D-01 BMatP= 9.72D-02
 IDIUse=2 WtCom= 0.00D+00 WtEn= 1.00D+00
 Coeff-En:   0.000D+00 0.000D+00 0.751D+00 0.249D+00
 Coeff:      0.000D+00 0.000D+00 0.751D+00 0.249D+00
 Gap=     0.263 Goal=   None    Shift=    0.000
 Gap=     0.131 Goal=   None    Shift=    0.000
 RMSDP=6.79D-04 MaxDP=3.55D-02 DE= 9.47D-02 OVMax= 2.07D-01

 Cycle   5  Pass 0  IDiag  1:
 E= -504.816286437667     Delta-E=       -0.115821959238 Rises=F Damp=F
 DIIS: error= 4.75D-03 at cycle   5 NSaved=   5.
 NSaved= 5 IEnMin= 5 EnMin= -504.816286437667     IErMin= 5 ErrMin= 4.75D-03
 ErrMax= 4.75D-03 EMaxC= 1.00D-01 BMatC= 3.37D-02 BMatP= 9.72D-02
 IDIUse=3 WtCom= 9.53D-01 WtEn= 4.75D-02
 Coeff-Com:  0.473D-02-0.581D-02 0.327D+00-0.126D-01 0.686D+00
 Coeff-En:   0.000D+00 0.000D+00 0.270D+00 0.000D+00 0.730D+00
 Coeff:      0.450D-02-0.554D-02 0.325D+00-0.120D-01 0.688D+00
 Gap=     0.241 Goal=   None    Shift=    0.000
 Gap=     0.137 Goal=   None    Shift=    0.000
 RMSDP=2.79D-04 MaxDP=9.41D-03 DE=-1.16D-01 OVMax= 7.04D-02

 Cycle   6  Pass 0  IDiag  1:
 E= -504.824339149949     Delta-E=       -0.008052712282 Rises=F Damp=F
 DIIS: error= 1.02D-03 at cycle   6 NSaved=   6.
 NSaved= 6 IEnMin= 6 EnMin= -504.824339149949     IErMin= 6 ErrMin= 1.02D-03
 ErrMax= 1.02D-03 EMaxC= 1.00D-01 BMatC= 1.40D-03 BMatP= 3.37D-02
 IDIUse=3 WtCom= 9.90D-01 WtEn= 1.02D-02
 Coeff-Com:  0.393D-02-0.184D-01 0.105D+00-0.634D-01 0.480D+00 0.492D+00
 Coeff-En:   0.000D+00 0.000D+00 0.000D+00 0.000D+00 0.000D+00 0.100D+01
 Coeff:      0.389D-02-0.182D-01 0.104D+00-0.627D-01 0.475D+00 0.498D+00
 Gap=     0.238 Goal=   None    Shift=    0.000
 Gap=     0.140 Goal=   None    Shift=    0.000
 RMSDP=4.97D-05 MaxDP=2.26D-03 DE=-8.05D-03 OVMax= 9.16D-03

 Cycle   7  Pass 0  IDiag  1:
 E= -504.824630340049     Delta-E=       -0.000291190101 Rises=F Damp=F
 DIIS: error= 3.53D-04 at cycle   7 NSaved=   7.
 NSaved= 7 IEnMin= 7 EnMin= -504.824630340049     IErMin= 7 ErrMin= 3.53D-04
 ErrMax= 3.53D-04 EMaxC= 1.00D-01 BMatC= 1.46D-04 BMatP= 1.40D-03
 IDIUse=3 WtCom= 9.96D-01 WtEn= 3.53D-03
 Coeff-Com:  0.672D-03-0.609D-02-0.225D-01-0.202D-01 0.464D-01 0.247D+00
 Coeff-Com:  0.755D+00
 Coeff-En:   0.000D+00 0.000D+00 0.000D+00 0.000D+00 0.000D+00 0.000D+00
 Coeff-En:   0.100D+01
 Coeff:      0.670D-03-0.607D-02-0.225D-01-0.201D-01 0.463D-01 0.246D+00
 Coeff:      0.756D+00
 Gap=     0.240 Goal=   None    Shift=    0.000
 Gap=     0.141 Goal=   None    Shift=    0.000
 RMSDP=2.80D-05 MaxDP=1.27D-03 DE=-2.91D-04 OVMax= 4.18D-03

 Cycle   8  Pass 0  IDiag  1:
 E= -504.824683918817     Delta-E=       -0.000053578768 Rises=F Damp=F
 DIIS: error= 1.53D-04 at cycle   8 NSaved=   8.
 NSaved= 8 IEnMin= 8 EnMin= -504.824683918817     IErMin= 8 ErrMin= 1.53D-04
 ErrMax= 1.53D-04 EMaxC= 1.00D-01 BMatC= 3.91D-05 BMatP= 1.46D-04
 IDIUse=3 WtCom= 9.98D-01 WtEn= 1.53D-03
 Coeff-Com: -0.102D-02 0.225D-02-0.491D-01 0.145D-01-0.149D+00-0.210D-01
 Coeff-Com:  0.425D+00 0.778D+00
 Coeff-En:   0.000D+00 0.000D+00 0.000D+00 0.000D+00 0.000D+00 0.000D+00
 Coeff-En:   0.000D+00 0.100D+01
 Coeff:     -0.101D-02 0.225D-02-0.490D-01 0.145D-01-0.149D+00-0.210D-01
 Coeff:      0.425D+00 0.778D+00
 Gap=     0.241 Goal=   None    Shift=    0.000
 Gap=     0.142 Goal=   None    Shift=    0.000
 RMSDP=1.71D-05 MaxDP=6.86D-04 DE=-5.36D-05 OVMax= 3.49D-03

 Cycle   9  Pass 0  IDiag  1:
 E= -504.824704117745     Delta-E=       -0.000020198927 Rises=F Damp=F
 DIIS: error= 4.01D-05 at cycle   9 NSaved=   9.
 NSaved= 9 IEnMin= 9 EnMin= -504.824704117745     IErMin= 9 ErrMin= 4.01D-05
 ErrMax= 4.01D-05 EMaxC= 1.00D-01 BMatC= 2.79D-06 BMatP= 3.91D-05
 IDIUse=1 WtCom= 1.00D+00 WtEn= 0.00D+00
 Coeff-Com: -0.532D-03 0.130D-02-0.128D-01 0.687D-02-0.492D-01-0.372D-01
 Coeff-Com:  0.277D-01 0.206D+00 0.858D+00
 Coeff:     -0.532D-03 0.130D-02-0.128D-01 0.687D-02-0.492D-01-0.372D-01
 Coeff:      0.277D-01 0.206D+00 0.858D+00
 Gap=     0.241 Goal=   None    Shift=    0.000
 Gap=     0.143 Goal=   None    Shift=    0.000
 RMSDP=5.97D-06 MaxDP=2.91D-04 DE=-2.02D-05 OVMax= 1.37D-03

 Initial convergence to 1.0D-05 achieved.  Increase integral accuracy.
 Cycle  10  Pass 1  IDiag  1:
 E= -504.824797027987     Delta-E=       -0.000092910243 Rises=F Damp=F
 DIIS: error= 2.32D-05 at cycle   1 NSaved=   1.
 NSaved= 1 IEnMin= 1 EnMin= -504.824797027987     IErMin= 1 ErrMin= 2.32D-05
 ErrMax= 2.32D-05 EMaxC= 1.00D-01 BMatC= 1.62D-06 BMatP= 1.62D-06
 IDIUse=1 WtCom= 1.00D+00 WtEn= 0.00D+00
 Coeff-Com:  0.100D+01
 Coeff:      0.100D+01
 Gap=     0.241 Goal=   None    Shift=    0.000
 Gap=     0.143 Goal=   None    Shift=    0.000
 RMSDP=5.97D-06 MaxDP=2.91D-04 DE=-9.29D-05 OVMax= 6.49D-04

 Cycle  11  Pass 1  IDiag  1:
 E= -504.824797023398     Delta-E=        0.000000004589 Rises=F Damp=F
 DIIS: error= 3.46D-05 at cycle   2 NSaved=   2.
 NSaved= 2 IEnMin= 1 EnMin= -504.824797027987     IErMin= 1 ErrMin= 2.32D-05
 ErrMax= 3.46D-05 EMaxC= 1.00D-01 BMatC= 2.69D-06 BMatP= 1.62D-06
 IDIUse=1 WtCom= 1.00D+00 WtEn= 0.00D+00
 Coeff-Com:  0.572D+00 0.428D+00
 Coeff:      0.572D+00 0.428D+00
 Gap=     0.241 Goal=   None    Shift=    0.000
 Gap=     0.143 Goal=   None    Shift=    0.000
 RMSDP=2.48D-06 MaxDP=1.50D-04 DE= 4.59D-09 OVMax= 3.34D-04

 Cycle  12  Pass 1  IDiag  1:
 E= -504.824797690909     Delta-E=       -0.000000667510 Rises=F Damp=F
 DIIS: error= 8.07D-06 at cycle   3 NSaved=   3.
 NSaved= 3 IEnMin= 3 EnMin= -504.824797690909     IErMin= 3 ErrMin= 8.07D-06
 ErrMax= 8.07D-06 EMaxC= 1.00D-01 BMatC= 1.02D-07 BMatP= 1.62D-06
 IDIUse=1 WtCom= 1.00D+00 WtEn= 0.00D+00
 Coeff-Com: -0.669D-02 0.119D+00 0.888D+00
 Coeff:     -0.669D-02 0.119D+00 0.888D+00
 Gap=     0.241 Goal=   None    Shift=    0.000
 Gap=     0.143 Goal=   None    Shift=    0.000
 RMSDP=1.08D-06 MaxDP=4.43D-05 DE=-6.68D-07 OVMax= 2.65D-04

 Cycle  13  Pass 1  IDiag  1:
 E= -504.824797744476     Delta-E=       -0.000000053567 Rises=F Damp=F
 DIIS: error= 6.09D-06 at cycle   4 NSaved=   4.
 NSaved= 4 IEnMin= 4 EnMin= -504.824797744476     IErMin= 4 ErrMin= 6.09D-06
 ErrMax= 6.09D-06 EMaxC= 1.00D-01 BMatC= 6.59D-08 BMatP= 1.02D-07
 IDIUse=1 WtCom= 1.00D+00 WtEn= 0.00D+00
 Coeff-Com: -0.797D-01 0.199D-01 0.558D+00 0.502D+00
 Coeff:     -0.797D-01 0.199D-01 0.558D+00 0.502D+00
 Gap=     0.241 Goal=   None    Shift=    0.000
 Gap=     0.143 Goal=   None    Shift=    0.000
 RMSDP=5.83D-07 MaxDP=2.90D-05 DE=-5.36D-08 OVMax= 2.06D-04

 Cycle  14  Pass 1  IDiag  1:
 E= -504.824797771151     Delta-E=       -0.000000026675 Rises=F Damp=F
 DIIS: error= 3.34D-06 at cycle   5 NSaved=   5.
 NSaved= 5 IEnMin= 5 EnMin= -504.824797771151     IErMin= 5 ErrMin= 3.34D-06
 ErrMax= 3.34D-06 EMaxC= 1.00D-01 BMatC= 1.46D-08 BMatP= 6.59D-08
 IDIUse=1 WtCom= 1.00D+00 WtEn= 0.00D+00
 Coeff-Com: -0.415D-01-0.351D-01-0.789D-01 0.272D+00 0.884D+00
 Coeff:     -0.415D-01-0.351D-01-0.789D-01 0.272D+00 0.884D+00
 Gap=     0.241 Goal=   None    Shift=    0.000
 Gap=     0.143 Goal=   None    Shift=    0.000
 RMSDP=5.55D-07 MaxDP=2.66D-05 DE=-2.67D-08 OVMax= 1.75D-04

 Cycle  15  Pass 1  IDiag  1:
 E= -504.824797784026     Delta-E=       -0.000000012876 Rises=F Damp=F
 DIIS: error= 2.06D-06 at cycle   6 NSaved=   6.
 NSaved= 6 IEnMin= 6 EnMin= -504.824797784026     IErMin= 6 ErrMin= 2.06D-06
 ErrMax= 2.06D-06 EMaxC= 1.00D-01 BMatC= 6.47D-09 BMatP= 1.46D-08
 IDIUse=1 WtCom= 1.00D+00 WtEn= 0.00D+00
 Coeff-Com:  0.785D-02-0.324D-01-0.315D+00-0.226D-01 0.642D+00 0.721D+00
 Coeff:      0.785D-02-0.324D-01-0.315D+00-0.226D-01 0.642D+00 0.721D+00
 Gap=     0.241 Goal=   None    Shift=    0.000
 Gap=     0.143 Goal=   None    Shift=    0.000
 RMSDP=3.80D-07 MaxDP=1.91D-05 DE=-1.29D-08 OVMax= 1.49D-04

 Cycle  16  Pass 1  IDiag  1:
 E= -504.824797788404     Delta-E=       -0.000000004377 Rises=F Damp=F
 DIIS: error= 1.07D-06 at cycle   7 NSaved=   7.
 NSaved= 7 IEnMin= 7 EnMin= -504.824797788404     IErMin= 7 ErrMin= 1.07D-06
 ErrMax= 1.07D-06 EMaxC= 1.00D-01 BMatC= 1.96D-09 BMatP= 6.47D-09
 IDIUse=1 WtCom= 1.00D+00 WtEn= 0.00D+00
 Coeff-Com:  0.105D-01-0.185D-01-0.211D+00-0.535D-01 0.335D+00 0.501D+00
 Coeff-Com:  0.437D+00
 Coeff:      0.105D-01-0.185D-01-0.211D+00-0.535D-01 0.335D+00 0.501D+00
 Coeff:      0.437D+00
 Gap=     0.241 Goal=   None    Shift=    0.000
 Gap=     0.143 Goal=   None    Shift=    0.000
 RMSDP=8.83D-08 MaxDP=4.20D-06 DE=-4.38D-09 OVMax= 2.77D-05

 Cycle  17  Pass 1  IDiag  1:
 E= -504.824797788910     Delta-E=       -0.000000000507 Rises=F Damp=F
 DIIS: error= 2.87D-07 at cycle   8 NSaved=   8.
 NSaved= 8 IEnMin= 8 EnMin= -504.824797788910     IErMin= 8 ErrMin= 2.87D-07
 ErrMax= 2.87D-07 EMaxC= 1.00D-01 BMatC= 1.61D-10 BMatP= 1.96D-09
 IDIUse=1 WtCom= 1.00D+00 WtEn= 0.00D+00
 Coeff-Com:  0.361D-02-0.321D-02-0.442D-01-0.255D-01 0.439D-01 0.115D+00
 Coeff-Com:  0.232D+00 0.678D+00
 Coeff:      0.361D-02-0.321D-02-0.442D-01-0.255D-01 0.439D-01 0.115D+00
 Coeff:      0.232D+00 0.678D+00
 Gap=     0.241 Goal=   None    Shift=    0.000
 Gap=     0.143 Goal=   None    Shift=    0.000
 RMSDP=3.60D-08 MaxDP=1.78D-06 DE=-5.07D-10 OVMax= 1.08D-05

 Cycle  18  Pass 1  IDiag  1:
 E= -504.824797788980     Delta-E=       -0.000000000070 Rises=F Damp=F
 DIIS: error= 1.14D-07 at cycle   9 NSaved=   9.
 NSaved= 9 IEnMin= 9 EnMin= -504.824797788980     IErMin= 9 ErrMin= 1.14D-07
 ErrMax= 1.14D-07 EMaxC= 1.00D-01 BMatC= 3.03D-11 BMatP= 1.61D-10
 IDIUse=1 WtCom= 1.00D+00 WtEn= 0.00D+00
 Coeff-Com: -0.128D-02 0.342D-02 0.380D-01 0.139D-03-0.665D-01-0.899D-01
 Coeff-Com: -0.206D-01 0.292D+00 0.844D+00
 Coeff:     -0.128D-02 0.342D-02 0.380D-01 0.139D-03-0.665D-01-0.899D-01
 Coeff:     -0.206D-01 0.292D+00 0.844D+00
 Gap=     0.241 Goal=   None    Shift=    0.000
 Gap=     0.143 Goal=   None    Shift=    0.000
 RMSDP=2.22D-08 MaxDP=1.16D-06 DE=-6.98D-11 OVMax= 6.24D-06

 Cycle  19  Pass 1  IDiag  1:
 E= -504.824797788997     Delta-E=       -0.000000000017 Rises=F Damp=F
 DIIS: error= 4.81D-08 at cycle  10 NSaved=  10.
 NSaved=10 IEnMin=10 EnMin= -504.824797788997     IErMin=10 ErrMin= 4.81D-08
 ErrMax= 4.81D-08 EMaxC= 1.00D-01 BMatC= 4.76D-12 BMatP= 3.03D-11
 IDIUse=1 WtCom= 1.00D+00 WtEn= 0.00D+00
 Coeff-Com: -0.857D-03 0.130D-02 0.173D-01 0.159D-02-0.193D-01-0.457D-01
 Coeff-Com: -0.383D-01-0.387D-01 0.211D+00 0.912D+00
 Coeff:     -0.857D-03 0.130D-02 0.173D-01 0.159D-02-0.193D-01-0.457D-01
 Coeff:     -0.383D-01-0.387D-01 0.211D+00 0.912D+00
 Gap=     0.241 Goal=   None    Shift=    0.000
 Gap=     0.143 Goal=   None    Shift=    0.000
 RMSDP=8.48D-09 MaxDP=4.15D-07 DE=-1.68D-11 OVMax= 2.19D-06

 SCF Done:  E(UB3LYP) =  -504.824797789     A.U. after   19 cycles
             Convg  =    0.8476D-08             -V/T =  2.0042
 <Sx>= 0.0000 <Sy>= 0.0000 <Sz>= 0.5000 <S**2>= 0.7841 S= 0.5169
 <L.S>= 0.000000000000E+00
 KE= 5.027047399908D+02 PE=-2.473626018314D+03 EE= 8.176875446865D+02
 Annihilation of the first spin contaminant:
 S**2 before annihilation     0.7841,   after     0.7502
 Leave Link  502 at Mon Apr 21 10:55:55 2014, MaxMem= 4026531840 cpu:    1004.7
 (Enter /usr/caen/gaussian-09revc/g09/l801.exe)
 Range of M.O.s used for correlation:     1   312
 NBasis=   312 NAE=    45 NBE=    44 NFC=     0 NFV=     0
 NROrb=    312 NOA=    45 NOB=    44 NVA=   267 NVB=   268
 Leave Link  801 at Mon Apr 21 10:55:56 2014, MaxMem= 4026531840 cpu:       0.4
 (Enter /usr/caen/gaussian-09revc/g09/l1101.exe)
 Using compressed storage, NAtomX=    30.
 Will process  31 centers per pass.
 Leave Link 1101 at Mon Apr 21 10:55:57 2014, MaxMem= 4026531840 cpu:       4.8
 (Enter /usr/caen/gaussian-09revc/g09/l1102.exe)
 Symmetrizing basis deriv contribution to polar:
 IMax=3 JMax=2 DiffMx= 0.00D+00
 Leave Link 1102 at Mon Apr 21 10:55:58 2014, MaxMem= 4026531840 cpu:       1.3
 (Enter /usr/caen/gaussian-09revc/g09/l1110.exe)
 Forming Gx(P) for the SCF density, NAtomX=    30.
 Integral derivatives from FoFDir/FoFCou, PRISM(SPDF).
 Do as many integral derivatives as possible in FoFDir.
 G2DrvN: MDV=    4026531496.
 G2DrvN: will do    31 centers at a time, making    1 passes doing MaxLOS=2.
 Calling FoFCou, ICntrl=  3107 FMM=F I1Cent=   0 AccDes= 0.00D+00.
 FoFCou: FMM=F IPFlag=           0 FMFlag=      100000 FMFlg1=           0
         NFxFlg=           0 DoJE=F BraDBF=F KetDBF=F FulRan=T
         Omega=  0.000000  0.000000  1.000000  0.000000  0.000000 ICntrl=    3107 IOpCl=  1
         NMat0=    1 NMatS0=    1 NMatT0=    0 NMatD0=    1 NMtDS0=    0 NMtDT0=    0
         I1Cent=           0 NGrid=           0.
 Symmetry not used in FoFCou.
 FoFDir/FoFCou used for L=0 through L=2.
 End of G2Drv Frequency-dependent properties file   721 does not exist.
 End of G2Drv Frequency-dependent properties file   722 does not exist.
 Leave Link 1110 at Mon Apr 21 10:58:30 2014, MaxMem= 4026531840 cpu:    1213.8
 (Enter /usr/caen/gaussian-09revc/g09/l1002.exe)
 Minotr:  UHF open shell wavefunction.
          IDoAtm=111111111111111111111111111111
          Direct CPHF calculation.
          Differentiating once with respect to nuclear coordinates.
          Requested convergence is 1.0D-06 RMS, and 1.0D-05 maximum.
          Secondary convergence is 1.0D-12 RMS, and 1.0D-12 maximum.
          NewPWx=T KeepS1=F KeepF1=F KeepIn=T MapXYZ=F SortEE=F KeepMc=T.
          MDV=    4026531536 using IRadAn=       2.
 Generate precomputed XC quadrature information.
          Keep R1 and R2 ints in memory in canonical form, NReq=2738891885.
 Symmetry not used in FoFDir.
 MinBra= 0 MaxBra= 2 Meth= 1.
 IRaf=       0 NMat=   1 IRICut=       1 DoRegI=T DoRafI=F ISym2E= 0 JSym2E=0.
          Solving linear equations simultaneously, MaxMat=       0.
          There are    93 degrees of freedom in the 1st order CPHF.  IDoFFX=5.
     87 vectors produced by pass  0 Test12= 2.56D-10 1.08D-07 XBig12= 3.66D-01 3.38D-01.
 AX will form    87 AO Fock derivatives at one time.
     87 vectors produced by pass  1 Test12= 2.56D-10 1.08D-07 XBig12= 1.73D-02 3.06D-02.
     87 vectors produced by pass  2 Test12= 2.56D-10 1.08D-07 XBig12= 1.13D-04 2.23D-03.
     87 vectors produced by pass  3 Test12= 2.56D-10 1.08D-07 XBig12= 7.90D-07 1.08D-04.
     63 vectors produced by pass  4 Test12= 2.56D-10 1.08D-07 XBig12= 4.10D-09 9.28D-06.
     12 vectors produced by pass  5 Test12= 2.56D-10 1.08D-07 XBig12= 2.06D-11 3.52D-07.
 Inverted reduced A of dimension   423 with in-core refinement.
 End of Minotr Frequency-dependent properties file   721 does not exist.
 End of Minotr Frequency-dependent properties file   722 does not exist.
 Leave Link 1002 at Mon Apr 21 11:02:15 2014, MaxMem= 4026531840 cpu:    1770.3
 (Enter /usr/caen/gaussian-09revc/g09/l601.exe)
 Copying SCF densities to generalized density rwf, IOpCl= 1 IROHF=0.

 **********************************************************************

            Population analysis using the SCF density.

 **********************************************************************

 Orbital symmetries:
 Alpha Orbitals:
       Occupied  (A) (A) (A) (A) (A) (A) (A) (A) (A) (A) (A) (A)
                 (A) (A) (A) (A) (A) (A) (A) (A) (A) (A) (A) (A)
                 (A) (A) (A) (A) (A) (A) (A) (A) (A) (A) (A) (A)
                 (A) (A) (A) (A) (A) (A) (A) (A) (A)
       Virtual   (A) (A) (A) (A) (A) (A) (A) (A) (A) (A) (A) (A)
                 (A) (A) (A) (A) (A) (A) (A) (A) (A) (A) (A) (A)
                 (A) (A) (A) (A) (A) (A) (A) (A) (A) (A) (A) (A)
                 (A) (A) (A) (A) (A) (A) (A) (A) (A) (A) (A) (A)
                 (A) (A) (A) (A) (A) (A) (A) (A) (A) (A) (A) (A)
                 (A) (A) (A) (A) (A) (A) (A) (A) (A) (A) (A) (A)
                 (A) (A) (A) (A) (A) (A) (A) (A) (A) (A) (A) (A)
                 (A) (A) (A) (A) (A) (A) (A) (A) (A) (A) (A) (A)
                 (A) (A) (A) (A) (A) (A) (A) (A) (A) (A) (A) (A)
                 (A) (A) (A) (A) (A) (A) (A) (A) (A) (A) (A) (A)
                 (A) (A) (A) (A) (A) (A) (A) (A) (A) (A) (A) (A)
                 (A) (A) (A) (A) (A) (A) (A) (A) (A) (A) (A) (A)
                 (A) (A) (A) (A) (A) (A) (A) (A) (A) (A) (A) (A)
                 (A) (A) (A) (A) (A) (A) (A) (A) (A) (A) (A) (A)
                 (A) (A) (A) (A) (A) (A) (A) (A) (A) (A) (A) (A)
                 (A) (A) (A) (A) (A) (A) (A) (A) (A) (A) (A) (A)
                 (A) (A) (A) (A) (A) (A) (A) (A) (A) (A) (A) (A)
                 (A) (A) (A) (A) (A) (A) (A) (A) (A) (A) (A) (A)
                 (A) (A) (A) (A) (A) (A) (A) (A) (A) (A) (A) (A)
                 (A) (A) (A) (A) (A) (A) (A) (A) (A) (A) (A) (A)
                 (A) (A) (A) (A) (A) (A) (A) (A) (A) (A) (A) (A)
                 (A) (A) (A) (A) (A) (A) (A) (A) (A) (A) (A) (A)
                 (A) (A) (A)
 Beta  Orbitals:
       Occupied  (A) (A) (A) (A) (A) (A) (A) (A) (A) (A) (A) (A)
                 (A) (A) (A) (A) (A) (A) (A) (A) (A) (A) (A) (A)
                 (A) (A) (A) (A) (A) (A) (A) (A) (A) (A) (A) (A)
                 (A) (A) (A) (A) (A) (A) (A) (A)
       Virtual   (A) (A) (A) (A) (A) (A) (A) (A) (A) (A) (A) (A)
                 (A) (A) (A) (A) (A) (A) (A) (A) (A) (A) (A) (A)
                 (A) (A) (A) (A) (A) (A) (A) (A) (A) (A) (A) (A)
                 (A) (A) (A) (A) (A) (A) (A) (A) (A) (A) (A) (A)
                 (A) (A) (A) (A) (A) (A) (A) (A) (A) (A) (A) (A)
                 (A) (A) (A) (A) (A) (A) (A) (A) (A) (A) (A) (A)
                 (A) (A) (A) (A) (A) (A) (A) (A) (A) (A) (A) (A)
                 (A) (A) (A) (A) (A) (A) (A) (A) (A) (A) (A) (A)
                 (A) (A) (A) (A) (A) (A) (A) (A) (A) (A) (A) (A)
                 (A) (A) (A) (A) (A) (A) (A) (A) (A) (A) (A) (A)
                 (A) (A) (A) (A) (A) (A) (A) (A) (A) (A) (A) (A)
                 (A) (A) (A) (A) (A) (A) (A) (A) (A) (A) (A) (A)
                 (A) (A) (A) (A) (A) (A) (A) (A) (A) (A) (A) (A)
                 (A) (A) (A) (A) (A) (A) (A) (A) (A) (A) (A) (A)
                 (A) (A) (A) (A) (A) (A) (A) (A) (A) (A) (A) (A)
                 (A) (A) (A) (A) (A) (A) (A) (A) (A) (A) (A) (A)
                 (A) (A) (A) (A) (A) (A) (A) (A) (A) (A) (A) (A)
                 (A) (A) (A) (A) (A) (A) (A) (A) (A) (A) (A) (A)
                 (A) (A) (A) (A) (A) (A) (A) (A) (A) (A) (A) (A)
                 (A) (A) (A) (A) (A) (A) (A) (A) (A) (A) (A) (A)
                 (A) (A) (A) (A) (A) (A) (A) (A) (A) (A) (A) (A)
                 (A) (A) (A) (A) (A) (A) (A) (A) (A) (A) (A) (A)
                 (A) (A) (A) (A)
 The electronic state is 2-A.
 Alpha  occ. eigenvalues --  -19.17721 -19.15753 -10.21839 -10.18221 -10.17040
 Alpha  occ. eigenvalues --  -10.16878 -10.16771 -10.15840 -10.15814 -10.15287
 Alpha  occ. eigenvalues --  -10.15226  -1.11468  -0.85943  -0.81722  -0.80242
 Alpha  occ. eigenvalues --   -0.75254  -0.69953  -0.68060  -0.67847  -0.60463
 Alpha  occ. eigenvalues --   -0.55617  -0.53971  -0.51113  -0.48331  -0.47464
 Alpha  occ. eigenvalues --   -0.45832  -0.44941  -0.43539  -0.42925  -0.42531
 Alpha  occ. eigenvalues --   -0.40612  -0.39017  -0.38284  -0.38150  -0.38033
 Alpha  occ. eigenvalues --   -0.36756  -0.35584  -0.34646  -0.33488  -0.31838
 Alpha  occ. eigenvalues --   -0.31663  -0.30950  -0.28960  -0.26756  -0.22717
 Alpha virt. eigenvalues --    0.01378   0.02994   0.04511   0.05563   0.06647
 Alpha virt. eigenvalues --    0.07216   0.07993   0.09140   0.09717   0.09879
 Alpha virt. eigenvalues --    0.10985   0.11282   0.11922   0.12892   0.13681
 Alpha virt. eigenvalues --    0.14253   0.15004   0.15453   0.16410   0.16735
 Alpha virt. eigenvalues --    0.18584   0.19191   0.21173   0.22134   0.23050
 Alpha virt. eigenvalues --    0.23816   0.25543   0.26482   0.27312   0.29742
 Alpha virt. eigenvalues --    0.30329   0.31711   0.32956   0.33341   0.34696
 Alpha virt. eigenvalues --    0.36034   0.36597   0.39252   0.39562   0.41270
 Alpha virt. eigenvalues --    0.42309   0.42916   0.44368   0.46959   0.47432
 Alpha virt. eigenvalues --    0.49331   0.50279   0.53002   0.55262   0.55842
 Alpha virt. eigenvalues --    0.56581   0.57097   0.57516   0.58169   0.58371
 Alpha virt. eigenvalues --    0.58684   0.59062   0.59953   0.60323   0.60821
 Alpha virt. eigenvalues --    0.61117   0.61276   0.61893   0.63155   0.63604
 Alpha virt. eigenvalues --    0.63790   0.64374   0.65428   0.65921   0.66678
 Alpha virt. eigenvalues --    0.67464   0.69325   0.71681   0.74135   0.77768
 Alpha virt. eigenvalues --    0.78514   0.81414   0.84904   0.87077   0.88678
 Alpha virt. eigenvalues --    0.89785   0.91522   0.92098   0.93260   0.96047
 Alpha virt. eigenvalues --    0.98253   0.99978   1.00559   1.02237   1.03645
 Alpha virt. eigenvalues --    1.08565   1.10717   1.11804   1.14643   1.16470
 Alpha virt. eigenvalues --    1.19111   1.20529   1.21929   1.26279   1.27825
 Alpha virt. eigenvalues --    1.29292   1.32304   1.33561   1.34910   1.38097
 Alpha virt. eigenvalues --    1.39487   1.40408   1.42141   1.43039   1.43204
 Alpha virt. eigenvalues --    1.45351   1.45949   1.46737   1.47363   1.48253
 Alpha virt. eigenvalues --    1.50217   1.50914   1.51404   1.53177   1.53695
 Alpha virt. eigenvalues --    1.54104   1.56675   1.57002   1.58033   1.58840
 Alpha virt. eigenvalues --    1.60054   1.60345   1.61379   1.62509   1.64542
 Alpha virt. eigenvalues --    1.66158   1.67165   1.68415   1.69828   1.70317
 Alpha virt. eigenvalues --    1.70915   1.73315   1.73457   1.74536   1.75116
 Alpha virt. eigenvalues --    1.77981   1.78804   1.79092   1.82326   1.83066
 Alpha virt. eigenvalues --    1.86540   1.89484   1.92234   1.93329   1.93513
 Alpha virt. eigenvalues --    1.94805   1.96781   1.98495   1.99508   2.00881
 Alpha virt. eigenvalues --    2.03026   2.03451   2.06657   2.06971   2.10023
 Alpha virt. eigenvalues --    2.12494   2.13744   2.14359   2.17324   2.18830
 Alpha virt. eigenvalues --    2.22870   2.23640   2.26900   2.28864   2.30818
 Alpha virt. eigenvalues --    2.31205   2.34463   2.35760   2.37276   2.38779
 Alpha virt. eigenvalues --    2.39529   2.41870   2.43132   2.44622   2.46325
 Alpha virt. eigenvalues --    2.47002   2.47662   2.48122   2.49319   2.49656
 Alpha virt. eigenvalues --    2.51440   2.51698   2.52640   2.53427   2.54886
 Alpha virt. eigenvalues --    2.55705   2.57054   2.57917   2.58468   2.59370
 Alpha virt. eigenvalues --    2.61264   2.62423   2.63297   2.65116   2.65685
 Alpha virt. eigenvalues --    2.66505   2.68293   2.69012   2.71790   2.72478
 Alpha virt. eigenvalues --    2.73635   2.75418   2.77420   2.79515   2.80002
 Alpha virt. eigenvalues --    2.83264   2.85164   2.86004   2.89195   2.89948
 Alpha virt. eigenvalues --    2.92796   2.93916   2.96789   3.00232   3.02473
 Alpha virt. eigenvalues --    3.07453   3.10618   3.11709   3.21032   3.22667
 Alpha virt. eigenvalues --    3.25307   3.30098   3.33627   3.40625   3.47703
 Alpha virt. eigenvalues --    3.65157   3.68300   3.75748   3.76632   3.77958
 Alpha virt. eigenvalues --    3.78567   3.79848   3.80862   3.81277   3.82537
 Alpha virt. eigenvalues --    3.84007   3.84904   3.86348   3.97508   4.07083
 Alpha virt. eigenvalues --    4.17846   4.27099   4.29901   4.32324   4.42550
 Alpha virt. eigenvalues --    4.67481   4.81073   4.88856   4.92362   5.33351
 Alpha virt. eigenvalues --    5.72514  23.72811  23.82272  23.86935  23.88659
 Alpha virt. eigenvalues --   23.89631  23.93309  23.94043  23.94839  24.04288
 Alpha virt. eigenvalues --   49.75385  49.78592
  Beta  occ. eigenvalues --  -19.17366 -19.14528 -10.22097 -10.17273 -10.17014
  Beta  occ. eigenvalues --  -10.16878 -10.16748 -10.15839 -10.15814 -10.15287
  Beta  occ. eigenvalues --  -10.15226  -1.10037  -0.84610  -0.81162  -0.79545
  Beta  occ. eigenvalues --   -0.75109  -0.68840  -0.68055  -0.67486  -0.60443
  Beta  occ. eigenvalues --   -0.55600  -0.53447  -0.50513  -0.48041  -0.47128
  Beta  occ. eigenvalues --   -0.45441  -0.44757  -0.43151  -0.42769  -0.41900
  Beta  occ. eigenvalues --   -0.40456  -0.38254  -0.38131  -0.38060  -0.36849
  Beta  occ. eigenvalues --   -0.36193  -0.35559  -0.34547  -0.33446  -0.31835
  Beta  occ. eigenvalues --   -0.31648  -0.30940  -0.25964  -0.24996
  Beta virt. eigenvalues --   -0.10734   0.03101   0.03259   0.04568   0.05852
  Beta virt. eigenvalues --    0.06722   0.07367   0.08021   0.09336   0.09917
  Beta virt. eigenvalues --    0.10621   0.11102   0.11346   0.11978   0.12914
  Beta virt. eigenvalues --    0.13694   0.14296   0.15027   0.15461   0.16452
  Beta virt. eigenvalues --    0.16792   0.18575   0.19170   0.21194   0.22136
  Beta virt. eigenvalues --    0.23079   0.23858   0.25530   0.26520   0.27362
  Beta virt. eigenvalues --    0.29917   0.30327   0.31828   0.33014   0.33907
  Beta virt. eigenvalues --    0.34958   0.36403   0.37149   0.39529   0.39641
  Beta virt. eigenvalues --    0.41534   0.42694   0.42994   0.44509   0.46987
  Beta virt. eigenvalues --    0.48393   0.49972   0.51302   0.53103   0.55327
  Beta virt. eigenvalues --    0.55969   0.56726   0.57339   0.57588   0.58181
  Beta virt. eigenvalues --    0.58457   0.58730   0.59113   0.59998   0.60390
  Beta virt. eigenvalues --    0.60858   0.61157   0.61357   0.61996   0.63209
  Beta virt. eigenvalues --    0.63648   0.63813   0.64484   0.65497   0.66010
  Beta virt. eigenvalues --    0.66698   0.67844   0.69802   0.71744   0.74375
  Beta virt. eigenvalues --    0.78280   0.79214   0.81824   0.85068   0.87583
  Beta virt. eigenvalues --    0.89081   0.90217   0.92025   0.92414   0.93727
  Beta virt. eigenvalues --    0.96217   0.98614   1.00072   1.01017   1.02641
  Beta virt. eigenvalues --    1.04385   1.08635   1.11022   1.12481   1.14878
  Beta virt. eigenvalues --    1.16802   1.19212   1.20597   1.22084   1.26583
  Beta virt. eigenvalues --    1.27991   1.29617   1.32467   1.33890   1.35436
  Beta virt. eigenvalues --    1.38125   1.39469   1.40618   1.42097   1.43114
  Beta virt. eigenvalues --    1.43462   1.45541   1.45965   1.46781   1.47681
  Beta virt. eigenvalues --    1.48330   1.50343   1.50989   1.51495   1.53301
  Beta virt. eigenvalues --    1.53789   1.54437   1.56803   1.57023   1.58172
  Beta virt. eigenvalues --    1.58863   1.60137   1.60164   1.61497   1.62583
  Beta virt. eigenvalues --    1.64619   1.66255   1.67278   1.68609   1.69973
  Beta virt. eigenvalues --    1.70463   1.71140   1.73367   1.73625   1.74638
  Beta virt. eigenvalues --    1.75513   1.78291   1.78827   1.79177   1.82588
  Beta virt. eigenvalues --    1.83438   1.86861   1.89588   1.92406   1.93479
  Beta virt. eigenvalues --    1.93624   1.95558   1.96848   1.99110   1.99680
  Beta virt. eigenvalues --    2.01050   2.03146   2.03624   2.06994   2.07183
  Beta virt. eigenvalues --    2.10052   2.12665   2.13824   2.14470   2.17375
  Beta virt. eigenvalues --    2.18837   2.23064   2.23719   2.26957   2.29026
  Beta virt. eigenvalues --    2.30855   2.31308   2.34527   2.35774   2.37271
  Beta virt. eigenvalues --    2.38801   2.39566   2.42042   2.43192   2.44626
  Beta virt. eigenvalues --    2.46383   2.47053   2.47734   2.48360   2.49399
  Beta virt. eigenvalues --    2.49775   2.51462   2.51930   2.52681   2.53632
  Beta virt. eigenvalues --    2.55278   2.55948   2.57426   2.58270   2.58854
  Beta virt. eigenvalues --    2.59952   2.61409   2.62545   2.63593   2.65286
  Beta virt. eigenvalues --    2.65774   2.66744   2.68819   2.69342   2.71970
  Beta virt. eigenvalues --    2.73099   2.73993   2.75859   2.77617   2.79705
  Beta virt. eigenvalues --    2.81420   2.83371   2.86011   2.86944   2.89381
  Beta virt. eigenvalues --    2.90263   2.92870   2.94094   2.97416   3.00862
  Beta virt. eigenvalues --    3.02667   3.07751   3.11528   3.11846   3.22691
  Beta virt. eigenvalues --    3.23359   3.26438   3.30765   3.34049   3.40819
  Beta virt. eigenvalues --    3.47718   3.65695   3.69163   3.76573   3.76921
  Beta virt. eigenvalues --    3.77967   3.78608   3.79999   3.81064   3.81318
  Beta virt. eigenvalues --    3.82684   3.84118   3.84957   3.86419   3.97511
  Beta virt. eigenvalues --    4.07118   4.17848   4.27299   4.29903   4.32466
  Beta virt. eigenvalues --    4.42630   4.68004   4.83265   4.89982   4.96333
  Beta virt. eigenvalues --    5.33786   5.73269  23.73040  23.82272  23.86918
  Beta virt. eigenvalues --   23.88678  23.89632  23.93348  23.94046  23.94840
  Beta virt. eigenvalues --   24.04871  49.75759  49.79795
          Condensed to atoms (all electrons):
              1          2          3          4          5          6
     1  C    4.860753   0.395955   0.396137   0.400710  -0.062303  -0.009662
     2  H    0.395955   0.583250  -0.031735  -0.029721  -0.010031   0.004727
     3  H    0.396137  -0.031735   0.576790  -0.024365  -0.001357  -0.000194
     4  H    0.400710  -0.029721  -0.024365   0.570819   0.008087   0.000135
     5  C   -0.062303  -0.010031  -0.001357   0.008087   4.938639   0.410548
     6  H   -0.009662   0.004727  -0.000194   0.000135   0.410548   0.568836
     7  H   -0.001587  -0.000645   0.001719  -0.000194   0.391318  -0.037424
     8  C    0.006442   0.000121  -0.000017  -0.000405   0.359469  -0.040966
     9  H    0.000545   0.000258  -0.000120  -0.000037  -0.044058  -0.007509
    10  H   -0.000415   0.000013  -0.000009   0.000010  -0.032867   0.008691
    11  C   -0.000206  -0.000073   0.000007   0.000015  -0.048961  -0.004633
    12  H    0.000012   0.000000   0.000000   0.000001  -0.004296  -0.000789
    13  H   -0.000034  -0.000013   0.000003   0.000000  -0.006071   0.004962
    14  C    0.000003   0.000000   0.000000   0.000000   0.006327  -0.000021
    15  H    0.000000   0.000000   0.000000   0.000000  -0.000095   0.000069
    16  C    0.000000   0.000000   0.000000   0.000000  -0.000255  -0.000035
    17  H    0.000000   0.000000   0.000000   0.000000  -0.000006   0.000010
    18  H    0.000000   0.000000   0.000000   0.000000   0.000013   0.000002
    19  H    0.000000   0.000000   0.000000   0.000000  -0.000031  -0.000008
    20  C   -0.056383   0.009777  -0.004686  -0.008189  -0.060275   0.008598
    21  H   -0.010799   0.000143   0.000332   0.003619   0.007092  -0.000211
    22  H    0.005994  -0.000403  -0.000254   0.000101  -0.010994   0.000190
    23  C    0.000000   0.000000   0.000000   0.000000  -0.000061  -0.000012
    24  H    0.000000   0.000000   0.000000   0.000000   0.000014   0.000002
    25  H    0.000000   0.000000   0.000000   0.000000  -0.000069   0.000007
    26  H    0.000000   0.000000   0.000000   0.000000  -0.000141  -0.000023
    27  C    0.340688  -0.044706  -0.032731  -0.032087   0.319169  -0.040536
    28  O   -0.018019  -0.007744   0.002714   0.002072  -0.042366  -0.010255
    29  O   -0.002174   0.023744   0.000042  -0.000144  -0.011473   0.017352
    30  H    0.001919   0.001721  -0.000252  -0.000149   0.000833  -0.001502
              7          8          9         10         11         12
     1  C   -0.001587   0.006442   0.000545  -0.000415  -0.000206   0.000012
     2  H   -0.000645   0.000121   0.000258   0.000013  -0.000073   0.000000
     3  H    0.001719  -0.000017  -0.000120  -0.000009   0.000007   0.000000
     4  H   -0.000194  -0.000405  -0.000037   0.000010   0.000015   0.000001
     5  C    0.391318   0.359469  -0.044058  -0.032867  -0.048961  -0.004296
     6  H   -0.037424  -0.040966  -0.007509   0.008691  -0.004633  -0.000789
     7  H    0.609471  -0.032368   0.009143  -0.009101  -0.004220   0.004215
     8  C   -0.032368   4.936675   0.409203   0.395038   0.367456  -0.040671
     9  H    0.009143   0.409203   0.568099  -0.039040  -0.036661   0.008546
    10  H   -0.009101   0.395038  -0.039040   0.617172  -0.035354  -0.008842
    11  C   -0.004220   0.367456  -0.036661  -0.035354   4.958021   0.397722
    12  H    0.004215  -0.040671   0.008546  -0.008842   0.397722   0.621302
    13  H   -0.000397  -0.041006  -0.006883   0.009209   0.410353  -0.037380
    14  C    0.000026  -0.053128  -0.004084  -0.005424   0.370832  -0.039661
    15  H   -0.000008  -0.005277   0.004676  -0.000581  -0.048323   0.010416
    16  C    0.000005   0.007561   0.000060  -0.000049  -0.066158  -0.004884
    17  H   -0.000012  -0.000046   0.000012   0.000015  -0.006936   0.004908
    18  H    0.000000  -0.000413  -0.000010   0.000023   0.008581  -0.000342
    19  H    0.000004   0.000049   0.000014  -0.000005  -0.005819  -0.000566
    20  C   -0.004912  -0.010037  -0.001259   0.004784   0.000070  -0.000070
    21  H   -0.000388  -0.000128  -0.000177   0.000124   0.000006  -0.000002
    22  H    0.000345   0.003262   0.001001   0.000314  -0.000047   0.000037
    23  C   -0.000014  -0.006781  -0.000700   0.001846  -0.066445  -0.009480
    24  H   -0.000003   0.000010  -0.000075  -0.000091   0.008268  -0.000207
    25  H   -0.000016  -0.000659   0.000056   0.000546  -0.006676   0.005617
    26  H    0.000064   0.001475   0.000660   0.000169  -0.005463  -0.000088
    27  C   -0.035978  -0.037303  -0.004433  -0.008771   0.005744   0.000251
    28  O    0.003013  -0.002880   0.016216   0.000237  -0.000391  -0.000025
    29  O   -0.000445   0.000546  -0.001132  -0.000034  -0.000026   0.000001
    30  H    0.000017  -0.000073   0.000215   0.000006   0.000001  -0.000001
             13         14         15         16         17         18
     1  C   -0.000034   0.000003   0.000000   0.000000   0.000000   0.000000
     2  H   -0.000013   0.000000   0.000000   0.000000   0.000000   0.000000
     3  H    0.000003   0.000000   0.000000   0.000000   0.000000   0.000000
     4  H    0.000000   0.000000   0.000000   0.000000   0.000000   0.000000
     5  C   -0.006071   0.006327  -0.000095  -0.000255  -0.000006   0.000013
     6  H    0.004962  -0.000021   0.000069  -0.000035   0.000010   0.000002
     7  H   -0.000397   0.000026  -0.000008   0.000005  -0.000012   0.000000
[...]
 0.00006897,0.00002430,0.00014005,0.00047284,0.00008871,0.00055272,-0.0
 0657917,0.00003430,-0.00020244,0.00002331,-0.00010049,0.00174742,-0.00
 019108,-0.00109732,0.02628947,-0.00047129,-0.01886063,-0.00037411,0.00
 123237,0.00053969,0.00125832,0.00159432,-0.00028081,-0.00013973,-0.000
 08366,0.00000456,-0.00068677,-0.00032457,0.00017873,-0.00003087,0.0003
 2138,0.00037575,0.00004410,0.00000273,-0.00001466,-0.00000276,0.000008
 56,0.00001221,0.00000992,-0.00000393,0.00001327,0.00082962,-0.04613222
 ,-0.00028019,-0.00302833,0.05126491,0.00001313,0.00000875,0.00001008,-
 0.00000355,-0.00000136,0.00000207,-0.00000473,0.00000006,0.00000131,0.
 00001178,-0.00000006,0.00000100,0.00006394,0.00016031,0.00003194,-0.00
 006219,0.00000627,0.00003557,-0.00001385,0.00000063,0.00001946,-0.0002
 5561,-0.00021422,0.00006718,0.00004385,0.00000258,0.00000501,0.0000418
 7,0.00022807,-0.00008574,-0.00015964,-0.00132406,0.00060257,-0.0003092
 4,0.00006388,0.00053667,0.00053857,-0.00017936,0.00013914,0.00205554,0
 .00045388,-0.00286175,-0.00026783,-0.00039238,0.00051344,0.00048353,0.
 00044287,-0.00015633,0.00011993,-0.00001531,-0.00009881,-0.00041550,-0
 .00045264,0.00023678,-0.00032095,0.00007709,0.00011864,0.00001981,0.00
 000846,0.00001109,0.00000516,0.00000529,0.00000321,0.00000231,-0.00000
 612,-0.00000401,0.11892609,-0.00115140,-0.12630378,-0.13180471,0.00189
 652,0.13378892,0.00000053,0.00000762,-0.00000122,-0.00000315,-0.000000
 12,0.00000149,-0.00000543,0.00000012,0.00000498,0.00000411,0.00000082,
 0.00000170,-0.00000319,0.00001459,-0.00001024,0.00000342,0.00000951,0.
 00000481,-0.00004248,0.00000444,0.00005686,-0.00022448,-0.00008104,0.0
 0017589,0.00018620,-0.00011507,0.00007118,-0.00006588,-0.00001298,-0.0
 0017651,0.00045721,0.00016801,-0.00161541,0.00004362,-0.00002692,0.000
 60936,0.00013943,-0.00022122,0.00022026,-0.00366840,0.00517235,-0.0100
 6890,-0.00006738,0.00233202,0.00051559,0.00016464,-0.00079979,0.000592
 51,0.00045273,0.00001060,0.00011214,0.00003942,-0.00002138,0.00013016,
 -0.00013327,-0.00000087,0.00001260,0.00002002,0.00000453,0.00003536,0.
 00000010,0.00000637,-0.00000148,0.00000371,0.00000852,-0.00002346,-0.0
 5799377,0.02036327,-0.04624787,0.00665138,-0.01153774,0.02448588,0.058
 70169,0.00000623,0.00000391,0.00000497,-0.00000012,-0.00000161,0.00000
 240,0.00000072,0.00000179,-0.00000044,0.00000344,-0.00000092,-0.000001
 61,0.00004298,0.00005325,0.00002515,-0.00000228,0.00000195,0.00000910,
 0.00002455,0.00000629,-0.00001637,0.00008412,-0.00000900,-0.00010341,-
 0.00015962,-0.00007097,-0.00008350,0.00004451,0.00000078,-0.00000841,-
 0.00113395,0.00123396,0.00126272,0.00027613,0.00038615,-0.00091598,-0.
 00037451,0.00028763,-0.00025140,0.00704792,-0.01504492,0.02925163,0.00
 206730,-0.00587272,-0.00135454,0.00061446,0.00150040,0.00147672,-0.000
 53908,-0.00006825,-0.00099755,-0.00003455,-0.00008116,-0.00006691,-0.0
 0001053,0.00042762,-0.00039863,0.00000495,-0.00001328,-0.00001493,-0.0
 0000146,0.00000149,0.00000238,0.00000644,-0.00000016,-0.00000353,0.020
 53864,-0.08843987,0.09120707,-0.00056270,-0.00066991,-0.00041108,-0.02
 538562,0.09839166,-0.00001531,0.00000066,-0.00001460,0.00000063,0.0000
 0184,-0.00000126,-0.00000149,-0.00000050,0.00000709,-0.00001012,-0.000
 00004,0.00000064,0.00001192,0.00003775,-0.00006078,-0.00000647,-0.0000
 0279,0.00001791,-0.00002522,-0.00000302,0.00004839,-0.00013380,0.00007
 411,0.00011469,0.00007937,-0.00008372,0.00001576,-0.00007209,0.0000784
 6,-0.00016266,0.00028088,-0.00041787,0.00098967,-0.00050008,0.00015575
 ,0.00029918,-0.00012794,0.00001433,0.00024665,0.00052098,-0.00095511,0
 .00246395,0.00045480,-0.00096305,0.00145844,0.00024520,-0.00021821,0.0
 0077418,0.00034027,0.00046900,0.00028619,-0.00008182,-0.00000937,-0.00
 008687,0.00012393,0.00009995,0.00025341,0.00000906,-0.00001711,0.00001
 729,-0.00001349,0.00000460,-0.00000364,0.00000834,0.00002211,-0.000014
 29,-0.04626633,0.09162793,-0.24703537,-0.00410621,0.00641957,-0.015647
 16,0.05129733,-0.10185239,0.26884377,0.00002132,0.00001092,0.00002059,
 -0.00000532,0.00000173,0.00000070,-0.00000378,-0.00000194,0.00000002,0
 .00001620,-0.00000025,-0.00000132,0.00004054,0.00013872,0.00007175,-0.
 00003552,0.00002310,0.00002234,0.00001653,0.00000133,-0.00001578,-0.00
 103465,0.00009359,0.00037217,-0.00003894,0.00003704,-0.00008773,-0.001
 43833,0.00088961,0.00056083,0.00030548,-0.00062818,0.00022124,-0.00007
 727,0.00002497,0.00005187,0.00015630,-0.00005728,-0.00019809,0.0086014
 8,0.00606767,0.00601124,0.00058658,-0.00087467,0.00004750,-0.00031582,
 0.00143174,0.00051750,-0.00006640,0.00010112,0.00011887,0.00030469,0.0
 0028851,-0.00015807,0.00050015,0.00045149,0.00006499,0.00002189,0.0000
 2496,0.00002224,0.00001704,0.00000029,-0.00000182,-0.00001520,-0.00001
 949,-0.00001375,-0.17019226,-0.10087574,-0.08316544,-0.01849873,-0.014
 43742,-0.01319610,-0.00463621,-0.00257289,-0.00199513,0.18575422,-0.00
 001555,-0.00000459,-0.00001222,0.00000294,0.00000322,-0.00000409,0.000
 00177,-0.00000236,0.00000503,-0.00001619,-0.00000348,-0.00000303,0.000
 23311,0.00046653,0.00008266,-0.00020540,0.00002120,0.00011562,-0.00005
 228,-0.00003598,0.00006531,-0.00019204,-0.00042292,-0.00002125,0.00017
 628,-0.00015645,0.00007542,0.00065014,0.00098823,-0.00016287,-0.000982
 13,0.00071862,0.00022681,0.00013190,-0.00000119,-0.00000809,-0.0000361
 5,0.00003676,0.00014937,-0.02284509,-0.01553884,-0.01416556,-0.0002846
 5,0.00104169,0.00069833,0.00393434,-0.00580597,0.00000477,0.00010379,0
 .00017779,-0.00018237,0.00019277,0.00025489,0.00025014,-0.00142110,-0.
 00129196,-0.00105893,0.00003050,-0.00006507,-0.00005512,-0.00003218,0.
 00000693,0.00000869,0.00002780,0.00004545,0.00001239,-0.09963267,-0.12
 889844,-0.06697766,0.00011633,-0.00026462,0.00082042,0.01014675,0.0079
 6328,0.00552278,0.10991423,0.14067762,-0.00001438,-0.00001017,-0.00001
 214,0.00000568,0.00000266,-0.00000464,0.00000482,-0.00000398,-0.000000
 98,-0.00001657,-0.00000424,-0.00000138,0.00012215,0.00043656,-0.000042
 70,-0.00016694,0.00003382,0.00010540,0.00000751,-0.00004608,-0.0000151
 3,-0.00006277,-0.00096163,0.00017244,-0.00005057,0.00020228,-0.0000676
 6,0.00074644,0.00057963,0.00012636,-0.00072696,-0.00030283,-0.00011172
 ,-0.00000173,-0.00006601,-0.00001788,0.00009997,0.00009201,0.00003535,
 -0.00167195,-0.00059605,-0.00274413,0.00051815,-0.00002376,0.00049112,
 0.00091665,-0.00076960,0.00056092,0.00027275,0.00028903,0.00041985,-0.
 00032484,-0.00004626,0.00005818,-0.00035578,-0.00024120,0.00036775,0.0
 0001088,-0.00004748,-0.00010070,-0.00002600,-0.00000059,0.00001134,0.0
 0002184,-0.00000153,0.00006398,-0.08242199,-0.06752774,-0.10275212,0.0
 1246593,0.01107946,0.00906977,-0.02018237,-0.01674601,-0.01283873,0.09
 078154,0.07456628,0.10717085,-0.16059405,0.01322059,0.04989478,0.00028
 162,0.00171805,0.00056374,0.00192063,0.00022326,-0.00006172,-0.0235231
 1,0.00419346,0.01787394,-0.16135504,-0.02993589,-0.02944075,0.00095201
 ,-0.00147089,-0.00217372,-0.00420106,-0.00316302,-0.00422235,-0.027170
 68,-0.00743907,-0.00871781,0.00128832,0.00021047,-0.00109547,0.0012438
 2,-0.00057441,-0.00058338,-0.00202419,0.00152618,0.00347083,0.00001621
 ,0.00019621,-0.00012773,0.00008357,-0.00031766,-0.00000234,-0.00040452
 ,-0.00070980,-0.00094469,0.00005834,-0.00003482,0.00002600,-0.00024000
 ,0.00001002,0.00024317,-0.00000128,0.00001939,0.00000932,-0.00001850,-
 0.00006220,-0.00007185,-0.00001787,-0.00002035,0.00001251,-0.10295698,
 -0.02074823,-0.00453615,0.00037901,-0.02460776,-0.01607846,0.00456463,
 0.02224856,0.01481490,0.00015124,-0.00003118,-0.00010321,0.00010206,0.
 00000274,-0.00002223,-0.00003388,0.00000467,0.00000986,-0.00001052,0.0
 0010394,0.00008000,0.48918337,0.01385992,-0.06880207,-0.02514200,0.022
 12896,-0.00563416,-0.01615626,-0.01248715,0.00353926,0.00654419,-0.008
 59611,0.00040277,0.00661109,-0.02950940,-0.07515472,-0.03079542,-0.024
 33736,-0.01042553,-0.01487446,0.01093621,0.00435690,0.00374025,0.00182
 632,0.00180377,0.00791171,0.00026083,0.00014993,-0.00079779,-0.0000063
 3,-0.00007847,-0.00006240,0.00129591,-0.00098775,-0.00156413,-0.000190
 17,-0.00002289,-0.00034335,0.00026494,0.00056475,0.00015914,0.00034049
 ,0.00072153,0.00065996,0.00006917,0.00002062,-0.00018204,0.00030207,-0
 .00017334,-0.00032733,-0.00003809,0.00000476,0.00000199,0.00021616,0.0
 0008809,0.00002197,-0.00003178,0.00007591,0.00004162,-0.01337515,-0.14
 545138,-0.09791834,0.00073409,-0.00662560,-0.00641034,-0.00070372,-0.0
 0297862,-0.00356465,-0.00005302,0.00005157,-0.00005452,0.00013978,0.00
 001898,-0.00003962,-0.00006109,0.00001379,-0.00001173,-0.00004773,0.00
 009336,0.00014123,0.05075958,0.22434773,0.05299565,-0.02287740,-0.1092
 0650,0.00643733,-0.00323780,-0.00747654,0.02125914,-0.00728518,-0.0181
 7930,-0.01390141,0.00420756,0.00857096,-0.02671689,-0.02448026,-0.0883
 9675,-0.00750700,-0.00414333,-0.00659774,-0.02317158,-0.01050100,-0.01
 504394,0.01280180,0.00920729,0.01256989,0.00121028,0.00101199,-0.00067
 492,0.00014160,-0.00061160,0.00005563,0.00331100,-0.00140924,-0.004322
 15,-0.00007361,-0.00022502,0.00013699,-0.00017906,0.00004374,-0.000114
 14,0.00109388,0.00067784,0.00133760,-0.00009159,0.00003890,-0.00004187
 ,0.00042846,-0.00018353,-0.00045370,-0.00001316,-0.00001212,0.00002528
 ,0.00025061,0.00013362,0.00004740,-0.00004171,0.00002515,0.00001403,-0
 .00386991,-0.17508489,-0.18446594,0.00095669,-0.00803123,-0.00125930,-
 0.00065922,-0.01344916,-0.00373605,0.00003906,0.00017341,-0.00002976,0
 .00010115,-0.00005067,-0.00003833,-0.00000848,-0.00001358,0.00001624,-
 0.00006060,0.00001884,0.00004485,-0.02830712,0.27508692,0.42082983,0.0
 0048220,-0.00611652,0.00808401,-0.00028274,0.00022446,0.00061323,-0.00
 130991,0.00051363,0.00181571,0.00124942,0.00027417,-0.00024319,-0.0043
 1391,0.00694863,-0.01251445,0.00071719,0.00166124,0.00046797,-0.002547
 22,0.00080401,-0.00126222,-0.00012427,0.00097736,0.00064841,-0.0002319
 1,-0.00002845,-0.00155402,-0.00051348,0.00060963,-0.00055045,0.0002017
 5,0.00024840,-0.00046947,-0.00016154,-0.00009922,-0.00007561,0.0000760
 7,0.00003504,0.00011978,0.00017530,-0.00001855,0.00003099,-0.00000352,
 0.00001280,-0.00002914,-0.00000886,0.00002178,0.00001440,-0.00000175,0
 .00000370,-0.00002268,-0.00004879,-0.00000633,0.00001910,0.00002249,0.
 00002194,0.00000489,0.00183923,0.00724910,0.00676933,-0.00003138,0.000
 45430,-0.00020300,0.00008156,-0.00040823,0.00023277,-0.00005335,-0.000
 03081,0.00001960,-0.00005382,0.00001317,0.00001958,0.00000618,0.000012
 36,-0.00002132,0.00002515,-0.00002652,-0.00001255,-0.01651332,-0.02030
 029,0.00102056,0.06683957,-0.00151360,-0.00651870,0.01073826,0.0035824
 0,-0.00316733,-0.00403662,-0.00028521,-0.00254216,0.00006494,0.0013621
 1,0.00036617,-0.00103543,0.00504638,-0.00668718,0.01054193,-0.00387240
 ,-0.00277320,-0.00257588,0.00102932,-0.00136738,0.00025852,-0.00028995
 ,-0.00046552,-0.00196026,-0.00037594,0.00012954,0.00063068,0.00094251,
 -0.00053967,0.00002671,-0.00033048,0.00025864,0.00074441,0.00004986,-0
 .00002444,0.00006982,-0.00016956,-0.00024062,-0.00017750,-0.00009084,-
 0.00005294,-0.00051040,-0.00003768,-0.00001117,0.00014637,-0.00013770,
 0.00009615,0.00017172,0.00002787,-0.00000708,0.00001121,-0.00011511,-0
 .00003799,-0.00000536,0.00001245,-0.00008287,-0.00004700,-0.00131453,-
 0.07188648,-0.03443763,0.00070637,0.00028750,0.00035235,-0.00028460,0.
 00039720,0.00000906,0.00004223,0.00003928,0.00013132,-0.00010549,-0.00
 001596,0.00002303,0.00004692,-0.00002332,0.00001648,0.00001108,-0.0000
 8820,-0.00012835,-0.00942427,0.13096488,-0.01358187,-0.04990114,0.1593
 0957,-0.00162132,0.01536911,-0.01670669,-0.00086097,-0.00060613,-0.000
 29463,0.00366480,-0.00069235,-0.00175022,-0.00030576,0.00005593,0.0009
 4154,-0.00514213,0.01364624,-0.01788223,0.00041449,0.00075511,-0.00066
 273,-0.00433310,-0.00023327,-0.00106344,0.00133629,0.00016891,-0.00018
 872,-0.00031040,-0.00009327,0.00060016,0.00001375,-0.00002575,0.000009
 02,-0.00000247,-0.00010599,0.00026507,0.00025363,-0.00000008,0.0001571
 2,-0.00002594,-0.00005177,-0.00006410,0.00001716,-0.00003465,-0.000045
 03,-0.00004613,-0.00001584,0.00007212,-0.00002809,0.00002540,0.0000324
 6,0.00001644,-0.00000850,0.00001017,-0.00003309,-0.00000423,0.00000180
 ,0.00000573,-0.00001261,-0.00001762,0.00065322,0.02908098,0.01784927,-
 0.00028786,0.00006461,0.00011975,0.00030355,0.00057723,-0.00040627,-0.
 00001778,-0.00000812,0.00001562,-0.00003198,0.00000068,0.00001043,0.00
 002349,-0.00001021,0.00001612,0.00000907,-0.00000779,-0.00003007,0.008
 81486,-0.08082213,-0.00961949,-0.02797821,0.12609160,0.11484354,-0.000
 27058,-0.00061945,0.00204280,0.00023557,-0.00147708,-0.00110262,0.0004
 4357,-0.00097378,-0.00042498,0.00003093,0.00010355,-0.00007400,0.00013
 410,0.00191761,0.00038329,-0.00033299,-0.00038372,-0.00049979,0.000297
 73,-0.00059545,0.00008168,-0.00046312,-0.00010724,0.00003933,0.0001518
 9,0.00042697,-0.00000959,0.00012143,-0.00016519,0.00006148,0.00001512,
 0.00017675,-0.00009940,-0.00008231,-0.00003075,-0.00003392,-0.00005626
 ,-0.00007793,-0.00003881,0.00002812,-0.00002359,-0.00008949,0.00000883
 ,0.00001327,0.00002033,-0.00003317,0.00003320,0.00003899,0.00000330,-0
 .00000041,-0.00000565,-0.00003638,-0.00001078,0.00000369,0.00000685,-0
 .00002186,-0.00000757,-0.00096220,-0.00063142,-0.00499939,0.00013878,0
 .00020374,0.00010186,0.00019705,-0.00029001,0.00005789,0.00001901,0.00
 001150,0.00003522,-0.00003537,-0.00000411,0.00000936,0.00000774,-0.000
 00338,-0.00000775,0.00000367,-0.00003907,-0.00003401,-0.00167463,0.011
 39961,0.00322723,-0.05142195,0.04709942,0.02179164,0.54886133,0.001725
 27,-0.00146423,-0.00167122,-0.00126321,0.00077338,0.00177788,0.0001625
 1,0.00142653,-0.00053707,-0.00047578,-0.00070991,0.00002286,-0.0022847
 1,-0.00001714,-0.00227674,0.00132500,0.00161723,0.00115307,-0.00028024
 ,0.00124356,-0.00023193,0.00017615,-0.00007792,0.00096732,0.00036535,-
 0.00045751,-0.00047272,-0.00065233,0.00048950,-0.00009317,0.00003583,-
 0.00026273,-0.00049951,-0.00004060,0.00004083,-0.00003431,0.00014085,0
 .00026703,0.00020602,0.00003808,0.00004928,0.00036588,0.00002336,-0.00
 000263,-0.00012227,0.00011001,-0.00009480,-0.00013336,-0.00002078,0.00
 000916,-0.00000888,0.00009446,0.00003001,0.00000484,-0.00001078,0.0000
 8625,0.00004350,0.00089287,0.00489542,0.01711387,0.00005267,0.00040002
 ,-0.00046417,-0.00040410,0.00035369,-0.00062209,-0.00005749,-0.0000495
 8,-0.00011548,0.00009132,0.00002107,-0.00001782,-0.00003899,0.00002212
 ,-0.00001039,-0.00000064,0.00009583,0.00011638,0.00201973,-0.05229056,
 -0.00337535,0.01854852,-0.16863312,-0.09587290,-0.06056413,0.24150051,
 0.00158951,0.00088191,-0.00351229,-0.00149130,0.00377414,0.00178174,-0
 .00094144,0.00206108,0.00069219,-0.00024801,0.00037086,0.00024665,-0.0
 0145577,-0.00091868,0.00005168,0.00092263,0.00238005,-0.00001321,0.000
 74387,0.00088006,0.00040347,0.00003921,0.00068445,0.00037139,0.0001687
 2,-0.00027045,-0.00014000,-0.00043544,0.00022296,0.00012113,0.00009501
 ,-0.00011927,-0.00011051,0.00000032,0.00000528,-0.00001529,0.00008908,
 0.00011458,0.00003662,0.00001706,0.00004360,0.00008378,0.00000912,-0.0
 0000684,-0.00001971,0.00003217,-0.00003277,-0.00003729,-0.00000114,-0.
 00000313,0.00000434,0.00002272,0.00001240,0.00000332,-0.00000007,0.000
 03169,0.00000459,0.00142014,0.00949606,0.00988056,-0.00000032,0.000094
 46,-0.00037773,-0.00022664,0.00012303,-0.00009522,-0.00003331,-0.00001
 787,-0.00002256,0.00001878,0.00000952,-0.00000673,-0.00000939,0.000003
 64,0.00000243,0.00000284,0.00003089,0.00002934,0.00339793,-0.02116054,
 0.00558433,-0.00303047,-0.07741420,-0.08142215,0.04283055,0.08952975,0
 .08223558,0.00044552,0.00027558,0.00013910,0.00011200,0.00018621,-0.00
 009803,-0.00018900,-0.00004360,-0.00014371,-0.00024797,-0.00035331,-0.
 00002356,-0.00027740,-0.00043086,-0.00010996,-0.00003972,0.00035501,0.
 00007987,0.00010398,0.00014509,0.00005525,0.00005421,0.00001965,0.0001
 3664,-0.00000639,-0.00003631,-0.00002080,-0.00007923,0.00005694,-0.000
 00210,0.00001435,-0.00006975,-0.00005544,0.00000043,0.00001737,-0.0000
 0032,0.00002496,0.00004232,0.00002459,0.00000054,0.00001946,0.00004071
 ,-0.00000018,-0.00000486,-0.00001140,0.00001569,-0.00001282,-0.0000181
 2,-0.00000259,0.00000027,0.00000209,0.00001519,0.00000519,-0.00000147,
 -0.00000229,0.00000859,0.00000403,0.00043211,0.00162516,0.00193386,-0.
 00001972,0.00003120,-0.00009839,-0.00003874,-0.00000995,-0.00002681,-0
 .00000737,-0.00000496,-0.00001342,0.00001473,0.00000309,-0.00000424,-0
 .00000464,0.00000129,0.00000203,-0.00000225,0.00001441,0.00001510,0.00
 051481,-0.00479661,-0.00067306,0.00590563,0.00828959,0.00370711,-0.495
 33605,0.04029181,-0.04352638,0.48859938,0.00040626,-0.00018709,-0.0005
 4200,0.00002752,-0.00005562,0.00145290,-0.00037058,0.00046520,-0.00005
 365,-0.00032851,-0.00043859,0.00003482,0.00011182,-0.00058168,0.000161
 61,0.00011913,0.00012189,0.00035224,0.00008800,0.00020601,0.00010493,0
 .00016116,0.00006005,-0.00021780,-0.00014206,-0.00007728,0.00011204,-0
 .00000996,0.00002112,0.00005218,0.00000710,-0.00006668,0.00017240,0.00
 003357,0.00002907,0.00000786,0.00002914,0.00002427,0.00000641,0.000003
 99,0.00000432,-0.00006263,-0.00000141,-0.00000403,0.00000892,-0.000017
 11,0.00001489,0.00002451,0.00000243,0.00000002,-0.00000271,-0.00002384
 ,-0.00000353,0.00000190,0.00000909,-0.00000474,-0.00000489,0.00065072,
 -0.00137822,0.00010007,-0.00004359,-0.00010414,-0.00008761,-0.00008115
 ,0.00009984,0.00007977,-0.00001458,-0.00000495,0.00001811,-0.00002071,
 0.00000487,0.00000732,0.00000639,0.00000002,-0.00000001,0.00000413,-0.
 00001132,-0.00001584,0.00208270,0.00140649,-0.00207203,0.03830182,-0.0
 2668358,-0.00723021,0.00463373,-0.02926128,-0.01080664,-0.04562520,0.0
 5640467,0.00011253,0.00101799,0.00124253,-0.00030337,0.00028471,-0.001
 67954,0.00015669,-0.00064763,-0.00004767,0.00007549,0.00005689,0.00001
 415,-0.00014907,0.00044721,-0.00077783,0.00023379,-0.00018959,0.000519
 82,-0.00013842,0.00004501,-0.00007956,0.00008382,0.00003851,0.00010418
 ,-0.00012187,-0.00003863,-0.00008833,-0.00006798,0.00000403,0.00000283
 ,0.00002335,-0.00006752,-0.00007250,-0.00001515,0.00002078,-0.00000204
 ,0.00001691,0.00003558,0.00003164,0.00000867,0.00000905,0.00005423,0.0
 0000281,0.00000246,-0.00002621,0.00001628,-0.00000928,-0.00001423,-0.0
 0000643,0.00000621,-0.00000711,0.00001393,0.00000192,-0.00000085,-0.00
 000094,0.00000627,0.00000995,-0.00068350,0.00021512,-0.00011365,0.0000
 0256,-0.00008603,0.00023071,-0.00001269,-0.00000658,-0.00016837,-0.000
 00253,-0.00000258,-0.00001021,0.00001278,0.00000105,-0.00000162,-0.000
 00626,0.00000469,-0.00000663,-0.00000346,0.00000524,0.00001247,-0.0027
 2285,-0.00069303,0.00042339,0.02808643,-0.01411789,-0.00479080,-0.0632
 9835,-0.00474199,-0.01576046,0.03868685,0.01839805,0.02100172\\-0.0000
 0522,-0.00000475,0.00000295,-0.00000131,-0.00000426,-0.00000197,-0.000
 00319,-0.00000272,-0.00000378,-0.00000082,-0.00000207,-0.00000470,0.00
 000283,-0.00000975,0.00002774,-0.00000114,-0.00000300,0.00000119,0.000
 00267,0.00000006,0.00000140,0.00001859,0.00000225,-0.00000079,0.000002
 58,-0.00000206,-0.00001168,0.00000147,0.00000024,0.00000082,0.00000023
 ,0.00000100,-0.00000031,-0.00000174,0.00000134,0.00000151,-0.00000096,
 0.00000076,0.00000086,-0.00000022,0.00000127,0.00000208,0.00000101,0.0
 0000113,0.00000235,-0.00000061,0.00000183,0.00000301,-0.00000145,0.000
 00198,0.00000358,-0.00000010,0.00000198,0.00000425,-0.00000134,0.00000
 157,0.00000293,0.00000053,-0.00004300,-0.00002614,0.00000247,-0.000001
 40,-0.00000482,0.00000185,-0.00000361,-0.00000071,0.00000148,0.0000008
 7,0.00000256,0.00000135,0.00000202,0.00000368,0.00000021,0.00000141,0.
 00000276,0.00000221,0.00000149,0.00000250,-0.00000400,0.00005432,0.000
 00667,-0.00001360,-0.00000593,-0.00001038,-0.00000934,-0.00000206,-0.0
 0000008,0.00000555,0.00000911,-0.00000747\\\@
 Job cpu time:  0 days 10 hours 14 minutes  3.0 seconds.
 File lengths (MBytes):  RWF=  71787 Int=      0 D2E=      0 Chk=     26 Scr=      1
 Normal termination of Gaussian 09 at Tue Apr 22 13:52:33 2014.
