 Entering Gaussian System, Link 0=g09
 Initial command:
 /usr/caen/gaussian-09revc/g09/l1.exe /scratch/avioli_flux/hetanjin/scratch/Gau-20030.inp -scrdir=/scratch/avioli_flux/hetanjin/scratch/
 Entering Link 1 = /usr/caen/gaussian-09revc/g09/l1.exe PID=     20031.
  
 Copyright (c) 1988,1990,1992,1993,1995,1998,2003,2009,2011,
            Gaussian, Inc.  All Rights Reserved.
  
 This is part of the Gaussian(R) 09 program.  It is based on
 the Gaussian(R) 03 system (copyright 2003, Gaussian, Inc.),
 the Gaussian(R) 98 system (copyright 1998, Gaussian, Inc.),
 the Gaussian(R) 94 system (copyright 1995, Gaussian, Inc.),
 the Gaussian 92(TM) system (copyright 1992, Gaussian, Inc.),
 the Gaussian 90(TM) system (copyright 1990, Gaussian, Inc.),
 the Gaussian 88(TM) system (copyright 1988, Gaussian, Inc.),
 the Gaussian 86(TM) system (copyright 1986, Carnegie Mellon
 University), and the Gaussian 82(TM) system (copyright 1983,
 Carnegie Mellon University). Gaussian is a federally registered
 trademark of Gaussian, Inc.
  
 This software contains proprietary and confidential information,
 including trade secrets, belonging to Gaussian, Inc.
  
 This software is provided under written license and may be
 used, copied, transmitted, or stored only in accord with that
 written license.
  
 The following legend is applicable only to US Government
 contracts under FAR:
  
                    RESTRICTED RIGHTS LEGEND
  
 Use, reproduction and disclosure by the US Government is
 subject to restrictions as set forth in subparagraphs (a)
 and (c) of the Commercial Computer Software - Restricted
 Rights clause in FAR 52.227-19.
  
 Gaussian, Inc.
 340 Quinnipiac St., Bldg. 40, Wallingford CT 06492
  
  
 ---------------------------------------------------------------
 Warning -- This program may not be used in any manner that
 competes with the business of Gaussian, Inc. or will provide
 assistance to any competitor of Gaussian, Inc.  The licensee
 of this program is prohibited from giving any competitor of
 Gaussian, Inc. access to this program.  By using this program,
 the user acknowledges that Gaussian, Inc. is engaged in the
 business of creating and licensing software in the field of
 computational chemistry and represents and warrants to the
 licensee that it is not a competitor of Gaussian, Inc. and that
 it will not use this program in any manner prohibited above.
 ---------------------------------------------------------------
  

 Cite this work as:
 Gaussian 09, Revision C.01,
 M. J. Frisch, G. W. Trucks, H. B. Schlegel, G. E. Scuseria, 
 M. A. Robb, J. R. Cheeseman, G. Scalmani, V. Barone, B. Mennucci, 
 G. A. Petersson, H. Nakatsuji, M. Caricato, X. Li, H. P. Hratchian, 
 A. F. Izmaylov, J. Bloino, G. Zheng, J. L. Sonnenberg, M. Hada, 
 M. Ehara, K. Toyota, R. Fukuda, J. Hasegawa, M. Ishida, T. Nakajima, 
 Y. Honda, O. Kitao, H. Nakai, T. Vreven, J. A. Montgomery, Jr., 
 J. E. Peralta, F. Ogliaro, M. Bearpark, J. J. Heyd, E. Brothers, 
 K. N. Kudin, V. N. Staroverov, T. Keith, R. Kobayashi, J. Normand, 
 K. Raghavachari, A. Rendell, J. C. Burant, S. S. Iyengar, J. Tomasi, 
 M. Cossi, N. Rega, J. M. Millam, M. Klene, J. E. Knox, J. B. Cross, 
 V. Bakken, C. Adamo, J. Jaramillo, R. Gomperts, R. E. Stratmann, 
 O. Yazyev, A. J. Austin, R. Cammi, C. Pomelli, J. W. Ochterski, 
 R. L. Martin, K. Morokuma, V. G. Zakrzewski, G. A. Voth, 
 P. Salvador, J. J. Dannenberg, S. Dapprich, A. D. Daniels, 
 O. Farkas, J. B. Foresman, J. V. Ortiz, J. Cioslowski, 
 and D. J. Fox, Gaussian, Inc., Wallingford CT, 2010.
 
 ******************************************
 Gaussian 09:  EM64L-G09RevC.01 23-Sep-2011
                31-Mar-2014 
 ******************************************
 %mem=30GB
 %nprocshared=8
 Will use up to    8 processors via shared memory.
 %chk=TS_2a_12.chk
 -------------------------------
 #p cbs-qb3 opt=(TS,calcfc) freq
 -------------------------------
 1/5=1,10=4,14=-1,18=20,26=3,38=1/1,3;
 2/9=110,12=2,17=6,18=5,40=1/2;
 3/5=4,6=6,7=700,11=2,16=1,25=1,30=1,71=2,74=-5/1,2,3;
 4//1;
 5/5=2,38=5/2;
 8/6=4,10=90,11=11/1;
 11/6=1,8=1,9=11,15=111,16=1/1,2,10;
 10/6=1,7=6,13=1/2;
 6/7=2,8=2,9=2,10=2,28=1/1;
 7/10=1,18=20,25=1/1,2,3,16;
 1/5=1,10=4,14=-1,18=20/3(2);
 2/9=110/2;
 99//99;
 2/9=110/2;
 3/5=4,6=6,7=700,11=2,16=1,25=1,30=1,71=1,74=-5/1,2,3;
 4/5=5,16=3/1;
 5/5=2,38=5/2;
 7//1,2,3,16;
 1/5=1,14=-1,18=20/3(-5);
 2/9=110/2;
 6/7=2,8=2,9=2,10=2,19=2,28=1/1;
 99/9=1/99;
 Leave Link    1 at Mon Mar 31 16:15:15 2014, MaxMem= 4026531840 cpu:       0.5
 (Enter /usr/caen/gaussian-09revc/g09/l101.exe)
 ----------------------------------------------------
 TS_2a_12 using b3lyp/6-311++g(d,p) to calculate freq
 ----------------------------------------------------
 Charge =  0 Multiplicity = 2
 Symbolic Z-Matrix:
 C                     3.27903   0.08244   1.22113 
 H                     3.27876  -0.98235   1.45889 
 H                     3.17425   0.65174   2.14884 
 H                     4.23781   0.33258   0.76113 
 C                     0.76261   0.05176   0.8772 
 H                     0.81524  -0.99571   1.19207 
 H                     0.64233   0.64729   1.79057 
 C                    -0.45129   0.23743  -0.03882 
 H                    -0.26989  -0.2973   -0.97609 
 H                    -0.56851   1.29611  -0.29307 
 C                    -1.74373  -0.27792   0.60779 
 H                    -1.93747   0.27492   1.53809 
 H                    -1.59023  -1.3232    0.90304 
 C                    -2.99962  -0.2046   -0.28152 
 H                    -2.77412  -0.73526  -1.2165 
 C                    -4.17639  -0.92338   0.39364 
 H                    -4.43957  -0.43652   1.33944 
 H                    -5.06634  -0.91346  -0.24272 
 H                    -3.93312  -1.96718   0.61324 
 C                     2.25509   1.69491  -0.4381 
 H                     3.23442   2.12998  -0.58813 
 H                     1.4051    2.14475  -0.93101 
 C                    -3.38638   1.2381   -0.63848 
 H                    -4.29131   1.25917  -1.25305 
 H                    -3.58817   1.82136   0.26756 
 H                    -2.59956   1.75024  -1.19777 
 C                     2.12934   0.39227   0.26753 
 O                     2.32319  -0.1624   -1.0248 
 O                     2.33154  -1.88959  -0.91841 
 H                     3.0205   -1.98731  -1.59112 
 
 NAtoms=     30 NQM=        0 NQMF=       0 NMMI=     30 NMMIF=      0
                NMic=       0 NMicF=      0.
                    Isotopes and Nuclear Properties:
 (Nuclear quadrupole moments (NQMom) in fm**2, nuclear magnetic moments (NMagM)
  in nuclear magnetons)

  Atom         1           2           3           4           5           6           7           8           9          10
 IAtWgt=          12           1           1           1          12           1           1          12           1           1
 AtmWgt=  12.0000000   1.0078250   1.0078250   1.0078250  12.0000000   1.0078250   1.0078250  12.0000000   1.0078250   1.0078250
 NucSpn=           0           1           1           1           0           1           1           0           1           1
 AtZEff=   0.0000000   0.0000000   0.0000000   0.0000000   0.0000000   0.0000000   0.0000000   0.0000000   0.0000000   0.0000000
 NQMom=    0.0000000   0.0000000   0.0000000   0.0000000   0.0000000   0.0000000   0.0000000   0.0000000   0.0000000   0.0000000
 NMagM=    0.0000000   2.7928460   2.7928460   2.7928460   0.0000000   2.7928460   2.7928460   0.0000000   2.7928460   2.7928460

  Atom        11          12          13          14          15          16          17          18          19          20
 IAtWgt=          12           1           1          12           1          12           1           1           1          12
 AtmWgt=  12.0000000   1.0078250   1.0078250  12.0000000   1.0078250  12.0000000   1.0078250   1.0078250   1.0078250  12.0000000
 NucSpn=           0           1           1           0           1           0           1           1           1           0
 AtZEff=   0.0000000   0.0000000   0.0000000   0.0000000   0.0000000   0.0000000   0.0000000   0.0000000   0.0000000   0.0000000
 NQMom=    0.0000000   0.0000000   0.0000000   0.0000000   0.0000000   0.0000000   0.0000000   0.0000000   0.0000000   0.0000000
 NMagM=    0.0000000   2.7928460   2.7928460   0.0000000   2.7928460   0.0000000   2.7928460   2.7928460   2.7928460   0.0000000

  Atom        21          22          23          24          25          26          27          28          29          30
 IAtWgt=           1           1          12           1           1           1          12          16          16           1
 AtmWgt=   1.0078250   1.0078250  12.0000000   1.0078250   1.0078250   1.0078250  12.0000000  15.9949146  15.9949146   1.0078250
 NucSpn=           1           1           0           1           1           1           0           0           0           1
 AtZEff=   0.0000000   0.0000000   0.0000000   0.0000000   0.0000000   0.0000000   0.0000000   0.0000000   0.0000000   0.0000000
 NQMom=    0.0000000   0.0000000   0.0000000   0.0000000   0.0000000   0.0000000   0.0000000   0.0000000   0.0000000   0.0000000
 NMagM=    2.7928460   2.7928460   0.0000000   2.7928460   2.7928460   2.7928460   0.0000000   0.0000000   0.0000000   2.7928460
 Leave Link  101 at Mon Mar 31 16:15:16 2014, MaxMem= 4026531840 cpu:       3.2
 (Enter /usr/caen/gaussian-09revc/g09/l103.exe)

 GradGradGradGradGradGradGradGradGradGradGradGradGradGradGradGradGradGrad
 Berny optimization.
 Initialization pass.
                           ----------------------------
                           !    Initial Parameters    !
                           ! (Angstroms and Degrees)  !
 --------------------------                            --------------------------
 ! Name  Definition              Value          Derivative Info.                !
 --------------------------------------------------------------------------------
 ! R1    R(1,2)                  1.091          calculate D2E/DX2 analytically  !
 ! R2    R(1,3)                  1.0935         calculate D2E/DX2 analytically  !
 ! R3    R(1,4)                  1.0924         calculate D2E/DX2 analytically  !
 ! R4    R(1,27)                 1.5255         calculate D2E/DX2 analytically  !
 ! R5    R(5,6)                  1.095          calculate D2E/DX2 analytically  !
 ! R6    R(5,7)                  1.097          calculate D2E/DX2 analytically  !
 ! R7    R(5,8)                  1.532          calculate D2E/DX2 analytically  !
 ! R8    R(5,27)                 1.5348         calculate D2E/DX2 analytically  !
 ! R9    R(8,9)                  1.0942         calculate D2E/DX2 analytically  !
 ! R10   R(8,10)                 1.0951         calculate D2E/DX2 analytically  !
 ! R11   R(8,11)                 1.5343         calculate D2E/DX2 analytically  !
 ! R12   R(11,12)                1.0994         calculate D2E/DX2 analytically  !
 ! R13   R(11,13)                1.097          calculate D2E/DX2 analytically  !
 ! R14   R(11,14)                1.5406         calculate D2E/DX2 analytically  !
 ! R15   R(14,15)                1.0985         calculate D2E/DX2 analytically  !
 ! R16   R(14,16)                1.5353         calculate D2E/DX2 analytically  !
 ! R17   R(14,23)                1.5357         calculate D2E/DX2 analytically  !
 ! R18   R(16,17)                1.0958         calculate D2E/DX2 analytically  !
 ! R19   R(16,18)                1.0941         calculate D2E/DX2 analytically  !
 ! R20   R(16,19)                1.094          calculate D2E/DX2 analytically  !
 ! R21   R(20,21)                1.0821         calculate D2E/DX2 analytically  !
 ! R22   R(20,22)                1.0807         calculate D2E/DX2 analytically  !
 ! R23   R(20,27)                1.4868         calculate D2E/DX2 analytically  !
 ! R24   R(23,24)                1.0941         calculate D2E/DX2 analytically  !
 ! R25   R(23,25)                1.0963         calculate D2E/DX2 analytically  !
 ! R26   R(23,26)                1.0928         calculate D2E/DX2 analytically  !
 ! R27   R(27,28)                1.4196         calculate D2E/DX2 analytically  !
 ! R28   R(28,29)                1.7305         calculate D2E/DX2 analytically  !
 ! R29   R(29,30)                0.9679         calculate D2E/DX2 analytically  !
 ! A1    A(2,1,3)              108.8572         calculate D2E/DX2 analytically  !
 ! A2    A(2,1,4)              108.3879         calculate D2E/DX2 analytically  !
 ! A3    A(2,1,27)             109.5278         calculate D2E/DX2 analytically  !
 ! A4    A(3,1,4)              108.7914         calculate D2E/DX2 analytically  !
 ! A5    A(3,1,27)             110.6329         calculate D2E/DX2 analytically  !
 ! A6    A(4,1,27)             110.592          calculate D2E/DX2 analytically  !
 ! A7    A(6,5,7)              106.5684         calculate D2E/DX2 analytically  !
 ! A8    A(6,5,8)              109.0224         calculate D2E/DX2 analytically  !
 ! A9    A(6,5,27)             106.478          calculate D2E/DX2 analytically  !
 ! A10   A(7,5,8)              110.1911         calculate D2E/DX2 analytically  !
 ! A11   A(7,5,27)             107.9354         calculate D2E/DX2 analytically  !
 ! A12   A(8,5,27)             116.1793         calculate D2E/DX2 analytically  !
 ! A13   A(5,8,9)              108.7573         calculate D2E/DX2 analytically  !
 ! A14   A(5,8,10)             109.9261         calculate D2E/DX2 analytically  !
 ! A15   A(5,8,11)             112.0089         calculate D2E/DX2 analytically  !
 ! A16   A(9,8,10)             106.9366         calculate D2E/DX2 analytically  !
 ! A17   A(9,8,11)             109.6634         calculate D2E/DX2 analytically  !
 ! A18   A(10,8,11)            109.415          calculate D2E/DX2 analytically  !
 ! A19   A(8,11,12)            109.6435         calculate D2E/DX2 analytically  !
 ! A20   A(8,11,13)            108.398          calculate D2E/DX2 analytically  !
 ! A21   A(8,11,14)            115.3038         calculate D2E/DX2 analytically  !
 ! A22   A(12,11,13)           106.0265         calculate D2E/DX2 analytically  !
 ! A23   A(12,11,14)           108.7158         calculate D2E/DX2 analytically  !
 ! A24   A(13,11,14)           108.3477         calculate D2E/DX2 analytically  !
 ! A25   A(11,14,15)           107.5173         calculate D2E/DX2 analytically  !
 ! A26   A(11,14,16)           110.4065         calculate D2E/DX2 analytically  !
 ! A27   A(11,14,23)           112.5935         calculate D2E/DX2 analytically  !
 ! A28   A(15,14,16)           107.7862         calculate D2E/DX2 analytically  !
 ! A29   A(15,14,23)           107.9202         calculate D2E/DX2 analytically  !
 ! A30   A(16,14,23)           110.4256         calculate D2E/DX2 analytically  !
 ! A31   A(14,16,17)           110.8316         calculate D2E/DX2 analytically  !
 ! A32   A(14,16,18)           111.311          calculate D2E/DX2 analytically  !
 ! A33   A(14,16,19)           111.3767         calculate D2E/DX2 analytically  !
 ! A34   A(17,16,18)           107.614          calculate D2E/DX2 analytically  !
 ! A35   A(17,16,19)           107.7006         calculate D2E/DX2 analytically  !
 ! A36   A(18,16,19)           107.8348         calculate D2E/DX2 analytically  !
 ! A37   A(21,20,22)           118.7674         calculate D2E/DX2 analytically  !
 ! A38   A(21,20,27)           119.6449         calculate D2E/DX2 analytically  !
 ! A39   A(22,20,27)           120.9744         calculate D2E/DX2 analytically  !
 ! A40   A(14,23,24)           110.9139         calculate D2E/DX2 analytically  !
 ! A41   A(14,23,25)           110.7362         calculate D2E/DX2 analytically  !
 ! A42   A(14,23,26)           112.2039         calculate D2E/DX2 analytically  !
 ! A43   A(24,23,25)           107.5629         calculate D2E/DX2 analytically  !
 ! A44   A(24,23,26)           107.3989         calculate D2E/DX2 analytically  !
 ! A45   A(25,23,26)           107.8286         calculate D2E/DX2 analytically  !
 ! A46   A(1,27,5)             112.1941         calculate D2E/DX2 analytically  !
 ! A47   A(1,27,20)            114.2598         calculate D2E/DX2 analytically  !
 ! A48   A(1,27,28)            112.7549         calculate D2E/DX2 analytically  !
 ! A49   A(5,27,20)            117.2725         calculate D2E/DX2 analytically  !
 ! A50   A(5,27,28)            113.3612         calculate D2E/DX2 analytically  !
 ! A51   A(20,27,28)            84.1876         calculate D2E/DX2 analytically  !
 ! A52   A(27,28,29)           109.5518         calculate D2E/DX2 analytically  !
 ! A53   A(28,29,30)            93.5246         calculate D2E/DX2 analytically  !
 ! D1    D(2,1,27,5)            60.5101         calculate D2E/DX2 analytically  !
 ! D2    D(2,1,27,20)         -162.8805         calculate D2E/DX2 analytically  !
 ! D3    D(2,1,27,28)          -68.9485         calculate D2E/DX2 analytically  !
 ! D4    D(3,1,27,5)           -59.4888         calculate D2E/DX2 analytically  !
 ! D5    D(3,1,27,20)           77.1206         calculate D2E/DX2 analytically  !
 ! D6    D(3,1,27,28)          171.0526         calculate D2E/DX2 analytically  !
 ! D7    D(4,1,27,5)           179.9032         calculate D2E/DX2 analytically  !
 ! D8    D(4,1,27,20)          -43.4874         calculate D2E/DX2 analytically  !
 ! D9    D(4,1,27,28)           50.4446         calculate D2E/DX2 analytically  !
 ! D10   D(6,5,8,9)            -68.0966         calculate D2E/DX2 analytically  !
 ! D11   D(6,5,8,10)           175.1371         calculate D2E/DX2 analytically  !
 ! D12   D(6,5,8,11)            53.2737         calculate D2E/DX2 analytically  !
 ! D13   D(7,5,8,9)            175.2771         calculate D2E/DX2 analytically  !
 ! D14   D(7,5,8,10)            58.5108         calculate D2E/DX2 analytically  !
 ! D15   D(7,5,8,11)           -63.3526         calculate D2E/DX2 analytically  !
 ! D16   D(27,5,8,9)            52.1564         calculate D2E/DX2 analytically  !
 ! D17   D(27,5,8,10)          -64.6099         calculate D2E/DX2 analytically  !
 ! D18   D(27,5,8,11)          173.5267         calculate D2E/DX2 analytically  !
 ! D19   D(6,5,27,1)           -54.3574         calculate D2E/DX2 analytically  !
 ! D20   D(6,5,27,20)          170.4424         calculate D2E/DX2 analytically  !
 ! D21   D(6,5,27,28)           74.7859         calculate D2E/DX2 analytically  !
 ! D22   D(7,5,27,1)            59.741          calculate D2E/DX2 analytically  !
 ! D23   D(7,5,27,20)          -75.4592         calculate D2E/DX2 analytically  !
 ! D24   D(7,5,27,28)         -171.1158         calculate D2E/DX2 analytically  !
 ! D25   D(8,5,27,1)          -175.9697         calculate D2E/DX2 analytically  !
 ! D26   D(8,5,27,20)           48.8301         calculate D2E/DX2 analytically  !
 ! D27   D(8,5,27,28)          -46.8264         calculate D2E/DX2 analytically  !
 ! D28   D(5,8,11,12)           60.3957         calculate D2E/DX2 analytically  !
 ! D29   D(5,8,11,13)          -54.9232         calculate D2E/DX2 analytically  !
 ! D30   D(5,8,11,14)         -176.5376         calculate D2E/DX2 analytically  !
 ! D31   D(9,8,11,12)         -178.7571         calculate D2E/DX2 analytically  !
 ! D32   D(9,8,11,13)           65.924          calculate D2E/DX2 analytically  !
 ! D33   D(9,8,11,14)          -55.6905         calculate D2E/DX2 analytically  !
 ! D34   D(10,8,11,12)         -61.76           calculate D2E/DX2 analytically  !
 ! D35   D(10,8,11,13)        -177.0788         calculate D2E/DX2 analytically  !
 ! D36   D(10,8,11,14)          61.3067         calculate D2E/DX2 analytically  !
 ! D37   D(8,11,14,15)          54.7139         calculate D2E/DX2 analytically  !
 ! D38   D(8,11,14,16)         172.049          calculate D2E/DX2 analytically  !
 ! D39   D(8,11,14,23)         -64.0249         calculate D2E/DX2 analytically  !
 ! D40   D(12,11,14,15)        178.2716         calculate D2E/DX2 analytically  !
 ! D41   D(12,11,14,16)        -64.3934         calculate D2E/DX2 analytically  !
 ! D42   D(12,11,14,23)         59.5327         calculate D2E/DX2 analytically  !
 ! D43   D(13,11,14,15)        -66.9276         calculate D2E/DX2 analytically  !
 ! D44   D(13,11,14,16)         50.4074         calculate D2E/DX2 analytically  !
 ! D45   D(13,11,14,23)        174.3335         calculate D2E/DX2 analytically  !
 ! D46   D(11,14,16,17)         62.4405         calculate D2E/DX2 analytically  !
 ! D47   D(11,14,16,18)       -177.8261         calculate D2E/DX2 analytically  !
 ! D48   D(11,14,16,19)        -57.4457         calculate D2E/DX2 analytically  !
 ! D49   D(15,14,16,17)        179.6094         calculate D2E/DX2 analytically  !
 ! D50   D(15,14,16,18)        -60.6572         calculate D2E/DX2 analytically  !
 ! D51   D(15,14,16,19)         59.7232         calculate D2E/DX2 analytically  !
 ! D52   D(23,14,16,17)        -62.7266         calculate D2E/DX2 analytically  !
 ! D53   D(23,14,16,18)         57.0068         calculate D2E/DX2 analytically  !
 ! D54   D(23,14,16,19)        177.3872         calculate D2E/DX2 analytically  !
 ! D55   D(11,14,23,24)       -178.8843         calculate D2E/DX2 analytically  !
 ! D56   D(11,14,23,25)        -59.5381         calculate D2E/DX2 analytically  !
 ! D57   D(11,14,23,26)         61.0011         calculate D2E/DX2 analytically  !
 ! D58   D(15,14,23,24)         62.6127         calculate D2E/DX2 analytically  !
 ! D59   D(15,14,23,25)       -178.0411         calculate D2E/DX2 analytically  !
 ! D60   D(15,14,23,26)        -57.5018         calculate D2E/DX2 analytically  !
 ! D61   D(16,14,23,24)        -54.9688         calculate D2E/DX2 analytically  !
 ! D62   D(16,14,23,25)         64.3774         calculate D2E/DX2 analytically  !
 ! D63   D(16,14,23,26)       -175.0834         calculate D2E/DX2 analytically  !
 ! D64   D(21,20,27,1)          25.1945         calculate D2E/DX2 analytically  !
 ! D65   D(21,20,27,5)         159.5004         calculate D2E/DX2 analytically  !
 ! D66   D(21,20,27,28)        -87.1746         calculate D2E/DX2 analytically  !
 ! D67   D(22,20,27,1)        -163.894          calculate D2E/DX2 analytically  !
 ! D68   D(22,20,27,5)         -29.5881         calculate D2E/DX2 analytically  !
 ! D69   D(22,20,27,28)         83.7369         calculate D2E/DX2 analytically  !
 ! D70   D(1,27,28,29)          64.4915         calculate D2E/DX2 analytically  !
 ! D71   D(5,27,28,29)         -64.3653         calculate D2E/DX2 analytically  !
 ! D72   D(20,27,28,29)        178.3926         calculate D2E/DX2 analytically  !
 ! D73   D(27,28,29,30)       -142.7613         calculate D2E/DX2 analytically  !
 --------------------------------------------------------------------------------
 Trust Radius=3.00D-01 FncErr=1.00D-07 GrdErr=1.00D-06
 Number of steps in this run=    165 maximum allowed number of steps=    180.
 Search for a saddle point of order  1.
 GradGradGradGradGradGradGradGradGradGradGradGradGradGradGradGradGradGrad

 Leave Link  103 at Mon Mar 31 16:15:16 2014, MaxMem= 4026531840 cpu:       0.2
 (Enter /usr/caen/gaussian-09revc/g09/l202.exe)
                          Input orientation:                          
 ---------------------------------------------------------------------
 Center     Atomic      Atomic             Coordinates (Angstroms)
 Number     Number       Type             X           Y           Z
 ---------------------------------------------------------------------
      1          6           0        3.279026    0.082438    1.221132
      2          1           0        3.278762   -0.982349    1.458889
      3          1           0        3.174246    0.651744    2.148838
      4          1           0        4.237806    0.332583    0.761126
      5          6           0        0.762613    0.051755    0.877203
      6          1           0        0.815242   -0.995708    1.192068
      7          1           0        0.642325    0.647289    1.790572
      8          6           0       -0.451292    0.237434   -0.038818
      9          1           0       -0.269885   -0.297301   -0.976092
     10          1           0       -0.568510    1.296109   -0.293073
     11          6           0       -1.743727   -0.277921    0.607794
     12          1           0       -1.937471    0.274916    1.538088
     13          1           0       -1.590226   -1.323199    0.903036
     14          6           0       -2.999615   -0.204597   -0.281522
     15          1           0       -2.774118   -0.735264   -1.216499
     16          6           0       -4.176387   -0.923384    0.393636
     17          1           0       -4.439573   -0.436524    1.339439
     18          1           0       -5.066342   -0.913455   -0.242716
     19          1           0       -3.933116   -1.967179    0.613235
     20          6           0        2.255091    1.694909   -0.438099
     21          1           0        3.234419    2.129984   -0.588134
     22          1           0        1.405097    2.144752   -0.931009
     23          6           0       -3.386379    1.238097   -0.638484
     24          1           0       -4.291313    1.259169   -1.253052
     25          1           0       -3.588166    1.821359    0.267561
     26          1           0       -2.599555    1.750242   -1.197767
     27          6           0        2.129339    0.392269    0.267531
     28          8           0        2.323190   -0.162395   -1.024798
     29          8           0        2.331543   -1.889587   -0.918407
     30          1           0        3.020505   -1.987307   -1.591116
 ---------------------------------------------------------------------
                    Distance matrix (angstroms):
                    1          2          3          4          5
     1  C    0.000000
     2  H    1.091009   0.000000
     3  H    1.093493   1.776855   0.000000
     4  H    1.092445   1.770786   1.777292   0.000000
     5  C    2.539993   2.781858   2.791597   3.488453   0.000000
     6  H    2.689512   2.477963   3.032228   3.696486   1.095029
     7  H    2.755995   3.117135   2.557147   3.753170   1.096984
     8  C    3.940402   4.200512   4.254647   4.757794   1.532037
     9  H    4.191272   4.357903   4.746358   4.871751   2.150022
    10  H    4.309217   4.802316   4.515125   5.014019   2.165606
    11  C    5.072878   5.142565   5.236941   6.014563   2.542245
    12  H    5.229661   5.366197   5.161847   6.224230   2.788732
    13  H    5.078052   4.912453   5.305904   6.060339   2.725255
    14  C    6.462329   6.561398   6.690032   7.331844   3.944961
    15  H    6.576567   6.622394   6.973688   7.363313   4.184669
    16  C    7.568329   7.531101   7.719687   8.515348   5.057515
    17  H    7.736930   7.738533   7.733673   8.730571   5.245457
    18  H    8.531109   8.517098   8.722194   9.440735   6.013532
    19  H    7.522331   7.327769   7.728611   8.489685   5.118168
    20  C    2.530129   3.437176   2.936883   2.687979   2.580206
    21  H    2.732742   3.725438   3.111243   2.461288   3.546276
    22  H    3.520861   4.359013   3.852846   3.764508   2.839552
    23  C    7.015792   7.331675   7.152257   7.804298   4.573713
    24  H    8.050858   8.347758   8.226566   8.812567   5.615871
    25  H    7.147830   7.512306   7.115997   7.981597   4.736290
    26  H    6.571937   7.005675   6.763375   7.252346   4.300527
    27  C    1.525493   2.151762   2.167596   2.166294   1.534793
    28  O    2.453114   2.784626   3.385127   2.664635   2.469589
    29  O    3.060104   2.715113   4.071425   3.375309   3.074828
    30  H    3.501345   3.221672   4.579900   3.520902   3.917710
                    6          7          8          9         10
     6  H    0.000000
     7  H    1.757142   0.000000
     8  C    2.154026   2.170403   0.000000
     9  H    2.523131   3.062484   1.094227   0.000000
    10  H    3.061509   2.495729   1.095070   1.759161   0.000000
    11  C    2.721198   2.819259   1.534303   2.163627   2.161080
    12  H    3.051499   2.618732   2.167202   3.070729   2.504005
    13  H    2.444804   3.107222   2.149380   2.515331   3.055381
    14  C    4.165388   4.275864   2.597739   2.818235   2.857013
    15  H    4.330419   4.756681   2.780035   2.553584   3.137499
    16  C    5.055599   5.257226   3.925665   4.186752   4.291211
    17  H    5.286538   5.215732   4.273195   4.771516   4.544474
    18  H    6.054618   6.257720   4.760757   4.891164   5.011507
    19  H    4.881158   5.399651   4.172360   4.328246   4.773994
    20  C    3.459773   2.943721   3.099704   3.260957   2.855310
    21  H    4.334915   3.817798   4.179469   4.280464   3.904443
    22  H    3.836388   3.198628   2.807142   2.961625   2.241045
    23  C    5.098473   4.741289   3.158427   3.490553   2.839553
    24  H    6.094258   5.829136   4.155005   4.321017   3.844761
    25  H    5.308539   4.647048   3.527416   4.128726   3.115850
    26  H    4.991231   4.544938   2.871722   3.109491   2.269328
    27  C    2.123229   2.143805   2.603359   2.788975   2.899930
    28  O    2.807635   3.377455   2.971493   2.597039   3.320329
    29  O    2.748144   4.077716   3.611380   3.050595   4.353161
    30  H    3.686810   4.902311   4.405959   3.749805   5.034557
                   11         12         13         14         15
    11  C    0.000000
    12  H    1.099369   0.000000
    13  H    1.096967   1.754378   0.000000
    14  C    1.540621   2.160802   2.154258   0.000000
    15  H    2.144508   3.050933   2.497938   1.098471   0.000000
    16  C    2.525930   2.785397   2.666002   1.535345   2.143428
    17  H    2.797864   2.608855   3.015861   2.180547   3.065258
    18  H    3.488129   3.791216   3.682936   2.185257   2.496857
    19  H    2.765329   3.140851   2.447004   2.186026   2.491750
    20  C    4.580010   4.847605   5.068933   5.589685   5.639556
    21  H    5.657755   5.891565   6.117619   6.663892   6.686330
    22  H    4.260558   4.556916   4.935825   5.034160   5.083486
    23  C    2.559263   2.786488   3.487504   1.535700   2.145488
    24  H    3.509357   3.781506   4.314303   2.180588   2.506188
    25  H    2.815083   2.594324   3.779396   2.179996   3.066175
    26  H    2.847093   3.178025   3.857222   2.195666   2.491699
    27  C    3.945323   4.262280   4.145101   5.192675   5.245719
    28  O    4.383893   4.991278   4.514292   5.374616   5.132979
    29  O    4.640537   5.379956   4.361046   5.627260   5.243004
    30  H    5.518615   6.284194   5.284002   6.413652   5.940169
                   16         17         18         19         20
    16  C    0.000000
    17  H    1.095830   0.000000
    18  H    1.094103   1.767347   0.000000
    19  H    1.094035   1.768269   1.768386   0.000000
    20  C    6.993651   7.247149   7.774646   7.267056   0.000000
    21  H    8.075084   8.318212   8.847851   8.342877   1.082074
    22  H    6.505467   6.780714   7.190681   6.912972   1.080652
    23  C    2.522179   2.797455   2.758276   3.484181   5.663481
    24  H    2.736481   3.101349   2.518282   3.744416   6.611310
    25  H    2.809896   2.640426   3.150332   3.819882   5.887070
    26  H    3.488157   3.821652   3.753990   4.344805   4.914036
    27  C    6.442750   6.707197   7.330968   6.514589   1.486808
    28  O    6.695936   7.169360   7.468663   6.714295   1.948956
    29  O    6.708812   7.284042   7.492536   6.449643   3.617340
    30  H    7.540983   8.163691   8.268521   7.294684   3.933703
                   21         22         23         24         25
    21  H    0.000000
    22  H    1.861236   0.000000
    23  C    6.680791   4.885267   0.000000
    24  H    7.605069   5.773825   1.094095   0.000000
    25  H    6.882959   5.145272   1.096280   1.767127   0.000000
    26  H    5.878019   4.032869   1.092786   1.762457   1.769066
    27  C    2.230026   2.243261   5.653267   6.654958   5.893400
    28  O    2.505198   2.484878   5.891502   6.769387   6.367857
    29  O    4.132943   4.139366   6.523450   7.340904   7.086649
    30  H    4.243091   4.485443   7.235945   8.007283   7.850806
                   26         27         28         29         30
    26  H    0.000000
    27  C    5.133578   0.000000
    28  O    5.284081   1.419628   0.000000
    29  O    6.135318   2.579574   1.730486   0.000000
    30  H    6.760848   3.148194   2.034028   0.967861   0.000000
 Stoichiometry    C9H19O2(2)
 Framework group  C1[X(C9H19O2)]
 Deg. of freedom    84
 Full point group                 C1      NOp   1
 Largest Abelian subgroup         C1      NOp   1
 Largest concise Abelian subgroup C1      NOp   1
                         Standard orientation:                         
 ---------------------------------------------------------------------
 Center     Atomic      Atomic             Coordinates (Angstroms)
 Number     Number       Type             X           Y           Z
 ---------------------------------------------------------------------
      1          6           0       -3.279026   -0.082438    1.221132
      2          1           0       -3.278762    0.982349    1.458889
      3          1           0       -3.174246   -0.651744    2.148838
      4          1           0       -4.237806   -0.332583    0.761126
      5          6           0       -0.762613   -0.051755    0.877203
      6          1           0       -0.815242    0.995708    1.192068
      7          1           0       -0.642325   -0.647289    1.790572
      8          6           0        0.451292   -0.237434   -0.038818
      9          1           0        0.269885    0.297301   -0.976092
     10          1           0        0.568510   -1.296109   -0.293073
     11          6           0        1.743727    0.277921    0.607794
     12          1           0        1.937471   -0.274916    1.538088
     13          1           0        1.590226    1.323199    0.903036
     14          6           0        2.999615    0.204597   -0.281522
     15          1           0        2.774118    0.735264   -1.216499
     16          6           0        4.176387    0.923384    0.393636
     17          1           0        4.439573    0.436524    1.339439
     18          1           0        5.066342    0.913455   -0.242716
     19          1           0        3.933116    1.967179    0.613235
     20          6           0       -2.255091   -1.694909   -0.438099
     21          1           0       -3.234419   -2.129984   -0.588134
     22          1           0       -1.405097   -2.144752   -0.931009
     23          6           0        3.386379   -1.238097   -0.638484
     24          1           0        4.291313   -1.259169   -1.253052
     25          1           0        3.588166   -1.821359    0.267561
     26          1           0        2.599555   -1.750242   -1.197767
     27          6           0       -2.129339   -0.392269    0.267531
     28          8           0       -2.323190    0.162395   -1.024798
     29          8           0       -2.331543    1.889587   -0.918407
     30          1           0       -3.020505    1.987307   -1.591116
 ---------------------------------------------------------------------
 Rotational constants (GHZ):      1.9636114      0.4236022      0.4036154
 Leave Link  202 at Mon Mar 31 16:15:17 2014, MaxMem= 4026531840 cpu:       0.3
 (Enter /usr/caen/gaussian-09revc/g09/l301.exe)
 Standard basis: 6-311G(2d,d,p) (5D, 7F)
 Ernie: Thresh=  0.10000D-02 Tol=  0.10000D-05 Strict=F.
 There are   312 symmetry adapted basis functions of A   symmetry.
 Integral buffers will be    131072 words long.
 Raffenetti 2 integral format.
 Two-electron integral symmetry is turned on.
   312 basis functions,   504 primitive gaussians,   323 cartesian basis functions
    45 alpha electrons       44 beta electrons
       nuclear repulsion energy       653.1529326287 Hartrees.
 IExCor=  402 DFT=T Ex+Corr=B3LYP ExCW=0 ScaHFX=  0.200000
 ScaDFX=  0.800000  0.720000  1.000000  0.810000 ScalE2=  1.000000  1.000000
 IRadAn=      0 IRanWt=     -1 IRanGd=            0 ICorTp=0
 NAtoms=   30 NActive=   30 NUniq=   30 SFac= 1.00D+00 NAtFMM=   60 NAOKFM=F Big=F
 Leave Link  301 at Mon Mar 31 16:15:17 2014, MaxMem= 4026531840 cpu:       0.6
 (Enter /usr/caen/gaussian-09revc/g09/l302.exe)
 NPDir=0 NMtPBC=     1 NCelOv=     1 NCel=       1 NClECP=     1 NCelD=      1
         NCelK=      1 NCelE2=     1 NClLst=     1 CellRange=     0.0.
 One-electron integrals computed using PRISM.
 NBasis=   312 RedAO= T  NBF=   312
 NBsUse=   312 1.00D-06 NBFU=   312
 Precomputing XC quadrature grid using
 IXCGrd= 2 IRadAn=           0 IRanWt=          -1 IRanGd=           0 AccXCQ= 0.00D+00.
 NRdTot=    1913 NPtTot=      243844 NUsed=      257638 NTot=      257670
 NSgBfM=   323   323   323   323   323 NAtAll=    30    30.
 Leave Link  302 at Mon Mar 31 16:15:18 2014, MaxMem= 4026531840 cpu:       7.8
 (Enter /usr/caen/gaussian-09revc/g09/l303.exe)
 DipDrv:  MaxL=1.
 Leave Link  303 at Mon Mar 31 16:15:19 2014, MaxMem= 4026531840 cpu:       1.3
 (Enter /usr/caen/gaussian-09revc/g09/l401.exe)
 Harris functional with IExCor=  402 diagonalized for initial guess.
 ExpMin= 1.03D-01 ExpMax= 8.59D+03 ExpMxC= 1.30D+03 IAcc=1 IRadAn=         1 AccDes= 0.00D+00
 HarFok:  IExCor=  402 AccDes= 0.00D+00 IRadAn=         1 IDoV= 1
 ScaDFX=  1.000000  1.000000  1.000000  1.000000
 FoFCou: FMM=F IPFlag=           0 FMFlag=      100000 FMFlg1=           0
         NFxFlg=           0 DoJE=T BraDBF=F KetDBF=T FulRan=T
         Omega=  0.000000  0.000000  1.000000  0.000000  0.000000 ICntrl=     500 IOpCl=  0
         NMat0=    1 NMatS0=    1 NMatT0=    0 NMatD0=    1 NMtDS0=    0 NMtDT0=    0
         I1Cent=           4 NGrid=           0.
 Petite list used in FoFCou.
 Harris En= -504.899821933078    
 Initial guess orbital symmetries:
 Alpha Orbitals:
       Occupied  (A) (A) (A) (A) (A) (A) (A) (A) (A) (A) (A) (A)
                 (A) (A) (A) (A) (A) (A) (A) (A) (A) (A) (A) (A)
                 (A) (A) (A) (A) (A) (A) (A) (A) (A) (A) (A) (A)
                 (A) (A) (A) (A) (A) (A) (A) (A) (A)
       Virtual   (A) (A) (A) (A) (A) (A) (A) (A) (A) (A) (A) (A)
                 (A) (A) (A) (A) (A) (A) (A) (A) (A) (A) (A) (A)
                 (A) (A) (A) (A) (A) (A) (A) (A) (A) (A) (A) (A)
                 (A) (A) (A) (A) (A) (A) (A) (A) (A) (A) (A) (A)
                 (A) (A) (A) (A) (A) (A) (A) (A) (A) (A) (A) (A)
                 (A) (A) (A) (A) (A) (A) (A) (A) (A) (A) (A) (A)
                 (A) (A) (A) (A) (A) (A) (A) (A) (A) (A) (A) (A)
                 (A) (A) (A) (A) (A) (A) (A) (A) (A) (A) (A) (A)
                 (A) (A) (A) (A) (A) (A) (A) (A) (A) (A) (A) (A)
                 (A) (A) (A) (A) (A) (A) (A) (A) (A) (A) (A) (A)
                 (A) (A) (A) (A) (A) (A) (A) (A) (A) (A) (A) (A)
                 (A) (A) (A) (A) (A) (A) (A) (A) (A) (A) (A) (A)
                 (A) (A) (A) (A) (A) (A) (A) (A) (A) (A) (A) (A)
                 (A) (A) (A) (A) (A) (A) (A) (A) (A) (A) (A) (A)
                 (A) (A) (A) (A) (A) (A) (A) (A) (A) (A) (A) (A)
                 (A) (A) (A) (A) (A) (A) (A) (A) (A) (A) (A) (A)
                 (A) (A) (A) (A) (A) (A) (A) (A) (A) (A) (A) (A)
                 (A) (A) (A) (A) (A) (A) (A) (A) (A) (A) (A) (A)
                 (A) (A) (A) (A) (A) (A) (A) (A) (A) (A) (A) (A)
                 (A) (A) (A) (A) (A) (A) (A) (A) (A) (A) (A) (A)
                 (A) (A) (A) (A) (A) (A) (A) (A) (A) (A) (A) (A)
                 (A) (A) (A) (A) (A) (A) (A) (A) (A) (A) (A) (A)
                 (A) (A) (A)
 Beta  Orbitals:
       Occupied  (A) (A) (A) (A) (A) (A) (A) (A) (A) (A) (A) (A)
                 (A) (A) (A) (A) (A) (A) (A) (A) (A) (A) (A) (A)
                 (A) (A) (A) (A) (A) (A) (A) (A) (A) (A) (A) (A)
                 (A) (A) (A) (A) (A) (A) (A) (A)
       Virtual   (A) (A) (A) (A) (A) (A) (A) (A) (A) (A) (A) (A)
                 (A) (A) (A) (A) (A) (A) (A) (A) (A) (A) (A) (A)
                 (A) (A) (A) (A) (A) (A) (A) (A) (A) (A) (A) (A)
                 (A) (A) (A) (A) (A) (A) (A) (A) (A) (A) (A) (A)
                 (A) (A) (A) (A) (A) (A) (A) (A) (A) (A) (A) (A)
                 (A) (A) (A) (A) (A) (A) (A) (A) (A) (A) (A) (A)
                 (A) (A) (A) (A) (A) (A) (A) (A) (A) (A) (A) (A)
                 (A) (A) (A) (A) (A) (A) (A) (A) (A) (A) (A) (A)
                 (A) (A) (A) (A) (A) (A) (A) (A) (A) (A) (A) (A)
                 (A) (A) (A) (A) (A) (A) (A) (A) (A) (A) (A) (A)
                 (A) (A) (A) (A) (A) (A) (A) (A) (A) (A) (A) (A)
                 (A) (A) (A) (A) (A) (A) (A) (A) (A) (A) (A) (A)
                 (A) (A) (A) (A) (A) (A) (A) (A) (A) (A) (A) (A)
                 (A) (A) (A) (A) (A) (A) (A) (A) (A) (A) (A) (A)
                 (A) (A) (A) (A) (A) (A) (A) (A) (A) (A) (A) (A)
                 (A) (A) (A) (A) (A) (A) (A) (A) (A) (A) (A) (A)
                 (A) (A) (A) (A) (A) (A) (A) (A) (A) (A) (A) (A)
                 (A) (A) (A) (A) (A) (A) (A) (A) (A) (A) (A) (A)
                 (A) (A) (A) (A) (A) (A) (A) (A) (A) (A) (A) (A)
                 (A) (A) (A) (A) (A) (A) (A) (A) (A) (A) (A) (A)
                 (A) (A) (A) (A) (A) (A) (A) (A) (A) (A) (A) (A)
                 (A) (A) (A) (A) (A) (A) (A) (A) (A) (A) (A) (A)
                 (A) (A) (A) (A)
 The electronic state of the initial guess is 2-A.
 Initial guess <Sx>= 0.0000 <Sy>= 0.0000 <Sz>= 0.5000 <S**2>= 0.7500 S= 0.5000
 Leave Link  401 at Mon Mar 31 16:15:21 2014, MaxMem= 4026531840 cpu:      12.6
 (Enter /usr/caen/gaussian-09revc/g09/l502.exe)
 UHF open shell SCF:
 Requested convergence on RMS density matrix=1.00D-08 within 128 cycles.
 Requested convergence on MAX density matrix=1.00D-06.
 Requested convergence on             energy=1.00D-06.
 No special actions if energy rises.
 Using DIIS extrapolation, IDIIS=  1040.
 Integral symmetry usage will be decided dynamically.
       257355 words used for storage of precomputed grid.
 Keep R1 and R2 ints in memory in canonical form, NReq=2755662086.
 IEnd=      593513 IEndB=      593513 NGot=  4026531840 MDV=  1287996990
 LenX=  1287996990 LenY=  1287892220
 Symmetry not used in FoFDir.
 MinBra= 0 MaxBra= 2 Meth= 1.
 IRaf=       0 NMat=   1 IRICut=       1 DoRegI=T DoRafI=F ISym2E= 0 JSym2E=0.
 Integral accuracy reduced to 1.0D-05 until final iterations.

 Cycle   1  Pass 0  IDiag  1:
 E= -504.432990457881    
 DIIS: error= 3.51D-02 at cycle   1 NSaved=   1.
 NSaved= 1 IEnMin= 1 EnMin= -504.432990457881     IErMin= 1 ErrMin= 3.51D-02
 ErrMax= 3.51D-02 EMaxC= 1.00D-01 BMatC= 1.62D+00 BMatP= 1.62D+00
 IDIUse=3 WtCom= 6.49D-01 WtEn= 3.51D-01
 Coeff-Com:  0.100D+01
 Coeff-En:   0.100D+01
 Coeff:      0.100D+01
 Gap=     0.166 Goal=   None    Shift=    0.000
 Gap=     0.110 Goal=   None    Shift=    0.000
 GapD=    0.110 DampG=1.000 DampE=0.500 DampFc=0.5000 IDamp=-1.
 Damping current iteration by 5.00D-01
 RMSDP=3.77D-03 MaxDP=1.36D-01              OVMax= 3.91D-01

 Cycle   2  Pass 0  IDiag  1:
 E= -504.567043576032     Delta-E=       -0.134053118151 Rises=F Damp=T
 DIIS: error= 1.17D-02 at cycle   2 NSaved=   2.
 NSaved= 2 IEnMin= 2 EnMin= -504.567043576032     IErMin= 2 ErrMin= 1.17D-02
 ErrMax= 1.17D-02 EMaxC= 1.00D-01 BMatC= 1.89D-01 BMatP= 1.62D+00
 IDIUse=3 WtCom= 8.83D-01 WtEn= 1.17D-01
 Coeff-Com:  0.159D+00 0.841D+00
 Coeff-En:   0.272D+00 0.728D+00
 Coeff:      0.172D+00 0.828D+00
 Gap=     0.245 Goal=   None    Shift=    0.000
 Gap=     0.219 Goal=   None    Shift=    0.000
 RMSDP=1.25D-03 MaxDP=6.30D-02 DE=-1.34D-01 OVMax= 3.43D-01

 Cycle   3  Pass 0  IDiag  1:
 E= -504.735966169266     Delta-E=       -0.168922593234 Rises=F Damp=F
 DIIS: error= 2.27D-02 at cycle   3 NSaved=   3.
 NSaved= 3 IEnMin= 3 EnMin= -504.735966169266     IErMin= 2 ErrMin= 1.17D-02
 ErrMax= 2.27D-02 EMaxC= 1.00D-01 BMatC= 4.06D-01 BMatP= 1.89D-01
 IDIUse=2 WtCom= 0.00D+00 WtEn= 1.00D+00
 Coeff-En:   0.000D+00 0.000D+00 0.100D+01
 Coeff:      0.000D+00 0.000D+00 0.100D+01
 Gap=     0.170 Goal=   None    Shift=    0.000
 Gap=     0.205 Goal=   None    Shift=    0.000
 RMSDP=3.31D-03 MaxDP=1.67D-01 DE=-1.69D-01 OVMax= 9.37D-01

 Cycle   4  Pass 0  IDiag  1:
 E= -503.114813667143     Delta-E=        1.621152502124 Rises=F Damp=F
 DIIS: error= 7.88D-02 at cycle   4 NSaved=   4.
 NSaved= 4 IEnMin= 3 EnMin= -504.735966169266     IErMin= 2 ErrMin= 1.17D-02
 ErrMax= 7.88D-02 EMaxC= 1.00D-01 BMatC= 5.72D+00 BMatP= 1.89D-01
 IDIUse=2 WtCom= 0.00D+00 WtEn= 1.00D+00
 Coeff-En:   0.000D+00 0.000D+00 0.896D+00 0.104D+00
 Coeff:      0.000D+00 0.000D+00 0.896D+00 0.104D+00
 Gap=     0.133 Goal=   None    Shift=    0.000
 Gap=    -0.040 Goal=   None    Shift=    0.000
 RMSDP=2.51D-03 MaxDP=1.58D-01 DE= 1.62D+00 OVMax= 9.85D-01

 Cycle   5  Pass 0  IDiag  1:
 E= -504.699388863493     Delta-E=       -1.584575196350 Rises=F Damp=F
 DIIS: error= 2.66D-02 at cycle   5 NSaved=   5.
 NSaved= 5 IEnMin= 3 EnMin= -504.735966169266     IErMin= 2 ErrMin= 1.17D-02
 ErrMax= 2.66D-02 EMaxC= 1.00D-01 BMatC= 6.07D-01 BMatP= 1.89D-01
 IDIUse=2 WtCom= 0.00D+00 WtEn= 1.00D+00
 Coeff-En:   0.000D+00 0.000D+00 0.558D+00 0.000D+00 0.442D+00
 Coeff:      0.000D+00 0.000D+00 0.558D+00 0.000D+00 0.442D+00
 Gap=     0.206 Goal=   None    Shift=    0.000
 Gap=     0.142 Goal=   None    Shift=    0.000
 RMSDP=8.05D-04 MaxDP=4.87D-02 DE=-1.58D+00 OVMax= 1.44D-01

 Cycle   6  Pass 0  IDiag  1:
 E= -504.824334166898     Delta-E=       -0.124945303405 Rises=F Damp=F
 DIIS: error= 3.75D-03 at cycle   6 NSaved=   6.
 NSaved= 6 IEnMin= 6 EnMin= -504.824334166898     IErMin= 6 ErrMin= 3.75D-03
 ErrMax= 3.75D-03 EMaxC= 1.00D-01 BMatC= 1.03D-02 BMatP= 1.89D-01
 IDIUse=3 WtCom= 9.62D-01 WtEn= 3.75D-02
 Coeff-Com:  0.178D-02 0.642D-02 0.261D+00-0.102D-01 0.214D+00 0.527D+00
 Coeff-En:   0.000D+00 0.000D+00 0.000D+00 0.000D+00 0.000D+00 0.100D+01
 Coeff:      0.171D-02 0.618D-02 0.251D+00-0.979D-02 0.206D+00 0.545D+00
 Gap=     0.181 Goal=   None    Shift=    0.000
 Gap=     0.139 Goal=   None    Shift=    0.000
 RMSDP=2.01D-04 MaxDP=9.27D-03 DE=-1.25D-01 OVMax= 3.95D-02

 Cycle   7  Pass 0  IDiag  1:
 E= -504.826262211780     Delta-E=       -0.001928044882 Rises=F Damp=F
 DIIS: error= 3.06D-03 at cycle   7 NSaved=   7.
 NSaved= 7 IEnMin= 7 EnMin= -504.826262211780     IErMin= 7 ErrMin= 3.06D-03
 ErrMax= 3.06D-03 EMaxC= 1.00D-01 BMatC= 4.72D-03 BMatP= 1.03D-02
 IDIUse=3 WtCom= 9.69D-01 WtEn= 3.06D-02
 Coeff-Com: -0.425D-02-0.580D-02 0.386D-03-0.177D-02-0.334D-01 0.404D+00
 Coeff-Com:  0.641D+00
 Coeff-En:   0.000D+00 0.000D+00 0.000D+00 0.000D+00 0.000D+00 0.207D+00
 Coeff-En:   0.793D+00
 Coeff:     -0.412D-02-0.562D-02 0.375D-03-0.172D-02-0.324D-01 0.398D+00
 Coeff:      0.645D+00
 Gap=     0.191 Goal=   None    Shift=    0.000
 Gap=     0.137 Goal=   None    Shift=    0.000
 RMSDP=9.04D-05 MaxDP=6.86D-03 DE=-1.93D-03 OVMax= 1.27D-02

 Cycle   8  Pass 0  IDiag  1:
 E= -504.827457126738     Delta-E=       -0.001194914958 Rises=F Damp=F
 DIIS: error= 5.08D-04 at cycle   8 NSaved=   8.
 NSaved= 8 IEnMin= 8 EnMin= -504.827457126738     IErMin= 8 ErrMin= 5.08D-04
 ErrMax= 5.08D-04 EMaxC= 1.00D-01 BMatC= 2.91D-04 BMatP= 4.72D-03
 IDIUse=3 WtCom= 9.95D-01 WtEn= 5.08D-03
 Coeff-Com: -0.127D-02 0.254D-02-0.214D-01 0.160D-02-0.394D-01 0.108D+00
 Coeff-Com:  0.253D+00 0.697D+00
 Coeff-En:   0.000D+00 0.000D+00 0.000D+00 0.000D+00 0.000D+00 0.000D+00
 Coeff-En:   0.000D+00 0.100D+01
 Coeff:     -0.126D-02 0.252D-02-0.213D-01 0.159D-02-0.392D-01 0.107D+00
 Coeff:      0.252D+00 0.699D+00
 Gap=     0.193 Goal=   None    Shift=    0.000
 Gap=     0.138 Goal=   None    Shift=    0.000
 RMSDP=4.09D-05 MaxDP=2.87D-03 DE=-1.19D-03 OVMax= 5.61D-03

 Cycle   9  Pass 0  IDiag  1:
 E= -504.827652342869     Delta-E=       -0.000195216131 Rises=F Damp=F
 DIIS: error= 3.90D-04 at cycle   9 NSaved=   9.
 NSaved= 9 IEnMin= 9 EnMin= -504.827652342869     IErMin= 9 ErrMin= 3.90D-04
 ErrMax= 3.90D-04 EMaxC= 1.00D-01 BMatC= 9.38D-05 BMatP= 2.91D-04
 IDIUse=3 WtCom= 9.96D-01 WtEn= 3.90D-03
 Coeff-Com:  0.841D-03 0.358D-02-0.166D-01-0.157D-03 0.760D-02-0.187D+00
 Coeff-Com: -0.327D+00 0.112D+00 0.141D+01
 Coeff-En:   0.000D+00 0.000D+00 0.000D+00 0.000D+00 0.000D+00 0.000D+00
 Coeff-En:   0.000D+00 0.000D+00 0.100D+01
 Coeff:      0.838D-03 0.357D-02-0.165D-01-0.156D-03 0.757D-02-0.186D+00
 Coeff:     -0.326D+00 0.112D+00 0.140D+01
 Gap=     0.197 Goal=   None    Shift=    0.000
 Gap=     0.140 Goal=   None    Shift=    0.000
 RMSDP=5.94D-05 MaxDP=4.42D-03 DE=-1.95D-04 OVMax= 1.25D-02

 Cycle  10  Pass 0  IDiag  1:
 E= -504.827818051362     Delta-E=       -0.000165708493 Rises=F Damp=F
 DIIS: error= 1.33D-04 at cycle  10 NSaved=  10.
 NSaved=10 IEnMin=10 EnMin= -504.827818051362     IErMin=10 ErrMin= 1.33D-04
 ErrMax= 1.33D-04 EMaxC= 1.00D-01 BMatC= 1.43D-05 BMatP= 9.38D-05
 IDIUse=3 WtCom= 9.99D-01 WtEn= 1.33D-03
 Coeff-Com:  0.330D-03 0.733D-03-0.335D-02-0.496D-03 0.675D-02-0.702D-01
 Coeff-Com: -0.147D+00-0.734D-01 0.472D+00 0.814D+00
 Coeff-En:   0.000D+00 0.000D+00 0.000D+00 0.000D+00 0.000D+00 0.000D+00
 Coeff-En:   0.000D+00 0.000D+00 0.000D+00 0.100D+01
 Coeff:      0.330D-03 0.732D-03-0.335D-02-0.495D-03 0.674D-02-0.701D-01
 Coeff:     -0.147D+00-0.733D-01 0.471D+00 0.815D+00
 Gap=     0.198 Goal=   None    Shift=    0.000
 Gap=     0.141 Goal=   None    Shift=    0.000
 RMSDP=1.69D-05 MaxDP=1.14D-03 DE=-1.66D-04 OVMax= 2.62D-03

 Cycle  11  Pass 0  IDiag  1:
 E= -504.827830421619     Delta-E=       -0.000012370257 Rises=F Damp=F
 DIIS: error= 5.33D-05 at cycle  11 NSaved=  11.
 NSaved=11 IEnMin=11 EnMin= -504.827830421619     IErMin=11 ErrMin= 5.33D-05
 ErrMax= 5.33D-05 EMaxC= 1.00D-01 BMatC= 4.22D-06 BMatP= 1.43D-05
 IDIUse=1 WtCom= 1.00D+00 WtEn= 0.00D+00
 Coeff-Com: -0.766D-04-0.117D-03 0.206D-02-0.127D-03 0.519D-03 0.128D-01
 Coeff-Com:  0.164D-02-0.498D-01-0.708D-01 0.350D+00 0.754D+00
 Coeff:     -0.766D-04-0.117D-03 0.206D-02-0.127D-03 0.519D-03 0.128D-01
 Coeff:      0.164D-02-0.498D-01-0.708D-01 0.350D+00 0.754D+00
 Gap=     0.198 Goal=   None    Shift=    0.000
 Gap=     0.141 Goal=   None    Shift=    0.000
 RMSDP=5.85D-06 MaxDP=3.24D-04 DE=-1.24D-05 OVMax= 1.24D-03

 Initial convergence to 1.0D-05 achieved.  Increase integral accuracy.
 Cycle  12  Pass 1  IDiag  1:
 E= -504.827898617667     Delta-E=       -0.000068196048 Rises=F Damp=F
 DIIS: error= 3.10D-05 at cycle   1 NSaved=   1.
 NSaved= 1 IEnMin= 1 EnMin= -504.827898617667     IErMin= 1 ErrMin= 3.10D-05
 ErrMax= 3.10D-05 EMaxC= 1.00D-01 BMatC= 1.27D-06 BMatP= 1.27D-06
 IDIUse=1 WtCom= 1.00D+00 WtEn= 0.00D+00
 Coeff-Com:  0.100D+01
 Coeff:      0.100D+01
 Gap=     0.198 Goal=   None    Shift=    0.000
 Gap=     0.140 Goal=   None    Shift=    0.000
 RMSDP=5.85D-06 MaxDP=3.24D-04 DE=-6.82D-05 OVMax= 7.33D-04

 Cycle  13  Pass 1  IDiag  1:
 E= -504.827898999207     Delta-E=       -0.000000381540 Rises=F Damp=F
 DIIS: error= 3.74D-05 at cycle   2 NSaved=   2.
 NSaved= 2 IEnMin= 2 EnMin= -504.827898999207     IErMin= 1 ErrMin= 3.10D-05
 ErrMax= 3.74D-05 EMaxC= 1.00D-01 BMatC= 1.63D-06 BMatP= 1.27D-06
 IDIUse=1 WtCom= 1.00D+00 WtEn= 0.00D+00
 Coeff-Com:  0.542D+00 0.458D+00
 Coeff:      0.542D+00 0.458D+00
 Gap=     0.198 Goal=   None    Shift=    0.000
 Gap=     0.141 Goal=   None    Shift=    0.000
 RMSDP=2.64D-06 MaxDP=1.06D-04 DE=-3.82D-07 OVMax= 5.83D-04

 Cycle  14  Pass 1  IDiag  1:
 E= -504.827899400064     Delta-E=       -0.000000400857 Rises=F Damp=F
 DIIS: error= 1.97D-05 at cycle   3 NSaved=   3.
 NSaved= 3 IEnMin= 3 EnMin= -504.827899400064     IErMin= 3 ErrMin= 1.97D-05
 ErrMax= 1.97D-05 EMaxC= 1.00D-01 BMatC= 4.04D-07 BMatP= 1.27D-06
 IDIUse=1 WtCom= 1.00D+00 WtEn= 0.00D+00
 Coeff-Com:  0.120D-02 0.307D+00 0.691D+00
 Coeff:      0.120D-02 0.307D+00 0.691D+00
 Gap=     0.198 Goal=   None    Shift=    0.000
 Gap=     0.140 Goal=   None    Shift=    0.000
 RMSDP=1.45D-06 MaxDP=5.90D-05 DE=-4.01D-07 OVMax= 4.14D-04

 Cycle  15  Pass 1  IDiag  1:
 E= -504.827899584930     Delta-E=       -0.000000184867 Rises=F Damp=F
 DIIS: error= 9.74D-06 at cycle   4 NSaved=   4.
 NSaved= 4 IEnMin= 4 EnMin= -504.827899584930     IErMin= 4 ErrMin= 9.74D-06
 ErrMax= 9.74D-06 EMaxC= 1.00D-01 BMatC= 8.07D-08 BMatP= 4.04D-07
 IDIUse=1 WtCom= 1.00D+00 WtEn= 0.00D+00
 Coeff-Com: -0.120D+00 0.101D+00 0.335D+00 0.685D+00
 Coeff:     -0.120D+00 0.101D+00 0.335D+00 0.685D+00
 Gap=     0.198 Goal=   None    Shift=    0.000
 Gap=     0.140 Goal=   None    Shift=    0.000
 RMSDP=1.06D-06 MaxDP=4.67D-05 DE=-1.85D-07 OVMax= 3.39D-04

 Cycle  16  Pass 1  IDiag  1:
 E= -504.827899666528     Delta-E=       -0.000000081597 Rises=F Damp=F
 DIIS: error= 8.02D-06 at cycle   5 NSaved=   5.
 NSaved= 5 IEnMin= 5 EnMin= -504.827899666528     IErMin= 5 ErrMin= 8.02D-06
 ErrMax= 8.02D-06 EMaxC= 1.00D-01 BMatC= 2.89D-08 BMatP= 8.07D-08
 IDIUse=1 WtCom= 1.00D+00 WtEn= 0.00D+00
 Coeff-Com: -0.257D-01-0.111D+00-0.354D+00 0.183D+00 0.131D+01
 Coeff:     -0.257D-01-0.111D+00-0.354D+00 0.183D+00 0.131D+01
 Gap=     0.198 Goal=   None    Shift=    0.000
 Gap=     0.140 Goal=   None    Shift=    0.000
 RMSDP=1.55D-06 MaxDP=7.37D-05 DE=-8.16D-08 OVMax= 5.38D-04

 Cycle  17  Pass 1  IDiag  1:
 E= -504.827899733715     Delta-E=       -0.000000067188 Rises=F Damp=F
 DIIS: error= 3.56D-06 at cycle   6 NSaved=   6.
 NSaved= 6 IEnMin= 6 EnMin= -504.827899733715     IErMin= 6 ErrMin= 3.56D-06
 ErrMax= 3.56D-06 EMaxC= 1.00D-01 BMatC= 1.34D-08 BMatP= 2.89D-08
 IDIUse=1 WtCom= 1.00D+00 WtEn= 0.00D+00
 Coeff-Com:  0.162D-01-0.104D+00-0.312D+00-0.780D-01 0.845D+00 0.633D+00
 Coeff:      0.162D-01-0.104D+00-0.312D+00-0.780D-01 0.845D+00 0.633D+00
 Gap=     0.198 Goal=   None    Shift=    0.000
 Gap=     0.140 Goal=   None    Shift=    0.000
 RMSDP=6.58D-07 MaxDP=3.16D-05 DE=-6.72D-08 OVMax= 2.31D-04

 Cycle  18  Pass 1  IDiag  1:
 E= -504.827899746569     Delta-E=       -0.000000012854 Rises=F Damp=F
 DIIS: error= 2.76D-06 at cycle   7 NSaved=   7.
 NSaved= 7 IEnMin= 7 EnMin= -504.827899746569     IErMin= 7 ErrMin= 2.76D-06
 ErrMax= 2.76D-06 EMaxC= 1.00D-01 BMatC= 8.03D-09 BMatP= 1.34D-08
 IDIUse=1 WtCom= 1.00D+00 WtEn= 0.00D+00
 Coeff-Com:  0.208D-01-0.457D-01-0.102D+00-0.126D+00 0.188D+00 0.524D+00
 Coeff-Com:  0.540D+00
 Coeff:      0.208D-01-0.457D-01-0.102D+00-0.126D+00 0.188D+00 0.524D+00
 Coeff:      0.540D+00
 Gap=     0.198 Goal=   None    Shift=    0.000
 Gap=     0.140 Goal=   None    Shift=    0.000
 RMSDP=3.10D-07 MaxDP=1.44D-05 DE=-1.29D-08 OVMax= 1.07D-04

 Cycle  19  Pass 1  IDiag  1:
 E= -504.827899750909     Delta-E=       -0.000000004340 Rises=F Damp=F
 DIIS: error= 1.01D-06 at cycle   8 NSaved=   8.
 NSaved= 8 IEnMin= 8 EnMin= -504.827899750909     IErMin= 8 ErrMin= 1.01D-06
 ErrMax= 1.01D-06 EMaxC= 1.00D-01 BMatC= 8.81D-10 BMatP= 8.03D-09
 IDIUse=1 WtCom= 1.00D+00 WtEn= 0.00D+00
 Coeff-Com:  0.365D-02 0.146D-01 0.833D-01-0.318D-01-0.228D+00-0.195D-01
 Coeff-Com:  0.154D+00 0.102D+01
 Coeff:      0.365D-02 0.146D-01 0.833D-01-0.318D-01-0.228D+00-0.195D-01
 Coeff:      0.154D+00 0.102D+01
 Gap=     0.198 Goal=   None    Shift=    0.000
 Gap=     0.140 Goal=   None    Shift=    0.000
 RMSDP=2.08D-07 MaxDP=1.01D-05 DE=-4.34D-09 OVMax= 7.46D-05

 Cycle  20  Pass 1  IDiag  1:
 E= -504.827899752110     Delta-E=       -0.000000001201 Rises=F Damp=F
 DIIS: error= 3.36D-07 at cycle   9 NSaved=   9.
 NSaved= 9 IEnMin= 9 EnMin= -504.827899752110     IErMin= 9 ErrMin= 3.36D-07
 ErrMax= 3.36D-07 EMaxC= 1.00D-01 BMatC= 2.52D-10 BMatP= 8.81D-10
 IDIUse=1 WtCom= 1.00D+00 WtEn= 0.00D+00
 Coeff-Com: -0.451D-02 0.200D-01 0.762D-01 0.186D-01-0.178D+00-0.174D+00
 Coeff-Com: -0.732D-01 0.543D+00 0.772D+00
 Coeff:     -0.451D-02 0.200D-01 0.762D-01 0.186D-01-0.178D+00-0.174D+00
 Coeff:     -0.732D-01 0.543D+00 0.772D+00
 Gap=     0.198 Goal=   None    Shift=    0.000
 Gap=     0.140 Goal=   None    Shift=    0.000
 RMSDP=1.05D-07 MaxDP=4.91D-06 DE=-1.20D-09 OVMax= 3.66D-05

 Cycle  21  Pass 1  IDiag  1:
 E= -504.827899752353     Delta-E=       -0.000000000243 Rises=F Damp=F
 DIIS: error= 1.28D-07 at cycle  10 NSaved=  10.
 NSaved=10 IEnMin=10 EnMin= -504.827899752353     IErMin=10 ErrMin= 1.28D-07
 ErrMax= 1.28D-07 EMaxC= 1.00D-01 BMatC= 1.88D-11 BMatP= 2.52D-10
 IDIUse=1 WtCom= 1.00D+00 WtEn= 0.00D+00
 Coeff-Com: -0.133D-02 0.313D-02 0.120D-01 0.686D-02-0.234D-01-0.421D-01
 Coeff-Com: -0.261D-01 0.401D-01 0.208D+00 0.822D+00
 Coeff:     -0.133D-02 0.313D-02 0.120D-01 0.686D-02-0.234D-01-0.421D-01
 Coeff:     -0.261D-01 0.401D-01 0.208D+00 0.822D+00
 Gap=     0.198 Goal=   None    Shift=    0.000
 Gap=     0.140 Goal=   None    Shift=    0.000
 RMSDP=1.77D-08 MaxDP=7.71D-07 DE=-2.43D-10 OVMax= 4.94D-06

 Cycle  22  Pass 1  IDiag  1:
 E= -504.827899752372     Delta-E=       -0.000000000020 Rises=F Damp=F
 DIIS: error= 7.50D-08 at cycle  11 NSaved=  11.
 NSaved=11 IEnMin=11 EnMin= -504.827899752372     IErMin=11 ErrMin= 7.50D-08
 ErrMax= 7.50D-08 EMaxC= 1.00D-01 BMatC= 5.62D-12 BMatP= 1.88D-11
 IDIUse=1 WtCom= 1.00D+00 WtEn= 0.00D+00
 Coeff-Com:  0.569D-03-0.343D-02-0.119D-01-0.191D-02 0.304D-01 0.235D-01
 Coeff-Com:  0.816D-02-0.107D+00-0.103D+00 0.250D+00 0.914D+00
 Coeff:      0.569D-03-0.343D-02-0.119D-01-0.191D-02 0.304D-01 0.235D-01
 Coeff:      0.816D-02-0.107D+00-0.103D+00 0.250D+00 0.914D+00
 Gap=     0.198 Goal=   None    Shift=    0.000
 Gap=     0.140 Goal=   None    Shift=    0.000
 RMSDP=1.05D-08 MaxDP=5.67D-07 DE=-1.96D-11 OVMax= 2.59D-06

 Cycle  23  Pass 1  IDiag  1:
 E= -504.827899752374     Delta-E=       -0.000000000001 Rises=F Damp=F
 DIIS: error= 4.08D-08 at cycle  12 NSaved=  12.
 NSaved=12 IEnMin=12 EnMin= -504.827899752374     IErMin=12 ErrMin= 4.08D-08
 ErrMax= 4.08D-08 EMaxC= 1.00D-01 BMatC= 1.67D-12 BMatP= 5.62D-12
 IDIUse=1 WtCom= 1.00D+00 WtEn= 0.00D+00
 Coeff-Com:  0.688D-03-0.256D-02-0.901D-02-0.344D-02 0.205D-01 0.233D-01
 Coeff-Com:  0.143D-01-0.565D-01-0.110D+00-0.180D+00 0.331D+00 0.971D+00
 Coeff:      0.688D-03-0.256D-02-0.901D-02-0.344D-02 0.205D-01 0.233D-01
 Coeff:      0.143D-01-0.565D-01-0.110D+00-0.180D+00 0.331D+00 0.971D+00
 Gap=     0.198 Goal=   None    Shift=    0.000
 Gap=     0.140 Goal=   None    Shift=    0.000
 RMSDP=7.11D-09 MaxDP=4.02D-07 DE=-1.14D-12 OVMax= 1.70D-06

 SCF Done:  E(UB3LYP) =  -504.827899752     A.U. after   23 cycles
             Convg  =    0.7112D-08             -V/T =  2.0043
 <Sx>= 0.0000 <Sy>= 0.0000 <Sz>= 0.5000 <S**2>= 0.8076 S= 0.5284
 <L.S>= 0.000000000000E+00
 KE= 5.026825560149D+02 PE=-2.483188832665D+03 EE= 8.225254442687D+02
 Annihilation of the first spin contaminant:
 S**2 before annihilation     0.8076,   after     0.7503
 Leave Link  502 at Mon Mar 31 16:17:37 2014, MaxMem= 4026531840 cpu:    1059.8
 (Enter /usr/caen/gaussian-09revc/g09/l801.exe)
 Range of M.O.s used for correlation:     1   312
 NBasis=   312 NAE=    45 NBE=    44 NFC=     0 NFV=     0
 NROrb=    312 NOA=    45 NOB=    44 NVA=   267 NVB=   268
 Leave Link  801 at Mon Mar 31 16:17:38 2014, MaxMem= 4026531840 cpu:       4.7
 (Enter /usr/caen/gaussian-09revc/g09/l1101.exe)
 Using compressed storage, NAtomX=    30.
 Will process  31 centers per pass.
 Leave Link 1101 at Mon Mar 31 16:17:41 2014, MaxMem= 4026531840 cpu:      17.1
 (Enter /usr/caen/gaussian-09revc/g09/l1102.exe)
 Symmetrizing basis deriv contribution to polar:
 IMax=3 JMax=2 DiffMx= 0.00D+00
 Leave Link 1102 at Mon Mar 31 16:17:42 2014, MaxMem= 4026531840 cpu:       1.3
 (Enter /usr/caen/gaussian-09revc/g09/l1110.exe)
 Forming Gx(P) for the SCF density, NAtomX=    30.
 Integral derivatives from FoFDir/FoFCou, PRISM(SPDF).
 Do as many integral derivatives as possible in FoFDir.
 G2DrvN: MDV=    4026531496.
 G2DrvN: will do    31 centers at a time, making    1 passes doing MaxLOS=2.
 Calling FoFCou, ICntrl=  3107 FMM=F I1Cent=   0 AccDes= 0.00D+00.
 FoFCou: FMM=F IPFlag=           0 FMFlag=      100000 FMFlg1=           0
         NFxFlg=           0 DoJE=F BraDBF=F KetDBF=F FulRan=T
         Omega=  0.000000  0.000000  1.000000  0.000000  0.000000 ICntrl=    3107 IOpCl=  1
         NMat0=    1 NMatS0=    1 NMatT0=    0 NMatD0=    1 NMtDS0=    0 NMtDT0=    0
         I1Cent=           0 NGrid=           0.
 Symmetry not used in FoFCou.
 FoFDir/FoFCou used for L=0 through L=2.
 End of G2Drv Frequency-dependent properties file   721 does not exist.
 End of G2Drv Frequency-dependent properties file   722 does not exist.
 Leave Link 1110 at Mon Mar 31 16:20:00 2014, MaxMem= 4026531840 cpu:    1100.4
 (Enter /usr/caen/gaussian-09revc/g09/l1002.exe)
 Minotr:  UHF open shell wavefunction.
          IDoAtm=111111111111111111111111111111
          Direct CPHF calculation.
          Differentiating once with respect to nuclear coordinates.
          Requested convergence is 1.0D-06 RMS, and 1.0D-05 maximum.
          Secondary convergence is 1.0D-12 RMS, and 1.0D-12 maximum.
          NewPWx=T KeepS1=F KeepF1=F KeepIn=T MapXYZ=F SortEE=F KeepMc=T.
          MDV=    4026531536 using IRadAn=       2.
 Generate precomputed XC quadrature information.
          Keep R1 and R2 ints in memory in canonical form, NReq=2738891885.
 Symmetry not used in FoFDir.
 MinBra= 0 MaxBra= 2 Meth= 1.
 IRaf=       0 NMat=   1 IRICut=       1 DoRegI=T DoRafI=F ISym2E= 0 JSym2E=0.
          Solving linear equations simultaneously, MaxMat=       0.
          There are    93 degrees of freedom in the 1st order CPHF.  IDoFFX=5.
     87 vectors produced by pass  0 Test12= 2.56D-10 1.08D-07 XBig12= 5.06D-01 5.00D-01.
 AX will form    87 AO Fock derivatives at one time.
     87 vectors produced by pass  1 Test12= 2.56D-10 1.08D-07 XBig12= 1.36D-02 1.82D-02.
     87 vectors produced by pass  2 Test12= 2.56D-10 1.08D-07 XBig12= 8.16D-05 1.71D-03.
     87 vectors produced by pass  3 Test12= 2.56D-10 1.08D-07 XBig12= 3.98D-07 8.87D-05.
     62 vectors produced by pass  4 Test12= 2.56D-10 1.08D-07 XBig12= 1.63D-09 3.60D-06.
     10 vectors produced by pass  5 Test12= 2.56D-10 1.08D-07 XBig12= 7.56D-12 2.32D-07.
 Inverted reduced A of dimension   420 with in-core refinement.
 End of Minotr Frequency-dependent properties file   721 does not exist.
 End of Minotr Frequency-dependent properties file   722 does not exist.
 Leave Link 1002 at Mon Mar 31 16:23:28 2014, MaxMem= 4026531840 cpu:    1661.2
 (Enter /usr/caen/gaussian-09revc/g09/l601.exe)
 Copying SCF densities to generalized density rwf, IOpCl= 1 IROHF=0.

 **********************************************************************

            Population analysis using the SCF density.

 **********************************************************************

 Orbital symmetries:
 Alpha Orbitals:
       Occupied  (A) (A) (A) (A) (A) (A) (A) (A) (A) (A) (A) (A)
                 (A) (A) (A) (A) (A) (A) (A) (A) (A) (A) (A) (A)
                 (A) (A) (A) (A) (A) (A) (A) (A) (A) (A) (A) (A)
                 (A) (A) (A) (A) (A) (A) (A) (A) (A)
       Virtual   (A) (A) (A) (A) (A) (A) (A) (A) (A) (A) (A) (A)
                 (A) (A) (A) (A) (A) (A) (A) (A) (A) (A) (A) (A)
                 (A) (A) (A) (A) (A) (A) (A) (A) (A) (A) (A) (A)
                 (A) (A) (A) (A) (A) (A) (A) (A) (A) (A) (A) (A)
                 (A) (A) (A) (A) (A) (A) (A) (A) (A) (A) (A) (A)
                 (A) (A) (A) (A) (A) (A) (A) (A) (A) (A) (A) (A)
                 (A) (A) (A) (A) (A) (A) (A) (A) (A) (A) (A) (A)
                 (A) (A) (A) (A) (A) (A) (A) (A) (A) (A) (A) (A)
                 (A) (A) (A) (A) (A) (A) (A) (A) (A) (A) (A) (A)
                 (A) (A) (A) (A) (A) (A) (A) (A) (A) (A) (A) (A)
                 (A) (A) (A) (A) (A) (A) (A) (A) (A) (A) (A) (A)
                 (A) (A) (A) (A) (A) (A) (A) (A) (A) (A) (A) (A)
                 (A) (A) (A) (A) (A) (A) (A) (A) (A) (A) (A) (A)
                 (A) (A) (A) (A) (A) (A) (A) (A) (A) (A) (A) (A)
                 (A) (A) (A) (A) (A) (A) (A) (A) (A) (A) (A) (A)
                 (A) (A) (A) (A) (A) (A) (A) (A) (A) (A) (A) (A)
                 (A) (A) (A) (A) (A) (A) (A) (A) (A) (A) (A) (A)
                 (A) (A) (A) (A) (A) (A) (A) (A) (A) (A) (A) (A)
                 (A) (A) (A) (A) (A) (A) (A) (A) (A) (A) (A) (A)
                 (A) (A) (A) (A) (A) (A) (A) (A) (A) (A) (A) (A)
                 (A) (A) (A) (A) (A) (A) (A) (A) (A) (A) (A) (A)
                 (A) (A) (A) (A) (A) (A) (A) (A) (A) (A) (A) (A)
                 (A) (A) (A)
 Beta  Orbitals:
       Occupied  (A) (A) (A) (A) (A) (A) (A) (A) (A) (A) (A) (A)
                 (A) (A) (A) (A) (A) (A) (A) (A) (A) (A) (A) (A)
                 (A) (A) (A) (A) (A) (A) (A) (A) (A) (A) (A) (A)
                 (A) (A) (A) (A) (A) (A) (A) (A)
       Virtual   (A) (A) (A) (A) (A) (A) (A) (A) (A) (A) (A) (A)
                 (A) (A) (A) (A) (A) (A) (A) (A) (A) (A) (A) (A)
                 (A) (A) (A) (A) (A) (A) (A) (A) (A) (A) (A) (A)
                 (A) (A) (A) (A) (A) (A) (A) (A) (A) (A) (A) (A)
                 (A) (A) (A) (A) (A) (A) (A) (A) (A) (A) (A) (A)
                 (A) (A) (A) (A) (A) (A) (A) (A) (A) (A) (A) (A)
                 (A) (A) (A) (A) (A) (A) (A) (A) (A) (A) (A) (A)
                 (A) (A) (A) (A) (A) (A) (A) (A) (A) (A) (A) (A)
                 (A) (A) (A) (A) (A) (A) (A) (A) (A) (A) (A) (A)
                 (A) (A) (A) (A) (A) (A) (A) (A) (A) (A) (A) (A)
                 (A) (A) (A) (A) (A) (A) (A) (A) (A) (A) (A) (A)
                 (A) (A) (A) (A) (A) (A) (A) (A) (A) (A) (A) (A)
                 (A) (A) (A) (A) (A) (A) (A) (A) (A) (A) (A) (A)
                 (A) (A) (A) (A) (A) (A) (A) (A) (A) (A) (A) (A)
                 (A) (A) (A) (A) (A) (A) (A) (A) (A) (A) (A) (A)
                 (A) (A) (A) (A) (A) (A) (A) (A) (A) (A) (A) (A)
                 (A) (A) (A) (A) (A) (A) (A) (A) (A) (A) (A) (A)
                 (A) (A) (A) (A) (A) (A) (A) (A) (A) (A) (A) (A)
                 (A) (A) (A) (A) (A) (A) (A) (A) (A) (A) (A) (A)
                 (A) (A) (A) (A) (A) (A) (A) (A) (A) (A) (A) (A)
                 (A) (A) (A) (A) (A) (A) (A) (A) (A) (A) (A) (A)
                 (A) (A) (A) (A) (A) (A) (A) (A) (A) (A) (A) (A)
                 (A) (A) (A) (A)
 The electronic state is 2-A.
 Alpha  occ. eigenvalues --  -19.15529 -19.13125 -10.23928 -10.21973 -10.16923
 Alpha  occ. eigenvalues --  -10.16528 -10.16183 -10.15888 -10.15862 -10.15365
 Alpha  occ. eigenvalues --  -10.15270  -1.03706  -0.94459  -0.81327  -0.78264
 Alpha  occ. eigenvalues --   -0.74618  -0.70458  -0.68118  -0.67881  -0.60490
 Alpha  occ. eigenvalues --   -0.55706  -0.55071  -0.48935  -0.48198  -0.47026
 Alpha  occ. eigenvalues --   -0.45684  -0.43808  -0.43608  -0.42799  -0.41528
 Alpha  occ. eigenvalues --   -0.40073  -0.39292  -0.38256  -0.37570  -0.36598
 Alpha  occ. eigenvalues --   -0.36274  -0.35646  -0.33804  -0.33289  -0.31977
 Alpha  occ. eigenvalues --   -0.31807  -0.31576  -0.30082  -0.25730  -0.24229
 Alpha virt. eigenvalues --   -0.04471   0.03913   0.04781   0.05792   0.06716
 Alpha virt. eigenvalues --    0.07421   0.08209   0.08532   0.09764   0.10190
 Alpha virt. eigenvalues --    0.10757   0.11717   0.12300   0.13627   0.14240
 Alpha virt. eigenvalues --    0.14699   0.15323   0.16095   0.16845   0.17729
 Alpha virt. eigenvalues --    0.18736   0.20042   0.21151   0.21973   0.23157
 Alpha virt. eigenvalues --    0.23437   0.24879   0.25651   0.27135   0.29063
 Alpha virt. eigenvalues --    0.29671   0.30943   0.32694   0.32956   0.34313
 Alpha virt. eigenvalues --    0.34661   0.36825   0.38743   0.39478   0.40900
 Alpha virt. eigenvalues --    0.42728   0.44557   0.45017   0.45962   0.47185
 Alpha virt. eigenvalues --    0.48382   0.50964   0.53957   0.54496   0.55196
 Alpha virt. eigenvalues --    0.56100   0.57177   0.57534   0.58010   0.58162
 Alpha virt. eigenvalues --    0.58641   0.59012   0.59792   0.59947   0.60464
 Alpha virt. eigenvalues --    0.61039   0.61205   0.62094   0.62787   0.63534
 Alpha virt. eigenvalues --    0.63764   0.64012   0.65295   0.65782   0.66623
 Alpha virt. eigenvalues --    0.66822   0.67258   0.71543   0.73847   0.76902
 Alpha virt. eigenvalues --    0.80399   0.83420   0.85608   0.86635   0.88195
 Alpha virt. eigenvalues --    0.89297   0.91343   0.93468   0.96384   0.97029
 Alpha virt. eigenvalues --    0.99169   1.00205   1.01163   1.02589   1.07959
 Alpha virt. eigenvalues --    1.09387   1.11763   1.12322   1.15050   1.18309
 Alpha virt. eigenvalues --    1.19180   1.19906   1.22284   1.27860   1.30267
 Alpha virt. eigenvalues --    1.31703   1.32453   1.34102   1.35636   1.38104
 Alpha virt. eigenvalues --    1.40356   1.41437   1.42038   1.42613   1.44828
 Alpha virt. eigenvalues --    1.45883   1.46286   1.46758   1.47911   1.48552
 Alpha virt. eigenvalues --    1.50242   1.50756   1.51251   1.51997   1.53954
 Alpha virt. eigenvalues --    1.54183   1.55665   1.56810   1.57934   1.58577
 Alpha virt. eigenvalues --    1.60088   1.60785   1.61544   1.62454   1.63980
 Alpha virt. eigenvalues --    1.65218   1.66873   1.67998   1.68821   1.70393
 Alpha virt. eigenvalues --    1.70717   1.72797   1.73064   1.74504   1.76044
 Alpha virt. eigenvalues --    1.76241   1.78408   1.78823   1.80479   1.82830
 Alpha virt. eigenvalues --    1.85691   1.88651   1.91290   1.92355   1.93685
 Alpha virt. eigenvalues --    1.94010   1.96815   1.98121   1.98289   1.99846
 Alpha virt. eigenvalues --    2.01476   2.04731   2.05255   2.05786   2.09766
 Alpha virt. eigenvalues --    2.11186   2.14021   2.14487   2.16471   2.19087
 Alpha virt. eigenvalues --    2.21300   2.22963   2.26674   2.28697   2.30445
 Alpha virt. eigenvalues --    2.32753   2.34182   2.35593   2.36987   2.37460
 Alpha virt. eigenvalues --    2.38771   2.41633   2.42938   2.44532   2.45611
 Alpha virt. eigenvalues --    2.47335   2.47709   2.48013   2.49362   2.49654
 Alpha virt. eigenvalues --    2.51350   2.51712   2.52475   2.53514   2.53619
 Alpha virt. eigenvalues --    2.55869   2.57175   2.58031   2.59660   2.61884
 Alpha virt. eigenvalues --    2.62306   2.63296   2.64448   2.65258   2.67487
 Alpha virt. eigenvalues --    2.68693   2.71792   2.72906   2.73319   2.75985
 Alpha virt. eigenvalues --    2.77625   2.79435   2.79769   2.82331   2.84275
 Alpha virt. eigenvalues --    2.85777   2.88837   2.90225   2.90891   2.92759
 Alpha virt. eigenvalues --    2.95036   2.97262   2.98748   3.00527   3.04255
 Alpha virt. eigenvalues --    3.09078   3.10848   3.14205   3.16170   3.17692
 Alpha virt. eigenvalues --    3.20993   3.27164   3.35828   3.40013   3.47310
 Alpha virt. eigenvalues --    3.55733   3.73049   3.77030   3.77956   3.78636
 Alpha virt. eigenvalues --    3.79615   3.80327   3.81257   3.81611   3.83938
 Alpha virt. eigenvalues --    3.84551   3.85434   3.92530   3.97750   4.08666
 Alpha virt. eigenvalues --    4.18000   4.28715   4.29787   4.33710   4.41586
 Alpha virt. eigenvalues --    4.81226   4.85802   4.96688   5.10019   5.42302
 Alpha virt. eigenvalues --    5.48697  23.72883  23.80585  23.82246  23.87857
 Alpha virt. eigenvalues --   23.89322  23.90169  23.93739  23.93957  23.94786
 Alpha virt. eigenvalues --   49.79284  49.87239
  Beta  occ. eigenvalues --  -19.15814 -19.11765 -10.23991 -10.20926 -10.16923
  Beta  occ. eigenvalues --  -10.16519 -10.16173 -10.15888 -10.15862 -10.15365
  Beta  occ. eigenvalues --  -10.15270  -1.03355  -0.91876  -0.81324  -0.78163
  Beta  occ. eigenvalues --   -0.74371  -0.68673  -0.68110  -0.67744  -0.60454
  Beta  occ. eigenvalues --   -0.55664  -0.54639  -0.48587  -0.48101  -0.46582
  Beta  occ. eigenvalues --   -0.45448  -0.43701  -0.43179  -0.42337  -0.41338
  Beta  occ. eigenvalues --   -0.39675  -0.39045  -0.38243  -0.37469  -0.36436
  Beta  occ. eigenvalues --   -0.36079  -0.35464  -0.33305  -0.32342  -0.31905
  Beta  occ. eigenvalues --   -0.31759  -0.31347  -0.29534  -0.25187
  Beta virt. eigenvalues --   -0.11141  -0.00704   0.04081   0.04863   0.05971
  Beta virt. eigenvalues --    0.06809   0.07645   0.08380   0.08711   0.09795
  Beta virt. eigenvalues --    0.10283   0.10834   0.11732   0.12357   0.13671
  Beta virt. eigenvalues --    0.14289   0.14726   0.15330   0.16129   0.16887
  Beta virt. eigenvalues --    0.17900   0.18740   0.20042   0.21189   0.22002
  Beta virt. eigenvalues --    0.23220   0.23621   0.24921   0.25829   0.27182
  Beta virt. eigenvalues --    0.29307   0.29857   0.31169   0.32835   0.33523
  Beta virt. eigenvalues --    0.34459   0.35469   0.36865   0.39010   0.39555
  Beta virt. eigenvalues --    0.41676   0.42964   0.45089   0.45931   0.46719
  Beta virt. eigenvalues --    0.47307   0.48666   0.51177   0.54225   0.54532
  Beta virt. eigenvalues --    0.55496   0.56373   0.57290   0.57631   0.58077
  Beta virt. eigenvalues --    0.58235   0.58685   0.59062   0.59859   0.60064
  Beta virt. eigenvalues --    0.60506   0.61071   0.61304   0.62134   0.62874
  Beta virt. eigenvalues --    0.63568   0.63842   0.64093   0.65389   0.65925
  Beta virt. eigenvalues --    0.66672   0.66949   0.67864   0.71637   0.74186
  Beta virt. eigenvalues --    0.77530   0.81558   0.83773   0.85919   0.87088
  Beta virt. eigenvalues --    0.88469   0.90427   0.92257   0.93719   0.96689
  Beta virt. eigenvalues --    0.97237   0.99213   1.00696   1.01361   1.02857
  Beta virt. eigenvalues --    1.08043   1.09723   1.11982   1.13152   1.15147
  Beta virt. eigenvalues --    1.18831   1.19849   1.20096   1.22395   1.27934
  Beta virt. eigenvalues --    1.30573   1.31995   1.32698   1.34306   1.35723
  Beta virt. eigenvalues --    1.38116   1.40401   1.41593   1.42257   1.42808
  Beta virt. eigenvalues --    1.44923   1.45891   1.46403   1.46780   1.48101
  Beta virt. eigenvalues --    1.48596   1.50319   1.50773   1.51577   1.52080
  Beta virt. eigenvalues --    1.53961   1.54355   1.56357   1.57297   1.58284
  Beta virt. eigenvalues --    1.58941   1.60198   1.60793   1.62091   1.62496
  Beta virt. eigenvalues --    1.64316   1.65269   1.67173   1.68151   1.68946
  Beta virt. eigenvalues --    1.70515   1.70773   1.72896   1.73196   1.74600
  Beta virt. eigenvalues --    1.76150   1.76529   1.78464   1.78858   1.80525
  Beta virt. eigenvalues --    1.83308   1.86105   1.88962   1.91370   1.92661
  Beta virt. eigenvalues --    1.93878   1.95262   1.97561   1.98255   1.98556
  Beta virt. eigenvalues --    2.00108   2.01559   2.04750   2.05443   2.05944
  Beta virt. eigenvalues --    2.09818   2.11461   2.14191   2.14667   2.16491
  Beta virt. eigenvalues --    2.19167   2.21403   2.23173   2.26707   2.28783
  Beta virt. eigenvalues --    2.30463   2.32850   2.34337   2.35652   2.37007
  Beta virt. eigenvalues --    2.37507   2.38781   2.41689   2.43004   2.44555
  Beta virt. eigenvalues --    2.45662   2.47395   2.47774   2.48242   2.49488
  Beta virt. eigenvalues --    2.49711   2.51367   2.51746   2.52671   2.53569
  Beta virt. eigenvalues --    2.54122   2.56053   2.57192   2.58040   2.59724
  Beta virt. eigenvalues --    2.61960   2.63124   2.63542   2.64556   2.65294
  Beta virt. eigenvalues --    2.67534   2.68877   2.71942   2.73316   2.73715
  Beta virt. eigenvalues --    2.76598   2.77761   2.79784   2.80872   2.82490
  Beta virt. eigenvalues --    2.84648   2.87097   2.89038   2.90658   2.91710
  Beta virt. eigenvalues --    2.92756   2.95066   2.97236   2.98765   3.01081
  Beta virt. eigenvalues --    3.04499   3.10297   3.11760   3.15403   3.16879
  Beta virt. eigenvalues --    3.17673   3.21115   3.28045   3.36149   3.40937
  Beta virt. eigenvalues --    3.47317   3.55728   3.74362   3.77231   3.77984
  Beta virt. eigenvalues --    3.78931   3.80099   3.80439   3.81295   3.81779
  Beta virt. eigenvalues --    3.83963   3.84727   3.85470   3.92823   3.97752
  Beta virt. eigenvalues --    4.08710   4.18024   4.28803   4.29792   4.33954
  Beta virt. eigenvalues --    4.41728   4.82990   4.90744   4.96431   5.08391
  Beta virt. eigenvalues --    5.43047   5.48689  23.72947  23.81266  23.82285
  Beta virt. eigenvalues --   23.87962  23.89346  23.90370  23.93781  23.93957
  Beta virt. eigenvalues --   23.94793  49.80643  49.87014
          Condensed to atoms (all electrons):
              1          2          3          4          5          6
     1  C    4.868806   0.407690   0.390477   0.388538  -0.084298  -0.009006
     2  H    0.407690   0.540828  -0.026033  -0.026175  -0.010744   0.003401
     3  H    0.390477  -0.026033   0.595157  -0.026829  -0.000555   0.000221
     4  H    0.388538  -0.026175  -0.026829   0.583304   0.010379   0.000118
     5  C   -0.084298  -0.010744  -0.000555   0.010379   5.037326   0.410371
     6  H   -0.009006   0.003401   0.000221   0.000118   0.410371   0.563486
     7  H   -0.002174   0.000507   0.000743  -0.000447   0.384372  -0.033020
     8  C    0.008221   0.000102  -0.000283  -0.000513   0.342305  -0.038341
     9  H    0.000528  -0.000040  -0.000131  -0.000058  -0.041314  -0.006276
    10  H   -0.000529  -0.000006   0.000072   0.000027  -0.033767   0.008902
    11  C   -0.000151  -0.000029  -0.000020   0.000014  -0.050371  -0.006095
    12  H    0.000002   0.000005  -0.000001   0.000001  -0.004120  -0.000786
    13  H   -0.000030  -0.000023   0.000005   0.000001  -0.006085   0.005802
    14  C    0.000003   0.000000   0.000000   0.000000   0.006321  -0.000013
    15  H   -0.000001   0.000000   0.000000   0.000000  -0.000116   0.000025
    16  C    0.000000   0.000000   0.000000   0.000000  -0.000249  -0.000033
    17  H    0.000000   0.000000   0.000000   0.000000  -0.000009   0.000009
    18  H    0.000000   0.000000   0.000000   0.000000   0.000013   0.000002
    19  H    0.000000   0.000000   0.000000   0.000000  -0.000029  -0.000010
    20  C   -0.048439   0.008045  -0.001804  -0.008260  -0.063077   0.008015
    21  H   -0.006255   0.000007   0.000029   0.003301   0.005244  -0.000279
    22  H    0.005222  -0.000365  -0.000109   0.000083  -0.005796   0.000026
    23  C    0.000000   0.000000   0.000000   0.000000  -0.000034  -0.000007
    24  H    0.000000   0.000000   0.000000   0.000000   0.000013   0.000002
    25  H    0.000000   0.000000   0.000000   0.000000  -0.000076   0.000006
    26  H    0.000001   0.000000   0.000000   0.000000  -0.000114  -0.000020
    27  C    0.349506  -0.033622  -0.037839  -0.026796   0.319024  -0.036292
    28  O   -0.049429  -0.003357   0.004621   0.004247  -0.073787  -0.003235
    29  O    0.004934   0.014081   0.000276  -0.000114  -0.002903   0.007921
    30  H    0.001026  -0.000782  -0.000034   0.000288   0.000431  -0.000765
              7          8          9         10         11         12
     1  C   -0.002174   0.008221   0.000528  -0.000529  -0.000151   0.000002
     2  H    0.000507   0.000102  -0.000040  -0.000006  -0.000029   0.000005
     3  H    0.000743  -0.000283  -0.000131   0.000072  -0.000020  -0.000001
     4  H   -0.000447  -0.000513  -0.000058   0.000027   0.000014   0.000001
     5  C    0.384372   0.342305  -0.041314  -0.033767  -0.050371  -0.004120
     6  H   -0.033020  -0.038341  -0.006276   0.008902  -0.006095  -0.000786
     7  H    0.612566  -0.034404   0.009026  -0.008969  -0.003547   0.004315
     8  C   -0.034404   4.940256   0.410510   0.394014   0.366339  -0.039989
     9  H    0.009026   0.410510   0.558582  -0.038186  -0.035701   0.008398
    10  H   -0.008969   0.394014  -0.038186   0.627150  -0.037308  -0.008588
    11  C   -0.003547   0.366339  -0.035701  -0.037308   4.962102   0.396358
    12  H    0.004315  -0.039989   0.008398  -0.008588   0.396358   0.621813
    13  H   -0.000745  -0.041477  -0.006878   0.009383   0.410664  -0.037257
    14  C    0.000053  -0.053237  -0.003661  -0.005573   0.371215  -0.039428
    15  H    0.000002  -0.004706   0.004761  -0.000528  -0.048524   0.010456
    16  C    0.000006   0.007552   0.000056  -0.000055  -0.066348  -0.005160
    17  H   -0.000011  -0.000036   0.000011   0.000015  -0.007068   0.004998
    18  H    0.000000  -0.000420  -0.000005   0.000022   0.008585  -0.000321
    19  H    0.000005   0.000037   0.000016  -0.000004  -0.005713  -0.000590
    20  C   -0.002686  -0.010666  -0.000654   0.003343  -0.000123  -0.000048
    21  H   -0.000101   0.000080  -0.000089   0.000099   0.000011  -0.000003
[...]
 .00042445,-0.00013231,0.00010489,-0.00650925,0.00064623,-0.00017091,0.
 00004902,0.00015396,0.00166623,-0.00016204,0.00119699,0.02609354,-0.00
 019998,0.01929172,-0.00022076,0.00118481,-0.00064498,0.00128378,0.0015
 6100,0.00011945,-0.00015926,-0.00006824,-0.00001507,-0.00071978,-0.000
 21673,-0.00013999,0.00002099,0.00026863,-0.00040856,0.00004098,0.00001
 277,0.00002045,-0.00000205,0.00001122,-0.00001234,0.00001269,-0.000000
 54,-0.00001025,-0.00076585,-0.04607426,-0.00091110,-0.00084747,0.05111
 887,-0.00001741,-0.00000935,0.00001279,0.00000435,0.00000027,0.0000014
 4,0.00000467,0.00000023,0.00000134,-0.00001492,0.00000072,0.00000046,-
 0.00010330,-0.00017407,0.00005786,0.00007071,-0.00001546,0.00004661,0.
 00001683,0.00000148,0.00001672,0.00034104,0.00026320,0.00003863,-0.000
 04935,0.00000381,0.00000259,-0.00005689,-0.00027793,-0.00005591,0.0002
 3041,0.00213204,0.00042119,0.00031630,-0.00004354,0.00053124,-0.000725
 58,0.00024570,-0.00003678,-0.00505128,-0.00055938,-0.00505409,0.000312
 43,0.00029579,0.00054131,-0.00065702,-0.00063810,-0.00013401,-0.000107
 25,0.00000744,-0.00009465,0.00053293,0.00048871,0.00020100,0.00031667,
 -0.00011635,0.00018368,-0.00001686,0.00000180,-0.00000124,-0.00000410,
 -0.00000651,0.00000439,-0.00000266,0.00000386,-0.00000862,-0.12040788,
 0.00000954,-0.13026674,0.13366114,-0.00130934,0.13853666,0.00000180,0.
 00000396,0.00000038,-0.00000145,-0.00000072,-0.00000080,-0.00000421,-0
 .00000032,-0.00000522,0.00000514,0.00000045,-0.00000134,0.00000442,0.0
 0000451,0.00000501,0.00000848,0.00000602,-0.00000283,-0.00004200,0.000
 00056,-0.00005580,-0.00020189,-0.00005200,-0.00016759,0.00017273,-0.00
 014243,-0.00004684,-0.00008785,-0.00000480,0.00017193,0.00036750,0.000
 27719,0.00148111,-0.00004542,0.00004962,-0.00046161,0.00010492,-0.0002
 3041,-0.00017752,-0.00303585,0.00512068,0.00754160,0.00020417,0.001875
 49,-0.00065954,0.00015080,-0.00077376,-0.00061546,0.00039510,-0.000046
 51,-0.00005082,0.00003728,-0.00002607,-0.00012841,-0.00012737,0.000039
 84,0.00000658,0.00000368,-0.00002564,-0.00002419,0.00000175,0.00000421
 ,0.00000386,-0.00000056,0.00001093,0.00003314,-0.05658645,0.02441125,0
 .04031456,0.00610144,-0.01445438,-0.02269395,0.05690435,0.00000829,0.0
 0000172,-0.00000720,-0.00000074,-0.00000072,-0.00000210,0.00000069,0.0
 0000216,0.00000207,0.00000406,-0.00000088,0.00000173,0.00004609,0.0000
 4120,-0.00003538,-0.00000266,0.00000129,-0.00000648,0.00002922,0.00000
 675,0.00002494,0.00011380,0.00000557,0.00013862,-0.00018528,-0.0000360
 0,0.00008679,0.00007436,-0.00000807,-0.00003017,-0.00107616,0.00126559
 ,-0.00140850,0.00044030,0.00030511,0.00094658,-0.00035710,0.00035150,0
 .00024758,0.00659390,-0.01842524,-0.02730768,0.00157783,-0.00578503,0.
 00220400,0.00063859,0.00139135,-0.00143752,-0.00059492,-0.00001414,0.0
 0097172,-0.00003218,-0.00005159,0.00006388,0.00000183,0.00044840,0.000
 38228,0.00000263,0.00000838,0.00001056,-0.00000056,0.00000141,-0.00000
 252,0.00000455,0.00000049,0.00000178,0.02436141,-0.11335827,-0.1083889
 0,-0.00056863,-0.00057257,0.00025897,-0.02930832,0.12617288,0.00001802
 ,0.00000230,-0.00001476,-0.00000273,0.00000073,-0.00000090,-0.00000061
 ,0.00000098,0.00000686,0.00001068,-0.00000035,0.00000050,-0.00001400,-
 0.00003341,-0.00005556,0.00000540,0.00000273,0.00001515,0.00002216,0.0
 0000582,0.00004533,0.00012456,-0.00009302,0.00011003,-0.00005302,0.000
 09707,-0.00000392,0.00004589,-0.00008141,-0.00014015,-0.00016014,0.000
 39676,0.00110955,0.00047326,-0.00022276,0.00029555,0.00016395,-0.00004
 100,0.00022138,-0.00121505,0.00332824,0.00547364,-0.00059672,0.0017966
 8,0.00109108,-0.00029921,0.00013363,0.00085017,-0.00027283,-0.00041440
 ,0.00024423,0.00008708,0.00000674,-0.00009739,-0.00013713,-0.00011760,
 0.00021872,-0.00000106,0.00003468,0.00001832,0.00000904,-0.00000367,-0
 .00000685,-0.00000816,-0.00002279,-0.00002296,0.04019691,-0.10858168,-
 0.22340016,0.00403435,-0.00853676,-0.01518958,-0.04438093,0.12015517,0
 .24259302,0.00002111,0.00001340,-0.00002030,-0.00000517,0.00000201,0.,
 -0.00000375,-0.00000211,-0.00000122,0.00001652,-0.00000158,0.00000163,
 0.00007399,0.00018387,-0.00009322,-0.00005047,0.00002669,-0.00003965,0
 .00001159,-0.00000252,0.00001347,-0.00108726,0.00001200,-0.00042692,-0
 .00004944,0.00004512,0.00009283,-0.00136698,0.00086678,-0.00077121,0.0
 0020335,-0.00057257,-0.00018236,-0.00005938,0.00001205,-0.00003823,0.0
 0014624,-0.00003773,0.00019651,0.00728339,0.00388423,-0.00534052,0.000
 45424,-0.00086424,-0.00001287,0.00003664,0.00095161,-0.00062877,-0.000
 04435,0.00010882,-0.00012813,0.00033093,0.00029795,0.00011729,0.000421
 01,0.00032983,-0.00002474,0.00002031,0.00002166,0.00000101,0.00001117,
 -0.00000029,-0.00000045,-0.00001759,-0.00001850,0.00001137,-0.18515401
 ,-0.08807517,0.09648807,-0.01936841,-0.01159744,0.01410751,-0.00430772
 ,-0.00179035,0.00193395,0.20246103,-0.00002335,-0.00000338,0.00001389,
 0.00000372,-0.00000006,0.00000291,0.00000352,-0.00000242,-0.00000392,-
 0.00001675,-0.00000194,0.00000222,0.00024463,0.00036423,-0.00012006,-0
 .00017834,0.00002793,-0.00010417,-0.00005643,-0.00003009,-0.00006885,-
 0.00004900,-0.00023659,0.00008120,0.00014691,-0.00017417,-0.00008065,0
 .00042235,0.00072219,0.00008852,-0.00083091,0.00075049,-0.00027749,0.0
 0012557,0.00000439,-0.00000409,-0.00004435,0.00000828,-0.00015710,-0.0
 2441153,-0.01273243,0.01526865,-0.00024252,0.00098909,-0.00075948,0.00
 343974,-0.00596761,0.00080948,0.00008441,0.00016005,0.00021872,0.00022
 756,0.00019747,-0.00026953,-0.00150715,-0.00107360,0.00118631,0.000022
 91,-0.00002804,0.00002022,-0.00002172,0.00000867,-0.00000254,0.0000236
 2,0.00004792,0.00000126,-0.08679020,-0.10241247,0.06034965,-0.00012242
 ,-0.00062980,-0.00058272,0.01326315,0.00825613,-0.00778125,0.09624422,
 0.11170710,0.00002555,-0.00000228,-0.00002060,-0.00000364,-0.00000121,
 -0.00000133,-0.00000595,0.00000336,-0.00000189,0.00002103,0.00000362,-
 0.00000078,-0.00017341,-0.00047936,0.00000516,0.00018417,-0.00004902,0
 .00012827,0.00000116,0.00004298,-0.00000506,0.00009291,0.00101239,0.00
 009336,-0.00000756,-0.00016732,-0.00003470,-0.00081270,-0.00060279,0.0
 0009460,0.00083766,0.00022892,-0.00018641,0.00001199,0.00003958,0.0000
 0217,-0.00010465,-0.00007576,0.00006833,0.00459486,0.00162216,-0.00445
 473,-0.00047514,-0.00002669,0.00056981,-0.00125811,0.00153359,0.000361
 42,-0.00031172,-0.00024065,0.00041383,0.00030886,0.00001611,0.00009411
 ,0.00053538,0.00037422,0.00022263,-0.00003819,-0.00001548,-0.00006949,
 0.00002818,-0.00000889,0.00001270,-0.00004596,-0.00000875,0.00005981,0
 .09560728,0.06084652,-0.11382476,-0.01359428,-0.00933519,0.01027123,0.
 01993173,0.01310487,-0.01339511,-0.10529043,-0.06780258,0.11956977,-0.
 14768821,0.02034613,-0.04121205,-0.00045847,0.00001980,-0.00006908,0.0
 0485346,-0.00125239,0.00587031,-0.02433043,0.00754351,-0.01900379,-0.1
 5223109,-0.02374844,0.02431624,-0.00153667,-0.00073984,0.00140943,-0.0
 0085468,-0.00180484,0.00003668,-0.02795737,-0.00551682,0.00718816,0.00
 073783,0.00024527,0.00113316,0.00121305,-0.00060407,0.00059054,-0.0014
 2652,0.00120332,-0.00326404,-0.00000326,0.00024053,0.00018426,0.000104
 01,-0.00024029,-0.00001953,-0.00043951,-0.00046046,0.00081189,0.000081
 03,-0.00003204,0.00002583,-0.00016830,-0.00003710,-0.00015290,-0.00000
 945,0.00001513,-0.00002276,0.00005018,-0.00003524,0.00007920,-0.000032
 84,-0.00001088,-0.00002056,-0.07965405,-0.02049038,-0.00109698,-0.0006
 9217,-0.01882037,0.01739405,0.00691209,0.01625834,-0.01530916,0.000160
 50,-0.00001616,0.00015527,0.00015779,-0.00000850,0.00004109,-0.0000432
 0,0.00000669,-0.00002318,-0.00001844,0.00012847,-0.00012996,0.48998711
 ,0.02092180,-0.08390139,0.01609438,0.02684797,-0.00804596,0.02099563,-
 0.01413415,0.00267876,-0.01047865,-0.00623731,-0.00028923,-0.00509050,
 -0.01812440,-0.08312784,0.01116434,-0.03024838,-0.00949535,0.01568972,
 0.01769603,0.00300341,-0.00874702,0.00243725,0.00009803,-0.00391266,-0
 .00115689,-0.00000527,-0.00026681,0.00099957,-0.00065946,0.00011583,0.
 00060779,-0.00105688,0.00061524,-0.00011925,0.00004428,0.00017029,0.00
 013520,0.00046605,-0.00010947,0.00017955,0.00072347,-0.00009770,0.0000
 2295,-0.00003287,0.00003040,0.00014394,-0.00007896,0.00014412,-0.00000
 583,0.00000074,-0.00001760,0.00009158,0.00003916,-0.00001667,-0.000013
 99,0.00001110,0.00000090,-0.01970962,-0.16672150,0.08637229,0.00309532
 ,-0.00718294,0.00100106,-0.00262728,-0.00614721,-0.00006762,-0.0000705
 0,0.00004835,-0.00008872,0.00002303,0.00001637,0.00000829,0.00000061,-
 0.00000848,-0.00002337,-0.00002424,0.00003739,-0.00000504,0.01392871,0
 .43021513,-0.04751945,0.02288211,-0.10293894,-0.00474976,0.00242595,-0
 .00521795,-0.01807644,0.00750445,-0.01523968,0.01341177,-0.00380912,0.
 00736561,0.02314234,0.01850862,-0.08597051,0.00908960,0.00291435,-0.00
 559065,0.02133282,0.00717823,-0.01267974,-0.01334928,-0.00711546,0.015
 32748,-0.00153532,-0.00142550,-0.00140669,-0.00039835,0.00095151,0.000
 01593,-0.00366139,0.00101423,-0.00564170,0.00032548,0.00023419,-0.0000
 9975,0.00026424,-0.00001828,-0.00008581,-0.00133398,-0.00061754,0.0015
 7858,0.00005381,-0.00008050,-0.00009520,-0.00048599,0.00018321,-0.0005
 8583,0.00002755,0.00001357,0.00002462,-0.00031834,-0.00012811,0.000065
 22,0.00005006,-0.00002076,0.00002428,0.00142634,0.12554315,-0.07737776
 ,-0.00001877,0.00266280,-0.00006960,0.00162729,0.00840069,-0.00435009,
 -0.00009877,-0.00022121,-0.00002046,-0.00012244,0.00007207,-0.00005911
 ,0.00002647,0.00001212,0.00000783,0.00007994,0.00000194,0.00006127,0.0
 0193743,-0.11022975,0.49017463,0.00708442,-0.01333176,-0.02368680,0.00
 097395,0.00010839,0.00060324,-0.00354095,0.00175948,-0.00498494,0.0032
 4103,-0.00082173,0.00109291,-0.00200369,0.01700797,0.03100960,0.001028
 73,-0.00035921,-0.00043312,-0.00587009,-0.00179369,0.00385519,0.000226
 99,-0.00058858,-0.00035350,-0.00073004,0.00117986,0.00165207,-0.000183
 57,0.00046513,0.00005574,0.00044642,0.00089854,0.00100112,-0.00037391,
 -0.00026181,0.00007726,-0.00000353,-0.00010031,0.00006033,0.00031285,-
 0.00006039,0.00006413,-0.00002086,0.00002450,-0.00005124,-0.00004427,0
 .00007691,-0.00007772,0.00001463,-0.00000116,0.00002457,-0.00010481,-0
 .00001784,-0.00002812,0.00003026,-0.00000819,0.00001398,-0.00730689,-0
 .00088576,-0.00140342,0.00190541,-0.00399168,-0.00438575,0.00026880,0.
 00229401,0.00335468,-0.00005411,-0.00002840,-0.00006955,-0.00011086,0.
 00001626,-0.00003938,0.00002320,0.00000196,0.00003114,0.00003326,-0.00
 007536,0.00006591,-0.06742707,0.00306941,0.02208603,0.08256004,-0.0002
 7665,0.00522834,-0.00271242,-0.00094231,-0.00047675,0.00165525,0.00013
 692,-0.00048742,-0.00047462,-0.00051532,0.00037538,0.00084216,0.001175
 32,0.00522507,-0.00251793,0.00074303,-0.00013459,0.00124041,0.00000258
 ,-0.00005734,-0.00036038,-0.00149936,0.00192357,-0.00012431,-0.0005248
 9,0.00029177,-0.00010099,0.00078443,-0.00117500,0.00023868,0.00024888,
 -0.00046349,0.00027470,0.00009562,0.00002988,-0.00007743,-0.00028333,-
 0.00028148,0.00018137,-0.00004587,0.00011178,-0.00004566,-0.00003501,-
 0.00004726,-0.00005918,0.00004199,-0.00005691,0.00004737,0.00000617,-0
 .00000178,-0.00003581,0.00004702,0.00002100,0.00000783,-0.00002831,-0.
 00005272,0.00002469,-0.00855535,0.08226050,0.05656772,0.00019238,-0.00
 074401,-0.00103001,0.00053102,-0.00111016,-0.00211400,0.00014855,0.000
 09364,-0.00003140,0.00000948,-0.00005854,0.00002447,0.00003197,-0.0000
 2475,-0.00005626,-0.00004425,0.00001150,0.00007563,0.01809597,-0.04303
 325,-0.09135015,-0.00992806,-0.15225881,-0.00119091,-0.02138572,-0.041
 86753,0.00196763,-0.00010319,0.00179296,-0.00634133,0.00238578,-0.0043
 1470,0.00043482,-0.00043474,0.00223295,0.01163342,-0.01835297,-0.03079
 597,-0.00166779,0.00016244,0.00101744,0.00545959,0.00198144,-0.0018102
 1,-0.00281411,-0.00004158,-0.00082859,0.00104028,0.00082474,0.00126125
 ,0.00038068,-0.00036775,0.00002782,0.00033173,0.00021115,0.00081649,-0
 .00040793,0.00005118,0.00033001,-0.00009326,-0.00009188,-0.00003390,0.
 00004650,0.00010165,-0.00012194,0.00007246,0.00004350,0.00009352,0.000
 06096,-0.00004626,0.00008006,-0.00002517,0.00001159,0.00000387,0.00007
 033,0.00001188,0.00000132,-0.00001857,-0.00001455,-0.00001303,-0.00048
 097,-0.02131837,0.00288980,-0.00069256,0.00425152,0.00217398,0.0001709
 5,0.00456942,0.00300757,0.00011644,0.00006335,-0.00000129,0.00005242,-
 0.00002761,0.00002692,-0.00003676,0.00000771,0.00002139,-0.00003695,-0
 .00002471,-0.00002657,0.01875630,0.00240151,-0.20170419,-0.03630717,0.
 03036157,0.29235110,-0.00074213,-0.00088930,-0.00102245,-0.00033802,-0
 .00092616,0.00095735,0.00038276,-0.00066810,0.00036557,0.00006049,0.00
 036187,-0.00002675,-0.00085709,0.00107572,0.00057253,0.00018809,0.0004
 2078,-0.00045407,0.00010323,0.00011940,-0.00012708,0.00004584,0.000030
 06,-0.00058242,-0.00007719,-0.00011405,0.00021373,0.00003425,-0.000004
 84,0.00006967,0.00013876,-0.00000105,0.00012525,-0.00005812,0.00003290
 ,0.00005090,-0.00000871,-0.00000980,-0.00005796,0.00005583,-0.00002665
 ,-0.00004156,0.00000830,0.00001523,0.00004038,0.00000236,0.00001464,-0
 .00000444,-0.00000835,0.00000697,0.00001756,-0.00001966,-0.00000265,-0
 .00000858,0.00000874,-0.00000193,-0.00000536,0.00008270,0.00321299,0.0
 0172956,0.00009433,0.00049459,-0.00047190,-0.00002660,-0.00031531,0.00
 041599,0.00000349,0.00000179,-0.00000435,-0.00002117,-0.00000082,-0.00
 001000,-0.00000301,0.00001169,0.00001487,0.00000349,-0.00002476,0.0000
 1298,0.00032547,0.00434755,-0.00375831,-0.01187798,0.00503832,0.010289
 85,0.37172634,-0.00127572,0.00124717,0.00118055,-0.00043238,-0.0002340
 1,-0.00158962,0.00062827,0.00028315,0.00146240,0.00011292,-0.00057665,
 -0.00039610,0.00056382,0.00173878,0.00055978,0.00111168,0.00000972,-0.
 00124365,-0.00093666,0.00027367,0.00103468,0.00053369,-0.00132625,-0.0
 0034939,0.00083972,-0.00004101,0.00043067,-0.00066816,0.00094756,-0.00
 006026,-0.00019994,0.00034820,0.00016827,-0.00012393,-0.00001229,0.000
 10071,0.00020687,0.00021453,-0.00018762,0.00005367,-0.00010964,-0.0001
 4237,0.00004139,0.00004412,0.00009950,0.00001323,-0.00000045,0.0000366
 0,-0.00001472,0.00000850,0.00002745,0.00001608,-0.00000507,-0.00000712
 ,0.00001389,0.00006404,-0.00004174,0.00420344,-0.07890927,-0.03882510,
 0.00101592,-0.00048233,-0.00129818,-0.00097862,-0.00034441,-0.00056898
 ,-0.00009497,-0.00006248,0.00007884,0.00003957,0.00003718,-0.00000497,
 -0.00004115,0.00002765,0.00004386,0.00002927,0.00002007,-0.00010448,-0
 .00439100,-0.02244324,0.01377315,-0.00925428,0.11295952,0.02766229,-0.
 02741533,0.00819575,-0.00056871,0.00098484,-0.00157469,-0.00007187,-0.
 00175770,0.00075943,0.00032491,-0.00123018,0.00040189,-0.00014540,-0.0
 0017618,0.00003520,0.00025652,0.00083685,0.00011909,0.00003471,-0.0006
 2931,0.00017894,-0.00024735,-0.00023377,0.00029863,-0.00003595,-0.0002
 2255,-0.00039165,0.00004270,0.00009744,-0.00002981,0.00010393,-0.00007
 711,0.00008468,0.00001572,0.00004949,0.00019699,-0.00003496,0.00000088
 ,0.00004029,-0.00003962,-0.00004305,-0.00000326,0.00001074,-0.00004262
 ,-0.00017045,-0.00000028,0.00002541,0.00005706,0.00003042,-0.00000394,
 0.00004796,-0.00001569,0.00000845,0.00001291,0.00003565,0.00000194,0.0
 0000125,-0.00000832,-0.00000521,-0.00001545,0.00048896,-0.00059386,0.0
 0012164,-0.00010046,-0.00030080,0.00011054,0.00009932,-0.00052286,0.00
 015613,0.00003704,0.00001937,0.00003650,0.00003301,-0.00001205,0.00000
 703,-0.00001693,0.00001170,0.00001485,-0.00001446,-0.00000618,-0.00002
 617,-0.00084210,-0.01547537,0.00592353,0.00883858,0.00368464,-0.028404
 97,-0.24622222,0.02261579,0.18043541,0.00025222,0.00002332,-0.00018787
 ,0.00008913,0.00015494,-0.00017289,-0.00019619,0.00010107,-0.00002692,
 -0.00010930,-0.00026165,-0.00002434,-0.00023762,-0.00024622,-0.0002670
 6,0.00010171,0.00023211,-0.00017437,0.00009047,0.00012587,-0.00007918,
 0.00005928,-0.00001008,-0.00012355,0.00002930,-0.00014415,0.00017463,-
 0.00007983,0.00009947,0.00003076,0.00000675,-0.00004909,0.00003534,-0.
 00000778,0.00001079,-0.00000429,0.00003706,0.00004127,-0.00003691,0.00
 000406,0.00002123,0.00000689,0.00000318,-0.00000829,-0.00000052,0.0000
 0424,-0.00000846,0.00000569,0.00000132,-0.00000203,-0.00000526,0.00000
 339,0.00000318,0.00000079,0.00000185,0.00000953,-0.00000113,0.00036215
 ,0.00055347,-0.00083848,0.00002048,0.00008145,0.00014605,-0.00010365,0
 .00009499,0.00007084,-0.00001774,-0.00000888,0.00000495,0.00000380,0.0
 0000594,0.00000175,0.00000020,-0.00000097,-0.00000648,0.00000469,0.000
 01401,-0.00000793,0.00038924,-0.00207643,0.00054542,0.00150265,-0.0046
 5094,-0.00077087,-0.35922647,0.03640344,0.23801210,0.35701139,0.000425
 78,0.00066346,0.00024181,-0.00012218,0.00004540,-0.00023690,-0.0000258
 1,0.00001647,0.00012775,-0.00017392,-0.00012620,-0.00010018,-0.0001486
 1,-0.00035431,0.00074098,-0.00022491,0.00027217,0.00005215,-0.00015318
 ,0.00012243,0.00009122,0.00000913,-0.00007134,0.00006363,0.00009593,0.
 00002295,0.00002453,-0.00002678,0.00002923,-0.00000796,0.00002347,0.00
 008475,-0.00007314,-0.00002088,-0.00001135,0.00001431,0.00000720,-0.00
 001597,0.00001306,0.00001283,-0.00000548,0.00007038,0.00000708,0.00000
 753,-0.00001420,-0.00002191,0.00002454,-0.00003195,0.00000287,-0.00000
 256,0.00000328,-0.00002881,-0.00000478,-0.00000262,0.00000674,-0.00001
 151,0.00000968,0.00094870,-0.00212051,-0.00133496,-0.00009755,-0.00009
 310,0.00028562,0.00003478,-0.00000744,-0.00014306,-0.00000315,-0.00000
 321,-0.00002336,-0.00002446,0.00000351,-0.00000861,0.00000608,-0.00000
 184,0.00000435,0.00000149,-0.00002030,0.00002150,0.00017696,-0.0051524
 2,0.00074006,0.01460579,-0.00806768,-0.01289340,0.01521623,-0.02187252
 ,-0.00700409,-0.03050892,0.03665007,0.00002077,-0.00043367,0.00025835,
 0.00044276,0.00005269,-0.00034630,-0.00020280,0.00028503,0.00005866,-0
 .00019978,-0.00026554,-0.00001110,-0.00000487,0.00017752,-0.00034659,-
 0.00024008,-0.00020687,0.00039076,0.00001393,-0.00020420,0.00002689,-0
 .00011922,0.00000215,0.00007805,0.00006716,-0.00006711,0.00001500,0.00
 005781,-0.00003025,0.00002820,-0.00000417,0.00002955,-0.00008814,0.000
 00380,-0.00001275,-0.00001402,-0.00001663,-0.00002102,0.00002108,-0.00
 001286,0.00000616,0.00008594,0.00000826,-0.00000799,-0.00002934,-0.000
 01785,0.00000632,-0.00002350,0.00000776,-0.00000564,-0.00000804,-0.000
 01892,-0.00000157,-0.00000013,0.00000180,-0.00000298,0.00000980,-0.000
 57403,0.00011749,0.00005593,0.00001364,-0.00010303,0.00000937,-0.00000
 604,0.00009173,0.00004265,-0.00000322,-0.00000322,-0.00001632,-0.00001
 885,0.00000132,-0.00000237,0.00001017,-0.00000663,-0.00001024,0.000006
 85,0.00000035,0.00001912,0.00123626,-0.00017704,-0.00143530,-0.0020657
 7,0.00586404,0.00179443,0.23792124,-0.02445495,-0.15842348,-0.23630715
 ,0.01937013,0.15786064\\0.00000056,-0.00000433,-0.00000200,-0.00000039
 ,-0.00000463,-0.00000296,0.00000131,-0.00000567,-0.00000101,0.00000049
 ,-0.00000454,-0.00000190,0.00000031,-0.00000189,-0.00000050,-0.0000004
 7,-0.00000222,-0.00000195,0.00000128,-0.00000291,0.00000024,0.00000002
 ,0.00000017,0.00000030,-0.00000084,0.00000133,-0.00000052,0.00000086,0
 .00000068,0.00000161,-0.00000008,0.00000053,0.00000017,0.00000082,-0.0
 0000043,0.00000099,-0.00000084,0.00000004,-0.00000117,-0.00000036,0.00
 000272,0.00000072,-0.00000132,0.00000366,0.00000015,-0.00000088,0.0000
 0287,0.00000070,0.00000022,0.00000198,0.00000116,-0.00000103,0.0000044
 0,0.00000095,-0.00000150,0.00000239,-0.00000091,0.00000090,-0.00000149
 ,0.00000066,0.00000146,-0.00000206,0.00000077,0.00000115,-0.00000005,0
 .00000167,0.00000059,0.00000341,0.00000284,0.00000033,0.00000501,0.000
 00329,0.00000148,0.00000258,0.00000369,0.00000073,0.00000352,0.0000031
 0,0.00000039,-0.00000226,-0.00000072,-0.00000075,-0.00000097,-0.000001
 22,-0.00000197,-0.00000066,-0.00000392,-0.00000249,-0.00000117,-0.0000
 0424\\\@
 Job cpu time:  0 days  8 hours 52 minutes  3.5 seconds.
 File lengths (MBytes):  RWF=  71982 Int=      0 D2E=      0 Chk=     26 Scr=      1
 Normal termination of Gaussian 09 at Tue Apr  1 08:21:35 2014.
