 Entering Gaussian System, Link 0=g09
 Initial command:
 /usr/caen/gaussian-09revc/g09/l1.exe /scratch/avioli_flux/hetanjin/scratch/Gau-3391.inp -scrdir=/scratch/avioli_flux/hetanjin/scratch/
 Entering Link 1 = /usr/caen/gaussian-09revc/g09/l1.exe PID=      3392.
  
 Copyright (c) 1988,1990,1992,1993,1995,1998,2003,2009,2011,
            Gaussian, Inc.  All Rights Reserved.
  
 This is part of the Gaussian(R) 09 program.  It is based on
 the Gaussian(R) 03 system (copyright 2003, Gaussian, Inc.),
 the Gaussian(R) 98 system (copyright 1998, Gaussian, Inc.),
 the Gaussian(R) 94 system (copyright 1995, Gaussian, Inc.),
 the Gaussian 92(TM) system (copyright 1992, Gaussian, Inc.),
 the Gaussian 90(TM) system (copyright 1990, Gaussian, Inc.),
 the Gaussian 88(TM) system (copyright 1988, Gaussian, Inc.),
 the Gaussian 86(TM) system (copyright 1986, Carnegie Mellon
 University), and the Gaussian 82(TM) system (copyright 1983,
 Carnegie Mellon University). Gaussian is a federally registered
 trademark of Gaussian, Inc.
  
 This software contains proprietary and confidential information,
 including trade secrets, belonging to Gaussian, Inc.
  
 This software is provided under written license and may be
 used, copied, transmitted, or stored only in accord with that
 written license.
  
 The following legend is applicable only to US Government
 contracts under FAR:
  
                    RESTRICTED RIGHTS LEGEND
  
 Use, reproduction and disclosure by the US Government is
 subject to restrictions as set forth in subparagraphs (a)
 and (c) of the Commercial Computer Software - Restricted
 Rights clause in FAR 52.227-19.
  
 Gaussian, Inc.
 340 Quinnipiac St., Bldg. 40, Wallingford CT 06492
  
  
 ---------------------------------------------------------------
 Warning -- This program may not be used in any manner that
 competes with the business of Gaussian, Inc. or will provide
 assistance to any competitor of Gaussian, Inc.  The licensee
 of this program is prohibited from giving any competitor of
 Gaussian, Inc. access to this program.  By using this program,
 the user acknowledges that Gaussian, Inc. is engaged in the
 business of creating and licensing software in the field of
 computational chemistry and represents and warrants to the
 licensee that it is not a competitor of Gaussian, Inc. and that
 it will not use this program in any manner prohibited above.
 ---------------------------------------------------------------
  

 Cite this work as:
 Gaussian 09, Revision C.01,
 M. J. Frisch, G. W. Trucks, H. B. Schlegel, G. E. Scuseria, 
 M. A. Robb, J. R. Cheeseman, G. Scalmani, V. Barone, B. Mennucci, 
 G. A. Petersson, H. Nakatsuji, M. Caricato, X. Li, H. P. Hratchian, 
 A. F. Izmaylov, J. Bloino, G. Zheng, J. L. Sonnenberg, M. Hada, 
 M. Ehara, K. Toyota, R. Fukuda, J. Hasegawa, M. Ishida, T. Nakajima, 
 Y. Honda, O. Kitao, H. Nakai, T. Vreven, J. A. Montgomery, Jr., 
 J. E. Peralta, F. Ogliaro, M. Bearpark, J. J. Heyd, E. Brothers, 
 K. N. Kudin, V. N. Staroverov, T. Keith, R. Kobayashi, J. Normand, 
 K. Raghavachari, A. Rendell, J. C. Burant, S. S. Iyengar, J. Tomasi, 
 M. Cossi, N. Rega, J. M. Millam, M. Klene, J. E. Knox, J. B. Cross, 
 V. Bakken, C. Adamo, J. Jaramillo, R. Gomperts, R. E. Stratmann, 
 O. Yazyev, A. J. Austin, R. Cammi, C. Pomelli, J. W. Ochterski, 
 R. L. Martin, K. Morokuma, V. G. Zakrzewski, G. A. Voth, 
 P. Salvador, J. J. Dannenberg, S. Dapprich, A. D. Daniels, 
 O. Farkas, J. B. Foresman, J. V. Ortiz, J. Cioslowski, 
 and D. J. Fox, Gaussian, Inc., Wallingford CT, 2010.
 
 ******************************************
 Gaussian 09:  EM64L-G09RevC.01 23-Sep-2011
                26-Mar-2014 
 ******************************************
 %mem=30GB
 %nprocshared=8
 Will use up to    8 processors via shared memory.
 %chk=2-ts16.chk
 -------------------------------
 #p cbs-qb3 opt=(ts,calcfc) freq
 -------------------------------
 1/5=1,10=4,14=-1,18=20,26=3,38=1/1,3;
 2/9=110,12=2,17=6,18=5,40=1/2;
 3/5=4,6=6,7=700,11=2,16=1,25=1,30=1,71=2,74=-5/1,2,3;
 4//1;
 5/5=2,38=5/2;
 8/6=4,10=90,11=11/1;
 11/6=1,8=1,9=11,15=111,16=1/1,2,10;
 10/6=1,7=6,13=1/2;
 6/7=2,8=2,9=2,10=2,28=1/1;
 7/10=1,18=20,25=1/1,2,3,16;
 1/5=1,10=4,14=-1,18=20/3(2);
 2/9=110/2;
 99//99;
 2/9=110/2;
 3/5=4,6=6,7=700,11=2,16=1,25=1,30=1,71=1,74=-5/1,2,3;
 4/5=5,16=3/1;
 5/5=2,38=5/2;
 7//1,2,3,16;
 1/5=1,14=-1,18=20/3(-5);
 2/9=110/2;
 6/7=2,8=2,9=2,10=2,19=2,28=1/1;
 99/9=1/99;
 Leave Link    1 at Wed Mar 26 10:11:17 2014, MaxMem= 4026531840 cpu:       0.5
 (Enter /usr/caen/gaussian-09revc/g09/l101.exe)
 -----------------------------------
 2-ts16 using cbs-qb3 to cal. energy
 -----------------------------------
 Charge =  0 Multiplicity = 2
 Symbolic Z-Matrix:
 C                     1.25794   1.08106   0.73469 
 C                     2.1423    0.34937  -0.21883 
 C                     1.99504  -1.17698  -0.1189 
 C                     0.60976  -1.74097  -0.47229 
 C                    -1.52291  -0.29626   0.15953 
 C                    -0.52288  -1.41963   0.52944 
 H                     1.10692   0.69272   1.736 
 H                     1.8652    0.65642  -1.23648 
 H                     2.26663  -1.49404   0.89754 
 H                     0.33236  -1.40638  -1.47641 
 H                     1.14559   2.15282   0.62988 
 H                     2.73412  -1.63632  -0.7853 
 H                     0.70823  -2.82922  -0.53949 
 H                    -0.09858  -1.20792   1.5147 
 H                    -1.14288  -2.31275   0.66406 
 C                    -2.44731  -0.01324   1.34871 
 H                    -3.03267  -0.90116   1.60564 
 H                    -3.13438   0.79772   1.10452 
 H                    -1.86397   0.28205   2.22442 
 C                    -2.33623  -0.69934  -1.07939 
 H                    -2.85256  -1.64504  -0.8906 
 H                    -3.07712   0.06339  -1.31208 
 H                    -1.69342  -0.82967  -1.95261 
 C                     3.61908   0.76822  -0.00562 
 H                     3.74123   1.85024  -0.09956 
 H                     3.97044   0.47408   0.98805 
 H                     4.26345   0.28794  -0.74924 
 O                    -0.74361   0.90193  -0.12652 
 O                    -1.84259   2.04467  -0.64565 
 H                    -1.31771   2.31901  -1.40964 
 
 NAtoms=     30 NQM=        0 NQMF=       0 NMMI=     30 NMMIF=      0
                NMic=       0 NMicF=      0.
                    Isotopes and Nuclear Properties:
 (Nuclear quadrupole moments (NQMom) in fm**2, nuclear magnetic moments (NMagM)
  in nuclear magnetons)

  Atom         1           2           3           4           5           6           7           8           9          10
 IAtWgt=          12          12          12          12          12          12           1           1           1           1
 AtmWgt=  12.0000000  12.0000000  12.0000000  12.0000000  12.0000000  12.0000000   1.0078250   1.0078250   1.0078250   1.0078250
 NucSpn=           0           0           0           0           0           0           1           1           1           1
 AtZEff=   0.0000000   0.0000000   0.0000000   0.0000000   0.0000000   0.0000000   0.0000000   0.0000000   0.0000000   0.0000000
 NQMom=    0.0000000   0.0000000   0.0000000   0.0000000   0.0000000   0.0000000   0.0000000   0.0000000   0.0000000   0.0000000
 NMagM=    0.0000000   0.0000000   0.0000000   0.0000000   0.0000000   0.0000000   2.7928460   2.7928460   2.7928460   2.7928460

  Atom        11          12          13          14          15          16          17          18          19          20
 IAtWgt=           1           1           1           1           1          12           1           1           1          12
 AtmWgt=   1.0078250   1.0078250   1.0078250   1.0078250   1.0078250  12.0000000   1.0078250   1.0078250   1.0078250  12.0000000
 NucSpn=           1           1           1           1           1           0           1           1           1           0
 AtZEff=   0.0000000   0.0000000   0.0000000   0.0000000   0.0000000   0.0000000   0.0000000   0.0000000   0.0000000   0.0000000
 NQMom=    0.0000000   0.0000000   0.0000000   0.0000000   0.0000000   0.0000000   0.0000000   0.0000000   0.0000000   0.0000000
 NMagM=    2.7928460   2.7928460   2.7928460   2.7928460   2.7928460   0.0000000   2.7928460   2.7928460   2.7928460   0.0000000

  Atom        21          22          23          24          25          26          27          28          29          30
 IAtWgt=           1           1           1          12           1           1           1          16          16           1
 AtmWgt=   1.0078250   1.0078250   1.0078250  12.0000000   1.0078250   1.0078250   1.0078250  15.9949146  15.9949146   1.0078250
 NucSpn=           1           1           1           0           1           1           1           0           0           1
 AtZEff=   0.0000000   0.0000000   0.0000000   0.0000000   0.0000000   0.0000000   0.0000000   0.0000000   0.0000000   0.0000000
 NQMom=    0.0000000   0.0000000   0.0000000   0.0000000   0.0000000   0.0000000   0.0000000   0.0000000   0.0000000   0.0000000
 NMagM=    2.7928460   2.7928460   2.7928460   0.0000000   2.7928460   2.7928460   2.7928460   0.0000000   0.0000000   2.7928460
 Leave Link  101 at Wed Mar 26 10:11:18 2014, MaxMem= 4026531840 cpu:       3.5
 (Enter /usr/caen/gaussian-09revc/g09/l103.exe)

 GradGradGradGradGradGradGradGradGradGradGradGradGradGradGradGradGradGrad
 Berny optimization.
 Initialization pass.
                           ----------------------------
                           !    Initial Parameters    !
                           ! (Angstroms and Degrees)  !
 --------------------------                            --------------------------
 ! Name  Definition              Value          Derivative Info.                !
 --------------------------------------------------------------------------------
 ! R1    R(1,2)                  1.4922         calculate D2E/DX2 analytically  !
 ! R2    R(1,7)                  1.0845         calculate D2E/DX2 analytically  !
 ! R3    R(1,11)                 1.0827         calculate D2E/DX2 analytically  !
 ! R4    R(2,3)                  1.5367         calculate D2E/DX2 analytically  !
 ! R5    R(2,8)                  1.0985         calculate D2E/DX2 analytically  !
 ! R6    R(2,24)                 1.5498         calculate D2E/DX2 analytically  !
 ! R7    R(3,4)                  1.5369         calculate D2E/DX2 analytically  !
 ! R8    R(3,9)                  1.0988         calculate D2E/DX2 analytically  !
 ! R9    R(3,12)                 1.096          calculate D2E/DX2 analytically  !
 ! R10   R(4,6)                  1.5458         calculate D2E/DX2 analytically  !
 ! R11   R(4,10)                 1.0942         calculate D2E/DX2 analytically  !
 ! R12   R(4,13)                 1.0948         calculate D2E/DX2 analytically  !
 ! R13   R(5,6)                  1.5488         calculate D2E/DX2 analytically  !
 ! R14   R(5,16)                 1.5326         calculate D2E/DX2 analytically  !
 ! R15   R(5,20)                 1.5359         calculate D2E/DX2 analytically  !
 ! R16   R(5,28)                 1.4577         calculate D2E/DX2 analytically  !
 ! R17   R(6,14)                 1.0934         calculate D2E/DX2 analytically  !
 ! R18   R(6,15)                 1.0955         calculate D2E/DX2 analytically  !
 ! R19   R(16,17)                1.0941         calculate D2E/DX2 analytically  !
 ! R20   R(16,18)                1.0906         calculate D2E/DX2 analytically  !
 ! R21   R(16,19)                1.0929         calculate D2E/DX2 analytically  !
 ! R22   R(20,21)                1.0939         calculate D2E/DX2 analytically  !
 ! R23   R(20,22)                1.0885         calculate D2E/DX2 analytically  !
 ! R24   R(20,23)                1.0921         calculate D2E/DX2 analytically  !
 ! R25   R(24,25)                1.0929         calculate D2E/DX2 analytically  !
 ! R26   R(24,26)                1.0942         calculate D2E/DX2 analytically  !
 ! R27   R(24,27)                1.0949         calculate D2E/DX2 analytically  !
 ! R28   R(28,29)                1.6683         calculate D2E/DX2 analytically  !
 ! R29   R(29,30)                0.9667         calculate D2E/DX2 analytically  !
 ! A1    A(2,1,7)              119.7964         calculate D2E/DX2 analytically  !
 ! A2    A(2,1,11)             119.0135         calculate D2E/DX2 analytically  !
 ! A3    A(7,1,11)             115.4272         calculate D2E/DX2 analytically  !
 ! A4    A(1,2,3)              112.8734         calculate D2E/DX2 analytically  !
 ! A5    A(1,2,8)              107.7837         calculate D2E/DX2 analytically  !
 ! A6    A(1,2,24)             110.1398         calculate D2E/DX2 analytically  !
 ! A7    A(3,2,8)              108.2831         calculate D2E/DX2 analytically  !
 ! A8    A(3,2,24)             110.5369         calculate D2E/DX2 analytically  !
 ! A9    A(8,2,24)             106.9944         calculate D2E/DX2 analytically  !
 ! A10   A(2,3,4)              115.8439         calculate D2E/DX2 analytically  !
 ! A11   A(2,3,9)              108.8486         calculate D2E/DX2 analytically  !
 ! A12   A(2,3,12)             108.1867         calculate D2E/DX2 analytically  !
 ! A13   A(4,3,9)              109.2441         calculate D2E/DX2 analytically  !
 ! A14   A(4,3,12)             108.3128         calculate D2E/DX2 analytically  !
 ! A15   A(9,3,12)             105.9519         calculate D2E/DX2 analytically  !
 ! A16   A(3,4,6)              115.7945         calculate D2E/DX2 analytically  !
 ! A17   A(3,4,10)             109.1062         calculate D2E/DX2 analytically  !
 ! A18   A(3,4,13)             107.3272         calculate D2E/DX2 analytically  !
 ! A19   A(6,4,10)             110.2046         calculate D2E/DX2 analytically  !
 ! A20   A(6,4,13)             108.1996         calculate D2E/DX2 analytically  !
 ! A21   A(10,4,13)            105.6908         calculate D2E/DX2 analytically  !
 ! A22   A(6,5,16)             109.7596         calculate D2E/DX2 analytically  !
 ! A23   A(6,5,20)             110.1346         calculate D2E/DX2 analytically  !
 ! A24   A(6,5,28)             107.3294         calculate D2E/DX2 analytically  !
 ! A25   A(16,5,20)            110.7918         calculate D2E/DX2 analytically  !
 ! A26   A(16,5,28)            108.8404         calculate D2E/DX2 analytically  !
 ! A27   A(20,5,28)            109.9101         calculate D2E/DX2 analytically  !
 ! A28   A(4,6,5)              117.9756         calculate D2E/DX2 analytically  !
 ! A29   A(4,6,14)             109.8673         calculate D2E/DX2 analytically  !
 ! A30   A(4,6,15)             108.9546         calculate D2E/DX2 analytically  !
 ! A31   A(5,6,14)             108.9853         calculate D2E/DX2 analytically  !
 ! A32   A(5,6,15)             104.7876         calculate D2E/DX2 analytically  !
 ! A33   A(14,6,15)            105.4695         calculate D2E/DX2 analytically  !
 ! A34   A(5,16,17)            110.796          calculate D2E/DX2 analytically  !
 ! A35   A(5,16,18)            110.0954         calculate D2E/DX2 analytically  !
 ! A36   A(5,16,19)            110.469          calculate D2E/DX2 analytically  !
 ! A37   A(17,16,18)           108.6025         calculate D2E/DX2 analytically  !
 ! A38   A(17,16,19)           108.4627         calculate D2E/DX2 analytically  !
 ! A39   A(18,16,19)           108.3475         calculate D2E/DX2 analytically  !
 ! A40   A(5,20,21)            109.7325         calculate D2E/DX2 analytically  !
 ! A41   A(5,20,22)            110.4253         calculate D2E/DX2 analytically  !
 ! A42   A(5,20,23)            111.3834         calculate D2E/DX2 analytically  !
 ! A43   A(21,20,22)           108.7485         calculate D2E/DX2 analytically  !
 ! A44   A(21,20,23)           108.2183         calculate D2E/DX2 analytically  !
 ! A45   A(22,20,23)           108.2602         calculate D2E/DX2 analytically  !
 ! A46   A(2,24,25)            111.2374         calculate D2E/DX2 analytically  !
 ! A47   A(2,24,26)            110.9933         calculate D2E/DX2 analytically  !
 ! A48   A(2,24,27)            110.4144         calculate D2E/DX2 analytically  !
 ! A49   A(25,24,26)           107.9559         calculate D2E/DX2 analytically  !
 ! A50   A(25,24,27)           108.0665         calculate D2E/DX2 analytically  !
 ! A51   A(26,24,27)           108.0508         calculate D2E/DX2 analytically  !
 ! A52   A(5,28,29)            105.7789         calculate D2E/DX2 analytically  !
 ! A53   A(28,29,30)            94.7403         calculate D2E/DX2 analytically  !
 ! D1    D(7,1,2,3)             38.9075         calculate D2E/DX2 analytically  !
 ! D2    D(7,1,2,8)            158.4381         calculate D2E/DX2 analytically  !
 ! D3    D(7,1,2,24)           -85.1664         calculate D2E/DX2 analytically  !
 ! D4    D(11,1,2,3)          -169.0418         calculate D2E/DX2 analytically  !
 ! D5    D(11,1,2,8)           -49.5113         calculate D2E/DX2 analytically  !
 ! D6    D(11,1,2,24)           66.8843         calculate D2E/DX2 analytically  !
 ! D7    D(1,2,3,4)             62.9759         calculate D2E/DX2 analytically  !
 ! D8    D(1,2,3,9)            -60.5505         calculate D2E/DX2 analytically  !
 ! D9    D(1,2,3,12)          -175.2477         calculate D2E/DX2 analytically  !
 ! D10   D(8,2,3,4)            -56.266          calculate D2E/DX2 analytically  !
 ! D11   D(8,2,3,9)           -179.7924         calculate D2E/DX2 analytically  !
 ! D12   D(8,2,3,12)            65.5104         calculate D2E/DX2 analytically  !
 ! D13   D(24,2,3,4)          -173.1688         calculate D2E/DX2 analytically  !
 ! D14   D(24,2,3,9)            63.3048         calculate D2E/DX2 analytically  !
 ! D15   D(24,2,3,12)          -51.3924         calculate D2E/DX2 analytically  !
 ! D16   D(1,2,24,25)          -56.0265         calculate D2E/DX2 analytically  !
 ! D17   D(1,2,24,26)           64.198          calculate D2E/DX2 analytically  !
 ! D18   D(1,2,24,27)         -176.0036         calculate D2E/DX2 analytically  !
 ! D19   D(3,2,24,25)          178.5585         calculate D2E/DX2 analytically  !
 ! D20   D(3,2,24,26)          -61.2169         calculate D2E/DX2 analytically  !
 ! D21   D(3,2,24,27)           58.5815         calculate D2E/DX2 analytically  !
 ! D22   D(8,2,24,25)           60.8618         calculate D2E/DX2 analytically  !
 ! D23   D(8,2,24,26)         -178.9137         calculate D2E/DX2 analytically  !
 ! D24   D(8,2,24,27)          -59.1153         calculate D2E/DX2 analytically  !
 ! D25   D(2,3,4,6)            -69.4969         calculate D2E/DX2 analytically  !
 ! D26   D(2,3,4,10)            55.489          calculate D2E/DX2 analytically  !
 ! D27   D(2,3,4,13)           169.5614         calculate D2E/DX2 analytically  !
 ! D28   D(9,3,4,6)             53.8226         calculate D2E/DX2 analytically  !
 ! D29   D(9,3,4,10)           178.8085         calculate D2E/DX2 analytically  !
 ! D30   D(9,3,4,13)           -67.1191         calculate D2E/DX2 analytically  !
 ! D31   D(12,3,4,6)           168.7939         calculate D2E/DX2 analytically  !
 ! D32   D(12,3,4,10)          -66.2203         calculate D2E/DX2 analytically  !
 ! D33   D(12,3,4,13)           47.8522         calculate D2E/DX2 analytically  !
 ! D34   D(3,4,6,5)            102.0955         calculate D2E/DX2 analytically  !
 ! D35   D(3,4,6,14)           -23.6099         calculate D2E/DX2 analytically  !
 ! D36   D(3,4,6,15)          -138.6953         calculate D2E/DX2 analytically  !
 ! D37   D(10,4,6,5)           -22.3238         calculate D2E/DX2 analytically  !
 ! D38   D(10,4,6,14)         -148.0293         calculate D2E/DX2 analytically  !
 ! D39   D(10,4,6,15)           96.8854         calculate D2E/DX2 analytically  !
 ! D40   D(13,4,6,5)          -137.4334         calculate D2E/DX2 analytically  !
 ! D41   D(13,4,6,14)           96.8612         calculate D2E/DX2 analytically  !
 ! D42   D(13,4,6,15)          -18.2241         calculate D2E/DX2 analytically  !
 ! D43   D(16,5,6,4)          -172.7872         calculate D2E/DX2 analytically  !
 ! D44   D(16,5,6,14)          -46.6524         calculate D2E/DX2 analytically  !
 ! D45   D(16,5,6,15)           65.8394         calculate D2E/DX2 analytically  !
 ! D46   D(20,5,6,4)            64.9747         calculate D2E/DX2 analytically  !
 ! D47   D(20,5,6,14)         -168.8904         calculate D2E/DX2 analytically  !
 ! D48   D(20,5,6,15)          -56.3986         calculate D2E/DX2 analytically  !
 ! D49   D(28,5,6,4)           -54.6528         calculate D2E/DX2 analytically  !
 ! D50   D(28,5,6,14)           71.4821         calculate D2E/DX2 analytically  !
 ! D51   D(28,5,6,15)         -176.0261         calculate D2E/DX2 analytically  !
 ! D52   D(6,5,16,17)          -61.538          calculate D2E/DX2 analytically  !
 ! D53   D(6,5,16,18)          178.3098         calculate D2E/DX2 analytically  !
 ! D54   D(6,5,16,19)           58.6838         calculate D2E/DX2 analytically  !
 ! D55   D(20,5,16,17)          60.3083         calculate D2E/DX2 analytically  !
 ! D56   D(20,5,16,18)         -59.844          calculate D2E/DX2 analytically  !
 ! D57   D(20,5,16,19)        -179.47           calculate D2E/DX2 analytically  !
 ! D58   D(28,5,16,17)        -178.7311         calculate D2E/DX2 analytically  !
 ! D59   D(28,5,16,18)          61.1167         calculate D2E/DX2 analytically  !
 ! D60   D(28,5,16,19)         -58.5093         calculate D2E/DX2 analytically  !
 ! D61   D(6,5,20,21)           57.1238         calculate D2E/DX2 analytically  !
 ! D62   D(6,5,20,22)          176.9884         calculate D2E/DX2 analytically  !
 ! D63   D(6,5,20,23)          -62.6876         calculate D2E/DX2 analytically  !
 ! D64   D(16,5,20,21)         -64.5023         calculate D2E/DX2 analytically  !
 ! D65   D(16,5,20,22)          55.3623         calculate D2E/DX2 analytically  !
 ! D66   D(16,5,20,23)         175.6863         calculate D2E/DX2 analytically  !
 ! D67   D(28,5,20,21)         175.1721         calculate D2E/DX2 analytically  !
 ! D68   D(28,5,20,22)         -64.9634         calculate D2E/DX2 analytically  !
 ! D69   D(28,5,20,23)          55.3607         calculate D2E/DX2 analytically  !
 ! D70   D(6,5,28,29)          175.2542         calculate D2E/DX2 analytically  !
 ! D71   D(16,5,28,29)         -66.0168         calculate D2E/DX2 analytically  !
 ! D72   D(20,5,28,29)          55.4832         calculate D2E/DX2 analytically  !
 ! D73   D(5,28,29,30)        -133.1749         calculate D2E/DX2 analytically  !
 --------------------------------------------------------------------------------
 Trust Radius=3.00D-01 FncErr=1.00D-07 GrdErr=1.00D-06
 Number of steps in this run=    165 maximum allowed number of steps=    180.
 Search for a saddle point of order  1.
 GradGradGradGradGradGradGradGradGradGradGradGradGradGradGradGradGradGrad

 Leave Link  103 at Wed Mar 26 10:11:18 2014, MaxMem= 4026531840 cpu:       0.2
 (Enter /usr/caen/gaussian-09revc/g09/l202.exe)
                          Input orientation:                          
 ---------------------------------------------------------------------
 Center     Atomic      Atomic             Coordinates (Angstroms)
 Number     Number       Type             X           Y           Z
 ---------------------------------------------------------------------
      1          6           0        1.257938    1.081056    0.734689
      2          6           0        2.142296    0.349370   -0.218834
      3          6           0        1.995044   -1.176982   -0.118902
      4          6           0        0.609755   -1.740971   -0.472288
      5          6           0       -1.522912   -0.296263    0.159526
      6          6           0       -0.522877   -1.419626    0.529437
      7          1           0        1.106918    0.692724    1.736002
      8          1           0        1.865204    0.656417   -1.236478
      9          1           0        2.266631   -1.494037    0.897535
     10          1           0        0.332359   -1.406383   -1.476414
     11          1           0        1.145590    2.152820    0.629876
     12          1           0        2.734117   -1.636321   -0.785302
     13          1           0        0.708226   -2.829218   -0.539492
     14          1           0       -0.098581   -1.207920    1.514697
     15          1           0       -1.142875   -2.312750    0.664058
     16          6           0       -2.447314   -0.013238    1.348711
     17          1           0       -3.032671   -0.901163    1.605638
     18          1           0       -3.134376    0.797716    1.104522
     19          1           0       -1.863968    0.282052    2.224424
     20          6           0       -2.336233   -0.699337   -1.079389
     21          1           0       -2.852555   -1.645035   -0.890603
     22          1           0       -3.077122    0.063393   -1.312077
     23          1           0       -1.693420   -0.829674   -1.952609
     24          6           0        3.619084    0.768217   -0.005624
     25          1           0        3.741227    1.850236   -0.099558
     26          1           0        3.970443    0.474077    0.988052
     27          1           0        4.263447    0.287942   -0.749241
     28          8           0       -0.743605    0.901931   -0.126515
     29          8           0       -1.842591    2.044666   -0.645653
     30          1           0       -1.317705    2.319007   -1.409637
 ---------------------------------------------------------------------
                    Distance matrix (angstroms):
                    1          2          3          4          5
     1  C    0.000000
     2  C    1.492200   0.000000
     3  C    2.524020   1.536691   0.000000
     4  C    3.137000   2.604313   1.536877   0.000000
     5  C    3.156097   3.740822   3.637197   2.652289   0.000000
     6  C    3.076823   3.285179   2.611349   1.545824   1.548822
     7  H    1.084544   2.238590   2.779431   3.323641   3.221704
     8  H    2.105847   1.098479   2.151090   2.812047   3.786259
     9  H    2.770394   2.158677   1.098830   2.163938   4.042271
    10  H    3.454421   2.817809   2.158700   1.094151   2.711217
    11  H    1.082722   2.228489   3.517076   4.082094   3.652416
    12  H    3.445811   2.148047   1.096043   2.149847   4.561880
    13  H    4.149212   3.501828   2.136043   1.094758   3.447095
    14  H    2.772718   3.232926   2.655724   2.175774   2.167101
    15  H    4.157741   4.319575   3.427759   2.165624   2.113102
    16  C    3.911955   4.863456   4.821072   3.955600   1.532574
    17  H    4.805941   5.627861   5.322409   4.276718   2.176354
    18  H    4.416954   5.458530   5.630910   4.790593   2.164861
    19  H    3.550213   4.692994   4.744674   4.181409   2.171306
    20  C    4.402129   4.679483   4.462134   3.183146   1.535861
    21  H    5.193197   5.420098   4.930904   3.488808   2.165619
    22  H    4.900779   5.340345   5.356217   4.189754   2.170377
    23  H    4.425265   4.371366   4.133748   2.885555   2.185112
    24  C    2.494182   1.549772   2.536560   3.945866   5.253619
    25  H    2.730262   2.196225   3.494793   4.779311   5.690847
    26  H    2.791111   2.194139   2.802418   4.281735   5.608639
    27  H    3.444439   2.187324   2.772901   4.188395   5.886349
    28  O    2.186306   2.939774   3.438333   2.989327   1.457672
    29  O    3.528054   4.351497   5.038246   4.513879   2.496088
    30  H    3.572757   4.155609   4.986205   4.590985   3.056799
                    6          7          8          9         10
     6  C    0.000000
     7  H    2.928148   0.000000
     8  H    3.623719   3.067891   0.000000
     9  H    2.814674   2.613405   3.056077   0.000000
    10  H    2.180606   3.914819   2.581148   3.063450   0.000000
    11  H    3.944140   1.832182   2.498068   3.824649   4.214941
    12  H    3.519020   3.798579   2.493034   1.752349   2.509771
    13  H    2.155266   4.211995   3.738187   2.505271   1.744580
    14  H    1.093428   2.261559   3.860203   2.461093   3.028505
    15  H    1.095532   3.904293   4.634278   3.514190   2.753078
    16  C    2.520435   3.644303   5.072421   4.961613   4.201043
    17  H    2.779582   4.437755   5.873062   5.379174   4.591048
    18  H    3.473796   4.289332   5.522323   5.870762   4.851550
    19  H    2.750857   3.038646   5.101443   4.687961   4.622864
    20  C    2.528912   4.660424   4.417558   5.072094   2.789073
    21  H    2.737649   5.295432   5.260567   5.424602   3.247123
    22  H    3.480616   5.214694   4.978351   5.988628   3.716424
    23  H    2.806914   4.874981   3.922386   4.924094   2.159429
    24  C    4.714742   3.057767   2.145599   2.786148   4.206503
    25  H    5.410195   3.413019   2.497449   3.788508   4.911383
    26  H    4.897588   2.967661   3.068194   2.604734   4.779684
    27  H    5.240201   4.037816   2.474822   3.142387   4.342001
    28  O    2.422524   2.633851   2.845730   3.981314   2.882402
    29  O    3.888933   4.024877   4.003006   5.638223   4.162969
    30  H    4.285923   4.291694   3.595149   5.719249   4.075009
                   11         12         13         14         15
    11  H    0.000000
    12  H    4.345542   0.000000
    13  H    5.136089   2.363823   0.000000
    14  H    3.691266   3.673922   2.738474   0.000000
    15  H    5.017923   4.193956   2.267564   1.742064   0.000000
    16  C    4.256465   5.834007   4.631683   2.640334   2.730946
    17  H    5.266573   6.285928   4.723694   2.951483   2.539779
    18  H    4.514389   6.628362   5.533807   3.661539   3.719554
    19  H    3.885846   5.820738   4.892383   2.416675   3.112509
    20  C    4.814507   5.164579   3.754546   3.463384   2.658348
    21  H    5.720203   5.587671   3.768916   3.682514   2.405373
    22  H    5.095899   6.077583   4.826277   4.298674   3.645885
    23  H    4.860502   4.649341   3.429720   3.835204   3.057705
    24  C    2.905023   2.678221   4.658288   4.476330   5.711137
    25  H    2.713109   3.693318   5.593740   5.167423   6.462818
    26  H    3.305490   3.021103   4.887454   4.434346   5.832444
    27  H    3.885970   2.458239   4.732893   5.137150   6.163549
    28  O    2.388704   4.355603   4.024902   2.749746   3.334456
    29  O    3.250830   5.874983   5.502062   4.276447   4.603479
    30  H    3.202351   5.696637   5.600515   4.741013   5.077790
                   16         17         18         19         20
    16  C    0.000000
    17  H    1.094105   0.000000
    18  H    1.090564   1.774162   0.000000
    19  H    1.092869   1.774475   1.770318   0.000000
    20  C    2.525617   2.781210   2.765442   3.478698   0.000000
    21  H    2.800269   2.610940   3.166541   3.793990   1.093880
    22  H    2.735384   3.073338   2.526353   3.745183   1.088493
    23  H    3.483337   3.802608   3.751107   4.325809   1.092112
    24  C    6.264669   7.044774   6.844159   5.939135   6.226756
    25  H    6.623297   7.507568   7.059145   6.267241   6.663026
    26  H    6.446329   7.163540   7.113140   5.967063   6.739835
    27  H    7.037501   7.758400   7.643565   6.810869   6.681279
    28  O    2.432375   3.389886   2.691115   2.677009   2.451223
    29  O    2.928847   3.893907   2.507330   3.368176   2.821589
    30  H    3.784688   4.733127   3.454796   4.201665   3.202634
                   21         22         23         24         25
    21  H    0.000000
    22  H    1.773921   0.000000
    23  H    1.770950   1.767054   0.000000
    24  C    6.963410   6.858773   5.879346   0.000000
    25  H    7.504707   7.152125   6.336490   1.092935   0.000000
    26  H    7.387373   7.424785   6.513570   1.094241   1.768968
    27  H    7.375220   7.365539   6.179112   1.094913   1.770752
    28  O    3.393897   2.748455   2.689837   4.366411   4.584073
    29  O    3.833265   2.427680   3.161047   5.645250   5.613826
    30  H    4.282381   2.862317   3.217168   5.361724   5.246794
                   26         27         28         29         30
    26  H    0.000000
    27  H    1.771633   0.000000
    28  O    4.862876   5.082848   0.000000
    29  O    6.239159   6.354566   1.668268   0.000000
    30  H    6.092388   5.975835   1.996020   0.966664   0.000000
 Stoichiometry    C9H19O2(2)
 Framework group  C1[X(C9H19O2)]
 Deg. of freedom    84
 Full point group                 C1      NOp   1
 Largest Abelian subgroup         C1      NOp   1
 Largest concise Abelian subgroup C1      NOp   1
                         Standard orientation:                         
 ---------------------------------------------------------------------
 Center     Atomic      Atomic             Coordinates (Angstroms)
 Number     Number       Type             X           Y           Z
 ---------------------------------------------------------------------
      1          6           0        1.257938    1.081056    0.734689
      2          6           0        2.142296    0.349370   -0.218834
      3          6           0        1.995044   -1.176982   -0.118902
      4          6           0        0.609755   -1.740971   -0.472288
      5          6           0       -1.522912   -0.296263    0.159526
      6          6           0       -0.522877   -1.419626    0.529437
      7          1           0        1.106918    0.692724    1.736002
      8          1           0        1.865204    0.656417   -1.236478
      9          1           0        2.266631   -1.494037    0.897535
     10          1           0        0.332359   -1.406383   -1.476414
     11          1           0        1.145590    2.152820    0.629876
     12          1           0        2.734117   -1.636321   -0.785302
     13          1           0        0.708226   -2.829218   -0.539492
     14          1           0       -0.098581   -1.207920    1.514697
     15          1           0       -1.142875   -2.312750    0.664058
     16          6           0       -2.447314   -0.013238    1.348711
     17          1           0       -3.032671   -0.901163    1.605638
     18          1           0       -3.134376    0.797716    1.104522
     19          1           0       -1.863968    0.282052    2.224424
     20          6           0       -2.336233   -0.699337   -1.079389
     21          1           0       -2.852555   -1.645035   -0.890603
     22          1           0       -3.077122    0.063393   -1.312077
     23          1           0       -1.693420   -0.829674   -1.952609
     24          6           0        3.619084    0.768217   -0.005624
     25          1           0        3.741227    1.850236   -0.099558
     26          1           0        3.970443    0.474077    0.988052
     27          1           0        4.263447    0.287942   -0.749241
     28          8           0       -0.743605    0.901931   -0.126515
     29          8           0       -1.842591    2.044666   -0.645653
     30          1           0       -1.317705    2.319007   -1.409637
 ---------------------------------------------------------------------
 Rotational constants (GHZ):      1.6068747      0.7058542      0.5896160
 Leave Link  202 at Wed Mar 26 10:11:19 2014, MaxMem= 4026531840 cpu:       0.3
 (Enter /usr/caen/gaussian-09revc/g09/l301.exe)
 Standard basis: 6-311G(2d,d,p) (5D, 7F)
 Ernie: Thresh=  0.10000D-02 Tol=  0.10000D-05 Strict=F.
 There are   312 symmetry adapted basis functions of A   symmetry.
 Integral buffers will be    131072 words long.
 Raffenetti 2 integral format.
 Two-electron integral symmetry is turned on.
   312 basis functions,   504 primitive gaussians,   323 cartesian basis functions
    45 alpha electrons       44 beta electrons
       nuclear repulsion energy       697.3364964071 Hartrees.
 IExCor=  402 DFT=T Ex+Corr=B3LYP ExCW=0 ScaHFX=  0.200000
 ScaDFX=  0.800000  0.720000  1.000000  0.810000 ScalE2=  1.000000  1.000000
 IRadAn=      0 IRanWt=     -1 IRanGd=            0 ICorTp=0
 NAtoms=   30 NActive=   30 NUniq=   30 SFac= 1.00D+00 NAtFMM=   60 NAOKFM=F Big=F
 Leave Link  301 at Wed Mar 26 10:11:19 2014, MaxMem= 4026531840 cpu:       0.8
 (Enter /usr/caen/gaussian-09revc/g09/l302.exe)
 NPDir=0 NMtPBC=     1 NCelOv=     1 NCel=       1 NClECP=     1 NCelD=      1
         NCelK=      1 NCelE2=     1 NClLst=     1 CellRange=     0.0.
 One-electron integrals computed using PRISM.
 NBasis=   312 RedAO= T  NBF=   312
 NBsUse=   312 1.00D-06 NBFU=   312
 Precomputing XC quadrature grid using
 IXCGrd= 2 IRadAn=           0 IRanWt=          -1 IRanGd=           0 AccXCQ= 0.00D+00.
 NRdTot=    1906 NPtTot=      242238 NUsed=      255983 NTot=      256015
 NSgBfM=   323   323   323   323   323 NAtAll=    30    30.
 Leave Link  302 at Wed Mar 26 10:11:20 2014, MaxMem= 4026531840 cpu:       7.5
 (Enter /usr/caen/gaussian-09revc/g09/l303.exe)
 DipDrv:  MaxL=1.
 Leave Link  303 at Wed Mar 26 10:11:20 2014, MaxMem= 4026531840 cpu:       0.8
 (Enter /usr/caen/gaussian-09revc/g09/l401.exe)
 Harris functional with IExCor=  402 diagonalized for initial guess.
 ExpMin= 1.03D-01 ExpMax= 8.59D+03 ExpMxC= 1.30D+03 IAcc=1 IRadAn=         1 AccDes= 0.00D+00
 HarFok:  IExCor=  402 AccDes= 0.00D+00 IRadAn=         1 IDoV= 1
 ScaDFX=  1.000000  1.000000  1.000000  1.000000
 FoFCou: FMM=F IPFlag=           0 FMFlag=      100000 FMFlg1=           0
         NFxFlg=           0 DoJE=T BraDBF=F KetDBF=T FulRan=T
         Omega=  0.000000  0.000000  1.000000  0.000000  0.000000 ICntrl=     500 IOpCl=  0
         NMat0=    1 NMatS0=    1 NMatT0=    0 NMatD0=    1 NMtDS0=    0 NMtDT0=    0
         I1Cent=           4 NGrid=           0.
 Petite list used in FoFCou.
 Harris En= -504.891136233467    
 Initial guess orbital symmetries:
 Alpha Orbitals:
       Occupied  (A) (A) (A) (A) (A) (A) (A) (A) (A) (A) (A) (A)
                 (A) (A) (A) (A) (A) (A) (A) (A) (A) (A) (A) (A)
                 (A) (A) (A) (A) (A) (A) (A) (A) (A) (A) (A) (A)
                 (A) (A) (A) (A) (A) (A) (A) (A) (A)
       Virtual   (A) (A) (A) (A) (A) (A) (A) (A) (A) (A) (A) (A)
                 (A) (A) (A) (A) (A) (A) (A) (A) (A) (A) (A) (A)
                 (A) (A) (A) (A) (A) (A) (A) (A) (A) (A) (A) (A)
                 (A) (A) (A) (A) (A) (A) (A) (A) (A) (A) (A) (A)
                 (A) (A) (A) (A) (A) (A) (A) (A) (A) (A) (A) (A)
                 (A) (A) (A) (A) (A) (A) (A) (A) (A) (A) (A) (A)
                 (A) (A) (A) (A) (A) (A) (A) (A) (A) (A) (A) (A)
                 (A) (A) (A) (A) (A) (A) (A) (A) (A) (A) (A) (A)
                 (A) (A) (A) (A) (A) (A) (A) (A) (A) (A) (A) (A)
                 (A) (A) (A) (A) (A) (A) (A) (A) (A) (A) (A) (A)
                 (A) (A) (A) (A) (A) (A) (A) (A) (A) (A) (A) (A)
                 (A) (A) (A) (A) (A) (A) (A) (A) (A) (A) (A) (A)
                 (A) (A) (A) (A) (A) (A) (A) (A) (A) (A) (A) (A)
                 (A) (A) (A) (A) (A) (A) (A) (A) (A) (A) (A) (A)
                 (A) (A) (A) (A) (A) (A) (A) (A) (A) (A) (A) (A)
                 (A) (A) (A) (A) (A) (A) (A) (A) (A) (A) (A) (A)
                 (A) (A) (A) (A) (A) (A) (A) (A) (A) (A) (A) (A)
                 (A) (A) (A) (A) (A) (A) (A) (A) (A) (A) (A) (A)
                 (A) (A) (A) (A) (A) (A) (A) (A) (A) (A) (A) (A)
                 (A) (A) (A) (A) (A) (A) (A) (A) (A) (A) (A) (A)
                 (A) (A) (A) (A) (A) (A) (A) (A) (A) (A) (A) (A)
                 (A) (A) (A) (A) (A) (A) (A) (A) (A) (A) (A) (A)
                 (A) (A) (A)
 Beta  Orbitals:
       Occupied  (A) (A) (A) (A) (A) (A) (A) (A) (A) (A) (A) (A)
                 (A) (A) (A) (A) (A) (A) (A) (A) (A) (A) (A) (A)
                 (A) (A) (A) (A) (A) (A) (A) (A) (A) (A) (A) (A)
                 (A) (A) (A) (A) (A) (A) (A) (A)
       Virtual   (A) (A) (A) (A) (A) (A) (A) (A) (A) (A) (A) (A)
                 (A) (A) (A) (A) (A) (A) (A) (A) (A) (A) (A) (A)
                 (A) (A) (A) (A) (A) (A) (A) (A) (A) (A) (A) (A)
                 (A) (A) (A) (A) (A) (A) (A) (A) (A) (A) (A) (A)
                 (A) (A) (A) (A) (A) (A) (A) (A) (A) (A) (A) (A)
                 (A) (A) (A) (A) (A) (A) (A) (A) (A) (A) (A) (A)
                 (A) (A) (A) (A) (A) (A) (A) (A) (A) (A) (A) (A)
                 (A) (A) (A) (A) (A) (A) (A) (A) (A) (A) (A) (A)
                 (A) (A) (A) (A) (A) (A) (A) (A) (A) (A) (A) (A)
                 (A) (A) (A) (A) (A) (A) (A) (A) (A) (A) (A) (A)
                 (A) (A) (A) (A) (A) (A) (A) (A) (A) (A) (A) (A)
                 (A) (A) (A) (A) (A) (A) (A) (A) (A) (A) (A) (A)
                 (A) (A) (A) (A) (A) (A) (A) (A) (A) (A) (A) (A)
                 (A) (A) (A) (A) (A) (A) (A) (A) (A) (A) (A) (A)
                 (A) (A) (A) (A) (A) (A) (A) (A) (A) (A) (A) (A)
                 (A) (A) (A) (A) (A) (A) (A) (A) (A) (A) (A) (A)
                 (A) (A) (A) (A) (A) (A) (A) (A) (A) (A) (A) (A)
                 (A) (A) (A) (A) (A) (A) (A) (A) (A) (A) (A) (A)
                 (A) (A) (A) (A) (A) (A) (A) (A) (A) (A) (A) (A)
                 (A) (A) (A) (A) (A) (A) (A) (A) (A) (A) (A) (A)
                 (A) (A) (A) (A) (A) (A) (A) (A) (A) (A) (A) (A)
                 (A) (A) (A) (A) (A) (A) (A) (A) (A) (A) (A) (A)
                 (A) (A) (A) (A)
 The electronic state of the initial guess is 2-A.
 Initial guess <Sx>= 0.0000 <Sy>= 0.0000 <Sz>= 0.5000 <S**2>= 0.7500 S= 0.5000
 Leave Link  401 at Wed Mar 26 10:11:22 2014, MaxMem= 4026531840 cpu:      11.4
 (Enter /usr/caen/gaussian-09revc/g09/l502.exe)
 UHF open shell SCF:
 Requested convergence on RMS density matrix=1.00D-08 within 128 cycles.
 Requested convergence on MAX density matrix=1.00D-06.
 Requested convergence on             energy=1.00D-06.
 No special actions if energy rises.
 Using DIIS extrapolation, IDIIS=  1040.
 Integral symmetry usage will be decided dynamically.
       255700 words used for storage of precomputed grid.
 Keep R1 and R2 ints in memory in canonical form, NReq=2755660431.
 IEnd=      591858 IEndB=      591858 NGot=  4026531840 MDV=  1287998645
 LenX=  1287998645 LenY=  1287893875
 Symmetry not used in FoFDir.
 MinBra= 0 MaxBra= 2 Meth= 1.
 IRaf=       0 NMat=   1 IRICut=       1 DoRegI=T DoRafI=F ISym2E= 0 JSym2E=0.
 Integral accuracy reduced to 1.0D-05 until final iterations.

 Cycle   1  Pass 0  IDiag  1:
 E= -504.434383537723    
 DIIS: error= 3.38D-02 at cycle   1 NSaved=   1.
 NSaved= 1 IEnMin= 1 EnMin= -504.434383537723     IErMin= 1 ErrMin= 3.38D-02
 ErrMax= 3.38D-02 EMaxC= 1.00D-01 BMatC= 1.57D+00 BMatP= 1.57D+00
 IDIUse=3 WtCom= 6.62D-01 WtEn= 3.38D-01
 Coeff-Com:  0.100D+01
 Coeff-En:   0.100D+01
 Coeff:      0.100D+01
 Gap=     0.100 Goal=   None    Shift=    0.000
 Gap=     0.219 Goal=   None    Shift=    0.000
 GapD=    0.100 DampG=1.000 DampE=0.500 DampFc=0.5000 IDamp=-1.
 Damping current iteration by 5.00D-01
 RMSDP=3.42D-03 MaxDP=1.25D-01              OVMax= 1.72D-01

 Cycle   2  Pass 0  IDiag  1:
 E= -504.590513507658     Delta-E=       -0.156129969935 Rises=F Damp=T
 DIIS: error= 5.84D-03 at cycle   2 NSaved=   2.
 NSaved= 2 IEnMin= 2 EnMin= -504.590513507658     IErMin= 2 ErrMin= 5.84D-03
 ErrMax= 5.84D-03 EMaxC= 1.00D-01 BMatC= 1.14D-01 BMatP= 1.57D+00
 IDIUse=3 WtCom= 9.42D-01 WtEn= 5.84D-02
 Coeff-Com:  0.100D+00 0.900D+00
 Coeff-En:   0.180D+00 0.820D+00
 Coeff:      0.105D+00 0.895D+00
 Gap=     0.120 Goal=   None    Shift=    0.000
 Gap=     0.210 Goal=   None    Shift=    0.000
 RMSDP=7.91D-04 MaxDP=3.85D-02 DE=-1.56D-01 OVMax= 1.17D-01

 Cycle   3  Pass 0  IDiag  1:
 E= -504.784749227458     Delta-E=       -0.194235719799 Rises=F Damp=F
 DIIS: error= 1.18D-02 at cycle   3 NSaved=   3.
 NSaved= 3 IEnMin= 3 EnMin= -504.784749227458     IErMin= 2 ErrMin= 5.84D-03
 ErrMax= 1.18D-02 EMaxC= 1.00D-01 BMatC= 1.65D-01 BMatP= 1.14D-01
 IDIUse=2 WtCom= 0.00D+00 WtEn= 1.00D+00
 Coeff-En:   0.000D+00 0.000D+00 0.100D+01
 Coeff:      0.000D+00 0.000D+00 0.100D+01
 Gap=     0.103 Goal=   None    Shift=    0.000
 Gap=     0.239 Goal=   None    Shift=    0.000
 RMSDP=1.45D-03 MaxDP=7.90D-02 DE=-1.94D-01 OVMax= 2.37D-01

 Cycle   4  Pass 0  IDiag  1:
 E= -504.580165588914     Delta-E=        0.204583638544 Rises=F Damp=F
 DIIS: error= 3.23D-02 at cycle   4 NSaved=   4.
 NSaved= 4 IEnMin= 3 EnMin= -504.784749227458     IErMin= 2 ErrMin= 5.84D-03
 ErrMax= 3.23D-02 EMaxC= 1.00D-01 BMatC= 1.25D+00 BMatP= 1.14D-01
 IDIUse=2 WtCom= 0.00D+00 WtEn= 1.00D+00
 Coeff-En:   0.000D+00 0.000D+00 0.822D+00 0.178D+00
 Coeff:      0.000D+00 0.000D+00 0.822D+00 0.178D+00
 Gap=     0.106 Goal=   None    Shift=    0.000
 Gap=     0.191 Goal=   None    Shift=    0.000
 RMSDP=8.12D-04 MaxDP=3.91D-02 DE= 2.05D-01 OVMax= 1.52D-01

 Cycle   5  Pass 0  IDiag  1:
 E= -504.792878253576     Delta-E=       -0.212712664662 Rises=F Damp=F
 DIIS: error= 9.43D-03 at cycle   5 NSaved=   5.
 NSaved= 5 IEnMin= 5 EnMin= -504.792878253576     IErMin= 2 ErrMin= 5.84D-03
 ErrMax= 9.43D-03 EMaxC= 1.00D-01 BMatC= 1.25D-01 BMatP= 1.14D-01
 IDIUse=3 WtCom= 9.06D-01 WtEn= 9.43D-02
 Coeff-Com:  0.432D-02 0.118D-01 0.399D+00-0.628D-01 0.648D+00
 Coeff-En:   0.000D+00 0.000D+00 0.446D+00 0.000D+00 0.554D+00
 Coeff:      0.391D-02 0.106D-01 0.403D+00-0.569D-01 0.639D+00
 Gap=     0.123 Goal=   None    Shift=    0.000
 Gap=     0.187 Goal=   None    Shift=    0.000
 RMSDP=3.12D-04 MaxDP=1.74D-02 DE=-2.13D-01 OVMax= 3.11D-02

 Cycle   6  Pass 0  IDiag  1:
 E= -504.815179614605     Delta-E=       -0.022301361029 Rises=F Damp=F
 DIIS: error= 1.20D-03 at cycle   6 NSaved=   6.
 NSaved= 6 IEnMin= 6 EnMin= -504.815179614605     IErMin= 6 ErrMin= 1.20D-03
 ErrMax= 1.20D-03 EMaxC= 1.00D-01 BMatC= 1.82D-03 BMatP= 1.14D-01
 IDIUse=3 WtCom= 9.88D-01 WtEn= 1.20D-02
 Coeff-Com:  0.264D-02-0.416D-02 0.208D+00-0.742D-01 0.469D+00 0.399D+00
 Coeff-En:   0.000D+00 0.000D+00 0.000D+00 0.000D+00 0.000D+00 0.100D+01
 Coeff:      0.261D-02-0.411D-02 0.206D+00-0.733D-01 0.463D+00 0.406D+00
 Gap=     0.122 Goal=   None    Shift=    0.000
 Gap=     0.184 Goal=   None    Shift=    0.000
 RMSDP=6.82D-05 MaxDP=2.74D-03 DE=-2.23D-02 OVMax= 1.82D-02

 Cycle   7  Pass 0  IDiag  1:
 E= -504.815632228464     Delta-E=       -0.000452613859 Rises=F Damp=F
 DIIS: error= 5.00D-04 at cycle   7 NSaved=   7.
 NSaved= 7 IEnMin= 7 EnMin= -504.815632228464     IErMin= 7 ErrMin= 5.00D-04
 ErrMax= 5.00D-04 EMaxC= 1.00D-01 BMatC= 1.26D-04 BMatP= 1.82D-03
 IDIUse=3 WtCom= 9.95D-01 WtEn= 5.00D-03
 Coeff-Com:  0.448D-03-0.459D-02 0.653D-02-0.191D-01 0.523D-01 0.100D+00
 Coeff-Com:  0.864D+00
 Coeff-En:   0.000D+00 0.000D+00 0.000D+00 0.000D+00 0.000D+00 0.000D+00
 Coeff-En:   0.100D+01
 Coeff:      0.446D-03-0.457D-02 0.650D-02-0.190D-01 0.520D-01 0.100D+00
 Coeff:      0.865D+00
 Gap=     0.123 Goal=   None    Shift=    0.000
 Gap=     0.185 Goal=   None    Shift=    0.000
 RMSDP=2.61D-05 MaxDP=1.50D-03 DE=-4.53D-04 OVMax= 3.66D-03

 Cycle   8  Pass 0  IDiag  1:
 E= -504.815709228531     Delta-E=       -0.000077000067 Rises=F Damp=F
 DIIS: error= 2.13D-04 at cycle   8 NSaved=   8.
 NSaved= 8 IEnMin= 8 EnMin= -504.815709228531     IErMin= 8 ErrMin= 2.13D-04
 ErrMax= 2.13D-04 EMaxC= 1.00D-01 BMatC= 4.41D-05 BMatP= 1.26D-04
 IDIUse=3 WtCom= 9.98D-01 WtEn= 2.13D-03
 Coeff-Com: -0.805D-03-0.121D-02-0.751D-01 0.244D-01-0.170D+00-0.128D+00
 Coeff-Com:  0.431D+00 0.919D+00
 Coeff-En:   0.000D+00 0.000D+00 0.000D+00 0.000D+00 0.000D+00 0.000D+00
 Coeff-En:   0.000D+00 0.100D+01
 Coeff:     -0.803D-03-0.121D-02-0.749D-01 0.244D-01-0.169D+00-0.128D+00
 Coeff:      0.430D+00 0.920D+00
 Gap=     0.124 Goal=   None    Shift=    0.000
 Gap=     0.186 Goal=   None    Shift=    0.000
 RMSDP=2.57D-05 MaxDP=1.17D-03 DE=-7.70D-05 OVMax= 3.14D-03

 Cycle   9  Pass 0  IDiag  1:
 E= -504.815753173209     Delta-E=       -0.000043944678 Rises=F Damp=F
 DIIS: error= 1.60D-04 at cycle   9 NSaved=   9.
 NSaved= 9 IEnMin= 9 EnMin= -504.815753173209     IErMin= 9 ErrMin= 1.60D-04
 ErrMax= 1.60D-04 EMaxC= 1.00D-01 BMatC= 1.25D-05 BMatP= 4.41D-05
 IDIUse=3 WtCom= 9.98D-01 WtEn= 1.60D-03
 Coeff-Com: -0.468D-03 0.156D-02-0.118D-01 0.375D-02-0.152D-01 0.257D-01
 Coeff-Com: -0.276D+00 0.124D-01 0.126D+01
 Coeff-En:   0.000D+00 0.000D+00 0.000D+00 0.000D+00 0.000D+00 0.000D+00
 Coeff-En:   0.000D+00 0.000D+00 0.100D+01
 Coeff:     -0.467D-03 0.156D-02-0.117D-01 0.375D-02-0.151D-01 0.257D-01
 Coeff:     -0.276D+00 0.124D-01 0.126D+01
 Gap=     0.125 Goal=   None    Shift=    0.000
 Gap=     0.186 Goal=   None    Shift=    0.000
 RMSDP=1.63D-05 MaxDP=8.26D-04 DE=-4.39D-05 OVMax= 2.64D-03

 Cycle  10  Pass 0  IDiag  1:
 E= -504.815766838838     Delta-E=       -0.000013665629 Rises=F Damp=F
 DIIS: error= 4.41D-05 at cycle  10 NSaved=  10.
 NSaved=10 IEnMin=10 EnMin= -504.815766838838     IErMin=10 ErrMin= 4.41D-05
 ErrMax= 4.41D-05 EMaxC= 1.00D-01 BMatC= 1.96D-06 BMatP= 1.25D-05
 IDIUse=1 WtCom= 1.00D+00 WtEn= 0.00D+00
 Coeff-Com: -0.628D-04 0.856D-03 0.358D-02-0.179D-02 0.143D-01 0.370D-01
 Coeff-Com: -0.163D+00-0.115D+00 0.418D+00 0.806D+00
 Coeff:     -0.628D-04 0.856D-03 0.358D-02-0.179D-02 0.143D-01 0.370D-01
 Coeff:     -0.163D+00-0.115D+00 0.418D+00 0.806D+00
 Gap=     0.125 Goal=   None    Shift=    0.000
 Gap=     0.186 Goal=   None    Shift=    0.000
 RMSDP=5.55D-06 MaxDP=2.28D-04 DE=-1.37D-05 OVMax= 1.02D-03

 Initial convergence to 1.0D-05 achieved.  Increase integral accuracy.
 Cycle  11  Pass 1  IDiag  1:
 E= -504.815974088839     Delta-E=       -0.000207250001 Rises=F Damp=F
 DIIS: error= 2.63D-05 at cycle   1 NSaved=   1.
 NSaved= 1 IEnMin= 1 EnMin= -504.815974088839     IErMin= 1 ErrMin= 2.63D-05
 ErrMax= 2.63D-05 EMaxC= 1.00D-01 BMatC= 1.48D-06 BMatP= 1.48D-06
 IDIUse=1 WtCom= 1.00D+00 WtEn= 0.00D+00
 Coeff-Com:  0.100D+01
 Coeff:      0.100D+01
 Gap=     0.125 Goal=   None    Shift=    0.000
 Gap=     0.186 Goal=   None    Shift=    0.000
 RMSDP=5.55D-06 MaxDP=2.28D-04 DE=-2.07D-04 OVMax= 4.02D-04

 Cycle  12  Pass 1  IDiag  1:
 E= -504.815974466849     Delta-E=       -0.000000378009 Rises=F Damp=F
 DIIS: error= 3.59D-05 at cycle   2 NSaved=   2.
 NSaved= 2 IEnMin= 2 EnMin= -504.815974466849     IErMin= 1 ErrMin= 2.63D-05
 ErrMax= 3.59D-05 EMaxC= 1.00D-01 BMatC= 1.45D-06 BMatP= 1.48D-06
 IDIUse=1 WtCom= 1.00D+00 WtEn= 0.00D+00
 Coeff-Com:  0.497D+00 0.503D+00
 Coeff:      0.497D+00 0.503D+00
 Gap=     0.125 Goal=   None    Shift=    0.000
 Gap=     0.186 Goal=   None    Shift=    0.000
 RMSDP=3.01D-06 MaxDP=1.26D-04 DE=-3.78D-07 OVMax= 8.32D-04

 Cycle  13  Pass 1  IDiag  1:
 E= -504.815974770559     Delta-E=       -0.000000303710 Rises=F Damp=F
 DIIS: error= 2.71D-05 at cycle   3 NSaved=   3.
 NSaved= 3 IEnMin= 3 EnMin= -504.815974770559     IErMin= 1 ErrMin= 2.63D-05
 ErrMax= 2.71D-05 EMaxC= 1.00D-01 BMatC= 6.24D-07 BMatP= 1.45D-06
 IDIUse=1 WtCom= 1.00D+00 WtEn= 0.00D+00
 Coeff-Com:  0.194D-02 0.384D+00 0.614D+00
 Coeff:      0.194D-02 0.384D+00 0.614D+00
 Gap=     0.125 Goal=   None    Shift=    0.000
 Gap=     0.186 Goal=   None    Shift=    0.000
 RMSDP=1.24D-06 MaxDP=5.96D-05 DE=-3.04D-07 OVMax= 1.48D-04

 Cycle  14  Pass 1  IDiag  1:
 E= -504.815974951158     Delta-E=       -0.000000180599 Rises=F Damp=F
 DIIS: error= 7.92D-06 at cycle   4 NSaved=   4.
 NSaved= 4 IEnMin= 4 EnMin= -504.815974951158     IErMin= 4 ErrMin= 7.92D-06
 ErrMax= 7.92D-06 EMaxC= 1.00D-01 BMatC= 7.54D-08 BMatP= 6.24D-07
 IDIUse=1 WtCom= 1.00D+00 WtEn= 0.00D+00
 Coeff-Com: -0.854D-01 0.156D+00 0.284D+00 0.646D+00
 Coeff:     -0.854D-01 0.156D+00 0.284D+00 0.646D+00
 Gap=     0.125 Goal=   None    Shift=    0.000
 Gap=     0.186 Goal=   None    Shift=    0.000
 RMSDP=8.41D-07 MaxDP=3.83D-05 DE=-1.81D-07 OVMax= 2.17D-04

 Cycle  15  Pass 1  IDiag  1:
 E= -504.815975001398     Delta-E=       -0.000000050239 Rises=F Damp=F
 DIIS: error= 5.45D-06 at cycle   5 NSaved=   5.
 NSaved= 5 IEnMin= 5 EnMin= -504.815975001398     IErMin= 5 ErrMin= 5.45D-06
 ErrMax= 5.45D-06 EMaxC= 1.00D-01 BMatC= 3.32D-08 BMatP= 7.54D-08
 IDIUse=1 WtCom= 1.00D+00 WtEn= 0.00D+00
 Coeff-Com:  0.115D-01-0.165D+00-0.485D+00 0.102D+00 0.154D+01
 Coeff:      0.115D-01-0.165D+00-0.485D+00 0.102D+00 0.154D+01
 Gap=     0.125 Goal=   None    Shift=    0.000
 Gap=     0.186 Goal=   None    Shift=    0.000
 RMSDP=1.22D-06 MaxDP=4.63D-05 DE=-5.02D-08 OVMax= 2.53D-04

 Cycle  16  Pass 1  IDiag  1:
 E= -504.815975044020     Delta-E=       -0.000000042623 Rises=F Damp=F
 DIIS: error= 3.40D-06 at cycle   6 NSaved=   6.
 NSaved= 6 IEnMin= 6 EnMin= -504.815975044020     IErMin= 6 ErrMin= 3.40D-06
 ErrMax= 3.40D-06 EMaxC= 1.00D-01 BMatC= 7.63D-09 BMatP= 3.32D-08
 IDIUse=1 WtCom= 1.00D+00 WtEn= 0.00D+00
 Coeff-Com:  0.185D-01-0.123D+00-0.343D+00-0.367D-01 0.918D+00 0.567D+00
 Coeff:      0.185D-01-0.123D+00-0.343D+00-0.367D-01 0.918D+00 0.567D+00
 Gap=     0.125 Goal=   None    Shift=    0.000
 Gap=     0.186 Goal=   None    Shift=    0.000
 RMSDP=2.88D-07 MaxDP=1.57D-05 DE=-4.26D-08 OVMax= 4.93D-05

 Cycle  17  Pass 1  IDiag  1:
 E= -504.815975047756     Delta-E=       -0.000000003736 Rises=F Damp=F
 DIIS: error= 1.97D-06 at cycle   7 NSaved=   7.
 NSaved= 7 IEnMin= 7 EnMin= -504.815975047756     IErMin= 7 ErrMin= 1.97D-06
 ErrMax= 1.97D-06 EMaxC= 1.00D-01 BMatC= 4.50D-09 BMatP= 7.63D-09
 IDIUse=1 WtCom= 1.00D+00 WtEn= 0.00D+00
 Coeff-Com:  0.109D-01-0.443D-01-0.115D+00-0.558D-01 0.254D+00 0.470D+00
 Coeff-Com:  0.480D+00
 Coeff:      0.109D-01-0.443D-01-0.115D+00-0.558D-01 0.254D+00 0.470D+00
 Coeff:      0.480D+00
 Gap=     0.125 Goal=   None    Shift=    0.000
 Gap=     0.186 Goal=   None    Shift=    0.000
 RMSDP=1.23D-07 MaxDP=6.24D-06 DE=-3.74D-09 OVMax= 1.92D-05

 Cycle  18  Pass 1  IDiag  1:
 E= -504.815975049116     Delta-E=       -0.000000001360 Rises=F Damp=F
 DIIS: error= 8.75D-07 at cycle   8 NSaved=   8.
 NSaved= 8 IEnMin= 8 EnMin= -504.815975049116     IErMin= 8 ErrMin= 8.75D-07
 ErrMax= 8.75D-07 EMaxC= 1.00D-01 BMatC= 5.49D-10 BMatP= 4.50D-09
 IDIUse=1 WtCom= 1.00D+00 WtEn= 0.00D+00
 Coeff-Com: -0.251D-02 0.293D-01 0.104D+00-0.289D-01-0.286D+00 0.148D-01
 Coeff-Com:  0.210D+00 0.959D+00
 Coeff:     -0.251D-02 0.293D-01 0.104D+00-0.289D-01-0.286D+00 0.148D-01
 Coeff:      0.210D+00 0.959D+00
 Gap=     0.125 Goal=   None    Shift=    0.000
 Gap=     0.186 Goal=   None    Shift=    0.000
 RMSDP=9.11D-08 MaxDP=5.09D-06 DE=-1.36D-09 OVMax= 1.20D-05

 Cycle  19  Pass 1  IDiag  1:
 E= -504.815975049566     Delta-E=       -0.000000000450 Rises=F Damp=F
 DIIS: error= 3.56D-07 at cycle   9 NSaved=   9.
 NSaved= 9 IEnMin= 9 EnMin= -504.815975049566     IErMin= 9 ErrMin= 3.56D-07
 ErrMax= 3.56D-07 EMaxC= 1.00D-01 BMatC= 1.55D-10 BMatP= 5.49D-10
 IDIUse=1 WtCom= 1.00D+00 WtEn= 0.00D+00
 Coeff-Com: -0.346D-02 0.219D-01 0.765D-01-0.684D-02-0.187D+00-0.815D-01
 Coeff-Com: -0.310D-01 0.455D+00 0.756D+00
 Coeff:     -0.346D-02 0.219D-01 0.765D-01-0.684D-02-0.187D+00-0.815D-01
 Coeff:     -0.310D-01 0.455D+00 0.756D+00
 Gap=     0.125 Goal=   None    Shift=    0.000
 Gap=     0.186 Goal=   None    Shift=    0.000
 RMSDP=3.67D-08 MaxDP=1.73D-06 DE=-4.50D-10 OVMax= 4.37D-06

 Cycle  20  Pass 1  IDiag  1:
 E= -504.815975049638     Delta-E=       -0.000000000072 Rises=F Damp=F
 DIIS: error= 9.63D-08 at cycle  10 NSaved=  10.
 NSaved=10 IEnMin=10 EnMin= -504.815975049638     IErMin=10 ErrMin= 9.63D-08
 ErrMax= 9.63D-08 EMaxC= 1.00D-01 BMatC= 2.15D-11 BMatP= 1.55D-10
 IDIUse=1 WtCom= 1.00D+00 WtEn= 0.00D+00
 Coeff-Com: -0.100D-02 0.405D-02 0.161D-01 0.535D-03-0.287D-01-0.319D-01
 Coeff-Com: -0.593D-01 0.257D-01 0.320D+00 0.754D+00
 Coeff:     -0.100D-02 0.405D-02 0.161D-01 0.535D-03-0.287D-01-0.319D-01
 Coeff:     -0.593D-01 0.257D-01 0.320D+00 0.754D+00
 Gap=     0.125 Goal=   None    Shift=    0.000
 Gap=     0.186 Goal=   None    Shift=    0.000
 RMSDP=1.26D-08 MaxDP=5.44D-07 DE=-7.16D-11 OVMax= 1.83D-06

 Cycle  21  Pass 1  IDiag  1:
 E= -504.815975049644     Delta-E=       -0.000000000007 Rises=F Damp=F
 DIIS: error= 4.13D-08 at cycle  11 NSaved=  11.
 NSaved=11 IEnMin=11 EnMin= -504.815975049644     IErMin=11 ErrMin= 4.13D-08
 ErrMax= 4.13D-08 EMaxC= 1.00D-01 BMatC= 1.46D-12 BMatP= 2.15D-11
 IDIUse=1 WtCom= 1.00D+00 WtEn= 0.00D+00
 Coeff-Com: -0.628D-04-0.597D-03-0.104D-02 0.376D-03 0.646D-02-0.226D-02
 Coeff-Com: -0.193D-01-0.272D-01 0.409D-01 0.254D+00 0.749D+00
 Coeff:     -0.628D-04-0.597D-03-0.104D-02 0.376D-03 0.646D-02-0.226D-02
 Coeff:     -0.193D-01-0.272D-01 0.409D-01 0.254D+00 0.749D+00
 Gap=     0.125 Goal=   None    Shift=    0.000
 Gap=     0.186 Goal=   None    Shift=    0.000
 RMSDP=3.58D-09 MaxDP=1.19D-07 DE=-6.59D-12 OVMax= 6.36D-07

 SCF Done:  E(UB3LYP) =  -504.815975050     A.U. after   21 cycles
             Convg  =    0.3576D-08             -V/T =  2.0043
 <Sx>= 0.0000 <Sy>= 0.0000 <Sz>= 0.5000 <S**2>= 0.7894 S= 0.5195
 <L.S>= 0.000000000000E+00
 KE= 5.026451049066D+02 PE=-2.571656928577D+03 EE= 8.668593522138D+02
 Annihilation of the first spin contaminant:
 S**2 before annihilation     0.7894,   after     0.7502
 Leave Link  502 at Wed Mar 26 10:13:31 2014, MaxMem= 4026531840 cpu:    1024.9
 (Enter /usr/caen/gaussian-09revc/g09/l801.exe)
 Range of M.O.s used for correlation:     1   312
 NBasis=   312 NAE=    45 NBE=    44 NFC=     0 NFV=     0
 NROrb=    312 NOA=    45 NOB=    44 NVA=   267 NVB=   268
 Leave Link  801 at Wed Mar 26 10:13:33 2014, MaxMem= 4026531840 cpu:       0.3
 (Enter /usr/caen/gaussian-09revc/g09/l1101.exe)
 Using compressed storage, NAtomX=    30.
 Will process  31 centers per pass.
 Leave Link 1101 at Wed Mar 26 10:13:35 2014, MaxMem= 4026531840 cpu:      11.1
 (Enter /usr/caen/gaussian-09revc/g09/l1102.exe)
 Symmetrizing basis deriv contribution to polar:
 IMax=3 JMax=2 DiffMx= 0.00D+00
 Leave Link 1102 at Wed Mar 26 10:13:36 2014, MaxMem= 4026531840 cpu:       2.1
 (Enter /usr/caen/gaussian-09revc/g09/l1110.exe)
 Forming Gx(P) for the SCF density, NAtomX=    30.
 Integral derivatives from FoFDir/FoFCou, PRISM(SPDF).
 Do as many integral derivatives as possible in FoFDir.
 G2DrvN: MDV=    4026531496.
 G2DrvN: will do    31 centers at a time, making    1 passes doing MaxLOS=2.
 Calling FoFCou, ICntrl=  3107 FMM=F I1Cent=   0 AccDes= 0.00D+00.
 FoFCou: FMM=F IPFlag=           0 FMFlag=      100000 FMFlg1=           0
         NFxFlg=           0 DoJE=F BraDBF=F KetDBF=F FulRan=T
         Omega=  0.000000  0.000000  1.000000  0.000000  0.000000 ICntrl=    3107 IOpCl=  1
         NMat0=    1 NMatS0=    1 NMatT0=    0 NMatD0=    1 NMtDS0=    0 NMtDT0=    0
         I1Cent=           0 NGrid=           0.
 Symmetry not used in FoFCou.
 FoFDir/FoFCou used for L=0 through L=2.
 End of G2Drv Frequency-dependent properties file   721 does not exist.
 End of G2Drv Frequency-dependent properties file   722 does not exist.
 Leave Link 1110 at Wed Mar 26 10:16:20 2014, MaxMem= 4026531840 cpu:    1301.0
 (Enter /usr/caen/gaussian-09revc/g09/l1002.exe)
 Minotr:  UHF open shell wavefunction.
          IDoAtm=111111111111111111111111111111
          Direct CPHF calculation.
          Differentiating once with respect to nuclear coordinates.
          Requested convergence is 1.0D-06 RMS, and 1.0D-05 maximum.
          Secondary convergence is 1.0D-12 RMS, and 1.0D-12 maximum.
          NewPWx=T KeepS1=F KeepF1=F KeepIn=T MapXYZ=F SortEE=F KeepMc=T.
          MDV=    4026531536 using IRadAn=       2.
 Generate precomputed XC quadrature information.
          Keep R1 and R2 ints in memory in canonical form, NReq=2738891857.
 Symmetry not used in FoFDir.
 MinBra= 0 MaxBra= 2 Meth= 1.
 IRaf=       0 NMat=   1 IRICut=       1 DoRegI=T DoRafI=F ISym2E= 0 JSym2E=0.
          Solving linear equations simultaneously, MaxMat=       0.
          There are    93 degrees of freedom in the 1st order CPHF.  IDoFFX=5.
     87 vectors produced by pass  0 Test12= 2.56D-10 1.08D-07 XBig12= 2.43D-01 2.22D-01.
 AX will form    87 AO Fock derivatives at one time.
     87 vectors produced by pass  1 Test12= 2.56D-10 1.08D-07 XBig12= 7.13D-02 4.23D-02.
     87 vectors produced by pass  2 Test12= 2.56D-10 1.08D-07 XBig12= 2.97D-04 2.59D-03.
     87 vectors produced by pass  3 Test12= 2.56D-10 1.08D-07 XBig12= 2.55D-06 1.48D-04.
     78 vectors produced by pass  4 Test12= 2.56D-10 1.08D-07 XBig12= 1.74D-08 1.11D-05.
     13 vectors produced by pass  5 Test12= 2.56D-10 1.08D-07 XBig12= 8.13D-11 7.78D-07.
 Inverted reduced A of dimension   439 with in-core refinement.
 End of Minotr Frequency-dependent properties file   721 does not exist.
 End of Minotr Frequency-dependent properties file   722 does not exist.
 Leave Link 1002 at Wed Mar 26 10:20:14 2014, MaxMem= 4026531840 cpu:    1861.6
 (Enter /usr/caen/gaussian-09revc/g09/l601.exe)
 Copying SCF densities to generalized density rwf, IOpCl= 1 IROHF=0.

 **********************************************************************

            Population analysis using the SCF density.

 **********************************************************************

 Orbital symmetries:
 Alpha Orbitals:
       Occupied  (A) (A) (A) (A) (A) (A) (A) (A) (A) (A) (A) (A)
                 (A) (A) (A) (A) (A) (A) (A) (A) (A) (A) (A) (A)
                 (A) (A) (A) (A) (A) (A) (A) (A) (A) (A) (A) (A)
                 (A) (A) (A) (A) (A) (A) (A) (A) (A)
       Virtual   (A) (A) (A) (A) (A) (A) (A) (A) (A) (A) (A) (A)
                 (A) (A) (A) (A) (A) (A) (A) (A) (A) (A) (A) (A)
                 (A) (A) (A) (A) (A) (A) (A) (A) (A) (A) (A) (A)
                 (A) (A) (A) (A) (A) (A) (A) (A) (A) (A) (A) (A)
                 (A) (A) (A) (A) (A) (A) (A) (A) (A) (A) (A) (A)
                 (A) (A) (A) (A) (A) (A) (A) (A) (A) (A) (A) (A)
                 (A) (A) (A) (A) (A) (A) (A) (A) (A) (A) (A) (A)
                 (A) (A) (A) (A) (A) (A) (A) (A) (A) (A) (A) (A)
                 (A) (A) (A) (A) (A) (A) (A) (A) (A) (A) (A) (A)
                 (A) (A) (A) (A) (A) (A) (A) (A) (A) (A) (A) (A)
                 (A) (A) (A) (A) (A) (A) (A) (A) (A) (A) (A) (A)
                 (A) (A) (A) (A) (A) (A) (A) (A) (A) (A) (A) (A)
                 (A) (A) (A) (A) (A) (A) (A) (A) (A) (A) (A) (A)
                 (A) (A) (A) (A) (A) (A) (A) (A) (A) (A) (A) (A)
                 (A) (A) (A) (A) (A) (A) (A) (A) (A) (A) (A) (A)
                 (A) (A) (A) (A) (A) (A) (A) (A) (A) (A) (A) (A)
                 (A) (A) (A) (A) (A) (A) (A) (A) (A) (A) (A) (A)
                 (A) (A) (A) (A) (A) (A) (A) (A) (A) (A) (A) (A)
                 (A) (A) (A) (A) (A) (A) (A) (A) (A) (A) (A) (A)
                 (A) (A) (A) (A) (A) (A) (A) (A) (A) (A) (A) (A)
                 (A) (A) (A) (A) (A) (A) (A) (A) (A) (A) (A) (A)
                 (A) (A) (A) (A) (A) (A) (A) (A) (A) (A) (A) (A)
                 (A) (A) (A)
 Beta  Orbitals:
       Occupied  (A) (A) (A) (A) (A) (A) (A) (A) (A) (A) (A) (A)
                 (A) (A) (A) (A) (A) (A) (A) (A) (A) (A) (A) (A)
                 (A) (A) (A) (A) (A) (A) (A) (A) (A) (A) (A) (A)
                 (A) (A) (A) (A) (A) (A) (A) (A)
       Virtual   (A) (A) (A) (A) (A) (A) (A) (A) (A) (A) (A) (A)
                 (A) (A) (A) (A) (A) (A) (A) (A) (A) (A) (A) (A)
                 (A) (A) (A) (A) (A) (A) (A) (A) (A) (A) (A) (A)
                 (A) (A) (A) (A) (A) (A) (A) (A) (A) (A) (A) (A)
                 (A) (A) (A) (A) (A) (A) (A) (A) (A) (A) (A) (A)
                 (A) (A) (A) (A) (A) (A) (A) (A) (A) (A) (A) (A)
                 (A) (A) (A) (A) (A) (A) (A) (A) (A) (A) (A) (A)
                 (A) (A) (A) (A) (A) (A) (A) (A) (A) (A) (A) (A)
                 (A) (A) (A) (A) (A) (A) (A) (A) (A) (A) (A) (A)
                 (A) (A) (A) (A) (A) (A) (A) (A) (A) (A) (A) (A)
                 (A) (A) (A) (A) (A) (A) (A) (A) (A) (A) (A) (A)
                 (A) (A) (A) (A) (A) (A) (A) (A) (A) (A) (A) (A)
                 (A) (A) (A) (A) (A) (A) (A) (A) (A) (A) (A) (A)
                 (A) (A) (A) (A) (A) (A) (A) (A) (A) (A) (A) (A)
                 (A) (A) (A) (A) (A) (A) (A) (A) (A) (A) (A) (A)
                 (A) (A) (A) (A) (A) (A) (A) (A) (A) (A) (A) (A)
                 (A) (A) (A) (A) (A) (A) (A) (A) (A) (A) (A) (A)
                 (A) (A) (A) (A) (A) (A) (A) (A) (A) (A) (A) (A)
                 (A) (A) (A) (A) (A) (A) (A) (A) (A) (A) (A) (A)
                 (A) (A) (A) (A) (A) (A) (A) (A) (A) (A) (A) (A)
                 (A) (A) (A) (A) (A) (A) (A) (A) (A) (A) (A) (A)
                 (A) (A) (A) (A) (A) (A) (A) (A) (A) (A) (A) (A)
                 (A) (A) (A) (A)
 The electronic state is 2-A.
 Alpha  occ. eigenvalues --  -19.15762 -19.13132 -10.22659 -10.18593 -10.17974
 Alpha  occ. eigenvalues --  -10.17025 -10.16769 -10.16739 -10.16486 -10.15080
 Alpha  occ. eigenvalues --  -10.14898  -1.03355  -0.92051  -0.82156  -0.78921
 Alpha  occ. eigenvalues --   -0.74529  -0.68696  -0.68319  -0.67973  -0.60926
 Alpha  occ. eigenvalues --   -0.56314  -0.54010  -0.48584  -0.48266  -0.46141
 Alpha  occ. eigenvalues --   -0.44881  -0.44022  -0.43021  -0.42669  -0.40569
 Alpha  occ. eigenvalues --   -0.40145  -0.39431  -0.38571  -0.38519  -0.36930
 Alpha  occ. eigenvalues --   -0.36161  -0.35385  -0.35149  -0.33237  -0.33112
 Alpha  occ. eigenvalues --   -0.32124  -0.31078  -0.29701  -0.25849  -0.17951
 Alpha virt. eigenvalues --   -0.05421   0.03374   0.05142   0.05538   0.05952
 Alpha virt. eigenvalues --    0.07634   0.08524   0.09370   0.09831   0.11197
 Alpha virt. eigenvalues --    0.11476   0.11658   0.12095   0.13776   0.14437
 Alpha virt. eigenvalues --    0.15381   0.15489   0.15907   0.16799   0.17428
 Alpha virt. eigenvalues --    0.19108   0.19211   0.20582   0.20901   0.22960
 Alpha virt. eigenvalues --    0.23579   0.24924   0.25258   0.27107   0.29164
 Alpha virt. eigenvalues --    0.30000   0.30981   0.33065   0.34699   0.35363
 Alpha virt. eigenvalues --    0.35979   0.38276   0.39012   0.40253   0.41998
 Alpha virt. eigenvalues --    0.42907   0.44254   0.45541   0.46979   0.48375
 Alpha virt. eigenvalues --    0.50569   0.51630   0.52753   0.53991   0.54885
 Alpha virt. eigenvalues --    0.55863   0.56482   0.57477   0.57754   0.58587
 Alpha virt. eigenvalues --    0.58701   0.58934   0.59355   0.59612   0.60497
 Alpha virt. eigenvalues --    0.60856   0.61597   0.61767   0.62317   0.63367
 Alpha virt. eigenvalues --    0.63766   0.64377   0.65376   0.66087   0.66734
 Alpha virt. eigenvalues --    0.67698   0.69229   0.69937   0.70688   0.73849
 Alpha virt. eigenvalues --    0.79753   0.84450   0.86026   0.86516   0.87431
 Alpha virt. eigenvalues --    0.91417   0.92845   0.94997   0.95589   0.99218
 Alpha virt. eigenvalues --    1.00902   1.01876   1.04494   1.07231   1.11318
 Alpha virt. eigenvalues --    1.12607   1.14043   1.15277   1.16807   1.20309
 Alpha virt. eigenvalues --    1.23724   1.25596   1.27155   1.31071   1.31706
 Alpha virt. eigenvalues --    1.33963   1.35191   1.35810   1.36899   1.40598
 Alpha virt. eigenvalues --    1.40947   1.42379   1.43478   1.44909   1.46806
 Alpha virt. eigenvalues --    1.47568   1.48317   1.49127   1.50008   1.50473
 Alpha virt. eigenvalues --    1.50694   1.52548   1.52746   1.53600   1.54533
 Alpha virt. eigenvalues --    1.54783   1.56772   1.57947   1.58207   1.59691
 Alpha virt. eigenvalues --    1.60309   1.61473   1.62196   1.63806   1.65485
 Alpha virt. eigenvalues --    1.66782   1.68429   1.69999   1.71432   1.72359
 Alpha virt. eigenvalues --    1.73229   1.74023   1.75330   1.75835   1.77257
 Alpha virt. eigenvalues --    1.79125   1.79829   1.81681   1.83788   1.85469
 Alpha virt. eigenvalues --    1.86225   1.89361   1.91046   1.91444   1.92894
 Alpha virt. eigenvalues --    1.94001   1.95219   1.97780   1.99872   2.01617
 Alpha virt. eigenvalues --    2.03130   2.05828   2.07827   2.08823   2.10870
 Alpha virt. eigenvalues --    2.12580   2.13953   2.16608   2.17924   2.18268
 Alpha virt. eigenvalues --    2.20165   2.21841   2.25883   2.26444   2.30008
 Alpha virt. eigenvalues --    2.31519   2.32909   2.35542   2.36435   2.37870
 Alpha virt. eigenvalues --    2.39318   2.41716   2.43936   2.44460   2.45775
 Alpha virt. eigenvalues --    2.46735   2.47228   2.48452   2.49492   2.49944
 Alpha virt. eigenvalues --    2.50894   2.52127   2.52943   2.54263   2.54655
 Alpha virt. eigenvalues --    2.54910   2.55725   2.57272   2.58149   2.59548
 Alpha virt. eigenvalues --    2.59730   2.64053   2.64719   2.67725   2.69170
 Alpha virt. eigenvalues --    2.69930   2.71491   2.72179   2.74990   2.76003
 Alpha virt. eigenvalues --    2.77941   2.79344   2.81211   2.83609   2.84361
 Alpha virt. eigenvalues --    2.86723   2.87984   2.92033   2.92436   2.94575
 Alpha virt. eigenvalues --    2.98333   3.01029   3.02944   3.03447   3.09867
 Alpha virt. eigenvalues --    3.12395   3.12853   3.15653   3.16796   3.19142
 Alpha virt. eigenvalues --    3.22980   3.25474   3.34866   3.45656   3.49069
 Alpha virt. eigenvalues --    3.55685   3.70678   3.74564   3.77667   3.78411
 Alpha virt. eigenvalues --    3.79207   3.80354   3.81458   3.82141   3.83151
 Alpha virt. eigenvalues --    3.84652   3.90172   3.99627   4.03871   4.12770
 Alpha virt. eigenvalues --    4.20702   4.22025   4.26942   4.35054   4.39182
 Alpha virt. eigenvalues --    4.83225   4.89957   5.04251   5.31921   5.43784
 Alpha virt. eigenvalues --    5.46341  23.70052  23.81060  23.81606  23.88621
 Alpha virt. eigenvalues --   23.89721  23.91069  23.95098  23.95639  23.95794
 Alpha virt. eigenvalues --   49.80540  49.87569
  Beta  occ. eigenvalues --  -19.15695 -19.12221 -10.22624 -10.18031 -10.17423
  Beta  occ. eigenvalues --  -10.17032 -10.16767 -10.16728 -10.16367 -10.15093
  Beta  occ. eigenvalues --  -10.14900  -1.02583  -0.90883  -0.81771  -0.78661
  Beta  occ. eigenvalues --   -0.74376  -0.68597  -0.68083  -0.66590  -0.60631
  Beta  occ. eigenvalues --   -0.55870  -0.53469  -0.48343  -0.47848  -0.45908
  Beta  occ. eigenvalues --   -0.44474  -0.43590  -0.42940  -0.42265  -0.40352
  Beta  occ. eigenvalues --   -0.39857  -0.38886  -0.38347  -0.37914  -0.36882
  Beta  occ. eigenvalues --   -0.36075  -0.35225  -0.34800  -0.33051  -0.32800
  Beta  occ. eigenvalues --   -0.31914  -0.30807  -0.28913  -0.25187
  Beta virt. eigenvalues --   -0.06580  -0.01468   0.03471   0.05269   0.05871
  Beta virt. eigenvalues --    0.06161   0.07724   0.08663   0.09556   0.09962
  Beta virt. eigenvalues --    0.11297   0.11541   0.11736   0.12211   0.13849
  Beta virt. eigenvalues --    0.14521   0.15419   0.15621   0.16031   0.16919
  Beta virt. eigenvalues --    0.17439   0.19192   0.19261   0.20824   0.21075
  Beta virt. eigenvalues --    0.23146   0.23674   0.25032   0.25490   0.27189
  Beta virt. eigenvalues --    0.29303   0.30131   0.31366   0.33202   0.34811
  Beta virt. eigenvalues --    0.35530   0.36489   0.38336   0.39257   0.40495
  Beta virt. eigenvalues --    0.42135   0.43047   0.44958   0.45820   0.47060
  Beta virt. eigenvalues --    0.48530   0.50849   0.51841   0.52977   0.54432
  Beta virt. eigenvalues --    0.55819   0.56058   0.56538   0.57533   0.57871
  Beta virt. eigenvalues --    0.58692   0.58873   0.59210   0.59537   0.59802
  Beta virt. eigenvalues --    0.60562   0.60938   0.61721   0.61856   0.62420
  Beta virt. eigenvalues --    0.63465   0.64238   0.64910   0.65771   0.66251
  Beta virt. eigenvalues --    0.66903   0.67890   0.69419   0.70183   0.70910
  Beta virt. eigenvalues --    0.74141   0.80311   0.84677   0.86417   0.87108
  Beta virt. eigenvalues --    0.88322   0.91880   0.93484   0.95455   0.95908
  Beta virt. eigenvalues --    0.99601   1.01125   1.01997   1.04792   1.07410
  Beta virt. eigenvalues --    1.11657   1.13020   1.14149   1.15849   1.17173
  Beta virt. eigenvalues --    1.20563   1.23897   1.26190   1.27548   1.31188
  Beta virt. eigenvalues --    1.32110   1.34030   1.35722   1.36042   1.37152
  Beta virt. eigenvalues --    1.40766   1.41275   1.42459   1.43611   1.44980
  Beta virt. eigenvalues --    1.46865   1.47661   1.48429   1.49496   1.50167
  Beta virt. eigenvalues --    1.50578   1.50967   1.52667   1.52960   1.53713
  Beta virt. eigenvalues --    1.54668   1.54868   1.56994   1.58126   1.58439
  Beta virt. eigenvalues --    1.59763   1.60623   1.61751   1.62304   1.63926
  Beta virt. eigenvalues --    1.65819   1.66965   1.68500   1.70064   1.71768
  Beta virt. eigenvalues --    1.72471   1.73441   1.74625   1.75561   1.76111
  Beta virt. eigenvalues --    1.77423   1.79481   1.79988   1.81990   1.84091
  Beta virt. eigenvalues --    1.85625   1.86479   1.89607   1.91192   1.92186
  Beta virt. eigenvalues --    1.93145   1.94370   1.95451   1.98114   2.00115
  Beta virt. eigenvalues --    2.01997   2.03547   2.06315   2.08194   2.08878
  Beta virt. eigenvalues --    2.10929   2.12925   2.14104   2.16796   2.18032
  Beta virt. eigenvalues --    2.18549   2.20399   2.21914   2.25981   2.26571
  Beta virt. eigenvalues --    2.30174   2.31664   2.33022   2.35604   2.36545
  Beta virt. eigenvalues --    2.37949   2.39377   2.41878   2.44045   2.44621
  Beta virt. eigenvalues --    2.45861   2.46835   2.47326   2.48588   2.49650
  Beta virt. eigenvalues --    2.50097   2.50973   2.52206   2.53082   2.54359
  Beta virt. eigenvalues --    2.54906   2.54997   2.55878   2.57522   2.58312
  Beta virt. eigenvalues --    2.59597   2.59932   2.64095   2.64836   2.67836
  Beta virt. eigenvalues --    2.69227   2.70092   2.71687   2.72864   2.75203
  Beta virt. eigenvalues --    2.76258   2.78223   2.79548   2.81301   2.83872
  Beta virt. eigenvalues --    2.85038   2.87227   2.88180   2.92423   2.93196
  Beta virt. eigenvalues --    2.95088   2.99890   3.01451   3.03605   3.03674
  Beta virt. eigenvalues --    3.10835   3.12488   3.13243   3.16160   3.17413
  Beta virt. eigenvalues --    3.19553   3.23564   3.25852   3.35024   3.45962
  Beta virt. eigenvalues --    3.50231   3.55699   3.70685   3.75851   3.77834
  Beta virt. eigenvalues --    3.78628   3.79311   3.80501   3.81689   3.82459
  Beta virt. eigenvalues --    3.83190   3.84742   3.90209   3.99841   4.04037
  Beta virt. eigenvalues --    4.13023   4.21106   4.22478   4.26967   4.35094
  Beta virt. eigenvalues --    4.39288   4.85060   4.92340   5.04434   5.31127
  Beta virt. eigenvalues --    5.43838   5.47077  23.70091  23.81582  23.81805
  Beta virt. eigenvalues --   23.88748  23.89768  23.91345  23.95295  23.95672
  Beta virt. eigenvalues --   23.95802  49.81455  49.87696
          Condensed to atoms (all electrons):
              1          2          3          4          5          6
     1  C    5.173472   0.361497  -0.062528  -0.006044  -0.012411  -0.005307
     2  C    0.361497   5.005594   0.364753  -0.055111   0.001887  -0.004173
     3  C   -0.062528   0.364753   4.964598   0.363508   0.002924  -0.049293
     4  C   -0.006044  -0.055111   0.363508   4.919080  -0.054632   0.334224
     5  C   -0.012411   0.001887   0.002924  -0.054632   5.090453   0.365461
     6  C   -0.005307  -0.004173  -0.049293   0.334224   0.365461   5.041961
     7  H    0.392931  -0.045401  -0.007228  -0.000003  -0.000086  -0.003159
     8  H   -0.048666   0.403459  -0.045108  -0.003279   0.000386  -0.001697
     9  H   -0.008355  -0.044331   0.403719  -0.040994   0.000132  -0.009397
    10  H   -0.000701  -0.008431  -0.034646   0.404406  -0.007181  -0.044065
    11  H    0.399778  -0.032069   0.006496  -0.000398   0.000923   0.000336
    12  H    0.008813  -0.038747   0.406984  -0.033708  -0.000311   0.007848
    13  H   -0.000192   0.008380  -0.037678   0.408748   0.005760  -0.034714
    14  H   -0.001139  -0.001515  -0.006732  -0.046684  -0.040058   0.409113
    15  H    0.001958  -0.000361   0.004696  -0.029320  -0.036279   0.397495
    16  C   -0.001473   0.000193  -0.000677   0.008678   0.365484  -0.074288
    17  H    0.000171  -0.000022   0.000039  -0.000133  -0.033427  -0.003144
    18  H   -0.000646   0.000016   0.000007  -0.000348  -0.026832   0.007032
    19  H    0.001553  -0.000037   0.000055  -0.000192  -0.030587  -0.007303
    20  C    0.002406  -0.000368   0.000755  -0.012504   0.331281  -0.062232
    21  H    0.000033   0.000014  -0.000096   0.000262  -0.037217  -0.006151
    22  H   -0.000216   0.000017  -0.000007  -0.000008  -0.032558   0.007551
    23  H    0.000088   0.000095  -0.000116   0.000039  -0.030610  -0.006189
    24  C   -0.078133   0.365992  -0.066130   0.007741  -0.000081  -0.000178
    25  H   -0.003671  -0.032185   0.008322  -0.000437  -0.000001   0.000028
    26  H   -0.002741  -0.035904  -0.006208  -0.000039   0.000010  -0.000045
    27  H    0.010020  -0.031453  -0.005954   0.000028  -0.000001   0.000000
    28  O   -0.001179   0.000674  -0.004433   0.005207   0.162093  -0.031497
    29  O    0.010442  -0.000229  -0.000014  -0.000139  -0.044794   0.003826
    30  H   -0.003219  -0.000013   0.000030   0.000082  -0.000761  -0.000826
              7          8          9         10         11         12
     1  C    0.392931  -0.048666  -0.008355  -0.000701   0.399778   0.008813
     2  C   -0.045401   0.403459  -0.044331  -0.008431  -0.032069  -0.038747
     3  C   -0.007228  -0.045108   0.403719  -0.034646   0.006496   0.406984
     4  C   -0.000003  -0.003279  -0.040994   0.404406  -0.000398  -0.033708
     5  C   -0.000086   0.000386   0.000132  -0.007181   0.000923  -0.000311
     6  C   -0.003159  -0.001697  -0.009397  -0.044065   0.000336   0.007848
     7  H    0.566566   0.009119   0.004752   0.000145  -0.032335  -0.000101
     8  H    0.009119   0.612799   0.009717   0.004730  -0.006479  -0.006189
     9  H    0.004752   0.009717   0.609761   0.009101  -0.000090  -0.033712
    10  H    0.000145   0.004730   0.009101   0.592631  -0.000005  -0.004297
    11  H   -0.032335  -0.006479  -0.000090  -0.000005   0.546450  -0.000452
    12  H   -0.000101  -0.006189  -0.033712  -0.004297  -0.000452   0.599541
    13  H   -0.000129  -0.000102  -0.005377  -0.033528   0.000042  -0.008065
    14  H   -0.000274  -0.000032   0.004812   0.007130   0.000109   0.000355
    15  H   -0.000226  -0.000134   0.000247   0.003337  -0.000036  -0.000429
    16  C    0.000576   0.000105  -0.000041   0.000530   0.000056   0.000013
    17  H   -0.000092  -0.000011   0.000009   0.000001   0.000004   0.000000
    18  H    0.000065   0.000009   0.000002   0.000005   0.000085  -0.000001
    19  H   -0.000049  -0.000027  -0.000009   0.000000  -0.000097   0.000001
    20  C   -0.000057  -0.000341  -0.000039  -0.002285  -0.000203   0.000021
    21  H   -0.000007   0.000003   0.000000   0.000211  -0.000006   0.000000
    22  H    0.000012   0.000017   0.000003  -0.000339  -0.000052  -0.000002
    23  H    0.000013   0.000206  -0.000023   0.002625  -0.000044   0.000019
    24  C   -0.000411  -0.046467  -0.005914   0.000098  -0.002566  -0.006494
    25  H   -0.000450  -0.005913  -0.000277  -0.000010   0.003306   0.000065
    26  H    0.003290   0.009438   0.005470   0.000019  -0.000437  -0.000727
    27  H   -0.000194  -0.005491  -0.000408   0.000004  -0.000076   0.004571
    28  O   -0.001384   0.004734  -0.000104   0.001612  -0.004944  -0.000091
    29  O   -0.000447  -0.000341  -0.000003  -0.000364   0.003712   0.000001
    30  H    0.000129   0.000615   0.000004   0.000031   0.000142   0.000000
             13         14         15         16         17         18
     1  C   -0.000192  -0.001139   0.001958  -0.001473   0.000171  -0.000646
     2  C    0.008380  -0.001515  -0.000361   0.000193  -0.000022   0.000016
     3  C   -0.037678  -0.006732   0.004696  -0.000677   0.000039   0.000007
     4  C    0.408748  -0.046684  -0.029320   0.008678  -0.000133  -0.000348
     5  C    0.005760  -0.040058  -0.036279   0.365484  -0.033427  -0.026832
     6  C   -0.034714   0.409113   0.397495  -0.074288  -0.003144   0.007032
     7  H   -0.000129  -0.000274  -0.000226   0.000576  -0.000092   0.000065
     8  H   -0.000102  -0.000032  -0.000134   0.000105  -0.000011   0.000009
     9  H   -0.005377   0.004812   0.000247  -0.000041   0.000009   0.000002
    10  H   -0.033528   0.007130   0.003337   0.000530   0.000001   0.000005
    11  H    0.000042   0.000109  -0.000036   0.000056   0.000004   0.000085
    12  H   -0.008065   0.000355  -0.000429   0.000013   0.000000  -0.000001
[...]
 .00014734,0.00011874,-0.00018408,0.00023294,0.00009159,-0.00024243,-0.
 00128841,0.00114337,0.00006564,-0.00176650,-0.00095585,-0.00052947,-0.
 00000624,0.00008740,0.00013259,-0.00027499,0.00037542,0.00011521,0.000
 10163,0.00032400,-0.00001516,0.00013557,0.00007306,-0.00012254,-0.0001
 3075,-0.00001588,0.00009787,-0.00004068,-0.00002457,0.00000289,0.00011
 989,0.00014267,-0.00018669,0.00010573,0.00012806,0.00003679,-0.0001534
 9,-0.00008515,0.00000365,-0.00001795,-0.00008097,0.00007946,-0.0318320
 2,0.55937389,0.02133187,0.00503126,0.00175659,-0.00785799,-0.00088923,
 -0.07327616,0.00214041,0.00084378,0.00060685,0.00003829,0.00012066,-0.
 00036957,-0.00158154,-0.00050042,-0.00013464,0.00073667,0.00016993,0.0
 0012044,-0.00077390,-0.00065398,-0.00076556,-0.03049049,-0.00834022,-0
 .00453104,0.00100567,0.00071289,0.00014355,0.00014710,-0.00000241,0.00
 029045,-0.00038460,0.00025079,0.00023546,-0.00057397,-0.00081250,-0.00
 000190,-0.00002323,-0.00005181,0.00036576,-0.00002924,-0.00007272,-0.0
 0000854,-0.00018466,0.00031178,-0.00005305,0.00012564,0.00010924,0.000
 09254,0.00008229,0.00007658,-0.00007739,-0.00009086,-0.00004102,0.0000
 5048,-0.00004794,-0.00002382,-0.00000407,0.00015381,0.00001794,-0.0001
 6817,0.00004237,0.00011504,0.00003653,-0.00012463,-0.00009697,0.000007
 46,-0.00001180,-0.00001553,0.00006623,-0.01421209,-0.00537458,0.555109
 29,0.00172391,-0.00161566,-0.00012046,-0.00333818,-0.03063759,0.004177
 26,-0.00650051,0.00011903,-0.00105611,0.00058079,-0.00200998,0.0002106
 4,-0.00024290,-0.00027304,0.00006436,0.00033190,0.00005011,-0.00012840
 ,-0.00013405,0.00015961,-0.00003664,0.00135502,0.00049031,-0.00016764,
 -0.00004035,0.00009059,0.00022656,0.00007077,0.00006453,-0.00003868,-0
 .00042818,0.00053429,0.00015543,0.00009978,0.00002142,-0.00032410,-0.0
 0063348,-0.00034748,-0.00018695,0.00001288,0.00004398,0.00004511,-0.00
 006504,0.00008565,0.00002262,0.00000940,0.00008512,-0.00001235,0.00003
 016,0.00001633,-0.00002485,-0.00003873,0.00000177,0.00002246,-0.000005
 02,-0.00001092,0.00000391,0.00002611,0.00005098,-0.00005339,0.00002700
 ,0.00002761,0.00001236,-0.00004525,-0.00001411,-0.00000012,0.00000235,
 -0.00002281,0.00003497,-0.04834594,-0.02296819,0.00189281,0.05366155,0
 .00120469,0.00051964,-0.00042536,-0.00043407,-0.00726170,0.00075385,-0
 .00249613,0.00059141,-0.00098672,0.00052446,-0.00030069,0.00031831,0.0
 0000146,-0.00013358,0.00005232,0.00000737,-0.00007577,-0.00011047,0.00
 003195,0.00006794,0.00000413,-0.00017895,0.00046531,-0.00045539,0.0001
 4459,0.00022955,-0.00000958,-0.00004857,-0.00000316,-0.00005922,-0.000
 44452,0.00039650,0.00026705,0.00004971,0.00039860,0.00016466,-0.000221
 36,-0.00011409,-0.00005394,0.00000496,0.00001287,0.00001534,-0.0000895
 7,0.00003263,0.00005223,-0.00002166,0.00005550,-0.00001951,0.00001275,
 0.00000050,-0.00000574,-0.00002478,0.00001256,0.00000992,0.00000507,-0
 .00000998,0.00000256,-0.00000708,0.00003617,-0.00003228,0.00001304,0.0
 0000349,0.00000673,-0.00002664,0.00000707,-0.00000024,0.00000924,-0.00
 001279,0.00003379,-0.02375228,-0.30460114,0.02291287,0.02728378,0.3303
 3750,0.00013650,0.00066645,-0.00029798,-0.00014750,-0.00530668,-0.0011
 3615,-0.00075183,-0.00018636,-0.00002624,-0.00013730,-0.00023326,0.000
 61059,0.00007395,-0.00000188,0.00001280,-0.00012854,-0.00006453,-0.000
 04069,0.00005450,0.00004988,0.00005084,0.00030055,-0.00035204,0.000129
 61,-0.00008630,-0.00043595,0.00034983,0.00009988,0.00005996,0.00001519
 ,0.00010014,-0.00006103,0.00015720,-0.00023849,0.00041692,0.00010363,-
 0.00004698,-0.00004061,-0.00002027,-0.00001130,0.00000313,0.00000041,-
 0.00001694,-0.00000806,0.00002184,-0.00000560,0.00000342,-0.00000409,-
 0.00000304,-0.00000473,0.00000041,0.00000346,0.00000379,0.00000134,0.0
 0000047,0.00000363,-0.00000310,-0.00001069,-0.00000221,0.00001046,-0.0
 0000222,-0.00000517,-0.00000412,0.00000391,0.00000550,0.00000022,0.000
 00489,-0.00000174,-0.00000413,0.00221728,0.02271793,-0.04906314,-0.001
 81811,-0.02445723,0.04864954,0.00236263,-0.00002399,-0.00164160,-0.011
 64733,0.00881465,-0.02815111,0.00134396,0.00180414,-0.00045341,-0.0000
 3407,-0.00006049,0.00023049,-0.00018656,0.00013964,-0.00006385,0.00009
 746,0.00006253,-0.00005782,-0.00044399,-0.00008586,0.00045518,-0.00584
 833,-0.00195881,-0.00055592,0.00004273,-0.00072966,0.00052929,0.000183
 94,0.00007272,0.00017315,-0.00013575,-0.00002287,0.00008974,0.00001113
 ,-0.00019993,0.00009485,-0.00000824,-0.00005348,0.00007640,-0.00002074
 ,-0.00000099,0.00002985,-0.00002355,0.00003495,-0.00000531,-0.00001254
 ,-0.00002956,0.00001053,-0.00000551,0.00000522,0.00000550,-0.00000339,
 -0.00000308,0.00000332,0.00000015,0.00000370,0.00000519,0.00001910,-0.
 00003968,-0.00001485,-0.00001008,0.00000360,0.00000143,-0.00000761,-0.
 00000677,0.00000570,0.00000513,0.00001079,0.00001935,-0.07134205,0.022
 16168,-0.07282738,0.00032371,-0.00029923,0.00331263,0.07968224,0.00035
 721,-0.00027207,0.00003779,-0.00250446,0.00161687,-0.00850982,0.000012
 92,0.00097492,-0.00116259,-0.00005096,-0.00006621,-0.00002720,0.000044
 61,0.00005774,-0.00001209,-0.00001652,0.00001075,0.00005387,0.00008885
 ,0.00013759,0.00005302,-0.00192634,0.00010616,-0.00045014,-0.00024290,
 0.00008365,0.00024148,0.00005426,-0.00006536,0.00010859,-0.00000259,0.
 00000581,0.00010958,0.00003740,-0.00001011,-0.00009487,0.00001788,-0.0
 0000615,0.00002699,-0.00001673,0.00000314,0.00000023,0.00002049,-0.000
 01255,-0.00001158,0.00000761,-0.00002100,0.00001285,-0.00000731,-0.000
 00188,0.00000284,0.00000769,-0.00000286,-0.00000456,-0.00000192,0.0000
 0369,-0.00000416,0.00000472,-0.00001303,0.00001160,-0.00000596,-0.0000
 0326,-0.00000263,0.00000874,0.00000072,0.00000105,0.00000308,0.0000045
 1,-0.00001000,0.02236088,-0.06731938,0.06462774,0.01028143,-0.00782250
 ,0.02988472,-0.02304605,0.06867800,0.00070616,-0.00064442,0.00077905,-
 0.00206269,0.00068901,-0.00398219,0.00045790,0.00038504,0.00025331,0.0
 0005141,-0.00025865,0.00033002,0.00016028,0.00016572,-0.00003822,-0.00
 005713,-0.00000804,-0.00001665,-0.00039984,0.00022754,0.00030354,-0.00
 075541,-0.00039313,0.00136000,-0.00028567,-0.00071086,0.00028666,0.000
 18112,0.00012736,0.00004460,0.00001299,0.00000147,-0.00000407,-0.00006
 941,0.00002056,-0.00013401,-0.00006976,-0.00006306,-0.00002087,-0.0000
 0900,0.00001827,0.00001275,-0.00000236,-0.00003511,0.00000724,-0.00002
 430,-0.00002983,0.00000176,-0.00001849,-0.00001155,0.00001265,0.000011
 32,0.00000542,-0.00000809,0.00000860,0.00000650,-0.00000084,-0.0000080
 9,-0.00002818,0.00001008,-0.00001504,-0.00001841,-0.00000118,0.0000146
 6,0.00001197,0.00000082,0.00000292,0.00001401,0.00000512,-0.07275489,0
 .06475916,-0.26072639,0.00016732,0.00048110,-0.00179363,0.08172121,-0.
 07133753,0.28239266,-0.00591656,-0.00309402,-0.00217079,-0.02027017,0.
 01296607,0.02126966,0.00090392,0.00171379,0.00078069,0.00004368,-0.000
 00579,-0.00045511,0.00106202,0.00054823,-0.00000962,-0.00031016,-0.000
 03677,0.00009250,0.00007038,0.00021418,0.00033746,0.00130792,0.0005100
 6,-0.00026685,0.00004006,-0.00008213,-0.00008774,-0.00005108,0.0000342
 2,0.00002180,0.00020076,0.00010431,-0.00002295,0.00043614,-0.00111253,
 -0.00039044,0.00005512,-0.00001620,-0.00001506,0.00001075,0.00004129,-
 0.00002385,0.00015532,-0.00022967,-0.00000977,-0.00008104,-0.00013877,
 -0.00001202,-0.00007708,-0.00005585,0.00006481,0.00007086,0.00002235,-
 0.00005024,0.00003147,0.00001489,-0.00001402,-0.00010106,-0.00004836,0
 .00010571,-0.00004947,-0.00008626,-0.00002107,0.00008707,0.00006622,-0
 .00000122,0.00001903,0.00003085,-0.00003573,-0.12939407,0.06546585,0.1
 0221551,0.00172518,-0.00107805,-0.00300106,0.00623478,-0.00553834,-0.0
 0696871,0.14350163,-0.00032518,-0.00010316,-0.00023346,-0.00633335,0.0
 0258595,0.00629329,-0.00065589,0.00072726,0.00081038,0.00003490,0.0001
 3331,-0.00000406,-0.00002952,-0.00000733,0.00000310,0.00000252,0.00001
 870,0.00002856,0.00017904,0.00008613,-0.00000008,0.00077265,0.00009712
 ,0.00008108,-0.00004220,-0.00005352,0.00003290,0.00002611,-0.00000652,
 0.00001985,-0.00024091,0.00022790,0.00008536,-0.00017876,-0.00005289,-
 0.00016747,0.00004917,0.00002908,-0.00000575,0.00001181,-0.00000560,0.
 00000161,0.00002205,0.00002650,-0.00001735,0.00000278,-0.00001560,-0.0
 0000179,-0.00000231,0.00000362,0.00000196,0.00000365,-0.00000328,-0.00
 000127,-0.00000064,0.00000065,0.00000600,0.00000642,-0.00000122,0.0000
 0522,-0.00000223,0.00000098,0.00000101,0.00000554,-0.00000379,-0.00000
 246,-0.00000337,0.00000453,-0.00000637,0.06536964,-0.09624239,-0.07745
 908,0.01839997,-0.01295845,-0.02267610,-0.00627074,0.00391847,0.006691
 42,-0.07065973,0.10150818,0.00107837,-0.00027853,0.00113980,-0.0048450
 3,0.00214772,0.00323027,-0.00002058,-0.00011978,-0.00017607,-0.0000698
 0,0.00032083,0.00023531,-0.00032990,-0.00008977,0.00000447,0.00004199,
 0.00000997,-0.00008723,-0.00031407,0.00008220,0.00022245,0.00046857,0.
 00040137,0.00063282,0.00008342,-0.00008085,-0.00002133,-0.00001861,-0.
 00002005,-0.00003673,-0.00006137,-0.00007344,-0.00014684,0.00004446,0.
 00044840,0.00037650,0.00006634,0.00005882,0.00000183,0.00001179,-0.000
 00784,0.00001277,-0.00004424,0.00007689,0.00000433,0.00001035,0.000026
 99,-0.00000754,0.00001998,0.00001716,-0.00001472,-0.00001919,-0.000005
 36,0.00001508,-0.00000502,-0.00000302,0.00000684,0.00001818,0.00000609
 ,-0.00001486,0.00001307,0.00002435,0.,-0.00002197,-0.00001727,-0.00000
 003,-0.00000504,-0.00001075,0.00000672,0.10201389,-0.07730575,-0.16926
 568,-0.00286834,0.00158407,0.00226686,0.01689058,-0.01356836,-0.019238
 91,-0.11178786,0.08656637,0.18095714,0.07338718,0.01544768,0.03868462,
 -0.00500092,0.00503136,0.00708745,0.00214685,0.00185973,-0.00174177,0.
 00341098,0.00013117,0.00132948,-0.14884847,-0.02003437,-0.01344871,0.0
 2694478,0.01828139,-0.00195580,-0.00194513,-0.00110776,0.00032011,0.00
 137233,-0.00212859,-0.00517929,-0.00038536,0.00034835,-0.00002012,-0.0
 0014329,-0.00051642,-0.00072074,-0.00727148,0.00010785,-0.00365714,-0.
 00030580,-0.00180417,-0.00023650,-0.00148372,-0.00017537,-0.00023681,0
 .00035987,0.00029525,-0.00183674,-0.00557482,0.00796545,-0.00346190,-0
 .01918882,-0.03121672,0.01348192,-0.00386900,0.00235906,0.00497346,-0.
 00067826,-0.00068959,-0.00100625,0.00133513,0.00038901,-0.00127107,-0.
 01695851,-0.03341201,0.00447390,-0.00368143,0.00061840,-0.00632476,-0.
 00167284,-0.00007178,0.00102825,0.00186548,0.00018628,0.00048641,0.001
 37706,-0.00400809,-0.00595442,-0.00102520,-0.00025410,0.00039503,-0.00
 143147,0.00020579,0.00027517,0.00344789,-0.00018704,-0.00127817,0.0745
 3600,-0.03079337,-0.01700182,-0.01521561,-0.00155948,-0.00348680,-0.00
 444371,-0.00099669,-0.00153213,0.00096241,-0.00230685,0.00236122,-0.00
 124369,-0.02901425,-0.08939175,0.01928528,-0.01444944,-0.04237530,0.00
 692912,0.00082552,0.00043679,-0.00105533,-0.00025039,0.00114458,0.0024
 3650,0.00030245,-0.00003931,0.00000463,0.00013976,0.00014068,0.0006763
 7,-0.00898750,-0.00019364,-0.00365057,0.00029019,0.00122613,0.00026204
 ,0.00031623,0.00043491,0.00053738,-0.00103997,0.00251876,0.00054334,0.
 00413153,-0.00442031,0.00212546,-0.01270448,-0.01047814,0.00874864,-0.
 00120005,0.00099458,0.00255325,0.00187570,0.00041679,-0.00109919,0.000
 97362,0.00056874,0.00066908,-0.01718069,-0.02378288,-0.00356230,-0.002
 34764,-0.00146966,-0.00293113,0.00238948,0.00121076,0.00161742,0.00095
 006,0.00111203,0.00088935,-0.00037633,0.00364937,0.00417226,0.00087861
 ,0.00019816,-0.00024045,0.00060505,-0.00011122,-0.00032002,-0.00253061
 ,0.00013387,0.00068738,0.12489203,0.16447835,0.02719209,0.00848635,0.0
 0630466,0.00341904,0.00392035,0.00372740,0.00057962,0.00121840,-0.0004
 8803,0.00133898,-0.00179554,-0.00050440,-0.00499691,0.01402684,-0.0705
 4295,0.00883735,0.01481919,-0.00206091,-0.00346182,-0.00195704,0.00032
 819,0.00079885,-0.00097268,-0.00118571,-0.00009332,-0.00001414,0.00011
 403,-0.00011154,-0.00013245,0.00058830,-0.00101633,0.00013982,-0.00077
 302,-0.00024320,-0.00084002,-0.00017803,-0.00037129,-0.00027996,0.0002
 2511,0.00082308,-0.00015254,-0.00050147,-0.00246267,0.00269044,-0.0012
 0258,0.02181203,0.02878554,-0.00542859,0.00562622,-0.00006534,-0.00516
 850,-0.00180226,-0.00023336,0.00154929,-0.00130505,0.00080691,0.002466
 36,-0.01453190,-0.02115376,0.00886424,-0.00432652,-0.00090136,-0.00379
 237,-0.00116326,0.00006252,0.00018682,0.00089392,-0.00001695,0.0030051
 4,0.00081799,-0.00313375,-0.00308604,-0.00062784,-0.00009538,0.0001348
 2,-0.00034254,0.00008409,0.00032009,0.00204617,-0.00006404,-0.00057516
 ,-0.05814389,-0.01971441,0.07851994,-0.04748649,-0.00510184,-0.0256749
 6,-0.00292772,-0.00495538,-0.00641533,-0.00113520,-0.00202140,0.001155
 80,-0.00167078,0.00057343,-0.00063074,0.03065997,0.00319557,0.00944028
 ,-0.00818268,-0.00756630,-0.00023226,-0.00091018,0.00008846,-0.0008353
 0,-0.00044397,0.00124877,0.00293925,0.00031210,-0.00009201,-0.00001877
 ,-0.00006736,0.00015448,0.00035936,0.00107169,-0.00025071,0.00082895,0
 .00025542,0.00128317,0.00022731,0.00088388,0.00027485,-0.00002597,-0.0
 0009181,0.00035546,0.00122750,0.00247824,-0.00225194,0.00112716,-0.000
 79851,-0.00087420,0.00014678,-0.00003742,-0.00073306,0.00062267,0.0011
 1659,-0.00084490,-0.00007975,0.00019249,-0.00004541,0.00060035,-0.0023
 4034,-0.00063295,-0.00256496,0.00105204,-0.00191492,0.00087779,0.00291
 229,-0.00121596,0.00086475,0.00003311,0.00026433,-0.00022844,-0.000450
 53,0.00415300,0.00489261,0.00086949,0.00011449,-0.00026138,0.00075750,
 -0.00013867,-0.00029384,-0.00300326,0.00005460,0.00090288,0.02571143,-
 0.02429527,0.03845704,0.12708960,0.05024367,0.00542858,0.02783921,0.00
 308731,0.00498758,0.00643908,0.00093515,0.00166531,-0.00125185,0.00144
 310,-0.00053098,0.00071076,-0.00986806,-0.02403468,-0.00205090,0.00414
 402,0.00553624,0.00167275,0.00095712,0.00023328,0.00093528,0.00051896,
 -0.00143510,-0.00333160,-0.00028995,0.00019424,0.00003374,0.00002539,-
 0.00014675,-0.00044196,0.00024150,0.00059949,-0.00008505,-0.00012989,-
 0.00116014,-0.00024637,-0.00068939,-0.00021205,-0.00010093,0.00054563,
 -0.00085189,-0.00071252,-0.00125964,0.00189778,-0.00071834,0.00061349,
 0.00171134,0.00097662,0.00078377,0.00068070,-0.00115163,-0.00142034,-0
 .00120723,0.00153151,0.00001683,-0.00029238,-0.00012610,-0.00300721,-0
 .00474080,0.00052946,0.00125922,-0.00020210,0.00015290,-0.00016536,-0.
 00486021,-0.00041048,0.00023798,-0.00047600,0.00001907,0.00053654,-0.0
 0415407,-0.00509431,-0.00074759,-0.00001833,0.00027167,-0.00085346,0.0
 0014106,0.00026041,0.00298170,-0.00004323,-0.00087561,-0.07667662,0.02
 168201,-0.04007887,0.05126867,0.01870101,-0.02460758,-0.00170262,-0.01
 180169,-0.00226458,-0.00289336,-0.00377386,-0.00068208,-0.00098609,0.0
 0071192,-0.00106722,0.00044763,-0.00036570,0.00427832,0.00784843,-0.00
 073008,-0.00170119,-0.00268873,-0.00051534,-0.00045639,0.00000970,-0.0
 0020936,-0.00046002,0.00072793,0.00182410,0.00020660,-0.00008541,0.000
 00900,-0.00017422,0.00018657,0.00043782,0.00048512,-0.00019603,0.00029
 972,0.00007668,0.00068437,0.00013584,0.00034163,0.00010725,0.00012348,
 0.00002072,-0.00001177,0.00070973,0.00071353,-0.00066256,0.00061663,0.
 00000085,0.00039929,-0.00161861,-0.00070562,-0.00007446,0.00068524,0.0
 0041778,0.00132281,-0.00116015,-0.00008852,0.00028216,0.00015427,-0.00
 153482,-0.00105795,-0.00070703,0.00086461,-0.00123469,0.00102443,0.002
 29697,-0.00067059,0.00019104,-0.00027691,0.00068077,-0.00002458,-0.000
 42284,0.00239851,0.00290051,0.00048113,0.00004837,-0.00014386,0.000474
 57,-0.00006584,-0.00017592,-0.00176677,0.00003002,0.00051464,0.0337950
 6,-0.00051669,-0.00747037,-0.22825060,-0.05079253,0.41895512,-0.000891
 67,0.00035501,-0.00111690,-0.00036549,-0.00020487,-0.00064382,0.000051
 14,-0.00000455,0.00013374,0.00001739,-0.00006717,-0.00010521,-0.002661
 33,0.00065695,-0.00029322,0.00058935,0.00031013,-0.00034666,-0.0001919
 2,-0.00022138,0.00004533,-0.00015785,0.00017606,0.00043979,0.00000601,
 -0.00008370,0.00002572,0.00002971,0.00005637,0.00005852,-0.00018724,-0
 .00018629,-0.00029685,-0.00001874,0.00001935,0.00000330,-0.00000253,-0
 .00002734,0.00004251,-0.00008065,-0.00000505,-0.00000646,-0.00012112,0
 .00010034,0.00004659,-0.00100035,-0.00000229,0.00015315,0.00014147,-0.
 00027683,0.00020245,0.00063483,-0.00021083,-0.00017398,0.00007241,-0.0
 0005876,0.00001078,0.00070847,-0.00041416,0.00000811,-0.00018086,0.000
 21561,-0.00020379,-0.00051553,-0.00019443,0.00053143,0.00017596,-0.000
 10134,-0.00000100,-0.00004484,0.00019460,0.00036366,-0.00000717,-0.000
 03055,-0.00003593,0.00009675,-0.00001481,0.00002357,-0.00015004,-0.000
 00898,0.00002532,0.00356954,0.01146276,-0.01764203,-0.12584962,-0.0247
 3253,0.22000579,0.12633393,0.00073997,0.00023737,-0.00012462,0.0000295
 9,-0.00009922,0.00016322,0.00010481,-0.00000104,-0.00005410,0.00007896
 ,-0.00003555,0.00015552,0.00253541,-0.00221967,0.00299799,-0.00067609,
 -0.00062878,0.00012196,-0.00009990,-0.00011831,-0.00006143,0.00015849,
 0.00005903,-0.00008715,-0.00004002,-0.00000521,-0.00004125,0.00009839,
 -0.00008251,-0.00018282,-0.00010502,-0.00005038,-0.00015792,-0.0000217
 7,-0.00001666,0.00001433,-0.00002589,0.00005561,-0.00007129,-0.0000781
 6,0.00004984,-0.00010051,0.00020781,-0.00019669,0.00005205,0.00033253,
 -0.00007916,-0.00015504,0.00009694,0.00000599,-0.00000934,-0.00001226,
 -0.00002825,-0.00019555,0.00001995,-0.00010029,-0.00007296,0.00008596,
 0.00010875,0.00041491,-0.00001522,0.00036429,-0.00043357,-0.00097274,-
 0.00045197,0.00021098,0.00021275,-0.00045172,-0.00032551,0.00005005,0.
 00007457,-0.00004418,-0.00003773,-0.00005320,-0.00000896,-0.00003403,-
 0.00001547,-0.00000615,-0.00000093,-0.00000526,-0.00000225,-0.00583618
 ,-0.00842478,0.01656115,-0.01009436,-0.01909268,0.04846550,0.01329869,
 0.03120138,0.00039291,0.00037557,0.00039294,0.00012267,0.00018497,0.00
 045619,0.00003776,0.00013376,-0.00012110,-0.00000632,0.00006320,0.0001
 7719,0.00088161,0.00109872,-0.00034967,-0.00030299,-0.00013259,-0.0000
 1899,0.00010641,-0.00011299,0.00004577,-0.00006816,0.00000068,-0.00008
 212,-0.00002324,-0.00000087,0.00000478,-0.00000103,0.00004631,-0.00003
 118,-0.00016584,-0.00012109,-0.00017757,0.00003482,-0.00009120,-0.0000
 2792,-0.00001703,-0.00005624,-0.00001041,0.00000118,0.00004123,-0.0000
 6437,0.00000493,-0.00022889,0.00005771,-0.00000996,-0.00053634,0.00010
 495,-0.00029505,0.00012658,0.00011752,-0.00032464,0.00016088,0.0000139
 7,0.00004876,-0.00004303,-0.00006651,-0.00007725,-0.00040300,0.0001853
 5,-0.00007475,-0.00000520,-0.00020660,-0.00018193,0.00000523,0.0001530
 1,0.00012136,-0.00024649,-0.00002885,-0.00004380,-0.00021580,-0.000250
 80,-0.00005295,0.00000377,0.00002183,-0.00001518,0.00000491,0.00002062
 ,0.00017655,-0.00001883,-0.00004271,0.00014322,0.00089318,-0.00337630,
 0.20084183,0.06609658,-0.40059696,-0.20125390,-0.06702301,0.40370022\\
 0.00000105,0.00000167,-0.00000665,0.00000026,-0.00000460,-0.00000354,-
 0.00000150,-0.00000352,0.00000443,-0.00000246,-0.00000361,0.00000857,-
 0.00000001,0.00000279,0.00000111,-0.00000172,0.00000358,0.00000713,0.0
 0000220,0.00000788,-0.00000485,0.00000078,-0.00000937,-0.00000514,-0.0
 0000172,0.00000151,0.00000645,-0.00000240,-0.00000817,0.00000672,0.000
 00334,0.00000173,-0.00001281,-0.00000246,-0.00000828,0.00000702,-0.000
 00419,-0.00000387,0.00001403,-0.00000107,0.00000827,0.00000584,-0.0000
 0295,0.00000523,0.00001212,0.00000082,0.00001106,0.00000007,-0.0000004
 8,0.00001309,0.00000505,0.00000168,0.00001046,-0.00000425,0.00000138,0
 .00001488,-0.00000159,-0.00000112,-0.00000207,0.00000349,-0.00000241,-
 0.00000073,0.00000886,0.00000026,-0.00000226,-0.00000030,-0.00000171,-
 0.00000787,0.00000411,0.00000130,-0.00000525,-0.00000625,0.00000298,-0
 .00000602,-0.00001206,0.00000128,-0.00000062,-0.00000474,0.00000040,-0
 .00001036,-0.00000391,0.00000378,0.00000025,-0.00000530,0.00000177,0.0
 0000042,-0.00001139,0.00000291,-0.00000620,-0.00001225\\\@
 Job cpu time:  0 days  9 hours 59 minutes 16.5 seconds.
 File lengths (MBytes):  RWF=  77669 Int=      0 D2E=      0 Chk=     26 Scr=      1
 Normal termination of Gaussian 09 at Thu Mar 27 02:22:18 2014.
