 Entering Gaussian System, Link 0=g09
 Initial command:
 /usr/caen/gaussian-09revc/g09/l1.exe /scratch/avioli_flux/hetanjin/scratch/Gau-16242.inp -scrdir=/scratch/avioli_flux/hetanjin/scratch/
 Entering Link 1 = /usr/caen/gaussian-09revc/g09/l1.exe PID=     16243.
  
 Copyright (c) 1988,1990,1992,1993,1995,1998,2003,2009,2011,
            Gaussian, Inc.  All Rights Reserved.
  
 This is part of the Gaussian(R) 09 program.  It is based on
 the Gaussian(R) 03 system (copyright 2003, Gaussian, Inc.),
 the Gaussian(R) 98 system (copyright 1998, Gaussian, Inc.),
 the Gaussian(R) 94 system (copyright 1995, Gaussian, Inc.),
 the Gaussian 92(TM) system (copyright 1992, Gaussian, Inc.),
 the Gaussian 90(TM) system (copyright 1990, Gaussian, Inc.),
 the Gaussian 88(TM) system (copyright 1988, Gaussian, Inc.),
 the Gaussian 86(TM) system (copyright 1986, Carnegie Mellon
 University), and the Gaussian 82(TM) system (copyright 1983,
 Carnegie Mellon University). Gaussian is a federally registered
 trademark of Gaussian, Inc.
  
 This software contains proprietary and confidential information,
 including trade secrets, belonging to Gaussian, Inc.
  
 This software is provided under written license and may be
 used, copied, transmitted, or stored only in accord with that
 written license.
  
 The following legend is applicable only to US Government
 contracts under FAR:
  
                    RESTRICTED RIGHTS LEGEND
  
 Use, reproduction and disclosure by the US Government is
 subject to restrictions as set forth in subparagraphs (a)
 and (c) of the Commercial Computer Software - Restricted
 Rights clause in FAR 52.227-19.
  
 Gaussian, Inc.
 340 Quinnipiac St., Bldg. 40, Wallingford CT 06492
  
  
 ---------------------------------------------------------------
 Warning -- This program may not be used in any manner that
 competes with the business of Gaussian, Inc. or will provide
 assistance to any competitor of Gaussian, Inc.  The licensee
 of this program is prohibited from giving any competitor of
 Gaussian, Inc. access to this program.  By using this program,
 the user acknowledges that Gaussian, Inc. is engaged in the
 business of creating and licensing software in the field of
 computational chemistry and represents and warrants to the
 licensee that it is not a competitor of Gaussian, Inc. and that
 it will not use this program in any manner prohibited above.
 ---------------------------------------------------------------
  

 Cite this work as:
 Gaussian 09, Revision C.01,
 M. J. Frisch, G. W. Trucks, H. B. Schlegel, G. E. Scuseria, 
 M. A. Robb, J. R. Cheeseman, G. Scalmani, V. Barone, B. Mennucci, 
 G. A. Petersson, H. Nakatsuji, M. Caricato, X. Li, H. P. Hratchian, 
 A. F. Izmaylov, J. Bloino, G. Zheng, J. L. Sonnenberg, M. Hada, 
 M. Ehara, K. Toyota, R. Fukuda, J. Hasegawa, M. Ishida, T. Nakajima, 
 Y. Honda, O. Kitao, H. Nakai, T. Vreven, J. A. Montgomery, Jr., 
 J. E. Peralta, F. Ogliaro, M. Bearpark, J. J. Heyd, E. Brothers, 
 K. N. Kudin, V. N. Staroverov, T. Keith, R. Kobayashi, J. Normand, 
 K. Raghavachari, A. Rendell, J. C. Burant, S. S. Iyengar, J. Tomasi, 
 M. Cossi, N. Rega, J. M. Millam, M. Klene, J. E. Knox, J. B. Cross, 
 V. Bakken, C. Adamo, J. Jaramillo, R. Gomperts, R. E. Stratmann, 
 O. Yazyev, A. J. Austin, R. Cammi, C. Pomelli, J. W. Ochterski, 
 R. L. Martin, K. Morokuma, V. G. Zakrzewski, G. A. Voth, 
 P. Salvador, J. J. Dannenberg, S. Dapprich, A. D. Daniels, 
 O. Farkas, J. B. Foresman, J. V. Ortiz, J. Cioslowski, 
 and D. J. Fox, Gaussian, Inc., Wallingford CT, 2010.
 
 ******************************************
 Gaussian 09:  EM64L-G09RevC.01 23-Sep-2011
                29-Apr-2014 
 ******************************************
 %mem=30GB
 %nprocshared=8
 Will use up to    8 processors via shared memory.
 %chk=TS_2c_23.chk
 -------------------------------
 #p cbs-qb3 opt=(TS,calcfc) freq
 -------------------------------
 1/5=1,10=4,14=-1,18=20,26=3,38=1/1,3;
 2/9=110,12=2,17=6,18=5,40=1/2;
 3/5=4,6=6,7=700,11=2,16=1,25=1,30=1,71=2,74=-5/1,2,3;
 4//1;
 5/5=2,38=5/2;
 8/6=4,10=90,11=11/1;
 11/6=1,8=1,9=11,15=111,16=1/1,2,10;
 10/6=1,7=6,13=1/2;
 6/7=2,8=2,9=2,10=2,28=1/1;
 7/10=1,18=20,25=1/1,2,3,16;
 1/5=1,10=4,14=-1,18=20/3(2);
 2/9=110/2;
 99//99;
 2/9=110/2;
 3/5=4,6=6,7=700,11=2,16=1,25=1,30=1,71=1,74=-5/1,2,3;
 4/5=5,16=3/1;
 5/5=2,38=5/2;
 7//1,2,3,16;
 1/5=1,14=-1,18=20/3(-5);
 2/9=110/2;
 6/7=2,8=2,9=2,10=2,19=2,28=1/1;
 99/9=1/99;
 Leave Link    1 at Tue Apr 29 10:33:09 2014, MaxMem= 4026531840 cpu:       0.5
 (Enter /usr/caen/gaussian-09revc/g09/l101.exe)
 -------------------------------------
 TS_2c_23 using cbs-qb3 to cal. energy
 -------------------------------------
 Charge =  0 Multiplicity = 2
 Symbolic Z-Matrix:
 C                     3.21204  -0.90033  -0.92541 
 H                     3.0211   -0.65055  -1.97109 
 H                     3.37445  -1.97861  -0.83985 
 H                     4.11772  -0.37916  -0.61138 
 C                     0.70002  -0.74772  -0.62796 
 H                     0.66099  -0.81214  -1.71136 
 C                    -0.59273  -0.80727   0.1019 
 H                    -0.44603  -0.65814   1.17389 
 H                    -0.99046  -1.82657  -0.01889 
 C                    -1.63296   0.20443  -0.42624 
 H                    -1.81064   0.01882  -1.49347 
 H                    -1.18982   1.20212  -0.35603 
 C                    -2.97891   0.19073   0.32131 
 H                    -2.76693   0.33488   1.38981 
 C                    -3.85314   1.36455  -0.14257 
 H                    -4.09813   1.27246  -1.20623 
 H                    -4.79485   1.39957   0.41267 
 H                    -3.34325   2.32151  -0.00024 
 C                     2.27177  -0.76963   1.42237 
 H                     2.3763   -1.84657   1.58074 
 H                     3.18771  -0.27334   1.74516 
 H                     1.4549   -0.39867   2.04274 
 C                    -3.73152  -1.13812   0.16389 
 H                    -4.68702  -1.11      0.6954 
 H                    -3.94582  -1.34035  -0.8915 
 H                    -3.1652   -1.98573   0.55861 
 C                     2.04451  -0.44834  -0.05136 
 O                     1.71002   0.91035  -0.27533 
 O                     3.03266   1.91106   0.23508 
 H                     2.46908   2.44938   0.80735 
 
 NAtoms=     30 NQM=        0 NQMF=       0 NMMI=     30 NMMIF=      0
                NMic=       0 NMicF=      0.
                    Isotopes and Nuclear Properties:
 (Nuclear quadrupole moments (NQMom) in fm**2, nuclear magnetic moments (NMagM)
  in nuclear magnetons)

  Atom         1           2           3           4           5           6           7           8           9          10
 IAtWgt=          12           1           1           1          12           1          12           1           1          12
 AtmWgt=  12.0000000   1.0078250   1.0078250   1.0078250  12.0000000   1.0078250  12.0000000   1.0078250   1.0078250  12.0000000
 NucSpn=           0           1           1           1           0           1           0           1           1           0
 AtZEff=   0.0000000   0.0000000   0.0000000   0.0000000   0.0000000   0.0000000   0.0000000   0.0000000   0.0000000   0.0000000
 NQMom=    0.0000000   0.0000000   0.0000000   0.0000000   0.0000000   0.0000000   0.0000000   0.0000000   0.0000000   0.0000000
 NMagM=    0.0000000   2.7928460   2.7928460   2.7928460   0.0000000   2.7928460   0.0000000   2.7928460   2.7928460   0.0000000

  Atom        11          12          13          14          15          16          17          18          19          20
 IAtWgt=           1           1          12           1          12           1           1           1          12           1
 AtmWgt=   1.0078250   1.0078250  12.0000000   1.0078250  12.0000000   1.0078250   1.0078250   1.0078250  12.0000000   1.0078250
 NucSpn=           1           1           0           1           0           1           1           1           0           1
 AtZEff=   0.0000000   0.0000000   0.0000000   0.0000000   0.0000000   0.0000000   0.0000000   0.0000000   0.0000000   0.0000000
 NQMom=    0.0000000   0.0000000   0.0000000   0.0000000   0.0000000   0.0000000   0.0000000   0.0000000   0.0000000   0.0000000
 NMagM=    2.7928460   2.7928460   0.0000000   2.7928460   0.0000000   2.7928460   2.7928460   2.7928460   0.0000000   2.7928460

  Atom        21          22          23          24          25          26          27          28          29          30
 IAtWgt=           1           1          12           1           1           1          12          16          16           1
 AtmWgt=   1.0078250   1.0078250  12.0000000   1.0078250   1.0078250   1.0078250  12.0000000  15.9949146  15.9949146   1.0078250
 NucSpn=           1           1           0           1           1           1           0           0           0           1
 AtZEff=   0.0000000   0.0000000   0.0000000   0.0000000   0.0000000   0.0000000   0.0000000   0.0000000   0.0000000   0.0000000
 NQMom=    0.0000000   0.0000000   0.0000000   0.0000000   0.0000000   0.0000000   0.0000000   0.0000000   0.0000000   0.0000000
 NMagM=    2.7928460   2.7928460   0.0000000   2.7928460   2.7928460   2.7928460   0.0000000   0.0000000   0.0000000   2.7928460
 Leave Link  101 at Tue Apr 29 10:33:10 2014, MaxMem= 4026531840 cpu:       2.3
 (Enter /usr/caen/gaussian-09revc/g09/l103.exe)

 GradGradGradGradGradGradGradGradGradGradGradGradGradGradGradGradGradGrad
 Berny optimization.
 Initialization pass.
                           ----------------------------
                           !    Initial Parameters    !
                           ! (Angstroms and Degrees)  !
 --------------------------                            --------------------------
 ! Name  Definition              Value          Derivative Info.                !
 --------------------------------------------------------------------------------
 ! R1    R(1,2)                  1.0919         calculate D2E/DX2 analytically  !
 ! R2    R(1,3)                  1.0938         calculate D2E/DX2 analytically  !
 ! R3    R(1,4)                  1.0911         calculate D2E/DX2 analytically  !
 ! R4    R(1,27)                 1.5269         calculate D2E/DX2 analytically  !
 ! R5    R(5,6)                  1.086          calculate D2E/DX2 analytically  !
 ! R6    R(5,7)                  1.4857         calculate D2E/DX2 analytically  !
 ! R7    R(5,27)                 1.4932         calculate D2E/DX2 analytically  !
 ! R8    R(7,8)                  1.0922         calculate D2E/DX2 analytically  !
 ! R9    R(7,9)                  1.1008         calculate D2E/DX2 analytically  !
 ! R10   R(7,10)                 1.5442         calculate D2E/DX2 analytically  !
 ! R11   R(10,11)                1.0977         calculate D2E/DX2 analytically  !
 ! R12   R(10,12)                1.0939         calculate D2E/DX2 analytically  !
 ! R13   R(10,13)                1.5397         calculate D2E/DX2 analytically  !
 ! R14   R(13,14)                1.0988         calculate D2E/DX2 analytically  !
 ! R15   R(13,15)                1.5354         calculate D2E/DX2 analytically  !
 ! R16   R(13,23)                1.5353         calculate D2E/DX2 analytically  !
 ! R17   R(15,16)                1.0954         calculate D2E/DX2 analytically  !
 ! R18   R(15,17)                1.0938         calculate D2E/DX2 analytically  !
 ! R19   R(15,18)                1.0936         calculate D2E/DX2 analytically  !
 ! R20   R(19,20)                1.0935         calculate D2E/DX2 analytically  !
 ! R21   R(19,21)                1.0906         calculate D2E/DX2 analytically  !
 ! R22   R(19,22)                1.0908         calculate D2E/DX2 analytically  !
 ! R23   R(19,27)                1.5254         calculate D2E/DX2 analytically  !
 ! R24   R(23,24)                1.0937         calculate D2E/DX2 analytically  !
 ! R25   R(23,25)                1.0958         calculate D2E/DX2 analytically  !
 ! R26   R(23,26)                1.0931         calculate D2E/DX2 analytically  !
 ! R27   R(27,28)                1.4171         calculate D2E/DX2 analytically  !
 ! R28   R(28,29)                1.7353         calculate D2E/DX2 analytically  !
 ! R29   R(29,30)                0.9669         calculate D2E/DX2 analytically  !
 ! A1    A(2,1,3)              109.0491         calculate D2E/DX2 analytically  !
 ! A2    A(2,1,4)              108.1501         calculate D2E/DX2 analytically  !
 ! A3    A(2,1,27)             110.2903         calculate D2E/DX2 analytically  !
 ! A4    A(3,1,4)              108.9722         calculate D2E/DX2 analytically  !
 ! A5    A(3,1,27)             111.136          calculate D2E/DX2 analytically  !
 ! A6    A(4,1,27)             109.1814         calculate D2E/DX2 analytically  !
 ! A7    A(6,5,7)              117.1554         calculate D2E/DX2 analytically  !
 ! A8    A(6,5,27)             115.4333         calculate D2E/DX2 analytically  !
 ! A9    A(7,5,27)             126.9976         calculate D2E/DX2 analytically  !
 ! A10   A(5,7,8)              111.088          calculate D2E/DX2 analytically  !
 ! A11   A(5,7,9)              107.3126         calculate D2E/DX2 analytically  !
 ! A12   A(5,7,10)             113.0707         calculate D2E/DX2 analytically  !
 ! A13   A(8,7,9)              106.4186         calculate D2E/DX2 analytically  !
 ! A14   A(8,7,10)             109.6763         calculate D2E/DX2 analytically  !
 ! A15   A(9,7,10)             109.0107         calculate D2E/DX2 analytically  !
 ! A16   A(7,10,11)            109.3155         calculate D2E/DX2 analytically  !
 ! A17   A(7,10,12)            107.6192         calculate D2E/DX2 analytically  !
 ! A18   A(7,10,13)            114.6449         calculate D2E/DX2 analytically  !
 ! A19   A(11,10,12)           106.3899         calculate D2E/DX2 analytically  !
 ! A20   A(11,10,13)           109.2102         calculate D2E/DX2 analytically  !
 ! A21   A(12,10,13)           109.3343         calculate D2E/DX2 analytically  !
 ! A22   A(10,13,14)           107.5967         calculate D2E/DX2 analytically  !
 ! A23   A(10,13,15)           110.1366         calculate D2E/DX2 analytically  !
 ! A24   A(10,13,23)           112.7343         calculate D2E/DX2 analytically  !
 ! A25   A(14,13,15)           107.6585         calculate D2E/DX2 analytically  !
 ! A26   A(14,13,23)           107.9283         calculate D2E/DX2 analytically  !
 ! A27   A(15,13,23)           110.5868         calculate D2E/DX2 analytically  !
 ! A28   A(13,15,16)           110.883          calculate D2E/DX2 analytically  !
 ! A29   A(13,15,17)           111.1832         calculate D2E/DX2 analytically  !
 ! A30   A(13,15,18)           111.3581         calculate D2E/DX2 analytically  !
 ! A31   A(16,15,17)           107.6415         calculate D2E/DX2 analytically  !
 ! A32   A(16,15,18)           107.7103         calculate D2E/DX2 analytically  !
 ! A33   A(17,15,18)           107.8986         calculate D2E/DX2 analytically  !
 ! A34   A(20,19,21)           108.9659         calculate D2E/DX2 analytically  !
 ! A35   A(20,19,22)           108.9149         calculate D2E/DX2 analytically  !
 ! A36   A(20,19,27)           111.1987         calculate D2E/DX2 analytically  !
 ! A37   A(21,19,22)           107.8093         calculate D2E/DX2 analytically  !
 ! A38   A(21,19,27)           108.3741         calculate D2E/DX2 analytically  !
 ! A39   A(22,19,27)           111.487          calculate D2E/DX2 analytically  !
 ! A40   A(13,23,24)           110.8653         calculate D2E/DX2 analytically  !
 ! A41   A(13,23,25)           110.7553         calculate D2E/DX2 analytically  !
 ! A42   A(13,23,26)           112.3428         calculate D2E/DX2 analytically  !
 ! A43   A(24,23,25)           107.5745         calculate D2E/DX2 analytically  !
 ! A44   A(24,23,26)           107.2807         calculate D2E/DX2 analytically  !
 ! A45   A(25,23,26)           107.8183         calculate D2E/DX2 analytically  !
 ! A46   A(1,27,5)             114.085          calculate D2E/DX2 analytically  !
 ! A47   A(1,27,19)            112.1347         calculate D2E/DX2 analytically  !
 ! A48   A(1,27,28)            111.9531         calculate D2E/DX2 analytically  !
 ! A49   A(5,27,19)            117.7087         calculate D2E/DX2 analytically  !
 ! A50   A(5,27,28)             85.3352         calculate D2E/DX2 analytically  !
 ! A51   A(19,27,28)           112.9433         calculate D2E/DX2 analytically  !
 ! A52   A(27,28,29)           109.0574         calculate D2E/DX2 analytically  !
 ! A53   A(28,29,30)            92.9159         calculate D2E/DX2 analytically  !
 ! D1    D(2,1,27,5)            43.3298         calculate D2E/DX2 analytically  !
 ! D2    D(2,1,27,19)         -179.644          calculate D2E/DX2 analytically  !
 ! D3    D(2,1,27,28)          -51.4963         calculate D2E/DX2 analytically  !
 ! D4    D(3,1,27,5)           -77.7345         calculate D2E/DX2 analytically  !
 ! D5    D(3,1,27,19)           59.2918         calculate D2E/DX2 analytically  !
 ! D6    D(3,1,27,28)         -172.5605         calculate D2E/DX2 analytically  !
 ! D7    D(4,1,27,5)           162.0317         calculate D2E/DX2 analytically  !
 ! D8    D(4,1,27,19)          -60.9421         calculate D2E/DX2 analytically  !
 ! D9    D(4,1,27,28)           67.2056         calculate D2E/DX2 analytically  !
 ! D10   D(6,5,7,8)           -175.6891         calculate D2E/DX2 analytically  !
 ! D11   D(6,5,7,9)             68.3651         calculate D2E/DX2 analytically  !
 ! D12   D(6,5,7,10)           -51.8753         calculate D2E/DX2 analytically  !
 ! D13   D(27,5,7,8)            -3.4501         calculate D2E/DX2 analytically  !
 ! D14   D(27,5,7,9)          -119.3959         calculate D2E/DX2 analytically  !
 ! D15   D(27,5,7,10)          120.3637         calculate D2E/DX2 analytically  !
 ! D16   D(6,5,27,1)           -26.7245         calculate D2E/DX2 analytically  !
 ! D17   D(6,5,27,19)         -161.2274         calculate D2E/DX2 analytically  !
 ! D18   D(6,5,27,28)           85.2618         calculate D2E/DX2 analytically  !
 ! D19   D(7,5,27,1)           160.9214         calculate D2E/DX2 analytically  !
 ! D20   D(7,5,27,19)           26.4184         calculate D2E/DX2 analytically  !
 ! D21   D(7,5,27,28)          -87.0923         calculate D2E/DX2 analytically  !
 ! D22   D(5,7,10,11)           58.0387         calculate D2E/DX2 analytically  !
 ! D23   D(5,7,10,12)          -57.114          calculate D2E/DX2 analytically  !
 ! D24   D(5,7,10,13)         -178.9771         calculate D2E/DX2 analytically  !
 ! D25   D(8,7,10,11)         -177.3756         calculate D2E/DX2 analytically  !
 ! D26   D(8,7,10,12)           67.4717         calculate D2E/DX2 analytically  !
 ! D27   D(8,7,10,13)          -54.3914         calculate D2E/DX2 analytically  !
 ! D28   D(9,7,10,11)          -61.2271         calculate D2E/DX2 analytically  !
 ! D29   D(9,7,10,12)         -176.3799         calculate D2E/DX2 analytically  !
 ! D30   D(9,7,10,13)           61.757          calculate D2E/DX2 analytically  !
 ! D31   D(7,10,13,14)          54.5378         calculate D2E/DX2 analytically  !
 ! D32   D(7,10,13,15)         171.6185         calculate D2E/DX2 analytically  !
 ! D33   D(7,10,13,23)         -64.3459         calculate D2E/DX2 analytically  !
 ! D34   D(11,10,13,14)        177.5785         calculate D2E/DX2 analytically  !
 ! D35   D(11,10,13,15)        -65.3407         calculate D2E/DX2 analytically  !
 ! D36   D(11,10,13,23)         58.6949         calculate D2E/DX2 analytically  !
 ! D37   D(12,10,13,14)        -66.3862         calculate D2E/DX2 analytically  !
 ! D38   D(12,10,13,15)         50.6945         calculate D2E/DX2 analytically  !
 ! D39   D(12,10,13,23)        174.7301         calculate D2E/DX2 analytically  !
 ! D40   D(10,13,15,16)         63.024          calculate D2E/DX2 analytically  !
 ! D41   D(10,13,15,17)       -177.2582         calculate D2E/DX2 analytically  !
 ! D42   D(10,13,15,18)        -56.8965         calculate D2E/DX2 analytically  !
 ! D43   D(14,13,15,16)       -179.9337         calculate D2E/DX2 analytically  !
 ! D44   D(14,13,15,17)        -60.2159         calculate D2E/DX2 analytically  !
 ! D45   D(14,13,15,18)         60.1458         calculate D2E/DX2 analytically  !
 ! D46   D(23,13,15,16)        -62.2456         calculate D2E/DX2 analytically  !
 ! D47   D(23,13,15,17)         57.4722         calculate D2E/DX2 analytically  !
 ! D48   D(23,13,15,18)        177.8339         calculate D2E/DX2 analytically  !
 ! D49   D(10,13,23,24)       -179.2834         calculate D2E/DX2 analytically  !
 ! D50   D(10,13,23,25)        -59.9418         calculate D2E/DX2 analytically  !
 ! D51   D(10,13,23,26)         60.6924         calculate D2E/DX2 analytically  !
 ! D52   D(14,13,23,24)         62.0262         calculate D2E/DX2 analytically  !
 ! D53   D(14,13,23,25)       -178.6322         calculate D2E/DX2 analytically  !
 ! D54   D(14,13,23,26)        -57.998          calculate D2E/DX2 analytically  !
 ! D55   D(15,13,23,24)        -55.4963         calculate D2E/DX2 analytically  !
 ! D56   D(15,13,23,25)         63.8452         calculate D2E/DX2 analytically  !
 ! D57   D(15,13,23,26)       -175.5206         calculate D2E/DX2 analytically  !
 ! D58   D(20,19,27,1)         -61.0546         calculate D2E/DX2 analytically  !
 ! D59   D(20,19,27,5)          74.283          calculate D2E/DX2 analytically  !
 ! D60   D(20,19,27,28)        171.3235         calculate D2E/DX2 analytically  !
 ! D61   D(21,19,27,1)          58.6908         calculate D2E/DX2 analytically  !
 ! D62   D(21,19,27,5)        -165.9716         calculate D2E/DX2 analytically  !
 ! D63   D(21,19,27,28)        -68.9311         calculate D2E/DX2 analytically  !
 ! D64   D(22,19,27,1)         177.1873         calculate D2E/DX2 analytically  !
 ! D65   D(22,19,27,5)         -47.4752         calculate D2E/DX2 analytically  !
 ! D66   D(22,19,27,28)         49.5654         calculate D2E/DX2 analytically  !
 ! D67   D(1,27,28,29)         -65.3378         calculate D2E/DX2 analytically  !
 ! D68   D(5,27,28,29)        -179.4527         calculate D2E/DX2 analytically  !
 ! D69   D(19,27,28,29)         62.3793         calculate D2E/DX2 analytically  !
 ! D70   D(27,28,29,30)       -126.4809         calculate D2E/DX2 analytically  !
 --------------------------------------------------------------------------------
 Trust Radius=3.00D-01 FncErr=1.00D-07 GrdErr=1.00D-06
 Number of steps in this run=    162 maximum allowed number of steps=    180.
 Search for a saddle point of order  1.
 GradGradGradGradGradGradGradGradGradGradGradGradGradGradGradGradGradGrad

 Leave Link  103 at Tue Apr 29 10:33:10 2014, MaxMem= 4026531840 cpu:       0.1
 (Enter /usr/caen/gaussian-09revc/g09/l202.exe)
                          Input orientation:                          
 ---------------------------------------------------------------------
 Center     Atomic      Atomic             Coordinates (Angstroms)
 Number     Number       Type             X           Y           Z
 ---------------------------------------------------------------------
      1          6           0        3.212036   -0.900327   -0.925408
      2          1           0        3.021104   -0.650553   -1.971092
      3          1           0        3.374449   -1.978606   -0.839846
      4          1           0        4.117722   -0.379162   -0.611377
      5          6           0        0.700019   -0.747721   -0.627956
      6          1           0        0.660987   -0.812138   -1.711363
      7          6           0       -0.592733   -0.807267    0.101898
      8          1           0       -0.446031   -0.658137    1.173892
      9          1           0       -0.990460   -1.826574   -0.018886
     10          6           0       -1.632959    0.204431   -0.426235
     11          1           0       -1.810639    0.018823   -1.493471
     12          1           0       -1.189817    1.202123   -0.356028
     13          6           0       -2.978905    0.190726    0.321311
     14          1           0       -2.766926    0.334877    1.389805
     15          6           0       -3.853136    1.364545   -0.142567
     16          1           0       -4.098126    1.272463   -1.206229
     17          1           0       -4.794852    1.399571    0.412671
     18          1           0       -3.343249    2.321508   -0.000244
     19          6           0        2.271765   -0.769634    1.422367
     20          1           0        2.376302   -1.846570    1.580736
     21          1           0        3.187706   -0.273338    1.745158
     22          1           0        1.454902   -0.398668    2.042739
     23          6           0       -3.731519   -1.138121    0.163892
     24          1           0       -4.687015   -1.109995    0.695397
     25          1           0       -3.945819   -1.340354   -0.891503
     26          1           0       -3.165202   -1.985729    0.558609
     27          6           0        2.044509   -0.448337   -0.051364
     28          8           0        1.710015    0.910354   -0.275325
     29          8           0        3.032664    1.911060    0.235081
     30          1           0        2.469075    2.449376    0.807351
 ---------------------------------------------------------------------
                    Distance matrix (angstroms):
                    1          2          3          4          5
     1  C    0.000000
     2  H    1.091924   0.000000
     3  H    1.093794   1.779970   0.000000
     4  H    1.091098   1.767781   1.778447   0.000000
     5  C    2.534166   2.683448   2.951703   3.437558   0.000000
     6  H    2.670834   2.379857   3.079459   3.653280   1.086022
     7  C    3.942117   4.169132   4.242340   4.783348   1.485746
     8  H    4.224591   4.681026   4.516065   4.908447   2.137314
     9  H    4.397805   4.613760   4.444043   5.342244   2.095855
    10  C    4.994361   4.977739   5.478217   5.783182   2.527859
    11  H    5.137587   4.901217   5.594827   6.006825   2.764075
    12  H    4.911293   4.875725   5.584231   5.543973   2.728977
    13  C    6.408780   6.477883   6.813178   7.180306   3.913601
    14  H    6.529466   6.765205   6.931092   7.205065   4.154887
    15  C    7.460505   7.393193   7.993800   8.172813   5.042667
    16  H    7.631405   7.413936   8.157393   8.401302   5.238104
    17  H    8.437431   8.424637   8.928514   9.145848   5.990607
    18  H    7.362602   7.295367   8.020186   7.958215   5.114900
    19  C    2.532437   3.477248   2.791977   2.774192   2.583542
    20  H    2.806169   3.802855   2.621631   3.160884   2.982568
    21  H    2.743288   3.739059   3.102428   2.535623   3.470633
    22  H    3.485553   4.315933   3.806594   3.759697   2.797195
    23  C    7.032501   7.098859   7.225558   7.923866   4.518624
    24  H    8.066348   8.169232   8.252191   8.931135   5.559014
    25  H    7.171448   7.083739   7.348221   8.125457   4.690893
    26  H    6.636985   6.815604   6.687508   7.549232   4.228538
    27  C    1.526882   2.163327   2.175355   2.148630   1.493232
    28  O    2.440746   2.651605   3.381585   2.751879   1.973234
    29  O    3.046770   3.380709   4.049912   2.671883   3.640767
    30  H    3.843820   4.199291   4.810404   3.568116   3.925697
                    6          7          8          9         10
     6  H    0.000000
     7  C    2.204485   0.000000
     8  H    3.094172   1.092214   0.000000
     9  H    2.573099   1.100801   1.756237   0.000000
    10  C    2.819070   1.544192   2.170997   2.168806   0.000000
    11  H    2.616660   2.170466   3.071686   2.500517   1.097731
    12  H    3.052811   2.145659   2.520801   3.053918   1.093935
    13  C    4.287926   2.595756   2.804089   2.852919   1.539670
    14  H    4.762717   2.773141   2.533624   3.132429   2.144971
    15  C    5.251321   3.925144   4.175245   4.288759   2.521015
    16  H    5.220142   4.280684   4.767598   4.546581   2.797522
    17  H    6.258543   4.756524   4.870920   5.006761   3.482770
    18  H    5.364846   4.167134   4.318652   4.768915   2.754737
    19  C    3.523730   3.154426   2.731407   3.719737   4.428657
    20  H    3.853605   3.475958   3.089249   3.727503   4.930387
    21  H    4.315339   4.156573   3.698440   4.793899   5.308674
    22  H    3.859345   2.850724   2.106126   3.502714   3.999306
    23  C    4.787166   3.156784   3.470579   2.832098   2.560205
    24  H    5.872166   4.148136   4.291745   3.832519   3.508993
    25  H    4.708911   3.537543   4.120654   3.119618   2.819957
    26  H    4.601066   2.866174   3.087874   2.255733   2.848594
    27  C    2.191365   2.665964   2.783533   3.333411   3.753719
    28  O    2.475812   2.897442   3.034622   3.853453   3.420026
    29  O    4.102353   4.533271   4.425320   5.497266   5.011782
    30  H    4.500064   4.525269   4.276544   5.561906   4.836134
                   11         12         13         14         15
    11  H    0.000000
    12  H    1.754821   0.000000
    13  C    2.165140   2.163920   0.000000
    14  H    3.054121   2.507453   1.098815   0.000000
    15  C    2.794227   2.676792   1.535355   2.142016   0.000000
    16  H    2.624256   3.030850   2.180869   3.064401   1.095389
    17  H    3.800706   3.691363   2.183419   2.490150   1.093776
    18  H    3.143402   2.452932   2.185492   2.492205   1.093626
    19  C    5.078366   4.362690   5.450151   5.158431   6.672192
    20  H    5.519141   5.075706   5.866427   5.589987   7.217128
    21  H    5.963013   5.074906   6.345848   5.996152   7.471253
    22  H    4.831443   3.912947   4.792634   4.334541   6.004977
    23  C    2.788396   3.493896   1.535266   2.145466   2.524291
    24  H    3.786676   4.322242   2.179324   2.501320   2.742423
    25  H    2.601677   3.787673   2.179460   3.066032   2.808198
    26  H    3.172397   3.860195   2.197265   2.496943   3.491309
    27  C    4.142472   3.643858   5.077596   5.083335   6.170662
    28  O    3.830628   2.915590   4.781193   4.811116   5.583239
    29  O    5.479602   4.322192   6.253475   6.119884   6.917770
    30  H    5.432985   4.036902   5.917620   5.676801   6.484563
                   16         17         18         19         20
    16  H    0.000000
    17  H    1.767037   0.000000
    18  H    1.767692   1.768507   0.000000
    19  C    7.187154   7.460698   6.565620   0.000000
    20  H    7.708032   7.957842   7.251595   1.093526   0.000000
    21  H    8.011463   8.264102   7.241065   1.090620   1.777771
    22  H    6.647149   6.704492   5.881785   1.090753   1.777314
    23  C    2.796882   2.762689   3.485215   6.144832   6.309899
    24  H    3.104686   2.527743   3.750311   7.004923   7.156592
    25  H    2.636107   3.151018   3.816630   6.658684   6.807161
    26  H    3.821101   3.759962   4.346988   5.637870   5.636699
    27  C    6.482810   7.099785   6.058266   1.525372   2.174602
    28  O    5.893404   6.559418   5.253808   2.453585   3.389621
    29  O    7.302968   7.846220   6.393443   3.028983   4.044920
    30  H    6.969057   7.350000   5.869555   3.283169   4.365992
                   21         22         23         24         25
    21  H    0.000000
    22  H    1.762632   0.000000
    23  C    7.150100   5.565592   0.000000
    24  H    7.988318   6.328069   1.093737   0.000000
    25  H    7.679693   6.218065   1.095756   1.766547   0.000000
    26  H    6.685778   5.105562   1.093140   1.761118   1.768812
    27  C    2.136590   2.176091   5.821051   6.805061   6.114373
    28  O    2.768944   2.674330   5.830905   6.778356   6.118318
    29  O    2.660069   3.330436   7.420023   8.302536   7.780753
    30  H    2.968010   3.265897   7.192464   7.993202   7.641925
                   26         27         28         29         30
    26  H    0.000000
    27  C    5.465961   0.000000
    28  O    5.731534   1.417070   0.000000
    29  O    7.328245   2.573957   1.735318   0.000000
    30  H    7.174755   3.051948   2.029026   0.966907   0.000000
 Stoichiometry    C9H19O2(2)
 Framework group  C1[X(C9H19O2)]
 Deg. of freedom    84
 Full point group                 C1      NOp   1
 Largest Abelian subgroup         C1      NOp   1
 Largest concise Abelian subgroup C1      NOp   1
                         Standard orientation:                         
 ---------------------------------------------------------------------
 Center     Atomic      Atomic             Coordinates (Angstroms)
 Number     Number       Type             X           Y           Z
 ---------------------------------------------------------------------
      1          6           0        3.212036   -0.900327   -0.925408
      2          1           0        3.021104   -0.650553   -1.971092
      3          1           0        3.374449   -1.978606   -0.839846
      4          1           0        4.117722   -0.379162   -0.611377
      5          6           0        0.700019   -0.747721   -0.627956
      6          1           0        0.660987   -0.812138   -1.711363
      7          6           0       -0.592733   -0.807267    0.101898
      8          1           0       -0.446031   -0.658137    1.173892
      9          1           0       -0.990460   -1.826574   -0.018886
     10          6           0       -1.632959    0.204431   -0.426235
     11          1           0       -1.810639    0.018823   -1.493471
     12          1           0       -1.189817    1.202123   -0.356028
     13          6           0       -2.978905    0.190726    0.321311
     14          1           0       -2.766926    0.334877    1.389805
     15          6           0       -3.853136    1.364545   -0.142567
     16          1           0       -4.098126    1.272463   -1.206229
     17          1           0       -4.794852    1.399571    0.412671
     18          1           0       -3.343249    2.321508   -0.000244
     19          6           0        2.271765   -0.769634    1.422367
     20          1           0        2.376302   -1.846570    1.580736
     21          1           0        3.187706   -0.273338    1.745158
     22          1           0        1.454902   -0.398668    2.042739
     23          6           0       -3.731519   -1.138121    0.163892
     24          1           0       -4.687015   -1.109995    0.695397
     25          1           0       -3.945819   -1.340354   -0.891503
     26          1           0       -3.165202   -1.985729    0.558609
     27          6           0        2.044509   -0.448337   -0.051364
     28          8           0        1.710015    0.910354   -0.275325
     29          8           0        3.032664    1.911060    0.235081
     30          1           0        2.469075    2.449376    0.807351
 ---------------------------------------------------------------------
 Rotational constants (GHZ):      1.9962157      0.4314612      0.3952118
 Leave Link  202 at Tue Apr 29 10:33:10 2014, MaxMem= 4026531840 cpu:       0.5
 (Enter /usr/caen/gaussian-09revc/g09/l301.exe)
 Standard basis: 6-311G(2d,d,p) (5D, 7F)
 Ernie: Thresh=  0.10000D-02 Tol=  0.10000D-05 Strict=F.
 There are   312 symmetry adapted basis functions of A   symmetry.
 Integral buffers will be    131072 words long.
 Raffenetti 2 integral format.
 Two-electron integral symmetry is turned on.
   312 basis functions,   504 primitive gaussians,   323 cartesian basis functions
    45 alpha electrons       44 beta electrons
       nuclear repulsion energy       653.1206137972 Hartrees.
 IExCor=  402 DFT=T Ex+Corr=B3LYP ExCW=0 ScaHFX=  0.200000
 ScaDFX=  0.800000  0.720000  1.000000  0.810000 ScalE2=  1.000000  1.000000
 IRadAn=      0 IRanWt=     -1 IRanGd=            0 ICorTp=0
 NAtoms=   30 NActive=   30 NUniq=   30 SFac= 1.00D+00 NAtFMM=   60 NAOKFM=F Big=F
 Leave Link  301 at Tue Apr 29 10:33:11 2014, MaxMem= 4026531840 cpu:       0.8
 (Enter /usr/caen/gaussian-09revc/g09/l302.exe)
 NPDir=0 NMtPBC=     1 NCelOv=     1 NCel=       1 NClECP=     1 NCelD=      1
         NCelK=      1 NCelE2=     1 NClLst=     1 CellRange=     0.0.
 One-electron integrals computed using PRISM.
 NBasis=   312 RedAO= T  NBF=   312
 NBsUse=   312 1.00D-06 NBFU=   312
 Precomputing XC quadrature grid using
 IXCGrd= 2 IRadAn=           0 IRanWt=          -1 IRanGd=           0 AccXCQ= 0.00D+00.
 NRdTot=    1915 NPtTot=      243260 NUsed=      257068 NTot=      257100
 NSgBfM=   323   323   323   323   323 NAtAll=    30    30.
 Leave Link  302 at Tue Apr 29 10:33:12 2014, MaxMem= 4026531840 cpu:       7.1
 (Enter /usr/caen/gaussian-09revc/g09/l303.exe)
 DipDrv:  MaxL=1.
 Leave Link  303 at Tue Apr 29 10:33:13 2014, MaxMem= 4026531840 cpu:       3.6
 (Enter /usr/caen/gaussian-09revc/g09/l401.exe)
 Harris functional with IExCor=  402 diagonalized for initial guess.
 ExpMin= 1.03D-01 ExpMax= 8.59D+03 ExpMxC= 1.30D+03 IAcc=1 IRadAn=         1 AccDes= 0.00D+00
 HarFok:  IExCor=  402 AccDes= 0.00D+00 IRadAn=         1 IDoV= 1
 ScaDFX=  1.000000  1.000000  1.000000  1.000000
 FoFCou: FMM=F IPFlag=           0 FMFlag=      100000 FMFlg1=           0
         NFxFlg=           0 DoJE=T BraDBF=F KetDBF=T FulRan=T
         Omega=  0.000000  0.000000  1.000000  0.000000  0.000000 ICntrl=     500 IOpCl=  0
         NMat0=    1 NMatS0=    1 NMatT0=    0 NMatD0=    1 NMtDS0=    0 NMtDT0=    0
         I1Cent=           4 NGrid=           0.
 Petite list used in FoFCou.
 Harris En= -504.918413497586    
 Initial guess orbital symmetries:
 Alpha Orbitals:
       Occupied  (A) (A) (A) (A) (A) (A) (A) (A) (A) (A) (A) (A)
                 (A) (A) (A) (A) (A) (A) (A) (A) (A) (A) (A) (A)
                 (A) (A) (A) (A) (A) (A) (A) (A) (A) (A) (A) (A)
                 (A) (A) (A) (A) (A) (A) (A) (A) (A)
       Virtual   (A) (A) (A) (A) (A) (A) (A) (A) (A) (A) (A) (A)
                 (A) (A) (A) (A) (A) (A) (A) (A) (A) (A) (A) (A)
                 (A) (A) (A) (A) (A) (A) (A) (A) (A) (A) (A) (A)
                 (A) (A) (A) (A) (A) (A) (A) (A) (A) (A) (A) (A)
                 (A) (A) (A) (A) (A) (A) (A) (A) (A) (A) (A) (A)
                 (A) (A) (A) (A) (A) (A) (A) (A) (A) (A) (A) (A)
                 (A) (A) (A) (A) (A) (A) (A) (A) (A) (A) (A) (A)
                 (A) (A) (A) (A) (A) (A) (A) (A) (A) (A) (A) (A)
                 (A) (A) (A) (A) (A) (A) (A) (A) (A) (A) (A) (A)
                 (A) (A) (A) (A) (A) (A) (A) (A) (A) (A) (A) (A)
                 (A) (A) (A) (A) (A) (A) (A) (A) (A) (A) (A) (A)
                 (A) (A) (A) (A) (A) (A) (A) (A) (A) (A) (A) (A)
                 (A) (A) (A) (A) (A) (A) (A) (A) (A) (A) (A) (A)
                 (A) (A) (A) (A) (A) (A) (A) (A) (A) (A) (A) (A)
                 (A) (A) (A) (A) (A) (A) (A) (A) (A) (A) (A) (A)
                 (A) (A) (A) (A) (A) (A) (A) (A) (A) (A) (A) (A)
                 (A) (A) (A) (A) (A) (A) (A) (A) (A) (A) (A) (A)
                 (A) (A) (A) (A) (A) (A) (A) (A) (A) (A) (A) (A)
                 (A) (A) (A) (A) (A) (A) (A) (A) (A) (A) (A) (A)
                 (A) (A) (A) (A) (A) (A) (A) (A) (A) (A) (A) (A)
                 (A) (A) (A) (A) (A) (A) (A) (A) (A) (A) (A) (A)
                 (A) (A) (A) (A) (A) (A) (A) (A) (A) (A) (A) (A)
                 (A) (A) (A)
 Beta  Orbitals:
       Occupied  (A) (A) (A) (A) (A) (A) (A) (A) (A) (A) (A) (A)
                 (A) (A) (A) (A) (A) (A) (A) (A) (A) (A) (A) (A)
                 (A) (A) (A) (A) (A) (A) (A) (A) (A) (A) (A) (A)
                 (A) (A) (A) (A) (A) (A) (A) (A)
       Virtual   (A) (A) (A) (A) (A) (A) (A) (A) (A) (A) (A) (A)
                 (A) (A) (A) (A) (A) (A) (A) (A) (A) (A) (A) (A)
                 (A) (A) (A) (A) (A) (A) (A) (A) (A) (A) (A) (A)
                 (A) (A) (A) (A) (A) (A) (A) (A) (A) (A) (A) (A)
                 (A) (A) (A) (A) (A) (A) (A) (A) (A) (A) (A) (A)
                 (A) (A) (A) (A) (A) (A) (A) (A) (A) (A) (A) (A)
                 (A) (A) (A) (A) (A) (A) (A) (A) (A) (A) (A) (A)
                 (A) (A) (A) (A) (A) (A) (A) (A) (A) (A) (A) (A)
                 (A) (A) (A) (A) (A) (A) (A) (A) (A) (A) (A) (A)
                 (A) (A) (A) (A) (A) (A) (A) (A) (A) (A) (A) (A)
                 (A) (A) (A) (A) (A) (A) (A) (A) (A) (A) (A) (A)
                 (A) (A) (A) (A) (A) (A) (A) (A) (A) (A) (A) (A)
                 (A) (A) (A) (A) (A) (A) (A) (A) (A) (A) (A) (A)
                 (A) (A) (A) (A) (A) (A) (A) (A) (A) (A) (A) (A)
                 (A) (A) (A) (A) (A) (A) (A) (A) (A) (A) (A) (A)
                 (A) (A) (A) (A) (A) (A) (A) (A) (A) (A) (A) (A)
                 (A) (A) (A) (A) (A) (A) (A) (A) (A) (A) (A) (A)
                 (A) (A) (A) (A) (A) (A) (A) (A) (A) (A) (A) (A)
                 (A) (A) (A) (A) (A) (A) (A) (A) (A) (A) (A) (A)
                 (A) (A) (A) (A) (A) (A) (A) (A) (A) (A) (A) (A)
                 (A) (A) (A) (A) (A) (A) (A) (A) (A) (A) (A) (A)
                 (A) (A) (A) (A) (A) (A) (A) (A) (A) (A) (A) (A)
                 (A) (A) (A) (A)
 The electronic state of the initial guess is 2-A.
 Initial guess <Sx>= 0.0000 <Sy>= 0.0000 <Sz>= 0.5000 <S**2>= 0.7500 S= 0.5000
 Leave Link  401 at Tue Apr 29 10:33:15 2014, MaxMem= 4026531840 cpu:       8.0
 (Enter /usr/caen/gaussian-09revc/g09/l502.exe)
 UHF open shell SCF:
 Requested convergence on RMS density matrix=1.00D-08 within 128 cycles.
 Requested convergence on MAX density matrix=1.00D-06.
 Requested convergence on             energy=1.00D-06.
 No special actions if energy rises.
 Using DIIS extrapolation, IDIIS=  1040.
 Integral symmetry usage will be decided dynamically.
       256785 words used for storage of precomputed grid.
 Keep R1 and R2 ints in memory in canonical form, NReq=2755661516.
 IEnd=      592943 IEndB=      592943 NGot=  4026531840 MDV=  1287997560
 LenX=  1287997560 LenY=  1287892790
 Symmetry not used in FoFDir.
 MinBra= 0 MaxBra= 2 Meth= 1.
 IRaf=       0 NMat=   1 IRICut=       1 DoRegI=T DoRafI=F ISym2E= 0 JSym2E=0.
 Integral accuracy reduced to 1.0D-05 until final iterations.

 Cycle   1  Pass 0  IDiag  1:
 E= -504.429091304655    
 DIIS: error= 3.79D-02 at cycle   1 NSaved=   1.
 NSaved= 1 IEnMin= 1 EnMin= -504.429091304655     IErMin= 1 ErrMin= 3.79D-02
 ErrMax= 3.79D-02 EMaxC= 1.00D-01 BMatC= 1.71D+00 BMatP= 1.71D+00
 IDIUse=3 WtCom= 6.21D-01 WtEn= 3.79D-01
 Coeff-Com:  0.100D+01
 Coeff-En:   0.100D+01
 Coeff:      0.100D+01
 Gap=     0.145 Goal=   None    Shift=    0.000
 Gap=     0.126 Goal=   None    Shift=    0.000
 GapD=    0.126 DampG=1.000 DampE=0.500 DampFc=0.5000 IDamp=-1.
 Damping current iteration by 5.00D-01
 RMSDP=3.89D-03 MaxDP=1.90D-01              OVMax= 4.25D-01

 Cycle   2  Pass 0  IDiag  1:
 E= -504.565815169938     Delta-E=       -0.136723865283 Rises=F Damp=T
 DIIS: error= 1.30D-02 at cycle   2 NSaved=   2.
 NSaved= 2 IEnMin= 2 EnMin= -504.565815169938     IErMin= 2 ErrMin= 1.30D-02
 ErrMax= 1.30D-02 EMaxC= 1.00D-01 BMatC= 2.09D-01 BMatP= 1.71D+00
 IDIUse=3 WtCom= 8.70D-01 WtEn= 1.30D-01
 Coeff-Com:  0.166D+00 0.834D+00
 Coeff-En:   0.279D+00 0.721D+00
 Coeff:      0.181D+00 0.819D+00
 Gap=     0.253 Goal=   None    Shift=    0.000
 Gap=     0.232 Goal=   None    Shift=    0.000
 RMSDP=1.37D-03 MaxDP=6.10D-02 DE=-1.37D-01 OVMax= 3.83D-01

 Cycle   3  Pass 0  IDiag  1:
 E= -504.733863768455     Delta-E=       -0.168048598517 Rises=F Damp=F
 DIIS: error= 2.58D-02 at cycle   3 NSaved=   3.
 NSaved= 3 IEnMin= 3 EnMin= -504.733863768455     IErMin= 2 ErrMin= 1.30D-02
 ErrMax= 2.58D-02 EMaxC= 1.00D-01 BMatC= 4.50D-01 BMatP= 2.09D-01
 IDIUse=2 WtCom= 0.00D+00 WtEn= 1.00D+00
 Coeff-En:   0.000D+00 0.197D-01 0.980D+00
 Coeff:      0.000D+00 0.197D-01 0.980D+00
 Gap=     0.143 Goal=   None    Shift=    0.000
 Gap=     0.215 Goal=   None    Shift=    0.000
 RMSDP=3.63D-03 MaxDP=2.61D-01 DE=-1.68D-01 OVMax= 9.22D-01

 Cycle   4  Pass 0  IDiag  1:
 E= -503.026352529792     Delta-E=        1.707511238663 Rises=F Damp=F
 DIIS: error= 8.18D-02 at cycle   4 NSaved=   4.
 NSaved= 4 IEnMin= 3 EnMin= -504.733863768455     IErMin= 2 ErrMin= 1.30D-02
 ErrMax= 8.18D-02 EMaxC= 1.00D-01 BMatC= 5.98D+00 BMatP= 2.09D-01
 IDIUse=2 WtCom= 0.00D+00 WtEn= 1.00D+00
 Coeff-En:   0.000D+00 0.000D+00 0.889D+00 0.111D+00
 Coeff:      0.000D+00 0.000D+00 0.889D+00 0.111D+00
 Gap=     0.138 Goal=   None    Shift=    0.000
 Gap=    -0.036 Goal=   None    Shift=    0.000
 RMSDP=2.78D-03 MaxDP=2.53D-01 DE= 1.71D+00 OVMax= 9.90D-01

 Cycle   5  Pass 0  IDiag  1:
 E= -504.706747964937     Delta-E=       -1.680395435146 Rises=F Damp=F
 DIIS: error= 2.86D-02 at cycle   5 NSaved=   5.
 NSaved= 5 IEnMin= 3 EnMin= -504.733863768455     IErMin= 2 ErrMin= 1.30D-02
 ErrMax= 2.86D-02 EMaxC= 1.00D-01 BMatC= 6.04D-01 BMatP= 2.09D-01
 IDIUse=2 WtCom= 0.00D+00 WtEn= 1.00D+00
 Coeff-En:   0.000D+00 0.000D+00 0.541D+00 0.000D+00 0.459D+00
 Coeff:      0.000D+00 0.000D+00 0.541D+00 0.000D+00 0.459D+00
 Gap=     0.206 Goal=   None    Shift=    0.000
 Gap=     0.153 Goal=   None    Shift=    0.000
 RMSDP=8.82D-04 MaxDP=4.21D-02 DE=-1.68D+00 OVMax= 1.58D-01

 Cycle   6  Pass 0  IDiag  1:
 E= -504.834270256116     Delta-E=       -0.127522291179 Rises=F Damp=F
 DIIS: error= 2.39D-03 at cycle   6 NSaved=   6.
 NSaved= 6 IEnMin= 6 EnMin= -504.834270256116     IErMin= 6 ErrMin= 2.39D-03
 ErrMax= 2.39D-03 EMaxC= 1.00D-01 BMatC= 7.85D-03 BMatP= 2.09D-01
 IDIUse=3 WtCom= 9.76D-01 WtEn= 2.39D-02
 Coeff-Com: -0.514D-03 0.685D-02 0.225D+00-0.856D-02 0.202D+00 0.575D+00
 Coeff-En:   0.000D+00 0.000D+00 0.000D+00 0.000D+00 0.000D+00 0.100D+01
 Coeff:     -0.501D-03 0.669D-02 0.220D+00-0.835D-02 0.197D+00 0.585D+00
 Gap=     0.163 Goal=   None    Shift=    0.000
 Gap=     0.148 Goal=   None    Shift=    0.000
 RMSDP=1.96D-04 MaxDP=8.64D-03 DE=-1.28D-01 OVMax= 3.59D-02

 Cycle   7  Pass 0  IDiag  1:
 E= -504.835303552310     Delta-E=       -0.001033296194 Rises=F Damp=F
 DIIS: error= 2.58D-03 at cycle   7 NSaved=   7.
 NSaved= 7 IEnMin= 7 EnMin= -504.835303552310     IErMin= 6 ErrMin= 2.39D-03
 ErrMax= 2.58D-03 EMaxC= 1.00D-01 BMatC= 6.31D-03 BMatP= 7.85D-03
 IDIUse=3 WtCom= 9.76D-01 WtEn= 2.39D-02
 Coeff-Com: -0.654D-02-0.226D-03-0.607D-02-0.109D-02-0.344D-01 0.478D+00
 Coeff-Com:  0.570D+00
 Coeff-En:   0.000D+00 0.000D+00 0.000D+00 0.000D+00 0.000D+00 0.345D+00
 Coeff-En:   0.655D+00
 Coeff:     -0.639D-02-0.220D-03-0.593D-02-0.106D-02-0.336D-01 0.475D+00
 Coeff:      0.572D+00
 Gap=     0.173 Goal=   None    Shift=    0.000
 Gap=     0.146 Goal=   None    Shift=    0.000
 RMSDP=9.77D-05 MaxDP=6.63D-03 DE=-1.03D-03 OVMax= 1.24D-02

 Cycle   8  Pass 0  IDiag  1:
 E= -504.836795665063     Delta-E=       -0.001492112753 Rises=F Damp=F
 DIIS: error= 5.63D-04 at cycle   8 NSaved=   8.
 NSaved= 8 IEnMin= 8 EnMin= -504.836795665063     IErMin= 8 ErrMin= 5.63D-04
 ErrMax= 5.63D-04 EMaxC= 1.00D-01 BMatC= 2.98D-04 BMatP= 6.31D-03
 IDIUse=3 WtCom= 9.94D-01 WtEn= 5.63D-03
 Coeff-Com: -0.187D-02 0.468D-02-0.211D-01 0.179D-02-0.402D-01 0.136D+00
 Coeff-Com:  0.217D+00 0.704D+00
 Coeff-En:   0.000D+00 0.000D+00 0.000D+00 0.000D+00 0.000D+00 0.000D+00
 Coeff-En:   0.000D+00 0.100D+01
 Coeff:     -0.186D-02 0.465D-02-0.210D-01 0.178D-02-0.400D-01 0.135D+00
 Coeff:      0.215D+00 0.706D+00
 Gap=     0.174 Goal=   None    Shift=    0.000
 Gap=     0.147 Goal=   None    Shift=    0.000
 RMSDP=4.34D-05 MaxDP=2.18D-03 DE=-1.49D-03 OVMax= 6.56D-03

 Cycle   9  Pass 0  IDiag  1:
 E= -504.837000167422     Delta-E=       -0.000204502359 Rises=F Damp=F
 DIIS: error= 3.60D-04 at cycle   9 NSaved=   9.
 NSaved= 9 IEnMin= 9 EnMin= -504.837000167422     IErMin= 9 ErrMin= 3.60D-04
 ErrMax= 3.60D-04 EMaxC= 1.00D-01 BMatC= 1.07D-04 BMatP= 2.98D-04
 IDIUse=3 WtCom= 9.96D-01 WtEn= 3.60D-03
 Coeff-Com:  0.202D-02 0.174D-02-0.138D-01-0.183D-03 0.527D-02-0.233D+00
 Coeff-Com: -0.296D+00 0.207D+00 0.133D+01
 Coeff-En:   0.000D+00 0.000D+00 0.000D+00 0.000D+00 0.000D+00 0.000D+00
 Coeff-En:   0.000D+00 0.000D+00 0.100D+01
 Coeff:      0.201D-02 0.173D-02-0.137D-01-0.182D-03 0.526D-02-0.232D+00
 Coeff:     -0.295D+00 0.206D+00 0.133D+01
 Gap=     0.178 Goal=   None    Shift=    0.000
 Gap=     0.150 Goal=   None    Shift=    0.000
 RMSDP=6.16D-05 MaxDP=3.59D-03 DE=-2.05D-04 OVMax= 1.47D-02

 Cycle  10  Pass 0  IDiag  1:
 E= -504.837178389805     Delta-E=       -0.000178222384 Rises=F Damp=F
 DIIS: error= 1.35D-04 at cycle  10 NSaved=  10.
 NSaved=10 IEnMin=10 EnMin= -504.837178389805     IErMin=10 ErrMin= 1.35D-04
 ErrMax= 1.35D-04 EMaxC= 1.00D-01 BMatC= 1.87D-05 BMatP= 1.07D-04
 IDIUse=3 WtCom= 9.99D-01 WtEn= 1.35D-03
 Coeff-Com:  0.903D-03 0.112D-03-0.284D-02-0.503D-03 0.745D-02-0.106D+00
 Coeff-Com: -0.156D+00-0.453D-01 0.520D+00 0.782D+00
 Coeff-En:   0.000D+00 0.000D+00 0.000D+00 0.000D+00 0.000D+00 0.000D+00
 Coeff-En:   0.000D+00 0.000D+00 0.000D+00 0.100D+01
 Coeff:      0.902D-03 0.112D-03-0.283D-02-0.502D-03 0.744D-02-0.106D+00
 Coeff:     -0.156D+00-0.452D-01 0.520D+00 0.782D+00
 Gap=     0.179 Goal=   None    Shift=    0.000
 Gap=     0.150 Goal=   None    Shift=    0.000
 RMSDP=1.90D-05 MaxDP=8.97D-04 DE=-1.78D-04 OVMax= 3.42D-03

 Cycle  11  Pass 0  IDiag  1:
 E= -504.837193326711     Delta-E=       -0.000014936905 Rises=F Damp=F
 DIIS: error= 6.04D-05 at cycle  11 NSaved=  11.
 NSaved=11 IEnMin=11 EnMin= -504.837193326711     IErMin=11 ErrMin= 6.04D-05
 ErrMax= 6.04D-05 EMaxC= 1.00D-01 BMatC= 4.49D-06 BMatP= 1.87D-05
 IDIUse=1 WtCom= 1.00D+00 WtEn= 0.00D+00
 Coeff-Com: -0.206D-03-0.502D-04 0.168D-02-0.974D-04 0.775D-03 0.170D-01
 Coeff-Com:  0.352D-03-0.488D-01-0.673D-01 0.284D+00 0.813D+00
 Coeff:     -0.206D-03-0.502D-04 0.168D-02-0.974D-04 0.775D-03 0.170D-01
 Coeff:      0.352D-03-0.488D-01-0.673D-01 0.284D+00 0.813D+00
 Gap=     0.179 Goal=   None    Shift=    0.000
 Gap=     0.150 Goal=   None    Shift=    0.000
 RMSDP=5.68D-06 MaxDP=2.71D-04 DE=-1.49D-05 OVMax= 1.18D-03

 Initial convergence to 1.0D-05 achieved.  Increase integral accuracy.
 Cycle  12  Pass 1  IDiag  1:
 E= -504.837252172434     Delta-E=       -0.000058845724 Rises=F Damp=F
 DIIS: error= 3.08D-05 at cycle   1 NSaved=   1.
 NSaved= 1 IEnMin= 1 EnMin= -504.837252172434     IErMin= 1 ErrMin= 3.08D-05
 ErrMax= 3.08D-05 EMaxC= 1.00D-01 BMatC= 1.64D-06 BMatP= 1.64D-06
 IDIUse=1 WtCom= 1.00D+00 WtEn= 0.00D+00
 Coeff-Com:  0.100D+01
 Coeff:      0.100D+01
 Gap=     0.179 Goal=   None    Shift=    0.000
 Gap=     0.150 Goal=   None    Shift=    0.000
 RMSDP=5.68D-06 MaxDP=2.71D-04 DE=-5.88D-05 OVMax= 5.16D-04

 Cycle  13  Pass 1  IDiag  1:
 E= -504.837252416423     Delta-E=       -0.000000243988 Rises=F Damp=F
 DIIS: error= 3.58D-05 at cycle   2 NSaved=   2.
 NSaved= 2 IEnMin= 2 EnMin= -504.837252416423     IErMin= 1 ErrMin= 3.08D-05
 ErrMax= 3.58D-05 EMaxC= 1.00D-01 BMatC= 2.23D-06 BMatP= 1.64D-06
 IDIUse=1 WtCom= 1.00D+00 WtEn= 0.00D+00
 Coeff-Com:  0.550D+00 0.450D+00
 Coeff:      0.550D+00 0.450D+00
 Gap=     0.179 Goal=   None    Shift=    0.000
 Gap=     0.150 Goal=   None    Shift=    0.000
 RMSDP=3.08D-06 MaxDP=1.83D-04 DE=-2.44D-07 OVMax= 7.20D-04

 Cycle  14  Pass 1  IDiag  1:
 E= -504.837252906917     Delta-E=       -0.000000490495 Rises=F Damp=F
 DIIS: error= 2.04D-05 at cycle   3 NSaved=   3.
 NSaved= 3 IEnMin= 3 EnMin= -504.837252906917     IErMin= 3 ErrMin= 2.04D-05
 ErrMax= 2.04D-05 EMaxC= 1.00D-01 BMatC= 5.36D-07 BMatP= 1.64D-06
 IDIUse=1 WtCom= 1.00D+00 WtEn= 0.00D+00
 Coeff-Com:  0.733D-01 0.312D+00 0.615D+00
 Coeff:      0.733D-01 0.312D+00 0.615D+00
 Gap=     0.179 Goal=   None    Shift=    0.000
 Gap=     0.150 Goal=   None    Shift=    0.000
 RMSDP=1.25D-06 MaxDP=6.13D-05 DE=-4.90D-07 OVMax= 2.39D-04

 Cycle  15  Pass 1  IDiag  1:
 E= -504.837253060106     Delta-E=       -0.000000153189 Rises=F Damp=F
 DIIS: error= 7.66D-06 at cycle   4 NSaved=   4.
 NSaved= 4 IEnMin= 4 EnMin= -504.837253060106     IErMin= 4 ErrMin= 7.66D-06
 ErrMax= 7.66D-06 EMaxC= 1.00D-01 BMatC= 8.62D-08 BMatP= 5.36D-07
 IDIUse=1 WtCom= 1.00D+00 WtEn= 0.00D+00
 Coeff-Com: -0.818D-01 0.111D+00 0.322D+00 0.649D+00
 Coeff:     -0.818D-01 0.111D+00 0.322D+00 0.649D+00
 Gap=     0.179 Goal=   None    Shift=    0.000
 Gap=     0.150 Goal=   None    Shift=    0.000
 RMSDP=8.34D-07 MaxDP=3.91D-05 DE=-1.53D-07 OVMax= 2.05D-04

 Cycle  16  Pass 1  IDiag  1:
 E= -504.837253115606     Delta-E=       -0.000000055500 Rises=F Damp=F
 DIIS: error= 6.23D-06 at cycle   5 NSaved=   5.
 NSaved= 5 IEnMin= 5 EnMin= -504.837253115606     IErMin= 5 ErrMin= 6.23D-06
 ErrMax= 6.23D-06 EMaxC= 1.00D-01 BMatC= 2.22D-08 BMatP= 8.62D-08
 IDIUse=1 WtCom= 1.00D+00 WtEn= 0.00D+00
 Coeff-Com: -0.247D-01-0.636D-01-0.254D+00 0.682D-01 0.127D+01
 Coeff:     -0.247D-01-0.636D-01-0.254D+00 0.682D-01 0.127D+01
 Gap=     0.179 Goal=   None    Shift=    0.000
 Gap=     0.150 Goal=   None    Shift=    0.000
 RMSDP=9.71D-07 MaxDP=4.21D-05 DE=-5.55D-08 OVMax= 2.92D-04

 Cycle  17  Pass 1  IDiag  1:
 E= -504.837253150523     Delta-E=       -0.000000034917 Rises=F Damp=F
 DIIS: error= 2.86D-06 at cycle   6 NSaved=   6.
 NSaved= 6 IEnMin= 6 EnMin= -504.837253150523     IErMin= 6 ErrMin= 2.86D-06
 ErrMax= 2.86D-06 EMaxC= 1.00D-01 BMatC= 5.49D-09 BMatP= 2.22D-08
 IDIUse=1 WtCom= 1.00D+00 WtEn= 0.00D+00
 Coeff-Com:  0.131D-01-0.638D-01-0.217D+00-0.168D+00 0.612D+00 0.824D+00
 Coeff:      0.131D-01-0.638D-01-0.217D+00-0.168D+00 0.612D+00 0.824D+00
 Gap=     0.179 Goal=   None    Shift=    0.000
 Gap=     0.150 Goal=   None    Shift=    0.000
 RMSDP=5.17D-07 MaxDP=2.21D-05 DE=-3.49D-08 OVMax= 1.63D-04

 Cycle  18  Pass 1  IDiag  1:
 E= -504.837253158347     Delta-E=       -0.000000007825 Rises=F Damp=F
 DIIS: error= 1.78D-06 at cycle   7 NSaved=   7.
 NSaved= 7 IEnMin= 7 EnMin= -504.837253158347     IErMin= 7 ErrMin= 1.78D-06
 ErrMax= 1.78D-06 EMaxC= 1.00D-01 BMatC= 2.95D-09 BMatP= 5.49D-09
 IDIUse=1 WtCom= 1.00D+00 WtEn= 0.00D+00
 Coeff-Com:  0.132D-01-0.345D-01-0.981D-01-0.131D+00 0.212D+00 0.532D+00
 Coeff-Com:  0.507D+00
 Coeff:      0.132D-01-0.345D-01-0.981D-01-0.131D+00 0.212D+00 0.532D+00
 Coeff:      0.507D+00
 Gap=     0.179 Goal=   None    Shift=    0.000
 Gap=     0.150 Goal=   None    Shift=    0.000
 RMSDP=1.49D-07 MaxDP=6.46D-06 DE=-7.82D-09 OVMax= 4.61D-05

 Cycle  19  Pass 1  IDiag  1:
 E= -504.837253159665     Delta-E=       -0.000000001318 Rises=F Damp=F
 DIIS: error= 9.17D-07 at cycle   8 NSaved=   8.
 NSaved= 8 IEnMin= 8 EnMin= -504.837253159665     IErMin= 8 ErrMin= 9.17D-07
 ErrMax= 9.17D-07 EMaxC= 1.00D-01 BMatC= 1.01D-09 BMatP= 2.95D-09
 IDIUse=1 WtCom= 1.00D+00 WtEn= 0.00D+00
 Coeff-Com:  0.282D-02 0.437D-02 0.445D-01-0.160D-01-0.146D+00-0.318D-01
 Coeff-Com:  0.363D+00 0.779D+00
 Coeff:      0.282D-02 0.437D-02 0.445D-01-0.160D-01-0.146D+00-0.318D-01
 Coeff:      0.363D+00 0.779D+00
 Gap=     0.179 Goal=   None    Shift=    0.000
 Gap=     0.150 Goal=   None    Shift=    0.000
 RMSDP=1.32D-07 MaxDP=5.63D-06 DE=-1.32D-09 OVMax= 4.27D-05

 Cycle  20  Pass 1  IDiag  1:
 E= -504.837253160378     Delta-E=       -0.000000000712 Rises=F Damp=F
 DIIS: error= 5.20D-07 at cycle   9 NSaved=   9.
 NSaved= 9 IEnMin= 9 EnMin= -504.837253160378     IErMin= 9 ErrMin= 5.20D-07
 ErrMax= 5.20D-07 EMaxC= 1.00D-01 BMatC= 2.75D-10 BMatP= 1.01D-09
 IDIUse=1 WtCom= 1.00D+00 WtEn= 0.00D+00
 Coeff-Com: -0.374D-02 0.152D-01 0.688D-01 0.389D-01-0.172D+00-0.247D+00
 Coeff-Com: -0.127D-01 0.520D+00 0.793D+00
 Coeff:     -0.374D-02 0.152D-01 0.688D-01 0.389D-01-0.172D+00-0.247D+00
 Coeff:     -0.127D-01 0.520D+00 0.793D+00
 Gap=     0.179 Goal=   None    Shift=    0.000
 Gap=     0.150 Goal=   None    Shift=    0.000
 RMSDP=9.57D-08 MaxDP=4.06D-06 DE=-7.12D-10 OVMax= 3.17D-05

 Cycle  21  Pass 1  IDiag  1:
 E= -504.837253160612     Delta-E=       -0.000000000234 Rises=F Damp=F
 DIIS: error= 1.13D-07 at cycle  10 NSaved=  10.
 NSaved=10 IEnMin=10 EnMin= -504.837253160612     IErMin=10 ErrMin= 1.13D-07
 ErrMax= 1.13D-07 EMaxC= 1.00D-01 BMatC= 2.26D-11 BMatP= 2.75D-10
 IDIUse=1 WtCom= 1.00D+00 WtEn= 0.00D+00
 Coeff-Com: -0.140D-02 0.380D-02 0.166D-01 0.129D-01-0.310D-01-0.740D-01
 Coeff-Com: -0.611D-01 0.614D-01 0.253D+00 0.820D+00
 Coeff:     -0.140D-02 0.380D-02 0.166D-01 0.129D-01-0.310D-01-0.740D-01
 Coeff:     -0.611D-01 0.614D-01 0.253D+00 0.820D+00
 Gap=     0.179 Goal=   None    Shift=    0.000
 Gap=     0.150 Goal=   None    Shift=    0.000
 RMSDP=2.28D-08 MaxDP=8.37D-07 DE=-2.34D-10 OVMax= 6.90D-06

 Cycle  22  Pass 1  IDiag  1:
 E= -504.837253160623     Delta-E=       -0.000000000011 Rises=F Damp=F
 DIIS: error= 4.78D-08 at cycle  11 NSaved=  11.
 NSaved=11 IEnMin=11 EnMin= -504.837253160623     IErMin=11 ErrMin= 4.78D-08
 ErrMax= 4.78D-08 EMaxC= 1.00D-01 BMatC= 3.06D-12 BMatP= 2.26D-11
 IDIUse=1 WtCom= 1.00D+00 WtEn= 0.00D+00
 Coeff-Com:  0.345D-03-0.184D-02-0.759D-02-0.426D-02 0.218D-01 0.262D-01
 Coeff-Com: -0.114D-01-0.662D-01-0.814D-01 0.131D+00 0.994D+00
 Coeff:      0.345D-03-0.184D-02-0.759D-02-0.426D-02 0.218D-01 0.262D-01
 Coeff:     -0.114D-01-0.662D-01-0.814D-01 0.131D+00 0.994D+00
 Gap=     0.179 Goal=   None    Shift=    0.000
 Gap=     0.150 Goal=   None    Shift=    0.000
 RMSDP=9.87D-09 MaxDP=3.47D-07 DE=-1.14D-11 OVMax= 2.72D-06

 SCF Done:  E(UB3LYP) =  -504.837253161     A.U. after   22 cycles
             Convg  =    0.9875D-08             -V/T =  2.0042
 <Sx>= 0.0000 <Sy>= 0.0000 <Sz>= 0.5000 <S**2>= 0.8003 S= 0.5248
 <L.S>= 0.000000000000E+00
 KE= 5.027087575999D+02 PE=-2.482877871547D+03 EE= 8.222112469895D+02
 Annihilation of the first spin contaminant:
 S**2 before annihilation     0.8003,   after     0.7503
 Leave Link  502 at Tue Apr 29 10:36:29 2014, MaxMem= 4026531840 cpu:    1543.8
 (Enter /usr/caen/gaussian-09revc/g09/l801.exe)
 Range of M.O.s used for correlation:     1   312
 NBasis=   312 NAE=    45 NBE=    44 NFC=     0 NFV=     0
 NROrb=    312 NOA=    45 NOB=    44 NVA=   267 NVB=   268
 Leave Link  801 at Tue Apr 29 10:36:30 2014, MaxMem= 4026531840 cpu:       0.3
 (Enter /usr/caen/gaussian-09revc/g09/l1101.exe)
 Using compressed storage, NAtomX=    30.
 Will process  31 centers per pass.
 Leave Link 1101 at Tue Apr 29 10:36:31 2014, MaxMem= 4026531840 cpu:       5.3
 (Enter /usr/caen/gaussian-09revc/g09/l1102.exe)
 Symmetrizing basis deriv contribution to polar:
 IMax=3 JMax=2 DiffMx= 0.00D+00
 Leave Link 1102 at Tue Apr 29 10:36:32 2014, MaxMem= 4026531840 cpu:       1.8
 (Enter /usr/caen/gaussian-09revc/g09/l1110.exe)
 Forming Gx(P) for the SCF density, NAtomX=    30.
 Integral derivatives from FoFDir/FoFCou, PRISM(SPDF).
 Do as many integral derivatives as possible in FoFDir.
 G2DrvN: MDV=    4026531496.
 G2DrvN: will do    31 centers at a time, making    1 passes doing MaxLOS=2.
 Calling FoFCou, ICntrl=  3107 FMM=F I1Cent=   0 AccDes= 0.00D+00.
 FoFCou: FMM=F IPFlag=           0 FMFlag=      100000 FMFlg1=           0
         NFxFlg=           0 DoJE=F BraDBF=F KetDBF=F FulRan=T
         Omega=  0.000000  0.000000  1.000000  0.000000  0.000000 ICntrl=    3107 IOpCl=  1
         NMat0=    1 NMatS0=    1 NMatT0=    0 NMatD0=    1 NMtDS0=    0 NMtDT0=    0
         I1Cent=           0 NGrid=           0.
 Symmetry not used in FoFCou.
 FoFDir/FoFCou used for L=0 through L=2.
 End of G2Drv Frequency-dependent properties file   721 does not exist.
 End of G2Drv Frequency-dependent properties file   722 does not exist.
 Leave Link 1110 at Tue Apr 29 10:39:40 2014, MaxMem= 4026531840 cpu:    1456.9
 (Enter /usr/caen/gaussian-09revc/g09/l1002.exe)
 Minotr:  UHF open shell wavefunction.
          IDoAtm=111111111111111111111111111111
          Direct CPHF calculation.
          Differentiating once with respect to nuclear coordinates.
          Requested convergence is 1.0D-06 RMS, and 1.0D-05 maximum.
          Secondary convergence is 1.0D-12 RMS, and 1.0D-12 maximum.
          NewPWx=T KeepS1=F KeepF1=F KeepIn=T MapXYZ=F SortEE=F KeepMc=T.
          MDV=    4026531536 using IRadAn=       2.
 Generate precomputed XC quadrature information.
          Keep R1 and R2 ints in memory in canonical form, NReq=2738891878.
 Symmetry not used in FoFDir.
 MinBra= 0 MaxBra= 2 Meth= 1.
 IRaf=       0 NMat=   1 IRICut=       1 DoRegI=T DoRafI=F ISym2E= 0 JSym2E=0.
          Solving linear equations simultaneously, MaxMat=       0.
          There are    93 degrees of freedom in the 1st order CPHF.  IDoFFX=5.
     87 vectors produced by pass  0 Test12= 2.56D-10 1.08D-07 XBig12= 2.61D-01 2.02D-01.
 AX will form    87 AO Fock derivatives at one time.
     87 vectors produced by pass  1 Test12= 2.56D-10 1.08D-07 XBig12= 2.53D-02 4.59D-02.
     87 vectors produced by pass  2 Test12= 2.56D-10 1.08D-07 XBig12= 1.32D-04 3.35D-03.
     87 vectors produced by pass  3 Test12= 2.56D-10 1.08D-07 XBig12= 7.42D-07 2.22D-04.
     71 vectors produced by pass  4 Test12= 2.56D-10 1.08D-07 XBig12= 3.88D-09 4.77D-06.
     15 vectors produced by pass  5 Test12= 2.56D-10 1.08D-07 XBig12= 1.49D-11 3.03D-07.
 Inverted reduced A of dimension   434 with in-core refinement.
 End of Minotr Frequency-dependent properties file   721 does not exist.
 End of Minotr Frequency-dependent properties file   722 does not exist.
 Leave Link 1002 at Tue Apr 29 10:44:15 2014, MaxMem= 4026531840 cpu:    2191.1
 (Enter /usr/caen/gaussian-09revc/g09/l601.exe)
 Copying SCF densities to generalized density rwf, IOpCl= 1 IROHF=0.

 **********************************************************************

            Population analysis using the SCF density.

 **********************************************************************

 Orbital symmetries:
 Alpha Orbitals:
       Occupied  (A) (A) (A) (A) (A) (A) (A) (A) (A) (A) (A) (A)
                 (A) (A) (A) (A) (A) (A) (A) (A) (A) (A) (A) (A)
                 (A) (A) (A) (A) (A) (A) (A) (A) (A) (A) (A) (A)
                 (A) (A) (A) (A) (A) (A) (A) (A) (A)
       Virtual   (A) (A) (A) (A) (A) (A) (A) (A) (A) (A) (A) (A)
                 (A) (A) (A) (A) (A) (A) (A) (A) (A) (A) (A) (A)
                 (A) (A) (A) (A) (A) (A) (A) (A) (A) (A) (A) (A)
                 (A) (A) (A) (A) (A) (A) (A) (A) (A) (A) (A) (A)
                 (A) (A) (A) (A) (A) (A) (A) (A) (A) (A) (A) (A)
                 (A) (A) (A) (A) (A) (A) (A) (A) (A) (A) (A) (A)
                 (A) (A) (A) (A) (A) (A) (A) (A) (A) (A) (A) (A)
                 (A) (A) (A) (A) (A) (A) (A) (A) (A) (A) (A) (A)
                 (A) (A) (A) (A) (A) (A) (A) (A) (A) (A) (A) (A)
                 (A) (A) (A) (A) (A) (A) (A) (A) (A) (A) (A) (A)
                 (A) (A) (A) (A) (A) (A) (A) (A) (A) (A) (A) (A)
                 (A) (A) (A) (A) (A) (A) (A) (A) (A) (A) (A) (A)
                 (A) (A) (A) (A) (A) (A) (A) (A) (A) (A) (A) (A)
                 (A) (A) (A) (A) (A) (A) (A) (A) (A) (A) (A) (A)
                 (A) (A) (A) (A) (A) (A) (A) (A) (A) (A) (A) (A)
                 (A) (A) (A) (A) (A) (A) (A) (A) (A) (A) (A) (A)
                 (A) (A) (A) (A) (A) (A) (A) (A) (A) (A) (A) (A)
                 (A) (A) (A) (A) (A) (A) (A) (A) (A) (A) (A) (A)
                 (A) (A) (A) (A) (A) (A) (A) (A) (A) (A) (A) (A)
                 (A) (A) (A) (A) (A) (A) (A) (A) (A) (A) (A) (A)
                 (A) (A) (A) (A) (A) (A) (A) (A) (A) (A) (A) (A)
                 (A) (A) (A) (A) (A) (A) (A) (A) (A) (A) (A) (A)
                 (A) (A) (A)
 Beta  Orbitals:
       Occupied  (A) (A) (A) (A) (A) (A) (A) (A) (A) (A) (A) (A)
                 (A) (A) (A) (A) (A) (A) (A) (A) (A) (A) (A) (A)
                 (A) (A) (A) (A) (A) (A) (A) (A) (A) (A) (A) (A)
                 (A) (A) (A) (A) (A) (A) (A) (A)
       Virtual   (A) (A) (A) (A) (A) (A) (A) (A) (A) (A) (A) (A)
                 (A) (A) (A) (A) (A) (A) (A) (A) (A) (A) (A) (A)
                 (A) (A) (A) (A) (A) (A) (A) (A) (A) (A) (A) (A)
                 (A) (A) (A) (A) (A) (A) (A) (A) (A) (A) (A) (A)
                 (A) (A) (A) (A) (A) (A) (A) (A) (A) (A) (A) (A)
                 (A) (A) (A) (A) (A) (A) (A) (A) (A) (A) (A) (A)
                 (A) (A) (A) (A) (A) (A) (A) (A) (A) (A) (A) (A)
                 (A) (A) (A) (A) (A) (A) (A) (A) (A) (A) (A) (A)
                 (A) (A) (A) (A) (A) (A) (A) (A) (A) (A) (A) (A)
                 (A) (A) (A) (A) (A) (A) (A) (A) (A) (A) (A) (A)
                 (A) (A) (A) (A) (A) (A) (A) (A) (A) (A) (A) (A)
                 (A) (A) (A) (A) (A) (A) (A) (A) (A) (A) (A) (A)
                 (A) (A) (A) (A) (A) (A) (A) (A) (A) (A) (A) (A)
                 (A) (A) (A) (A) (A) (A) (A) (A) (A) (A) (A) (A)
                 (A) (A) (A) (A) (A) (A) (A) (A) (A) (A) (A) (A)
                 (A) (A) (A) (A) (A) (A) (A) (A) (A) (A) (A) (A)
                 (A) (A) (A) (A) (A) (A) (A) (A) (A) (A) (A) (A)
                 (A) (A) (A) (A) (A) (A) (A) (A) (A) (A) (A) (A)
                 (A) (A) (A) (A) (A) (A) (A) (A) (A) (A) (A) (A)
                 (A) (A) (A) (A) (A) (A) (A) (A) (A) (A) (A) (A)
                 (A) (A) (A) (A) (A) (A) (A) (A) (A) (A) (A) (A)
                 (A) (A) (A) (A) (A) (A) (A) (A) (A) (A) (A) (A)
                 (A) (A) (A) (A)
 The electronic state is 2-A.
 Alpha  occ. eigenvalues --  -19.14536 -19.12019 -10.23535 -10.21852 -10.18597
 Alpha  occ. eigenvalues --  -10.18070 -10.17346 -10.16316 -10.16100 -10.15972
 Alpha  occ. eigenvalues --  -10.15600  -1.02899  -0.93594  -0.82699  -0.78637
 Alpha  occ. eigenvalues --   -0.75868  -0.69611  -0.69070  -0.68601  -0.62130
 Alpha  occ. eigenvalues --   -0.56902  -0.54394  -0.49423  -0.47356  -0.46799
 Alpha  occ. eigenvalues --   -0.45850  -0.44324  -0.43838  -0.42213  -0.41626
 Alpha  occ. eigenvalues --   -0.40890  -0.39297  -0.39037  -0.38028  -0.37522
 Alpha  occ. eigenvalues --   -0.36650  -0.36073  -0.35225  -0.34500  -0.33374
 Alpha  occ. eigenvalues --   -0.33077  -0.32525  -0.29055  -0.25494  -0.21878
 Alpha virt. eigenvalues --   -0.03975   0.03297   0.04743   0.05165   0.06304
 Alpha virt. eigenvalues --    0.07749   0.08090   0.08861   0.09294   0.10253
 Alpha virt. eigenvalues --    0.10363   0.11245   0.11524   0.12415   0.14264
 Alpha virt. eigenvalues --    0.14474   0.14927   0.15722   0.16386   0.17461
 Alpha virt. eigenvalues --    0.18663   0.19316   0.19417   0.20611   0.21830
 Alpha virt. eigenvalues --    0.23271   0.23674   0.25727   0.27310   0.28020
 Alpha virt. eigenvalues --    0.28731   0.30161   0.31042   0.33165   0.33952
 Alpha virt. eigenvalues --    0.36486   0.36908   0.37790   0.38992   0.41180
 Alpha virt. eigenvalues --    0.42496   0.43517   0.44515   0.44959   0.45879
 Alpha virt. eigenvalues --    0.48282   0.50907   0.52961   0.53996   0.54610
 Alpha virt. eigenvalues --    0.55178   0.56202   0.56333   0.56979   0.57707
 Alpha virt. eigenvalues --    0.58051   0.58378   0.58564   0.59226   0.59568
 Alpha virt. eigenvalues --    0.59890   0.60681   0.60960   0.61642   0.62077
 Alpha virt. eigenvalues --    0.62622   0.63434   0.63530   0.64986   0.65626
 Alpha virt. eigenvalues --    0.65842   0.70124   0.70880   0.72687   0.77723
 Alpha virt. eigenvalues --    0.78976   0.80204   0.83106   0.83971   0.87218
 Alpha virt. eigenvalues --    0.89560   0.92414   0.93671   0.95029   0.96058
 Alpha virt. eigenvalues --    0.97379   0.98844   1.02687   1.03410   1.04579
 Alpha virt. eigenvalues --    1.07349   1.08689   1.11054   1.16887   1.18210
 Alpha virt. eigenvalues --    1.18962   1.20773   1.23835   1.27758   1.28910
 Alpha virt. eigenvalues --    1.32695   1.33759   1.35870   1.37201   1.38925
 Alpha virt. eigenvalues --    1.39387   1.41071   1.41990   1.44293   1.45018
 Alpha virt. eigenvalues --    1.45183   1.45825   1.46618   1.46927   1.48633
 Alpha virt. eigenvalues --    1.49377   1.50452   1.51183   1.51821   1.52852
 Alpha virt. eigenvalues --    1.53274   1.55140   1.55753   1.56718   1.57484
 Alpha virt. eigenvalues --    1.58861   1.59454   1.60230   1.61077   1.61486
 Alpha virt. eigenvalues --    1.64740   1.65788   1.67210   1.67788   1.69289
 Alpha virt. eigenvalues --    1.70240   1.70952   1.73404   1.74448   1.75484
 Alpha virt. eigenvalues --    1.76030   1.78407   1.78771   1.80149   1.82125
 Alpha virt. eigenvalues --    1.85188   1.86964   1.87899   1.89959   1.92603
 Alpha virt. eigenvalues --    1.93070   1.95912   1.98009   1.98248   2.00412
 Alpha virt. eigenvalues --    2.01333   2.02672   2.06135   2.08160   2.08926
 Alpha virt. eigenvalues --    2.09194   2.12434   2.14741   2.15939   2.17579
 Alpha virt. eigenvalues --    2.23247   2.23616   2.25995   2.28058   2.31199
 Alpha virt. eigenvalues --    2.32188   2.34310   2.34966   2.36126   2.37825
 Alpha virt. eigenvalues --    2.39805   2.40435   2.43350   2.44229   2.44678
 Alpha virt. eigenvalues --    2.45696   2.47058   2.47790   2.49617   2.49830
 Alpha virt. eigenvalues --    2.50087   2.51320   2.51365   2.51880   2.52984
 Alpha virt. eigenvalues --    2.53618   2.54204   2.55781   2.57170   2.59082
 Alpha virt. eigenvalues --    2.60393   2.62212   2.64392   2.65110   2.65938
 Alpha virt. eigenvalues --    2.67689   2.69651   2.69959   2.72006   2.75170
 Alpha virt. eigenvalues --    2.75715   2.78819   2.81655   2.82086   2.84085
 Alpha virt. eigenvalues --    2.86498   2.87895   2.88234   2.90350   2.93106
 Alpha virt. eigenvalues --    2.95663   2.97810   3.01151   3.03062   3.05114
 Alpha virt. eigenvalues --    3.10124   3.11818   3.13311   3.16150   3.19115
 Alpha virt. eigenvalues --    3.21241   3.27744   3.35675   3.40027   3.45706
 Alpha virt. eigenvalues --    3.54561   3.76518   3.77104   3.77459   3.77727
 Alpha virt. eigenvalues --    3.79587   3.80601   3.81007   3.81961   3.83386
 Alpha virt. eigenvalues --    3.83860   3.85301   3.91403   3.96862   4.05624
 Alpha virt. eigenvalues --    4.17452   4.25096   4.28897   4.32939   4.41871
 Alpha virt. eigenvalues --    4.81650   4.88847   4.97611   5.15518   5.42980
 Alpha virt. eigenvalues --    5.49318  23.69681  23.80740  23.81406  23.86658
 Alpha virt. eigenvalues --   23.90033  23.92857  23.93491  23.93927  23.95012
 Alpha virt. eigenvalues --   49.80480  49.87846
  Beta  occ. eigenvalues --  -19.14753 -19.10663 -10.23599 -10.20872 -10.18646
  Beta  occ. eigenvalues --  -10.18061 -10.17274 -10.16315 -10.16097 -10.15964
  Beta  occ. eigenvalues --  -10.15588  -1.02466  -0.91004  -0.82451  -0.78030
  Beta  occ. eigenvalues --   -0.75804  -0.69500  -0.69049  -0.67778  -0.61697
  Beta  occ. eigenvalues --   -0.56831  -0.53923  -0.49130  -0.47240  -0.46532
  Beta  occ. eigenvalues --   -0.45390  -0.43928  -0.43696  -0.41692  -0.41255
  Beta  occ. eigenvalues --   -0.40351  -0.39192  -0.38755  -0.37878  -0.37387
  Beta  occ. eigenvalues --   -0.36524  -0.35927  -0.35121  -0.33860  -0.33213
  Beta  occ. eigenvalues --   -0.32984  -0.31046  -0.28332  -0.24903
  Beta virt. eigenvalues --   -0.09918  -0.00015   0.03353   0.04858   0.05259
  Beta virt. eigenvalues --    0.06424   0.07781   0.08327   0.09055   0.09354
  Beta virt. eigenvalues --    0.10306   0.10383   0.11292   0.11622   0.12451
  Beta virt. eigenvalues --    0.14320   0.14529   0.15029   0.15839   0.16427
  Beta virt. eigenvalues --    0.17573   0.18830   0.19376   0.19528   0.20905
  Beta virt. eigenvalues --    0.22004   0.23453   0.23814   0.25997   0.27589
  Beta virt. eigenvalues --    0.28278   0.28790   0.30293   0.31158   0.33546
  Beta virt. eigenvalues --    0.34039   0.36641   0.37123   0.37970   0.39595
  Beta virt. eigenvalues --    0.41266   0.42710   0.43851   0.44921   0.45076
  Beta virt. eigenvalues --    0.46220   0.49120   0.51149   0.53277   0.54238
  Beta virt. eigenvalues --    0.54727   0.55308   0.56414   0.56684   0.57106
  Beta virt. eigenvalues --    0.57848   0.58158   0.58474   0.58704   0.59362
  Beta virt. eigenvalues --    0.59656   0.60006   0.60745   0.61085   0.61704
  Beta virt. eigenvalues --    0.62155   0.62753   0.63665   0.63927   0.65025
  Beta virt. eigenvalues --    0.65781   0.66031   0.70239   0.71122   0.72973
  Beta virt. eigenvalues --    0.78112   0.79628   0.80536   0.83387   0.84759
  Beta virt. eigenvalues --    0.88050   0.90044   0.93479   0.94224   0.95381
  Beta virt. eigenvalues --    0.96389   0.97658   0.98948   1.02894   1.03614
  Beta virt. eigenvalues --    1.04869   1.07506   1.08828   1.11517   1.17121
  Beta virt. eigenvalues --    1.18352   1.19229   1.21777   1.24038   1.27990
  Beta virt. eigenvalues --    1.29436   1.32813   1.33951   1.36049   1.37266
  Beta virt. eigenvalues --    1.39185   1.39660   1.41245   1.42134   1.44531
  Beta virt. eigenvalues --    1.45052   1.45323   1.45866   1.46646   1.47011
  Beta virt. eigenvalues --    1.48692   1.49554   1.50520   1.51562   1.52025
  Beta virt. eigenvalues --    1.52991   1.53392   1.55258   1.55905   1.57432
  Beta virt. eigenvalues --    1.57825   1.59003   1.59783   1.60360   1.61370
  Beta virt. eigenvalues --    1.62109   1.65005   1.65868   1.67286   1.67868
  Beta virt. eigenvalues --    1.69564   1.70477   1.71053   1.73543   1.74850
  Beta virt. eigenvalues --    1.75525   1.76278   1.78532   1.78966   1.80396
  Beta virt. eigenvalues --    1.82274   1.85725   1.87234   1.88176   1.90028
  Beta virt. eigenvalues --    1.92827   1.93230   1.96252   1.98298   1.98712
  Beta virt. eigenvalues --    2.00706   2.01466   2.02864   2.06421   2.08506
  Beta virt. eigenvalues --    2.09012   2.09456   2.12544   2.14879   2.16108
  Beta virt. eigenvalues --    2.17824   2.23347   2.23798   2.26091   2.28394
  Beta virt. eigenvalues --    2.31413   2.32397   2.34394   2.35029   2.36189
  Beta virt. eigenvalues --    2.37967   2.39984   2.40482   2.43463   2.44401
  Beta virt. eigenvalues --    2.44786   2.45764   2.47119   2.47930   2.49672
  Beta virt. eigenvalues --    2.49882   2.50105   2.51401   2.51482   2.52022
  Beta virt. eigenvalues --    2.53043   2.53829   2.54399   2.55857   2.57312
  Beta virt. eigenvalues --    2.59245   2.60503   2.62320   2.64535   2.65199
  Beta virt. eigenvalues --    2.66178   2.68006   2.69761   2.70008   2.72204
  Beta virt. eigenvalues --    2.75295   2.76477   2.79854   2.82105   2.82522
  Beta virt. eigenvalues --    2.84568   2.86518   2.88200   2.89098   2.92015
  Beta virt. eigenvalues --    2.93568   2.95832   2.97804   3.01368   3.03065
  Beta virt. eigenvalues --    3.05909   3.10319   3.13360   3.14778   3.16779
  Beta virt. eigenvalues --    3.19629   3.21422   3.28290   3.36524   3.41022
  Beta virt. eigenvalues --    3.45773   3.54761   3.76652   3.77153   3.77515
  Beta virt. eigenvalues --    3.78078   3.79619   3.80781   3.81342   3.82241
  Beta virt. eigenvalues --    3.83575   3.83890   3.85429   3.91822   3.96890
  Beta virt. eigenvalues --    4.06013   4.17669   4.25109   4.28910   4.33067
  Beta virt. eigenvalues --    4.42490   4.83671   4.93497   4.97431   5.14134
  Beta virt. eigenvalues --    5.43895   5.49195  23.69872  23.81126  23.81563
  Beta virt. eigenvalues --   23.86721  23.90232  23.92911  23.93533  23.93967
  Beta virt. eigenvalues --   23.95025  49.81807  49.87716
          Condensed to atoms (all electrons):
              1          2          3          4          5          6
     1  C    4.908279   0.390322   0.382105   0.403901  -0.076978  -0.007223
     2  H    0.390322   0.574256  -0.027209  -0.024160  -0.007523   0.004758
     3  H    0.382105  -0.027209   0.606314  -0.027237   0.000008   0.000335
     4  H    0.403901  -0.024160  -0.027237   0.536901   0.007449   0.000086
     5  C   -0.076978  -0.007523   0.000008   0.007449   5.233043   0.401137
     6  H   -0.007223   0.004758   0.000335   0.000086   0.401137   0.534464
     7  C    0.005463   0.000034  -0.000014  -0.000307   0.353157  -0.035146
     8  H    0.000328  -0.000015   0.000015   0.000008  -0.037435   0.006481
     9  H    0.000219  -0.000049  -0.000137   0.000010  -0.039292  -0.002683
    10  C   -0.000433   0.000024   0.000014   0.000016  -0.054360  -0.003428
    11  H   -0.000035   0.000002   0.000004   0.000000  -0.003785   0.003912
    12  H    0.000246  -0.000008  -0.000029   0.000005  -0.004722  -0.000326
    13  C    0.000005   0.000000   0.000000   0.000000   0.006678   0.000069
    14  H   -0.000001   0.000000   0.000000   0.000000  -0.000089   0.000014
    15  C    0.000000   0.000000   0.000000   0.000000  -0.000290   0.000001
    16  H    0.000000   0.000000   0.000000   0.000000  -0.000005  -0.000006
    17  H    0.000000   0.000000   0.000000   0.000000   0.000016   0.000000
    18  H    0.000000   0.000000   0.000000   0.000000  -0.000050   0.000002
    19  C   -0.078586   0.009198  -0.001840  -0.008581  -0.043132   0.005756
    20  H   -0.001480  -0.000416  -0.000167   0.000280  -0.001413  -0.000085
    21  H   -0.011289   0.000068   0.000459   0.003245   0.008765  -0.000272
    22  H    0.009365  -0.000609  -0.000428  -0.000012  -0.008979  -0.000234
    23  C    0.000000   0.000000   0.000000   0.000000  -0.000175  -0.000025
    24  H    0.000000   0.000000   0.000000   0.000000   0.000018  -0.000001
    25  H    0.000000   0.000000   0.000000   0.000000  -0.000060  -0.000011
    26  H    0.000000   0.000000   0.000000   0.000000  -0.000080   0.000029
    27  C    0.361867  -0.025806  -0.033652  -0.028557   0.321281  -0.036069
    28  O   -0.058292   0.003253   0.005081  -0.003104  -0.017604   0.003388
    29  O   -0.004516  -0.000386   0.000061   0.009397   0.012241  -0.000295
    30  H    0.000379   0.000025  -0.000053  -0.000921  -0.002546   0.000023
              7          8          9         10         11         12
     1  C    0.005463   0.000328   0.000219  -0.000433  -0.000035   0.000246
     2  H    0.000034  -0.000015  -0.000049   0.000024   0.000002  -0.000008
     3  H   -0.000014   0.000015  -0.000137   0.000014   0.000004  -0.000029
     4  H   -0.000307   0.000008   0.000010   0.000016   0.000000   0.000005
     5  C    0.353157  -0.037435  -0.039292  -0.054360  -0.003785  -0.004722
     6  H   -0.035146   0.006481  -0.002683  -0.003428   0.003912  -0.000326
     7  C    4.892953   0.408397   0.393977   0.344313  -0.041562  -0.036910
     8  H    0.408397   0.576092  -0.032553  -0.038955   0.008731  -0.006564
     9  H    0.393977  -0.032553   0.590324  -0.039991  -0.007603   0.009480
    10  C    0.344313  -0.038955  -0.039991   5.010084   0.400154   0.403575
    11  H   -0.041562   0.008731  -0.007603   0.400154   0.602634  -0.032894
    12  H   -0.036910  -0.006564   0.009480   0.403575  -0.032894   0.566186
    13  C   -0.050770  -0.002742  -0.005664   0.360168  -0.038767  -0.034462
    14  H   -0.007488   0.005904  -0.000538  -0.047076   0.009761  -0.005643
    15  C    0.007529  -0.000002  -0.000117  -0.065783  -0.004160  -0.006833
    16  H   -0.000065   0.000022   0.000014  -0.007040   0.004643  -0.000617
    17  H   -0.000406  -0.000007   0.000021   0.008435  -0.000284   0.000240
    18  H    0.000099   0.000021  -0.000024  -0.004924  -0.000537   0.003961
    19  C   -0.013092  -0.001037  -0.000368   0.001004  -0.000023   0.000088
    20  H    0.000442   0.000186   0.000130  -0.000088   0.000002  -0.000018
    21  H    0.000048  -0.000274  -0.000047   0.000033   0.000003  -0.000016
    22  H   -0.000852   0.002474   0.000547  -0.000417  -0.000050   0.000424
    23  C   -0.005433  -0.000777   0.002626  -0.068646  -0.008492   0.007671
    24  H   -0.000003  -0.000086  -0.000122   0.008009  -0.000203  -0.000342
    25  H   -0.000804   0.000083   0.000459  -0.006018   0.005623  -0.000075
    26  H    0.001716   0.000507   0.000976  -0.006237  -0.000141  -0.000219
    27  C   -0.044115  -0.003466   0.002761   0.002965   0.000260  -0.001656
    28  O    0.004070   0.000438   0.001012  -0.004821  -0.000198   0.010864
    29  O   -0.000345  -0.000167   0.000012  -0.000020   0.000001  -0.000019
    30  H    0.000213  -0.000015  -0.000008   0.000025  -0.000004   0.000084
             13         14         15         16         17         18
     1  C    0.000005  -0.000001   0.000000   0.000000   0.000000   0.000000
     2  H    0.000000   0.000000   0.000000   0.000000   0.000000   0.000000
     3  H    0.000000   0.000000   0.000000   0.000000   0.000000   0.000000
     4  H    0.000000   0.000000   0.000000   0.000000   0.000000   0.000000
[...]
 31,0.00002283,0.00079436,-0.02509075,0.00062633,0.01564203,0.00060577,
 0.00109968,-0.00025038,-0.00114130,0.00153377,0.00061058,0.00009687,-0
 .00009600,0.00000500,0.00054369,-0.00038531,-0.00022325,0.00015642,0.0
 0036438,-0.00024189,0.00000415,0.00000117,0.00000078,-0.00000493,0.000
 00459,-0.00000319,0.00000062,0.00000169,-0.00000136,-0.00000127,-0.000
 00414,-0.00000017,0.00964387,-0.04656319,-0.00550742,-0.00783917,0.051
 28597,0.00000453,0.00000301,-0.00000124,-0.00000290,-0.00000170,0.0000
 0105,-0.00000091,-0.00000219,-0.00000080,0.00000352,0.00000148,0.00000
 170,0.00006066,-0.00006074,-0.00003482,-0.00002248,-0.00000025,0.00001
 302,-0.00014046,-0.00002012,0.00015603,0.00005066,0.00001445,0.0000081
 0,0.00005217,-0.00006160,-0.00015892,-0.00040432,-0.00031047,0.0004674
 0,-0.00030826,-0.00012559,0.00048050,0.00005950,-0.00001011,0.00043385
 ,-0.00445301,0.00004668,0.00125348,-0.00011099,0.00057561,0.00047948,0
 .00019101,-0.00007961,-0.00010008,0.00015218,-0.00001400,-0.00008068,-
 0.00013606,0.00037223,0.00026232,-0.00029266,0.00004663,-0.00000414,0.
 00000236,0.00000862,0.00000545,-0.00000084,-0.00000261,-0.00000060,0.0
 0000405,0.,0.00000074,-0.00000020,-0.00000284,-0.00000521,0.11092989,-
 0.00477639,-0.10962483,-0.12202817,0.00593022,0.11519280,0.00000349,-0
 .00000246,0.00000311,-0.00000475,-0.00000282,0.00000564,-0.00000158,-0
 .00000153,-0.00000353,0.00000213,0.00000310,0.00000179,-0.00002042,0.0
 0003852,0.00001413,-0.00005127,-0.00001351,0.00003847,-0.00020231,0.00
 007565,0.00013849,0.00021979,0.00002415,0.00011671,-0.00009106,0.00005
 915,-0.00020788,0.00085857,0.00034788,-0.00182430,-0.00016142,-0.00005
 863,0.00081359,0.00022143,0.00014371,0.00030145,-0.00444466,-0.0032044
 0,-0.01700344,-0.00112451,-0.00329019,-0.00020821,0.00018923,0.0009273
 1,0.00048680,0.00045147,-0.00009070,0.00025688,0.00003774,-0.00002627,
 0.00014805,-0.00012752,0.00009769,0.00006434,0.00002292,0.00000095,-0.
 00000074,0.00000024,-0.00000346,0.00000054,0.00000117,0.00000174,0.000
 00397,-0.00000249,0.00000312,-0.00000091,-0.05603335,-0.00751707,-0.04
 601724,0.00653244,0.00479064,0.02786489,0.05747803,-0.00000096,-0.0000
 0006,-0.00000096,0.00000002,0.00000182,0.00000043,0.00000081,-0.000000
 49,0.00000173,-0.00000034,-0.00000105,-0.00000070,-0.00003973,0.000047
 80,0.00000440,-0.00000786,0.00000585,-0.00000662,-0.00001099,0.0000350
 7,0.00004122,0.00007340,-0.00014595,0.00003203,-0.00002955,-0.00000408
 ,0.00007774,0.00121320,0.00115925,-0.00077404,-0.00034313,0.00025456,0
 .00093142,0.00035812,0.00009741,0.00022271,-0.00556220,-0.00618605,-0.
 02919573,-0.00308270,-0.00493318,-0.00044862,-0.00027676,0.00163733,-0
 .00141292,0.00030084,-0.00023093,0.00086756,0.00001806,-0.00008973,0.0
 0004459,0.00005686,0.00033363,0.00041354,0.00000942,-0.00000224,-0.000
 00427,-0.00000616,0.00000474,0.00000379,0.00000016,0.00000104,-0.00000
 136,0.00000149,-0.00000815,0.00000241,-0.00749263,-0.05437498,-0.04128
 369,-0.00007898,-0.00127595,-0.00138774,0.01141462,0.05873005,-0.00001
 148,-0.00000985,-0.00000413,0.00000028,-0.00000472,0.00000750,-0.00000
 357,0.00000664,-0.00000332,-0.00000472,0.00000101,0.00000268,0.0000209
 2,-0.00001234,-0.00009065,-0.00004024,-0.00001568,0.00003621,-0.000224
 70,-0.00006883,0.00009965,0.00012953,0.00004356,0.00006158,-0.00006743
 ,-0.00000730,-0.00020425,0.00055625,0.00035110,0.00078805,-0.00078353,
 -0.00013416,0.00056644,-0.00005156,0.00000600,0.00030604,-0.00119087,-
 0.00117350,-0.00476989,-0.00025880,-0.00075363,0.00158690,0.00017817,0
 .00044069,0.00057880,0.00027893,-0.00055573,0.00037881,-0.00006529,0.0
 0001547,-0.00006569,0.00008109,-0.00008896,0.00032538,0.00001174,-0.00
 000869,-0.00001007,0.00000422,0.00000232,-0.00000270,-0.00000688,-0.00
 000160,0.00000422,-0.00000391,0.00001345,0.00001404,-0.04603262,-0.041
 61230,-0.28413014,-0.00316157,-0.00205112,-0.01486865,0.05204375,0.047
 27603,0.30998815,0.00001938,0.00001558,0.00001130,-0.00000477,0.000000
 63,0.00000194,0.00000269,-0.00000921,-0.00000047,0.00001031,-0.0000003
 1,-0.00000266,0.00008925,0.00001919,0.00002536,0.00003040,0.00001786,-
 0.00002245,-0.00134273,-0.00024437,0.00036351,-0.00002416,0.00001439,-
 0.00009220,-0.00155162,-0.00029849,0.00035938,0.00058527,0.00059805,0.
 00033755,-0.00010405,-0.00002713,0.00004272,0.00016768,0.00008072,-0.0
 0021256,0.00992986,-0.01240207,0.00729583,0.00078266,0.00087755,0.0001
 0622,-0.00151931,-0.00229555,-0.00014187,-0.00012422,-0.00005104,0.000
 09495,0.00025825,-0.00024259,-0.00023505,0.00061865,-0.00082586,0.0001
 0347,0.00000936,0.00001458,0.00001707,-0.00000186,-0.00000867,-0.00000
 044,0.00001008,0.00000145,-0.00000137,-0.00000041,-0.00000703,-0.00001
 824,-0.11945190,0.10511037,-0.05064441,-0.01495153,0.02130566,-0.01145
 237,-0.00373110,0.00347296,-0.00138540,0.13030051,0.00003169,0.0000215
 1,0.00002423,-0.00000565,0.00000049,-0.00000593,-0.00000224,-0.0000065
 6,-0.00000084,0.00001124,0.00000194,-0.00000339,-0.00028385,0.00052206
 ,0.00019128,0.00008271,-0.00000812,-0.00006262,0.00037897,-0.00004784,
 -0.00026328,-0.00020677,-0.00010678,-0.00008664,-0.00002866,0.00090395
 ,0.00022048,0.00092311,0.00024683,-0.00000432,-0.00011053,0.00001654,0
 .00000086,-0.00000665,0.00005059,-0.00009892,0.01669820,-0.01992243,0.
 01071143,0.00023461,0.00093147,-0.00061287,-0.00481377,-0.00440711,-0.
 00161115,-0.00010042,0.00025870,0.00010474,-0.00009703,0.00036043,-0.0
 0016116,0.00103243,-0.00158092,0.00070687,0.00001945,0.00000959,0.0000
 1656,-0.00001587,0.00000126,0.00000473,0.00001656,0.00000810,-0.000007
 57,-0.00000360,-0.00002850,-0.00002619,0.10417196,-0.19894304,0.072375
 49,0.00086059,-0.00100194,-0.00011970,-0.00370263,0.00494721,-0.001661
 73,-0.11507992,0.21789654,-0.00002606,-0.00000387,-0.00002552,0.000006
 60,0.00000106,-0.00000311,0.00000287,0.00000476,0.00000496,-0.00000767
 ,-0.00000518,0.00000280,0.00009734,-0.00029400,-0.00024050,0.00000157,
 0.00003056,-0.00000889,-0.00012087,0.00048944,0.00044992,-0.00011480,-
 0.00013095,-0.00012754,0.00043727,-0.00037976,0.00009761,-0.00019886,0
 .00061101,-0.00007896,-0.00002361,0.00005861,-0.00000593,0.00009805,-0
 .00007608,-0.00002201,0.00310959,-0.00392612,0.00025762,0.00059659,0.0
 0010917,0.00041503,-0.00015915,-0.00070661,0.00042375,0.00014839,-0.00
 037596,0.00040029,-0.00031489,0.00015168,-0.00000409,-0.00006943,-0.00
 018925,0.00056596,-0.00003242,0.00000947,-0.00000203,0.00000268,0.0000
 0658,0.00000097,-0.00000322,-0.00000808,-0.00000296,0.00000658,-0.0000
 0594,0.00000944,-0.05017589,0.07280882,-0.08213184,0.00823710,-0.01330
 300,0.00612291,-0.01704636,0.02458804,-0.01063726,0.05551160,-0.079525
 68,0.08445461,-0.13798637,0.01105756,0.04825300,0.00314934,-0.00171434
 ,-0.00465599,-0.00120782,-0.00172531,-0.00130411,-0.02332145,0.0087267
 1,0.01712702,-0.19794458,-0.03693974,-0.05455608,-0.00019501,-0.003892
 30,0.00163118,-0.01251977,-0.00478374,-0.00521762,0.00134019,0.0000378
 4,-0.00146661,-0.00171901,0.00043710,0.00014225,-0.00097038,-0.0003917
 7,-0.00090642,-0.00009583,0.00013657,-0.00015962,0.00005957,-0.0000507
 1,-0.00000765,-0.00019468,-0.00034993,0.00034828,0.00002301,0.00001453
 ,-0.00006437,0.00017453,0.00017185,-0.00019217,-0.00002192,0.00000225,
 0.00002920,0.00016044,-0.00006818,-0.00000433,-0.00002281,0.00000806,0
 .00000287,-0.08365167,-0.00077414,-0.01005387,-0.00274906,0.00035685,-
 0.00145066,-0.00527533,0.00603916,-0.02976751,0.00371332,-0.00567823,0
 .02684625,0.00016506,0.00002567,-0.00013839,0.00014600,0.00001802,-0.0
 0001531,-0.00004047,0.00000836,0.00002045,-0.00003135,-0.00004234,0.00
 005934,0.53212568,0.01943327,-0.07286020,-0.01448859,-0.00693910,0.000
 20709,0.00578236,0.02358046,-0.00846334,-0.01709196,-0.01195767,0.0041
 2962,0.01015669,-0.00290505,-0.01020050,-0.00600974,-0.00126598,0.0003
 5645,0.00132924,-0.00210352,-0.00131119,0.00069871,0.00000824,0.000222
 43,-0.00036734,-0.00138402,-0.00092491,0.00104711,0.00298418,-0.000608
 52,0.00053239,-0.00017010,-0.00007879,-0.00016656,0.00070998,-0.000633
 81,0.00000632,0.00057046,-0.00039812,-0.00044646,-0.00000271,0.0000377
 6,0.00003356,0.00002285,-0.00003666,0.00012306,0.00002120,-0.00000504,
 -0.00001788,-0.00004532,-0.00001278,0.00000230,0.00005685,-0.00008789,
 -0.00003465,0.00352525,-0.07142433,0.01446169,0.00567345,-0.00598083,0
 .02979856,-0.00151657,0.00295485,-0.01532808,-0.00213855,-0.00014963,-
 0.01307286,-0.00027090,0.00002789,0.00018219,-0.00011437,-0.00004836,-
 0.00000206,0.00001583,0.00000091,-0.00001694,0.00002990,0.00000038,-0.
 00002877,-0.04566355,0.35602112,0.04587645,-0.01293808,-0.11984933,0.0
 2598089,-0.00959083,-0.02021237,-0.00549371,0.00299058,0.00199153,-0.0
 0790721,0.00295126,0.00523080,-0.05028363,-0.01890532,-0.10374147,-0.0
 2670835,-0.00128326,-0.01073618,0.01128929,-0.00322152,0.01342009,0.00
 029459,-0.00022690,-0.00124106,0.00112538,0.00076066,-0.00091759,0.002
 44495,0.00128047,-0.00334180,0.00003566,0.00018291,0.00018652,-0.00018
 589,-0.00002350,-0.00005523,0.00053228,-0.00103046,0.00122623,-0.00008
 404,-0.00001053,-0.00010674,0.00043634,0.00015082,-0.00040869,-0.00001
 495,0.00001426,0.00001806,0.00019118,-0.00016295,0.00004285,-0.0000489
 0,0.00000261,0.00001661,-0.01091286,0.00813384,-0.17950123,-0.00024664
 ,-0.00218441,0.00144249,-0.00203957,0.00195793,-0.01211669,-0.00332165
 ,0.00395022,-0.01798192,0.00003606,-0.00010596,-0.00014033,0.00011209,
 0.00000934,0.00000329,-0.00000278,0.00000437,0.00001613,-0.00006460,-0
 .00004155,0.00007037,0.02473356,-0.00980453,0.51664766,-0.00315975,0.0
 3684046,-0.00071222,0.00178667,-0.00019404,-0.00120092,-0.00511775,0.0
 0136371,0.00366324,0.00057438,-0.00031194,-0.00205086,0.01572996,0.063
 82511,0.01482943,-0.00071134,-0.00141228,-0.00023325,-0.00326161,-0.00
 087735,0.00133632,0.00179644,-0.00029653,-0.00172707,0.00235202,-0.000
 92535,-0.00209115,-0.00009635,0.00053489,-0.00153561,-0.00036841,-0.00
 004259,-0.00022108,0.00109796,-0.00181617,0.00052369,0.00027063,-0.001
 27874,0.00042573,0.00002335,0.00008222,-0.00009185,0.00043361,0.000282
 61,-0.00025003,-0.00001543,-0.00000392,0.00001583,0.00020019,-0.000150
 66,0.00001847,-0.00003322,-0.00014681,-0.00000816,0.00320704,0.0105675
 3,-0.00395094,0.00051642,-0.00132281,-0.00141119,-0.00112151,0.0005468
 2,0.00051891,0.00087682,-0.00017824,-0.00091493,-0.00022827,0.00030472
 ,-0.00009320,0.00016466,-0.00018433,-0.00002391,-0.00005247,-0.0000010
 2,0.00000032,-0.00004664,-0.00032164,0.00022830,-0.06078005,0.02464294
 ,-0.00177311,0.01373964,0.01237736,-0.03487647,0.00064383,-0.00143353,
 0.00176672,-0.00028541,0.00514474,-0.00184086,-0.00370006,-0.00196475,
 0.00158729,0.00039380,-0.00463340,0.03361614,0.00092760,0.00147110,0.0
 0239917,0.00075492,-0.00158518,0.01060254,0.00190831,0.00126323,-0.001
 06028,-0.00125988,0.00551177,-0.00044572,-0.00319210,-0.00110218,-0.00
 047396,-0.00069790,-0.00018083,0.00012186,-0.00009514,0.00030822,-0.00
 050232,0.00035059,-0.00010705,-0.00008564,0.00047748,0.00003713,0.0000
 4025,-0.00010090,0.00023150,0.00020709,-0.00022622,-0.00003234,-0.0000
 0226,0.00005300,0.00028341,-0.00009712,-0.00003720,-0.00009583,-0.0000
 3399,0.00003789,0.00588278,-0.03026925,0.01114726,0.00102517,-0.000906
 87,0.00541987,-0.00117327,0.00134325,-0.00175328,-0.00085299,0.0017781
 8,-0.00047518,0.00019321,0.00019804,-0.00039703,0.00038157,-0.00011265
 ,-0.00003462,-0.00008092,-0.00000434,0.00004460,-0.00011756,-0.0004069
 6,0.00028392,0.10287192,-0.17970388,0.04847128,-0.18863589,0.16719598,
 0.00252715,-0.01820189,0.00740967,-0.00181937,0.00017904,0.00242201,0.
 00411686,-0.00262047,-0.00121168,-0.00067586,0.00065724,0.00026472,0.0
 1261836,0.02533449,-0.00158016,-0.00054139,-0.00603119,0.00122480,-0.0
 0078393,0.00507555,0.00043513,-0.00005532,-0.00014130,0.00022823,0.002
 27878,-0.00006257,-0.00082835,-0.00060731,0.00021522,-0.00030318,0.000
 10100,0.00005378,0.00009879,0.00047521,-0.00054035,-0.00004951,-0.0000
 1519,-0.00032114,0.00010459,-0.00003536,0.00002975,0.00005917,0.000124
 35,0.00010434,-0.00009289,0.00001881,0.00000793,0.00004432,0.00009427,
 -0.00005414,0.00000060,-0.00001155,-0.00004725,-0.00002540,-0.00590004
 ,0.04093648,-0.00381315,-0.00267148,0.00189466,-0.00754649,-0.00069348
 ,-0.00025905,0.00154250,0.00038266,-0.00003181,0.00362336,-0.00003733,
 0.00015608,-0.00011369,0.00011518,-0.00008175,-0.00000918,-0.00001333,
 0.00000590,0.00003684,-0.00002293,-0.00019670,0.00010969,-0.00397386,0
 .01344082,-0.06790110,-0.01879997,-0.07470787,0.07087946,0.00074539,0.
 00202292,-0.00011136,-0.00010798,-0.00049093,0.00016940,-0.00037187,0.
 00101918,0.00032679,0.00156301,-0.00064737,-0.00021518,-0.01601628,-0.
 05010907,-0.01117998,-0.00020025,-0.00087281,0.00051518,-0.00037998,-0
 .00501120,-0.00142738,-0.00103185,0.00064098,0.00102336,-0.00275654,0.
 00072424,0.00233219,0.00104500,-0.00056017,0.00174631,0.00013341,-0.00
 011948,0.00001350,-0.00059721,0.00073261,-0.00029731,0.00012533,0.0006
 8522,-0.00077987,-0.00001160,-0.00005439,0.00010468,-0.00038125,-0.000
 29144,0.00032719,0.00002623,-0.00000361,-0.00004857,-0.00027348,0.0001
 4605,0.00000258,0.00006068,0.00007849,-0.00001024,-0.00087525,0.001997
 48,0.00024299,-0.00001233,0.00119909,-0.00090730,0.00087438,-0.0008877
 7,0.00121982,-0.00003273,-0.00042333,-0.00000955,-0.00009449,-0.000210
 00,0.00031140,-0.00028954,0.00010104,0.00002156,0.00006581,0.00000086,
 -0.00003820,0.00007425,0.00033361,-0.00023709,-0.00836328,-0.00328035,
 -0.00247638,0.03023860,0.08230583,0.02516796,0.19647310,0.00122040,0.0
 0176635,-0.00082226,-0.00020322,-0.00063075,-0.00024079,-0.00107201,0.
 00097676,0.00043174,0.00039514,-0.00127162,-0.00035717,-0.01500342,-0.
 04324261,-0.00987045,-0.00043126,-0.00096836,0.00019969,-0.00069722,-0
 .00409199,-0.00160302,-0.00075175,0.00044694,0.00082113,-0.00244570,0.
 00043569,0.00200239,0.00074718,-0.00115779,0.00159677,0.00010851,-0.00
 004486,-0.00001522,-0.00058329,0.00081597,-0.00019898,0.00010600,0.000
 77843,-0.00069536,-0.00000559,-0.00006708,0.00007680,-0.00040074,-0.00
 032552,0.00031395,0.00001439,-0.00000297,-0.00004993,-0.00023937,0.000
 15879,-0.00001140,0.00005692,0.00011130,0.00000894,0.00118583,0.001306
 52,0.00158893,-0.00102485,0.00046780,-0.00136169,-0.00090411,-0.001212
 53,0.00015720,-0.00036881,-0.00050196,0.00013413,-0.00004729,-0.000199
 29,0.00025255,-0.00025330,0.00010541,0.00002195,0.00005801,-0.00000354
 ,-0.00003716,0.00006316,0.00033072,-0.00021670,-0.02650541,-0.00822587
 ,-0.00958771,0.05353069,0.03664425,0.02029773,-0.17950773,0.17712300,0
 .00015659,-0.00048258,-0.00080400,-0.00006677,-0.00020212,0.00013490,-
 0.00048623,0.00046264,0.00018762,0.00002854,-0.00013419,-0.00013183,-0
 .00641068,-0.02019539,-0.00310288,0.00047264,-0.00002728,0.00059628,-0
 .00040975,-0.00207060,-0.00101047,-0.00055969,0.00020237,0.00053229,-0
 .00131999,0.00018039,0.00103155,0.00029979,-0.00027679,0.00092170,0.00
 013087,-0.00003364,0.00005868,-0.00025850,0.00033598,-0.00021152,0.000
 06570,0.00033014,-0.00043075,-0.00002036,-0.00002185,0.00009167,-0.000
 18764,-0.00013431,0.00017062,0.00002504,0.00000365,-0.00000887,-0.0001
 3532,0.00006625,0.00000155,0.00003024,0.00003086,-0.00002273,-0.000146
 75,0.00233827,-0.00091664,0.00073451,0.00085180,0.00042328,0.00213323,
 -0.00049775,0.00099038,-0.00035795,-0.00043702,-0.00001385,-0.00005566
 ,-0.00008319,0.00015250,-0.00014038,0.00004069,0.00000943,0.00003678,0
 .00000413,-0.00000814,0.00003689,0.00013682,-0.00010925,-0.00528596,-0
 .00130965,-0.00293621,0.01297956,0.01943706,-0.00297198,-0.18754693,0.
 16748917,0.18719387,-0.00081715,0.00030257,-0.00012672,-0.00000639,-0.
 00004211,-0.00000514,0.00015761,0.00021116,0.00011034,0.00050667,0.000
 05091,0.00015475,0.00066161,-0.00144734,-0.00071109,0.00002754,-0.0000
 1894,0.00005230,-0.00020478,0.00023637,-0.00025947,-0.00005680,-0.0000
 5590,0.00009807,-0.00003744,0.00003465,0.00011062,-0.00007190,-0.00037
 763,0.00023741,0.00004435,0.00004853,0.00002083,-0.00008757,0.00011379
 ,-0.00008818,-0.00001754,0.00013335,-0.00009042,-0.00000952,-0.0000182
 4,0.00003092,-0.00006652,-0.00006404,0.00003178,0.00000520,0.00000695,
 0.00000850,-0.00000143,0.00002566,-0.00001116,-0.00000931,0.00004060,-
 0.00000102,0.00078030,0.00033575,-0.00010762,-0.00011618,-0.00000995,-
 0.00006583,-0.00006887,0.00002300,0.00032206,-0.00001771,-0.00009014,0
 .00010833,0.00001341,-0.00002336,0.00000918,0.00000003,0.00001306,-0.0
 0000412,0.00000492,0.00000385,0.00000512,-0.00000295,0.00002642,-0.000
 01353,-0.00396630,-0.00151711,-0.00152447,0.00198440,-0.01729320,-0.01
 136288,-0.19962926,0.17295886,0.18625817,0.20100156,-0.00025890,0.0001
 7699,0.00001161,0.00000223,-0.00001191,0.00004345,-0.00020275,0.000024
 64,-0.00000212,-0.00033345,0.00028889,0.00017570,-0.00078256,-0.000906
 31,0.00025457,0.00010808,0.00009972,0.00005608,0.00016083,0.00003551,-
 0.00002357,-0.00006381,-0.00008179,0.00005152,0.00005554,-0.00003231,-
 0.00003961,-0.00007370,0.00014403,-0.00019542,0.00003688,0.00000926,0.
 00004374,-0.00008535,0.00004339,-0.00004352,-0.00006424,-0.00005598,0.
 00009955,-0.00000810,0.00001132,0.00000898,0.00006588,0.00007085,-0.00
 004340,0.00000102,-0.00000167,0.00001614,0.00004399,-0.00002835,-0.000
 00106,-0.00002266,-0.00001545,-0.00000522,0.00003877,0.00031808,-0.000
 33357,0.00004247,0.00029271,0.00015730,0.00044631,-0.00037296,-0.00002
 474,-0.00028451,-0.00015490,0.00021253,0.00003349,0.00000110,-0.000038
 33,0.00004387,0.00000229,-0.00000857,-0.00000747,0.00000404,0.00001337
 ,-0.00001226,-0.00004811,0.00002285,-0.00133274,-0.00280386,-0.0017430
 2,0.00557863,-0.00667820,-0.00509152,0.15048205,-0.15952119,-0.1660038
 5,-0.15360751,0.16919018,-0.00016949,0.00040128,-0.00024732,0.00013077
 ,0.00004337,-0.00003034,-0.00016200,0.00007829,0.00009947,-0.00011479,
 -0.00000185,-0.00005005,-0.00107358,-0.00018461,-0.00048011,0.00000933
 ,-0.00012588,-0.00005579,0.00021435,-0.00004374,0.00022573,0.00006091,
 -0.00000312,-0.00007496,0.00001192,-0.00000922,-0.00008604,-0.00002567
 ,-0.00006498,-0.00020243,-0.00001624,0.00001003,-0.00001536,-0.0000806
 6,0.00004356,0.00006571,-0.00002517,0.00000725,0.00014932,0.00000975,0
 .00000209,-0.00004783,0.00002507,0.00000343,-0.00004442,-0.00001501,-0
 .00000436,-0.00000713,0.00003861,-0.00000286,-0.00000516,-0.00001411,0
 .00001228,0.00002555,0.00013431,0.00033716,0.00012832,-0.00006265,-0.0
 0014549,-0.00028317,-0.00037806,0.00015391,0.00012220,0.00030376,0.000
 19261,-0.00007300,0.00003539,-0.00000752,-0.00004733,0.00003424,0.0000
 0961,-0.00000242,-0.00001067,-0.00000538,-0.00000253,-0.00001076,-0.00
 000323,0.00001396,0.00002712,0.00059106,0.00087533,0.00254966,-0.00338
 862,-0.00203715,0.17176042,-0.17032522,-0.17981721,-0.17318672,0.17243
 014,0.18190414\\-0.00000184,-0.00000381,-0.00000381,-0.00000264,-0.000
 00346,-0.00000356,-0.00000295,-0.00000402,-0.00000414,-0.00000092,-0.0
 0000489,-0.00000468,-0.00000125,-0.00000097,-0.00000110,-0.00000256,-0
 .00000084,-0.00000117,-0.00000075,0.00000032,0.00000018,0.00000060,-0.
 00000007,0.00000005,-0.00000194,0.00000067,0.00000042,-0.00000009,0.00
 000145,0.00000139,-0.00000142,0.00000185,0.00000154,0.00000111,0.00000
 097,0.00000109,0.00000075,0.00000304,0.00000278,0.00000194,0.00000250,
 0.00000257,0.00000151,0.00000396,0.00000388,0.00000028,0.00000438,0.00
 000409,0.00000214,0.00000490,0.00000485,0.00000273,0.00000334,0.000003
 47,0.00000074,-0.00000315,-0.00000280,-0.00000031,-0.00000327,-0.00000
 309,0.00000161,-0.00000420,-0.00000371,0.00000182,-0.00000232,-0.00000
 194,-0.00000101,0.00000376,0.00000339,-0.00000041,0.00000473,0.0000043
 6,-0.00000231,0.00000415,0.00000354,-0.00000147,0.00000306,0.00000264,
 -0.00000039,-0.00000275,-0.00000248,0.00000065,-0.00000247,-0.00000211
 ,0.00000263,-0.00000364,-0.00000315,0.00000372,-0.00000323,-0.00000249
 \\\@
 Job cpu time:  0 days 13 hours 21 minutes 48.6 seconds.
 File lengths (MBytes):  RWF=  71923 Int=      0 D2E=      0 Chk=     26 Scr=      1
 Normal termination of Gaussian 09 at Wed Apr 30 05:19:19 2014.
