 Entering Gaussian System, Link 0=g09
 Initial command:
 /usr/caen/gaussian-09revc/g09/l1.exe /scratch/avioli_flux/hetanjin/scratch/Gau-21615.inp -scrdir=/scratch/avioli_flux/hetanjin/scratch/
 Entering Link 1 = /usr/caen/gaussian-09revc/g09/l1.exe PID=     21616.
  
 Copyright (c) 1988,1990,1992,1993,1995,1998,2003,2009,2011,
            Gaussian, Inc.  All Rights Reserved.
  
 This is part of the Gaussian(R) 09 program.  It is based on
 the Gaussian(R) 03 system (copyright 2003, Gaussian, Inc.),
 the Gaussian(R) 98 system (copyright 1998, Gaussian, Inc.),
 the Gaussian(R) 94 system (copyright 1995, Gaussian, Inc.),
 the Gaussian 92(TM) system (copyright 1992, Gaussian, Inc.),
 the Gaussian 90(TM) system (copyright 1990, Gaussian, Inc.),
 the Gaussian 88(TM) system (copyright 1988, Gaussian, Inc.),
 the Gaussian 86(TM) system (copyright 1986, Carnegie Mellon
 University), and the Gaussian 82(TM) system (copyright 1983,
 Carnegie Mellon University). Gaussian is a federally registered
 trademark of Gaussian, Inc.
  
 This software contains proprietary and confidential information,
 including trade secrets, belonging to Gaussian, Inc.
  
 This software is provided under written license and may be
 used, copied, transmitted, or stored only in accord with that
 written license.
  
 The following legend is applicable only to US Government
 contracts under FAR:
  
                    RESTRICTED RIGHTS LEGEND
  
 Use, reproduction and disclosure by the US Government is
 subject to restrictions as set forth in subparagraphs (a)
 and (c) of the Commercial Computer Software - Restricted
 Rights clause in FAR 52.227-19.
  
 Gaussian, Inc.
 340 Quinnipiac St., Bldg. 40, Wallingford CT 06492
  
  
 ---------------------------------------------------------------
 Warning -- This program may not be used in any manner that
 competes with the business of Gaussian, Inc. or will provide
 assistance to any competitor of Gaussian, Inc.  The licensee
 of this program is prohibited from giving any competitor of
 Gaussian, Inc. access to this program.  By using this program,
 the user acknowledges that Gaussian, Inc. is engaged in the
 business of creating and licensing software in the field of
 computational chemistry and represents and warrants to the
 licensee that it is not a competitor of Gaussian, Inc. and that
 it will not use this program in any manner prohibited above.
 ---------------------------------------------------------------
  

 Cite this work as:
 Gaussian 09, Revision C.01,
 M. J. Frisch, G. W. Trucks, H. B. Schlegel, G. E. Scuseria, 
 M. A. Robb, J. R. Cheeseman, G. Scalmani, V. Barone, B. Mennucci, 
 G. A. Petersson, H. Nakatsuji, M. Caricato, X. Li, H. P. Hratchian, 
 A. F. Izmaylov, J. Bloino, G. Zheng, J. L. Sonnenberg, M. Hada, 
 M. Ehara, K. Toyota, R. Fukuda, J. Hasegawa, M. Ishida, T. Nakajima, 
 Y. Honda, O. Kitao, H. Nakai, T. Vreven, J. A. Montgomery, Jr., 
 J. E. Peralta, F. Ogliaro, M. Bearpark, J. J. Heyd, E. Brothers, 
 K. N. Kudin, V. N. Staroverov, T. Keith, R. Kobayashi, J. Normand, 
 K. Raghavachari, A. Rendell, J. C. Burant, S. S. Iyengar, J. Tomasi, 
 M. Cossi, N. Rega, J. M. Millam, M. Klene, J. E. Knox, J. B. Cross, 
 V. Bakken, C. Adamo, J. Jaramillo, R. Gomperts, R. E. Stratmann, 
 O. Yazyev, A. J. Austin, R. Cammi, C. Pomelli, J. W. Ochterski, 
 R. L. Martin, K. Morokuma, V. G. Zakrzewski, G. A. Voth, 
 P. Salvador, J. J. Dannenberg, S. Dapprich, A. D. Daniels, 
 O. Farkas, J. B. Foresman, J. V. Ortiz, J. Cioslowski, 
 and D. J. Fox, Gaussian, Inc., Wallingford CT, 2010.
 
 ******************************************
 Gaussian 09:  EM64L-G09RevC.01 23-Sep-2011
                17-Apr-2014 
 ******************************************
 %mem=30GB
 %nprocshared=8
 Will use up to    8 processors via shared memory.
 %chk=TS_2c_2.chk
 -------------------------------
 #p cbs-qb3 opt=(TS,calcfc) freq
 -------------------------------
 1/5=1,10=4,14=-1,18=20,26=3,38=1/1,3;
 2/9=110,12=2,17=6,18=5,40=1/2;
 3/5=4,6=6,7=700,11=2,16=1,25=1,30=1,71=2,74=-5/1,2,3;
 4//1;
 5/5=2,38=5/2;
 8/6=4,10=90,11=11/1;
 11/6=1,8=1,9=11,15=111,16=1/1,2,10;
 10/6=1,7=6,13=1/2;
 6/7=2,8=2,9=2,10=2,28=1/1;
 7/10=1,18=20,25=1/1,2,3,16;
 1/5=1,10=4,14=-1,18=20/3(2);
 2/9=110/2;
 99//99;
 2/9=110/2;
 3/5=4,6=6,7=700,11=2,16=1,25=1,30=1,71=1,74=-5/1,2,3;
 4/5=5,16=3/1;
 5/5=2,38=5/2;
 7//1,2,3,16;
 1/5=1,14=-1,18=20/3(-5);
 2/9=110/2;
 6/7=2,8=2,9=2,10=2,19=2,28=1/1;
 99/9=1/99;
 Leave Link    1 at Thu Apr 17 16:45:53 2014, MaxMem= 4026531840 cpu:       0.8
 (Enter /usr/caen/gaussian-09revc/g09/l101.exe)
 ---------------------------------------------------
 TS_2c_2 using b3lyp/6-311++g(d,p) to calculate freq
 ---------------------------------------------------
 Charge =  0 Multiplicity = 2
 Symbolic Z-Matrix:
 C                     3.23131  -0.59267  -0.83839 
 H                     3.23985   0.19824  -1.59083 
 H                     3.46795  -1.53701  -1.34045 
 H                     4.02408  -0.40058  -0.11048 
 C                     0.74765  -0.46918  -0.93885 
 H                     0.89473   0.05307  -1.88182 
 C                    -0.67412  -0.69268  -0.53694 
 H                    -0.73352  -1.33323   0.3452 
 H                    -1.18314  -1.22887  -1.34846 
 C                    -1.41334   0.64319  -0.27455 
 H                    -1.32346   1.27033  -1.16955 
 H                    -0.87971   1.17162   0.52053 
 C                    -2.90722   0.52493   0.09604 
 H                    -3.25714   1.55613   0.23591 
 C                    -3.75373  -0.09021  -1.02795 
 H                    -3.50732  -1.14409  -1.19091 
 H                    -4.81923  -0.04093  -0.78469 
 H                    -3.60373   0.43858  -1.97428 
 C                     1.83828  -1.55747   1.0717 
 H                     1.79755  -2.6146    0.78711 
 H                     2.73055  -1.40176   1.6796 
 H                     0.96837  -1.33657   1.69055 
 C                    -3.13085  -0.21024   1.42571 
 H                    -4.18234  -0.16391   1.72422 
 H                    -2.86066  -1.26836   1.3533 
 H                    -2.53551   0.23363   2.22908 
 C                     1.8855   -0.68031  -0.15788 
 O                     1.88742   0.96372   0.86029 
 O                     2.30635   2.0706    0.10788 
 H                     3.2716    2.02164   0.16731 
 
 NAtoms=     30 NQM=        0 NQMF=       0 NMMI=     30 NMMIF=      0
                NMic=       0 NMicF=      0.
                    Isotopes and Nuclear Properties:
 (Nuclear quadrupole moments (NQMom) in fm**2, nuclear magnetic moments (NMagM)
  in nuclear magnetons)

  Atom         1           2           3           4           5           6           7           8           9          10
 IAtWgt=          12           1           1           1          12           1          12           1           1          12
 AtmWgt=  12.0000000   1.0078250   1.0078250   1.0078250  12.0000000   1.0078250  12.0000000   1.0078250   1.0078250  12.0000000
 NucSpn=           0           1           1           1           0           1           0           1           1           0
 AtZEff=   0.0000000   0.0000000   0.0000000   0.0000000   0.0000000   0.0000000   0.0000000   0.0000000   0.0000000   0.0000000
 NQMom=    0.0000000   0.0000000   0.0000000   0.0000000   0.0000000   0.0000000   0.0000000   0.0000000   0.0000000   0.0000000
 NMagM=    0.0000000   2.7928460   2.7928460   2.7928460   0.0000000   2.7928460   0.0000000   2.7928460   2.7928460   0.0000000

  Atom        11          12          13          14          15          16          17          18          19          20
 IAtWgt=           1           1          12           1          12           1           1           1          12           1
 AtmWgt=   1.0078250   1.0078250  12.0000000   1.0078250  12.0000000   1.0078250   1.0078250   1.0078250  12.0000000   1.0078250
 NucSpn=           1           1           0           1           0           1           1           1           0           1
 AtZEff=   0.0000000   0.0000000   0.0000000   0.0000000   0.0000000   0.0000000   0.0000000   0.0000000   0.0000000   0.0000000
 NQMom=    0.0000000   0.0000000   0.0000000   0.0000000   0.0000000   0.0000000   0.0000000   0.0000000   0.0000000   0.0000000
 NMagM=    2.7928460   2.7928460   0.0000000   2.7928460   0.0000000   2.7928460   2.7928460   2.7928460   0.0000000   2.7928460

  Atom        21          22          23          24          25          26          27          28          29          30
 IAtWgt=           1           1          12           1           1           1          12          16          16           1
 AtmWgt=   1.0078250   1.0078250  12.0000000   1.0078250   1.0078250   1.0078250  12.0000000  15.9949146  15.9949146   1.0078250
 NucSpn=           1           1           0           1           1           1           0           0           0           1
 AtZEff=   0.0000000   0.0000000   0.0000000   0.0000000   0.0000000   0.0000000   0.0000000   0.0000000   0.0000000   0.0000000
 NQMom=    0.0000000   0.0000000   0.0000000   0.0000000   0.0000000   0.0000000   0.0000000   0.0000000   0.0000000   0.0000000
 NMagM=    2.7928460   2.7928460   0.0000000   2.7928460   2.7928460   2.7928460   0.0000000   0.0000000   0.0000000   2.7928460
 Leave Link  101 at Thu Apr 17 16:45:53 2014, MaxMem= 4026531840 cpu:       1.9
 (Enter /usr/caen/gaussian-09revc/g09/l103.exe)

 GradGradGradGradGradGradGradGradGradGradGradGradGradGradGradGradGradGrad
 Berny optimization.
 Initialization pass.
                           ----------------------------
                           !    Initial Parameters    !
                           ! (Angstroms and Degrees)  !
 --------------------------                            --------------------------
 ! Name  Definition              Value          Derivative Info.                !
 --------------------------------------------------------------------------------
 ! R1    R(1,2)                  1.0917         calculate D2E/DX2 analytically  !
 ! R2    R(1,3)                  1.0954         calculate D2E/DX2 analytically  !
 ! R3    R(1,4)                  1.0933         calculate D2E/DX2 analytically  !
 ! R4    R(1,27)                 1.5106         calculate D2E/DX2 analytically  !
 ! R5    R(5,6)                  1.0879         calculate D2E/DX2 analytically  !
 ! R6    R(5,7)                  1.4943         calculate D2E/DX2 analytically  !
 ! R7    R(5,27)                 1.3961         calculate D2E/DX2 analytically  !
 ! R8    R(7,8)                  1.0918         calculate D2E/DX2 analytically  !
 ! R9    R(7,9)                  1.0978         calculate D2E/DX2 analytically  !
 ! R10   R(7,10)                 1.5491         calculate D2E/DX2 analytically  !
 ! R11   R(10,11)                1.0965         calculate D2E/DX2 analytically  !
 ! R12   R(10,12)                1.0937         calculate D2E/DX2 analytically  !
 ! R13   R(10,13)                1.5437         calculate D2E/DX2 analytically  !
 ! R14   R(13,14)                1.0979         calculate D2E/DX2 analytically  !
 ! R15   R(13,15)                1.5357         calculate D2E/DX2 analytically  !
 ! R16   R(13,23)                1.5357         calculate D2E/DX2 analytically  !
 ! R17   R(15,16)                1.0945         calculate D2E/DX2 analytically  !
 ! R18   R(15,17)                1.094          calculate D2E/DX2 analytically  !
 ! R19   R(15,18)                1.0944         calculate D2E/DX2 analytically  !
 ! R20   R(19,20)                1.0955         calculate D2E/DX2 analytically  !
 ! R21   R(19,21)                1.0908         calculate D2E/DX2 analytically  !
 ! R22   R(19,22)                1.0902         calculate D2E/DX2 analytically  !
 ! R23   R(19,27)                1.5111         calculate D2E/DX2 analytically  !
 ! R24   R(23,24)                1.094          calculate D2E/DX2 analytically  !
 ! R25   R(23,25)                1.0945         calculate D2E/DX2 analytically  !
 ! R26   R(23,26)                1.094          calculate D2E/DX2 analytically  !
 ! R27   R(27,28)                1.9338         calculate D2E/DX2 analytically  !
 ! R28   R(28,29)                1.4024         calculate D2E/DX2 analytically  !
 ! R29   R(29,30)                0.9683         calculate D2E/DX2 analytically  !
 ! A1    A(2,1,3)              107.8776         calculate D2E/DX2 analytically  !
 ! A2    A(2,1,4)              109.0224         calculate D2E/DX2 analytically  !
 ! A3    A(2,1,27)             111.0686         calculate D2E/DX2 analytically  !
 ! A4    A(3,1,4)              107.4578         calculate D2E/DX2 analytically  !
 ! A5    A(3,1,27)             110.4218         calculate D2E/DX2 analytically  !
 ! A6    A(4,1,27)             110.8722         calculate D2E/DX2 analytically  !
 ! A7    A(6,5,7)              115.6934         calculate D2E/DX2 analytically  !
 ! A8    A(6,5,27)             116.5686         calculate D2E/DX2 analytically  !
 ! A9    A(7,5,27)             127.0401         calculate D2E/DX2 analytically  !
 ! A10   A(5,7,8)              110.906          calculate D2E/DX2 analytically  !
 ! A11   A(5,7,9)              108.3846         calculate D2E/DX2 analytically  !
 ! A12   A(5,7,10)             111.7524         calculate D2E/DX2 analytically  !
 ! A13   A(8,7,9)              106.5885         calculate D2E/DX2 analytically  !
 ! A14   A(8,7,10)             110.0665         calculate D2E/DX2 analytically  !
 ! A15   A(9,7,10)             108.9737         calculate D2E/DX2 analytically  !
 ! A16   A(7,10,11)            108.4106         calculate D2E/DX2 analytically  !
 ! A17   A(7,10,12)            107.8759         calculate D2E/DX2 analytically  !
 ! A18   A(7,10,13)            115.873          calculate D2E/DX2 analytically  !
 ! A19   A(11,10,12)           106.0828         calculate D2E/DX2 analytically  !
 ! A20   A(11,10,13)           108.6072         calculate D2E/DX2 analytically  !
 ! A21   A(12,10,13)           109.5526         calculate D2E/DX2 analytically  !
 ! A22   A(10,13,14)           105.489          calculate D2E/DX2 analytically  !
 ! A23   A(10,13,15)           112.8562         calculate D2E/DX2 analytically  !
 ! A24   A(10,13,23)           112.6712         calculate D2E/DX2 analytically  !
 ! A25   A(14,13,15)           107.0852         calculate D2E/DX2 analytically  !
 ! A26   A(14,13,23)           107.0322         calculate D2E/DX2 analytically  !
 ! A27   A(15,13,23)           111.2036         calculate D2E/DX2 analytically  !
 ! A28   A(13,15,16)           111.7509         calculate D2E/DX2 analytically  !
 ! A29   A(13,15,17)           110.859          calculate D2E/DX2 analytically  !
 ! A30   A(13,15,18)           111.3337         calculate D2E/DX2 analytically  !
 ! A31   A(16,15,17)           107.2023         calculate D2E/DX2 analytically  !
 ! A32   A(16,15,18)           107.797          calculate D2E/DX2 analytically  !
 ! A33   A(17,15,18)           107.6976         calculate D2E/DX2 analytically  !
 ! A34   A(20,19,21)           108.2351         calculate D2E/DX2 analytically  !
 ! A35   A(20,19,22)           108.2594         calculate D2E/DX2 analytically  !
 ! A36   A(20,19,27)           110.4818         calculate D2E/DX2 analytically  !
 ! A37   A(21,19,22)           107.9043         calculate D2E/DX2 analytically  !
 ! A38   A(21,19,27)           110.1834         calculate D2E/DX2 analytically  !
 ! A39   A(22,19,27)           111.6669         calculate D2E/DX2 analytically  !
 ! A40   A(13,23,24)           110.85           calculate D2E/DX2 analytically  !
 ! A41   A(13,23,25)           111.6897         calculate D2E/DX2 analytically  !
 ! A42   A(13,23,26)           111.2436         calculate D2E/DX2 analytically  !
 ! A43   A(24,23,25)           107.2338         calculate D2E/DX2 analytically  !
 ! A44   A(24,23,26)           107.7868         calculate D2E/DX2 analytically  !
 ! A45   A(25,23,26)           107.8478         calculate D2E/DX2 analytically  !
 ! A46   A(1,27,5)             117.7312         calculate D2E/DX2 analytically  !
 ! A47   A(1,27,19)            115.3446         calculate D2E/DX2 analytically  !
 ! A48   A(1,27,28)            100.7765         calculate D2E/DX2 analytically  !
 ! A49   A(5,27,19)            121.1628         calculate D2E/DX2 analytically  !
 ! A50   A(5,27,28)             99.5997         calculate D2E/DX2 analytically  !
 ! A51   A(19,27,28)            93.7327         calculate D2E/DX2 analytically  !
 ! A52   A(27,28,29)           112.8811         calculate D2E/DX2 analytically  !
 ! A53   A(28,29,30)           102.9987         calculate D2E/DX2 analytically  !
 ! D1    D(2,1,27,5)            37.4166         calculate D2E/DX2 analytically  !
 ! D2    D(2,1,27,19)         -168.961          calculate D2E/DX2 analytically  !
 ! D3    D(2,1,27,28)          -69.5519         calculate D2E/DX2 analytically  !
 ! D4    D(3,1,27,5)           -82.2185         calculate D2E/DX2 analytically  !
 ! D5    D(3,1,27,19)           71.4039         calculate D2E/DX2 analytically  !
 ! D6    D(3,1,27,28)          170.813          calculate D2E/DX2 analytically  !
 ! D7    D(4,1,27,5)           158.7967         calculate D2E/DX2 analytically  !
 ! D8    D(4,1,27,19)          -47.5809         calculate D2E/DX2 analytically  !
 ! D9    D(4,1,27,28)           51.8281         calculate D2E/DX2 analytically  !
 ! D10   D(6,5,7,8)            172.5061         calculate D2E/DX2 analytically  !
 ! D11   D(6,5,7,9)             55.8261         calculate D2E/DX2 analytically  !
 ! D12   D(6,5,7,10)           -64.2733         calculate D2E/DX2 analytically  !
 ! D13   D(27,5,7,8)           -17.4636         calculate D2E/DX2 analytically  !
 ! D14   D(27,5,7,9)          -134.1436         calculate D2E/DX2 analytically  !
 ! D15   D(27,5,7,10)          105.757          calculate D2E/DX2 analytically  !
 ! D16   D(6,5,27,1)           -19.367          calculate D2E/DX2 analytically  !
 ! D17   D(6,5,27,19)         -171.3825         calculate D2E/DX2 analytically  !
 ! D18   D(6,5,27,28)           88.2802         calculate D2E/DX2 analytically  !
 ! D19   D(7,5,27,1)           170.6785         calculate D2E/DX2 analytically  !
 ! D20   D(7,5,27,19)           18.6629         calculate D2E/DX2 analytically  !
 ! D21   D(7,5,27,28)          -81.6743         calculate D2E/DX2 analytically  !
 ! D22   D(5,7,10,11)           55.4245         calculate D2E/DX2 analytically  !
 ! D23   D(5,7,10,12)          -59.0405         calculate D2E/DX2 analytically  !
 ! D24   D(5,7,10,13)          177.7813         calculate D2E/DX2 analytically  !
 ! D25   D(8,7,10,11)          179.1197         calculate D2E/DX2 analytically  !
 ! D26   D(8,7,10,12)           64.6548         calculate D2E/DX2 analytically  !
 ! D27   D(8,7,10,13)          -58.5235         calculate D2E/DX2 analytically  !
 ! D28   D(9,7,10,11)          -64.3289         calculate D2E/DX2 analytically  !
 ! D29   D(9,7,10,12)         -178.7939         calculate D2E/DX2 analytically  !
 ! D30   D(9,7,10,13)           58.0279         calculate D2E/DX2 analytically  !
 ! D31   D(7,10,13,14)        -179.6366         calculate D2E/DX2 analytically  !
 ! D32   D(7,10,13,15)         -63.0434         calculate D2E/DX2 analytically  !
 ! D33   D(7,10,13,23)          63.9299         calculate D2E/DX2 analytically  !
 ! D34   D(11,10,13,14)        -57.3839         calculate D2E/DX2 analytically  !
 ! D35   D(11,10,13,15)         59.2092         calculate D2E/DX2 analytically  !
 ! D36   D(11,10,13,23)       -173.8174         calculate D2E/DX2 analytically  !
 ! D37   D(12,10,13,14)         58.0687         calculate D2E/DX2 analytically  !
 ! D38   D(12,10,13,15)        174.6619         calculate D2E/DX2 analytically  !
 ! D39   D(12,10,13,23)        -58.3648         calculate D2E/DX2 analytically  !
 ! D40   D(10,13,15,16)         67.7711         calculate D2E/DX2 analytically  !
 ! D41   D(10,13,15,17)       -172.7055         calculate D2E/DX2 analytically  !
 ! D42   D(10,13,15,18)        -52.8333         calculate D2E/DX2 analytically  !
 ! D43   D(14,13,15,16)       -176.587          calculate D2E/DX2 analytically  !
 ! D44   D(14,13,15,17)        -57.0636         calculate D2E/DX2 analytically  !
 ! D45   D(14,13,15,18)         62.8086         calculate D2E/DX2 analytically  !
 ! D46   D(23,13,15,16)        -59.9765         calculate D2E/DX2 analytically  !
 ! D47   D(23,13,15,17)         59.5468         calculate D2E/DX2 analytically  !
 ! D48   D(23,13,15,18)        179.4191         calculate D2E/DX2 analytically  !
 ! D49   D(10,13,23,24)        172.6266         calculate D2E/DX2 analytically  !
 ! D50   D(10,13,23,25)        -67.8569         calculate D2E/DX2 analytically  !
 ! D51   D(10,13,23,26)         52.7078         calculate D2E/DX2 analytically  !
 ! D52   D(14,13,23,24)         57.1172         calculate D2E/DX2 analytically  !
 ! D53   D(14,13,23,25)        176.6337         calculate D2E/DX2 analytically  !
 ! D54   D(14,13,23,26)        -62.8016         calculate D2E/DX2 analytically  !
 ! D55   D(15,13,23,24)        -59.5256         calculate D2E/DX2 analytically  !
 ! D56   D(15,13,23,25)         59.9908         calculate D2E/DX2 analytically  !
 ! D57   D(15,13,23,26)       -179.4445         calculate D2E/DX2 analytically  !
 ! D58   D(20,19,27,1)         -77.8836         calculate D2E/DX2 analytically  !
 ! D59   D(20,19,27,5)          74.757          calculate D2E/DX2 analytically  !
 ! D60   D(20,19,27,28)        178.3341         calculate D2E/DX2 analytically  !
 ! D61   D(21,19,27,1)          41.6672         calculate D2E/DX2 analytically  !
 ! D62   D(21,19,27,5)        -165.6922         calculate D2E/DX2 analytically  !
 ! D63   D(21,19,27,28)        -62.115          calculate D2E/DX2 analytically  !
 ! D64   D(22,19,27,1)         161.5669         calculate D2E/DX2 analytically  !
 ! D65   D(22,19,27,5)         -45.7925         calculate D2E/DX2 analytically  !
 ! D66   D(22,19,27,28)         57.7846         calculate D2E/DX2 analytically  !
 ! D67   D(1,27,28,29)          46.2123         calculate D2E/DX2 analytically  !
 ! D68   D(5,27,28,29)         -74.6247         calculate D2E/DX2 analytically  !
 ! D69   D(19,27,28,29)        162.8976         calculate D2E/DX2 analytically  !
 ! D70   D(27,28,29,30)        -83.7879         calculate D2E/DX2 analytically  !
 --------------------------------------------------------------------------------
 Trust Radius=3.00D-01 FncErr=1.00D-07 GrdErr=1.00D-06
 Number of steps in this run=    162 maximum allowed number of steps=    180.
 Search for a saddle point of order  1.
 GradGradGradGradGradGradGradGradGradGradGradGradGradGradGradGradGradGrad

 Leave Link  103 at Thu Apr 17 16:45:54 2014, MaxMem= 4026531840 cpu:       0.1
 (Enter /usr/caen/gaussian-09revc/g09/l202.exe)
                          Input orientation:                          
 ---------------------------------------------------------------------
 Center     Atomic      Atomic             Coordinates (Angstroms)
 Number     Number       Type             X           Y           Z
 ---------------------------------------------------------------------
      1          6           0        3.231314   -0.592673   -0.838386
      2          1           0        3.239848    0.198241   -1.590830
      3          1           0        3.467951   -1.537006   -1.340449
      4          1           0        4.024076   -0.400575   -0.110483
      5          6           0        0.747654   -0.469177   -0.938849
      6          1           0        0.894726    0.053068   -1.881824
      7          6           0       -0.674120   -0.692682   -0.536936
      8          1           0       -0.733520   -1.333225    0.345197
      9          1           0       -1.183135   -1.228872   -1.348458
     10          6           0       -1.413342    0.643191   -0.274547
     11          1           0       -1.323461    1.270327   -1.169549
     12          1           0       -0.879713    1.171624    0.520525
     13          6           0       -2.907223    0.524925    0.096038
     14          1           0       -3.257139    1.556132    0.235911
     15          6           0       -3.753729   -0.090213   -1.027947
     16          1           0       -3.507318   -1.144085   -1.190910
     17          1           0       -4.819227   -0.040931   -0.784693
     18          1           0       -3.603728    0.438581   -1.974284
     19          6           0        1.838281   -1.557470    1.071701
     20          1           0        1.797552   -2.614603    0.787112
     21          1           0        2.730552   -1.401758    1.679599
     22          1           0        0.968369   -1.336570    1.690553
     23          6           0       -3.130853   -0.210244    1.425708
     24          1           0       -4.182341   -0.163910    1.724215
     25          1           0       -2.860658   -1.268362    1.353304
     26          1           0       -2.535511    0.233629    2.229082
     27          6           0        1.885502   -0.680310   -0.157884
     28          8           0        1.887424    0.963720    0.860285
     29          8           0        2.306346    2.070603    0.107876
     30          1           0        3.271596    2.021639    0.167306
 ---------------------------------------------------------------------
                    Distance matrix (angstroms):
                    1          2          3          4          5
     1  C    0.000000
     2  H    1.091691   0.000000
     3  H    1.095367   1.767994   0.000000
     4  H    1.093259   1.779051   1.764530   0.000000
     5  C    2.488757   2.661119   2.949840   3.380213   0.000000
     6  H    2.639202   2.367562   3.072932   3.624400   1.087921
     7  C    3.918327   4.150130   4.302937   4.726546   1.494299
     8  H    4.203474   4.677739   4.531588   4.869517   2.142249
     9  H    4.489129   4.653834   4.661289   5.416060   2.114914
    10  C    4.839226   4.856208   5.451278   5.539123   2.519636
    11  H    4.932181   4.706446   5.555894   5.701727   2.714519
    12  H    4.675460   4.730336   5.449962   5.188172   2.733189
    13  C    6.309026   6.382690   6.852583   6.995864   3.926494
    14  H    6.918923   6.884162   7.568306   7.547502   4.638998
    15  C    7.005657   7.022119   7.371806   7.837877   4.518186
    16  H    6.770339   6.891010   6.987927   7.644738   4.315533
    17  H    8.069604   8.102824   8.439456   8.876255   5.585456
    18  H    7.005109   6.858523   7.369758   7.896919   4.564063
    19  C    2.553391   3.483674   2.911136   2.741106   2.533014
    20  H    2.964139   3.955618   2.911694   3.265732   2.946876
    21  H    2.691771   3.676287   3.111710   2.424864   3.414361
    22  H    3.474167   4.275832   3.933835   3.668401   2.777560
    23  C    6.763841   7.060609   7.277097   7.320459   4.549834
    24  H    7.855765   8.136926   8.354910   8.412337   5.611591
    25  H    6.509392   6.930730   6.883296   7.091917   4.348859
    26  H    6.583951   6.924431   7.205432   6.993137   4.616156
    27  C    1.510620   2.158573   2.153261   2.157313   1.396131
    28  O    2.667186   2.902236   3.687130   2.714585   2.566934
    29  O    2.973889   2.694952   4.057316   3.017449   3.158423
    30  H    2.801369   2.533146   3.869862   2.551571   3.714569
                    6          7          8          9         10
     6  H    0.000000
     7  C    2.196849   0.000000
     8  H    3.087493   1.091779   0.000000
     9  H    2.499071   1.097800   1.755423   0.000000
    10  C    2.873806   1.549146   2.180014   2.170461   0.000000
    11  H    2.628575   2.162232   3.069360   2.509521   1.096543
    12  H    3.189213   2.153167   2.515230   3.057375   1.093682
    13  C    4.311543   2.621063   2.870503   2.852166   1.543697
    14  H    4.897141   3.510904   3.837835   3.816800   2.119815
    15  C    4.728400   3.176169   3.542918   2.829704   2.565717
    16  H    4.613949   2.942526   3.176374   2.331059   2.901519
    17  H    5.819089   4.203341   4.431668   3.866549   3.511171
    18  H    4.515889   3.453741   4.093578   3.005217   2.780065
    19  C    3.493915   3.106080   2.681838   3.885113   4.150704
    20  H    3.880049   3.399418   2.871157   3.919873   4.695762
    21  H    4.262688   4.124028   3.712832   4.951360   5.017206
    22  H    3.833849   2.841491   2.169429   3.725071   3.667918
    23  C    5.216741   3.181235   2.859335   3.539379   2.563018
    24  H    6.231148   4.207139   3.894015   4.423878   3.509105
    25  H    5.129828   2.947094   2.354825   3.180434   2.898044
    26  H    5.357115   3.460301   3.041583   4.094707   2.774016
    27  C    2.119304   2.587566   2.745663   3.336903   3.556352
    28  O    3.055143   3.355205   3.522871   4.371995   3.505088
    29  O    3.165758   4.115180   4.569809   5.018358   4.002478
    30  H    3.704553   4.840679   5.227591   5.719090   4.903468
                   11         12         13         14         15
    11  H    0.000000
    12  H    1.750144   0.000000
    13  C    2.160008   2.170070   0.000000
    14  H    2.407512   2.425079   1.097904   0.000000
    15  C    2.788785   3.499995   1.535679   2.134102   0.000000
    16  H    3.255622   3.898182   2.191334   3.064242   1.094496
    17  H    3.753384   4.323616   2.179826   2.456087   1.094023
    18  H    2.557150   3.765857   2.186048   2.500801   1.094384
    19  C    4.797525   3.890918   5.273338   6.029624   6.150767
    20  H    5.353683   4.644818   5.698169   6.576378   6.362681
    21  H    5.629627   4.582550   6.164761   6.832700   7.148206
    22  H    4.497619   3.327974   4.585614   5.323404   5.589442
    23  C    3.492007   2.792230   1.535743   2.133459   2.534325
    24  H    4.313247   3.760302   2.179766   2.455523   2.786312
    25  H    3.895215   3.251338   2.190608   3.063255   2.802850
    26  H    3.754264   2.557473   2.184697   2.498498   3.492444
    27  C    3.889202   3.396515   4.948462   5.621699   5.736388
    28  O    3.811039   2.795659   4.874962   5.216064   6.041424
    29  O    3.930363   3.336078   5.437882   5.588688   6.533279
    30  H    4.844192   4.252135   6.357911   6.545669   7.432613
                   16         17         18         19         20
    16  H    0.000000
    17  H    1.761552   0.000000
    18  H    1.768559   1.767059   0.000000
    19  C    5.819426   7.075910   6.548107   0.000000
    20  H    5.849499   7.271597   6.791249   1.095527   0.000000
    21  H    6.871480   8.057527   7.540611   1.090841   1.771444
    22  H    5.326505   6.426647   6.122603   1.090193   1.771191
    23  C    2.803654   2.786601   3.493498   5.160681   5.520681
    24  H    3.148707   2.591403   3.791660   6.214151   6.530174
    25  H    2.628048   3.148589   3.812958   4.716239   4.881788
    26  H    3.812984   3.791251   4.341817   4.865966   5.382113
    27  C    5.510421   6.764251   5.889217   1.511132   2.154586
    28  O    6.144386   6.978140   6.201879   2.530516   3.580199
    29  O    6.769029   7.485255   6.475173   3.782983   4.761448
    30  H    7.603962   8.403685   7.373097   3.960094   4.904254
                   21         22         23         24         25
    21  H    0.000000
    22  H    1.763422   0.000000
    23  C    5.986671   4.259387   0.000000
    24  H    7.022987   5.282620   1.094020   0.000000
    25  H    5.602311   3.844455   1.094469   1.761884   0.000000
    26  H    5.541466   3.877204   1.094013   1.767760   1.768809
    27  C    2.147310   2.165301   5.281339   6.373985   5.015529
    28  O    2.641520   2.612535   5.184689   6.233777   5.269681
    29  O    3.835043   3.987966   6.041695   7.050437   6.276759
    30  H    3.781456   4.347724   6.896103   7.922232   7.059408
                   26         27         28         29         30
    26  H    0.000000
    27  C    5.106687   0.000000
    28  O    4.687109   1.933780   0.000000
    29  O    5.596210   2.795579   1.402428   0.000000
    30  H    6.416416   3.054101   1.874925   0.968317   0.000000
 Stoichiometry    C9H19O2(2)
 Framework group  C1[X(C9H19O2)]
 Deg. of freedom    84
 Full point group                 C1      NOp   1
 Largest Abelian subgroup         C1      NOp   1
 Largest concise Abelian subgroup C1      NOp   1
                         Standard orientation:                         
 ---------------------------------------------------------------------
 Center     Atomic      Atomic             Coordinates (Angstroms)
 Number     Number       Type             X           Y           Z
 ---------------------------------------------------------------------
      1          6           0        3.231314   -0.592673   -0.838386
      2          1           0        3.239848    0.198241   -1.590830
      3          1           0        3.467951   -1.537006   -1.340449
      4          1           0        4.024076   -0.400575   -0.110483
      5          6           0        0.747654   -0.469177   -0.938849
      6          1           0        0.894726    0.053068   -1.881824
      7          6           0       -0.674120   -0.692682   -0.536936
      8          1           0       -0.733520   -1.333225    0.345197
      9          1           0       -1.183135   -1.228872   -1.348458
     10          6           0       -1.413342    0.643191   -0.274547
     11          1           0       -1.323461    1.270327   -1.169549
     12          1           0       -0.879713    1.171624    0.520525
     13          6           0       -2.907223    0.524925    0.096038
     14          1           0       -3.257139    1.556132    0.235911
     15          6           0       -3.753729   -0.090213   -1.027947
     16          1           0       -3.507318   -1.144085   -1.190910
     17          1           0       -4.819227   -0.040931   -0.784693
     18          1           0       -3.603728    0.438581   -1.974284
     19          6           0        1.838281   -1.557470    1.071701
     20          1           0        1.797552   -2.614603    0.787112
     21          1           0        2.730552   -1.401758    1.679599
     22          1           0        0.968369   -1.336570    1.690553
     23          6           0       -3.130853   -0.210244    1.425708
     24          1           0       -4.182341   -0.163910    1.724215
     25          1           0       -2.860658   -1.268362    1.353304
     26          1           0       -2.535511    0.233629    2.229082
     27          6           0        1.885502   -0.680310   -0.157884
     28          8           0        1.887424    0.963720    0.860285
     29          8           0        2.306346    2.070603    0.107876
     30          1           0        3.271596    2.021639    0.167306
 ---------------------------------------------------------------------
 Rotational constants (GHZ):      1.7478570      0.4798320      0.4584239
 Leave Link  202 at Thu Apr 17 16:45:54 2014, MaxMem= 4026531840 cpu:       0.1
 (Enter /usr/caen/gaussian-09revc/g09/l301.exe)
 Standard basis: 6-311G(2d,d,p) (5D, 7F)
 Ernie: Thresh=  0.10000D-02 Tol=  0.10000D-05 Strict=F.
 There are   312 symmetry adapted basis functions of A   symmetry.
 Integral buffers will be    131072 words long.
 Raffenetti 2 integral format.
 Two-electron integral symmetry is turned on.
   312 basis functions,   504 primitive gaussians,   323 cartesian basis functions
    45 alpha electrons       44 beta electrons
       nuclear repulsion energy       658.5123026291 Hartrees.
 IExCor=  402 DFT=T Ex+Corr=B3LYP ExCW=0 ScaHFX=  0.200000
 ScaDFX=  0.800000  0.720000  1.000000  0.810000 ScalE2=  1.000000  1.000000
 IRadAn=      0 IRanWt=     -1 IRanGd=            0 ICorTp=0
 NAtoms=   30 NActive=   30 NUniq=   30 SFac= 1.00D+00 NAtFMM=   60 NAOKFM=F Big=F
 Leave Link  301 at Thu Apr 17 16:45:54 2014, MaxMem= 4026531840 cpu:       0.4
 (Enter /usr/caen/gaussian-09revc/g09/l302.exe)
 NPDir=0 NMtPBC=     1 NCelOv=     1 NCel=       1 NClECP=     1 NCelD=      1
         NCelK=      1 NCelE2=     1 NClLst=     1 CellRange=     0.0.
 One-electron integrals computed using PRISM.
 NBasis=   312 RedAO= T  NBF=   312
 NBsUse=   312 1.00D-06 NBFU=   312
 Precomputing XC quadrature grid using
 IXCGrd= 2 IRadAn=           0 IRanWt=          -1 IRanGd=           0 AccXCQ= 0.00D+00.
 NRdTot=    1913 NPtTot=      243114 NUsed=      256908 NTot=      256940
 NSgBfM=   323   323   323   323   323 NAtAll=    30    30.
 Leave Link  302 at Thu Apr 17 16:45:54 2014, MaxMem= 4026531840 cpu:       4.1
 (Enter /usr/caen/gaussian-09revc/g09/l303.exe)
 DipDrv:  MaxL=1.
 Leave Link  303 at Thu Apr 17 16:45:55 2014, MaxMem= 4026531840 cpu:       0.4
 (Enter /usr/caen/gaussian-09revc/g09/l401.exe)
 Harris functional with IExCor=  402 diagonalized for initial guess.
 ExpMin= 1.03D-01 ExpMax= 8.59D+03 ExpMxC= 1.30D+03 IAcc=1 IRadAn=         1 AccDes= 0.00D+00
 HarFok:  IExCor=  402 AccDes= 0.00D+00 IRadAn=         1 IDoV= 1
 ScaDFX=  1.000000  1.000000  1.000000  1.000000
 FoFCou: FMM=F IPFlag=           0 FMFlag=      100000 FMFlg1=           0
         NFxFlg=           0 DoJE=T BraDBF=F KetDBF=T FulRan=T
         Omega=  0.000000  0.000000  1.000000  0.000000  0.000000 ICntrl=     500 IOpCl=  0
         NMat0=    1 NMatS0=    1 NMatT0=    0 NMatD0=    1 NMtDS0=    0 NMtDT0=    0
         I1Cent=           4 NGrid=           0.
 Petite list used in FoFCou.
 Harris En= -504.918665146521    
 Initial guess orbital symmetries:
 Alpha Orbitals:
       Occupied  (A) (A) (A) (A) (A) (A) (A) (A) (A) (A) (A) (A)
                 (A) (A) (A) (A) (A) (A) (A) (A) (A) (A) (A) (A)
                 (A) (A) (A) (A) (A) (A) (A) (A) (A) (A) (A) (A)
                 (A) (A) (A) (A) (A) (A) (A) (A) (A)
       Virtual   (A) (A) (A) (A) (A) (A) (A) (A) (A) (A) (A) (A)
                 (A) (A) (A) (A) (A) (A) (A) (A) (A) (A) (A) (A)
                 (A) (A) (A) (A) (A) (A) (A) (A) (A) (A) (A) (A)
                 (A) (A) (A) (A) (A) (A) (A) (A) (A) (A) (A) (A)
                 (A) (A) (A) (A) (A) (A) (A) (A) (A) (A) (A) (A)
                 (A) (A) (A) (A) (A) (A) (A) (A) (A) (A) (A) (A)
                 (A) (A) (A) (A) (A) (A) (A) (A) (A) (A) (A) (A)
                 (A) (A) (A) (A) (A) (A) (A) (A) (A) (A) (A) (A)
                 (A) (A) (A) (A) (A) (A) (A) (A) (A) (A) (A) (A)
                 (A) (A) (A) (A) (A) (A) (A) (A) (A) (A) (A) (A)
                 (A) (A) (A) (A) (A) (A) (A) (A) (A) (A) (A) (A)
                 (A) (A) (A) (A) (A) (A) (A) (A) (A) (A) (A) (A)
                 (A) (A) (A) (A) (A) (A) (A) (A) (A) (A) (A) (A)
                 (A) (A) (A) (A) (A) (A) (A) (A) (A) (A) (A) (A)
                 (A) (A) (A) (A) (A) (A) (A) (A) (A) (A) (A) (A)
                 (A) (A) (A) (A) (A) (A) (A) (A) (A) (A) (A) (A)
                 (A) (A) (A) (A) (A) (A) (A) (A) (A) (A) (A) (A)
                 (A) (A) (A) (A) (A) (A) (A) (A) (A) (A) (A) (A)
                 (A) (A) (A) (A) (A) (A) (A) (A) (A) (A) (A) (A)
                 (A) (A) (A) (A) (A) (A) (A) (A) (A) (A) (A) (A)
                 (A) (A) (A) (A) (A) (A) (A) (A) (A) (A) (A) (A)
                 (A) (A) (A) (A) (A) (A) (A) (A) (A) (A) (A) (A)
                 (A) (A) (A)
 Beta  Orbitals:
       Occupied  (A) (A) (A) (A) (A) (A) (A) (A) (A) (A) (A) (A)
                 (A) (A) (A) (A) (A) (A) (A) (A) (A) (A) (A) (A)
                 (A) (A) (A) (A) (A) (A) (A) (A) (A) (A) (A) (A)
                 (A) (A) (A) (A) (A) (A) (A) (A)
       Virtual   (A) (A) (A) (A) (A) (A) (A) (A) (A) (A) (A) (A)
                 (A) (A) (A) (A) (A) (A) (A) (A) (A) (A) (A) (A)
                 (A) (A) (A) (A) (A) (A) (A) (A) (A) (A) (A) (A)
                 (A) (A) (A) (A) (A) (A) (A) (A) (A) (A) (A) (A)
                 (A) (A) (A) (A) (A) (A) (A) (A) (A) (A) (A) (A)
                 (A) (A) (A) (A) (A) (A) (A) (A) (A) (A) (A) (A)
                 (A) (A) (A) (A) (A) (A) (A) (A) (A) (A) (A) (A)
                 (A) (A) (A) (A) (A) (A) (A) (A) (A) (A) (A) (A)
                 (A) (A) (A) (A) (A) (A) (A) (A) (A) (A) (A) (A)
                 (A) (A) (A) (A) (A) (A) (A) (A) (A) (A) (A) (A)
                 (A) (A) (A) (A) (A) (A) (A) (A) (A) (A) (A) (A)
                 (A) (A) (A) (A) (A) (A) (A) (A) (A) (A) (A) (A)
                 (A) (A) (A) (A) (A) (A) (A) (A) (A) (A) (A) (A)
                 (A) (A) (A) (A) (A) (A) (A) (A) (A) (A) (A) (A)
                 (A) (A) (A) (A) (A) (A) (A) (A) (A) (A) (A) (A)
                 (A) (A) (A) (A) (A) (A) (A) (A) (A) (A) (A) (A)
                 (A) (A) (A) (A) (A) (A) (A) (A) (A) (A) (A) (A)
                 (A) (A) (A) (A) (A) (A) (A) (A) (A) (A) (A) (A)
                 (A) (A) (A) (A) (A) (A) (A) (A) (A) (A) (A) (A)
                 (A) (A) (A) (A) (A) (A) (A) (A) (A) (A) (A) (A)
                 (A) (A) (A) (A) (A) (A) (A) (A) (A) (A) (A) (A)
                 (A) (A) (A) (A) (A) (A) (A) (A) (A) (A) (A) (A)
                 (A) (A) (A) (A)
 The electronic state of the initial guess is 2-A.
 Initial guess <Sx>= 0.0000 <Sy>= 0.0000 <Sz>= 0.5000 <S**2>= 0.7500 S= 0.5000
 Leave Link  401 at Thu Apr 17 16:45:56 2014, MaxMem= 4026531840 cpu:      10.9
 (Enter /usr/caen/gaussian-09revc/g09/l502.exe)
 UHF open shell SCF:
 Requested convergence on RMS density matrix=1.00D-08 within 128 cycles.
 Requested convergence on MAX density matrix=1.00D-06.
 Requested convergence on             energy=1.00D-06.
 No special actions if energy rises.
 Using DIIS extrapolation, IDIIS=  1040.
 Integral symmetry usage will be decided dynamically.
       256625 words used for storage of precomputed grid.
 Keep R1 and R2 ints in memory in canonical form, NReq=2755661356.
 IEnd=      592783 IEndB=      592783 NGot=  4026531840 MDV=  1287997720
 LenX=  1287997720 LenY=  1287892950
 Symmetry not used in FoFDir.
 MinBra= 0 MaxBra= 2 Meth= 1.
 IRaf=       0 NMat=   1 IRICut=       1 DoRegI=T DoRafI=F ISym2E= 0 JSym2E=0.
 Integral accuracy reduced to 1.0D-05 until final iterations.

 Cycle   1  Pass 0  IDiag  1:
 E= -504.435447073482    
 DIIS: error= 3.01D-02 at cycle   1 NSaved=   1.
 NSaved= 1 IEnMin= 1 EnMin= -504.435447073482     IErMin= 1 ErrMin= 3.01D-02
 ErrMax= 3.01D-02 EMaxC= 1.00D-01 BMatC= 1.59D+00 BMatP= 1.59D+00
 IDIUse=3 WtCom= 6.99D-01 WtEn= 3.01D-01
 Coeff-Com:  0.100D+01
 Coeff-En:   0.100D+01
 Coeff:      0.100D+01
 Gap=     0.230 Goal=   None    Shift=    0.000
 Gap=     0.212 Goal=   None    Shift=    0.000
 GapD=    0.212 DampG=1.000 DampE=0.500 DampFc=0.5000 IDamp=-1.
 Damping current iteration by 5.00D-01
 RMSDP=3.45D-03 MaxDP=1.20D-01              OVMax= 2.46D-01

 Cycle   2  Pass 0  IDiag  1:
 E= -504.599075052900     Delta-E=       -0.163627979418 Rises=F Damp=T
 DIIS: error= 7.59D-03 at cycle   2 NSaved=   2.
 NSaved= 2 IEnMin= 2 EnMin= -504.599075052900     IErMin= 2 ErrMin= 7.59D-03
 ErrMax= 7.59D-03 EMaxC= 1.00D-01 BMatC= 9.69D-02 BMatP= 1.59D+00
 IDIUse=3 WtCom= 9.24D-01 WtEn= 7.59D-02
 Coeff-Com:  0.730D-01 0.927D+00
 Coeff-En:   0.172D+00 0.828D+00
 Coeff:      0.806D-01 0.919D+00
 Gap=     0.256 Goal=   None    Shift=    0.000
 Gap=     0.211 Goal=   None    Shift=    0.000
 RMSDP=9.91D-04 MaxDP=2.95D-02 DE=-1.64D-01 OVMax= 3.07D-01

 Cycle   3  Pass 0  IDiag  1:
 E= -504.803640837021     Delta-E=       -0.204565784121 Rises=F Damp=F
 DIIS: error= 1.17D-02 at cycle   3 NSaved=   3.
 NSaved= 3 IEnMin= 3 EnMin= -504.803640837021     IErMin= 2 ErrMin= 7.59D-03
 ErrMax= 1.17D-02 EMaxC= 1.00D-01 BMatC= 1.17D-01 BMatP= 9.69D-02
 IDIUse=2 WtCom= 0.00D+00 WtEn= 1.00D+00
 Coeff-En:   0.000D+00 0.000D+00 0.100D+01
 Coeff:      0.000D+00 0.000D+00 0.100D+01
 Gap=     0.257 Goal=   None    Shift=    0.000
 Gap=     0.227 Goal=   None    Shift=    0.000
 RMSDP=1.38D-03 MaxDP=6.51D-02 DE=-2.05D-01 OVMax= 3.46D-01

 Cycle   4  Pass 0  IDiag  1:
 E= -504.692848336583     Delta-E=        0.110792500438 Rises=F Damp=F
 DIIS: error= 3.03D-02 at cycle   4 NSaved=   4.
 NSaved= 4 IEnMin= 3 EnMin= -504.803640837021     IErMin= 2 ErrMin= 7.59D-03
 ErrMax= 3.03D-02 EMaxC= 1.00D-01 BMatC= 6.45D-01 BMatP= 9.69D-02
 IDIUse=2 WtCom= 0.00D+00 WtEn= 1.00D+00
 Coeff-En:   0.000D+00 0.000D+00 0.778D+00 0.222D+00
 Coeff:      0.000D+00 0.000D+00 0.778D+00 0.222D+00
 Gap=     0.233 Goal=   None    Shift=    0.000
 Gap=     0.144 Goal=   None    Shift=    0.000
 RMSDP=6.84D-04 MaxDP=3.68D-02 DE= 1.11D-01 OVMax= 1.89D-01

 Cycle   5  Pass 0  IDiag  1:
 E= -504.820432581142     Delta-E=       -0.127584244559 Rises=F Damp=F
 DIIS: error= 8.40D-03 at cycle   5 NSaved=   5.
 NSaved= 5 IEnMin= 5 EnMin= -504.820432581142     IErMin= 2 ErrMin= 7.59D-03
 ErrMax= 8.40D-03 EMaxC= 1.00D-01 BMatC= 4.40D-02 BMatP= 9.69D-02
 IDIUse=3 WtCom= 9.16D-01 WtEn= 8.40D-02
 Coeff-Com:  0.438D-02 0.104D-02 0.349D+00-0.255D-01 0.671D+00
 Coeff-En:   0.000D+00 0.000D+00 0.326D+00 0.000D+00 0.674D+00
 Coeff:      0.401D-02 0.953D-03 0.347D+00-0.233D-01 0.671D+00
 Gap=     0.218 Goal=   None    Shift=    0.000
 Gap=     0.147 Goal=   None    Shift=    0.000
 RMSDP=3.10D-04 MaxDP=1.20D-02 DE=-1.28D-01 OVMax= 8.24D-02

 Cycle   6  Pass 0  IDiag  1:
 E= -504.830705758897     Delta-E=       -0.010273177755 Rises=F Damp=F
 DIIS: error= 1.13D-03 at cycle   6 NSaved=   6.
 NSaved= 6 IEnMin= 6 EnMin= -504.830705758897     IErMin= 6 ErrMin= 1.13D-03
 ErrMax= 1.13D-03 EMaxC= 1.00D-01 BMatC= 1.02D-03 BMatP= 4.40D-02
 IDIUse=3 WtCom= 9.89D-01 WtEn= 1.13D-02
 Coeff-Com:  0.322D-02-0.156D-01 0.112D+00-0.571D-01 0.432D+00 0.525D+00
 Coeff-En:   0.000D+00 0.000D+00 0.000D+00 0.000D+00 0.000D+00 0.100D+01
 Coeff:      0.318D-02-0.154D-01 0.111D+00-0.565D-01 0.427D+00 0.531D+00
 Gap=     0.215 Goal=   None    Shift=    0.000
 Gap=     0.152 Goal=   None    Shift=    0.000
 RMSDP=4.58D-05 MaxDP=2.22D-03 DE=-1.03D-02 OVMax= 9.21D-03

 Cycle   7  Pass 0  IDiag  1:
 E= -504.830933057762     Delta-E=       -0.000227298864 Rises=F Damp=F
 DIIS: error= 3.33D-04 at cycle   7 NSaved=   7.
 NSaved= 7 IEnMin= 7 EnMin= -504.830933057762     IErMin= 7 ErrMin= 3.33D-04
 ErrMax= 3.33D-04 EMaxC= 1.00D-01 BMatC= 1.00D-04 BMatP= 1.02D-03
 IDIUse=3 WtCom= 9.97D-01 WtEn= 3.33D-03
 Coeff-Com:  0.663D-03-0.695D-02-0.170D-01-0.170D-01 0.555D-01 0.238D+00
 Coeff-Com:  0.747D+00
 Coeff-En:   0.000D+00 0.000D+00 0.000D+00 0.000D+00 0.000D+00 0.000D+00
 Coeff-En:   0.100D+01
 Coeff:      0.660D-03-0.693D-02-0.169D-01-0.170D-01 0.553D-01 0.237D+00
 Coeff:      0.748D+00
 Gap=     0.216 Goal=   None    Shift=    0.000
 Gap=     0.152 Goal=   None    Shift=    0.000
 RMSDP=2.57D-05 MaxDP=1.33D-03 DE=-2.27D-04 OVMax= 5.52D-03

 Cycle   8  Pass 0  IDiag  1:
 E= -504.830973466588     Delta-E=       -0.000040408827 Rises=F Damp=F
 DIIS: error= 1.43D-04 at cycle   8 NSaved=   8.
 NSaved= 8 IEnMin= 8 EnMin= -504.830973466588     IErMin= 8 ErrMin= 1.43D-04
 ErrMax= 1.43D-04 EMaxC= 1.00D-01 BMatC= 3.80D-05 BMatP= 1.00D-04
 IDIUse=3 WtCom= 9.99D-01 WtEn= 1.43D-03
 Coeff-Com: -0.763D-03 0.102D-02-0.519D-01 0.153D-01-0.135D+00-0.589D-01
 Coeff-Com:  0.440D+00 0.790D+00
 Coeff-En:   0.000D+00 0.000D+00 0.000D+00 0.000D+00 0.000D+00 0.000D+00
 Coeff-En:   0.000D+00 0.100D+01
 Coeff:     -0.762D-03 0.102D-02-0.518D-01 0.153D-01-0.135D+00-0.588D-01
 Coeff:      0.439D+00 0.790D+00
 Gap=     0.217 Goal=   None    Shift=    0.000
 Gap=     0.153 Goal=   None    Shift=    0.000
 RMSDP=1.75D-05 MaxDP=7.57D-04 DE=-4.04D-05 OVMax= 2.88D-03

 Cycle   9  Pass 0  IDiag  1:
 E= -504.830992812159     Delta-E=       -0.000019345571 Rises=F Damp=F
 DIIS: error= 4.30D-05 at cycle   9 NSaved=   9.
 NSaved= 9 IEnMin= 9 EnMin= -504.830992812159     IErMin= 9 ErrMin= 4.30D-05
 ErrMax= 4.30D-05 EMaxC= 1.00D-01 BMatC= 2.78D-06 BMatP= 3.80D-05
 IDIUse=1 WtCom= 1.00D+00 WtEn= 0.00D+00
 Coeff-Com: -0.460D-03 0.131D-02-0.154D-01 0.696D-02-0.497D-01-0.541D-01
 Coeff-Com:  0.458D-01 0.227D+00 0.838D+00
 Coeff:     -0.460D-03 0.131D-02-0.154D-01 0.696D-02-0.497D-01-0.541D-01
 Coeff:      0.458D-01 0.227D+00 0.838D+00
 Gap=     0.217 Goal=   None    Shift=    0.000
 Gap=     0.153 Goal=   None    Shift=    0.000
 RMSDP=6.47D-06 MaxDP=3.49D-04 DE=-1.93D-05 OVMax= 1.50D-03

 Initial convergence to 1.0D-05 achieved.  Increase integral accuracy.
 Cycle  10  Pass 1  IDiag  1:
 E= -504.831067067431     Delta-E=       -0.000074255271 Rises=F Damp=F
 DIIS: error= 2.57D-05 at cycle   1 NSaved=   1.
 NSaved= 1 IEnMin= 1 EnMin= -504.831067067431     IErMin= 1 ErrMin= 2.57D-05
 ErrMax= 2.57D-05 EMaxC= 1.00D-01 BMatC= 1.83D-06 BMatP= 1.83D-06
 IDIUse=1 WtCom= 1.00D+00 WtEn= 0.00D+00
 Coeff-Com:  0.100D+01
 Coeff:      0.100D+01
 Gap=     0.217 Goal=   None    Shift=    0.000
 Gap=     0.153 Goal=   None    Shift=    0.000
 RMSDP=6.47D-06 MaxDP=3.49D-04 DE=-7.43D-05 OVMax= 7.16D-04

 Cycle  11  Pass 1  IDiag  1:
 E= -504.831067063949     Delta-E=        0.000000003482 Rises=F Damp=F
 DIIS: error= 3.66D-05 at cycle   2 NSaved=   2.
 NSaved= 2 IEnMin= 1 EnMin= -504.831067067431     IErMin= 1 ErrMin= 2.57D-05
 ErrMax= 3.66D-05 EMaxC= 1.00D-01 BMatC= 3.10D-06 BMatP= 1.83D-06
 IDIUse=1 WtCom= 1.00D+00 WtEn= 0.00D+00
 Coeff-Com:  0.576D+00 0.424D+00
 Coeff:      0.576D+00 0.424D+00
 Gap=     0.217 Goal=   None    Shift=    0.000
 Gap=     0.153 Goal=   None    Shift=    0.000
 RMSDP=2.73D-06 MaxDP=1.72D-04 DE= 3.48D-09 OVMax= 4.29D-04

 Cycle  12  Pass 1  IDiag  1:
 E= -504.831067810327     Delta-E=       -0.000000746379 Rises=F Damp=F
 DIIS: error= 1.23D-05 at cycle   3 NSaved=   3.
 NSaved= 3 IEnMin= 3 EnMin= -504.831067810327     IErMin= 3 ErrMin= 1.23D-05
 ErrMax= 1.23D-05 EMaxC= 1.00D-01 BMatC= 1.55D-07 BMatP= 1.83D-06
 IDIUse=1 WtCom= 1.00D+00 WtEn= 0.00D+00
 Coeff-Com:  0.122D-01 0.151D+00 0.837D+00
 Coeff:      0.122D-01 0.151D+00 0.837D+00
 Gap=     0.217 Goal=   None    Shift=    0.000
 Gap=     0.153 Goal=   None    Shift=    0.000
 RMSDP=1.11D-06 MaxDP=4.96D-05 DE=-7.46D-07 OVMax= 3.41D-04

 Cycle  13  Pass 1  IDiag  1:
 E= -504.831067880882     Delta-E=       -0.000000070555 Rises=F Damp=F
 DIIS: error= 1.15D-05 at cycle   4 NSaved=   4.
 NSaved= 4 IEnMin= 4 EnMin= -504.831067880882     IErMin= 4 ErrMin= 1.15D-05
 ErrMax= 1.15D-05 EMaxC= 1.00D-01 BMatC= 8.83D-08 BMatP= 1.55D-07
 IDIUse=1 WtCom= 1.00D+00 WtEn= 0.00D+00
 Coeff-Com: -0.835D-01 0.349D-01 0.543D+00 0.506D+00
 Coeff:     -0.835D-01 0.349D-01 0.543D+00 0.506D+00
 Gap=     0.217 Goal=   None    Shift=    0.000
 Gap=     0.153 Goal=   None    Shift=    0.000
 RMSDP=5.69D-07 MaxDP=2.28D-05 DE=-7.06D-08 OVMax= 1.88D-04

 Cycle  14  Pass 1  IDiag  1:
 E= -504.831067911932     Delta-E=       -0.000000031050 Rises=F Damp=F
 DIIS: error= 3.69D-06 at cycle   5 NSaved=   5.
 NSaved= 5 IEnMin= 5 EnMin= -504.831067911932     IErMin= 5 ErrMin= 3.69D-06
 ErrMax= 3.69D-06 EMaxC= 1.00D-01 BMatC= 1.47D-08 BMatP= 8.83D-08
 IDIUse=1 WtCom= 1.00D+00 WtEn= 0.00D+00
 Coeff-Com: -0.395D-01-0.361D-01-0.678D-01 0.221D+00 0.922D+00
 Coeff:     -0.395D-01-0.361D-01-0.678D-01 0.221D+00 0.922D+00
 Gap=     0.217 Goal=   None    Shift=    0.000
 Gap=     0.153 Goal=   None    Shift=    0.000
 RMSDP=5.63D-07 MaxDP=2.84D-05 DE=-3.11D-08 OVMax= 2.12D-04

 Cycle  15  Pass 1  IDiag  1:
 E= -504.831067924863     Delta-E=       -0.000000012931 Rises=F Damp=F
 DIIS: error= 2.73D-06 at cycle   6 NSaved=   6.
 NSaved= 6 IEnMin= 6 EnMin= -504.831067924863     IErMin= 6 ErrMin= 2.73D-06
 ErrMax= 2.73D-06 EMaxC= 1.00D-01 BMatC= 1.14D-08 BMatP= 1.47D-08
 IDIUse=1 WtCom= 1.00D+00 WtEn= 0.00D+00
 Coeff-Com:  0.875D-02-0.463D-01-0.323D+00-0.602D-01 0.784D+00 0.637D+00
 Coeff:      0.875D-02-0.463D-01-0.323D+00-0.602D-01 0.784D+00 0.637D+00
 Gap=     0.217 Goal=   None    Shift=    0.000
 Gap=     0.153 Goal=   None    Shift=    0.000
 RMSDP=4.22D-07 MaxDP=2.11D-05 DE=-1.29D-08 OVMax= 1.54D-04

 Cycle  16  Pass 1  IDiag  1:
 E= -504.831067930201     Delta-E=       -0.000000005338 Rises=F Damp=F
 DIIS: error= 1.58D-06 at cycle   7 NSaved=   7.
 NSaved= 7 IEnMin= 7 EnMin= -504.831067930201     IErMin= 7 ErrMin= 1.58D-06
 ErrMax= 1.58D-06 EMaxC= 1.00D-01 BMatC= 1.79D-09 BMatP= 1.14D-08
 IDIUse=1 WtCom= 1.00D+00 WtEn= 0.00D+00
 Coeff-Com:  0.103D-01-0.261D-01-0.203D+00-0.655D-01 0.400D+00 0.423D+00
 Coeff-Com:  0.462D+00
 Coeff:      0.103D-01-0.261D-01-0.203D+00-0.655D-01 0.400D+00 0.423D+00
 Coeff:      0.462D+00
 Gap=     0.217 Goal=   None    Shift=    0.000
 Gap=     0.153 Goal=   None    Shift=    0.000
 RMSDP=9.68D-08 MaxDP=3.29D-06 DE=-5.34D-09 OVMax= 2.65D-05

 Cycle  17  Pass 1  IDiag  1:
 E= -504.831067930748     Delta-E=       -0.000000000547 Rises=F Damp=F
 DIIS: error= 3.18D-07 at cycle   8 NSaved=   8.
 NSaved= 8 IEnMin= 8 EnMin= -504.831067930748     IErMin= 8 ErrMin= 3.18D-07
 ErrMax= 3.18D-07 EMaxC= 1.00D-01 BMatC= 1.06D-10 BMatP= 1.79D-09
 IDIUse=1 WtCom= 1.00D+00 WtEn= 0.00D+00
 Coeff-Com:  0.331D-02-0.533D-02-0.457D-01-0.218D-01 0.692D-01 0.964D-01
 Coeff-Com:  0.222D+00 0.682D+00
 Coeff:      0.331D-02-0.533D-02-0.457D-01-0.218D-01 0.692D-01 0.964D-01
 Coeff:      0.222D+00 0.682D+00
 Gap=     0.217 Goal=   None    Shift=    0.000
 Gap=     0.153 Goal=   None    Shift=    0.000
 RMSDP=2.72D-08 MaxDP=1.12D-06 DE=-5.47D-10 OVMax= 7.94D-06

 Cycle  18  Pass 1  IDiag  1:
 E= -504.831067930787     Delta-E=       -0.000000000039 Rises=F Damp=F
 DIIS: error= 7.81D-08 at cycle   9 NSaved=   9.
 NSaved= 9 IEnMin= 9 EnMin= -504.831067930787     IErMin= 9 ErrMin= 7.81D-08
 ErrMax= 7.81D-08 EMaxC= 1.00D-01 BMatC= 1.23D-11 BMatP= 1.06D-10
 IDIUse=1 WtCom= 1.00D+00 WtEn= 0.00D+00
 Coeff-Com: -0.106D-02 0.342D-02 0.263D-01 0.572D-02-0.580D-01-0.532D-01
 Coeff-Com: -0.259D-01 0.221D+00 0.882D+00
 Coeff:     -0.106D-02 0.342D-02 0.263D-01 0.572D-02-0.580D-01-0.532D-01
 Coeff:     -0.259D-01 0.221D+00 0.882D+00
 Gap=     0.217 Goal=   None    Shift=    0.000
 Gap=     0.153 Goal=   None    Shift=    0.000
 RMSDP=1.29D-08 MaxDP=4.68D-07 DE=-3.87D-11 OVMax= 3.62D-06

 Cycle  19  Pass 1  IDiag  1:
 E= -504.831067930797     Delta-E=       -0.000000000010 Rises=F Damp=F
 DIIS: error= 3.83D-08 at cycle  10 NSaved=  10.
 NSaved=10 IEnMin=10 EnMin= -504.831067930797     IErMin=10 ErrMin= 3.83D-08
 ErrMax= 3.83D-08 EMaxC= 1.00D-01 BMatC= 1.90D-12 BMatP= 1.23D-11
 IDIUse=1 WtCom= 1.00D+00 WtEn= 0.00D+00
 Coeff-Com: -0.721D-03 0.168D-02 0.139D-01 0.452D-02-0.265D-01-0.266D-01
 Coeff-Com: -0.469D-01-0.328D-01 0.223D+00 0.891D+00
 Coeff:     -0.721D-03 0.168D-02 0.139D-01 0.452D-02-0.265D-01-0.266D-01
 Coeff:     -0.469D-01-0.328D-01 0.223D+00 0.891D+00
 Gap=     0.217 Goal=   None    Shift=    0.000
 Gap=     0.153 Goal=   None    Shift=    0.000
 RMSDP=4.86D-09 MaxDP=1.53D-07 DE=-1.02D-11 OVMax= 1.21D-06

 SCF Done:  E(UB3LYP) =  -504.831067931     A.U. after   19 cycles
             Convg  =    0.4858D-08             -V/T =  2.0042
 <Sx>= 0.0000 <Sy>= 0.0000 <Sz>= 0.5000 <S**2>= 0.7785 S= 0.5141
 <L.S>= 0.000000000000E+00
 KE= 5.027089353996D+02 PE=-2.493894842356D+03 EE= 8.278425363963D+02
 Annihilation of the first spin contaminant:
 S**2 before annihilation     0.7785,   after     0.7501
 Leave Link  502 at Thu Apr 17 16:49:05 2014, MaxMem= 4026531840 cpu:    1500.5
 (Enter /usr/caen/gaussian-09revc/g09/l801.exe)
 Range of M.O.s used for correlation:     1   312
 NBasis=   312 NAE=    45 NBE=    44 NFC=     0 NFV=     0
 NROrb=    312 NOA=    45 NOB=    44 NVA=   267 NVB=   268
 Leave Link  801 at Thu Apr 17 16:49:07 2014, MaxMem= 4026531840 cpu:       3.4
 (Enter /usr/caen/gaussian-09revc/g09/l1101.exe)
 Using compressed storage, NAtomX=    30.
 Will process  31 centers per pass.
 Leave Link 1101 at Thu Apr 17 16:49:11 2014, MaxMem= 4026531840 cpu:      26.1
 (Enter /usr/caen/gaussian-09revc/g09/l1102.exe)
 Symmetrizing basis deriv contribution to polar:
 IMax=3 JMax=2 DiffMx= 0.00D+00
 Leave Link 1102 at Thu Apr 17 16:49:11 2014, MaxMem= 4026531840 cpu:       0.4
 (Enter /usr/caen/gaussian-09revc/g09/l1110.exe)
 Forming Gx(P) for the SCF density, NAtomX=    30.
 Integral derivatives from FoFDir/FoFCou, PRISM(SPDF).
 Do as many integral derivatives as possible in FoFDir.
 G2DrvN: MDV=    4026531496.
 G2DrvN: will do    31 centers at a time, making    1 passes doing MaxLOS=2.
 Calling FoFCou, ICntrl=  3107 FMM=F I1Cent=   0 AccDes= 0.00D+00.
 FoFCou: FMM=F IPFlag=           0 FMFlag=      100000 FMFlg1=           0
         NFxFlg=           0 DoJE=F BraDBF=F KetDBF=F FulRan=T
         Omega=  0.000000  0.000000  1.000000  0.000000  0.000000 ICntrl=    3107 IOpCl=  1
         NMat0=    1 NMatS0=    1 NMatT0=    0 NMatD0=    1 NMtDS0=    0 NMtDT0=    0
         I1Cent=           0 NGrid=           0.
 Symmetry not used in FoFCou.
 FoFDir/FoFCou used for L=0 through L=2.
 End of G2Drv Frequency-dependent properties file   721 does not exist.
 End of G2Drv Frequency-dependent properties file   722 does not exist.
 Leave Link 1110 at Thu Apr 17 16:52:37 2014, MaxMem= 4026531840 cpu:    1648.7
 (Enter /usr/caen/gaussian-09revc/g09/l1002.exe)
 Minotr:  UHF open shell wavefunction.
          IDoAtm=111111111111111111111111111111
          Direct CPHF calculation.
          Differentiating once with respect to nuclear coordinates.
          Requested convergence is 1.0D-06 RMS, and 1.0D-05 maximum.
          Secondary convergence is 1.0D-12 RMS, and 1.0D-12 maximum.
          NewPWx=T KeepS1=F KeepF1=F KeepIn=T MapXYZ=F SortEE=F KeepMc=T.
          MDV=    4026531536 using IRadAn=       2.
 Generate precomputed XC quadrature information.
          Keep R1 and R2 ints in memory in canonical form, NReq=2738891871.
 Symmetry not used in FoFDir.
 MinBra= 0 MaxBra= 2 Meth= 1.
 IRaf=       0 NMat=   1 IRICut=       1 DoRegI=T DoRafI=F ISym2E= 0 JSym2E=0.
          Solving linear equations simultaneously, MaxMat=       0.
          There are    93 degrees of freedom in the 1st order CPHF.  IDoFFX=5.
     87 vectors produced by pass  0 Test12= 2.56D-10 1.08D-07 XBig12= 2.49D-01 2.41D-01.
 AX will form    87 AO Fock derivatives at one time.
     87 vectors produced by pass  1 Test12= 2.56D-10 1.08D-07 XBig12= 6.13D-02 6.02D-02.
     87 vectors produced by pass  2 Test12= 2.56D-10 1.08D-07 XBig12= 2.81D-04 4.15D-03.
     87 vectors produced by pass  3 Test12= 2.56D-10 1.08D-07 XBig12= 1.70D-06 1.72D-04.
     73 vectors produced by pass  4 Test12= 2.56D-10 1.08D-07 XBig12= 1.20D-08 1.26D-05.
     15 vectors produced by pass  5 Test12= 2.56D-10 1.08D-07 XBig12= 4.87D-11 7.13D-07.
 Inverted reduced A of dimension   436 with in-core refinement.
 End of Minotr Frequency-dependent properties file   721 does not exist.
 End of Minotr Frequency-dependent properties file   722 does not exist.
 Leave Link 1002 at Thu Apr 17 16:57:34 2014, MaxMem= 4026531840 cpu:    2371.7
 (Enter /usr/caen/gaussian-09revc/g09/l601.exe)
 Copying SCF densities to generalized density rwf, IOpCl= 1 IROHF=0.

 **********************************************************************

            Population analysis using the SCF density.

 **********************************************************************

 Orbital symmetries:
 Alpha Orbitals:
       Occupied  (A) (A) (A) (A) (A) (A) (A) (A) (A) (A) (A) (A)
                 (A) (A) (A) (A) (A) (A) (A) (A) (A) (A) (A) (A)
                 (A) (A) (A) (A) (A) (A) (A) (A) (A) (A) (A) (A)
                 (A) (A) (A) (A) (A) (A) (A) (A) (A)
       Virtual   (A) (A) (A) (A) (A) (A) (A) (A) (A) (A) (A) (A)
                 (A) (A) (A) (A) (A) (A) (A) (A) (A) (A) (A) (A)
                 (A) (A) (A) (A) (A) (A) (A) (A) (A) (A) (A) (A)
                 (A) (A) (A) (A) (A) (A) (A) (A) (A) (A) (A) (A)
                 (A) (A) (A) (A) (A) (A) (A) (A) (A) (A) (A) (A)
                 (A) (A) (A) (A) (A) (A) (A) (A) (A) (A) (A) (A)
                 (A) (A) (A) (A) (A) (A) (A) (A) (A) (A) (A) (A)
                 (A) (A) (A) (A) (A) (A) (A) (A) (A) (A) (A) (A)
                 (A) (A) (A) (A) (A) (A) (A) (A) (A) (A) (A) (A)
                 (A) (A) (A) (A) (A) (A) (A) (A) (A) (A) (A) (A)
                 (A) (A) (A) (A) (A) (A) (A) (A) (A) (A) (A) (A)
                 (A) (A) (A) (A) (A) (A) (A) (A) (A) (A) (A) (A)
                 (A) (A) (A) (A) (A) (A) (A) (A) (A) (A) (A) (A)
                 (A) (A) (A) (A) (A) (A) (A) (A) (A) (A) (A) (A)
                 (A) (A) (A) (A) (A) (A) (A) (A) (A) (A) (A) (A)
                 (A) (A) (A) (A) (A) (A) (A) (A) (A) (A) (A) (A)
                 (A) (A) (A) (A) (A) (A) (A) (A) (A) (A) (A) (A)
                 (A) (A) (A) (A) (A) (A) (A) (A) (A) (A) (A) (A)
                 (A) (A) (A) (A) (A) (A) (A) (A) (A) (A) (A) (A)
                 (A) (A) (A) (A) (A) (A) (A) (A) (A) (A) (A) (A)
                 (A) (A) (A) (A) (A) (A) (A) (A) (A) (A) (A) (A)
                 (A) (A) (A) (A) (A) (A) (A) (A) (A) (A) (A) (A)
                 (A) (A) (A)
 Beta  Orbitals:
       Occupied  (A) (A) (A) (A) (A) (A) (A) (A) (A) (A) (A) (A)
                 (A) (A) (A) (A) (A) (A) (A) (A) (A) (A) (A) (A)
                 (A) (A) (A) (A) (A) (A) (A) (A) (A) (A) (A) (A)
                 (A) (A) (A) (A) (A) (A) (A) (A)
       Virtual   (A) (A) (A) (A) (A) (A) (A) (A) (A) (A) (A) (A)
                 (A) (A) (A) (A) (A) (A) (A) (A) (A) (A) (A) (A)
                 (A) (A) (A) (A) (A) (A) (A) (A) (A) (A) (A) (A)
                 (A) (A) (A) (A) (A) (A) (A) (A) (A) (A) (A) (A)
                 (A) (A) (A) (A) (A) (A) (A) (A) (A) (A) (A) (A)
                 (A) (A) (A) (A) (A) (A) (A) (A) (A) (A) (A) (A)
                 (A) (A) (A) (A) (A) (A) (A) (A) (A) (A) (A) (A)
                 (A) (A) (A) (A) (A) (A) (A) (A) (A) (A) (A) (A)
                 (A) (A) (A) (A) (A) (A) (A) (A) (A) (A) (A) (A)
                 (A) (A) (A) (A) (A) (A) (A) (A) (A) (A) (A) (A)
                 (A) (A) (A) (A) (A) (A) (A) (A) (A) (A) (A) (A)
                 (A) (A) (A) (A) (A) (A) (A) (A) (A) (A) (A) (A)
                 (A) (A) (A) (A) (A) (A) (A) (A) (A) (A) (A) (A)
                 (A) (A) (A) (A) (A) (A) (A) (A) (A) (A) (A) (A)
                 (A) (A) (A) (A) (A) (A) (A) (A) (A) (A) (A) (A)
                 (A) (A) (A) (A) (A) (A) (A) (A) (A) (A) (A) (A)
                 (A) (A) (A) (A) (A) (A) (A) (A) (A) (A) (A) (A)
                 (A) (A) (A) (A) (A) (A) (A) (A) (A) (A) (A) (A)
                 (A) (A) (A) (A) (A) (A) (A) (A) (A) (A) (A) (A)
                 (A) (A) (A) (A) (A) (A) (A) (A) (A) (A) (A) (A)
                 (A) (A) (A) (A) (A) (A) (A) (A) (A) (A) (A) (A)
                 (A) (A) (A) (A) (A) (A) (A) (A) (A) (A) (A) (A)
                 (A) (A) (A) (A)
 The electronic state is 2-A.
 Alpha  occ. eigenvalues --  -19.16562 -19.15301 -10.21386 -10.17953 -10.17132
 Alpha  occ. eigenvalues --  -10.17026 -10.16870 -10.16596 -10.15885 -10.15416
 Alpha  occ. eigenvalues --  -10.15308  -1.10676  -0.85540  -0.81761  -0.80048
 Alpha  occ. eigenvalues --   -0.75264  -0.70241  -0.68177  -0.67930  -0.62380
 Alpha  occ. eigenvalues --   -0.54695  -0.53479  -0.50936  -0.47834  -0.46739
 Alpha  occ. eigenvalues --   -0.45572  -0.43999  -0.43541  -0.42844  -0.42087
 Alpha  occ. eigenvalues --   -0.40076  -0.39608  -0.38900  -0.38087  -0.37855
 Alpha  occ. eigenvalues --   -0.37728  -0.36730  -0.35222  -0.34209  -0.32241
 Alpha  occ. eigenvalues --   -0.32006  -0.31775  -0.27603  -0.26289  -0.20512
 Alpha virt. eigenvalues --    0.01182   0.03436   0.03917   0.05575   0.06512
 Alpha virt. eigenvalues --    0.07206   0.08591   0.09339   0.10186   0.10253
 Alpha virt. eigenvalues --    0.11103   0.11636   0.11987   0.12218   0.12902
 Alpha virt. eigenvalues --    0.13701   0.14323   0.15112   0.16980   0.17609
 Alpha virt. eigenvalues --    0.18074   0.19103   0.19544   0.22289   0.23259
 Alpha virt. eigenvalues --    0.24330   0.25460   0.26687   0.27961   0.29098
 Alpha virt. eigenvalues --    0.29647   0.31226   0.32165   0.33931   0.34757
 Alpha virt. eigenvalues --    0.35975   0.37868   0.39242   0.39721   0.40705
 Alpha virt. eigenvalues --    0.41606   0.42397   0.43841   0.44256   0.46888
 Alpha virt. eigenvalues --    0.49712   0.50115   0.52998   0.54021   0.55074
 Alpha virt. eigenvalues --    0.55498   0.56425   0.57384   0.57879   0.58103
 Alpha virt. eigenvalues --    0.58757   0.58856   0.59674   0.60096   0.60651
 Alpha virt. eigenvalues --    0.61129   0.61273   0.61970   0.62161   0.63080
 Alpha virt. eigenvalues --    0.64004   0.64733   0.65323   0.65589   0.66058
 Alpha virt. eigenvalues --    0.67642   0.69990   0.70629   0.72710   0.77068
 Alpha virt. eigenvalues --    0.78158   0.80048   0.82854   0.84343   0.87144
 Alpha virt. eigenvalues --    0.87784   0.91352   0.92541   0.94169   0.96462
 Alpha virt. eigenvalues --    0.97347   0.99364   1.01130   1.02293   1.04122
 Alpha virt. eigenvalues --    1.07344   1.08951   1.10752   1.15588   1.15807
 Alpha virt. eigenvalues --    1.19570   1.21667   1.24099   1.27629   1.28492
 Alpha virt. eigenvalues --    1.30936   1.32238   1.35605   1.37124   1.37798
 Alpha virt. eigenvalues --    1.39963   1.40899   1.42556   1.43922   1.44537
 Alpha virt. eigenvalues --    1.46232   1.46525   1.47441   1.47874   1.48810
 Alpha virt. eigenvalues --    1.50638   1.50941   1.51507   1.53838   1.53984
 Alpha virt. eigenvalues --    1.55567   1.56474   1.58015   1.58213   1.59968
 Alpha virt. eigenvalues --    1.60633   1.61265   1.62091   1.62482   1.63375
 Alpha virt. eigenvalues --    1.64227   1.65445   1.66265   1.69108   1.69450
 Alpha virt. eigenvalues --    1.71705   1.72443   1.72573   1.74040   1.74579
 Alpha virt. eigenvalues --    1.76060   1.79125   1.80365   1.80435   1.82660
 Alpha virt. eigenvalues --    1.84610   1.87130   1.89031   1.91631   1.92978
 Alpha virt. eigenvalues --    1.95702   1.97242   1.98246   2.00022   2.01685
 Alpha virt. eigenvalues --    2.03007   2.05048   2.07682   2.08833   2.09354
 Alpha virt. eigenvalues --    2.10437   2.11596   2.14541   2.17814   2.18723
 Alpha virt. eigenvalues --    2.24242   2.24856   2.26372   2.29729   2.30260
 Alpha virt. eigenvalues --    2.32479   2.33257   2.35202   2.36796   2.37885
 Alpha virt. eigenvalues --    2.39398   2.42324   2.43649   2.44723   2.45348
 Alpha virt. eigenvalues --    2.46065   2.46696   2.48021   2.48949   2.50019
 Alpha virt. eigenvalues --    2.50415   2.51062   2.52257   2.53335   2.54143
 Alpha virt. eigenvalues --    2.54774   2.56457   2.56645   2.59516   2.59808
 Alpha virt. eigenvalues --    2.61417   2.62958   2.64044   2.64936   2.66196
 Alpha virt. eigenvalues --    2.67851   2.68503   2.70793   2.71730   2.72374
 Alpha virt. eigenvalues --    2.74456   2.75659   2.78200   2.78463   2.82208
 Alpha virt. eigenvalues --    2.83446   2.86384   2.87557   2.89672   2.90026
 Alpha virt. eigenvalues --    2.91886   2.94250   2.98581   3.00121   3.03083
 Alpha virt. eigenvalues --    3.11356   3.11495   3.16062   3.17594   3.23921
 Alpha virt. eigenvalues --    3.29411   3.30971   3.34295   3.38887   3.43704
 Alpha virt. eigenvalues --    3.65245   3.68621   3.75742   3.76803   3.77894
 Alpha virt. eigenvalues --    3.79405   3.81722   3.82121   3.82454   3.82592
 Alpha virt. eigenvalues --    3.83463   3.83629   3.87341   3.97577   4.04665
 Alpha virt. eigenvalues --    4.16371   4.25903   4.29502   4.32932   4.40794
 Alpha virt. eigenvalues --    4.69558   4.83078   4.88857   4.93102   5.31027
 Alpha virt. eigenvalues --    5.75488  23.68759  23.81945  23.88183  23.88387
 Alpha virt. eigenvalues --   23.92335  23.94186  23.94412  23.94707  24.08071
 Alpha virt. eigenvalues --   49.76129  49.78703
  Beta  occ. eigenvalues --  -19.16352 -19.13921 -10.21573 -10.17115 -10.17063
  Beta  occ. eigenvalues --  -10.17016 -10.16912 -10.16579 -10.15808 -10.15415
  Beta  occ. eigenvalues --  -10.15308  -1.09317  -0.84277  -0.81004  -0.79093
  Beta  occ. eigenvalues --   -0.74961  -0.70206  -0.68174  -0.67173  -0.62107
  Beta  occ. eigenvalues --   -0.54560  -0.53044  -0.50449  -0.47656  -0.46636
  Beta  occ. eigenvalues --   -0.44465  -0.43788  -0.43434  -0.42724  -0.41607
  Beta  occ. eigenvalues --   -0.39838  -0.39065  -0.37925  -0.37775  -0.37574
  Beta  occ. eigenvalues --   -0.36567  -0.36533  -0.35132  -0.34127  -0.32038
  Beta  occ. eigenvalues --   -0.31759  -0.31655  -0.25193  -0.24207
  Beta virt. eigenvalues --   -0.08869   0.02616   0.03696   0.04057   0.05816
  Beta virt. eigenvalues --    0.06649   0.07380   0.08757   0.09414   0.10297
  Beta virt. eigenvalues --    0.10519   0.11265   0.11855   0.12035   0.12236
  Beta virt. eigenvalues --    0.12958   0.13743   0.14400   0.15251   0.17038
  Beta virt. eigenvalues --    0.17651   0.18137   0.19185   0.19596   0.22532
  Beta virt. eigenvalues --    0.23517   0.24588   0.25518   0.26782   0.28196
  Beta virt. eigenvalues --    0.29167   0.29736   0.31434   0.32205   0.34044
  Beta virt. eigenvalues --    0.34808   0.36135   0.38172   0.39494   0.40161
  Beta virt. eigenvalues --    0.40947   0.41842   0.42589   0.43924   0.44544
  Beta virt. eigenvalues --    0.47230   0.49876   0.51097   0.53110   0.54297
  Beta virt. eigenvalues --    0.55198   0.55588   0.56728   0.57423   0.57974
  Beta virt. eigenvalues --    0.58181   0.58830   0.59061   0.59746   0.60265
  Beta virt. eigenvalues --    0.60793   0.61234   0.61345   0.62240   0.62419
  Beta virt. eigenvalues --    0.63212   0.64097   0.64961   0.65592   0.65802
  Beta virt. eigenvalues --    0.66136   0.67706   0.70112   0.70808   0.72974
  Beta virt. eigenvalues --    0.77476   0.78412   0.80217   0.83009   0.84802
  Beta virt. eigenvalues --    0.87786   0.88148   0.91796   0.93521   0.94817
  Beta virt. eigenvalues --    0.96652   0.97436   0.99535   1.01358   1.02684
  Beta virt. eigenvalues --    1.04740   1.07533   1.09396   1.11437   1.15764
  Beta virt. eigenvalues --    1.16059   1.19746   1.21954   1.24182   1.27792
  Beta virt. eigenvalues --    1.28738   1.31299   1.32480   1.36089   1.37206
  Beta virt. eigenvalues --    1.37892   1.40094   1.41052   1.42599   1.43955
  Beta virt. eigenvalues --    1.44759   1.46290   1.46582   1.47638   1.48015
  Beta virt. eigenvalues --    1.48952   1.50653   1.51034   1.51552   1.54019
  Beta virt. eigenvalues --    1.54063   1.55635   1.56923   1.58172   1.58496
  Beta virt. eigenvalues --    1.60036   1.60687   1.61576   1.62261   1.62881
  Beta virt. eigenvalues --    1.63538   1.64357   1.65545   1.66367   1.69247
  Beta virt. eigenvalues --    1.69607   1.71887   1.72598   1.72676   1.74174
  Beta virt. eigenvalues --    1.75093   1.76186   1.79270   1.80392   1.80853
  Beta virt. eigenvalues --    1.82837   1.84694   1.87513   1.89206   1.91734
  Beta virt. eigenvalues --    1.93242   1.95860   1.97317   1.98330   2.00139
  Beta virt. eigenvalues --    2.01932   2.03460   2.05396   2.07924   2.08971
  Beta virt. eigenvalues --    2.09391   2.10627   2.11666   2.14689   2.17992
  Beta virt. eigenvalues --    2.19123   2.24297   2.24940   2.26564   2.29730
  Beta virt. eigenvalues --    2.30421   2.32749   2.33376   2.35244   2.36904
  Beta virt. eigenvalues --    2.38035   2.39459   2.42519   2.43871   2.44850
  Beta virt. eigenvalues --    2.45496   2.46154   2.46785   2.48139   2.49118
  Beta virt. eigenvalues --    2.50059   2.50538   2.51138   2.52323   2.53379
  Beta virt. eigenvalues --    2.54283   2.55251   2.56663   2.56842   2.59845
  Beta virt. eigenvalues --    2.59998   2.61821   2.63237   2.64233   2.65095
  Beta virt. eigenvalues --    2.66353   2.67941   2.69275   2.71304   2.71901
  Beta virt. eigenvalues --    2.73045   2.74592   2.76047   2.78543   2.78720
  Beta virt. eigenvalues --    2.82546   2.85060   2.87132   2.87730   2.89980
  Beta virt. eigenvalues --    2.90559   2.92194   2.94687   2.99935   3.01253
  Beta virt. eigenvalues --    3.03221   3.11402   3.12161   3.16538   3.19079
  Beta virt. eigenvalues --    3.24575   3.30958   3.31601   3.34673   3.39200
  Beta virt. eigenvalues --    3.43731   3.65931   3.69265   3.75724   3.76823
  Beta virt. eigenvalues --    3.77920   3.79429   3.81727   3.82137   3.82531
  Beta virt. eigenvalues --    3.82773   3.83646   3.83809   3.87439   3.97655
  Beta virt. eigenvalues --    4.05214   4.16492   4.25799   4.29511   4.33166
  Beta virt. eigenvalues --    4.41374   4.70169   4.84899   4.90938   4.96596
  Beta virt. eigenvalues --    5.31401   5.76217  23.69056  23.81971  23.88212
  Beta virt. eigenvalues --   23.88414  23.92402  23.94197  23.94418  23.94726
  Beta virt. eigenvalues --   24.08506  49.76384  49.80031
          Condensed to atoms (all electrons):
              1          2          3          4          5          6
     1  C    4.886626   0.403784   0.391683   0.402924  -0.074619  -0.010512
     2  H    0.403784   0.564596  -0.025670  -0.029988  -0.008611   0.003454
     3  H    0.391683  -0.025670   0.572373  -0.027716  -0.004391   0.000494
     4  H    0.402924  -0.029988  -0.027716   0.579820   0.009736   0.000346
     5  C   -0.074619  -0.008611  -0.004391   0.009736   5.067764   0.411027
     6  H   -0.010512   0.003454   0.000494   0.000346   0.411027   0.573773
     7  C    0.005426  -0.000105  -0.000157  -0.000368   0.387426  -0.039829
     8  H   -0.000091  -0.000048   0.000035   0.000013  -0.035567   0.007498
     9  H   -0.000254  -0.000047   0.000067   0.000001  -0.040329  -0.006160
    10  C   -0.000185   0.000034  -0.000025   0.000040  -0.058015  -0.001785
    11  H   -0.000072   0.000005   0.000004  -0.000001  -0.004130   0.004338
    12  H    0.000091   0.000077  -0.000030  -0.000014  -0.006549  -0.000767
    13  C    0.000004   0.000000   0.000000  -0.000001   0.006475  -0.000190
    14  H    0.000000   0.000000   0.000000   0.000000  -0.000326   0.000013
    15  C    0.000000   0.000000   0.000000   0.000000  -0.000243  -0.000021
    16  H    0.000000   0.000000   0.000000   0.000000  -0.000083   0.000024
    17  H    0.000000   0.000000   0.000000   0.000000   0.000018  -0.000003
    18  H    0.000000   0.000000   0.000000   0.000000  -0.000063   0.000008
    19  C   -0.050521   0.008606  -0.000946  -0.009308  -0.065688   0.006391
    20  H   -0.003032  -0.000434   0.001595  -0.000308  -0.002149  -0.000064
    21  H   -0.010440   0.000215   0.000129   0.004385   0.009351  -0.000265
    22  H    0.008002  -0.000282  -0.000418   0.000141  -0.008674  -0.000259
    23  C    0.000000   0.000000   0.000000   0.000000  -0.000098   0.000008
    24  H    0.000000   0.000000   0.000000   0.000000   0.000012   0.000001
    25  H    0.000000   0.000000   0.000000   0.000000   0.000030  -0.000007
    26  H    0.000000   0.000000   0.000000   0.000000  -0.000075   0.000001
    27  C    0.327427  -0.036227  -0.030538  -0.042032   0.444436  -0.043873
    28  O   -0.027239  -0.005107   0.002751   0.003385  -0.052275  -0.001264
    29  O    0.010657   0.012613   0.000182   0.000087   0.002255   0.001755
    30  H    0.003273   0.000214  -0.000350   0.001214  -0.000829  -0.000333
              7          8          9         10         11         12
     1  C    0.005426  -0.000091  -0.000254  -0.000185  -0.000072   0.000091
     2  H   -0.000105  -0.000048  -0.000047   0.000034   0.000005   0.000077
     3  H   -0.000157   0.000035   0.000067  -0.000025   0.000004  -0.000030
     4  H   -0.000368   0.000013   0.000001   0.000040  -0.000001  -0.000014
     5  C    0.387426  -0.035567  -0.040329  -0.058015  -0.004130  -0.006549
     6  H   -0.039829   0.007498  -0.006160  -0.001785   0.004338  -0.000767
     7  C    4.912518   0.410790   0.404366   0.332312  -0.042239  -0.038550
     8  H    0.410790   0.592042  -0.034168  -0.041216   0.009036  -0.007052
     9  H    0.404366  -0.034168   0.593489  -0.041445  -0.006312   0.008523
    10  C    0.332312  -0.041216  -0.041445   5.020969   0.402058   0.404147
    11  H   -0.042239   0.009036  -0.006312   0.402058   0.599301  -0.028037
    12  H   -0.038550  -0.007052   0.008523   0.404147  -0.028037   0.548707
    13  C   -0.060341  -0.003659  -0.005103   0.369660  -0.035409  -0.029740
    14  H    0.008889  -0.000205  -0.000188  -0.045396  -0.007549  -0.006767
    15  C   -0.006867  -0.000465   0.004000  -0.066784  -0.006945   0.007243
    16  H    0.003238   0.000320  -0.000061  -0.007904  -0.000295  -0.000331
    17  H   -0.000036  -0.000092  -0.000140   0.007873  -0.000083  -0.000330
    18  H   -0.000993   0.000098   0.000473  -0.003899   0.004340   0.000081
    19  C   -0.008056   0.003889  -0.000195   0.000315   0.000063  -0.000241
    20  H   -0.000351   0.000163   0.000132  -0.000075   0.000004  -0.000035
    21  H    0.000164   0.000054  -0.000056   0.000051   0.000008  -0.000087
    22  H   -0.001002  -0.001818   0.000136   0.000207  -0.000126   0.001124
    23  C   -0.008105   0.003238  -0.000628  -0.066120   0.008661  -0.006786
    24  H   -0.000029  -0.000106  -0.000091   0.008023  -0.000437   0.000024
    25  H    0.002799  -0.000486   0.000216  -0.007041  -0.000364  -0.000377
    26  H   -0.000809   0.000182   0.000088  -0.003602   0.000094   0.003519
    27  C   -0.056791  -0.011480   0.007171  -0.003079  -0.000078   0.001214
    28  O    0.002571  -0.000757   0.000088  -0.001892  -0.000357   0.014222
    29  O   -0.000407  -0.000030  -0.000021   0.000313   0.000293  -0.000829
    30  H    0.000013  -0.000005   0.000004  -0.000025  -0.000020   0.000306
             13         14         15         16         17         18
     1  C    0.000004   0.000000   0.000000   0.000000   0.000000   0.000000
     2  H    0.000000   0.000000   0.000000   0.000000   0.000000   0.000000
     3  H    0.000000   0.000000   0.000000   0.000000   0.000000   0.000000
     4  H   -0.000001   0.000000   0.000000   0.000000   0.000000   0.000000
     5  C    0.006475  -0.000326  -0.000243  -0.000083   0.000018  -0.000063
     6  H   -0.000190   0.000013  -0.000021   0.000024  -0.000003   0.000008
     7  C   -0.060341   0.008889  -0.006867   0.003238  -0.000036  -0.000993
     8  H   -0.003659  -0.000205  -0.000465   0.000320  -0.000092   0.000098
     9  H   -0.005103  -0.000188   0.004000  -0.000061  -0.000140   0.000473
    10  C    0.369660  -0.045396  -0.066784  -0.007904   0.007873  -0.003899
    11  H   -0.035409  -0.007549  -0.006945  -0.000295  -0.000083   0.004340
    12  H   -0.029740  -0.006767   0.007243  -0.000331  -0.000330   0.000081
    13  C    5.031309   0.416948   0.356154  -0.036813  -0.031014  -0.034600
    14  H    0.416948   0.615393  -0.043304   0.009291  -0.008223  -0.005391
    15  C    0.356154  -0.043304   4.899310   0.402702   0.401969   0.400270
    16  H   -0.036813   0.009291   0.402702   0.596881  -0.031388  -0.031902
    17  H   -0.031014  -0.008223   0.401969  -0.031388   0.586033  -0.027930
    18  H   -0.034600  -0.005391   0.400270  -0.031902  -0.027930   0.588423
    19  C   -0.000060   0.000002   0.000000   0.000001   0.000000   0.000000
    20  H    0.000008  -0.000001   0.000000   0.000000   0.000000   0.000000
    21  H   -0.000004   0.000000   0.000000   0.000000   0.000000   0.000000
    22  H   -0.000025   0.000005   0.000000  -0.000004   0.000000  -0.000001
    23  C    0.362043  -0.042892  -0.072046  -0.006078  -0.004481   0.008492
    24  H   -0.031741  -0.008155  -0.004686  -0.000716   0.003826  -0.000061
    25  H   -0.037518   0.009434  -0.006259   0.004991  -0.000692  -0.000118
    26  H   -0.034120  -0.005319   0.008550  -0.000105  -0.000082  -0.000527
    27  C    0.000130  -0.000009  -0.000008  -0.000001   0.000001   0.000003
    28  O    0.000104  -0.000010  -0.000001  -0.000001   0.000000   0.000000
    29  O   -0.000005   0.000000   0.000000   0.000000   0.000000   0.000000
    30  H    0.000001   0.000000   0.000000   0.000000   0.000000   0.000000
             19         20         21         22         23         24
     1  C   -0.050521  -0.003032  -0.010440   0.008002   0.000000   0.000000
     2  H    0.008606  -0.000434   0.000215  -0.000282   0.000000   0.000000
     3  H   -0.000946   0.001595   0.000129  -0.000418   0.000000   0.000000
     4  H   -0.009308  -0.000308   0.004385   0.000141   0.000000   0.000000
     5  C   -0.065688  -0.002149   0.009351  -0.008674  -0.000098   0.000012
[...]
 ,-0.00002267,-0.01696434,-0.00027760,0.00436277,-0.00037787,0.00042137
 ,-0.00066338,0.00004572,0.00014987,-0.00072039,0.00017689,-0.00001721,
 -0.00000142,0.00020021,0.00032095,-0.00004189,-0.00004450,-0.00017956,
 -0.00013025,-0.00001702,0.00001921,0.00002944,-0.00001401,0.00001214,-
 0.00000134,0.00001870,0.00000128,-0.00001215,-0.00002142,-0.00003195,-
 0.00002888,0.01355189,-0.04696127,-0.00444603,-0.01392844,0.04856040,0
 .00000327,-0.00001786,0.00002119,-0.00000998,0.00000169,0.00000943,0.0
 0001075,-0.00000607,-0.00000689,0.00001559,0.00000699,0.00000249,-0.00
 000053,-0.00011727,0.00002762,-0.00002003,-0.00001451,0.00004480,-0.00
 024427,0.00046068,0.00004468,-0.00005271,-0.00016082,0.00005520,0.0000
 0920,-0.00005140,-0.00001949,-0.00115080,0.00285352,-0.00485483,0.0017
 0970,0.00028174,-0.00039197,0.00003444,0.00016297,0.00016149,0.0283368
 8,-0.00246811,-0.00800359,-0.00044792,-0.00018483,0.00128506,0.0012937
 2,-0.00035191,0.00120192,-0.00004412,-0.00000381,-0.00008803,-0.000830
 85,0.00001269,-0.00042875,-0.00027858,0.00011011,0.00040699,0.00005454
 ,-0.00000498,-0.00002696,-0.00001232,-0.00000533,0.00001570,-0.0000002
 0,0.00000312,0.00001416,0.00001191,-0.00001428,-0.00000234,0.06394046,
 -0.00407264,-0.06418921,-0.07208198,0.00154246,0.06945309,0.00000066,0
 .00000991,0.00000234,-0.00000023,0.00000536,-0.00000315,0.00000533,-0.
 00000705,-0.00000320,0.00000962,0.00000113,0.00000463,-0.00011200,-0.0
 0002709,-0.00014619,0.00007188,0.00001810,-0.00001407,-0.00024856,0.00
 002250,0.00043165,-0.00080125,-0.00007065,0.00068746,0.00005205,0.0000
 4401,-0.00012240,0.00018720,-0.00071758,-0.00038552,0.00001707,0.00023
 547,-0.00004490,-0.00003053,-0.00003153,0.00005827,0.00118109,-0.00551
 192,-0.00112243,0.00064915,-0.00071664,0.00077378,-0.00006302,0.000563
 46,-0.00008115,0.00022222,-0.00002414,-0.00019147,-0.00004576,0.000155
 18,0.00003713,-0.00007069,-0.00021200,-0.00002787,-0.00003310,0.000029
 72,0.00006061,-0.00000668,-0.00000442,-0.00000343,0.00003872,-0.000001
 31,-0.00001462,-0.00002123,-0.00002501,-0.00005168,-0.06297442,0.06222
 834,0.00479201,-0.00743982,0.03113099,0.00264279,0.06456147,0.00000217
 ,0.00001631,-0.00000966,0.00000373,0.00000237,-0.00000822,-0.00000347,
 -0.00000451,0.00000308,0.00000305,-0.00000721,0.00000509,-0.00034464,0
 .00049318,-0.00040835,0.00022602,0.00002428,-0.00008853,0.00043793,-0.
 00049434,0.00068591,-0.00055448,0.00111540,-0.00083740,-0.00000142,0.0
 0001530,-0.00001301,0.00094109,-0.00009722,-0.00036097,-0.00016903,0.0
 0020049,0.00011633,0.00007259,0.00004523,0.00004773,0.00392284,-0.0164
 2063,-0.00099139,-0.00100495,-0.00014614,0.00339351,-0.00046406,0.0008
 4078,-0.00100171,0.00037026,0.00066105,0.00071866,-0.00001610,-0.00001
 686,0.00002157,-0.00017374,0.00033697,0.00006828,-0.00004850,0.0000406
 1,0.00005653,-0.00001976,0.00001737,-0.00000271,0.00004485,-0.00000242
 ,-0.00001949,-0.00004871,-0.00004576,-0.00005747,0.06159279,-0.2843833
 2,-0.02020336,0.00063864,-0.00105839,-0.00046543,-0.06889434,0.3111908
 8,-0.00001288,0.00002759,-0.00002413,0.00000956,0.00000196,-0.00000597
 ,-0.00000602,0.00000053,0.00000524,-0.00001093,-0.00000214,-0.00000043
 ,0.00001038,-0.00007871,0.00002106,-0.00006451,0.00000728,-0.00000045,
 0.00046567,-0.00037437,0.00010506,0.00081330,-0.00013746,-0.00016722,0
 .00002646,-0.00001962,-0.00022755,-0.00046508,-0.00034362,0.00097033,-
 0.00008182,-0.00022134,0.00007553,0.00011617,-0.00000985,-0.00006321,-
 0.00895095,0.02874699,0.00247446,0.00088266,0.00327462,-0.00502807,0.0
 0003375,0.00104376,0.00211818,-0.00002362,-0.00073516,-0.00019789,-0.0
 0002649,-0.00007716,-0.00009872,0.00023358,-0.00030519,0.00028302,-0.0
 0003731,0.00002614,-0.00000160,0.00000098,0.00000330,0.00000273,0.0000
 0109,-0.00000400,-0.00000730,-0.00002113,-0.00002369,0.00001132,0.0049
 2298,-0.02078755,-0.04905118,0.00141755,-0.00797723,-0.00165865,-0.006
 66531,0.02034513,0.05225324,-0.00000011,-0.00000523,0.00000096,-0.0000
 0168,0.00000264,0.00000120,0.00000570,-0.00000368,-0.00000431,0.000007
 77,0.00000361,0.00000411,-0.00007376,-0.00001965,-0.00001695,0.0000188
 7,0.00000110,-0.00000164,0.00005172,-0.00005198,-0.00004511,-0.0000072
 0,0.00007538,-0.00000561,0.00003038,-0.00001274,-0.00005849,0.00072490
 ,0.00040751,0.00091925,0.00012170,0.00010312,-0.00008971,0.00017793,-0
 .00009284,-0.00012832,0.00159546,0.00278115,0.00413513,-0.00004864,0.0
 0029270,-0.00044473,0.00030765,-0.00001964,0.00092024,-0.00008325,-0.0
 0017134,-0.00005129,0.00042780,-0.00001612,0.00025657,0.00053832,-0.00
 012131,0.00005864,-0.00001628,-0.00000265,0.00001129,0.00000537,-0.000
 00760,-0.00000502,0.00001562,0.00000096,-0.00000074,-0.00002157,0.0000
 2182,-0.00001419,-0.12504553,-0.05885001,-0.10312146,-0.01634539,-0.01
 347689,-0.02289338,0.00480674,0.00345136,0.00743064,0.13278712,0.00001
 083,-0.00003554,0.00002772,-0.00001215,-0.00000447,0.00001191,0.000004
 37,0.00000168,-0.00000514,0.00000945,0.00000441,-0.00000197,-0.0000392
 3,0.00000107,0.00005551,-0.00000060,-0.00000308,0.00000796,0.00005632,
 0.00004342,-0.00011843,-0.00005151,-0.00018282,-0.00010361,0.00000398,
 -0.00007616,0.00014426,0.00036970,0.00071249,-0.00028902,0.00026730,-0
 .00002201,-0.00009909,-0.00010947,0.00007047,-0.00018968,0.00965375,0.
 00681800,0.01201318,0.00041241,0.00067071,-0.00062727,-0.00074391,-0.0
 0125544,0.00259638,-0.00005212,0.00029931,0.00036400,-0.00012522,-0.00
 018074,-0.00011140,0.00032710,0.00065139,0.00086533,0.00009548,-0.0000
 3704,-0.00005476,-0.00002434,0.00000911,0.00002065,-0.00001344,0.00000
 992,0.00001391,0.00002283,-0.00001034,0.00000384,-0.05894336,-0.092505
 84,-0.07859581,0.00145722,0.00020364,0.00245379,-0.01822708,-0.0122956
 8,-0.02235447,0.06567632,0.09708069,0.00000755,-0.00000751,0.00002121,
 -0.00000784,-0.00000883,0.00000356,-0.00000566,0.00000613,0.00000093,0
 .00000469,-0.00000265,-0.00000169,-0.00001995,-0.00001952,0.00002837,-
 0.00001563,-0.00000894,0.00000298,0.00033772,-0.00004741,-0.00012730,0
 .00006290,-0.00021880,-0.00019512,-0.00011874,0.00015770,0.00020024,-0
 .00143538,-0.00110144,0.00078383,-0.00007943,0.00021643,0.00053377,0.0
 0106062,0.00050131,0.00026943,-0.01556781,-0.01334347,-0.02035926,-0.0
 0018978,0.00030376,0.00101187,0.00215764,0.00450701,-0.00435043,0.0002
 2098,0.00001454,0.00031137,-0.00007721,0.00009168,0.00028872,-0.001144
 96,-0.00067074,-0.00152279,0.00006859,-0.00000616,-0.00005966,-0.00002
 413,0.00001709,0.00001922,-0.00001894,0.00000315,0.00000973,0.00001027
 ,-0.00004295,0.00003424,-0.10215081,-0.07766413,-0.18219875,0.00442536
 ,0.00438456,0.00690532,-0.00064661,-0.00107352,-0.00184881,0.11312477,
 0.08399697,0.20019924,-0.17657966,-0.00570298,0.04851241,0.00121886,-0
 .00009151,-0.00026726,-0.00806361,0.00115449,0.00409188,-0.02130251,0.
 00103628,0.01114336,-0.24443365,0.03629286,-0.09450460,0.00393599,-0.0
 0367375,0.00165427,-0.02404692,0.00107876,-0.01633608,0.00168832,0.000
 49697,-0.00096544,-0.00290788,-0.00008759,0.00128803,0.00056668,-0.002
 93920,-0.00142249,-0.00026465,0.00050762,-0.00025062,-0.00039569,0.000
 57141,0.00054905,-0.00002095,0.00072401,0.00014140,-0.00021642,0.00003
 638,0.00005905,0.00015948,-0.00009723,-0.00002873,0.00005478,0.0001436
 0,0.00003584,0.00007350,0.00009846,0.00006124,-0.00002088,0.00000014,-
 0.00002836,-0.08726868,0.00127221,0.00949578,-0.00122774,0.00123794,0.
 00043292,0.00064090,0.01727041,-0.02223698,-0.00017497,-0.01897723,0.0
 2346441,0.00012194,-0.00012516,-0.00006014,0.00004635,0.00004833,-0.00
 004205,0.00002259,0.00007958,0.00000424,-0.00001618,-0.00002424,0.0000
 7931,0.57720087,-0.00669473,-0.06922007,0.01483232,-0.02190016,-0.0016
 0085,0.01007722,0.02627986,0.00241813,-0.01122587,-0.00263176,-0.00066
 347,0.00252116,0.08261755,-0.06558615,0.08954594,0.01364593,0.00134137
 ,0.01220276,-0.00439219,0.00831207,-0.00153137,0.00002526,-0.00052953,
 -0.00026346,-0.00140027,-0.00129599,-0.00016053,-0.00065133,-0.0034852
 4,-0.00001995,-0.00006550,0.00030616,-0.00025403,0.00037567,-0.0001230
 7,-0.00013944,0.00044891,0.00126600,-0.00035037,-0.00050685,-0.0000729
 5,0.00016528,-0.00015988,-0.00010007,0.00018303,0.00007290,0.00004541,
 -0.00002864,-0.00013517,0.00000628,-0.00003842,0.00003547,0.00000932,-
 0.00000578,0.00062458,-0.10192139,0.06462945,0.00049976,-0.01771141,0.
 02618393,0.00099698,0.00043099,-0.00233590,-0.00222810,0.00241615,-0.0
 0555751,-0.00007704,-0.00002742,-0.00012604,-0.00005520,-0.00002625,0.
 00007580,0.00002534,-0.00003585,-0.00002861,0.00003726,0.00006300,0.00
 002877,-0.07749169,0.19939070,0.04888693,0.01886108,-0.10047266,0.0220
 0143,0.00017207,-0.01393234,0.01286355,0.00187771,-0.00570800,-0.01847
 054,-0.00051839,0.00964461,-0.06112111,0.05135292,-0.12905445,-0.02273
 365,0.00437378,-0.01658088,0.00171268,-0.00277858,0.01177769,0.0006032
 0,0.00065738,-0.00098738,0.00309103,0.00055204,-0.00021549,0.00320268,
 -0.00122170,-0.00176167,-0.00013240,0.00021998,-0.00008617,-0.00019968
 ,-0.00016046,0.00023501,0.00047718,-0.00039699,0.00003123,0.00014930,-
 0.00007391,-0.00007642,0.00006881,0.00002217,-0.00014778,-0.00006188,-
 0.00003543,0.00001084,0.00007536,-0.00002993,0.00002150,-0.00001346,-0
 .00001163,-0.00001165,0.00265228,0.06408583,-0.15746983,0.00007040,-0.
 00288265,0.00725605,0.00105577,0.01131875,-0.01462317,0.00101942,0.009
 95729,-0.01280193,-0.00002268,-0.00013714,0.00006528,-0.00000060,0.000
 05807,-0.00005181,0.00003921,0.00012350,0.00007264,0.00000902,-0.00008
 961,-0.00002322,0.00433150,-0.23251693,0.41482648,-0.00244692,0.012516
 38,0.00645231,0.00014237,-0.00042170,0.00060822,-0.00202690,-0.0004849
 2,0.00260499,0.00129132,0.00031294,-0.00006869,-0.00606912,-0.00455644
 ,-0.00799352,0.00021427,0.00021476,0.00059339,0.00025850,0.00052768,0.
 00049852,-0.00006670,-0.00018393,-0.00000535,0.00033300,-0.00004715,-0
 .00015715,-0.00119798,0.00114192,0.00135470,0.00011737,-0.00004661,-0.
 00002089,0.00005858,-0.00070075,-0.00142824,0.00018502,-0.00063156,-0.
 00087733,0.00014440,-0.00001376,-0.00001384,-0.00038147,0.00009412,0.0
 0022462,-0.00000012,-0.00009594,-0.00001441,-0.00012190,-0.00009184,-0
 .00010470,0.00002591,0.00002336,0.00001633,0.00122127,-0.00245392,-0.0
 0042820,-0.00038496,-0.00077206,0.00009035,-0.00020535,-0.00012415,-0.
 00010495,-0.00008645,-0.00039608,-0.00031551,-0.00004210,0.00011693,-0
 .00000353,-0.00004450,-0.00005678,0.00004204,-0.00001772,-0.00010562,-
 0.00000028,0.00000642,0.00002929,-0.00004599,-0.00975902,-0.00098761,0
 .00898824,0.08931080,0.00423018,-0.01251501,-0.00919991,-0.00184103,-0
 .00000498,0.00269625,-0.00098329,-0.00078908,-0.00170964,-0.00429392,-
 0.00102287,-0.00015388,-0.06069104,-0.00277103,-0.04981321,0.00027598,
 -0.00000372,0.00149047,0.00288182,-0.00160206,0.00075678,-0.00010618,0
 .00013949,0.00015044,0.00006132,0.00048000,-0.00050784,-0.00011623,0.0
 0290701,0.00043952,0.00012793,-0.00021832,0.00027366,0.00015356,-0.000
 33943,-0.00035985,-0.00024199,-0.00096568,-0.00004531,0.00051873,-0.00
 006040,-0.00012432,0.00005038,0.00018669,-0.00007347,-0.00008017,-0.00
 015862,0.00000065,0.00011466,-0.00005211,-0.00002393,-0.00005133,0.000
 01155,0.00001557,0.00013326,-0.02244569,-0.00420485,-0.00149588,-0.000
 83545,-0.00006411,-0.00077961,0.00052374,-0.00343305,-0.00005508,0.001
 00032,-0.00195474,0.00012711,0.00019559,0.00015507,0.00010060,-0.00004
 491,-0.00006868,-0.00008455,-0.00014680,0.00001043,-0.00005632,0.00000
 042,-0.00006076,0.06622483,0.06789153,0.08342914,0.07011010,0.13271387
 ,0.00174430,-0.01468703,-0.00635665,-0.00066176,0.00040533,-0.00041733
 ,0.00217782,0.00129225,-0.00146447,0.00028430,0.00014305,0.00092914,-0
 .01260297,-0.01624168,-0.02081988,0.00011076,0.00082979,0.00067733,-0.
 00028030,0.00280563,-0.00077663,-0.00050621,-0.00042909,0.00021457,-0.
 00070769,-0.00032124,0.00056092,-0.00134716,-0.00226969,0.00076462,0.0
 0013594,-0.00009247,-0.00010754,-0.00034753,0.00024354,0.00000140,0.00
 028560,0.00105140,-0.00001701,-0.00054230,0.00003300,0.00012968,-0.000
 12338,-0.00020064,0.00009456,0.00007429,0.00014491,-0.00002420,-0.0001
 4948,0.00004655,0.00000392,0.00006306,-0.00002036,0.00001359,0.0005889
 7,0.01060563,0.00256927,-0.00018066,0.00242958,-0.00165055,0.00072416,
 0.00015211,0.00070310,-0.00032017,0.00053213,0.00016888,-0.00018058,-0
 .00011277,-0.00018698,-0.00008394,-0.00000015,0.00010532,0.00005895,0.
 00005845,-0.00002387,0.00005286,0.00004455,0.00008467,0.01646315,0.018
 05847,-0.01792194,-0.06520229,-0.11288139,0.14927308,-0.00098625,0.000
 76399,0.00158968,0.00029836,0.00045853,-0.00142849,0.00082027,0.000886
 19,-0.00028648,0.00111601,0.00020676,0.00062475,0.00748986,-0.00445450
 ,0.00313727,-0.00030147,0.00038434,-0.00004512,-0.00047026,0.00088250,
 -0.00012857,0.00000464,0.00006336,0.00002699,-0.00026656,-0.00013957,0
 .00018861,0.00001666,-0.00110878,-0.00030648,-0.00016584,0.00006184,-0
 .00019010,-0.00017171,-0.00021219,0.00047603,0.00013107,0.00054064,0.0
 0011543,-0.00027462,0.00003905,0.00005851,-0.00000244,-0.00010004,0.00
 001923,0.00004319,0.00008700,-0.00000155,-0.00006487,0.00003112,0.0000
 2259,0.00002935,-0.00000470,-0.00001618,-0.00039273,0.00037251,-0.0004
 6088,0.00068864,0.00035182,0.00035357,0.00050743,0.00002551,0.00078627
 ,0.00026485,0.00040339,-0.00026360,-0.00004442,-0.00006381,-0.00002227
 ,-0.00007843,0.00001780,0.00001397,0.00005376,0.00008208,-0.00000620,0
 .00004082,-0.00002986,-0.00001028,-0.01074553,-0.00782546,-0.01051514,
 -0.06782357,-0.06290590,0.05291073,0.55998360,-0.00139523,-0.00003306,
 0.00102117,0.00051712,-0.00045932,-0.00065467,-0.00010073,0.00088200,0
 .00060960,0.00169317,0.00004112,0.00035829,0.01065798,-0.00527244,0.00
 305582,-0.00049377,0.00059680,-0.00027680,-0.00080064,0.00128971,-0.00
 054201,-0.00006595,-0.00007733,0.00001579,-0.00046153,-0.00021072,0.00
 037675,-0.00009308,-0.00206089,-0.00022854,-0.00010022,0.00005460,-0.0
 0022744,-0.00045038,0.00024086,0.00050645,0.00020437,0.00088052,0.0002
 3912,-0.00049196,0.00008406,0.00010218,0.00001221,-0.00019596,0.000028
 60,0.00007490,0.00016949,0.00000057,-0.00010282,0.00006220,0.00004289,
 0.00004944,-0.00001536,-0.00001906,0.00025901,-0.00579240,-0.00321217,
 -0.00017756,-0.00079122,0.00169604,0.00000208,0.00017264,0.00048791,0.
 00007364,0.00044455,0.00013702,-0.00012633,-0.00017115,-0.00012315,-0.
 00010512,0.00003963,0.00005214,0.00008935,0.00016100,-0.00000653,0.000
 05887,-0.00002769,0.00004859,-0.01313394,-0.01939073,-0.00382881,-0.03
 190150,-0.14911262,0.09895154,0.00096922,0.21285085,0.00116924,-0.0010
 6339,-0.00315069,-0.00073793,-0.00069963,0.00263981,-0.00108159,-0.001
 49312,0.00014254,-0.00167748,-0.00047410,-0.00042207,-0.01674988,0.003
 39008,-0.00958144,0.00027475,-0.00029672,0.00081632,0.00127372,-0.0018
 5820,0.00068286,0.00003633,0.00012731,0.00001462,0.00037035,0.00031077
 ,-0.00042731,0.00036999,0.00214403,-0.00007497,0.00007890,-0.00008487,
 0.00027252,0.00033833,-0.00008389,-0.00040286,-0.00014550,-0.00088981,
 -0.00007539,0.00042716,-0.00003646,-0.00010451,0.00003643,0.00016174,-
 0.00004842,-0.00005701,-0.00012410,0.00000622,0.00009149,-0.00004651,-
 0.00001768,-0.00003433,0.00000567,0.00002873,-0.00072785,-0.00291016,-
 0.00001705,-0.00005856,-0.00056207,0.00023550,-0.00003737,-0.00010172,
 -0.00089223,-0.00021569,-0.00018780,-0.00025004,0.00005817,0.00009789,
 0.00007652,0.00008204,-0.00002412,-0.00003883,-0.00006105,-0.00009059,
 0.00001199,-0.00003656,0.00001429,-0.00002095,0.01886088,0.01828424,0.
 03065806,0.02132635,0.08136739,-0.09874131,0.01687268,-0.11557899,0.09
 611702,0.00087853,-0.00022845,0.00024671,0.00007262,0.00003861,-0.0001
 6801,-0.00017983,-0.00002343,-0.00037544,-0.00052475,0.00006008,-0.000
 37482,-0.00197767,0.00060030,-0.00093832,0.00000848,-0.00009664,-0.000
 03423,0.00012668,-0.00027212,0.00008456,0.00003521,0.00002652,-0.00001
 552,0.00007991,0.00004217,-0.00006205,0.00010766,0.00035705,-0.0000546
 6,0.00000356,-0.00001315,0.00005430,0.00002681,-0.00001308,-0.00003050
 ,-0.00003644,-0.00015091,-0.00000032,0.00008046,-0.00001064,-0.0000206
 7,0.00001311,0.00002819,-0.00001235,-0.00001442,-0.00002540,0.00000085
 ,0.00002359,-0.00000808,-0.00000371,-0.00000902,0.00000239,0.00000370,
 -0.00006130,0.00036853,0.00024802,0.00002668,0.00010641,-0.00015431,-0
 .00000569,-0.00001287,-0.00014452,0.00000101,-0.00000966,-0.00007578,0
 .00001560,0.00002178,0.00001503,0.00002061,-0.00000544,-0.00000953,-0.
 00001453,-0.00002015,0.00000351,-0.00001071,0.00000017,-0.00000127,0.0
 0171468,0.00151747,0.00197315,-0.00263446,-0.01132794,0.00756153,-0.48
 969982,0.03533939,-0.04004598,0.49193341,-0.00114701,0.00032832,-0.000
 14369,0.00011781,-0.00043228,-0.00118800,0.00050044,0.00066564,0.00033
 328,0.00121916,-0.00072252,0.00062803,0.00214456,-0.00038772,0.0013898
 7,-0.00008261,0.00006988,-0.00011066,-0.00011687,0.00022006,0.00004541
 ,0.00000393,0.00001952,-0.00001826,-0.00000308,-0.00002014,0.00005021,
 -0.00012175,-0.00020745,-0.00006119,-0.00006868,0.00000842,-0.00009043
 ,0.00006004,-0.00013325,0.00013460,-0.00003438,0.00010259,-0.00001800,
 -0.00002106,-0.00001221,0.00000575,-0.00000354,0.00000128,-0.00001054,
 -0.00000204,-0.00000038,0.00000139,0.00000935,0.00000272,-0.00000147,-
 0.00000662,0.00000064,-0.00000301,-0.00002541,0.00004139,-0.00005367,0
 .00025038,0.00011971,0.00001343,0.00011896,-0.00003299,0.00030151,0.00
 020066,0.00009763,-0.00020688,0.00002784,0.00000832,0.00001328,0.00000
 825,0.00000197,-0.00000974,-0.00000359,-0.00000609,-0.00000103,-0.0000
 0583,-0.00000287,-0.00000087,-0.00592978,-0.00210665,-0.00237957,-0.04
 101516,-0.01296144,0.00942862,0.07021714,-0.03435912,0.02070286,-0.026
 29112,0.04969704,0.00010192,0.00002792,0.00146178,-0.00015362,-0.00043
 926,-0.00142657,-0.00000543,0.00054788,-0.00019253,0.00002846,-0.00003
 216,0.00035161,0.00175021,-0.00039599,0.00143752,-0.00011613,0.0001828
 0,0.00011044,-0.00014521,0.00019318,-0.00006379,-0.00001100,-0.0000397
 0,-0.00001221,-0.00000753,-0.00004241,0.00004072,-0.00013244,-0.000189
 47,-0.00000020,0.00005337,0.00003657,0.00006050,-0.00005491,0.00006811
 ,-0.00004627,0.00001007,0.00003845,-0.00001567,-0.00000756,-0.00000936
 ,0.00000442,-0.00001380,-0.00000099,0.00001186,-0.00000102,-0.00000527
 ,-0.00000135,-0.00000342,-0.00000130,-0.00000589,0.00000033,0.00000469
 ,-0.00000604,0.00047579,0.00006108,0.00002334,-0.00000425,0.00004787,-
 0.00004491,-0.00006008,0.00015717,0.00008418,0.00002795,-0.00010893,-0
 .00003034,0.00000126,0.00000289,-0.00000431,0.00000346,-0.00000232,0.0
 0000688,-0.00000377,-0.00001195,0.00000027,-0.00000720,0.00000598,-0.0
 0000071,-0.00452595,-0.00220553,-0.00267260,0.03398483,0.01389356,-0.0
 0778569,-0.06351497,0.01696769,-0.01743696,0.03233064,-0.02875120,0.02
 615250\\-0.00000041,-0.00000795,0.00000423,0.00000198,-0.00000943,0.00
 000174,-0.00000118,-0.00000920,0.00000656,0.00000011,-0.00000752,0.000
 00441,0.00000055,-0.00000475,0.00000149,0.00000218,-0.00000605,0.00000
 037,-0.00000113,0.00000081,0.00000162,-0.00000281,0.00000202,0.0000020
 8,-0.00000075,-0.00000189,0.00000166,0.00000146,0.00000098,-0.00000368
 ,0.00000342,-0.00000044,-0.00000438,0.00000158,0.00000232,-0.00000317,
 0.00000042,0.00000507,-0.00000473,0.00000295,0.00000555,-0.00000669,0.
 00000160,0.00000425,-0.00000318,-0.00000054,0.00000245,-0.00000064,0.0
 0000051,0.00000574,-0.00000431,0.00000283,0.00000081,-0.00000421,-0.00
 000386,-0.00000201,0.00000582,-0.00000517,-0.00000134,0.00000747,-0.00
 000316,-0.00000127,0.00000538,-0.00000257,0.00000212,0.00000364,-0.000
 00185,0.00000803,-0.00000223,-0.00000122,0.00001041,-0.00000354,-0.000
 00149,0.00000627,0.00000051,-0.00000108,0.00000870,-0.00000298,-0.0000
 0051,-0.00000282,0.00000239,0.00000097,-0.00000168,-0.00000133,0.00000
 347,-0.00000369,-0.00000238,0.00000369,-0.00000547,-0.00000195\\\@
 Job cpu time:  0 days 12 hours 15 minutes 15.1 seconds.
 File lengths (MBytes):  RWF=  73422 Int=      0 D2E=      0 Chk=     26 Scr=      1
 Normal termination of Gaussian 09 at Fri Apr 18 12:21:57 2014.
