 Entering Gaussian System, Link 0=g09
 Initial command:
 /usr/caen/gaussian-09revc/g09/l1.exe /scratch/avioli_flux/hetanjin/scratch/Gau-50687.inp -scrdir=/scratch/avioli_flux/hetanjin/scratch/
 Entering Link 1 = /usr/caen/gaussian-09revc/g09/l1.exe PID=     50688.
  
 Copyright (c) 1988,1990,1992,1993,1995,1998,2003,2009,2011,
            Gaussian, Inc.  All Rights Reserved.
  
 This is part of the Gaussian(R) 09 program.  It is based on
 the Gaussian(R) 03 system (copyright 2003, Gaussian, Inc.),
 the Gaussian(R) 98 system (copyright 1998, Gaussian, Inc.),
 the Gaussian(R) 94 system (copyright 1995, Gaussian, Inc.),
 the Gaussian 92(TM) system (copyright 1992, Gaussian, Inc.),
 the Gaussian 90(TM) system (copyright 1990, Gaussian, Inc.),
 the Gaussian 88(TM) system (copyright 1988, Gaussian, Inc.),
 the Gaussian 86(TM) system (copyright 1986, Carnegie Mellon
 University), and the Gaussian 82(TM) system (copyright 1983,
 Carnegie Mellon University). Gaussian is a federally registered
 trademark of Gaussian, Inc.
  
 This software contains proprietary and confidential information,
 including trade secrets, belonging to Gaussian, Inc.
  
 This software is provided under written license and may be
 used, copied, transmitted, or stored only in accord with that
 written license.
  
 The following legend is applicable only to US Government
 contracts under FAR:
  
                    RESTRICTED RIGHTS LEGEND
  
 Use, reproduction and disclosure by the US Government is
 subject to restrictions as set forth in subparagraphs (a)
 and (c) of the Commercial Computer Software - Restricted
 Rights clause in FAR 52.227-19.
  
 Gaussian, Inc.
 340 Quinnipiac St., Bldg. 40, Wallingford CT 06492
  
  
 ---------------------------------------------------------------
 Warning -- This program may not be used in any manner that
 competes with the business of Gaussian, Inc. or will provide
 assistance to any competitor of Gaussian, Inc.  The licensee
 of this program is prohibited from giving any competitor of
 Gaussian, Inc. access to this program.  By using this program,
 the user acknowledges that Gaussian, Inc. is engaged in the
 business of creating and licensing software in the field of
 computational chemistry and represents and warrants to the
 licensee that it is not a competitor of Gaussian, Inc. and that
 it will not use this program in any manner prohibited above.
 ---------------------------------------------------------------
  

 Cite this work as:
 Gaussian 09, Revision C.01,
 M. J. Frisch, G. W. Trucks, H. B. Schlegel, G. E. Scuseria, 
 M. A. Robb, J. R. Cheeseman, G. Scalmani, V. Barone, B. Mennucci, 
 G. A. Petersson, H. Nakatsuji, M. Caricato, X. Li, H. P. Hratchian, 
 A. F. Izmaylov, J. Bloino, G. Zheng, J. L. Sonnenberg, M. Hada, 
 M. Ehara, K. Toyota, R. Fukuda, J. Hasegawa, M. Ishida, T. Nakajima, 
 Y. Honda, O. Kitao, H. Nakai, T. Vreven, J. A. Montgomery, Jr., 
 J. E. Peralta, F. Ogliaro, M. Bearpark, J. J. Heyd, E. Brothers, 
 K. N. Kudin, V. N. Staroverov, T. Keith, R. Kobayashi, J. Normand, 
 K. Raghavachari, A. Rendell, J. C. Burant, S. S. Iyengar, J. Tomasi, 
 M. Cossi, N. Rega, J. M. Millam, M. Klene, J. E. Knox, J. B. Cross, 
 V. Bakken, C. Adamo, J. Jaramillo, R. Gomperts, R. E. Stratmann, 
 O. Yazyev, A. J. Austin, R. Cammi, C. Pomelli, J. W. Ochterski, 
 R. L. Martin, K. Morokuma, V. G. Zakrzewski, G. A. Voth, 
 P. Salvador, J. J. Dannenberg, S. Dapprich, A. D. Daniels, 
 O. Farkas, J. B. Foresman, J. V. Ortiz, J. Cioslowski, 
 and D. J. Fox, Gaussian, Inc., Wallingford CT, 2010.
 
 ******************************************
 Gaussian 09:  EM64L-G09RevC.01 23-Sep-2011
                17-Feb-2014 
 ******************************************
 %mem=30GB
 %nprocshared=8
 Will use up to    8 processors via shared memory.
 %chk=TS_3_3b.chk
 -------------------------------
 #p cbs-qb3 opt=(TS,calcfc) freq
 -------------------------------
 1/5=1,10=4,14=-1,18=20,26=3,38=1/1,3;
 2/9=110,12=2,17=6,18=5,40=1/2;
 3/5=4,6=6,7=700,11=2,16=1,25=1,30=1,71=2,74=-5/1,2,3;
 4//1;
 5/5=2,38=5/2;
 8/6=4,10=90,11=11/1;
 11/6=1,8=1,9=11,15=111,16=1/1,2,10;
 10/6=1,7=6,13=1/2;
 6/7=2,8=2,9=2,10=2,28=1/1;
 7/10=1,18=20,25=1/1,2,3,16;
 1/5=1,10=4,14=-1,18=20/3(2);
 2/9=110/2;
 99//99;
 2/9=110/2;
 3/5=4,6=6,7=700,11=2,16=1,25=1,30=1,71=1,74=-5/1,2,3;
 4/5=5,16=3/1;
 5/5=2,38=5/2;
 7//1,2,3,16;
 1/5=1,14=-1,18=20/3(-5);
 2/9=110/2;
 6/7=2,8=2,9=2,10=2,19=2,28=1/1;
 99/9=1/99;
 Leave Link    1 at Mon Feb 17 03:59:05 2014, MaxMem= 4026531840 cpu:       2.7
 (Enter /usr/caen/gaussian-09revc/g09/l101.exe)
 ------------------------------------
 TS_3_3b using cbs-qb3 to cal. energy
 ------------------------------------
 Charge =  0 Multiplicity = 2
 Symbolic Z-Matrix:
 C                     3.50735   0.11524   0.90835 
 H                     3.5172   -0.93899   1.19201 
 H                     3.45102   0.71126   1.83119 
 H                     4.45582   0.35873   0.42252 
 C                     2.33049   0.43077   0.01319 
 H                     2.35576  -0.48365  -0.96573 
 C                    -0.27986   0.33767  -0.1239 
 H                    -0.22612   0.25721  -1.21454 
 H                    -0.33087   1.40382   0.11895 
 C                    -1.53169  -0.38469   0.3903 
 H                    -1.61503  -0.24217   1.47714 
 H                    -1.39792  -1.45901   0.23045 
 C                    -2.85102   0.05464  -0.27194 
 H                    -2.73349  -0.07224  -1.35691 
 C                    -4.00334  -0.85239   0.18216 
 H                    -4.16681  -0.76513   1.26215 
 H                    -4.93928  -0.58425  -0.31679 
 H                    -3.7939   -1.90294  -0.03886 
 C                     2.30819   1.82867  -0.55062 
 H                     2.09824   2.56492   0.23924 
 H                     3.28371   2.08651  -0.97206 
 H                     1.55373   1.9579   -1.32811 
 C                    -3.18771   1.5284   -0.00218 
 H                    -4.13573   1.80445  -0.47309 
 H                    -3.28659   1.71349   1.0737 
 H                    -2.42222   2.20589  -0.38918 
 C                     1.00341  -0.23041   0.47968 
 H                     0.92906  -0.241     1.57494 
 O                     1.21016  -1.61634   0.12695 
 O                     1.7434   -1.55143  -1.19161 
 
 NAtoms=     30 NQM=        0 NQMF=       0 NMMI=     30 NMMIF=      0
                NMic=       0 NMicF=      0.
                    Isotopes and Nuclear Properties:
 (Nuclear quadrupole moments (NQMom) in fm**2, nuclear magnetic moments (NMagM)
  in nuclear magnetons)

  Atom         1           2           3           4           5           6           7           8           9          10
 IAtWgt=          12           1           1           1          12           1          12           1           1          12
 AtmWgt=  12.0000000   1.0078250   1.0078250   1.0078250  12.0000000   1.0078250  12.0000000   1.0078250   1.0078250  12.0000000
 NucSpn=           0           1           1           1           0           1           0           1           1           0
 AtZEff=   0.0000000   0.0000000   0.0000000   0.0000000   0.0000000   0.0000000   0.0000000   0.0000000   0.0000000   0.0000000
 NQMom=    0.0000000   0.0000000   0.0000000   0.0000000   0.0000000   0.0000000   0.0000000   0.0000000   0.0000000   0.0000000
 NMagM=    0.0000000   2.7928460   2.7928460   2.7928460   0.0000000   2.7928460   0.0000000   2.7928460   2.7928460   0.0000000

  Atom        11          12          13          14          15          16          17          18          19          20
 IAtWgt=           1           1          12           1          12           1           1           1          12           1
 AtmWgt=   1.0078250   1.0078250  12.0000000   1.0078250  12.0000000   1.0078250   1.0078250   1.0078250  12.0000000   1.0078250
 NucSpn=           1           1           0           1           0           1           1           1           0           1
 AtZEff=   0.0000000   0.0000000   0.0000000   0.0000000   0.0000000   0.0000000   0.0000000   0.0000000   0.0000000   0.0000000
 NQMom=    0.0000000   0.0000000   0.0000000   0.0000000   0.0000000   0.0000000   0.0000000   0.0000000   0.0000000   0.0000000
 NMagM=    2.7928460   2.7928460   0.0000000   2.7928460   0.0000000   2.7928460   2.7928460   2.7928460   0.0000000   2.7928460

  Atom        21          22          23          24          25          26          27          28          29          30
 IAtWgt=           1           1          12           1           1           1          12           1          16          16
 AtmWgt=   1.0078250   1.0078250  12.0000000   1.0078250   1.0078250   1.0078250  12.0000000   1.0078250  15.9949146  15.9949146
 NucSpn=           1           1           0           1           1           1           0           1           0           0
 AtZEff=   0.0000000   0.0000000   0.0000000   0.0000000   0.0000000   0.0000000   0.0000000   0.0000000   0.0000000   0.0000000
 NQMom=    0.0000000   0.0000000   0.0000000   0.0000000   0.0000000   0.0000000   0.0000000   0.0000000   0.0000000   0.0000000
 NMagM=    2.7928460   2.7928460   0.0000000   2.7928460   2.7928460   2.7928460   0.0000000   2.7928460   0.0000000   0.0000000
 Leave Link  101 at Mon Feb 17 03:59:06 2014, MaxMem= 4026531840 cpu:       2.4
 (Enter /usr/caen/gaussian-09revc/g09/l103.exe)

 GradGradGradGradGradGradGradGradGradGradGradGradGradGradGradGradGradGrad
 Berny optimization.
 Initialization pass.
                           ----------------------------
                           !    Initial Parameters    !
                           ! (Angstroms and Degrees)  !
 --------------------------                            --------------------------
 ! Name  Definition              Value          Derivative Info.                !
 --------------------------------------------------------------------------------
 ! R1    R(1,2)                  1.0918         calculate D2E/DX2 analytically  !
 ! R2    R(1,3)                  1.1            calculate D2E/DX2 analytically  !
 ! R3    R(1,4)                  1.0931         calculate D2E/DX2 analytically  !
 ! R4    R(1,5)                  1.5119         calculate D2E/DX2 analytically  !
 ! R5    R(5,6)                  1.3398         calculate D2E/DX2 analytically  !
 ! R6    R(5,19)                 1.5075         calculate D2E/DX2 analytically  !
 ! R7    R(5,27)                 1.5543         calculate D2E/DX2 analytically  !
 ! R8    R(7,8)                  1.0949         calculate D2E/DX2 analytically  !
 ! R9    R(7,9)                  1.0946         calculate D2E/DX2 analytically  !
 ! R10   R(7,10)                 1.534          calculate D2E/DX2 analytically  !
 ! R11   R(7,27)                 1.5277         calculate D2E/DX2 analytically  !
 ! R12   R(10,11)                1.0993         calculate D2E/DX2 analytically  !
 ! R13   R(10,12)                1.0944         calculate D2E/DX2 analytically  !
 ! R14   R(10,13)                1.5402         calculate D2E/DX2 analytically  !
 ! R15   R(13,14)                1.0987         calculate D2E/DX2 analytically  !
 ! R16   R(13,15)                1.5352         calculate D2E/DX2 analytically  !
 ! R17   R(13,23)                1.5356         calculate D2E/DX2 analytically  !
 ! R18   R(15,16)                1.0958         calculate D2E/DX2 analytically  !
 ! R19   R(15,17)                1.094          calculate D2E/DX2 analytically  !
 ! R20   R(15,18)                1.0938         calculate D2E/DX2 analytically  !
 ! R21   R(19,20)                1.1            calculate D2E/DX2 analytically  !
 ! R22   R(19,21)                1.0935         calculate D2E/DX2 analytically  !
 ! R23   R(19,22)                1.0911         calculate D2E/DX2 analytically  !
 ! R24   R(23,24)                1.0939         calculate D2E/DX2 analytically  !
 ! R25   R(23,25)                1.0962         calculate D2E/DX2 analytically  !
 ! R26   R(23,26)                1.093          calculate D2E/DX2 analytically  !
 ! R27   R(27,28)                1.0978         calculate D2E/DX2 analytically  !
 ! R28   R(27,29)                1.445          calculate D2E/DX2 analytically  !
 ! R29   R(29,30)                1.4238         calculate D2E/DX2 analytically  !
 ! A1    A(2,1,3)              107.7995         calculate D2E/DX2 analytically  !
 ! A2    A(2,1,4)              108.8286         calculate D2E/DX2 analytically  !
 ! A3    A(2,1,5)              111.2456         calculate D2E/DX2 analytically  !
 ! A4    A(3,1,4)              107.2533         calculate D2E/DX2 analytically  !
 ! A5    A(3,1,5)              110.1065         calculate D2E/DX2 analytically  !
 ! A6    A(4,1,5)              111.455          calculate D2E/DX2 analytically  !
 ! A7    A(1,5,6)              105.9904         calculate D2E/DX2 analytically  !
 ! A8    A(1,5,19)             115.2438         calculate D2E/DX2 analytically  !
 ! A9    A(1,5,27)             113.4612         calculate D2E/DX2 analytically  !
 ! A10   A(6,5,19)             111.0939         calculate D2E/DX2 analytically  !
 ! A11   A(6,5,27)              86.851          calculate D2E/DX2 analytically  !
 ! A12   A(19,5,27)            119.6093         calculate D2E/DX2 analytically  !
 ! A13   A(8,7,9)              107.1483         calculate D2E/DX2 analytically  !
 ! A14   A(8,7,10)             109.836          calculate D2E/DX2 analytically  !
 ! A15   A(8,7,27)             108.9657         calculate D2E/DX2 analytically  !
 ! A16   A(9,7,10)             110.257          calculate D2E/DX2 analytically  !
 ! A17   A(9,7,27)             108.28           calculate D2E/DX2 analytically  !
 ! A18   A(10,7,27)            112.2065         calculate D2E/DX2 analytically  !
 ! A19   A(7,10,11)            109.4027         calculate D2E/DX2 analytically  !
 ! A20   A(7,10,12)            108.2732         calculate D2E/DX2 analytically  !
 ! A21   A(7,10,13)            114.8711         calculate D2E/DX2 analytically  !
 ! A22   A(11,10,12)           106.3166         calculate D2E/DX2 analytically  !
 ! A23   A(11,10,13)           108.8552         calculate D2E/DX2 analytically  !
 ! A24   A(12,10,13)           108.7797         calculate D2E/DX2 analytically  !
 ! A25   A(10,13,14)           107.4595         calculate D2E/DX2 analytically  !
 ! A26   A(10,13,15)           110.3199         calculate D2E/DX2 analytically  !
 ! A27   A(10,13,23)           112.7076         calculate D2E/DX2 analytically  !
 ! A28   A(14,13,15)           107.7087         calculate D2E/DX2 analytically  !
 ! A29   A(14,13,23)           107.925          calculate D2E/DX2 analytically  !
 ! A30   A(15,13,23)           110.5177         calculate D2E/DX2 analytically  !
 ! A31   A(13,15,16)           110.8833         calculate D2E/DX2 analytically  !
 ! A32   A(13,15,17)           111.2504         calculate D2E/DX2 analytically  !
 ! A33   A(13,15,18)           111.3445         calculate D2E/DX2 analytically  !
 ! A34   A(16,15,17)           107.6003         calculate D2E/DX2 analytically  !
 ! A35   A(16,15,18)           107.7103         calculate D2E/DX2 analytically  !
 ! A36   A(17,15,18)           107.8826         calculate D2E/DX2 analytically  !
 ! A37   A(5,19,20)            110.7889         calculate D2E/DX2 analytically  !
 ! A38   A(5,19,21)            110.4633         calculate D2E/DX2 analytically  !
 ! A39   A(5,19,22)            112.7418         calculate D2E/DX2 analytically  !
 ! A40   A(20,19,21)           106.8092         calculate D2E/DX2 analytically  !
 ! A41   A(20,19,22)           107.4831         calculate D2E/DX2 analytically  !
 ! A42   A(21,19,22)           108.3201         calculate D2E/DX2 analytically  !
 ! A43   A(13,23,24)           110.8891         calculate D2E/DX2 analytically  !
 ! A44   A(13,23,25)           110.7478         calculate D2E/DX2 analytically  !
 ! A45   A(13,23,26)           112.2783         calculate D2E/DX2 analytically  !
 ! A46   A(24,23,25)           107.5613         calculate D2E/DX2 analytically  !
 ! A47   A(24,23,26)           107.3435         calculate D2E/DX2 analytically  !
 ! A48   A(25,23,26)           107.82           calculate D2E/DX2 analytically  !
 ! A49   A(5,27,7)             116.1322         calculate D2E/DX2 analytically  !
 ! A50   A(5,27,28)            111.1833         calculate D2E/DX2 analytically  !
 ! A51   A(5,27,29)            102.2729         calculate D2E/DX2 analytically  !
 ! A52   A(7,27,28)            109.9299         calculate D2E/DX2 analytically  !
 ! A53   A(7,27,29)            112.3588         calculate D2E/DX2 analytically  !
 ! A54   A(28,27,29)           104.1209         calculate D2E/DX2 analytically  !
 ! A55   A(27,29,30)           103.6462         calculate D2E/DX2 analytically  !
 ! D1    D(2,1,5,6)            -50.5597         calculate D2E/DX2 analytically  !
 ! D2    D(2,1,5,19)          -173.86           calculate D2E/DX2 analytically  !
 ! D3    D(2,1,5,27)            42.9994         calculate D2E/DX2 analytically  !
 ! D4    D(3,1,5,6)           -170.0049         calculate D2E/DX2 analytically  !
 ! D5    D(3,1,5,19)            66.6948         calculate D2E/DX2 analytically  !
 ! D6    D(3,1,5,27)           -76.4458         calculate D2E/DX2 analytically  !
 ! D7    D(4,1,5,6)             71.0984         calculate D2E/DX2 analytically  !
 ! D8    D(4,1,5,19)           -52.2019         calculate D2E/DX2 analytically  !
 ! D9    D(4,1,5,27)           164.6575         calculate D2E/DX2 analytically  !
 ! D10   D(1,5,19,20)          -70.0696         calculate D2E/DX2 analytically  !
 ! D11   D(1,5,19,21)           48.0832         calculate D2E/DX2 analytically  !
 ! D12   D(1,5,19,22)          169.4284         calculate D2E/DX2 analytically  !
 ! D13   D(6,5,19,20)          169.3788         calculate D2E/DX2 analytically  !
 ! D14   D(6,5,19,21)          -72.4685         calculate D2E/DX2 analytically  !
 ! D15   D(6,5,19,22)           48.8767         calculate D2E/DX2 analytically  !
 ! D16   D(27,5,19,20)          70.6651         calculate D2E/DX2 analytically  !
 ! D17   D(27,5,19,21)        -171.1821         calculate D2E/DX2 analytically  !
 ! D18   D(27,5,19,22)         -49.8369         calculate D2E/DX2 analytically  !
 ! D19   D(1,5,27,7)           163.5966         calculate D2E/DX2 analytically  !
 ! D20   D(1,5,27,28)           36.9183         calculate D2E/DX2 analytically  !
 ! D21   D(1,5,27,29)          -73.6959         calculate D2E/DX2 analytically  !
 ! D22   D(6,5,27,7)           -90.3293         calculate D2E/DX2 analytically  !
 ! D23   D(6,5,27,28)          142.9924         calculate D2E/DX2 analytically  !
 ! D24   D(6,5,27,29)           32.3782         calculate D2E/DX2 analytically  !
 ! D25   D(19,5,27,7)           22.2098         calculate D2E/DX2 analytically  !
 ! D26   D(19,5,27,28)        -104.4684         calculate D2E/DX2 analytically  !
 ! D27   D(19,5,27,29)         144.9173         calculate D2E/DX2 analytically  !
 ! D28   D(8,7,10,11)         -176.2169         calculate D2E/DX2 analytically  !
 ! D29   D(8,7,10,12)           68.3169         calculate D2E/DX2 analytically  !
 ! D30   D(8,7,10,13)          -53.4695         calculate D2E/DX2 analytically  !
 ! D31   D(9,7,10,11)          -58.3616         calculate D2E/DX2 analytically  !
 ! D32   D(9,7,10,12)         -173.8278         calculate D2E/DX2 analytically  !
 ! D33   D(9,7,10,13)           64.3858         calculate D2E/DX2 analytically  !
 ! D34   D(27,7,10,11)          62.4212         calculate D2E/DX2 analytically  !
 ! D35   D(27,7,10,12)         -53.0449         calculate D2E/DX2 analytically  !
 ! D36   D(27,7,10,13)        -174.8313         calculate D2E/DX2 analytically  !
 ! D37   D(8,7,27,5)            57.7755         calculate D2E/DX2 analytically  !
 ! D38   D(8,7,27,28)         -174.9222         calculate D2E/DX2 analytically  !
 ! D39   D(8,7,27,29)          -59.4706         calculate D2E/DX2 analytically  !
 ! D40   D(9,7,27,5)           -58.4473         calculate D2E/DX2 analytically  !
 ! D41   D(9,7,27,28)           68.855          calculate D2E/DX2 analytically  !
 ! D42   D(9,7,27,29)         -175.6933         calculate D2E/DX2 analytically  !
 ! D43   D(10,7,27,5)          179.6354         calculate D2E/DX2 analytically  !
 ! D44   D(10,7,27,28)         -53.0624         calculate D2E/DX2 analytically  !
 ! D45   D(10,7,27,29)          62.3893         calculate D2E/DX2 analytically  !
 ! D46   D(7,10,13,14)          55.5067         calculate D2E/DX2 analytically  !
 ! D47   D(7,10,13,15)         172.668          calculate D2E/DX2 analytically  !
 ! D48   D(7,10,13,23)         -63.2677         calculate D2E/DX2 analytically  !
 ! D49   D(11,10,13,14)        178.5477         calculate D2E/DX2 analytically  !
 ! D50   D(11,10,13,15)        -64.2909         calculate D2E/DX2 analytically  !
 ! D51   D(11,10,13,23)         59.7733         calculate D2E/DX2 analytically  !
 ! D52   D(12,10,13,14)        -66.0043         calculate D2E/DX2 analytically  !
 ! D53   D(12,10,13,15)         51.157          calculate D2E/DX2 analytically  !
 ! D54   D(12,10,13,23)        175.2212         calculate D2E/DX2 analytically  !
 ! D55   D(10,13,15,16)         63.0514         calculate D2E/DX2 analytically  !
 ! D56   D(10,13,15,17)       -177.2382         calculate D2E/DX2 analytically  !
 ! D57   D(10,13,15,18)        -56.8602         calculate D2E/DX2 analytically  !
 ! D58   D(14,13,15,16)       -179.9417         calculate D2E/DX2 analytically  !
 ! D59   D(14,13,15,17)        -60.2313         calculate D2E/DX2 analytically  !
 ! D60   D(14,13,15,18)         60.1467         calculate D2E/DX2 analytically  !
 ! D61   D(23,13,15,16)        -62.2663         calculate D2E/DX2 analytically  !
 ! D62   D(23,13,15,17)         57.4441         calculate D2E/DX2 analytically  !
 ! D63   D(23,13,15,18)        177.822          calculate D2E/DX2 analytically  !
 ! D64   D(10,13,23,24)       -179.1818         calculate D2E/DX2 analytically  !
 ! D65   D(10,13,23,25)        -59.8461         calculate D2E/DX2 analytically  !
 ! D66   D(10,13,23,26)         60.741          calculate D2E/DX2 analytically  !
 ! D67   D(14,13,23,24)         62.3157         calculate D2E/DX2 analytically  !
 ! D68   D(14,13,23,25)       -178.3486         calculate D2E/DX2 analytically  !
 ! D69   D(14,13,23,26)        -57.7615         calculate D2E/DX2 analytically  !
 ! D70   D(15,13,23,24)        -55.2267         calculate D2E/DX2 analytically  !
 ! D71   D(15,13,23,25)         64.109          calculate D2E/DX2 analytically  !
 ! D72   D(15,13,23,26)       -175.3039         calculate D2E/DX2 analytically  !
 ! D73   D(5,27,29,30)         -45.3559         calculate D2E/DX2 analytically  !
 ! D74   D(7,27,29,30)          79.8747         calculate D2E/DX2 analytically  !
 ! D75   D(28,27,29,30)       -161.2082         calculate D2E/DX2 analytically  !
 --------------------------------------------------------------------------------
 Trust Radius=3.00D-01 FncErr=1.00D-07 GrdErr=1.00D-06
 Number of steps in this run=    169 maximum allowed number of steps=    180.
 Search for a saddle point of order  1.
 GradGradGradGradGradGradGradGradGradGradGradGradGradGradGradGradGradGrad

 Leave Link  103 at Mon Feb 17 03:59:06 2014, MaxMem= 4026531840 cpu:       0.1
 (Enter /usr/caen/gaussian-09revc/g09/l202.exe)
                          Input orientation:                          
 ---------------------------------------------------------------------
 Center     Atomic      Atomic             Coordinates (Angstroms)
 Number     Number       Type             X           Y           Z
 ---------------------------------------------------------------------
      1          6           0        3.507352    0.115242    0.908346
      2          1           0        3.517195   -0.938992    1.192011
      3          1           0        3.451020    0.711263    1.831185
      4          1           0        4.455822    0.358729    0.422521
      5          6           0        2.330486    0.430767    0.013191
      6          1           0        2.355757   -0.483645   -0.965726
      7          6           0       -0.279859    0.337667   -0.123903
      8          1           0       -0.226122    0.257209   -1.214544
      9          1           0       -0.330868    1.403817    0.118953
     10          6           0       -1.531694   -0.384687    0.390297
     11          1           0       -1.615030   -0.242167    1.477142
     12          1           0       -1.397916   -1.459012    0.230452
     13          6           0       -2.851024    0.054639   -0.271942
     14          1           0       -2.733492   -0.072241   -1.356906
     15          6           0       -4.003344   -0.852388    0.182160
     16          1           0       -4.166805   -0.765134    1.262152
     17          1           0       -4.939280   -0.584249   -0.316790
     18          1           0       -3.793904   -1.902940   -0.038862
     19          6           0        2.308195    1.828665   -0.550620
     20          1           0        2.098245    2.564916    0.239237
     21          1           0        3.283715    2.086507   -0.972055
     22          1           0        1.553731    1.957895   -1.328112
     23          6           0       -3.187710    1.528403   -0.002176
     24          1           0       -4.135734    1.804448   -0.473085
     25          1           0       -3.286589    1.713494    1.073702
     26          1           0       -2.422218    2.205890   -0.389180
     27          6           0        1.003409   -0.230408    0.479681
     28          1           0        0.929056   -0.241004    1.574943
     29          8           0        1.210164   -1.616343    0.126949
     30          8           0        1.743404   -1.551429   -1.191606
 ---------------------------------------------------------------------
                    Distance matrix (angstroms):
                    1          2          3          4          5
     1  C    0.000000
     2  H    1.091775   0.000000
     3  H    1.100021   1.770950   0.000000
     4  H    1.093118   1.776855   1.765854   0.000000
     5  C    1.511910   2.161975   2.153921   2.165593   0.000000
     6  H    2.279689   2.492410   3.232664   2.654637   1.339801
     7  C    3.931664   4.216528   4.228641   4.767148   2.615600
     8  H    4.297167   4.608126   4.796249   4.960936   2.841426
     9  H    4.124985   4.631177   4.208806   4.908845   2.835633
    10  C    5.090215   5.142108   5.301387   6.033577   3.965301
    11  H    5.166243   5.187157   5.167131   6.191005   4.261818
    12  H    5.196101   5.035209   5.548389   6.132481   4.185624
    13  C    6.467279   6.609438   6.676081   7.346070   5.202963
    14  H    6.641886   6.805830   7.001856   7.418782   5.270110
    15  C    7.607510   7.588531   7.793063   8.548805   6.464707
    16  H    7.732589   7.686287   7.780412   8.736003   6.723457
    17  H    8.563635   8.597342   8.757242   9.471205   7.347696
    18  H    7.634042   7.476390   7.925910   8.566563   6.554163
    19  C    2.549976   3.486885   2.868385   2.778492   1.507481
    20  H    2.904168   3.898534   2.792907   3.234041   2.158616
    21  H    2.733461   3.727109   3.126890   2.510756   2.149612
    22  H    3.494818   4.312559   3.890367   3.747557   2.175905
    23  C    6.902893   7.243609   6.935536   7.744165   5.626325
    24  H    7.948492   8.298574   8.003971   8.758256   6.628383
    25  H    6.981360   7.303503   6.853731   7.886974   5.858464
    26  H    6.419827   6.904135   6.454367   7.167866   5.089318
    27  C    2.563778   2.707143   2.950272   3.502785   1.554316
    28  H    2.686796   2.707820   2.707910   3.758435   2.203259
    29  O    2.980946   2.629744   3.652890   3.810849   2.336391
    30  O    3.209222   3.033652   4.144031   3.689352   2.392760
                    6          7          8          9         10
     6  H    0.000000
     7  C    2.886120   0.000000
     8  H    2.697568   1.094924   0.000000
     9  H    3.457889   1.094649   1.761788   0.000000
    10  C    4.118357   1.534043   2.166117   2.171257   0.000000
    11  H    4.668304   2.163847   3.069791   2.490585   1.099313
    12  H    4.058601   2.145617   2.531112   3.057256   1.094359
    13  C    5.280308   2.590928   2.796363   2.885180   1.540195
    14  H    5.120813   2.776443   2.532925   3.182689   2.143516
    15  C    6.472386   3.921001   4.177247   4.310631   2.524108
    16  H    6.898296   4.271495   4.765311   4.552545   2.801550
    17  H    7.324534   4.753666   4.871126   5.037831   3.485891
    18  H    6.379013   4.168461   4.333306   4.790842   2.758054
    19  C    2.349756   3.017149   3.055001   2.755626   4.530894
    20  H    3.288156   3.278397   3.583528   2.695034   4.679683
    21  H    2.732550   4.059170   3.965361   3.836870   5.581305
    22  H    2.595320   2.727143   2.464368   2.439818   4.237979
    23  C    5.975516   3.144562   3.443367   2.862122   2.560535
    24  H    6.900545   4.140187   4.269517   3.871436   3.509810
    25  H    6.389269   3.516757   4.089412   3.121495   2.819408
    26  H    5.513170   2.854878   3.049823   2.296795   2.848106
    27  C    1.995539   1.527678   2.149399   2.140353   2.541366
    28  H    2.923927   2.163888   3.060047   2.532341   2.734835
    29  O    1.946619   2.470071   2.715275   3.390606   3.017302
    30  O    1.251463   2.966861   2.674085   3.841048   3.819682
                   11         12         13         14         15
    11  H    0.000000
    12  H    1.755587   0.000000
    13  C    2.162191   2.157559   0.000000
    14  H    3.051501   2.495316   1.098662   0.000000
    15  C    2.784491   2.675552   1.535170   2.142400   0.000000
    16  H    2.613670   3.035229   2.180998   3.064955   1.095772
    17  H    3.792868   3.688623   2.184262   2.491886   1.093995
    18  H    3.131122   2.451604   2.185284   2.492624   1.093789
    19  C    4.877690   5.015392   5.462817   5.448133   6.896415
    20  H    4.816693   5.330592   5.572976   5.731313   6.993612
    21  H    5.951386   5.994531   6.500282   6.404302   7.941697
    22  H    4.769777   4.776672   4.913221   4.743687   6.407784
    23  C    2.792243   3.490290   1.535614   2.145616   2.523372
    24  H    3.787607   4.317497   2.180085   2.503874   2.739644
    25  H    2.604128   3.787209   2.179971   3.066369   2.809330
    26  H    3.182404   3.855470   2.196702   2.494647   3.489907
    27  C    2.802015   2.708864   3.937365   4.166833   5.054004
    28  H    2.545965   2.950593   4.217510   4.694516   5.161609
    29  O    3.419518   2.614870   4.409597   4.487594   5.269473
    30  O    4.485026   3.449447   4.953181   4.717830   5.949874
                   16         17         18         19         20
    16  H    0.000000
    17  H    1.767058   0.000000
    18  H    1.768133   1.768637   0.000000
    19  C    7.206911   7.642168   7.170940   0.000000
    20  H    7.168434   7.730017   7.399763   1.100008   0.000000
    21  H    8.284551   8.670638   8.177972   1.093494   1.761091
    22  H    6.844625   7.045882   6.720522   1.091059   1.766792
    23  C    2.795973   2.762296   3.484671   5.531358   5.392027
    24  H    3.100768   2.525072   3.748349   6.444441   6.320460
    25  H    2.637023   3.153487   3.817560   5.826946   5.515223
    26  H    3.820663   3.758419   4.345886   4.748175   4.578034
    27  C    5.256359   6.006257   5.106903   2.646463   3.011696
    28  H    5.132285   6.175260   5.260489   3.271631   3.320286
    29  O    5.561029   6.251223   5.015010   3.678702   4.276006
    30  O    6.447461   6.808745   5.666936   3.486386   4.372359
                   21         22         23         24         25
    21  H    0.000000
    22  H    1.770921   0.000000
    23  C    6.567457   4.942047   0.000000
    24  H    7.441556   5.755400   1.093940   0.000000
    25  H    6.891528   5.408987   1.096152   1.766881   0.000000
    26  H    5.736869   4.092831   1.093041   1.761912   1.769072
    27  C    3.560257   2.891304   4.570676   5.608850   4.747178
    28  H    4.177191   3.695011   4.750354   5.833557   4.673646
    29  O    4.383893   3.874328   5.408086   6.374988   5.674940
    30  O    3.956683   3.517096   5.934307   6.807529   6.410318
                   26         27         28         29         30
    26  H    0.000000
    27  C    4.292480   0.000000
    28  H    4.590872   1.097834   0.000000
    29  O    5.298118   1.444986   2.016746   0.000000
    30  O    5.666899   2.255192   3.167676   1.423779   0.000000
 Stoichiometry    C9H19O2(2)
 Framework group  C1[X(C9H19O2)]
 Deg. of freedom    84
 Full point group                 C1      NOp   1
 Largest Abelian subgroup         C1      NOp   1
 Largest concise Abelian subgroup C1      NOp   1
                         Standard orientation:                         
 ---------------------------------------------------------------------
 Center     Atomic      Atomic             Coordinates (Angstroms)
 Number     Number       Type             X           Y           Z
 ---------------------------------------------------------------------
      1          6           0        3.507352    0.115242    0.908346
      2          1           0        3.517195   -0.938992    1.192011
      3          1           0        3.451020    0.711263    1.831185
      4          1           0        4.455822    0.358729    0.422521
      5          6           0        2.330486    0.430767    0.013191
      6          1           0        2.355757   -0.483645   -0.965726
      7          6           0       -0.279859    0.337667   -0.123903
      8          1           0       -0.226122    0.257209   -1.214544
      9          1           0       -0.330868    1.403817    0.118953
     10          6           0       -1.531694   -0.384687    0.390297
     11          1           0       -1.615030   -0.242167    1.477142
     12          1           0       -1.397916   -1.459012    0.230452
     13          6           0       -2.851024    0.054639   -0.271942
     14          1           0       -2.733492   -0.072241   -1.356906
     15          6           0       -4.003344   -0.852388    0.182160
     16          1           0       -4.166805   -0.765134    1.262152
     17          1           0       -4.939280   -0.584249   -0.316790
     18          1           0       -3.793904   -1.902940   -0.038862
     19          6           0        2.308195    1.828665   -0.550620
     20          1           0        2.098245    2.564916    0.239237
     21          1           0        3.283715    2.086507   -0.972055
     22          1           0        1.553731    1.957895   -1.328112
     23          6           0       -3.187710    1.528403   -0.002176
     24          1           0       -4.135734    1.804448   -0.473085
     25          1           0       -3.286589    1.713494    1.073702
     26          1           0       -2.422218    2.205890   -0.389180
     27          6           0        1.003409   -0.230408    0.479681
     28          1           0        0.929056   -0.241004    1.574943
     29          8           0        1.210164   -1.616343    0.126949
     30          8           0        1.743404   -1.551429   -1.191606
 ---------------------------------------------------------------------
 Rotational constants (GHZ):      1.9284413      0.4880000      0.4309133
 Leave Link  202 at Mon Feb 17 03:59:06 2014, MaxMem= 4026531840 cpu:       0.3
 (Enter /usr/caen/gaussian-09revc/g09/l301.exe)
 Standard basis: 6-311G(2d,d,p) (5D, 7F)
 Ernie: Thresh=  0.10000D-02 Tol=  0.10000D-05 Strict=F.
 There are   312 symmetry adapted basis functions of A   symmetry.
 Integral buffers will be    131072 words long.
 Raffenetti 2 integral format.
 Two-electron integral symmetry is turned on.
   312 basis functions,   504 primitive gaussians,   323 cartesian basis functions
    45 alpha electrons       44 beta electrons
       nuclear repulsion energy       667.8663231013 Hartrees.
 IExCor=  402 DFT=T Ex+Corr=B3LYP ExCW=0 ScaHFX=  0.200000
 ScaDFX=  0.800000  0.720000  1.000000  0.810000 ScalE2=  1.000000  1.000000
 IRadAn=      0 IRanWt=     -1 IRanGd=            0 ICorTp=0
 NAtoms=   30 NActive=   30 NUniq=   30 SFac= 1.00D+00 NAtFMM=   60 NAOKFM=F Big=F
 Leave Link  301 at Mon Feb 17 03:59:06 2014, MaxMem= 4026531840 cpu:       0.3
 (Enter /usr/caen/gaussian-09revc/g09/l302.exe)
 NPDir=0 NMtPBC=     1 NCelOv=     1 NCel=       1 NClECP=     1 NCelD=      1
         NCelK=      1 NCelE2=     1 NClLst=     1 CellRange=     0.0.
 One-electron integrals computed using PRISM.
 NBasis=   312 RedAO= T  NBF=   312
 NBsUse=   312 1.00D-06 NBFU=   312
 Precomputing XC quadrature grid using
 IXCGrd= 2 IRadAn=           0 IRanWt=          -1 IRanGd=           0 AccXCQ= 0.00D+00.
 NRdTot=    1911 NPtTot=      243552 NUsed=      257332 NTot=      257364
 NSgBfM=   323   323   323   323   323 NAtAll=    30    30.
 Leave Link  302 at Mon Feb 17 03:59:07 2014, MaxMem= 4026531840 cpu:       6.0
 (Enter /usr/caen/gaussian-09revc/g09/l303.exe)
 DipDrv:  MaxL=1.
 Leave Link  303 at Mon Feb 17 03:59:08 2014, MaxMem= 4026531840 cpu:       1.4
 (Enter /usr/caen/gaussian-09revc/g09/l401.exe)
 Harris functional with IExCor=  402 diagonalized for initial guess.
 ExpMin= 1.03D-01 ExpMax= 8.59D+03 ExpMxC= 1.30D+03 IAcc=1 IRadAn=         1 AccDes= 0.00D+00
 HarFok:  IExCor=  402 AccDes= 0.00D+00 IRadAn=         1 IDoV= 1
 ScaDFX=  1.000000  1.000000  1.000000  1.000000
 FoFCou: FMM=F IPFlag=           0 FMFlag=      100000 FMFlg1=           0
         NFxFlg=           0 DoJE=T BraDBF=F KetDBF=T FulRan=T
         Omega=  0.000000  0.000000  1.000000  0.000000  0.000000 ICntrl=     500 IOpCl=  0
         NMat0=    1 NMatS0=    1 NMatT0=    0 NMatD0=    1 NMtDS0=    0 NMtDT0=    0
         I1Cent=           4 NGrid=           0.
 Petite list used in FoFCou.
 Harris En= -504.888613959615    
 Initial guess orbital symmetries:
 Alpha Orbitals:
       Occupied  (A) (A) (A) (A) (A) (A) (A) (A) (A) (A) (A) (A)
                 (A) (A) (A) (A) (A) (A) (A) (A) (A) (A) (A) (A)
                 (A) (A) (A) (A) (A) (A) (A) (A) (A) (A) (A) (A)
                 (A) (A) (A) (A) (A) (A) (A) (A) (A)
       Virtual   (A) (A) (A) (A) (A) (A) (A) (A) (A) (A) (A) (A)
                 (A) (A) (A) (A) (A) (A) (A) (A) (A) (A) (A) (A)
                 (A) (A) (A) (A) (A) (A) (A) (A) (A) (A) (A) (A)
                 (A) (A) (A) (A) (A) (A) (A) (A) (A) (A) (A) (A)
                 (A) (A) (A) (A) (A) (A) (A) (A) (A) (A) (A) (A)
                 (A) (A) (A) (A) (A) (A) (A) (A) (A) (A) (A) (A)
                 (A) (A) (A) (A) (A) (A) (A) (A) (A) (A) (A) (A)
                 (A) (A) (A) (A) (A) (A) (A) (A) (A) (A) (A) (A)
                 (A) (A) (A) (A) (A) (A) (A) (A) (A) (A) (A) (A)
                 (A) (A) (A) (A) (A) (A) (A) (A) (A) (A) (A) (A)
                 (A) (A) (A) (A) (A) (A) (A) (A) (A) (A) (A) (A)
                 (A) (A) (A) (A) (A) (A) (A) (A) (A) (A) (A) (A)
                 (A) (A) (A) (A) (A) (A) (A) (A) (A) (A) (A) (A)
                 (A) (A) (A) (A) (A) (A) (A) (A) (A) (A) (A) (A)
                 (A) (A) (A) (A) (A) (A) (A) (A) (A) (A) (A) (A)
                 (A) (A) (A) (A) (A) (A) (A) (A) (A) (A) (A) (A)
                 (A) (A) (A) (A) (A) (A) (A) (A) (A) (A) (A) (A)
                 (A) (A) (A) (A) (A) (A) (A) (A) (A) (A) (A) (A)
                 (A) (A) (A) (A) (A) (A) (A) (A) (A) (A) (A) (A)
                 (A) (A) (A) (A) (A) (A) (A) (A) (A) (A) (A) (A)
                 (A) (A) (A) (A) (A) (A) (A) (A) (A) (A) (A) (A)
                 (A) (A) (A) (A) (A) (A) (A) (A) (A) (A) (A) (A)
                 (A) (A) (A)
 Beta  Orbitals:
       Occupied  (A) (A) (A) (A) (A) (A) (A) (A) (A) (A) (A) (A)
                 (A) (A) (A) (A) (A) (A) (A) (A) (A) (A) (A) (A)
                 (A) (A) (A) (A) (A) (A) (A) (A) (A) (A) (A) (A)
                 (A) (A) (A) (A) (A) (A) (A) (A)
       Virtual   (A) (A) (A) (A) (A) (A) (A) (A) (A) (A) (A) (A)
                 (A) (A) (A) (A) (A) (A) (A) (A) (A) (A) (A) (A)
                 (A) (A) (A) (A) (A) (A) (A) (A) (A) (A) (A) (A)
                 (A) (A) (A) (A) (A) (A) (A) (A) (A) (A) (A) (A)
                 (A) (A) (A) (A) (A) (A) (A) (A) (A) (A) (A) (A)
                 (A) (A) (A) (A) (A) (A) (A) (A) (A) (A) (A) (A)
                 (A) (A) (A) (A) (A) (A) (A) (A) (A) (A) (A) (A)
                 (A) (A) (A) (A) (A) (A) (A) (A) (A) (A) (A) (A)
                 (A) (A) (A) (A) (A) (A) (A) (A) (A) (A) (A) (A)
                 (A) (A) (A) (A) (A) (A) (A) (A) (A) (A) (A) (A)
                 (A) (A) (A) (A) (A) (A) (A) (A) (A) (A) (A) (A)
                 (A) (A) (A) (A) (A) (A) (A) (A) (A) (A) (A) (A)
                 (A) (A) (A) (A) (A) (A) (A) (A) (A) (A) (A) (A)
                 (A) (A) (A) (A) (A) (A) (A) (A) (A) (A) (A) (A)
                 (A) (A) (A) (A) (A) (A) (A) (A) (A) (A) (A) (A)
                 (A) (A) (A) (A) (A) (A) (A) (A) (A) (A) (A) (A)
                 (A) (A) (A) (A) (A) (A) (A) (A) (A) (A) (A) (A)
                 (A) (A) (A) (A) (A) (A) (A) (A) (A) (A) (A) (A)
                 (A) (A) (A) (A) (A) (A) (A) (A) (A) (A) (A) (A)
                 (A) (A) (A) (A) (A) (A) (A) (A) (A) (A) (A) (A)
                 (A) (A) (A) (A) (A) (A) (A) (A) (A) (A) (A) (A)
                 (A) (A) (A) (A) (A) (A) (A) (A) (A) (A) (A) (A)
                 (A) (A) (A) (A)
 The electronic state of the initial guess is 2-A.
 Initial guess <Sx>= 0.0000 <Sy>= 0.0000 <Sz>= 0.5000 <S**2>= 0.7500 S= 0.5000
 Leave Link  401 at Mon Feb 17 03:59:10 2014, MaxMem= 4026531840 cpu:      11.7
 (Enter /usr/caen/gaussian-09revc/g09/l502.exe)
 UHF open shell SCF:
 Requested convergence on RMS density matrix=1.00D-08 within 128 cycles.
 Requested convergence on MAX density matrix=1.00D-06.
 Requested convergence on             energy=1.00D-06.
 No special actions if energy rises.
 Using DIIS extrapolation, IDIIS=  1040.
 Integral symmetry usage will be decided dynamically.
       257049 words used for storage of precomputed grid.
 Keep R1 and R2 ints in memory in canonical form, NReq=2755661780.
 IEnd=      593207 IEndB=      593207 NGot=  4026531840 MDV=  1287997296
 LenX=  1287997296 LenY=  1287892526
 Symmetry not used in FoFDir.
 MinBra= 0 MaxBra= 2 Meth= 1.
 IRaf=       0 NMat=   1 IRICut=       1 DoRegI=T DoRafI=F ISym2E= 0 JSym2E=0.
 Integral accuracy reduced to 1.0D-05 until final iterations.

 Cycle   1  Pass 0  IDiag  1:
 E= -504.438784068988    
 DIIS: error= 3.74D-02 at cycle   1 NSaved=   1.
 NSaved= 1 IEnMin= 1 EnMin= -504.438784068988     IErMin= 1 ErrMin= 3.74D-02
 ErrMax= 3.74D-02 EMaxC= 1.00D-01 BMatC= 1.54D+00 BMatP= 1.54D+00
 IDIUse=3 WtCom= 6.26D-01 WtEn= 3.74D-01
 Coeff-Com:  0.100D+01
 Coeff-En:   0.100D+01
 Coeff:      0.100D+01
 Gap=     0.223 Goal=   None    Shift=    0.000
 Gap=     0.118 Goal=   None    Shift=    0.000
 GapD=    0.118 DampG=1.000 DampE=0.500 DampFc=0.5000 IDamp=-1.
 Damping current iteration by 5.00D-01
 RMSDP=3.28D-03 MaxDP=1.21D-01              OVMax= 2.95D-01

 Cycle   2  Pass 0  IDiag  1:
 E= -504.595579210813     Delta-E=       -0.156795141825 Rises=F Damp=T
 DIIS: error= 5.95D-03 at cycle   2 NSaved=   2.
 NSaved= 2 IEnMin= 2 EnMin= -504.595579210813     IErMin= 2 ErrMin= 5.95D-03
 ErrMax= 5.95D-03 EMaxC= 1.00D-01 BMatC= 1.11D-01 BMatP= 1.54D+00
 IDIUse=3 WtCom= 9.40D-01 WtEn= 5.95D-02
 Coeff-Com:  0.874D-01 0.913D+00
 Coeff-En:   0.180D+00 0.820D+00
 Coeff:      0.929D-01 0.907D+00
 Gap=     0.305 Goal=   None    Shift=    0.000
 Gap=     0.192 Goal=   None    Shift=    0.000
 RMSDP=9.53D-04 MaxDP=3.30D-02 DE=-1.57D-01 OVMax= 2.55D-01

 Cycle   3  Pass 0  IDiag  1:
 E= -504.797749716258     Delta-E=       -0.202170505445 Rises=F Damp=F
 DIIS: error= 1.03D-02 at cycle   3 NSaved=   3.
 NSaved= 3 IEnMin= 3 EnMin= -504.797749716258     IErMin= 2 ErrMin= 5.95D-03
 ErrMax= 1.03D-02 EMaxC= 1.00D-01 BMatC= 1.07D-01 BMatP= 1.11D-01
 IDIUse=3 WtCom= 8.97D-01 WtEn= 1.03D-01
 Coeff-Com:  0.210D-02 0.494D+00 0.504D+00
 Coeff-En:   0.000D+00 0.000D+00 0.100D+01
 Coeff:      0.188D-02 0.443D+00 0.555D+00
 Gap=     0.297 Goal=   None    Shift=    0.000
 Gap=     0.109 Goal=   None    Shift=    0.000
 RMSDP=7.32D-04 MaxDP=3.19D-02 DE=-2.02D-01 OVMax= 1.93D-01

 Cycle   4  Pass 0  IDiag  1:
 E= -504.811119425786     Delta-E=       -0.013369709528 Rises=F Damp=F
 DIIS: error= 4.98D-03 at cycle   4 NSaved=   4.
 NSaved= 4 IEnMin= 4 EnMin= -504.811119425786     IErMin= 4 ErrMin= 4.98D-03
 ErrMax= 4.98D-03 EMaxC= 1.00D-01 BMatC= 5.32D-02 BMatP= 1.07D-01
 IDIUse=3 WtCom= 9.50D-01 WtEn= 4.98D-02
 Coeff-Com: -0.147D-01 0.117D+00 0.414D+00 0.484D+00
 Coeff-En:   0.000D+00 0.000D+00 0.338D+00 0.662D+00
 Coeff:     -0.140D-01 0.111D+00 0.410D+00 0.492D+00
 Gap=     0.267 Goal=   None    Shift=    0.000
 Gap=     0.106 Goal=   None    Shift=    0.000
 RMSDP=2.63D-04 MaxDP=1.21D-02 DE=-1.34D-02 OVMax= 3.81D-02

 Cycle   5  Pass 0  IDiag  1:
 E= -504.821368686976     Delta-E=       -0.010249261190 Rises=F Damp=F
 DIIS: error= 9.34D-04 at cycle   5 NSaved=   5.
 NSaved= 5 IEnMin= 5 EnMin= -504.821368686976     IErMin= 5 ErrMin= 9.34D-04
 ErrMax= 9.34D-04 EMaxC= 1.00D-01 BMatC= 1.32D-03 BMatP= 5.32D-02
 IDIUse=3 WtCom= 9.91D-01 WtEn= 9.34D-03
 Coeff-Com: -0.571D-02 0.215D-01 0.175D+00 0.208D+00 0.601D+00
 Coeff-En:   0.000D+00 0.000D+00 0.000D+00 0.000D+00 0.100D+01
 Coeff:     -0.565D-02 0.213D-01 0.173D+00 0.206D+00 0.605D+00
 Gap=     0.262 Goal=   None    Shift=    0.000
 Gap=     0.108 Goal=   None    Shift=    0.000
 RMSDP=7.73D-05 MaxDP=4.18D-03 DE=-1.02D-02 OVMax= 1.85D-02

 Cycle   6  Pass 0  IDiag  1:
 E= -504.821706125820     Delta-E=       -0.000337438844 Rises=F Damp=F
 DIIS: error= 9.59D-04 at cycle   6 NSaved=   6.
 NSaved= 6 IEnMin= 6 EnMin= -504.821706125820     IErMin= 5 ErrMin= 9.34D-04
 ErrMax= 9.59D-04 EMaxC= 1.00D-01 BMatC= 8.11D-04 BMatP= 1.32D-03
 IDIUse=3 WtCom= 9.91D-01 WtEn= 9.34D-03
 Coeff-Com:  0.144D-03-0.999D-02 0.381D-01 0.180D-01 0.417D+00 0.537D+00
 Coeff-En:   0.000D+00 0.000D+00 0.000D+00 0.000D+00 0.143D-01 0.986D+00
 Coeff:      0.143D-03-0.989D-02 0.377D-01 0.178D-01 0.413D+00 0.541D+00
 Gap=     0.263 Goal=   None    Shift=    0.000
 Gap=     0.110 Goal=   None    Shift=    0.000
 RMSDP=5.37D-05 MaxDP=2.76D-03 DE=-3.37D-04 OVMax= 1.83D-02

 Cycle   7  Pass 0  IDiag  1:
 E= -504.821923112446     Delta-E=       -0.000216986626 Rises=F Damp=F
 DIIS: error= 3.61D-04 at cycle   7 NSaved=   7.
 NSaved= 7 IEnMin= 7 EnMin= -504.821923112446     IErMin= 7 ErrMin= 3.61D-04
 ErrMax= 3.61D-04 EMaxC= 1.00D-01 BMatC= 2.03D-04 BMatP= 8.11D-04
 IDIUse=3 WtCom= 9.96D-01 WtEn= 3.61D-03
 Coeff-Com:  0.202D-02-0.107D-01-0.149D-01-0.561D-01 0.109D+00 0.344D+00
 Coeff-Com:  0.627D+00
 Coeff-En:   0.000D+00 0.000D+00 0.000D+00 0.000D+00 0.000D+00 0.000D+00
 Coeff-En:   0.100D+01
 Coeff:      0.201D-02-0.107D-01-0.148D-01-0.559D-01 0.108D+00 0.343D+00
 Coeff:      0.628D+00
 Gap=     0.264 Goal=   None    Shift=    0.000
 Gap=     0.110 Goal=   None    Shift=    0.000
 RMSDP=4.12D-05 MaxDP=2.58D-03 DE=-2.17D-04 OVMax= 1.44D-02

 Cycle   8  Pass 0  IDiag  1:
 E= -504.822033412405     Delta-E=       -0.000110299959 Rises=F Damp=F
 DIIS: error= 2.26D-04 at cycle   8 NSaved=   8.
 NSaved= 8 IEnMin= 8 EnMin= -504.822033412405     IErMin= 8 ErrMin= 2.26D-04
 ErrMax= 2.26D-04 EMaxC= 1.00D-01 BMatC= 6.17D-05 BMatP= 2.03D-04
 IDIUse=3 WtCom= 9.98D-01 WtEn= 2.26D-03
 Coeff-Com:  0.147D-02 0.223D-03-0.230D-01-0.538D-01-0.164D+00-0.111D+00
 Coeff-Com:  0.328D+00 0.102D+01
 Coeff-En:   0.000D+00 0.000D+00 0.000D+00 0.000D+00 0.000D+00 0.000D+00
 Coeff-En:   0.000D+00 0.100D+01
 Coeff:      0.147D-02 0.222D-03-0.229D-01-0.537D-01-0.163D+00-0.111D+00
 Coeff:      0.327D+00 0.102D+01
 Gap=     0.264 Goal=   None    Shift=    0.000
 Gap=     0.111 Goal=   None    Shift=    0.000
 RMSDP=5.53D-05 MaxDP=3.18D-03 DE=-1.10D-04 OVMax= 2.25D-02

 Cycle   9  Pass 0  IDiag  1:
 E= -504.822113894017     Delta-E=       -0.000080481611 Rises=F Damp=F
 DIIS: error= 1.22D-04 at cycle   9 NSaved=   9.
 NSaved= 9 IEnMin= 9 EnMin= -504.822113894017     IErMin= 9 ErrMin= 1.22D-04
 ErrMax= 1.22D-04 EMaxC= 1.00D-01 BMatC= 1.01D-05 BMatP= 6.17D-05
 IDIUse=3 WtCom= 9.99D-01 WtEn= 1.22D-03
 Coeff-Com: -0.429D-03 0.253D-02 0.732D-02 0.789D-02-0.151D-01-0.586D-01
 Coeff-Com: -0.180D+00 0.144D-01 0.122D+01
 Coeff-En:   0.000D+00 0.000D+00 0.000D+00 0.000D+00 0.000D+00 0.000D+00
 Coeff-En:   0.000D+00 0.000D+00 0.100D+01
 Coeff:     -0.428D-03 0.253D-02 0.731D-02 0.788D-02-0.150D-01-0.585D-01
 Coeff:     -0.180D+00 0.144D-01 0.122D+01
 Gap=     0.264 Goal=   None    Shift=    0.000
 Gap=     0.111 Goal=   None    Shift=    0.000
 RMSDP=3.13D-05 MaxDP=1.89D-03 DE=-8.05D-05 OVMax= 1.28D-02

 Cycle  10  Pass 0  IDiag  1:
 E= -504.822134506707     Delta-E=       -0.000020612690 Rises=F Damp=F
 DIIS: error= 6.24D-05 at cycle  10 NSaved=  10.
 NSaved=10 IEnMin=10 EnMin= -504.822134506707     IErMin=10 ErrMin= 6.24D-05
 ErrMax= 6.24D-05 EMaxC= 1.00D-01 BMatC= 3.12D-06 BMatP= 1.01D-05
 IDIUse=1 WtCom= 1.00D+00 WtEn= 0.00D+00
 Coeff-Com: -0.469D-03 0.917D-03 0.996D-02 0.154D-01 0.405D-01 0.172D-01
 Coeff-Com: -0.178D+00-0.269D+00 0.442D+00 0.922D+00
 Coeff:     -0.469D-03 0.917D-03 0.996D-02 0.154D-01 0.405D-01 0.172D-01
 Coeff:     -0.178D+00-0.269D+00 0.442D+00 0.922D+00
 Gap=     0.264 Goal=   None    Shift=    0.000
 Gap=     0.111 Goal=   None    Shift=    0.000
 RMSDP=1.57D-05 MaxDP=9.42D-04 DE=-2.06D-05 OVMax= 6.34D-03

 Cycle  11  Pass 0  IDiag  1:
 E= -504.822139046194     Delta-E=       -0.000004539487 Rises=F Damp=F
 DIIS: error= 2.11D-05 at cycle  11 NSaved=  11.
 NSaved=11 IEnMin=11 EnMin= -504.822139046194     IErMin=11 ErrMin= 2.11D-05
 ErrMax= 2.11D-05 EMaxC= 1.00D-01 BMatC= 7.26D-07 BMatP= 3.12D-06
 IDIUse=1 WtCom= 1.00D+00 WtEn= 0.00D+00
 Coeff-Com: -0.168D-04-0.279D-03 0.268D-02 0.332D-02 0.211D-01 0.269D-01
 Coeff-Com: -0.355D-01-0.104D+00-0.140D+00 0.398D+00 0.829D+00
 Coeff:     -0.168D-04-0.279D-03 0.268D-02 0.332D-02 0.211D-01 0.269D-01
 Coeff:     -0.355D-01-0.104D+00-0.140D+00 0.398D+00 0.829D+00
 Gap=     0.264 Goal=   None    Shift=    0.000
 Gap=     0.111 Goal=   None    Shift=    0.000
 RMSDP=5.81D-06 MaxDP=3.46D-04 DE=-4.54D-06 OVMax= 2.31D-03

 Initial convergence to 1.0D-05 achieved.  Increase integral accuracy.
 Cycle  12  Pass 1  IDiag  1:
 E= -504.822143870744     Delta-E=       -0.000004824550 Rises=F Damp=F
 DIIS: error= 9.36D-06 at cycle   1 NSaved=   1.
 NSaved= 1 IEnMin= 1 EnMin= -504.822143870744     IErMin= 1 ErrMin= 9.36D-06
 ErrMax= 9.36D-06 EMaxC= 1.00D-01 BMatC= 3.89D-07 BMatP= 3.89D-07
 IDIUse=1 WtCom= 1.00D+00 WtEn= 0.00D+00
 Coeff-Com:  0.100D+01
 Coeff:      0.100D+01
 Gap=     0.264 Goal=   None    Shift=    0.000
 Gap=     0.111 Goal=   None    Shift=    0.000
 RMSDP=5.81D-06 MaxDP=3.46D-04 DE=-4.82D-06 OVMax= 1.77D-04

 Cycle  13  Pass 1  IDiag  1:
 E= -504.822143968251     Delta-E=       -0.000000097507 Rises=F Damp=F
 DIIS: error= 1.02D-05 at cycle   2 NSaved=   2.
 NSaved= 2 IEnMin= 2 EnMin= -504.822143968251     IErMin= 1 ErrMin= 9.36D-06
 ErrMax= 1.02D-05 EMaxC= 1.00D-01 BMatC= 1.75D-07 BMatP= 3.89D-07
 IDIUse=1 WtCom= 1.00D+00 WtEn= 0.00D+00
 Coeff-Com:  0.359D+00 0.641D+00
 Coeff:      0.359D+00 0.641D+00
 Gap=     0.264 Goal=   None    Shift=    0.000
 Gap=     0.111 Goal=   None    Shift=    0.000
 RMSDP=1.11D-06 MaxDP=4.97D-05 DE=-9.75D-08 OVMax= 2.96D-04

 Cycle  14  Pass 1  IDiag  1:
 E= -504.822143995986     Delta-E=       -0.000000027735 Rises=F Damp=F
 DIIS: error= 9.75D-06 at cycle   3 NSaved=   3.
 NSaved= 3 IEnMin= 3 EnMin= -504.822143995986     IErMin= 1 ErrMin= 9.36D-06
 ErrMax= 9.75D-06 EMaxC= 1.00D-01 BMatC= 1.27D-07 BMatP= 1.75D-07
 IDIUse=1 WtCom= 1.00D+00 WtEn= 0.00D+00
 Coeff-Com:  0.703D-02 0.456D+00 0.537D+00
 Coeff:      0.703D-02 0.456D+00 0.537D+00
 Gap=     0.264 Goal=   None    Shift=    0.000
 Gap=     0.111 Goal=   None    Shift=    0.000
 RMSDP=5.60D-07 MaxDP=2.73D-05 DE=-2.77D-08 OVMax= 6.74D-05

 Cycle  15  Pass 1  IDiag  1:
 E= -504.822144027564     Delta-E=       -0.000000031578 Rises=F Damp=F
 DIIS: error= 3.31D-06 at cycle   4 NSaved=   4.
 NSaved= 4 IEnMin= 4 EnMin= -504.822144027564     IErMin= 4 ErrMin= 3.31D-06
 ErrMax= 3.31D-06 EMaxC= 1.00D-01 BMatC= 1.09D-08 BMatP= 1.27D-07
 IDIUse=1 WtCom= 1.00D+00 WtEn= 0.00D+00
 Coeff-Com: -0.277D-01 0.232D+00 0.284D+00 0.512D+00
 Coeff:     -0.277D-01 0.232D+00 0.284D+00 0.512D+00
 Gap=     0.264 Goal=   None    Shift=    0.000
 Gap=     0.111 Goal=   None    Shift=    0.000
 RMSDP=2.45D-07 MaxDP=1.59D-05 DE=-3.16D-08 OVMax= 8.49D-05

 Cycle  16  Pass 1  IDiag  1:
 E= -504.822144032140     Delta-E=       -0.000000004576 Rises=F Damp=F
 DIIS: error= 2.29D-06 at cycle   5 NSaved=   5.
 NSaved= 5 IEnMin= 5 EnMin= -504.822144032140     IErMin= 5 ErrMin= 2.29D-06
 ErrMax= 2.29D-06 EMaxC= 1.00D-01 BMatC= 3.60D-09 BMatP= 1.09D-08
 IDIUse=1 WtCom= 1.00D+00 WtEn= 0.00D+00
 Coeff-Com: -0.991D-02-0.122D-01-0.880D-01 0.253D+00 0.857D+00
 Coeff:     -0.991D-02-0.122D-01-0.880D-01 0.253D+00 0.857D+00
 Gap=     0.264 Goal=   None    Shift=    0.000
 Gap=     0.111 Goal=   None    Shift=    0.000
 RMSDP=2.91D-07 MaxDP=1.79D-05 DE=-4.58D-09 OVMax= 1.17D-04

 Cycle  17  Pass 1  IDiag  1:
 E= -504.822144035639     Delta-E=       -0.000000003500 Rises=F Damp=F
 DIIS: error= 1.32D-06 at cycle   6 NSaved=   6.
 NSaved= 6 IEnMin= 6 EnMin= -504.822144035639     IErMin= 6 ErrMin= 1.32D-06
 ErrMax= 1.32D-06 EMaxC= 1.00D-01 BMatC= 2.41D-09 BMatP= 3.60D-09
 IDIUse=1 WtCom= 1.00D+00 WtEn= 0.00D+00
 Coeff-Com:  0.946D-02-0.162D+00-0.306D+00-0.713D-01 0.794D+00 0.736D+00
 Coeff:      0.946D-02-0.162D+00-0.306D+00-0.713D-01 0.794D+00 0.736D+00
 Gap=     0.264 Goal=   None    Shift=    0.000
 Gap=     0.111 Goal=   None    Shift=    0.000
 RMSDP=3.19D-07 MaxDP=1.89D-05 DE=-3.50D-09 OVMax= 1.26D-04

 Cycle  18  Pass 1  IDiag  1:
 E= -504.822144038093     Delta-E=       -0.000000002454 Rises=F Damp=F
 DIIS: error= 6.17D-07 at cycle   7 NSaved=   7.
 NSaved= 7 IEnMin= 7 EnMin= -504.822144038093     IErMin= 7 ErrMin= 6.17D-07
 ErrMax= 6.17D-07 EMaxC= 1.00D-01 BMatC= 4.29D-10 BMatP= 2.41D-09
 IDIUse=1 WtCom= 1.00D+00 WtEn= 0.00D+00
 Coeff-Com:  0.998D-02-0.986D-01-0.181D+00-0.134D+00 0.228D+00 0.454D+00
 Coeff-Com:  0.723D+00
 Coeff:      0.998D-02-0.986D-01-0.181D+00-0.134D+00 0.228D+00 0.454D+00
 Coeff:      0.723D+00
 Gap=     0.264 Goal=   None    Shift=    0.000
 Gap=     0.111 Goal=   None    Shift=    0.000
 RMSDP=1.79D-07 MaxDP=1.07D-05 DE=-2.45D-09 OVMax= 7.46D-05

 Cycle  19  Pass 1  IDiag  1:
 E= -504.822144038656     Delta-E=       -0.000000000563 Rises=F Damp=F
 DIIS: error= 2.41D-07 at cycle   8 NSaved=   8.
 NSaved= 8 IEnMin= 8 EnMin= -504.822144038656     IErMin= 8 ErrMin= 2.41D-07
 ErrMax= 2.41D-07 EMaxC= 1.00D-01 BMatC= 6.81D-11 BMatP= 4.29D-10
 IDIUse=1 WtCom= 1.00D+00 WtEn= 0.00D+00
 Coeff-Com:  0.649D-03 0.740D-02 0.825D-02-0.140D-01-0.735D-01-0.833D-01
 Coeff-Com:  0.230D+00 0.925D+00
 Coeff:      0.649D-03 0.740D-02 0.825D-02-0.140D-01-0.735D-01-0.833D-01
 Coeff:      0.230D+00 0.925D+00
 Gap=     0.264 Goal=   None    Shift=    0.000
 Gap=     0.111 Goal=   None    Shift=    0.000
 RMSDP=6.14D-08 MaxDP=3.67D-06 DE=-5.63D-10 OVMax= 2.47D-05

 Cycle  20  Pass 1  IDiag  1:
 E= -504.822144038733     Delta-E=       -0.000000000077 Rises=F Damp=F
 DIIS: error= 1.38D-07 at cycle   9 NSaved=   9.
 NSaved= 9 IEnMin= 9 EnMin= -504.822144038733     IErMin= 9 ErrMin= 1.38D-07
 ErrMax= 1.38D-07 EMaxC= 1.00D-01 BMatC= 1.09D-11 BMatP= 6.81D-11
 IDIUse=1 WtCom= 1.00D+00 WtEn= 0.00D+00
 Coeff-Com: -0.174D-02 0.226D-01 0.380D-01 0.225D-01-0.559D-01-0.137D+00
 Coeff-Com: -0.606D-01 0.229D+00 0.944D+00
 Coeff:     -0.174D-02 0.226D-01 0.380D-01 0.225D-01-0.559D-01-0.137D+00
 Coeff:     -0.606D-01 0.229D+00 0.944D+00
 Gap=     0.264 Goal=   None    Shift=    0.000
 Gap=     0.111 Goal=   None    Shift=    0.000
 RMSDP=2.26D-08 MaxDP=1.36D-06 DE=-7.73D-11 OVMax= 8.73D-06

 Cycle  21  Pass 1  IDiag  1:
 E= -504.822144038743     Delta-E=       -0.000000000010 Rises=F Damp=F
 DIIS: error= 4.62D-08 at cycle  10 NSaved=  10.
 NSaved=10 IEnMin=10 EnMin= -504.822144038743     IErMin=10 ErrMin= 4.62D-08
 ErrMax= 4.62D-08 EMaxC= 1.00D-01 BMatC= 2.48D-12 BMatP= 1.09D-11
 IDIUse=1 WtCom= 1.00D+00 WtEn= 0.00D+00
 Coeff-Com: -0.953D-03 0.867D-02 0.150D-01 0.135D-01-0.735D-02-0.441D-01
 Coeff-Com: -0.763D-01-0.118D+00 0.410D+00 0.800D+00
 Coeff:     -0.953D-03 0.867D-02 0.150D-01 0.135D-01-0.735D-02-0.441D-01
 Coeff:     -0.763D-01-0.118D+00 0.410D+00 0.800D+00
 Gap=     0.264 Goal=   None    Shift=    0.000
 Gap=     0.111 Goal=   None    Shift=    0.000
 RMSDP=7.79D-09 MaxDP=4.41D-07 DE=-9.55D-12 OVMax= 2.89D-06

 SCF Done:  E(UB3LYP) =  -504.822144039     A.U. after   21 cycles
             Convg  =    0.7785D-08             -V/T =  2.0043
 <Sx>= 0.0000 <Sy>= 0.0000 <Sz>= 0.5000 <S**2>= 0.7581 S= 0.5040
 <L.S>= 0.000000000000E+00
 KE= 5.026809544055D+02 PE=-2.511738414142D+03 EE= 8.363689925964D+02
 Annihilation of the first spin contaminant:
 S**2 before annihilation     0.7581,   after     0.7500
 Leave Link  502 at Mon Feb 17 04:01:15 2014, MaxMem= 4026531840 cpu:     965.9
 (Enter /usr/caen/gaussian-09revc/g09/l801.exe)
 Range of M.O.s used for correlation:     1   312
 NBasis=   312 NAE=    45 NBE=    44 NFC=     0 NFV=     0
 NROrb=    312 NOA=    45 NOB=    44 NVA=   267 NVB=   268
 Leave Link  801 at Mon Feb 17 04:01:15 2014, MaxMem= 4026531840 cpu:       0.3
 (Enter /usr/caen/gaussian-09revc/g09/l1101.exe)
 Using compressed storage, NAtomX=    30.
 Will process  31 centers per pass.
 Leave Link 1101 at Mon Feb 17 04:01:16 2014, MaxMem= 4026531840 cpu:       3.9
 (Enter /usr/caen/gaussian-09revc/g09/l1102.exe)
 Symmetrizing basis deriv contribution to polar:
 IMax=3 JMax=2 DiffMx= 0.00D+00
 Leave Link 1102 at Mon Feb 17 04:01:16 2014, MaxMem= 4026531840 cpu:       0.3
 (Enter /usr/caen/gaussian-09revc/g09/l1110.exe)
 Forming Gx(P) for the SCF density, NAtomX=    30.
 Integral derivatives from FoFDir/FoFCou, PRISM(SPDF).
 Do as many integral derivatives as possible in FoFDir.
 G2DrvN: MDV=    4026531496.
 G2DrvN: will do    31 centers at a time, making    1 passes doing MaxLOS=2.
 Calling FoFCou, ICntrl=  3107 FMM=F I1Cent=   0 AccDes= 0.00D+00.
 FoFCou: FMM=F IPFlag=           0 FMFlag=      100000 FMFlg1=           0
         NFxFlg=           0 DoJE=F BraDBF=F KetDBF=F FulRan=T
         Omega=  0.000000  0.000000  1.000000  0.000000  0.000000 ICntrl=    3107 IOpCl=  1
         NMat0=    1 NMatS0=    1 NMatT0=    0 NMatD0=    1 NMtDS0=    0 NMtDT0=    0
         I1Cent=           0 NGrid=           0.
 Symmetry not used in FoFCou.
 FoFDir/FoFCou used for L=0 through L=2.
 End of G2Drv Frequency-dependent properties file   721 does not exist.
 End of G2Drv Frequency-dependent properties file   722 does not exist.
 Leave Link 1110 at Mon Feb 17 04:03:35 2014, MaxMem= 4026531840 cpu:    1111.7
 (Enter /usr/caen/gaussian-09revc/g09/l1002.exe)
 Minotr:  UHF open shell wavefunction.
          IDoAtm=111111111111111111111111111111
          Direct CPHF calculation.
          Differentiating once with respect to nuclear coordinates.
          Requested convergence is 1.0D-06 RMS, and 1.0D-05 maximum.
          Secondary convergence is 1.0D-12 RMS, and 1.0D-12 maximum.
          NewPWx=T KeepS1=F KeepF1=F KeepIn=T MapXYZ=F SortEE=F KeepMc=T.
          MDV=    4026531536 using IRadAn=       2.
 Generate precomputed XC quadrature information.
          Keep R1 and R2 ints in memory in canonical form, NReq=2738891878.
 Symmetry not used in FoFDir.
 MinBra= 0 MaxBra= 2 Meth= 1.
 IRaf=       0 NMat=   1 IRICut=       1 DoRegI=T DoRafI=F ISym2E= 0 JSym2E=0.
          Solving linear equations simultaneously, MaxMat=       0.
          There are    93 degrees of freedom in the 1st order CPHF.  IDoFFX=5.
     87 vectors produced by pass  0 Test12= 2.56D-10 1.08D-07 XBig12= 3.25D-01 3.13D-01.
 AX will form    87 AO Fock derivatives at one time.
     87 vectors produced by pass  1 Test12= 2.56D-10 1.08D-07 XBig12= 3.34D-02 3.03D-02.
     87 vectors produced by pass  2 Test12= 2.56D-10 1.08D-07 XBig12= 2.35D-04 2.33D-03.
     87 vectors produced by pass  3 Test12= 2.56D-10 1.08D-07 XBig12= 1.87D-06 1.67D-04.
     64 vectors produced by pass  4 Test12= 2.56D-10 1.08D-07 XBig12= 9.35D-09 8.94D-06.
     13 vectors produced by pass  5 Test12= 2.56D-10 1.08D-07 XBig12= 3.68D-11 5.22D-07.
 Inverted reduced A of dimension   425 with in-core refinement.
 End of Minotr Frequency-dependent properties file   721 does not exist.
 End of Minotr Frequency-dependent properties file   722 does not exist.
 Leave Link 1002 at Mon Feb 17 04:07:15 2014, MaxMem= 4026531840 cpu:    1733.2
 (Enter /usr/caen/gaussian-09revc/g09/l601.exe)
 Copying SCF densities to generalized density rwf, IOpCl= 1 IROHF=0.

 **********************************************************************

            Population analysis using the SCF density.

 **********************************************************************

 Orbital symmetries:
 Alpha Orbitals:
       Occupied  (A) (A) (A) (A) (A) (A) (A) (A) (A) (A) (A) (A)
                 (A) (A) (A) (A) (A) (A) (A) (A) (A) (A) (A) (A)
                 (A) (A) (A) (A) (A) (A) (A) (A) (A) (A) (A) (A)
                 (A) (A) (A) (A) (A) (A) (A) (A) (A)
       Virtual   (A) (A) (A) (A) (A) (A) (A) (A) (A) (A) (A) (A)
                 (A) (A) (A) (A) (A) (A) (A) (A) (A) (A) (A) (A)
                 (A) (A) (A) (A) (A) (A) (A) (A) (A) (A) (A) (A)
                 (A) (A) (A) (A) (A) (A) (A) (A) (A) (A) (A) (A)
                 (A) (A) (A) (A) (A) (A) (A) (A) (A) (A) (A) (A)
                 (A) (A) (A) (A) (A) (A) (A) (A) (A) (A) (A) (A)
                 (A) (A) (A) (A) (A) (A) (A) (A) (A) (A) (A) (A)
                 (A) (A) (A) (A) (A) (A) (A) (A) (A) (A) (A) (A)
                 (A) (A) (A) (A) (A) (A) (A) (A) (A) (A) (A) (A)
                 (A) (A) (A) (A) (A) (A) (A) (A) (A) (A) (A) (A)
                 (A) (A) (A) (A) (A) (A) (A) (A) (A) (A) (A) (A)
                 (A) (A) (A) (A) (A) (A) (A) (A) (A) (A) (A) (A)
                 (A) (A) (A) (A) (A) (A) (A) (A) (A) (A) (A) (A)
                 (A) (A) (A) (A) (A) (A) (A) (A) (A) (A) (A) (A)
                 (A) (A) (A) (A) (A) (A) (A) (A) (A) (A) (A) (A)
                 (A) (A) (A) (A) (A) (A) (A) (A) (A) (A) (A) (A)
                 (A) (A) (A) (A) (A) (A) (A) (A) (A) (A) (A) (A)
                 (A) (A) (A) (A) (A) (A) (A) (A) (A) (A) (A) (A)
                 (A) (A) (A) (A) (A) (A) (A) (A) (A) (A) (A) (A)
                 (A) (A) (A) (A) (A) (A) (A) (A) (A) (A) (A) (A)
                 (A) (A) (A) (A) (A) (A) (A) (A) (A) (A) (A) (A)
                 (A) (A) (A) (A) (A) (A) (A) (A) (A) (A) (A) (A)
                 (A) (A) (A)
 Beta  Orbitals:
       Occupied  (A) (A) (A) (A) (A) (A) (A) (A) (A) (A) (A) (A)
                 (A) (A) (A) (A) (A) (A) (A) (A) (A) (A) (A) (A)
                 (A) (A) (A) (A) (A) (A) (A) (A) (A) (A) (A) (A)
                 (A) (A) (A) (A) (A) (A) (A) (A)
       Virtual   (A) (A) (A) (A) (A) (A) (A) (A) (A) (A) (A) (A)
                 (A) (A) (A) (A) (A) (A) (A) (A) (A) (A) (A) (A)
                 (A) (A) (A) (A) (A) (A) (A) (A) (A) (A) (A) (A)
                 (A) (A) (A) (A) (A) (A) (A) (A) (A) (A) (A) (A)
                 (A) (A) (A) (A) (A) (A) (A) (A) (A) (A) (A) (A)
                 (A) (A) (A) (A) (A) (A) (A) (A) (A) (A) (A) (A)
                 (A) (A) (A) (A) (A) (A) (A) (A) (A) (A) (A) (A)
                 (A) (A) (A) (A) (A) (A) (A) (A) (A) (A) (A) (A)
                 (A) (A) (A) (A) (A) (A) (A) (A) (A) (A) (A) (A)
                 (A) (A) (A) (A) (A) (A) (A) (A) (A) (A) (A) (A)
                 (A) (A) (A) (A) (A) (A) (A) (A) (A) (A) (A) (A)
                 (A) (A) (A) (A) (A) (A) (A) (A) (A) (A) (A) (A)
                 (A) (A) (A) (A) (A) (A) (A) (A) (A) (A) (A) (A)
                 (A) (A) (A) (A) (A) (A) (A) (A) (A) (A) (A) (A)
                 (A) (A) (A) (A) (A) (A) (A) (A) (A) (A) (A) (A)
                 (A) (A) (A) (A) (A) (A) (A) (A) (A) (A) (A) (A)
                 (A) (A) (A) (A) (A) (A) (A) (A) (A) (A) (A) (A)
                 (A) (A) (A) (A) (A) (A) (A) (A) (A) (A) (A) (A)
                 (A) (A) (A) (A) (A) (A) (A) (A) (A) (A) (A) (A)
                 (A) (A) (A) (A) (A) (A) (A) (A) (A) (A) (A) (A)
                 (A) (A) (A) (A) (A) (A) (A) (A) (A) (A) (A) (A)
                 (A) (A) (A) (A) (A) (A) (A) (A) (A) (A) (A) (A)
                 (A) (A) (A) (A)
 The electronic state is 2-A.
 Alpha  occ. eigenvalues --  -19.17517 -19.16776 -10.23601 -10.21102 -10.18033
 Alpha  occ. eigenvalues --  -10.17447 -10.17433 -10.17177 -10.16400 -10.15832
 Alpha  occ. eigenvalues --  -10.15571  -1.12405  -0.87905  -0.82542  -0.81252
 Alpha  occ. eigenvalues --   -0.75452  -0.70951  -0.68541  -0.68036  -0.62300
 Alpha  occ. eigenvalues --   -0.56530  -0.55667  -0.52711  -0.48696  -0.47914
 Alpha  occ. eigenvalues --   -0.46503  -0.44893  -0.43772  -0.43166  -0.42684
 Alpha  occ. eigenvalues --   -0.41531  -0.40652  -0.39629  -0.38658  -0.38357
 Alpha  occ. eigenvalues --   -0.37194  -0.36510  -0.35485  -0.34594  -0.33598
 Alpha  occ. eigenvalues --   -0.32500  -0.32381  -0.31735  -0.25069  -0.23790
 Alpha virt. eigenvalues --    0.02570   0.04162   0.04629   0.05400   0.06647
 Alpha virt. eigenvalues --    0.07920   0.08539   0.08908   0.09538   0.10203
 Alpha virt. eigenvalues --    0.10765   0.11475   0.12296   0.12775   0.13873
 Alpha virt. eigenvalues --    0.14172   0.14814   0.15404   0.16165   0.16302
 Alpha virt. eigenvalues --    0.17572   0.17986   0.19541   0.21489   0.22726
 Alpha virt. eigenvalues --    0.23076   0.23835   0.25563   0.26324   0.27376
 Alpha virt. eigenvalues --    0.28721   0.29678   0.30681   0.32514   0.34423
 Alpha virt. eigenvalues --    0.35528   0.36352   0.38580   0.39249   0.40748
 Alpha virt. eigenvalues --    0.42535   0.43538   0.44929   0.45515   0.48720
 Alpha virt. eigenvalues --    0.49913   0.51141   0.51754   0.52985   0.54424
 Alpha virt. eigenvalues --    0.56001   0.56225   0.56845   0.56979   0.57455
 Alpha virt. eigenvalues --    0.57869   0.58252   0.58811   0.58998   0.59337
 Alpha virt. eigenvalues --    0.59987   0.60677   0.60872   0.61571   0.62319
 Alpha virt. eigenvalues --    0.62984   0.63280   0.64181   0.64275   0.65256
 Alpha virt. eigenvalues --    0.66228   0.66432   0.68553   0.70691   0.74365
 Alpha virt. eigenvalues --    0.77363   0.79825   0.82623   0.86574   0.87454
 Alpha virt. eigenvalues --    0.90883   0.92721   0.94450   0.95665   0.96953
 Alpha virt. eigenvalues --    0.98602   0.99855   1.00584   1.02530   1.05700
 Alpha virt. eigenvalues --    1.07563   1.10865   1.11424   1.13987   1.16327
 Alpha virt. eigenvalues --    1.19220   1.20525   1.24493   1.26864   1.31603
 Alpha virt. eigenvalues --    1.32825   1.35015   1.36079   1.37938   1.39613
 Alpha virt. eigenvalues --    1.41076   1.41727   1.42629   1.43988   1.45232
 Alpha virt. eigenvalues --    1.46019   1.46472   1.48262   1.48998   1.49545
 Alpha virt. eigenvalues --    1.49824   1.50876   1.51497   1.52041   1.53357
 Alpha virt. eigenvalues --    1.54295   1.55447   1.56895   1.57265   1.59730
 Alpha virt. eigenvalues --    1.59974   1.60938   1.63215   1.63851   1.64145
 Alpha virt. eigenvalues --    1.65557   1.66814   1.68618   1.69794   1.70625
 Alpha virt. eigenvalues --    1.70847   1.72202   1.73040   1.74566   1.74781
 Alpha virt. eigenvalues --    1.75995   1.78174   1.79032   1.79446   1.83517
 Alpha virt. eigenvalues --    1.87013   1.88269   1.91292   1.92617   1.93484
 Alpha virt. eigenvalues --    1.94079   1.97327   1.98365   1.99032   2.02342
 Alpha virt. eigenvalues --    2.04285   2.05041   2.06167   2.07578   2.09213
 Alpha virt. eigenvalues --    2.09940   2.12501   2.15598   2.16678   2.18942
 Alpha virt. eigenvalues --    2.23291   2.24014   2.26714   2.28229   2.31707
 Alpha virt. eigenvalues --    2.32364   2.33527   2.34132   2.36277   2.36922
 Alpha virt. eigenvalues --    2.40191   2.40680   2.42457   2.43021   2.45297
 Alpha virt. eigenvalues --    2.45822   2.47929   2.48943   2.49830   2.50444
 Alpha virt. eigenvalues --    2.50630   2.51073   2.52008   2.52998   2.53316
 Alpha virt. eigenvalues --    2.54510   2.55084   2.57051   2.58141   2.59024
 Alpha virt. eigenvalues --    2.59531   2.61441   2.62256   2.63571   2.64890
 Alpha virt. eigenvalues --    2.65777   2.66751   2.69514   2.72803   2.73545
 Alpha virt. eigenvalues --    2.76003   2.77108   2.78724   2.80370   2.82206
 Alpha virt. eigenvalues --    2.85357   2.88650   2.89469   2.90860   2.92261
 Alpha virt. eigenvalues --    2.94607   2.95685   2.97895   3.01992   3.03593
 Alpha virt. eigenvalues --    3.10572   3.13096   3.13902   3.17472   3.19437
 Alpha virt. eigenvalues --    3.28251   3.36614   3.44679   3.46894   3.51810
 Alpha virt. eigenvalues --    3.68303   3.73468   3.74561   3.77443   3.77986
 Alpha virt. eigenvalues --    3.78647   3.79499   3.80608   3.80872   3.82116
 Alpha virt. eigenvalues --    3.84163   3.84754   3.93160   3.97267   4.05951
 Alpha virt. eigenvalues --    4.17626   4.27497   4.29362   4.31526   4.40827
 Alpha virt. eigenvalues --    4.73333   4.82779   4.93960   5.02053   5.30727
 Alpha virt. eigenvalues --    5.68058  23.73001  23.77012  23.81964  23.87682
 Alpha virt. eigenvalues --   23.88710  23.90277  23.93398  23.93560  23.94300
 Alpha virt. eigenvalues --   49.76719  49.86145
  Beta  occ. eigenvalues --  -19.17370 -19.15442 -10.23604 -10.20274 -10.18062
  Beta  occ. eigenvalues --  -10.17468 -10.17433 -10.17174 -10.16398 -10.15832
  Beta  occ. eigenvalues --  -10.15570  -1.11116  -0.86035  -0.81586  -0.80866
  Beta  occ. eigenvalues --   -0.75276  -0.70762  -0.68534  -0.67739  -0.61815
  Beta  occ. eigenvalues --   -0.56336  -0.54688  -0.51093  -0.48206  -0.47427
  Beta  occ. eigenvalues --   -0.46317  -0.44331  -0.43411  -0.42963  -0.42323
  Beta  occ. eigenvalues --   -0.40906  -0.39992  -0.39210  -0.38652  -0.37462
  Beta  occ. eigenvalues --   -0.36862  -0.35924  -0.35377  -0.34189  -0.32564
  Beta  occ. eigenvalues --   -0.32458  -0.32197  -0.31339  -0.23437
  Beta virt. eigenvalues --   -0.12334   0.02850   0.04291   0.05097   0.05507
  Beta virt. eigenvalues --    0.06701   0.07964   0.08604   0.09080   0.09571
  Beta virt. eigenvalues --    0.10257   0.10825   0.11511   0.12394   0.12855
  Beta virt. eigenvalues --    0.14032   0.14505   0.14880   0.15800   0.16265
  Beta virt. eigenvalues --    0.16843   0.18016   0.18393   0.19850   0.21626
  Beta virt. eigenvalues --    0.22830   0.23180   0.24374   0.25806   0.26492
  Beta virt. eigenvalues --    0.27555   0.28807   0.29854   0.30928   0.32614
  Beta virt. eigenvalues --    0.34596   0.35599   0.36446   0.38700   0.39312
  Beta virt. eigenvalues --    0.41003   0.42612   0.43698   0.45053   0.46002
  Beta virt. eigenvalues --    0.49281   0.50594   0.51464   0.51888   0.53526
  Beta virt. eigenvalues --    0.54700   0.56179   0.56540   0.56942   0.57035
  Beta virt. eigenvalues --    0.57536   0.57916   0.58416   0.58831   0.59049
  Beta virt. eigenvalues --    0.59397   0.60089   0.60869   0.60918   0.61881
  Beta virt. eigenvalues --    0.62466   0.63124   0.63483   0.64262   0.64386
  Beta virt. eigenvalues --    0.65307   0.66325   0.66618   0.68648   0.70715
  Beta virt. eigenvalues --    0.74643   0.78529   0.80307   0.83108   0.86903
  Beta virt. eigenvalues --    0.87690   0.91175   0.92887   0.95192   0.96024
  Beta virt. eigenvalues --    0.97434   0.98946   1.00109   1.00970   1.02797
  Beta virt. eigenvalues --    1.05993   1.07728   1.11031   1.11580   1.14184
  Beta virt. eigenvalues --    1.16388   1.19244   1.20747   1.24666   1.27140
  Beta virt. eigenvalues --    1.31823   1.33068   1.35260   1.36451   1.38000
  Beta virt. eigenvalues --    1.39808   1.41368   1.42087   1.42961   1.44375
  Beta virt. eigenvalues --    1.45352   1.46258   1.46667   1.48496   1.49356
  Beta virt. eigenvalues --    1.49690   1.50037   1.51115   1.51939   1.52169
  Beta virt. eigenvalues --    1.53710   1.54435   1.55649   1.57228   1.57383
  Beta virt. eigenvalues --    1.60016   1.60124   1.61109   1.63311   1.64066
  Beta virt. eigenvalues --    1.64381   1.65702   1.67102   1.68673   1.69883
  Beta virt. eigenvalues --    1.70864   1.71108   1.72443   1.73157   1.74622
  Beta virt. eigenvalues --    1.75203   1.76136   1.78190   1.79069   1.79532
  Beta virt. eigenvalues --    1.83635   1.87133   1.88630   1.91396   1.93010
  Beta virt. eigenvalues --    1.93861   1.94294   1.97639   1.98504   1.99135
  Beta virt. eigenvalues --    2.02635   2.04499   2.05634   2.06840   2.08049
  Beta virt. eigenvalues --    2.09335   2.09990   2.12617   2.15800   2.16821
  Beta virt. eigenvalues --    2.19055   2.23352   2.24277   2.26878   2.28347
  Beta virt. eigenvalues --    2.31960   2.32445   2.33761   2.34205   2.36311
  Beta virt. eigenvalues --    2.37106   2.40423   2.41015   2.42579   2.43276
  Beta virt. eigenvalues --    2.45502   2.46110   2.48204   2.49076   2.49904
  Beta virt. eigenvalues --    2.50625   2.51096   2.51274   2.52291   2.53068
  Beta virt. eigenvalues --    2.53729   2.54660   2.55287   2.57157   2.58273
  Beta virt. eigenvalues --    2.59316   2.59944   2.61811   2.62450   2.63925
  Beta virt. eigenvalues --    2.64929   2.65944   2.66955   2.69583   2.73018
  Beta virt. eigenvalues --    2.73623   2.76075   2.77506   2.79043   2.80646
  Beta virt. eigenvalues --    2.82341   2.85532   2.88756   2.89666   2.90928
  Beta virt. eigenvalues --    2.92801   2.94714   2.97283   2.99414   3.02449
  Beta virt. eigenvalues --    3.03920   3.10684   3.13542   3.14150   3.18029
  Beta virt. eigenvalues --    3.20670   3.29022   3.37126   3.45614   3.46905
  Beta virt. eigenvalues --    3.53660   3.69265   3.73993   3.75927   3.77461
  Beta virt. eigenvalues --    3.78023   3.78728   3.79519   3.80782   3.81003
  Beta virt. eigenvalues --    3.82254   3.84212   3.84763   3.93775   3.97272
  Beta virt. eigenvalues --    4.06097   4.17754   4.28170   4.29381   4.31736
  Beta virt. eigenvalues --    4.41106   4.73895   4.83913   4.94748   5.06501
  Beta virt. eigenvalues --    5.31172   5.68768  23.73881  23.77057  23.81966
  Beta virt. eigenvalues --   23.87690  23.88713  23.90255  23.93377  23.93557
  Beta virt. eigenvalues --   23.94301  49.77906  49.86438
          Condensed to atoms (all electrons):
              1          2          3          4          5          6
     1  C    4.862030   0.403559   0.388353   0.404079   0.327792  -0.025085
     2  H    0.403559   0.540105  -0.029676  -0.024331  -0.033756  -0.005623
     3  H    0.388353  -0.029676   0.596448  -0.029448  -0.036774   0.004932
     4  H    0.404079  -0.024331  -0.029448   0.565725  -0.033346  -0.003246
     5  C    0.327792  -0.033756  -0.036774  -0.033346   5.426207   0.263347
     6  H   -0.025085  -0.005623   0.004932  -0.003246   0.263347   0.527514
     7  C    0.007433   0.001726  -0.000745  -0.000436  -0.068444  -0.006302
     8  H    0.000606   0.000018  -0.000077   0.000011  -0.000769  -0.001887
     9  H   -0.000631  -0.000153   0.000101   0.000006  -0.007947   0.000399
    10  C   -0.000315  -0.000068   0.000006   0.000016   0.006994  -0.000258
    11  H    0.000003  -0.000007   0.000002   0.000001   0.000186  -0.000016
    12  H   -0.000065  -0.000048   0.000007   0.000003   0.000742   0.000607
    13  C    0.000004   0.000001   0.000000   0.000000  -0.000198   0.000023
    14  H   -0.000001   0.000000   0.000000   0.000000   0.000020   0.000001
    15  C    0.000000   0.000000   0.000000   0.000000   0.000004   0.000000
    16  H    0.000000   0.000000   0.000000   0.000000   0.000000   0.000000
    17  H    0.000000   0.000000   0.000000   0.000000   0.000000   0.000000
    18  H    0.000000   0.000000   0.000000   0.000000  -0.000001  -0.000002
    19  C   -0.054421   0.007856  -0.004340  -0.006614   0.344545  -0.021425
    20  H   -0.004684  -0.000516   0.005329  -0.000498  -0.038822   0.004301
    21  H   -0.006943   0.000117  -0.000756   0.003767  -0.033213  -0.001994
    22  H    0.007464  -0.000334  -0.000344   0.000024  -0.032838  -0.004129
    23  C    0.000000   0.000000   0.000000   0.000000   0.000002  -0.000006
    24  H    0.000000   0.000000   0.000000   0.000000  -0.000001   0.000000
    25  H    0.000000   0.000000   0.000000   0.000000   0.000004   0.000000
    26  H    0.000000   0.000000   0.000000   0.000000   0.000017   0.000001
    27  C   -0.061778  -0.007762  -0.006309   0.007913   0.317414  -0.038009
    28  H    0.000960  -0.002549   0.003942   0.000178  -0.037994   0.003763
    29  O   -0.002984   0.015447  -0.000958  -0.000444  -0.047460  -0.054461
    30  O    0.003750   0.000649  -0.000121   0.000291  -0.091693   0.138554
              7          8          9         10         11         12
     1  C    0.007433   0.000606  -0.000631  -0.000315   0.000003  -0.000065
     2  H    0.001726   0.000018  -0.000153  -0.000068  -0.000007  -0.000048
     3  H   -0.000745  -0.000077   0.000101   0.000006   0.000002   0.000007
     4  H   -0.000436   0.000011   0.000006   0.000016   0.000001   0.000003
     5  C   -0.068444  -0.000769  -0.007947   0.006994   0.000186   0.000742
     6  H   -0.006302  -0.001887   0.000399  -0.000258  -0.000016   0.000607
     7  C    5.036373   0.406819   0.382278   0.346045  -0.045582  -0.041617
     8  H    0.406819   0.567862  -0.033730  -0.036816   0.008233  -0.006001
     9  H    0.382278  -0.033730   0.603028  -0.032440  -0.007894   0.009014
    10  C    0.346045  -0.036816  -0.032440   4.973055   0.399066   0.409635
    11  H   -0.045582   0.008233  -0.007894   0.399066   0.617031  -0.033799
    12  H   -0.041617  -0.006001   0.009014   0.409635  -0.033799   0.566364
    13  C   -0.051563  -0.003247  -0.005885   0.370079  -0.038879  -0.036383
    14  H   -0.006932   0.004697  -0.000346  -0.047951   0.010236  -0.005947
    15  C    0.007669   0.000073  -0.000085  -0.067726  -0.004498  -0.005817
    16  H   -0.000041   0.000018   0.000011  -0.007327   0.004816  -0.000621
    17  H   -0.000417  -0.000011   0.000018   0.008644  -0.000280   0.000140
    18  H    0.000095   0.000029  -0.000017  -0.004579  -0.000610   0.003912
    19  C    0.002271  -0.005044   0.002560  -0.000085  -0.000066  -0.000106
    20  H   -0.002362   0.000096   0.001105  -0.000071   0.000019   0.000014
    21  H    0.000118  -0.000196   0.000335   0.000012  -0.000002   0.000009
    22  H    0.003883   0.002272  -0.003259   0.000036   0.000020  -0.000075
    23  C   -0.005679  -0.000746   0.002567  -0.067855  -0.009187   0.007680
    24  H    0.000011  -0.000086  -0.000114   0.008154  -0.000223  -0.000365
    25  H   -0.000907   0.000099   0.000657  -0.006169   0.005750  -0.000080
    26  H    0.001732   0.000351   0.000041  -0.005828  -0.000183  -0.000179
    27  C    0.303640  -0.041140  -0.025913  -0.042762  -0.003089  -0.009880
    28  H   -0.047114   0.007452  -0.000519  -0.005461   0.004677   0.000347
    29  O   -0.062083  -0.007890   0.004214  -0.002191  -0.000122   0.016376
    30  O    0.001336   0.019107  -0.000384  -0.000587  -0.000042  -0.000508
             13         14         15         16         17         18
     1  C    0.000004  -0.000001   0.000000   0.000000   0.000000   0.000000
     2  H    0.000001   0.000000   0.000000   0.000000   0.000000   0.000000
     3  H    0.000000   0.000000   0.000000   0.000000   0.000000   0.000000
     4  H    0.000000   0.000000   0.000000   0.000000   0.000000   0.000000
     5  C   -0.000198   0.000020   0.000004   0.000000   0.000000  -0.000001
     6  H    0.000023   0.000001   0.000000   0.000000   0.000000  -0.000002
[...]
 7,-0.00027588,0.00009552,-0.00000303,0.00182729,-0.00054173,0.00081377
 ,0.02779502,-0.00748792,0.01579734,-0.00031411,0.00124281,-0.00033113,
 0.00143842,0.00150218,0.00061775,-0.00010593,-0.00009273,0.00001779,-0
 .00095875,-0.00033036,-0.00021078,-0.00012365,0.00042617,-0.00029630,0
 .00001094,0.00000514,0.00002887,0.00001068,0.00002193,0.00000655,-0.00
 000047,0.00001030,-0.00000284,0.00000592,-0.00001040,-0.00001216,0.050
 01284,-0.05935729,0.02596087,-0.05707661,0.06605153,-0.00000422,-0.000
 00906,-0.00000347,0.00000285,0.00000030,0.00000057,0.00000196,0.000001
 63,0.00000021,-0.00000482,-0.00000008,0.00000220,-0.00000024,0.0000130
 1,0.00000115,0.00000467,-0.00000852,-0.00000650,0.00009859,-0.00003394
 ,0.00014696,-0.00004115,0.00003571,0.00001704,-0.00002181,-0.00004841,
 -0.00014856,0.00023018,-0.00087103,0.00026357,0.00025405,-0.00022656,0
 .00046655,0.00006786,-0.00005508,0.00049174,0.00618596,-0.00176870,0.0
 0208382,0.00025903,0.00057446,0.00046825,-0.00015954,0.00014551,-0.000
 07047,-0.00017193,0.00003709,-0.00009038,0.00015643,0.00028079,0.00025
 638,0.00027823,-0.00000832,-0.00004264,-0.00000261,-0.00000720,-0.0000
 1068,0.00000271,0.00000390,-0.00000135,-0.00000345,0.,0.00000446,-0.00
 000200,0.00000546,0.00000261,-0.10010800,0.02671083,-0.09885500,0.1103
 4815,-0.02830212,0.10342453,0.00000276,0.00001212,0.00000305,-0.000004
 23,-0.00000011,-0.00000121,-0.00000477,-0.00000291,-0.00000348,0.00000
 540,0.00000037,-0.00000290,-0.00000742,-0.00000309,-0.00000609,-0.0000
 0239,-0.00000507,0.00000276,-0.00017328,0.00002664,-0.00006381,0.00016
 244,-0.00009469,-0.00012203,-0.00013723,-0.00005237,0.00015095,0.00047
 042,-0.00024157,0.00152286,-0.00001103,0.00012833,-0.00047981,0.000066
 86,-0.00012060,-0.00022650,-0.00195181,0.00157275,0.00830401,0.0002637
 2,0.00177336,0.00021977,0.00006686,-0.00041607,-0.00086347,0.00034016,
 -0.00012801,-0.00002925,0.00003037,0.00000896,-0.00014145,-0.00013373,
 0.00002964,0.00007051,0.00002045,0.00001721,0.00003050,-0.00001100,-0.
 00001297,-0.00000640,0.00000434,-0.00000209,-0.00000940,0.00000343,-0.
 00000568,-0.00000298,-0.04964080,0.00333122,0.02465996,0.00376660,-0.0
 0489794,-0.02823703,0.04900858,0.00000091,0.00000823,0.00000326,-0.000
 00037,-0.00000030,-0.00000251,0.00000137,0.00000045,-0.00000052,0.0000
 0016,-0.00000100,0.00000090,0.00000753,-0.00002084,-0.00000418,0.00000
 189,0.00000776,0.00000610,0.00008420,0.00001915,0.00009762,-0.00015289
 ,-0.00010422,0.00004949,0.00006674,-0.00000305,0.00002235,-0.00102274,
 0.00160166,-0.00115259,0.00033580,0.00016550,0.00107805,-0.00034679,0.
 00021562,0.00030182,0.00328468,-0.00627519,-0.03287445,0.00154792,-0.0
 0622492,-0.00097764,0.00064193,0.00181450,-0.00113336,-0.00041215,-0.0
 0027389,0.00075732,-0.00005298,-0.00009094,0.00006796,0.00010199,0.000
 31731,0.00041383,0.00000481,0.00000753,0.00002102,-0.00000089,-0.00000
 067,-0.00000198,-0.00000449,-0.00000031,-0.00000406,0.00000682,-0.0000
 0536,-0.00000955,0.00333464,-0.05298437,-0.03869736,-0.00148244,0.0002
 9355,0.00715187,-0.00545253,0.05831004,0.00000431,0.00001402,-0.000002
 31,-0.00000309,-0.00000320,-0.00000181,0.00000985,0.00000354,0.0000140
 2,0.00000803,0.00000029,0.00000322,0.00002165,-0.00005923,-0.00002922,
 0.00000238,0.00006054,0.00002324,0.00019833,-0.00016673,0.00009375,-0.
 00013125,0.00007118,0.00008012,0.00008432,-0.00000710,-0.00017808,-0.0
 0047317,0.00055683,0.00069234,0.00076621,-0.00040450,0.00062967,0.0000
 3014,-0.00000806,0.00033165,0.00096466,-0.00162042,-0.00722653,0.00018
 138,-0.00136836,0.00148300,0.00001423,0.00060223,0.00057467,-0.0004720
 9,-0.00059492,0.00041639,0.00006371,0.00001142,-0.00005282,-0.00007940
 ,-0.00007129,0.00035123,-0.00001502,-0.00001221,-0.00002655,0.00000624
 ,0.00001758,0.00000930,0.00000827,0.00000442,0.00000553,-0.00000414,-0
 .00000580,0.00001296,0.02444232,-0.03891700,-0.29090836,0.00168784,-0.
 00176803,-0.01370995,-0.02785698,0.04504054,0.31792035,0.00000824,0.00
 003253,-0.00000144,-0.00000755,0.00000189,-0.00000194,0.00000470,-0.00
 000348,0.00000903,0.00001347,-0.00000042,0.00000120,0.00004128,-0.0000
 8069,-0.00001870,0.00000681,0.00006820,0.00004031,-0.00095846,0.000338
 77,-0.00029115,0.00001356,-0.00006224,0.00006322,-0.00141722,0.0010894
 3,-0.00015450,0.00025695,-0.00059674,-0.00031248,-0.00004888,0.0000466
 2,-0.00003621,0.00013697,-0.00009931,0.00015113,0.00645175,0.00525416,
 -0.00393780,0.00037741,-0.00073298,-0.00034099,0.00010813,0.00094991,-
 0.00020560,-0.00006533,0.00013026,-0.00004127,0.00038103,0.00024362,0.
 00018256,0.00041084,0.00025392,0.00012032,0.00002286,0.00001819,-0.000
 00185,-0.00000499,0.00000407,0.00000223,0.00001595,-0.00000041,0.00000
 109,-0.00000927,-0.00001348,0.00001634,-0.17631801,-0.11271651,0.06563
 152,-0.01968488,-0.01691499,0.01088463,-0.00209131,-0.00054175,0.00052
 227,0.19230898,-0.00000951,-0.00000789,0.00000656,0.00000758,0.0000091
 2,0.00000069,0.,-0.00000421,-0.00000704,-0.00001809,-0.00000313,0.0000
 0077,0.00004998,-0.00002908,-0.00001371,0.00003344,-0.00000733,-0.0000
 1085,-0.00032231,-0.00048055,-0.00024755,0.00010390,-0.00010427,-0.000
 12935,0.00085197,0.00049441,0.00035413,-0.00110835,0.00065105,0.000144
 72,0.00011276,-0.00002968,-0.00000733,-0.00002539,0.00010584,-0.000164
 96,-0.02331221,-0.01710252,0.01213920,-0.00006214,0.00120230,-0.000471
 22,0.00346369,-0.00592465,-0.00210080,0.00021208,0.00020914,0.00011107
 ,0.00006525,0.00026820,-0.00020530,-0.00157769,-0.00139798,0.00064610,
 0.00000630,-0.00000254,0.00005494,0.00001923,0.00001481,0.00000066,-0.
 00004293,0.00000421,-0.00000515,0.00003224,0.00001738,-0.00005775,-0.1
 1146227,-0.14406372,0.05607575,0.00504928,0.00458350,-0.00355564,0.004
 53210,0.00316152,-0.00132692,0.12317144,0.15785978,0.00000742,0.000006
 27,-0.00000329,-0.00000434,-0.00000479,-0.00000168,-0.00000434,0.00000
 185,-0.00000391,0.00000937,0.00000162,-0.00000038,-0.00002117,0.000030
 65,0.00001488,-0.00001622,-0.00002556,0.00000430,0.00028206,0.00059804
 ,0.00051943,0.00007520,-0.00012811,-0.00014522,-0.00044973,-0.00032262
 ,0.00000773,0.00043224,0.00054643,-0.00003563,0.00005393,0.00005989,-0
 .00001336,-0.00012945,-0.00005080,-0.00003039,-0.00566634,-0.00415441,
 0.00110293,-0.00052229,0.00032304,0.00044730,0.00018230,-0.00112885,0.
 00026125,-0.00022105,-0.00033553,0.00040029,0.00033611,0.00007228,-0.0
 0002966,-0.00007392,-0.00032927,0.00058568,0.00002844,0.00001585,0.000
 02794,-0.00003503,-0.00002504,-0.00002874,0.00002211,-0.00000985,-0.00
 001087,-0.00000634,0.00000229,0.00003133,0.06527131,0.05666956,-0.0801
 6328,-0.01038735,-0.01006484,0.00531602,0.02317236,0.01983726,-0.01049
 980,-0.07222580,-0.06129476,0.08245284,-0.02911427,-0.00616085,0.00953
 624,0.00024097,-0.00051608,0.00018162,0.00225497,0.00026043,0.00099968
 ,-0.00257720,0.00086634,-0.00305563,-0.12498571,-0.01614445,0.00499129
 ,-0.00749870,0.01031940,0.01783099,-0.14426960,0.02156026,-0.03739362,
 0.00071604,0.00028816,-0.00094159,0.00024326,-0.00013265,-0.00009915,-
 0.03404245,0.00732174,-0.00971179,0.00161829,0.00064232,-0.00115872,0.
 00109621,0.00126193,-0.00045825,-0.00201908,-0.00266635,0.00193971,-0.
 00003725,-0.00011825,-0.00010317,-0.00054771,0.00036179,-0.00057567,-0
 .00001265,0.00003828,0.00002140,-0.00013092,-0.00024624,0.00013758,-0.
 00001546,0.00000704,-0.00002950,0.00531058,-0.00132762,0.00474425,0.00
 052920,0.00178395,0.00014975,0.00079184,0.00257216,-0.00176541,-0.0001
 5056,0.00020039,-0.00131995,0.00040317,-0.00070605,0.00042335,0.000351
 46,0.00013039,-0.00005114,-0.00005624,0.00005814,-0.00004829,0.0000589
 0,0.00060866,-0.00024914,0.45176045,0.00228538,0.00408467,-0.00623653,
 0.00116044,-0.00022122,-0.00016067,0.00023249,0.00070275,-0.00005060,0
 .00335215,0.00008911,0.00178475,-0.01197367,-0.05466750,0.03425314,-0.
 00894506,-0.02228222,-0.00742902,0.02595094,-0.07725968,0.01549464,-0.
 00389108,-0.00005947,-0.00049485,0.02429861,-0.01222112,0.01323213,-0.
 00926440,0.00890587,-0.00941416,-0.00024054,0.00017093,0.00032252,-0.0
 0164635,-0.00131740,-0.00050529,-0.00277083,-0.00361256,0.00208519,0.0
 0035000,-0.00000605,0.00020318,-0.00120654,0.00087894,-0.00058010,-0.0
 0002216,-0.00000576,0.00010666,-0.00058625,-0.00029079,0.00007441,0.00
 006605,-0.00005497,-0.00006833,-0.02069426,-0.00924242,0.00776308,0.00
 010613,-0.00029946,-0.00004869,0.00134608,-0.00297006,0.00126288,0.000
 17049,0.00050416,0.00032194,0.00020583,-0.00044169,0.00016094,-0.00006
 512,0.00010740,-0.00004615,0.00000667,0.00005299,0.00006566,0.00017435
 ,0.00010961,-0.00012193,-0.02789305,0.35453377,-0.01495235,-0.00867718
 ,0.00778555,0.00010647,0.00077715,0.00038931,-0.00129633,-0.00036539,-
 0.00058995,-0.00349815,0.00085240,-0.00228525,0.01794518,0.02574121,-0
 .06966015,0.00951099,-0.02372100,-0.02055913,-0.03649622,0.01410764,-0
 .10872655,-0.03148643,0.01391969,-0.01592778,0.00930529,-0.00458363,0.
 00260909,0.00719198,-0.00695225,0.00594728,0.00213712,-0.00031779,-0.0
 0017116,-0.00056556,0.00033690,0.00059823,0.00174917,0.00184559,-0.002
 51480,-0.00014097,0.00011882,0.00045125,0.00083363,-0.00030601,0.00099
 818,-0.00007375,-0.00011334,-0.00005554,0.00040520,0.00025305,-0.00010
 132,-0.00005714,0.00002619,0.00000665,0.00549265,0.00152747,-0.0015555
 6,-0.00001613,-0.00008542,0.00024911,-0.00024482,0.00170539,0.00065928
 ,0.00018412,-0.00044869,-0.00018515,0.00005355,-0.00000169,0.00045726,
 0.00019416,0.00001709,-0.00004032,-0.00001188,0.00000167,-0.00007246,-
 0.00000675,0.00019302,-0.00022808,-0.01098959,-0.02329092,0.61303084,0
 .00128500,-0.00003853,0.00060002,-0.00016799,0.00033077,0.00014139,-0.
 00028137,-0.00040042,-0.00036473,0.00038438,0.00008719,-0.00018409,-0.
 00311095,-0.00329506,0.02084262,0.00024750,0.00451002,0.00287337,-0.00
 033861,0.00011926,-0.02753863,-0.00434079,0.00229535,-0.00217061,0.000
 88756,0.00006726,0.00071123,0.00198121,0.00038817,-0.00159200,-0.00027
 602,0.00008713,0.00070262,-0.00011010,-0.00026775,0.00007030,-0.000147
 90,0.00001420,-0.00002635,0.00006044,-0.00000153,0.00028717,-0.0000182
 8,0.00000459,0.00007853,-0.00005105,-0.00002045,0.00002219,0.00001404,
 0.00000440,0.00000387,-0.00000458,-0.00001099,-0.00000663,-0.00117168,
 0.00061552,0.00012581,0.00005023,-0.00033760,-0.00011714,-0.00005322,-
 0.00059688,0.00004081,-0.00002612,0.00004924,0.00003150,0.00008844,0.0
 0005262,-0.00001233,-0.00001306,-0.00003985,0.00002183,-0.00003976,0.0
 0002034,0.00003073,-0.00000281,-0.00009221,0.00000056,-0.04951789,0.00
 215221,0.01375879,0.05645619,0.00051341,0.00128916,0.00052686,-0.00002
 256,-0.00003705,-0.00018428,0.00009484,-0.00025095,-0.00007817,0.00017
 097,-0.00011041,-0.00002070,-0.00102768,-0.00171427,0.01090146,0.00012
 503,0.00415745,0.00303317,-0.00034527,0.00227196,0.01379319,0.00279860
 ,-0.00025673,0.00083688,-0.00056928,0.00020021,-0.00051569,-0.00069345
 ,0.00025864,-0.00043927,0.00027118,0.00015805,-0.00029916,-0.00000337,
 -0.00000939,-0.00007727,0.00002656,-0.00012526,0.00007181,-0.00007226,
 -0.00001497,-0.00011297,-0.00001463,-0.00000817,-0.00005966,0.00001544
 ,0.00001791,-0.00000855,0.00000661,-0.00000971,0.00001349,-0.00000875,
 -0.00000810,-0.00000464,-0.00055675,0.00069050,0.00016418,0.00003607,-
 0.00018336,-0.00017259,-0.00016955,-0.00038614,-0.00017682,0.00010529,
 0.00021024,-0.00015159,-0.00001494,0.00001182,0.00001906,0.00000907,-0
 .00000757,-0.00000843,0.00002759,-0.00000210,-0.00003133,-0.00001537,0
 .00002716,0.00002743,-0.00230130,-0.04735553,0.01629809,-0.00454087,0.
 05623408,-0.00139311,0.00037934,0.00113463,0.00032223,-0.00027606,0.00
 001618,0.00081722,0.00012191,0.00055600,-0.00009910,0.00007313,0.00024
 122,0.00213654,0.00068877,-0.00768406,0.00070054,0.00085384,-0.0001174
 8,-0.00030105,0.00124587,-0.01343396,-0.00187859,0.00145939,0.00011926
 ,-0.00033155,0.00056549,0.00012920,0.00139405,0.00002336,0.00055034,-0
 .00092612,-0.00018497,0.00063664,-0.00008506,-0.00013025,-0.00011929,-
 0.00018970,-0.00002144,0.00042063,0.00026477,-0.00001622,0.00013296,-0
 .00006934,0.00001870,-0.00001209,-0.00003301,0.00000092,0.00001369,-0.
 00001454,-0.00001297,0.00000485,0.00000499,-0.00000179,-0.00001038,0.0
 0082027,-0.00041644,-0.00049993,0.00002030,0.00031795,-0.00000867,0.00
 006352,0.00031782,-0.00010566,-0.00005527,-0.00008500,0.00009308,0.000
 06171,0.00004139,-0.00004951,-0.00001608,-0.00002041,0.00001746,-0.000
 04393,0.00000401,0.00004243,-0.00000138,-0.00008390,-0.00000251,0.0118
 0654,0.00251957,-0.29301649,-0.01560660,0.00027132,0.32115450,0.000332
 53,-0.00275712,-0.00237823,-0.00020764,-0.00057962,-0.00012472,-0.0010
 1110,0.00032440,-0.00096574,0.00062248,-0.00074695,0.00040887,-0.00655
 366,-0.02223240,0.02217448,-0.01826455,-0.03956986,0.00687373,-0.00235
 312,0.03283151,0.00830590,0.00150395,-0.00153095,0.00040950,-0.0059814
 7,0.00302046,-0.00214137,0.00037411,-0.00030817,0.00014423,-0.00034516
 ,0.00065352,0.00051744,-0.00032255,0.00184519,-0.00017724,0.00076793,0
 .00078131,0.00043236,0.00000122,-0.00000021,-0.00006398,0.00005254,0.0
 0002134,-0.00009328,0.00001347,0.00000189,0.00005082,-0.00014265,0.000
 03128,-0.00002137,0.00006802,0.00003177,0.00002457,-0.00246453,-0.0032
 2086,-0.00584274,-0.00045310,-0.00232501,0.00074488,-0.00000680,-0.000
 57809,0.00040504,0.00001283,0.00029368,0.00057479,-0.00054517,0.000152
 40,-0.00043745,-0.00028196,0.00010745,0.00000491,0.00005250,-0.0000275
 0,0.00005474,0.00002419,-0.00026084,0.00013471,-0.06046239,0.01140838,
 0.00463380,-0.00010306,0.00813866,0.00351932,0.11661658,0.00035245,0.0
 0081875,0.00199853,-0.00024097,0.00005057,-0.00019596,0.00039353,-0.00
 060289,0.00068905,-0.00013337,0.00023574,0.00001900,-0.01863774,-0.060
 75971,0.00037382,-0.00720455,-0.00412222,0.01821721,0.01124056,-0.0384
 9027,-0.00427760,-0.00105116,0.00104595,-0.00047825,0.00597034,-0.0013
 6147,0.00268842,-0.00340952,-0.00014754,0.00030460,0.00024801,-0.00002
 020,-0.00029823,0.00061143,0.00107478,-0.00029381,-0.00003600,0.000301
 61,0.00001564,-0.00005197,-0.00003641,-0.00000954,0.00011628,-0.000067
 68,0.00004632,0.00000715,0.00000020,-0.00002091,0.00008057,0.00002384,
 -0.00000402,0.00000629,0.00007511,0.00000606,-0.00706992,-0.00007073,-
 0.00109277,-0.00003461,-0.00008358,-0.00014872,-0.00049666,-0.00175637
 ,0.00056255,0.00039460,0.00065927,-0.00060425,-0.00008832,-0.00027312,
 0.00024386,0.00019245,0.00015600,-0.00003459,-0.00001565,0.00001821,-0
 .00003971,0.00006295,0.00039523,-0.00020118,0.00698296,-0.14361839,0.0
 2712120,-0.00048631,-0.00529812,-0.00541861,0.01579725,0.31606082,-0.0
 0510485,0.00820269,0.00824588,0.00077839,-0.00180345,0.00081389,0.0031
 5015,-0.00166998,0.00300271,-0.00073978,-0.00006500,-0.00050204,0.0142
 2069,-0.02313049,-0.03821792,0.03121223,0.06312021,0.01225366,0.001653
 66,0.00993694,0.00724557,0.00196716,0.00055423,-0.00048699,-0.00206616
 ,0.00084433,-0.00155861,0.00005428,0.00058326,0.00117796,-0.00003098,-
 0.00008167,-0.00006680,-0.00060241,-0.00086604,-0.00012751,-0.00030727
 ,0.00003729,-0.00015392,-0.00000642,0.00000135,-0.00003427,0.00004772,
 -0.00011315,0.00005376,-0.00000382,0.00001880,-0.00003874,0.00012735,-
 0.00000491,0.00001724,-0.00009199,-0.00007877,-0.00001668,-0.00269186,
 0.00267917,0.00890043,0.00049132,0.00361951,-0.00116487,0.00015575,-0.
 00076558,0.00007368,0.00028684,-0.00024475,-0.00064731,0.00025226,0.00
 018091,0.00004912,0.00006527,-0.00014141,0.00001488,-0.00001078,-0.000
 00957,-0.00003546,-0.00008063,-0.00005818,0.00005932,-0.00399715,0.003
 07813,-0.06760523,0.00296602,-0.03999858,-0.01233472,-0.07260946,-0.02
 831767,0.25374742,-0.00166844,0.00673421,0.00790303,0.00054997,-0.0008
 2229,0.00068206,0.00199713,-0.00138605,0.00179753,-0.00077708,0.000130
 18,-0.00028041,0.01087484,-0.06020981,-0.06822821,0.00771399,0.0724336
 0,0.03511760,-0.00113319,0.00039988,-0.00112702,-0.00000285,0.00090100
 ,0.00139208,0.00098586,-0.00118076,0.00004158,-0.00016496,0.00064262,0
 .00059259,0.00001905,-0.00042987,-0.00015639,-0.00084069,-0.00045284,0
 .00027228,-0.00003630,-0.00002014,-0.00019413,-0.00002867,0.00003052,-
 0.00000713,0.00000742,0.00000851,0.00005922,-0.00000071,-0.00000179,-0
 .00001995,0.00004346,-0.00001138,-0.00000274,-0.00005550,-0.00006583,-
 0.00001376,-0.00281357,0.00488580,0.00730271,0.00062136,0.00158665,-0.
 00113724,-0.00009734,-0.00085221,0.00013575,0.00052324,-0.00062237,-0.
 00021849,0.00016566,0.00005462,0.00007292,0.00003915,-0.00005415,0.000
 00589,0.00000011,-0.00000235,-0.00001818,-0.00003330,-0.00002597,0.000
 00439,-0.00993722,0.01593310,0.02633398,-0.00167977,-0.00198329,-0.000
 88756,-0.02094345,-0.00350006,0.03091445,0.01667179,-0.00217805,0.0065
 1226,0.01045800,0.00005100,0.00000132,-0.00036717,0.00193465,-0.000902
 21,0.00094924,-0.00125773,0.00011342,-0.00064998,0.00486673,-0.0865411
 2,-0.10085072,0.02776247,0.07394871,0.03903825,0.00139550,0.00168461,0
 .00082254,0.00080121,0.00001043,-0.00168176,-0.00011288,-0.00016800,-0
 .00104464,-0.00032206,-0.00010149,-0.00018581,0.00028464,-0.00013542,-
 0.00023491,-0.00035945,-0.00040614,0.00029139,-0.00019636,0.00024806,-
 0.00016813,-0.00005758,-0.00002427,-0.00005185,0.00007693,-0.00013558,
 0.00008527,0.00000459,0.00000318,-0.00004627,0.00012401,0.00001528,0.0
 0000447,-0.00006081,-0.00003292,0.00000600,-0.00314381,0.00661359,0.00
 782735,0.00092004,0.00133716,-0.00110301,-0.00022383,-0.00115458,0.000
 26905,0.00070040,-0.00051082,0.00005597,0.00012010,0.00009293,0.000050
 58,0.00009153,-0.00007066,0.00002328,-0.00001561,-0.00000685,-0.000043
 44,-0.00006194,0.00004432,0.00000510,0.00294857,0.00578611,-0.03597925
 ,-0.00066982,-0.00974935,-0.00223471,-0.00130290,-0.06420737,0.0044923
 5,-0.03211953,0.06773541,0.00358819,-0.00695768,-0.00676008,-0.0008784
 7,0.00088259,-0.00107822,-0.00238844,0.00156024,-0.00221854,0.00035795
 ,0.00006324,0.00054729,-0.01129635,0.00504344,0.01436824,-0.01065182,-
 0.03052943,-0.04173679,-0.00075476,0.00229003,0.00149884,0.00090723,-0
 .00113845,0.00151759,-0.00112134,0.00115582,0.00086050,0.00028112,-0.0
 0121612,-0.00013079,-0.00036372,0.00026045,0.00032900,0.00097544,0.000
 74584,-0.00024725,0.00021437,0.00026983,0.00003842,0.00008349,-0.00004
 111,0.00011250,0.00005519,-0.00004378,-0.00001738,-0.00001838,0.000003
 95,0.00005488,-0.00004888,0.00002740,-0.00001662,0.00008359,0.00009543
 ,0.00000529,0.00288199,-0.00112122,-0.00623741,-0.00014812,-0.00294485
 ,0.00068748,-0.00002580,0.00047633,0.00001411,-0.00010341,-0.00045049,
 0.00079498,-0.00019347,-0.00005512,-0.00010443,-0.00005062,0.00008466,
 0.00000091,-0.00001735,0.00001267,0.00005948,0.00003263,0.00001278,-0.
 00003445,0.01918537,-0.03428158,-0.04988712,0.00430976,-0.00361721,0.0
 0213170,0.03544149,-0.01085045,-0.17266442,-0.04033688,0.08026279,0.25
 811230\\0.00000127,0.00000430,-0.00000075,0.00000069,0.00000445,0.0000
 0174,-0.00000011,0.00000524,-0.00000191,-0.00000005,0.00000310,-0.0000
 0164,0.00000104,-0.00000256,-0.00000528,0.00000025,0.00000122,0.000004
 03,-0.00000071,-0.00000013,-0.00000044,-0.00000044,-0.00000211,0.00000
 077,-0.00000047,-0.00000010,-0.00000184,0.00000041,0.00000006,0.000001
 83,0.00000050,0.00000265,0.00000145,0.00000085,-0.00000014,0.00000427,
 0.00000006,-0.00000238,0.00000106,-0.00000033,-0.00000414,0.00000143,0
 .00000059,-0.00000160,0.00000354,0.00000082,0.00000072,0.00000340,0.00
 000028,-0.00000317,0.00000318,0.00000098,-0.00000190,0.00000576,-0.000
 00099,0.00000035,-0.00000360,-0.00000142,0.00000141,-0.00000576,-0.000
 00114,-0.00000058,-0.00000476,-0.00000136,-0.00000245,-0.00000442,-0.0
 0000084,-0.00000172,-0.00000193,-0.00000089,-0.00000302,-0.00000221,-0
 .00000040,0.00000056,-0.00000223,-0.00000091,-0.00000196,-0.00000354,0
 .00000006,0.00000164,0.00000145,0.00000020,0.00000437,0.00000077,0.000
 00094,0.00000068,0.00000058,0.00000110,-0.00000279,0.00000506\\\@
 Job cpu time:  0 days  8 hours 35 minutes 23.3 seconds.
 File lengths (MBytes):  RWF=  73046 Int=      0 D2E=      0 Chk=     26 Scr=      1
 Normal termination of Gaussian 09 at Mon Feb 17 20:47:50 2014.
