 Entering Gaussian System, Link 0=g09
 Initial command:
 /usr/caen/gaussian-09revc/g09/l1.exe /scratch/avioli_flux/hetanjin/scratch/Gau-24265.inp -scrdir=/scratch/avioli_flux/hetanjin/scratch/
 Entering Link 1 = /usr/caen/gaussian-09revc/g09/l1.exe PID=     24266.
  
 Copyright (c) 1988,1990,1992,1993,1995,1998,2003,2009,2011,
            Gaussian, Inc.  All Rights Reserved.
  
 This is part of the Gaussian(R) 09 program.  It is based on
 the Gaussian(R) 03 system (copyright 2003, Gaussian, Inc.),
 the Gaussian(R) 98 system (copyright 1998, Gaussian, Inc.),
 the Gaussian(R) 94 system (copyright 1995, Gaussian, Inc.),
 the Gaussian 92(TM) system (copyright 1992, Gaussian, Inc.),
 the Gaussian 90(TM) system (copyright 1990, Gaussian, Inc.),
 the Gaussian 88(TM) system (copyright 1988, Gaussian, Inc.),
 the Gaussian 86(TM) system (copyright 1986, Carnegie Mellon
 University), and the Gaussian 82(TM) system (copyright 1983,
 Carnegie Mellon University). Gaussian is a federally registered
 trademark of Gaussian, Inc.
  
 This software contains proprietary and confidential information,
 including trade secrets, belonging to Gaussian, Inc.
  
 This software is provided under written license and may be
 used, copied, transmitted, or stored only in accord with that
 written license.
  
 The following legend is applicable only to US Government
 contracts under FAR:
  
                    RESTRICTED RIGHTS LEGEND
  
 Use, reproduction and disclosure by the US Government is
 subject to restrictions as set forth in subparagraphs (a)
 and (c) of the Commercial Computer Software - Restricted
 Rights clause in FAR 52.227-19.
  
 Gaussian, Inc.
 340 Quinnipiac St., Bldg. 40, Wallingford CT 06492
  
  
 ---------------------------------------------------------------
 Warning -- This program may not be used in any manner that
 competes with the business of Gaussian, Inc. or will provide
 assistance to any competitor of Gaussian, Inc.  The licensee
 of this program is prohibited from giving any competitor of
 Gaussian, Inc. access to this program.  By using this program,
 the user acknowledges that Gaussian, Inc. is engaged in the
 business of creating and licensing software in the field of
 computational chemistry and represents and warrants to the
 licensee that it is not a competitor of Gaussian, Inc. and that
 it will not use this program in any manner prohibited above.
 ---------------------------------------------------------------
  

 Cite this work as:
 Gaussian 09, Revision C.01,
 M. J. Frisch, G. W. Trucks, H. B. Schlegel, G. E. Scuseria, 
 M. A. Robb, J. R. Cheeseman, G. Scalmani, V. Barone, B. Mennucci, 
 G. A. Petersson, H. Nakatsuji, M. Caricato, X. Li, H. P. Hratchian, 
 A. F. Izmaylov, J. Bloino, G. Zheng, J. L. Sonnenberg, M. Hada, 
 M. Ehara, K. Toyota, R. Fukuda, J. Hasegawa, M. Ishida, T. Nakajima, 
 Y. Honda, O. Kitao, H. Nakai, T. Vreven, J. A. Montgomery, Jr., 
 J. E. Peralta, F. Ogliaro, M. Bearpark, J. J. Heyd, E. Brothers, 
 K. N. Kudin, V. N. Staroverov, T. Keith, R. Kobayashi, J. Normand, 
 K. Raghavachari, A. Rendell, J. C. Burant, S. S. Iyengar, J. Tomasi, 
 M. Cossi, N. Rega, J. M. Millam, M. Klene, J. E. Knox, J. B. Cross, 
 V. Bakken, C. Adamo, J. Jaramillo, R. Gomperts, R. E. Stratmann, 
 O. Yazyev, A. J. Austin, R. Cammi, C. Pomelli, J. W. Ochterski, 
 R. L. Martin, K. Morokuma, V. G. Zakrzewski, G. A. Voth, 
 P. Salvador, J. J. Dannenberg, S. Dapprich, A. D. Daniels, 
 O. Farkas, J. B. Foresman, J. V. Ortiz, J. Cioslowski, 
 and D. J. Fox, Gaussian, Inc., Wallingford CT, 2010.
 
 ******************************************
 Gaussian 09:  EM64L-G09RevC.01 23-Sep-2011
                17-Feb-2014 
 ******************************************
 %mem=30GB
 %nprocshared=8
 Will use up to    8 processors via shared memory.
 %chk=TS_3_3d.chk
 -------------------------------
 #p cbs-qb3 opt=(TS,calcfc) freq
 -------------------------------
 1/5=1,10=4,14=-1,18=20,26=3,38=1/1,3;
 2/9=110,12=2,17=6,18=5,40=1/2;
 3/5=4,6=6,7=700,11=2,16=1,25=1,30=1,71=2,74=-5/1,2,3;
 4//1;
 5/5=2,38=5/2;
 8/6=4,10=90,11=11/1;
 11/6=1,8=1,9=11,15=111,16=1/1,2,10;
 10/6=1,7=6,13=1/2;
 6/7=2,8=2,9=2,10=2,28=1/1;
 7/10=1,18=20,25=1/1,2,3,16;
 1/5=1,10=4,14=-1,18=20/3(2);
 2/9=110/2;
 99//99;
 2/9=110/2;
 3/5=4,6=6,7=700,11=2,16=1,25=1,30=1,71=1,74=-5/1,2,3;
 4/5=5,16=3/1;
 5/5=2,38=5/2;
 7//1,2,3,16;
 1/5=1,14=-1,18=20/3(-5);
 2/9=110/2;
 6/7=2,8=2,9=2,10=2,19=2,28=1/1;
 99/9=1/99;
 Leave Link    1 at Mon Feb 17 04:52:36 2014, MaxMem= 4026531840 cpu:       1.9
 (Enter /usr/caen/gaussian-09revc/g09/l101.exe)
 ------------------------------------
 TS_3_3d using cbs-qb3 to cal. energy
 ------------------------------------
 Charge =  0 Multiplicity = 2
 Symbolic Z-Matrix:
 C                    -3.68678  -0.13947  -0.24807 
 H                    -3.71554  -1.19422   0.02772 
 H                    -3.80941  -0.07136  -1.33496 
 H                    -4.54112   0.36259   0.21436 
 C                    -2.37431   0.51638   0.19885 
 H                    -2.29415   0.42043   1.28785 
 C                     0.18792   0.17258   0.21708 
 H                     0.01923  -0.87911   1.0492 
 H                     0.18638   1.06452   0.84133 
 C                     1.42641  -0.04563  -0.60979 
 H                     1.46805   0.74188  -1.38282 
 H                     1.32159  -0.99254  -1.15095 
 C                     2.76171  -0.04295   0.16342 
 H                     2.6853   -0.80562   0.94906 
 C                     3.9121   -0.44401  -0.76978 
 H                     4.03116   0.28361  -1.58037 
 H                     4.86002  -0.49284  -0.22662 
 H                     3.73504  -1.42348  -1.22307 
 C                    -2.35615   2.00808  -0.16891 
 H                    -2.42649   2.14352  -1.25387 
 H                    -3.2091    2.52233   0.28152 
 H                    -1.44988   2.51508   0.17276 
 C                     3.05097   1.30715   0.83407 
 H                     4.00949   1.28118   1.35989 
 H                     3.10362   2.10917   0.08907 
 H                     2.28671   1.57915   1.56662 
 C                    -1.16358  -0.20472  -0.41811 
 H                    -1.16516  -0.06493  -1.50722 
 O                    -1.20658  -1.6411   -0.25284 
 O                    -0.7491   -1.84187   1.08132 
 
 NAtoms=     30 NQM=        0 NQMF=       0 NMMI=     30 NMMIF=      0
                NMic=       0 NMicF=      0.
                    Isotopes and Nuclear Properties:
 (Nuclear quadrupole moments (NQMom) in fm**2, nuclear magnetic moments (NMagM)
  in nuclear magnetons)

  Atom         1           2           3           4           5           6           7           8           9          10
 IAtWgt=          12           1           1           1          12           1          12           1           1          12
 AtmWgt=  12.0000000   1.0078250   1.0078250   1.0078250  12.0000000   1.0078250  12.0000000   1.0078250   1.0078250  12.0000000
 NucSpn=           0           1           1           1           0           1           0           1           1           0
 AtZEff=   0.0000000   0.0000000   0.0000000   0.0000000   0.0000000   0.0000000   0.0000000   0.0000000   0.0000000   0.0000000
 NQMom=    0.0000000   0.0000000   0.0000000   0.0000000   0.0000000   0.0000000   0.0000000   0.0000000   0.0000000   0.0000000
 NMagM=    0.0000000   2.7928460   2.7928460   2.7928460   0.0000000   2.7928460   0.0000000   2.7928460   2.7928460   0.0000000

  Atom        11          12          13          14          15          16          17          18          19          20
 IAtWgt=           1           1          12           1          12           1           1           1          12           1
 AtmWgt=   1.0078250   1.0078250  12.0000000   1.0078250  12.0000000   1.0078250   1.0078250   1.0078250  12.0000000   1.0078250
 NucSpn=           1           1           0           1           0           1           1           1           0           1
 AtZEff=   0.0000000   0.0000000   0.0000000   0.0000000   0.0000000   0.0000000   0.0000000   0.0000000   0.0000000   0.0000000
 NQMom=    0.0000000   0.0000000   0.0000000   0.0000000   0.0000000   0.0000000   0.0000000   0.0000000   0.0000000   0.0000000
 NMagM=    2.7928460   2.7928460   0.0000000   2.7928460   0.0000000   2.7928460   2.7928460   2.7928460   0.0000000   2.7928460

  Atom        21          22          23          24          25          26          27          28          29          30
 IAtWgt=           1           1          12           1           1           1          12           1          16          16
 AtmWgt=   1.0078250   1.0078250  12.0000000   1.0078250   1.0078250   1.0078250  12.0000000   1.0078250  15.9949146  15.9949146
 NucSpn=           1           1           0           1           1           1           0           1           0           0
 AtZEff=   0.0000000   0.0000000   0.0000000   0.0000000   0.0000000   0.0000000   0.0000000   0.0000000   0.0000000   0.0000000
 NQMom=    0.0000000   0.0000000   0.0000000   0.0000000   0.0000000   0.0000000   0.0000000   0.0000000   0.0000000   0.0000000
 NMagM=    2.7928460   2.7928460   0.0000000   2.7928460   2.7928460   2.7928460   0.0000000   2.7928460   0.0000000   0.0000000
 Leave Link  101 at Mon Feb 17 04:52:36 2014, MaxMem= 4026531840 cpu:       1.9
 (Enter /usr/caen/gaussian-09revc/g09/l103.exe)

 GradGradGradGradGradGradGradGradGradGradGradGradGradGradGradGradGradGrad
 Berny optimization.
 Initialization pass.
                           ----------------------------
                           !    Initial Parameters    !
                           ! (Angstroms and Degrees)  !
 --------------------------                            --------------------------
 ! Name  Definition              Value          Derivative Info.                !
 --------------------------------------------------------------------------------
 ! R1    R(1,2)                  1.0906         calculate D2E/DX2 analytically  !
 ! R2    R(1,3)                  1.0959         calculate D2E/DX2 analytically  !
 ! R3    R(1,4)                  1.0935         calculate D2E/DX2 analytically  !
 ! R4    R(1,5)                  1.5338         calculate D2E/DX2 analytically  !
 ! R5    R(5,6)                  1.0961         calculate D2E/DX2 analytically  !
 ! R6    R(5,19)                 1.5365         calculate D2E/DX2 analytically  !
 ! R7    R(5,27)                 1.5383         calculate D2E/DX2 analytically  !
 ! R8    R(7,8)                  1.3516         calculate D2E/DX2 analytically  !
 ! R9    R(7,9)                  1.0887         calculate D2E/DX2 analytically  !
 ! R10   R(7,10)                 1.5051         calculate D2E/DX2 analytically  !
 ! R11   R(7,27)                 1.5402         calculate D2E/DX2 analytically  !
 ! R12   R(10,11)                1.1043         calculate D2E/DX2 analytically  !
 ! R13   R(10,12)                1.0957         calculate D2E/DX2 analytically  !
 ! R14   R(10,13)                1.543          calculate D2E/DX2 analytically  !
 ! R15   R(13,14)                1.0976         calculate D2E/DX2 analytically  !
 ! R16   R(13,15)                1.5346         calculate D2E/DX2 analytically  !
 ! R17   R(13,23)                1.535          calculate D2E/DX2 analytically  !
 ! R18   R(15,16)                1.0957         calculate D2E/DX2 analytically  !
 ! R19   R(15,17)                1.0936         calculate D2E/DX2 analytically  !
 ! R20   R(15,18)                1.0937         calculate D2E/DX2 analytically  !
 ! R21   R(19,20)                1.0956         calculate D2E/DX2 analytically  !
 ! R22   R(19,21)                1.0931         calculate D2E/DX2 analytically  !
 ! R23   R(19,22)                1.0932         calculate D2E/DX2 analytically  !
 ! R24   R(23,24)                1.0936         calculate D2E/DX2 analytically  !
 ! R25   R(23,25)                1.0959         calculate D2E/DX2 analytically  !
 ! R26   R(23,26)                1.093          calculate D2E/DX2 analytically  !
 ! R27   R(27,28)                1.098          calculate D2E/DX2 analytically  !
 ! R28   R(27,29)                1.4465         calculate D2E/DX2 analytically  !
 ! R29   R(29,30)                1.4246         calculate D2E/DX2 analytically  !
 ! A1    A(2,1,3)              107.9367         calculate D2E/DX2 analytically  !
 ! A2    A(2,1,4)              108.4505         calculate D2E/DX2 analytically  !
 ! A3    A(2,1,5)              111.2501         calculate D2E/DX2 analytically  !
 ! A4    A(3,1,4)              107.664          calculate D2E/DX2 analytically  !
 ! A5    A(3,1,5)              110.9879         calculate D2E/DX2 analytically  !
 ! A6    A(4,1,5)              110.4261         calculate D2E/DX2 analytically  !
 ! A7    A(1,5,6)              108.3391         calculate D2E/DX2 analytically  !
 ! A8    A(1,5,19)             110.8252         calculate D2E/DX2 analytically  !
 ! A9    A(1,5,27)             110.8656         calculate D2E/DX2 analytically  !
 ! A10   A(6,5,19)             108.7781         calculate D2E/DX2 analytically  !
 ! A11   A(6,5,27)             107.4486         calculate D2E/DX2 analytically  !
 ! A12   A(19,5,27)            110.4745         calculate D2E/DX2 analytically  !
 ! A13   A(8,7,9)              106.5162         calculate D2E/DX2 analytically  !
 ! A14   A(8,7,10)             109.1544         calculate D2E/DX2 analytically  !
 ! A15   A(8,7,27)              87.351          calculate D2E/DX2 analytically  !
 ! A16   A(9,7,10)             115.7831         calculate D2E/DX2 analytically  !
 ! A17   A(9,7,27)             115.8435         calculate D2E/DX2 analytically  !
 ! A18   A(10,7,27)            117.3847         calculate D2E/DX2 analytically  !
 ! A19   A(7,10,11)            108.1931         calculate D2E/DX2 analytically  !
 ! A20   A(7,10,12)            108.5378         calculate D2E/DX2 analytically  !
 ! A21   A(7,10,13)            115.8847         calculate D2E/DX2 analytically  !
 ! A22   A(11,10,12)           105.913          calculate D2E/DX2 analytically  !
 ! A23   A(11,10,13)           108.4759         calculate D2E/DX2 analytically  !
 ! A24   A(12,10,13)           109.3775         calculate D2E/DX2 analytically  !
 ! A25   A(10,13,14)           107.2908         calculate D2E/DX2 analytically  !
 ! A26   A(10,13,15)           110.0927         calculate D2E/DX2 analytically  !
 ! A27   A(10,13,23)           112.5532         calculate D2E/DX2 analytically  !
 ! A28   A(14,13,15)           107.8092         calculate D2E/DX2 analytically  !
 ! A29   A(14,13,23)           108.1522         calculate D2E/DX2 analytically  !
 ! A30   A(15,13,23)           110.7495         calculate D2E/DX2 analytically  !
 ! A31   A(13,15,16)           110.9623         calculate D2E/DX2 analytically  !
 ! A32   A(13,15,17)           111.0639         calculate D2E/DX2 analytically  !
 ! A33   A(13,15,18)           111.3901         calculate D2E/DX2 analytically  !
 ! A34   A(16,15,17)           107.6311         calculate D2E/DX2 analytically  !
 ! A35   A(16,15,18)           107.7986         calculate D2E/DX2 analytically  !
 ! A36   A(17,15,18)           107.8294         calculate D2E/DX2 analytically  !
 ! A37   A(5,19,20)            110.8714         calculate D2E/DX2 analytically  !
 ! A38   A(5,19,21)            110.4197         calculate D2E/DX2 analytically  !
 ! A39   A(5,19,22)            112.6594         calculate D2E/DX2 analytically  !
 ! A40   A(20,19,21)           107.4453         calculate D2E/DX2 analytically  !
 ! A41   A(20,19,22)           107.7809         calculate D2E/DX2 analytically  !
 ! A42   A(21,19,22)           107.4521         calculate D2E/DX2 analytically  !
 ! A43   A(13,23,24)           110.754          calculate D2E/DX2 analytically  !
 ! A44   A(13,23,25)           110.8374         calculate D2E/DX2 analytically  !
 ! A45   A(13,23,26)           112.3299         calculate D2E/DX2 analytically  !
 ! A46   A(24,23,25)           107.5854         calculate D2E/DX2 analytically  !
 ! A47   A(24,23,26)           107.2487         calculate D2E/DX2 analytically  !
 ! A48   A(25,23,26)           107.8831         calculate D2E/DX2 analytically  !
 ! A49   A(5,27,7)             114.2283         calculate D2E/DX2 analytically  !
 ! A50   A(5,27,28)            109.6932         calculate D2E/DX2 analytically  !
 ! A51   A(5,27,29)            113.3436         calculate D2E/DX2 analytically  !
 ! A52   A(7,27,28)            112.2792         calculate D2E/DX2 analytically  !
 ! A53   A(7,27,29)            102.8391         calculate D2E/DX2 analytically  !
 ! A54   A(28,27,29)           103.8688         calculate D2E/DX2 analytically  !
 ! A55   A(27,29,30)           103.7331         calculate D2E/DX2 analytically  !
 ! D1    D(2,1,5,6)            -59.5759         calculate D2E/DX2 analytically  !
 ! D2    D(2,1,5,19)          -178.8452         calculate D2E/DX2 analytically  !
 ! D3    D(2,1,5,27)            58.0965         calculate D2E/DX2 analytically  !
 ! D4    D(3,1,5,6)           -179.7808         calculate D2E/DX2 analytically  !
 ! D5    D(3,1,5,19)            60.9499         calculate D2E/DX2 analytically  !
 ! D6    D(3,1,5,27)           -62.1085         calculate D2E/DX2 analytically  !
 ! D7    D(4,1,5,6)             60.9004         calculate D2E/DX2 analytically  !
 ! D8    D(4,1,5,19)           -58.3689         calculate D2E/DX2 analytically  !
 ! D9    D(4,1,5,27)           178.5728         calculate D2E/DX2 analytically  !
 ! D10   D(1,5,19,20)          -61.4577         calculate D2E/DX2 analytically  !
 ! D11   D(1,5,19,21)           57.5097         calculate D2E/DX2 analytically  !
 ! D12   D(1,5,19,22)          177.6558         calculate D2E/DX2 analytically  !
 ! D13   D(6,5,19,20)          179.5374         calculate D2E/DX2 analytically  !
 ! D14   D(6,5,19,21)          -61.4952         calculate D2E/DX2 analytically  !
 ! D15   D(6,5,19,22)           58.6509         calculate D2E/DX2 analytically  !
 ! D16   D(27,5,19,20)          61.8264         calculate D2E/DX2 analytically  !
 ! D17   D(27,5,19,21)        -179.2062         calculate D2E/DX2 analytically  !
 ! D18   D(27,5,19,22)         -59.0601         calculate D2E/DX2 analytically  !
 ! D19   D(1,5,27,7)          -166.7994         calculate D2E/DX2 analytically  !
 ! D20   D(1,5,27,28)           66.1418         calculate D2E/DX2 analytically  !
 ! D21   D(1,5,27,29)          -49.4372         calculate D2E/DX2 analytically  !
 ! D22   D(6,5,27,7)           -48.585          calculate D2E/DX2 analytically  !
 ! D23   D(6,5,27,28)         -175.6438         calculate D2E/DX2 analytically  !
 ! D24   D(6,5,27,29)           68.7772         calculate D2E/DX2 analytically  !
 ! D25   D(19,5,27,7)           69.94           calculate D2E/DX2 analytically  !
 ! D26   D(19,5,27,28)         -57.1188         calculate D2E/DX2 analytically  !
 ! D27   D(19,5,27,29)        -172.6979         calculate D2E/DX2 analytically  !
 ! D28   D(8,7,10,11)          171.735          calculate D2E/DX2 analytically  !
 ! D29   D(8,7,10,12)           57.2407         calculate D2E/DX2 analytically  !
 ! D30   D(8,7,10,13)          -66.2422         calculate D2E/DX2 analytically  !
 ! D31   D(9,7,10,11)          -68.1321         calculate D2E/DX2 analytically  !
 ! D32   D(9,7,10,12)          177.3735         calculate D2E/DX2 analytically  !
 ! D33   D(9,7,10,13)           53.8907         calculate D2E/DX2 analytically  !
 ! D34   D(27,7,10,11)          74.5642         calculate D2E/DX2 analytically  !
 ! D35   D(27,7,10,12)         -39.9302         calculate D2E/DX2 analytically  !
 ! D36   D(27,7,10,13)        -163.413          calculate D2E/DX2 analytically  !
 ! D37   D(8,7,27,5)            92.4261         calculate D2E/DX2 analytically  !
 ! D38   D(8,7,27,28)         -141.8614         calculate D2E/DX2 analytically  !
 ! D39   D(8,7,27,29)          -30.8191         calculate D2E/DX2 analytically  !
 ! D40   D(9,7,27,5)           -14.6599         calculate D2E/DX2 analytically  !
 ! D41   D(9,7,27,28)          111.0526         calculate D2E/DX2 analytically  !
 ! D42   D(9,7,27,29)         -137.9051         calculate D2E/DX2 analytically  !
 ! D43   D(10,7,27,5)         -157.3339         calculate D2E/DX2 analytically  !
 ! D44   D(10,7,27,28)         -31.6214         calculate D2E/DX2 analytically  !
 ! D45   D(10,7,27,29)          79.4209         calculate D2E/DX2 analytically  !
 ! D46   D(7,10,13,14)          56.0655         calculate D2E/DX2 analytically  !
 ! D47   D(7,10,13,15)         173.1275         calculate D2E/DX2 analytically  !
 ! D48   D(7,10,13,23)         -62.789          calculate D2E/DX2 analytically  !
 ! D49   D(11,10,13,14)        177.938          calculate D2E/DX2 analytically  !
 ! D50   D(11,10,13,15)        -65.0            calculate D2E/DX2 analytically  !
 ! D51   D(11,10,13,23)         59.0835         calculate D2E/DX2 analytically  !
 ! D52   D(12,10,13,14)        -66.9776         calculate D2E/DX2 analytically  !
 ! D53   D(12,10,13,15)         50.0844         calculate D2E/DX2 analytically  !
 ! D54   D(12,10,13,23)        174.1679         calculate D2E/DX2 analytically  !
 ! D55   D(10,13,15,16)         62.9803         calculate D2E/DX2 analytically  !
 ! D56   D(10,13,15,17)       -177.3413         calculate D2E/DX2 analytically  !
 ! D57   D(10,13,15,18)        -57.1266         calculate D2E/DX2 analytically  !
 ! D58   D(14,13,15,16)        179.7191         calculate D2E/DX2 analytically  !
 ! D59   D(14,13,15,17)        -60.6024         calculate D2E/DX2 analytically  !
 ! D60   D(14,13,15,18)         59.6122         calculate D2E/DX2 analytically  !
 ! D61   D(23,13,15,16)        -62.1412         calculate D2E/DX2 analytically  !
 ! D62   D(23,13,15,17)         57.5373         calculate D2E/DX2 analytically  !
 ! D63   D(23,13,15,18)        177.752          calculate D2E/DX2 analytically  !
 ! D64   D(10,13,23,24)       -179.1316         calculate D2E/DX2 analytically  !
 ! D65   D(10,13,23,25)        -59.7954         calculate D2E/DX2 analytically  !
 ! D66   D(10,13,23,26)         60.9707         calculate D2E/DX2 analytically  !
 ! D67   D(14,13,23,24)         62.5187         calculate D2E/DX2 analytically  !
 ! D68   D(14,13,23,25)       -178.1451         calculate D2E/DX2 analytically  !
 ! D69   D(14,13,23,26)        -57.379          calculate D2E/DX2 analytically  !
 ! D70   D(15,13,23,24)        -55.412          calculate D2E/DX2 analytically  !
 ! D71   D(15,13,23,25)         63.9242         calculate D2E/DX2 analytically  !
 ! D72   D(15,13,23,26)       -175.3097         calculate D2E/DX2 analytically  !
 ! D73   D(5,27,29,30)         -80.2621         calculate D2E/DX2 analytically  !
 ! D74   D(7,27,29,30)          43.5714         calculate D2E/DX2 analytically  !
 ! D75   D(28,27,29,30)        160.7515         calculate D2E/DX2 analytically  !
 --------------------------------------------------------------------------------
 Trust Radius=3.00D-01 FncErr=1.00D-07 GrdErr=1.00D-06
 Number of steps in this run=    169 maximum allowed number of steps=    180.
 Search for a saddle point of order  1.
 GradGradGradGradGradGradGradGradGradGradGradGradGradGradGradGradGradGrad

 Leave Link  103 at Mon Feb 17 04:52:36 2014, MaxMem= 4026531840 cpu:       0.1
 (Enter /usr/caen/gaussian-09revc/g09/l202.exe)
                          Input orientation:                          
 ---------------------------------------------------------------------
 Center     Atomic      Atomic             Coordinates (Angstroms)
 Number     Number       Type             X           Y           Z
 ---------------------------------------------------------------------
      1          6           0       -3.686777   -0.139474   -0.248072
      2          1           0       -3.715544   -1.194218    0.027717
      3          1           0       -3.809412   -0.071355   -1.334957
      4          1           0       -4.541119    0.362586    0.214357
      5          6           0       -2.374314    0.516375    0.198852
      6          1           0       -2.294149    0.420428    1.287848
      7          6           0        0.187916    0.172579    0.217079
      8          1           0        0.019232   -0.879110    1.049204
      9          1           0        0.186377    1.064524    0.841329
     10          6           0        1.426406   -0.045632   -0.609789
     11          1           0        1.468047    0.741881   -1.382818
     12          1           0        1.321588   -0.992541   -1.150945
     13          6           0        2.761712   -0.042947    0.163418
     14          1           0        2.685301   -0.805622    0.949058
     15          6           0        3.912098   -0.444008   -0.769776
     16          1           0        4.031160    0.283609   -1.580366
     17          1           0        4.860020   -0.492843   -0.226615
     18          1           0        3.735036   -1.423482   -1.223073
     19          6           0       -2.356151    2.008083   -0.168905
     20          1           0       -2.426491    2.143521   -1.253867
     21          1           0       -3.209102    2.522335    0.281520
     22          1           0       -1.449876    2.515083    0.172759
     23          6           0        3.050968    1.307145    0.834071
     24          1           0        4.009486    1.281175    1.359886
     25          1           0        3.103624    2.109169    0.089066
     26          1           0        2.286714    1.579152    1.566616
     27          6           0       -1.163575   -0.204718   -0.418110
     28          1           0       -1.165158   -0.064932   -1.507221
     29          8           0       -1.206580   -1.641100   -0.252835
     30          8           0       -0.749098   -1.841873    1.081322
 ---------------------------------------------------------------------
                    Distance matrix (angstroms):
                    1          2          3          4          5
     1  C    0.000000
     2  H    1.090583   0.000000
     3  H    1.095901   1.768195   0.000000
     4  H    1.093529   1.772018   1.767505   0.000000
     5  C    1.533766   2.180439   2.181170   2.172311   0.000000
     6  H    2.147546   2.493066   3.068710   2.490904   1.096150
     7  C    3.914970   4.140168   4.294991   4.732851   2.585256
     8  H    3.995559   3.884750   4.582053   4.799540   2.898196
     9  H    4.199729   4.581361   4.689645   4.820273   2.696365
    10  C    5.126820   5.307100   5.285860   6.037981   3.926223
    11  H    5.351322   5.710316   5.339964   6.229359   4.161282
    12  H    5.160099   5.177124   5.216283   6.170231   4.214080
    13  C    6.462326   6.580174   6.739852   7.314260   5.166513
    14  H    6.517688   6.478479   6.923667   7.357013   5.283009
    15  C    7.622848   7.705825   7.751130   8.548450   6.432694
    16  H    7.843504   8.048685   7.852439   8.758495   6.652059
    17  H    8.554126   8.607956   8.750150   9.450271   7.316771
    18  H    7.594907   7.558319   7.665472   8.587839   6.565750
    19  C    2.527614   3.484443   2.792079   2.761998   1.536479
    20  H    2.794997   3.800607   2.612417   3.130345   2.181907
    21  H    2.755697   3.759477   3.114578   2.538365   2.174300
    22  H    3.496784   4.348931   3.811860   3.767062   2.202294
    23  C    6.975740   7.258974   7.325965   7.675677   5.519285
    24  H    7.989758   8.220604   8.380136   8.675764   6.533439
    25  H    7.160978   7.577413   7.387327   7.842726   5.705861
    26  H    6.475289   6.788733   6.950255   7.065971   4.972470
    27  C    2.529766   2.773160   2.803364   3.482765   1.538345
    28  H    2.819499   3.183676   2.649867   3.813622   2.170406
    29  O    2.899359   2.563847   3.226426   3.918185   2.494458
    30  O    3.646287   3.213929   4.282366   4.471095   2.996901
                    6          7          8          9         10
     6  H    0.000000
     7  C    2.714521   0.000000
     8  H    2.664110   1.351642   0.000000
     9  H    2.601393   1.088695   1.961852   0.000000
    10  C    4.202472   1.505053   2.329610   2.208135   0.000000
    11  H    4.624922   2.126620   3.262117   2.587200   1.104303
    12  H    4.584512   2.124666   2.559229   3.080483   1.095661
    13  C    5.200076   2.583362   3.000830   2.884165   1.543016
    14  H    5.139348   2.780216   2.668961   3.123087   2.142990
    15  C    6.595344   3.901742   4.318843   4.330395   2.522492
    16  H    6.946575   4.244250   4.935800   4.610509   2.799136
    17  H    7.369518   4.740064   5.020971   5.040718   3.483752
    18  H    6.786442   4.147711   4.389394   4.800511   2.757600
    19  C    2.155602   3.160749   3.932190   2.894015   4.326646
    20  H    3.073578   3.589348   4.519070   3.518687   4.477951
    21  H    2.503567   4.131009   4.751979   3.737362   5.373716
    22  H    2.518690   2.858610   3.800918   2.286576   3.929713
    23  C    5.437137   3.140858   3.743984   2.874856   2.560066
    24  H    6.362538   4.139975   4.548129   3.864195   3.508894
    25  H    5.781425   3.502588   4.400585   3.188654   2.818621
    26  H    4.733356   2.864376   3.384116   2.280855   2.848998
    27  C    2.139929   1.540242   2.001711   2.240431   2.601932
    28  H    3.053294   2.204639   2.932742   2.935644   2.742619
    29  O    2.793995   2.335566   1.943849   3.233872   3.099282
    30  O    2.747334   2.383889   1.232183   3.062655   3.289249
                   11         12         13         14         15
    11  H    0.000000
    12  H    1.755971   0.000000
    13  C    2.163416   2.168695   0.000000
    14  H    3.051904   2.510909   1.097607   0.000000
    15  C    2.784877   2.675242   1.534630   2.142472   0.000000
    16  H    2.611242   3.025680   2.181495   3.065248   1.095746
    17  H    3.790360   3.691150   2.181153   2.491875   1.093602
    18  H    3.139037   2.452681   2.185313   2.490351   1.093709
    19  C    4.207296   4.847052   5.523557   5.880733   6.757569
    20  H    4.141093   4.888105   5.805755   6.299265   6.863480
    21  H    5.274065   5.910454   6.499634   6.801830   7.785622
    22  H    3.752111   4.662256   4.927583   5.359982   6.196399
    23  C    2.782042   3.495654   1.534990   2.147258   2.525947
    24  H    3.777853   4.324217   2.177562   2.505388   2.742481
    25  H    2.590566   3.786012   2.180375   3.067668   2.812464
    26  H    3.173389   3.863963   2.196769   2.495475   3.491959
    27  C    2.958403   2.708089   3.971426   4.128448   5.093465
    28  H    2.756845   2.677928   4.267532   4.626874   5.144517
    29  O    3.756207   2.760229   4.298221   4.158041   5.282151
    30  O    4.202797   3.161032   4.050243   3.589764   5.206471
                   16         17         18         19         20
    16  H    0.000000
    17  H    1.767068   0.000000
    18  H    1.769041   1.767656   0.000000
    19  C    6.764893   7.637479   7.070323   0.000000
    20  H    6.728085   7.816579   7.119612   1.095643   0.000000
    21  H    7.803839   8.629034   8.127381   1.093098   1.764481
    22  H    6.172089   7.001565   6.659126   1.093214   1.768360
    23  C    2.799626   2.763635   3.486562   5.543844   5.921281
    24  H    3.104946   2.527357   3.749956   6.586876   6.999796
    25  H    2.641968   3.155162   3.820996   5.466801   5.690942
    26  H    3.824267   3.759088   4.346931   4.975159   5.521588
    27  C    5.345519   6.033522   5.111726   2.526030   2.794221
    28  H    5.208508   6.174612   5.092966   2.739881   2.555859
    29  O    5.735919   6.174368   5.040663   3.826891   4.100439
    30  O    5.869678   5.915470   5.058927   4.355209   4.914277
                   21         22         23         24         25
    21  H    0.000000
    22  H    1.762600   0.000000
    23  C    6.400818   4.706808   0.000000
    24  H    7.403470   5.721576   1.093578   0.000000
    25  H    6.329159   4.572322   1.095923   1.766676   0.000000
    26  H    5.722330   4.096451   1.093021   1.760531   1.769580
    27  C    3.480012   2.797930   4.649307   5.668307   4.880603
    28  H    3.751167   3.091905   5.013977   6.067062   5.049490
    29  O    4.650787   4.184995   5.291524   6.192569   5.723572
    30  O    5.073225   4.505512   4.941452   5.698697   5.607029
                   26         27         28         29         30
    26  H    0.000000
    27  C    4.361860   0.000000
    28  H    4.905803   1.098046   0.000000
    29  O    5.087586   1.446499   2.014821   0.000000
    30  O    4.599465   2.258399   3.167204   1.424631   0.000000
 Stoichiometry    C9H19O2(2)
 Framework group  C1[X(C9H19O2)]
 Deg. of freedom    84
 Full point group                 C1      NOp   1
 Largest Abelian subgroup         C1      NOp   1
 Largest concise Abelian subgroup C1      NOp   1
                         Standard orientation:                         
 ---------------------------------------------------------------------
 Center     Atomic      Atomic             Coordinates (Angstroms)
 Number     Number       Type             X           Y           Z
 ---------------------------------------------------------------------
      1          6           0       -3.686777   -0.139474   -0.248072
      2          1           0       -3.715544   -1.194218    0.027717
      3          1           0       -3.809412   -0.071355   -1.334957
      4          1           0       -4.541119    0.362586    0.214357
      5          6           0       -2.374314    0.516375    0.198852
      6          1           0       -2.294149    0.420428    1.287848
      7          6           0        0.187916    0.172579    0.217079
      8          1           0        0.019232   -0.879110    1.049204
      9          1           0        0.186377    1.064524    0.841329
     10          6           0        1.426406   -0.045632   -0.609789
     11          1           0        1.468047    0.741881   -1.382818
     12          1           0        1.321588   -0.992541   -1.150945
     13          6           0        2.761712   -0.042947    0.163418
     14          1           0        2.685301   -0.805622    0.949058
     15          6           0        3.912098   -0.444008   -0.769776
     16          1           0        4.031160    0.283609   -1.580366
     17          1           0        4.860020   -0.492843   -0.226615
     18          1           0        3.735036   -1.423482   -1.223073
     19          6           0       -2.356151    2.008083   -0.168905
     20          1           0       -2.426491    2.143521   -1.253867
     21          1           0       -3.209102    2.522335    0.281520
     22          1           0       -1.449876    2.515083    0.172759
     23          6           0        3.050968    1.307145    0.834071
     24          1           0        4.009486    1.281175    1.359886
     25          1           0        3.103624    2.109169    0.089066
     26          1           0        2.286714    1.579152    1.566616
     27          6           0       -1.163575   -0.204718   -0.418110
     28          1           0       -1.165158   -0.064932   -1.507221
     29          8           0       -1.206580   -1.641100   -0.252835
     30          8           0       -0.749098   -1.841873    1.081322
 ---------------------------------------------------------------------
 Rotational constants (GHZ):      1.8530030      0.5081433      0.4451126
 Leave Link  202 at Mon Feb 17 04:52:37 2014, MaxMem= 4026531840 cpu:       0.3
 (Enter /usr/caen/gaussian-09revc/g09/l301.exe)
 Standard basis: 6-311G(2d,d,p) (5D, 7F)
 Ernie: Thresh=  0.10000D-02 Tol=  0.10000D-05 Strict=F.
 There are   312 symmetry adapted basis functions of A   symmetry.
 Integral buffers will be    131072 words long.
 Raffenetti 2 integral format.
 Two-electron integral symmetry is turned on.
   312 basis functions,   504 primitive gaussians,   323 cartesian basis functions
    45 alpha electrons       44 beta electrons
       nuclear repulsion energy       669.5508202779 Hartrees.
 IExCor=  402 DFT=T Ex+Corr=B3LYP ExCW=0 ScaHFX=  0.200000
 ScaDFX=  0.800000  0.720000  1.000000  0.810000 ScalE2=  1.000000  1.000000
 IRadAn=      0 IRanWt=     -1 IRanGd=            0 ICorTp=0
 NAtoms=   30 NActive=   30 NUniq=   30 SFac= 1.00D+00 NAtFMM=   60 NAOKFM=F Big=F
 Leave Link  301 at Mon Feb 17 04:52:37 2014, MaxMem= 4026531840 cpu:       0.8
 (Enter /usr/caen/gaussian-09revc/g09/l302.exe)
 NPDir=0 NMtPBC=     1 NCelOv=     1 NCel=       1 NClECP=     1 NCelD=      1
         NCelK=      1 NCelE2=     1 NClLst=     1 CellRange=     0.0.
 One-electron integrals computed using PRISM.
 NBasis=   312 RedAO= T  NBF=   312
 NBsUse=   312 1.00D-06 NBFU=   312
 Precomputing XC quadrature grid using
 IXCGrd= 2 IRadAn=           0 IRanWt=          -1 IRanGd=           0 AccXCQ= 0.00D+00.
 NRdTot=    1910 NPtTot=      243552 NUsed=      257325 NTot=      257357
 NSgBfM=   323   323   323   323   323 NAtAll=    30    30.
 Leave Link  302 at Mon Feb 17 04:52:38 2014, MaxMem= 4026531840 cpu:       3.8
 (Enter /usr/caen/gaussian-09revc/g09/l303.exe)
 DipDrv:  MaxL=1.
 Leave Link  303 at Mon Feb 17 04:52:38 2014, MaxMem= 4026531840 cpu:       1.3
 (Enter /usr/caen/gaussian-09revc/g09/l401.exe)
 Harris functional with IExCor=  402 diagonalized for initial guess.
 ExpMin= 1.03D-01 ExpMax= 8.59D+03 ExpMxC= 1.30D+03 IAcc=1 IRadAn=         1 AccDes= 0.00D+00
 HarFok:  IExCor=  402 AccDes= 0.00D+00 IRadAn=         1 IDoV= 1
 ScaDFX=  1.000000  1.000000  1.000000  1.000000
 FoFCou: FMM=F IPFlag=           0 FMFlag=      100000 FMFlg1=           0
         NFxFlg=           0 DoJE=T BraDBF=F KetDBF=T FulRan=T
         Omega=  0.000000  0.000000  1.000000  0.000000  0.000000 ICntrl=     500 IOpCl=  0
         NMat0=    1 NMatS0=    1 NMatT0=    0 NMatD0=    1 NMtDS0=    0 NMtDT0=    0
         I1Cent=           4 NGrid=           0.
 Petite list used in FoFCou.
 Harris En= -504.882985059096    
 Initial guess orbital symmetries:
 Alpha Orbitals:
       Occupied  (A) (A) (A) (A) (A) (A) (A) (A) (A) (A) (A) (A)
                 (A) (A) (A) (A) (A) (A) (A) (A) (A) (A) (A) (A)
                 (A) (A) (A) (A) (A) (A) (A) (A) (A) (A) (A) (A)
                 (A) (A) (A) (A) (A) (A) (A) (A) (A)
       Virtual   (A) (A) (A) (A) (A) (A) (A) (A) (A) (A) (A) (A)
                 (A) (A) (A) (A) (A) (A) (A) (A) (A) (A) (A) (A)
                 (A) (A) (A) (A) (A) (A) (A) (A) (A) (A) (A) (A)
                 (A) (A) (A) (A) (A) (A) (A) (A) (A) (A) (A) (A)
                 (A) (A) (A) (A) (A) (A) (A) (A) (A) (A) (A) (A)
                 (A) (A) (A) (A) (A) (A) (A) (A) (A) (A) (A) (A)
                 (A) (A) (A) (A) (A) (A) (A) (A) (A) (A) (A) (A)
                 (A) (A) (A) (A) (A) (A) (A) (A) (A) (A) (A) (A)
                 (A) (A) (A) (A) (A) (A) (A) (A) (A) (A) (A) (A)
                 (A) (A) (A) (A) (A) (A) (A) (A) (A) (A) (A) (A)
                 (A) (A) (A) (A) (A) (A) (A) (A) (A) (A) (A) (A)
                 (A) (A) (A) (A) (A) (A) (A) (A) (A) (A) (A) (A)
                 (A) (A) (A) (A) (A) (A) (A) (A) (A) (A) (A) (A)
                 (A) (A) (A) (A) (A) (A) (A) (A) (A) (A) (A) (A)
                 (A) (A) (A) (A) (A) (A) (A) (A) (A) (A) (A) (A)
                 (A) (A) (A) (A) (A) (A) (A) (A) (A) (A) (A) (A)
                 (A) (A) (A) (A) (A) (A) (A) (A) (A) (A) (A) (A)
                 (A) (A) (A) (A) (A) (A) (A) (A) (A) (A) (A) (A)
                 (A) (A) (A) (A) (A) (A) (A) (A) (A) (A) (A) (A)
                 (A) (A) (A) (A) (A) (A) (A) (A) (A) (A) (A) (A)
                 (A) (A) (A) (A) (A) (A) (A) (A) (A) (A) (A) (A)
                 (A) (A) (A) (A) (A) (A) (A) (A) (A) (A) (A) (A)
                 (A) (A) (A)
 Beta  Orbitals:
       Occupied  (A) (A) (A) (A) (A) (A) (A) (A) (A) (A) (A) (A)
                 (A) (A) (A) (A) (A) (A) (A) (A) (A) (A) (A) (A)
                 (A) (A) (A) (A) (A) (A) (A) (A) (A) (A) (A) (A)
                 (A) (A) (A) (A) (A) (A) (A) (A)
       Virtual   (A) (A) (A) (A) (A) (A) (A) (A) (A) (A) (A) (A)
                 (A) (A) (A) (A) (A) (A) (A) (A) (A) (A) (A) (A)
                 (A) (A) (A) (A) (A) (A) (A) (A) (A) (A) (A) (A)
                 (A) (A) (A) (A) (A) (A) (A) (A) (A) (A) (A) (A)
                 (A) (A) (A) (A) (A) (A) (A) (A) (A) (A) (A) (A)
                 (A) (A) (A) (A) (A) (A) (A) (A) (A) (A) (A) (A)
                 (A) (A) (A) (A) (A) (A) (A) (A) (A) (A) (A) (A)
                 (A) (A) (A) (A) (A) (A) (A) (A) (A) (A) (A) (A)
                 (A) (A) (A) (A) (A) (A) (A) (A) (A) (A) (A) (A)
                 (A) (A) (A) (A) (A) (A) (A) (A) (A) (A) (A) (A)
                 (A) (A) (A) (A) (A) (A) (A) (A) (A) (A) (A) (A)
                 (A) (A) (A) (A) (A) (A) (A) (A) (A) (A) (A) (A)
                 (A) (A) (A) (A) (A) (A) (A) (A) (A) (A) (A) (A)
                 (A) (A) (A) (A) (A) (A) (A) (A) (A) (A) (A) (A)
                 (A) (A) (A) (A) (A) (A) (A) (A) (A) (A) (A) (A)
                 (A) (A) (A) (A) (A) (A) (A) (A) (A) (A) (A) (A)
                 (A) (A) (A) (A) (A) (A) (A) (A) (A) (A) (A) (A)
                 (A) (A) (A) (A) (A) (A) (A) (A) (A) (A) (A) (A)
                 (A) (A) (A) (A) (A) (A) (A) (A) (A) (A) (A) (A)
                 (A) (A) (A) (A) (A) (A) (A) (A) (A) (A) (A) (A)
                 (A) (A) (A) (A) (A) (A) (A) (A) (A) (A) (A) (A)
                 (A) (A) (A) (A) (A) (A) (A) (A) (A) (A) (A) (A)
                 (A) (A) (A) (A)
 The electronic state of the initial guess is 2-A.
 Initial guess <Sx>= 0.0000 <Sy>= 0.0000 <Sz>= 0.5000 <S**2>= 0.7500 S= 0.5000
 Leave Link  401 at Mon Feb 17 04:52:40 2014, MaxMem= 4026531840 cpu:       6.6
 (Enter /usr/caen/gaussian-09revc/g09/l502.exe)
 UHF open shell SCF:
 Requested convergence on RMS density matrix=1.00D-08 within 128 cycles.
 Requested convergence on MAX density matrix=1.00D-06.
 Requested convergence on             energy=1.00D-06.
 No special actions if energy rises.
 Using DIIS extrapolation, IDIIS=  1040.
 Integral symmetry usage will be decided dynamically.
       257042 words used for storage of precomputed grid.
 Keep R1 and R2 ints in memory in canonical form, NReq=2755661773.
 IEnd=      593200 IEndB=      593200 NGot=  4026531840 MDV=  1287997303
 LenX=  1287997303 LenY=  1287892533
 Symmetry not used in FoFDir.
 MinBra= 0 MaxBra= 2 Meth= 1.
 IRaf=       0 NMat=   1 IRICut=       1 DoRegI=T DoRafI=F ISym2E= 0 JSym2E=0.
 Integral accuracy reduced to 1.0D-05 until final iterations.

 Cycle   1  Pass 0  IDiag  1:
 E= -504.416532319366    
 DIIS: error= 3.64D-02 at cycle   1 NSaved=   1.
 NSaved= 1 IEnMin= 1 EnMin= -504.416532319366     IErMin= 1 ErrMin= 3.64D-02
 ErrMax= 3.64D-02 EMaxC= 1.00D-01 BMatC= 1.59D+00 BMatP= 1.59D+00
 IDIUse=3 WtCom= 6.36D-01 WtEn= 3.64D-01
 Coeff-Com:  0.100D+01
 Coeff-En:   0.100D+01
 Coeff:      0.100D+01
 Gap=     0.232 Goal=   None    Shift=    0.000
 Gap=     0.077 Goal=   None    Shift=    0.000
 GapD=    0.077 DampG=0.500 DampE=0.500 DampFc=0.2500 IDamp=-1.
 Damping current iteration by 2.50D-01
 RMSDP=3.51D-03 MaxDP=1.21D-01              OVMax= 4.20D-01

 Cycle   2  Pass 0  IDiag  1:
 E= -504.562396902058     Delta-E=       -0.145864582692 Rises=F Damp=T
 DIIS: error= 1.58D-02 at cycle   2 NSaved=   2.
 NSaved= 2 IEnMin= 2 EnMin= -504.562396902058     IErMin= 2 ErrMin= 1.58D-02
 ErrMax= 1.58D-02 EMaxC= 1.00D-01 BMatC= 3.82D-01 BMatP= 1.59D+00
 IDIUse=3 WtCom= 8.42D-01 WtEn= 1.58D-01
 Coeff-Com: -0.729D+00 0.173D+01
 Coeff-En:   0.000D+00 0.100D+01
 Coeff:     -0.613D+00 0.161D+01
 Gap=     0.306 Goal=   None    Shift=    0.000
 Gap=     0.177 Goal=   None    Shift=    0.000
 RMSDP=1.06D-03 MaxDP=3.67D-02 DE=-1.46D-01 OVMax= 3.85D-01

 Cycle   3  Pass 0  IDiag  1:
 E= -504.789451150189     Delta-E=       -0.227054248131 Rises=F Damp=F
 DIIS: error= 9.93D-03 at cycle   3 NSaved=   3.
 NSaved= 3 IEnMin= 3 EnMin= -504.789451150189     IErMin= 3 ErrMin= 9.93D-03
 ErrMax= 9.93D-03 EMaxC= 1.00D-01 BMatC= 1.17D-01 BMatP= 3.82D-01
 IDIUse=3 WtCom= 9.01D-01 WtEn= 9.93D-02
 Coeff-Com: -0.380D+00 0.875D+00 0.506D+00
 Coeff-En:   0.000D+00 0.000D+00 0.100D+01
 Coeff:     -0.343D+00 0.788D+00 0.555D+00
 Gap=     0.296 Goal=   None    Shift=    0.000
 Gap=     0.092 Goal=   None    Shift=    0.000
 RMSDP=7.89D-04 MaxDP=3.64D-02 DE=-2.27D-01 OVMax= 2.41D-01

 Cycle   4  Pass 0  IDiag  1:
 E= -504.804729369784     Delta-E=       -0.015278219595 Rises=F Damp=F
 DIIS: error= 5.95D-03 at cycle   4 NSaved=   4.
 NSaved= 4 IEnMin= 4 EnMin= -504.804729369784     IErMin= 4 ErrMin= 5.95D-03
 ErrMax= 5.95D-03 EMaxC= 1.00D-01 BMatC= 5.87D-02 BMatP= 1.17D-01
 IDIUse=3 WtCom= 9.41D-01 WtEn= 5.95D-02
 Coeff-Com: -0.527D-01 0.143D+00 0.406D+00 0.503D+00
 Coeff-En:   0.000D+00 0.000D+00 0.334D+00 0.666D+00
 Coeff:     -0.495D-01 0.134D+00 0.402D+00 0.513D+00
 Gap=     0.270 Goal=   None    Shift=    0.000
 Gap=     0.097 Goal=   None    Shift=    0.000
 RMSDP=2.65D-04 MaxDP=1.14D-02 DE=-1.53D-02 OVMax= 3.59D-02

 Cycle   5  Pass 0  IDiag  1:
 E= -504.816456022838     Delta-E=       -0.011726653054 Rises=F Damp=F
 DIIS: error= 1.23D-03 at cycle   5 NSaved=   5.
 NSaved= 5 IEnMin= 5 EnMin= -504.816456022838     IErMin= 5 ErrMin= 1.23D-03
 ErrMax= 1.23D-03 EMaxC= 1.00D-01 BMatC= 2.01D-03 BMatP= 5.87D-02
 IDIUse=3 WtCom= 9.88D-01 WtEn= 1.23D-02
 Coeff-Com:  0.644D-02 0.394D-02 0.179D+00 0.211D+00 0.599D+00
 Coeff-En:   0.000D+00 0.000D+00 0.000D+00 0.000D+00 0.100D+01
 Coeff:      0.636D-02 0.389D-02 0.177D+00 0.209D+00 0.604D+00
 Gap=     0.269 Goal=   None    Shift=    0.000
 Gap=     0.101 Goal=   None    Shift=    0.000
 RMSDP=1.04D-04 MaxDP=4.97D-03 DE=-1.17D-02 OVMax= 2.96D-02

 Cycle   6  Pass 0  IDiag  1:
 E= -504.817060437218     Delta-E=       -0.000604414380 Rises=F Damp=F
 DIIS: error= 1.25D-03 at cycle   6 NSaved=   6.
 NSaved= 6 IEnMin= 6 EnMin= -504.817060437218     IErMin= 5 ErrMin= 1.23D-03
 ErrMax= 1.25D-03 EMaxC= 1.00D-01 BMatC= 1.47D-03 BMatP= 2.01D-03
 IDIUse=3 WtCom= 9.88D-01 WtEn= 1.23D-02
 Coeff-Com:  0.215D-01-0.347D-01 0.367D-01-0.976D-02 0.428D+00 0.558D+00
 Coeff-En:   0.000D+00 0.000D+00 0.000D+00 0.000D+00 0.000D+00 0.100D+01
 Coeff:      0.213D-01-0.342D-01 0.362D-01-0.964D-02 0.423D+00 0.563D+00
 Gap=     0.271 Goal=   None    Shift=    0.000
 Gap=     0.103 Goal=   None    Shift=    0.000
 RMSDP=7.90D-05 MaxDP=3.95D-03 DE=-6.04D-04 OVMax= 2.86D-02

 Cycle   7  Pass 0  IDiag  1:
 E= -504.817510395358     Delta-E=       -0.000449958140 Rises=F Damp=F
 DIIS: error= 6.77D-04 at cycle   7 NSaved=   7.
 NSaved= 7 IEnMin= 7 EnMin= -504.817510395358     IErMin= 7 ErrMin= 6.77D-04
 ErrMax= 6.77D-04 EMaxC= 1.00D-01 BMatC= 4.66D-04 BMatP= 1.47D-03
 IDIUse=3 WtCom= 9.93D-01 WtEn= 6.77D-03
 Coeff-Com:  0.144D-01-0.246D-01-0.267D-01-0.103D+00 0.873D-01 0.381D+00
 Coeff-Com:  0.672D+00
 Coeff-En:   0.000D+00 0.000D+00 0.000D+00 0.000D+00 0.000D+00 0.000D+00
 Coeff-En:   0.100D+01
 Coeff:      0.143D-01-0.245D-01-0.265D-01-0.103D+00 0.867D-01 0.378D+00
 Coeff:      0.674D+00
 Gap=     0.274 Goal=   None    Shift=    0.000
 Gap=     0.105 Goal=   None    Shift=    0.000
 RMSDP=7.21D-05 MaxDP=3.69D-03 DE=-4.50D-04 OVMax= 2.67D-02

 Cycle   8  Pass 0  IDiag  1:
 E= -504.817800688478     Delta-E=       -0.000290293120 Rises=F Damp=F
 DIIS: error= 3.62D-04 at cycle   8 NSaved=   8.
 NSaved= 8 IEnMin= 8 EnMin= -504.817800688478     IErMin= 8 ErrMin= 3.62D-04
 ErrMax= 3.62D-04 EMaxC= 1.00D-01 BMatC= 1.38D-04 BMatP= 4.66D-04
 IDIUse=3 WtCom= 9.96D-01 WtEn= 3.62D-03
 Coeff-Com: -0.266D-02 0.712D-02-0.183D-01-0.598D-01-0.173D+00-0.128D+00
 Coeff-Com:  0.313D+00 0.106D+01
 Coeff-En:   0.000D+00 0.000D+00 0.000D+00 0.000D+00 0.000D+00 0.000D+00
 Coeff-En:   0.000D+00 0.100D+01
 Coeff:     -0.265D-02 0.710D-02-0.183D-01-0.596D-01-0.172D+00-0.128D+00
 Coeff:      0.312D+00 0.106D+01
 Gap=     0.274 Goal=   None    Shift=    0.000
 Gap=     0.106 Goal=   None    Shift=    0.000
 RMSDP=9.00D-05 MaxDP=4.48D-03 DE=-2.90D-04 OVMax= 3.68D-02

 Cycle   9  Pass 0  IDiag  1:
 E= -504.817996517831     Delta-E=       -0.000195829353 Rises=F Damp=F
 DIIS: error= 1.80D-04 at cycle   9 NSaved=   9.
 NSaved= 9 IEnMin= 9 EnMin= -504.817996517831     IErMin= 9 ErrMin= 1.80D-04
 ErrMax= 1.80D-04 EMaxC= 1.00D-01 BMatC= 2.68D-05 BMatP= 1.38D-04
 IDIUse=3 WtCom= 9.98D-01 WtEn= 1.80D-03
 Coeff-Com: -0.117D-02 0.305D-02 0.152D-01 0.240D-01 0.417D-02-0.727D-01
 Coeff-Com: -0.243D+00-0.558D-01 0.133D+01
 Coeff-En:   0.000D+00 0.000D+00 0.000D+00 0.000D+00 0.000D+00 0.000D+00
 Coeff-En:   0.000D+00 0.000D+00 0.100D+01
 Coeff:     -0.116D-02 0.305D-02 0.152D-01 0.239D-01 0.416D-02-0.726D-01
 Coeff:     -0.242D+00-0.557D-01 0.133D+01
 Gap=     0.272 Goal=   None    Shift=    0.000
 Gap=     0.106 Goal=   None    Shift=    0.000
 RMSDP=5.61D-05 MaxDP=3.02D-03 DE=-1.96D-04 OVMax= 2.30D-02

 Cycle  10  Pass 0  IDiag  1:
 E= -504.818053484843     Delta-E=       -0.000056967012 Rises=F Damp=F
 DIIS: error= 9.03D-05 at cycle  10 NSaved=  10.
 NSaved=10 IEnMin=10 EnMin= -504.818053484843     IErMin=10 ErrMin= 9.03D-05
 ErrMax= 9.03D-05 EMaxC= 1.00D-01 BMatC= 7.92D-06 BMatP= 2.68D-05
 IDIUse=1 WtCom= 1.00D+00 WtEn= 0.00D+00
 Coeff-Com:  0.814D-03-0.114D-02 0.122D-01 0.220D-01 0.473D-01 0.118D-01
 Coeff-Com: -0.203D+00-0.292D+00 0.507D+00 0.895D+00
 Coeff:      0.814D-03-0.114D-02 0.122D-01 0.220D-01 0.473D-01 0.118D-01
 Coeff:     -0.203D+00-0.292D+00 0.507D+00 0.895D+00
 Gap=     0.271 Goal=   None    Shift=    0.000
 Gap=     0.106 Goal=   None    Shift=    0.000
 RMSDP=2.67D-05 MaxDP=1.45D-03 DE=-5.70D-05 OVMax= 1.09D-02

 Cycle  11  Pass 0  IDiag  1:
 E= -504.818064985695     Delta-E=       -0.000011500852 Rises=F Damp=F
 DIIS: error= 3.24D-05 at cycle  11 NSaved=  11.
 NSaved=11 IEnMin=11 EnMin= -504.818064985695     IErMin=11 ErrMin= 3.24D-05
 ErrMax= 3.24D-05 EMaxC= 1.00D-01 BMatC= 1.78D-06 BMatP= 7.92D-06
 IDIUse=1 WtCom= 1.00D+00 WtEn= 0.00D+00
 Coeff-Com:  0.965D-03-0.158D-02 0.227D-02 0.265D-02 0.219D-01 0.292D-01
 Coeff-Com: -0.368D-01-0.111D+00-0.129D+00 0.428D+00 0.794D+00
 Coeff:      0.965D-03-0.158D-02 0.227D-02 0.265D-02 0.219D-01 0.292D-01
 Coeff:     -0.368D-01-0.111D+00-0.129D+00 0.428D+00 0.794D+00
 Gap=     0.271 Goal=   None    Shift=    0.000
 Gap=     0.106 Goal=   None    Shift=    0.000
 RMSDP=9.69D-06 MaxDP=5.42D-04 DE=-1.15D-05 OVMax= 3.85D-03

 Initial convergence to 1.0D-05 achieved.  Increase integral accuracy.
 Cycle  12  Pass 1  IDiag  1:
 E= -504.818156770281     Delta-E=       -0.000091784586 Rises=F Damp=F
 DIIS: error= 1.29D-05 at cycle   1 NSaved=   1.
 NSaved= 1 IEnMin= 1 EnMin= -504.818156770281     IErMin= 1 ErrMin= 1.29D-05
 ErrMax= 1.29D-05 EMaxC= 1.00D-01 BMatC= 6.02D-07 BMatP= 6.02D-07
 IDIUse=1 WtCom= 1.00D+00 WtEn= 0.00D+00
 Coeff-Com:  0.100D+01
 Coeff:      0.100D+01
 Gap=     0.271 Goal=   None    Shift=    0.000
 Gap=     0.106 Goal=   None    Shift=    0.000
 RMSDP=9.69D-06 MaxDP=5.42D-04 DE=-9.18D-05 OVMax= 2.47D-04

 Cycle  13  Pass 1  IDiag  1:
 E= -504.818156925330     Delta-E=       -0.000000155050 Rises=F Damp=F
 DIIS: error= 1.38D-05 at cycle   2 NSaved=   2.
 NSaved= 2 IEnMin= 2 EnMin= -504.818156925330     IErMin= 1 ErrMin= 1.29D-05
 ErrMax= 1.38D-05 EMaxC= 1.00D-01 BMatC= 3.11D-07 BMatP= 6.02D-07
 IDIUse=1 WtCom= 1.00D+00 WtEn= 0.00D+00
 Coeff-Com:  0.385D+00 0.615D+00
 Coeff:      0.385D+00 0.615D+00
 Gap=     0.271 Goal=   None    Shift=    0.000
 Gap=     0.106 Goal=   None    Shift=    0.000
 RMSDP=1.51D-06 MaxDP=6.12D-05 DE=-1.55D-07 OVMax= 4.16D-04

 Cycle  14  Pass 1  IDiag  1:
 E= -504.818156988632     Delta-E=       -0.000000063302 Rises=F Damp=F
 DIIS: error= 1.03D-05 at cycle   3 NSaved=   3.
 NSaved= 3 IEnMin= 3 EnMin= -504.818156988632     IErMin= 3 ErrMin= 1.03D-05
 ErrMax= 1.03D-05 EMaxC= 1.00D-01 BMatC= 1.85D-07 BMatP= 3.11D-07
 IDIUse=1 WtCom= 1.00D+00 WtEn= 0.00D+00
 Coeff-Com:  0.170D-01 0.429D+00 0.554D+00
 Coeff:      0.170D-01 0.429D+00 0.554D+00
 Gap=     0.271 Goal=   None    Shift=    0.000
 Gap=     0.106 Goal=   None    Shift=    0.000
 RMSDP=7.01D-07 MaxDP=3.51D-05 DE=-6.33D-08 OVMax= 1.03D-04

 Cycle  15  Pass 1  IDiag  1:
 E= -504.818157038231     Delta-E=       -0.000000049599 Rises=F Damp=F
 DIIS: error= 4.38D-06 at cycle   4 NSaved=   4.
 NSaved= 4 IEnMin= 4 EnMin= -504.818157038231     IErMin= 4 ErrMin= 4.38D-06
 ErrMax= 4.38D-06 EMaxC= 1.00D-01 BMatC= 1.77D-08 BMatP= 1.85D-07
 IDIUse=1 WtCom= 1.00D+00 WtEn= 0.00D+00
 Coeff-Com: -0.289D-01 0.208D+00 0.268D+00 0.552D+00
 Coeff:     -0.289D-01 0.208D+00 0.268D+00 0.552D+00
 Gap=     0.271 Goal=   None    Shift=    0.000
 Gap=     0.106 Goal=   None    Shift=    0.000
 RMSDP=3.82D-07 MaxDP=2.47D-05 DE=-4.96D-08 OVMax= 1.42D-04

 Cycle  16  Pass 1  IDiag  1:
 E= -504.818157047895     Delta-E=       -0.000000009664 Rises=F Damp=F
 DIIS: error= 3.04D-06 at cycle   5 NSaved=   5.
 NSaved= 5 IEnMin= 5 EnMin= -504.818157047895     IErMin= 5 ErrMin= 3.04D-06
 ErrMax= 3.04D-06 EMaxC= 1.00D-01 BMatC= 8.95D-09 BMatP= 1.77D-08
 IDIUse=1 WtCom= 1.00D+00 WtEn= 0.00D+00
 Coeff-Com: -0.162D-01-0.112D-01-0.118D+00 0.323D+00 0.822D+00
 Coeff:     -0.162D-01-0.112D-01-0.118D+00 0.323D+00 0.822D+00
 Gap=     0.271 Goal=   None    Shift=    0.000
 Gap=     0.106 Goal=   None    Shift=    0.000
 RMSDP=4.57D-07 MaxDP=2.59D-05 DE=-9.66D-09 OVMax= 1.83D-04

 Cycle  17  Pass 1  IDiag  1:
 E= -504.818157056604     Delta-E=       -0.000000008709 Rises=F Damp=F
 DIIS: error= 1.95D-06 at cycle   6 NSaved=   6.
 NSaved= 6 IEnMin= 6 EnMin= -504.818157056604     IErMin= 6 ErrMin= 1.95D-06
 ErrMax= 1.95D-06 EMaxC= 1.00D-01 BMatC= 4.55D-09 BMatP= 8.95D-09
 IDIUse=1 WtCom= 1.00D+00 WtEn= 0.00D+00
 Coeff-Com:  0.528D-02-0.134D+00-0.321D+00-0.379D-01 0.668D+00 0.821D+00
 Coeff:      0.528D-02-0.134D+00-0.321D+00-0.379D-01 0.668D+00 0.821D+00
 Gap=     0.271 Goal=   None    Shift=    0.000
 Gap=     0.106 Goal=   None    Shift=    0.000
 RMSDP=5.24D-07 MaxDP=2.90D-05 DE=-8.71D-09 OVMax= 2.09D-04

 Cycle  18  Pass 1  IDiag  1:
 E= -504.818157062669     Delta-E=       -0.000000006065 Rises=F Damp=F
 DIIS: error= 1.20D-06 at cycle   7 NSaved=   7.
 NSaved= 7 IEnMin= 7 EnMin= -504.818157062669     IErMin= 7 ErrMin= 1.20D-06
 ErrMax= 1.20D-06 EMaxC= 1.00D-01 BMatC= 1.39D-09 BMatP= 4.55D-09
 IDIUse=1 WtCom= 1.00D+00 WtEn= 0.00D+00
 Coeff-Com:  0.114D-01-0.878D-01-0.202D+00-0.162D+00 0.143D+00 0.613D+00
 Coeff-Com:  0.684D+00
 Coeff:      0.114D-01-0.878D-01-0.202D+00-0.162D+00 0.143D+00 0.613D+00
 Coeff:      0.684D+00
 Gap=     0.271 Goal=   None    Shift=    0.000
 Gap=     0.106 Goal=   None    Shift=    0.000
 RMSDP=3.26D-07 MaxDP=1.78D-05 DE=-6.06D-09 OVMax= 1.38D-04

 Cycle  19  Pass 1  IDiag  1:
 E= -504.818157064410     Delta-E=       -0.000000001741 Rises=F Damp=F
 DIIS: error= 4.01D-07 at cycle   8 NSaved=   8.
 NSaved= 8 IEnMin= 8 EnMin= -504.818157064410     IErMin= 8 ErrMin= 4.01D-07
 ErrMax= 4.01D-07 EMaxC= 1.00D-01 BMatC= 1.73D-10 BMatP= 1.39D-09
 IDIUse=1 WtCom= 1.00D+00 WtEn= 0.00D+00
 Coeff-Com:  0.886D-03 0.120D-01 0.185D-01-0.150D-01-0.826D-01-0.107D+00
 Coeff-Com:  0.183D+00 0.990D+00
 Coeff:      0.886D-03 0.120D-01 0.185D-01-0.150D-01-0.826D-01-0.107D+00
 Coeff:      0.183D+00 0.990D+00
 Gap=     0.271 Goal=   None    Shift=    0.000
 Gap=     0.106 Goal=   None    Shift=    0.000
 RMSDP=1.15D-07 MaxDP=6.20D-06 DE=-1.74D-09 OVMax= 4.69D-05

 Cycle  20  Pass 1  IDiag  1:
 E= -504.818157064636     Delta-E=       -0.000000000226 Rises=F Damp=F
 DIIS: error= 2.11D-07 at cycle   9 NSaved=   9.
 NSaved= 9 IEnMin= 9 EnMin= -504.818157064636     IErMin= 9 ErrMin= 2.11D-07
 ErrMax= 2.11D-07 EMaxC= 1.00D-01 BMatC= 3.50D-11 BMatP= 1.73D-10
 IDIUse=1 WtCom= 1.00D+00 WtEn= 0.00D+00
 Coeff-Com: -0.244D-02 0.271D-01 0.545D-01 0.356D-01-0.564D-01-0.213D+00
 Coeff-Com: -0.680D-01 0.322D+00 0.902D+00
 Coeff:     -0.244D-02 0.271D-01 0.545D-01 0.356D-01-0.564D-01-0.213D+00
 Coeff:     -0.680D-01 0.322D+00 0.902D+00
 Gap=     0.271 Goal=   None    Shift=    0.000
 Gap=     0.106 Goal=   None    Shift=    0.000
 RMSDP=4.37D-08 MaxDP=2.40D-06 DE=-2.26D-10 OVMax= 1.75D-05

 Cycle  21  Pass 1  IDiag  1:
 E= -504.818157064668     Delta-E=       -0.000000000032 Rises=F Damp=F
 DIIS: error= 6.17D-08 at cycle  10 NSaved=  10.
 NSaved=10 IEnMin=10 EnMin= -504.818157064668     IErMin=10 ErrMin= 6.17D-08
 ErrMax= 6.17D-08 EMaxC= 1.00D-01 BMatC= 6.49D-12 BMatP= 3.50D-11
 IDIUse=1 WtCom= 1.00D+00 WtEn= 0.00D+00
 Coeff-Com: -0.117D-02 0.933D-02 0.188D-01 0.186D-01-0.734D-02-0.717D-01
 Coeff-Com: -0.589D-01-0.761D-01 0.370D+00 0.799D+00
 Coeff:     -0.117D-02 0.933D-02 0.188D-01 0.186D-01-0.734D-02-0.717D-01
 Coeff:     -0.589D-01-0.761D-01 0.370D+00 0.799D+00
 Gap=     0.271 Goal=   None    Shift=    0.000
 Gap=     0.106 Goal=   None    Shift=    0.000
 RMSDP=1.43D-08 MaxDP=7.83D-07 DE=-3.23D-11 OVMax= 5.56D-06

 Cycle  22  Pass 1  IDiag  1:
 E= -504.818157064675     Delta-E=       -0.000000000006 Rises=F Damp=F
 DIIS: error= 2.45D-08 at cycle  11 NSaved=  11.
 NSaved=11 IEnMin=11 EnMin= -504.818157064675     IErMin=11 ErrMin= 2.45D-08
 ErrMax= 2.45D-08 EMaxC= 1.00D-01 BMatC= 9.35D-13 BMatP= 6.49D-12
 IDIUse=1 WtCom= 1.00D+00 WtEn= 0.00D+00
 Coeff-Com: -0.134D-03 0.127D-04-0.237D-03 0.271D-02 0.467D-02 0.156D-02
 Coeff-Com: -0.132D-01-0.777D-01 0.231D-01 0.329D+00 0.730D+00
 Coeff:     -0.134D-03 0.127D-04-0.237D-03 0.271D-02 0.467D-02 0.156D-02
 Coeff:     -0.132D-01-0.777D-01 0.231D-01 0.329D+00 0.730D+00
 Gap=     0.271 Goal=   None    Shift=    0.000
 Gap=     0.106 Goal=   None    Shift=    0.000
 RMSDP=3.06D-09 MaxDP=1.44D-07 DE=-6.37D-12 OVMax= 9.16D-07

 SCF Done:  E(UB3LYP) =  -504.818157065     A.U. after   22 cycles
             Convg  =    0.3056D-08             -V/T =  2.0043
 <Sx>= 0.0000 <Sy>= 0.0000 <Sz>= 0.5000 <S**2>= 0.7582 S= 0.5041
 <L.S>= 0.000000000000E+00
 KE= 5.026748632945D+02 PE=-2.514940592641D+03 EE= 8.378967520037D+02
 Annihilation of the first spin contaminant:
 S**2 before annihilation     0.7582,   after     0.7500
 Leave Link  502 at Mon Feb 17 04:54:47 2014, MaxMem= 4026531840 cpu:    1014.9
 (Enter /usr/caen/gaussian-09revc/g09/l801.exe)
 Range of M.O.s used for correlation:     1   312
 NBasis=   312 NAE=    45 NBE=    44 NFC=     0 NFV=     0
 NROrb=    312 NOA=    45 NOB=    44 NVA=   267 NVB=   268
 Leave Link  801 at Mon Feb 17 04:54:48 2014, MaxMem= 4026531840 cpu:       1.0
 (Enter /usr/caen/gaussian-09revc/g09/l1101.exe)
 Using compressed storage, NAtomX=    30.
 Will process  31 centers per pass.
 Leave Link 1101 at Mon Feb 17 04:54:49 2014, MaxMem= 4026531840 cpu:       4.1
 (Enter /usr/caen/gaussian-09revc/g09/l1102.exe)
 Symmetrizing basis deriv contribution to polar:
 IMax=3 JMax=2 DiffMx= 0.00D+00
 Leave Link 1102 at Mon Feb 17 04:54:50 2014, MaxMem= 4026531840 cpu:       1.3
 (Enter /usr/caen/gaussian-09revc/g09/l1110.exe)
 Forming Gx(P) for the SCF density, NAtomX=    30.
 Integral derivatives from FoFDir/FoFCou, PRISM(SPDF).
 Do as many integral derivatives as possible in FoFDir.
 G2DrvN: MDV=    4026531496.
 G2DrvN: will do    31 centers at a time, making    1 passes doing MaxLOS=2.
 Calling FoFCou, ICntrl=  3107 FMM=F I1Cent=   0 AccDes= 0.00D+00.
 FoFCou: FMM=F IPFlag=           0 FMFlag=      100000 FMFlg1=           0
         NFxFlg=           0 DoJE=F BraDBF=F KetDBF=F FulRan=T
         Omega=  0.000000  0.000000  1.000000  0.000000  0.000000 ICntrl=    3107 IOpCl=  1
         NMat0=    1 NMatS0=    1 NMatT0=    0 NMatD0=    1 NMtDS0=    0 NMtDT0=    0
         I1Cent=           0 NGrid=           0.
 Symmetry not used in FoFCou.
 FoFDir/FoFCou used for L=0 through L=2.
 End of G2Drv Frequency-dependent properties file   721 does not exist.
 End of G2Drv Frequency-dependent properties file   722 does not exist.
 Leave Link 1110 at Mon Feb 17 04:57:10 2014, MaxMem= 4026531840 cpu:    1120.8
 (Enter /usr/caen/gaussian-09revc/g09/l1002.exe)
 Minotr:  UHF open shell wavefunction.
          IDoAtm=111111111111111111111111111111
          Direct CPHF calculation.
          Differentiating once with respect to nuclear coordinates.
          Requested convergence is 1.0D-06 RMS, and 1.0D-05 maximum.
          Secondary convergence is 1.0D-12 RMS, and 1.0D-12 maximum.
          NewPWx=T KeepS1=F KeepF1=F KeepIn=T MapXYZ=F SortEE=F KeepMc=T.
          MDV=    4026531536 using IRadAn=       2.
 Generate precomputed XC quadrature information.
          Keep R1 and R2 ints in memory in canonical form, NReq=2738891878.
 Symmetry not used in FoFDir.
 MinBra= 0 MaxBra= 2 Meth= 1.
 IRaf=       0 NMat=   1 IRICut=       1 DoRegI=T DoRafI=F ISym2E= 0 JSym2E=0.
          Solving linear equations simultaneously, MaxMat=       0.
          There are    93 degrees of freedom in the 1st order CPHF.  IDoFFX=5.
     87 vectors produced by pass  0 Test12= 2.56D-10 1.08D-07 XBig12= 3.44D-01 3.36D-01.
 AX will form    87 AO Fock derivatives at one time.
     87 vectors produced by pass  1 Test12= 2.56D-10 1.08D-07 XBig12= 1.84D-02 3.14D-02.
     87 vectors produced by pass  2 Test12= 2.56D-10 1.08D-07 XBig12= 9.34D-05 1.26D-03.
     87 vectors produced by pass  3 Test12= 2.56D-10 1.08D-07 XBig12= 1.06D-06 1.56D-04.
     67 vectors produced by pass  4 Test12= 2.56D-10 1.08D-07 XBig12= 5.83D-09 6.11D-06.
     14 vectors produced by pass  5 Test12= 2.56D-10 1.08D-07 XBig12= 2.68D-11 4.71D-07.
 Inverted reduced A of dimension   429 with in-core refinement.
 End of Minotr Frequency-dependent properties file   721 does not exist.
 End of Minotr Frequency-dependent properties file   722 does not exist.
 Leave Link 1002 at Mon Feb 17 05:00:48 2014, MaxMem= 4026531840 cpu:    1734.4
 (Enter /usr/caen/gaussian-09revc/g09/l601.exe)
 Copying SCF densities to generalized density rwf, IOpCl= 1 IROHF=0.

 **********************************************************************

            Population analysis using the SCF density.

 **********************************************************************

 Orbital symmetries:
 Alpha Orbitals:
       Occupied  (A) (A) (A) (A) (A) (A) (A) (A) (A) (A) (A) (A)
                 (A) (A) (A) (A) (A) (A) (A) (A) (A) (A) (A) (A)
                 (A) (A) (A) (A) (A) (A) (A) (A) (A) (A) (A) (A)
                 (A) (A) (A) (A) (A) (A) (A) (A) (A)
       Virtual   (A) (A) (A) (A) (A) (A) (A) (A) (A) (A) (A) (A)
                 (A) (A) (A) (A) (A) (A) (A) (A) (A) (A) (A) (A)
                 (A) (A) (A) (A) (A) (A) (A) (A) (A) (A) (A) (A)
                 (A) (A) (A) (A) (A) (A) (A) (A) (A) (A) (A) (A)
                 (A) (A) (A) (A) (A) (A) (A) (A) (A) (A) (A) (A)
                 (A) (A) (A) (A) (A) (A) (A) (A) (A) (A) (A) (A)
                 (A) (A) (A) (A) (A) (A) (A) (A) (A) (A) (A) (A)
                 (A) (A) (A) (A) (A) (A) (A) (A) (A) (A) (A) (A)
                 (A) (A) (A) (A) (A) (A) (A) (A) (A) (A) (A) (A)
                 (A) (A) (A) (A) (A) (A) (A) (A) (A) (A) (A) (A)
                 (A) (A) (A) (A) (A) (A) (A) (A) (A) (A) (A) (A)
                 (A) (A) (A) (A) (A) (A) (A) (A) (A) (A) (A) (A)
                 (A) (A) (A) (A) (A) (A) (A) (A) (A) (A) (A) (A)
                 (A) (A) (A) (A) (A) (A) (A) (A) (A) (A) (A) (A)
                 (A) (A) (A) (A) (A) (A) (A) (A) (A) (A) (A) (A)
                 (A) (A) (A) (A) (A) (A) (A) (A) (A) (A) (A) (A)
                 (A) (A) (A) (A) (A) (A) (A) (A) (A) (A) (A) (A)
                 (A) (A) (A) (A) (A) (A) (A) (A) (A) (A) (A) (A)
                 (A) (A) (A) (A) (A) (A) (A) (A) (A) (A) (A) (A)
                 (A) (A) (A) (A) (A) (A) (A) (A) (A) (A) (A) (A)
                 (A) (A) (A) (A) (A) (A) (A) (A) (A) (A) (A) (A)
                 (A) (A) (A) (A) (A) (A) (A) (A) (A) (A) (A) (A)
                 (A) (A) (A)
 Beta  Orbitals:
       Occupied  (A) (A) (A) (A) (A) (A) (A) (A) (A) (A) (A) (A)
                 (A) (A) (A) (A) (A) (A) (A) (A) (A) (A) (A) (A)
                 (A) (A) (A) (A) (A) (A) (A) (A) (A) (A) (A) (A)
                 (A) (A) (A) (A) (A) (A) (A) (A)
       Virtual   (A) (A) (A) (A) (A) (A) (A) (A) (A) (A) (A) (A)
                 (A) (A) (A) (A) (A) (A) (A) (A) (A) (A) (A) (A)
                 (A) (A) (A) (A) (A) (A) (A) (A) (A) (A) (A) (A)
                 (A) (A) (A) (A) (A) (A) (A) (A) (A) (A) (A) (A)
                 (A) (A) (A) (A) (A) (A) (A) (A) (A) (A) (A) (A)
                 (A) (A) (A) (A) (A) (A) (A) (A) (A) (A) (A) (A)
                 (A) (A) (A) (A) (A) (A) (A) (A) (A) (A) (A) (A)
                 (A) (A) (A) (A) (A) (A) (A) (A) (A) (A) (A) (A)
                 (A) (A) (A) (A) (A) (A) (A) (A) (A) (A) (A) (A)
                 (A) (A) (A) (A) (A) (A) (A) (A) (A) (A) (A) (A)
                 (A) (A) (A) (A) (A) (A) (A) (A) (A) (A) (A) (A)
                 (A) (A) (A) (A) (A) (A) (A) (A) (A) (A) (A) (A)
                 (A) (A) (A) (A) (A) (A) (A) (A) (A) (A) (A) (A)
                 (A) (A) (A) (A) (A) (A) (A) (A) (A) (A) (A) (A)
                 (A) (A) (A) (A) (A) (A) (A) (A) (A) (A) (A) (A)
                 (A) (A) (A) (A) (A) (A) (A) (A) (A) (A) (A) (A)
                 (A) (A) (A) (A) (A) (A) (A) (A) (A) (A) (A) (A)
                 (A) (A) (A) (A) (A) (A) (A) (A) (A) (A) (A) (A)
                 (A) (A) (A) (A) (A) (A) (A) (A) (A) (A) (A) (A)
                 (A) (A) (A) (A) (A) (A) (A) (A) (A) (A) (A) (A)
                 (A) (A) (A) (A) (A) (A) (A) (A) (A) (A) (A) (A)
                 (A) (A) (A) (A) (A) (A) (A) (A) (A) (A) (A) (A)
                 (A) (A) (A) (A)
 The electronic state is 2-A.
 Alpha  occ. eigenvalues --  -19.17671 -19.17286 -10.23613 -10.20276 -10.18460
 Alpha  occ. eigenvalues --  -10.18256 -10.18117 -10.16881 -10.16567 -10.16335
 Alpha  occ. eigenvalues --  -10.15746  -1.12682  -0.88279  -0.83109  -0.80594
 Alpha  occ. eigenvalues --   -0.76645  -0.69342  -0.69062  -0.68355  -0.61241
 Alpha  occ. eigenvalues --   -0.57506  -0.57374  -0.53075  -0.48865  -0.48070
 Alpha  occ. eigenvalues --   -0.46438  -0.45813  -0.44278  -0.43095  -0.42026
 Alpha  occ. eigenvalues --   -0.41406  -0.39711  -0.39455  -0.39015  -0.37920
 Alpha  occ. eigenvalues --   -0.37493  -0.35993  -0.34917  -0.34322  -0.33732
 Alpha  occ. eigenvalues --   -0.33677  -0.33593  -0.32227  -0.25586  -0.24415
 Alpha virt. eigenvalues --    0.02686   0.04022   0.04343   0.05141   0.06395
 Alpha virt. eigenvalues --    0.07415   0.08377   0.08911   0.09584   0.10067
 Alpha virt. eigenvalues --    0.10691   0.11451   0.11736   0.13595   0.13783
 Alpha virt. eigenvalues --    0.14044   0.14452   0.15486   0.16046   0.16764
 Alpha virt. eigenvalues --    0.18275   0.19749   0.19984   0.20553   0.21651
 Alpha virt. eigenvalues --    0.22704   0.24005   0.24335   0.25535   0.27983
 Alpha virt. eigenvalues --    0.28263   0.29254   0.30989   0.32764   0.33477
 Alpha virt. eigenvalues --    0.34353   0.36228   0.38442   0.39840   0.40732
 Alpha virt. eigenvalues --    0.41954   0.42898   0.44258   0.44374   0.47858
 Alpha virt. eigenvalues --    0.49673   0.51272   0.52155   0.53181   0.54229
 Alpha virt. eigenvalues --    0.55725   0.55999   0.56463   0.57066   0.57276
 Alpha virt. eigenvalues --    0.57652   0.57743   0.58100   0.58556   0.59186
 Alpha virt. eigenvalues --    0.59756   0.60189   0.60622   0.61048   0.61483
 Alpha virt. eigenvalues --    0.62142   0.62636   0.63283   0.64596   0.64981
 Alpha virt. eigenvalues --    0.65819   0.67173   0.69543   0.72719   0.75330
 Alpha virt. eigenvalues --    0.76423   0.80059   0.80435   0.86036   0.87405
 Alpha virt. eigenvalues --    0.90336   0.91583   0.93240   0.95927   0.98383
 Alpha virt. eigenvalues --    0.99544   1.00000   1.01326   1.02305   1.04847
 Alpha virt. eigenvalues --    1.07482   1.08742   1.11327   1.15418   1.16256
 Alpha virt. eigenvalues --    1.18709   1.19685   1.22439   1.24096   1.26549
 Alpha virt. eigenvalues --    1.35229   1.36113   1.37443   1.37732   1.38709
 Alpha virt. eigenvalues --    1.40368   1.42379   1.43308   1.44134   1.44912
 Alpha virt. eigenvalues --    1.45292   1.46389   1.47641   1.48412   1.49483
 Alpha virt. eigenvalues --    1.50115   1.50472   1.51834   1.52975   1.53674
 Alpha virt. eigenvalues --    1.54478   1.54702   1.56113   1.57148   1.57650
 Alpha virt. eigenvalues --    1.58567   1.59360   1.61662   1.62576   1.64180
 Alpha virt. eigenvalues --    1.64644   1.66215   1.66719   1.68421   1.69438
 Alpha virt. eigenvalues --    1.71601   1.73554   1.75206   1.75767   1.77099
 Alpha virt. eigenvalues --    1.77723   1.78722   1.78875   1.80586   1.81887
 Alpha virt. eigenvalues --    1.86789   1.88776   1.89698   1.90567   1.94488
 Alpha virt. eigenvalues --    1.96347   1.97955   1.98369   2.00296   2.01144
 Alpha virt. eigenvalues --    2.03268   2.03363   2.07534   2.08793   2.10102
 Alpha virt. eigenvalues --    2.10843   2.12108   2.13600   2.16049   2.16440
 Alpha virt. eigenvalues --    2.19017   2.22595   2.24071   2.25361   2.29233
 Alpha virt. eigenvalues --    2.31608   2.33554   2.34939   2.35176   2.36611
 Alpha virt. eigenvalues --    2.37894   2.39967   2.42570   2.43284   2.44946
 Alpha virt. eigenvalues --    2.45754   2.46282   2.48640   2.49116   2.49536
 Alpha virt. eigenvalues --    2.49858   2.50910   2.51349   2.51623   2.52507
 Alpha virt. eigenvalues --    2.53713   2.55628   2.56182   2.57680   2.59213
 Alpha virt. eigenvalues --    2.60730   2.61853   2.63269   2.63932   2.64577
 Alpha virt. eigenvalues --    2.66811   2.67974   2.69848   2.71294   2.74122
 Alpha virt. eigenvalues --    2.75142   2.75891   2.76646   2.80333   2.82029
 Alpha virt. eigenvalues --    2.83000   2.86482   2.88626   2.89664   2.92544
 Alpha virt. eigenvalues --    2.93504   2.94229   3.01582   3.03238   3.05239
 Alpha virt. eigenvalues --    3.09234   3.09898   3.14193   3.16489   3.19400
 Alpha virt. eigenvalues --    3.28829   3.31239   3.43507   3.45902   3.52510
 Alpha virt. eigenvalues --    3.63201   3.72405   3.76707   3.76888   3.77130
 Alpha virt. eigenvalues --    3.78485   3.79204   3.80450   3.81747   3.81998
 Alpha virt. eigenvalues --    3.83652   3.87814   3.94459   3.97667   4.06208
 Alpha virt. eigenvalues --    4.19281   4.27806   4.28761   4.29870   4.39824
 Alpha virt. eigenvalues --    4.72650   4.82237   4.93293   5.02645   5.30240
 Alpha virt. eigenvalues --    5.67897  23.76097  23.78225  23.80666  23.82701
 Alpha virt. eigenvalues --   23.89546  23.92180  23.92420  23.93670  23.94169
 Alpha virt. eigenvalues --   49.76171  49.85538
  Beta  occ. eigenvalues --  -19.17527 -19.15955 -10.23624 -10.19435 -10.18440
  Beta  occ. eigenvalues --  -10.18249 -10.18136 -10.16877 -10.16568 -10.16334
  Beta  occ. eigenvalues --  -10.15746  -1.11360  -0.86426  -0.82572  -0.80274
  Beta  occ. eigenvalues --   -0.75773  -0.69323  -0.69046  -0.68076  -0.60581
  Beta  occ. eigenvalues --   -0.57078  -0.56840  -0.51473  -0.48512  -0.47579
  Beta  occ. eigenvalues --   -0.46247  -0.45102  -0.44126  -0.42640  -0.41491
  Beta  occ. eigenvalues --   -0.40787  -0.39430  -0.39252  -0.38530  -0.37687
  Beta  occ. eigenvalues --   -0.36827  -0.35617  -0.34649  -0.34118  -0.33560
  Beta  occ. eigenvalues --   -0.33417  -0.32874  -0.31707  -0.23609
  Beta virt. eigenvalues --   -0.13020   0.03011   0.04370   0.04526   0.05290
  Beta virt. eigenvalues --    0.06495   0.07487   0.08489   0.09027   0.09673
  Beta virt. eigenvalues --    0.10125   0.10801   0.11608   0.11781   0.13723
  Beta virt. eigenvalues --    0.13863   0.14092   0.14489   0.15543   0.16888
  Beta virt. eigenvalues --    0.17056   0.18534   0.19960   0.20287   0.20754
  Beta virt. eigenvalues --    0.21941   0.23013   0.24238   0.24627   0.25729
  Beta virt. eigenvalues --    0.28053   0.28415   0.29303   0.31101   0.33064
  Beta virt. eigenvalues --    0.33609   0.34500   0.36418   0.38627   0.40001
  Beta virt. eigenvalues --    0.40873   0.42146   0.43017   0.44451   0.44528
  Beta virt. eigenvalues --    0.48368   0.50308   0.51466   0.52683   0.53726
  Beta virt. eigenvalues --    0.54370   0.55877   0.56166   0.56547   0.57140
  Beta virt. eigenvalues --    0.57416   0.57746   0.57873   0.58132   0.58671
  Beta virt. eigenvalues --    0.59251   0.59905   0.60356   0.60663   0.61156
  Beta virt. eigenvalues --    0.61573   0.62305   0.62779   0.63460   0.64663
  Beta virt. eigenvalues --    0.65029   0.65927   0.67425   0.69676   0.72840
  Beta virt. eigenvalues --    0.76004   0.76846   0.80279   0.81661   0.86392
  Beta virt. eigenvalues --    0.87879   0.90952   0.91985   0.93625   0.96244
  Beta virt. eigenvalues --    0.98533   0.99842   1.00258   1.01528   1.02619
  Beta virt. eigenvalues --    1.05123   1.07785   1.08954   1.11543   1.15701
  Beta virt. eigenvalues --    1.16613   1.18778   1.19760   1.22640   1.24251
  Beta virt. eigenvalues --    1.26660   1.35326   1.36508   1.37659   1.37905
  Beta virt. eigenvalues --    1.39083   1.40888   1.42503   1.43883   1.44233
  Beta virt. eigenvalues --    1.45116   1.45406   1.46545   1.47756   1.48559
  Beta virt. eigenvalues --    1.49593   1.50221   1.50688   1.52176   1.53057
  Beta virt. eigenvalues --    1.53820   1.54644   1.54893   1.56650   1.57283
  Beta virt. eigenvalues --    1.57800   1.58737   1.59569   1.61908   1.62717
  Beta virt. eigenvalues --    1.64348   1.64756   1.66672   1.67077   1.68530
  Beta virt. eigenvalues --    1.69576   1.71832   1.73752   1.75275   1.75828
  Beta virt. eigenvalues --    1.77164   1.77823   1.78803   1.79003   1.80727
  Beta virt. eigenvalues --    1.81991   1.86829   1.89114   1.89809   1.90683
  Beta virt. eigenvalues --    1.94695   1.96422   1.98082   1.98595   2.00464
  Beta virt. eigenvalues --    2.01274   2.03616   2.04180   2.07689   2.09089
  Beta virt. eigenvalues --    2.10304   2.10887   2.12706   2.13872   2.16335
  Beta virt. eigenvalues --    2.16818   2.19240   2.22786   2.24247   2.25487
  Beta virt. eigenvalues --    2.29422   2.31836   2.34131   2.35000   2.35211
  Beta virt. eigenvalues --    2.36892   2.38036   2.40022   2.42726   2.43380
  Beta virt. eigenvalues --    2.45187   2.45888   2.46456   2.48763   2.49216
  Beta virt. eigenvalues --    2.49627   2.49915   2.51151   2.51422   2.51852
  Beta virt. eigenvalues --    2.52637   2.53867   2.55814   2.56655   2.57840
  Beta virt. eigenvalues --    2.59290   2.60937   2.62013   2.63356   2.64150
  Beta virt. eigenvalues --    2.64620   2.67015   2.68245   2.69979   2.71477
  Beta virt. eigenvalues --    2.74161   2.75435   2.76072   2.77183   2.80423
  Beta virt. eigenvalues --    2.82351   2.83081   2.86773   2.88766   2.90126
  Beta virt. eigenvalues --    2.92736   2.93722   2.96224   3.02311   3.03471
  Beta virt. eigenvalues --    3.05856   3.09310   3.10010   3.14603   3.16995
  Beta virt. eigenvalues --    3.20663   3.29784   3.31631   3.43675   3.46592
  Beta virt. eigenvalues --    3.54152   3.64705   3.74143   3.76759   3.76893
  Beta virt. eigenvalues --    3.77178   3.78509   3.79303   3.80459   3.81768
  Beta virt. eigenvalues --    3.82049   3.83757   3.88316   3.94920   3.97742
  Beta virt. eigenvalues --    4.06521   4.19532   4.27899   4.28775   4.29993
  Beta virt. eigenvalues --    4.40283   4.73223   4.83370   4.94035   5.07040
  Beta virt. eigenvalues --    5.30711   5.68618  23.76236  23.78695  23.80685
  Beta virt. eigenvalues --   23.82845  23.89702  23.92184  23.92431  23.93674
  Beta virt. eigenvalues --   23.94186  49.77320  49.85862
          Condensed to atoms (all electrons):
              1          2          3          4          5          6
     1  C    4.873081   0.404524   0.400439   0.402024   0.353825  -0.042179
     2  H    0.404524   0.543301  -0.028312  -0.025421  -0.030805  -0.005328
     3  H    0.400439  -0.028312   0.597933  -0.031697  -0.038955   0.008787
     4  H    0.402024  -0.025421  -0.031697   0.586409  -0.033615  -0.007173
     5  C    0.353825  -0.030805  -0.038955  -0.033615   5.141755   0.409193
     6  H   -0.042179  -0.005328   0.008787  -0.007173   0.409193   0.591562
     7  C    0.008579   0.000868   0.000097  -0.000364  -0.071654  -0.005166
     8  H    0.000170   0.000506  -0.000034   0.000061  -0.005714  -0.001697
     9  H    0.000071  -0.000144   0.000026  -0.000033   0.001040   0.001524
    10  C   -0.000373  -0.000046   0.000007   0.000011   0.006381   0.000880
    11  H    0.000011   0.000002  -0.000003   0.000001  -0.000722  -0.000069
    12  H   -0.000040  -0.000031  -0.000011   0.000001   0.001903   0.000004
    13  C    0.000005   0.000001   0.000000   0.000000  -0.000332   0.000003
    14  H    0.000001   0.000000   0.000000   0.000000  -0.000041  -0.000051
    15  C    0.000000   0.000000   0.000000   0.000000   0.000004   0.000001
    16  H    0.000000   0.000000   0.000000   0.000000   0.000001   0.000000
    17  H    0.000000   0.000000   0.000000   0.000000   0.000000   0.000000
    18  H    0.000000   0.000000   0.000000   0.000000  -0.000002   0.000000
    19  C   -0.064442   0.008095  -0.006356  -0.005368   0.347245  -0.038773
    20  H   -0.005414  -0.000210   0.005444  -0.000650  -0.040692   0.008749
    21  H   -0.005730  -0.000078  -0.000759   0.003808  -0.028713  -0.006006
    22  H    0.008266  -0.000447  -0.000180   0.000053  -0.032922  -0.006186
    23  C    0.000000   0.000000   0.000000   0.000000  -0.000003  -0.000006
    24  H    0.000000   0.000000   0.000000   0.000000   0.000000   0.000000
    25  H    0.000000   0.000000   0.000000   0.000000   0.000003  -0.000001
    26  H   -0.000001   0.000000   0.000000   0.000000  -0.000008   0.000016
    27  C   -0.056213  -0.009907  -0.005555   0.008911   0.300250  -0.044735
    28  H   -0.005809   0.000134   0.004203  -0.000241  -0.046691   0.008272
    29  O   -0.000761   0.011772  -0.000061   0.000256  -0.058721  -0.004056
    30  O   -0.002836   0.000728  -0.000027  -0.000132   0.007075   0.013786
              7          8          9         10         11         12
     1  C    0.008579   0.000170   0.000071  -0.000373   0.000011  -0.000040
     2  H    0.000868   0.000506  -0.000144  -0.000046   0.000002  -0.000031
     3  H    0.000097  -0.000034   0.000026   0.000007  -0.000003  -0.000011
     4  H   -0.000364   0.000061  -0.000033   0.000011   0.000001   0.000001
     5  C   -0.071654  -0.005714   0.001040   0.006381  -0.000722   0.001903
     6  H   -0.005166  -0.001697   0.001524   0.000880  -0.000069   0.000004
     7  C    5.352003   0.258396   0.392463   0.295203  -0.039003  -0.043247
     8  H    0.258396   0.503658  -0.014397  -0.026886   0.004269  -0.005621
     9  H    0.392463  -0.014397   0.542439  -0.030465  -0.003551   0.007353
    10  C    0.295203  -0.026886  -0.030465   4.994224   0.383187   0.413960
    11  H   -0.039003   0.004269  -0.003551   0.383187   0.603772  -0.033322
    12  H   -0.043247  -0.005621   0.007353   0.413960  -0.033322   0.562545
    13  C   -0.051591  -0.000256  -0.006410   0.362389  -0.034652  -0.038956
    14  H   -0.001517   0.005005   0.000011  -0.051711   0.010310  -0.005928
    15  C    0.007538  -0.000027   0.000006  -0.066606  -0.004728  -0.005050
    16  H   -0.000015   0.000018   0.000008  -0.007169   0.004952  -0.000555
    17  H   -0.000436  -0.000009   0.000007   0.008527  -0.000287   0.000083
    18  H    0.000112  -0.000010  -0.000008  -0.005297  -0.000574   0.003931
    19  C   -0.006411   0.000410  -0.002521  -0.000487   0.000190  -0.000190
    20  H   -0.000902  -0.000034   0.000185   0.000101   0.000059  -0.000013
    21  H    0.000031  -0.000005  -0.000151   0.000039  -0.000025   0.000011
    22  H    0.002953   0.000043   0.002623  -0.000529   0.000134  -0.000031
    23  C   -0.006850  -0.000671   0.003157  -0.066788  -0.009107   0.007613
    24  H   -0.000089  -0.000037  -0.000179   0.008203  -0.000230  -0.000351
    25  H   -0.000720   0.000040   0.000182  -0.006054   0.005624  -0.000032
    26  H    0.002006   0.000181   0.001373  -0.006056  -0.000107  -0.000228
    27  C    0.320503  -0.031730  -0.037905  -0.048025  -0.005174  -0.005676
[...]
 016686,-0.00102777,-0.02610385,0.00187623,-0.01497172,0.00002417,0.000
 99011,0.00078402,-0.00103447,0.00128712,0.00043381,0.00019073,-0.00006
 147,0.00000177,0.00062823,-0.00013051,-0.00009030,-0.00006592,0.000095
 41,0.00041494,-0.00004235,-0.00002671,-0.00001238,0.00000220,0.0000002
 2,-0.00000151,0.00000581,0.00001438,0.00000049,0.00000439,0.00001080,0
 .00001363,0.01484532,-0.04723134,0.00862365,-0.01487973,0.05132796,-0.
 00001184,0.00001512,0.00001722,0.00000837,0.00000043,-0.00000109,0.000
 00370,0.00000015,-0.00000218,-0.00001394,0.00000142,-0.00000001,-0.000
 02826,-0.00003395,-0.00002286,-0.00000940,-0.00000545,0.00000693,0.000
 63244,-0.00017553,-0.00022369,-0.00003594,-0.00010880,-0.00001751,-0.0
 0023534,0.00029730,0.00005647,0.00028620,-0.00360398,-0.00069734,0.000
 35061,0.00000950,0.00043282,-0.00106081,-0.00017780,-0.00027225,-0.012
 11052,0.00181753,-0.00814817,0.00039973,-0.00006792,0.00059907,-0.0009
 6051,0.00083786,0.00017451,-0.00006660,-0.00001210,-0.00011995,0.00065
 132,-0.00056031,-0.00005142,0.00028855,0.00013920,0.00027685,-0.000016
 18,-0.00000438,0.00000567,0.00001186,0.00000164,0.00000509,-0.00000939
 ,0.00000558,0.00000409,0.00000258,0.00000155,-0.00001675,-0.10907307,0
 .00787476,-0.10691204,0.12097165,-0.00612863,0.11394150,-0.00000608,0.
 00001359,-0.00001021,0.00000256,0.00000731,0.00000211,-0.00000152,-0.0
 0000284,0.00000026,0.00000260,-0.00000373,0.00000050,0.00001208,-0.000
 01259,0.00002615,0.00000549,0.00000373,-0.00000743,-0.00017462,0.00001
 866,0.00004561,0.00010994,0.00009491,0.00002232,0.00000548,-0.00005737
 ,0.00012964,0.00051112,-0.00061471,0.00125660,-0.00000323,0.00002275,-
 0.00040913,0.00006901,0.00020293,-0.00007088,-0.00173353,-0.00577847,0
 .00479569,0.00034710,-0.00138618,-0.00078439,0.00006225,0.00082369,-0.
 00047453,0.00026492,0.00008075,0.00007331,0.00002811,0.00008826,-0.000
 10436,-0.00012830,-0.00008728,0.00005567,-0.00003763,-0.00002399,-0.00
 002600,-0.00000780,0.00000195,-0.00000612,0.00001965,0.00000828,-0.000
 00286,-0.00000279,0.00001218,0.00003162,-0.04820655,-0.01094264,0.0113
 0195,0.00276687,0.02154022,-0.01945464,0.04741086,-0.00000965,0.000014
 62,0.00000697,0.00000804,0.00000435,0.00000032,0.00000014,-0.00000146,
 -0.00000393,-0.00000859,-0.00000073,0.00000069,-0.00000099,-0.00001857
 ,-0.00000655,0.00000263,0.00000019,-0.00000526,-0.00011993,-0.00001968
 ,-0.00015462,0.00016646,-0.00001864,-0.00001985,-0.00006016,-0.0000721
 1,0.00006237,0.00100290,0.00115086,0.00137213,-0.00072989,0.00041837,-
 0.00100287,0.00024493,0.00039257,-0.00023536,-0.00211857,-0.02379425,0
 .02042753,-0.00116730,-0.00446024,-0.00368149,-0.00056698,0.00101705,0
 .00147066,0.00060194,0.00026586,-0.00098319,0.00000475,-0.00003502,-0.
 00006089,-0.00005205,0.00047864,-0.00030343,-0.00002052,-0.00001452,-0
 .00000085,-0.00000626,-0.00000031,-0.00000922,0.00000350,0.00001071,-0
 .00000260,0.00000329,0.00000450,0.00001692,-0.01096358,-0.18174507,0.1
 2576536,0.00034923,-0.00150349,0.00088395,0.01386561,0.20156123,0.0000
 1148,-0.00002552,-0.00000165,-0.00001498,-0.00000837,-0.00000072,0.000
 00047,0.00000361,0.00000653,0.00001252,0.00000102,-0.00000300,-0.00001
 970,0.00003241,-0.00001959,-0.00000275,-0.00000435,0.00001086,0.000106
 06,-0.00004831,0.00012742,0.00003927,0.00005431,-0.00008396,-0.0000123
 8,0.00010209,-0.00008793,0.00033650,-0.00021450,0.00127138,0.00033504,
 0.00035819,0.00014496,0.00024254,0.00005960,0.00015163,-0.00077521,-0.
 01107232,0.00982979,-0.00068378,-0.00325869,-0.00030736,-0.00039054,-0
 .00021712,0.00131527,-0.00014363,0.00038039,0.00005694,0.00007854,0.00
 001726,-0.00010542,-0.00012586,0.00017938,0.00016161,0.00004636,0.0000
 2294,0.00001704,0.00000317,-0.00000013,0.00001130,-0.00000263,-0.00001
 405,-0.00000175,-0.00000798,0.00000312,-0.00002554,0.01111479,0.125982
 30,-0.16445230,0.00170367,0.01040064,-0.01080111,-0.01170759,-0.137872
 25,0.17716935,0.00000946,-0.00001295,-0.00001143,-0.00001014,-0.000001
 99,0.00000155,-0.00000365,0.00000136,-0.00000076,0.00001557,-0.0000021
 2,-0.00000044,0.00002137,0.00002123,0.00002417,0.00000366,0.00000284,-
 0.00000310,-0.00106597,-0.00021341,-0.00015458,0.00006876,0.00011541,0
 .00005388,-0.00128705,-0.00074845,-0.00087349,0.00028293,0.00067244,0.
 00000336,-0.00003699,-0.00003993,-0.00007509,0.00014626,-0.00002058,0.
 00018031,0.00560317,-0.00125551,-0.00597272,0.00034445,0.00073307,0.00
 016738,0.00017623,-0.00047927,-0.00062160,-0.00006781,-0.00008572,-0.0
 0009929,0.00040626,-0.00029886,-0.00002026,0.00038805,-0.00025170,-0.0
 0001652,0.00001248,-0.00000645,-0.00000273,-0.00000314,0.00000008,-0.0
 0000301,0.00001432,-0.00000660,0.00000023,-0.00000559,0.00001321,0.000
 00569,-0.17660443,0.04359471,0.12287045,-0.01992472,0.00604667,0.01956
 360,-0.00124531,-0.00032704,-0.00005654,0.19276524,0.00000217,-0.00001
 659,-0.00000482,-0.00001874,-0.00000712,-0.00000123,0.00000124,0.00000
 141,0.00000953,0.00001503,-0.00000204,-0.00000329,-0.00005230,0.000011
 71,-0.00001972,-0.00000667,0.00000030,0.00001604,0.00015200,-0.0002238
 2,0.00004977,0.00008033,0.00015837,-0.00013357,-0.00059509,0.00044167,
 -0.00012581,0.00044763,0.00088246,0.00048837,-0.00009567,-0.00000633,-
 0.00001436,0.00010808,-0.00005548,0.00012137,0.02222987,-0.00568136,-0
 .01853721,0.00034937,0.00090253,0.00076800,-0.00270022,-0.00526359,-0.
 00209018,-0.00004458,0.00016551,-0.00028774,-0.00024412,0.00007203,0.0
 0029843,0.00130693,-0.00045896,-0.00148969,0.00003710,0.00001494,0.000
 00021,-0.00000118,-0.00000547,0.00000955,0.00000727,-0.00001450,-0.000
 00063,-0.00000564,0.00001603,-0.00000359,0.04278321,-0.06201476,-0.040
 55959,0.00166862,-0.00138052,-0.00121789,-0.01791027,0.00632900,0.0151
 7373,-0.04724972,0.06619888,-0.00000895,0.00000599,-0.00001873,-0.0000
 0579,0.00001026,0.00000226,0.00000370,-0.00000153,0.00001250,0.0000178
 8,-0.00000651,-0.00000100,-0.00004677,-0.00000521,0.00003011,-0.000013
 63,-0.00001010,0.00001514,0.00062345,-0.00097327,-0.00009791,0.0000835
 8,0.00016602,-0.00006246,-0.00104452,0.00051657,0.00035178,0.00082226,
 0.00026057,-0.00001365,0.00004229,-0.00003212,-0.00006890,-0.00009029,
 0.00002068,0.00008880,0.00956898,-0.00134935,-0.00964211,-0.00038152,-
 0.00000940,0.00078592,-0.00184014,-0.00308458,-0.00046427,-0.00030861,
 0.00014855,0.00043472,0.00021629,0.00002749,0.00014058,0.00090406,-0.0
 0045047,-0.00030103,-0.00007386,-0.00004354,-0.00004981,0.00001844,0.0
 0001111,0.00002488,0.00003470,-0.00000049,0.00000320,0.00000223,0.0000
 5923,0.00000336,0.12213871,-0.04131977,-0.16307497,-0.01101052,0.00405
 673,0.01153446,0.01541214,-0.00566467,-0.01442840,-0.13475778,0.047277
 60,0.17454011,-0.03379095,0.01033271,0.01128073,0.00093047,0.00066659,
 0.00039264,0.00170219,0.00067046,0.00096164,-0.00324542,-0.00244979,-0
 .00142227,-0.13075214,0.02124895,0.03353760,-0.00085920,0.00000412,0.0
 0060108,-0.13818957,-0.01056543,-0.02415383,-0.00583779,0.00592319,-0.
 01360433,0.00543053,0.00482554,0.00005423,-0.02557908,-0.00239796,-0.0
 1126663,0.00156644,0.00022361,-0.00005703,0.00055549,-0.00074670,-0.00
 033935,-0.00114120,0.00015879,0.00378461,0.00017417,0.00011875,-0.0000
 5499,-0.00064167,-0.00016162,-0.00073459,-0.00002273,0.00000155,0.0000
 0593,-0.00019669,0.00011570,0.00023683,-0.00002375,0.00005013,0.000014
 33,0.00214417,0.00690430,-0.00232820,0.00014518,-0.00074215,0.00077959
 ,0.00056508,-0.00308518,0.00050411,-0.00041000,-0.00151324,-0.00066411
 ,0.00025313,0.00022002,0.00054638,0.00023388,-0.00010366,-0.00014275,-
 0.00004815,-0.00000890,-0.00007080,0.00005785,-0.00025220,-0.00045280,
 0.43963522,-0.00644965,0.00826650,0.00718639,-0.00149724,-0.00104855,0
 .00084943,-0.00002635,0.00035991,-0.00057027,-0.00349362,-0.00238403,-
 0.00091784,0.02603914,-0.07730527,-0.01383993,-0.00289251,0.00092636,0
 .00047866,-0.00207182,-0.04813062,-0.03622289,-0.01154283,-0.03069124,
 0.00948977,-0.01797501,-0.00243289,-0.00835201,0.00156890,0.00071325,0
 .00683426,-0.00050152,0.00082950,0.00050602,0.00102877,0.00011018,0.00
 032507,0.00376739,0.00027512,-0.00067542,0.00006137,0.00003711,-0.0001
 6214,0.00044391,-0.00004318,0.00020775,-0.00009351,0.00001514,0.000051
 38,0.00010685,-0.00009498,-0.00002792,0.00003510,-0.00001121,0.0000074
 2,0.02354823,-0.02247668,-0.01133390,0.00011928,0.00160521,-0.00125797
 ,-0.00021658,-0.00393924,0.00100168,0.00035567,0.00091889,-0.00041213,
 -0.00005477,-0.00000829,-0.00041962,-0.00015945,0.00000498,0.00005644,
 -0.00000769,-0.00003071,0.00009210,-0.00003457,0.00019860,0.00029678,-
 0.03248574,0.35921119,-0.00600598,0.00575261,0.00524819,0.00072671,-0.
 00023056,0.00019734,-0.00183372,0.00051895,0.00013473,-0.00341012,-0.0
 0110630,-0.00027530,0.03247326,-0.01311814,-0.10681946,0.02950210,-0.0
 1690964,-0.01732233,-0.02900265,-0.02449366,-0.08479987,-0.00635079,0.
 02266847,-0.01631591,-0.00965213,-0.00070747,-0.00307733,0.01316270,0.
 00665873,0.01245131,0.00125801,0.00050456,-0.00085500,0.00031488,-0.00
 100205,0.00028272,0.00197308,-0.00049099,-0.00400717,-0.00018400,-0.00
 018209,0.00010068,0.00110296,-0.00007374,0.00117405,-0.00004649,0.0001
 0627,-0.00000288,0.00051099,-0.00019569,-0.00029682,-0.00005029,-0.000
 07715,0.00000040,-0.00796309,0.00163687,0.00354982,-0.00161109,0.00211
 994,0.00006143,-0.00086625,0.00344114,-0.00062494,0.00047523,-0.000417
 77,0.00019170,-0.00011782,-0.00034121,-0.00020423,0.00005063,0.0000693
 4,0.00011166,-0.00002868,0.00005443,-0.00000286,-0.00011271,0.00010351
 ,0.00007392,0.01300473,-0.00906079,0.61710952,0.00173815,0.00021143,0.
 00102292,-0.00011704,-0.00012437,-0.00007512,-0.00026250,-0.00006768,-
 0.00077512,0.00015692,0.00000620,-0.00037951,-0.00096450,-0.00127012,0
 .02608042,-0.00355284,0.00240617,0.00216405,-0.00160926,-0.00052594,-0
 .02187042,0.00121290,0.00540523,-0.00256774,-0.00135822,-0.00010243,-0
 .00077858,0.00165999,0.00009642,-0.00040719,-0.00026120,-0.00040002,0.
 00014115,-0.00017400,0.00039287,-0.00003388,-0.00001246,0.00013331,-0.
 00016665,0.00006632,-0.00010484,0.00014086,0.00003292,0.00000590,0.000
 12244,-0.00003380,-0.00000667,0.00000904,0.00005698,-0.00001323,-0.000
 00996,-0.00001899,0.00001375,-0.00000870,0.00092407,-0.00131254,0.0002
 7939,0.00012365,0.00032116,-0.00064327,-0.00001620,-0.00023690,-0.0002
 5942,-0.00003385,0.00008675,-0.00010997,0.00008824,-0.00010324,-0.0000
 6154,-0.00001300,0.00005287,0.00006905,-0.00002462,-0.00001871,0.00000
 511,-0.00002970,0.00007288,0.00008950,-0.04934716,0.00273547,-0.002401
 57,0.05297025,-0.00056569,0.00018485,0.00039124,-0.00001636,-0.0000238
 9,0.00005318,0.00008028,0.00017044,0.00033020,-0.00013435,-0.00008997,
 0.00007198,0.00088569,0.00216270,-0.01458467,0.00287958,-0.00096584,-0
 .00116274,-0.00018323,-0.00005691,-0.00667806,0.00090375,0.00424408,-0
 .00219061,-0.00042166,-0.00032775,-0.00020089,0.00034223,0.00156321,-0
 .00043806,0.00030246,-0.00028628,-0.00012520,0.00006160,-0.00013843,0.
 00015999,-0.00012598,-0.00007784,-0.00017030,-0.00003670,-0.00002510,0
 .00005570,0.00003504,0.00005030,0.00003904,-0.00000467,-0.00000069,0.0
 0000285,0.00002834,-0.00001849,-0.00000746,0.00000395,-0.00001913,0.00
 000084,-0.00038027,0.00140027,-0.00116772,0.00016796,-0.00020785,0.000
 60780,-0.00016627,0.00009365,0.00017452,-0.00010553,-0.00014121,-0.000
 05703,0.00000747,-0.00001738,-0.00004113,0.00000920,0.00000202,0.00002
 131,-0.00001275,-0.00000448,-0.00000252,-0.00001568,-0.00000536,0.0000
 0343,-0.00096148,-0.04665732,0.01436431,-0.00419337,0.06200905,-0.0007
 5651,0.00007689,0.00057520,-0.00003595,-0.00002538,-0.00003413,0.00076
 038,0.00021710,0.00052573,0.00007609,0.00002211,0.00033746,0.00019359,
 0.00049405,-0.01541772,0.00225483,-0.00128695,-0.00006437,-0.00194050,
 0.00003543,-0.00950214,-0.00063551,-0.00022930,-0.00068220,-0.00076597
 ,0.00041691,-0.00082054,0.00161938,-0.00054314,0.00081591,-0.00081905,
 -0.00016403,0.00038452,-0.00043906,0.00036893,0.00013106,-0.00025076,-
 0.00002332,0.00012997,0.00017447,-0.00005258,0.00007534,-0.00004117,-0
 .00000775,-0.00001075,-0.00001856,-0.00000872,0.00000351,-0.00000662,0
 .00000593,0.00000623,-0.00000155,0.00001629,-0.00000304,-0.00049930,0.
 00068324,0.00049793,0.00031356,-0.00079054,0.00056858,0.00000270,-0.00
 014291,0.00042389,-0.00000164,-0.00005324,-0.00009519,0.00013342,-0.00
 002969,-0.00003338,-0.00001275,0.00003756,0.00002921,-0.00002580,-0.00
 001532,0.00002195,-0.00001097,0.00005888,0.00006820,-0.00023854,0.0263
 9926,-0.29176000,0.00158456,-0.03238834,0.31809123,-0.00138169,-0.0001
 0309,0.00093919,-0.00028129,0.00276201,-0.00038048,-0.00013700,0.00029
 142,-0.00051515,0.00030084,0.00137967,-0.00014151,0.00313726,0.0261827
 2,-0.00657036,0.00071577,-0.00108736,0.00019342,-0.01044190,-0.0292761
 5,-0.02457046,-0.02168825,-0.03297398,-0.01505274,-0.00529793,-0.00506
 318,0.00311539,0.00081269,-0.00276375,0.00126513,-0.00106739,0.0003549
 0,0.00064382,0.00007486,0.00021100,-0.00001316,0.00109517,-0.00035890,
 0.00014680,0.00007052,-0.00009942,-0.00008289,-0.00005326,-0.00013496,
 -0.00012494,-0.00001903,-0.00000309,0.00004626,-0.00017773,0.00000953,
 -0.00001551,0.00004024,0.00002539,0.00004716,-0.00482240,0.00110128,0.
 00305490,-0.00001699,-0.00021102,-0.00007464,0.00041500,0.00188865,-0.
 00030130,0.00051994,0.00079209,0.00025849,-0.00029253,0.00012563,-0.00
 043264,-0.00029605,-0.00005344,-0.00001603,0.00006057,-0.00000754,0.00
 008489,0.00005041,0.00022180,0.00032322,-0.06085173,-0.00123030,-0.008
 95641,0.00091059,0.00542560,-0.00137280,0.11696623,-0.00305358,0.00076
 138,-0.00000593,0.00086630,0.00032624,0.00003893,0.00031936,-0.0000054
 8,0.00043918,-0.00039194,0.00019764,-0.00014012,0.00456472,-0.03916590
 ,0.00300812,-0.00050223,0.00092564,-0.00013101,-0.02400320,-0.05555078
 ,0.00010224,0.00185594,0.01585880,-0.01888431,-0.00668529,-0.00221280,
 -0.00113417,0.00065704,0.00319487,-0.00401492,0.00161860,-0.00098811,-
 0.00126962,0.00001427,0.00006652,0.00025642,-0.00099444,0.00000805,-0.
 00046171,-0.00029576,0.00007537,0.00006596,0.00005723,0.00029066,0.000
 01865,0.00004085,-0.00003536,-0.00004130,0.00010409,-0.00000753,0.0000
 2225,-0.00004385,0.00000765,0.00002232,0.00678491,0.00078344,-0.004932
 53,-0.00007895,0.00010396,0.00058862,-0.00027772,-0.00274888,0.0009913
 7,-0.00059850,-0.00017818,-0.00020516,0.00009721,-0.00010254,-0.000172
 33,0.00000518,0.00011398,0.00012286,0.00003390,0.00003211,-0.00006825,
 -0.00012095,-0.00005192,0.00018349,-0.00303769,-0.13570052,-0.03485854
 ,-0.00176319,-0.01253200,0.00644758,0.03579863,0.29682616,0.00022370,-
 0.00066675,0.00143342,0.00096710,0.00055268,-0.00015850,0.00023420,-0.
 00004391,-0.00007499,-0.00004043,0.00024380,0.00007965,-0.00312690,-0.
 01352074,0.00544922,-0.00213301,0.00048326,-0.00037218,-0.01242003,0.0
 1831462,-0.03857223,-0.04290679,-0.06628454,0.00175969,-0.00122806,-0.
 00376885,0.00665711,0.00337527,-0.01213086,0.00801968,-0.00444933,0.00
 202508,0.00307089,-0.00103000,0.00164061,0.00098795,0.00154068,0.00001
 589,0.00064093,0.00047927,-0.00020057,-0.00030897,-0.00021053,-0.00047
 516,0.00000784,-0.00001934,0.00010789,-0.00001476,-0.00023580,0.000082
 75,-0.00006652,-0.00004227,0.00014217,0.00009564,0.00202271,-0.0016102
 6,-0.00225081,0.00019844,0.00002064,0.00020251,0.00074774,-0.00056079,
 0.00076414,0.00045819,0.00128860,0.00014632,0.00018091,0.00002578,-0.0
 0029978,-0.00032155,0.00003566,0.00001784,0.00006498,0.00003611,0.0001
 1676,0.00010022,0.00036911,0.00037516,-0.00102734,-0.01586433,-0.07318
 105,0.00310266,0.04078818,-0.00702881,0.07479370,0.02969805,0.25526488
 ,-0.00021155,0.00071402,-0.00073703,-0.00119391,-0.00033222,0.00011188
 ,-0.00000864,-0.00027436,0.00027182,0.00011418,-0.00026649,0.00008282,
 -0.00019684,0.00050627,0.00166475,0.00056443,0.00043135,-0.00112078,-0
 .00160325,-0.07871190,0.07380879,0.02265729,0.08541130,-0.02966570,-0.
 00058035,0.00325904,-0.00751963,-0.00053639,0.01029185,-0.00836261,0.0
 0314321,-0.00181466,-0.00185339,0.00064748,-0.00088157,-0.00053407,-0.
 00164105,0.00020262,-0.00100383,-0.00028033,0.00023769,0.00050341,0.00
 019881,0.00047906,-0.00001679,0.00003465,-0.00012603,0.00001653,0.0002
 1541,-0.00005657,0.00004344,0.00001568,-0.00010644,-0.00011425,0.00045
 613,0.00022107,-0.00031936,-0.00005221,0.00011914,0.00004943,-0.000357
 71,-0.00043165,-0.00009771,-0.00035889,-0.00081051,-0.00011806,-0.0000
 3668,-0.00011359,0.00036598,0.00026355,0.00003142,0.00000558,-0.000058
 47,-0.00006678,-0.00010602,-0.00008200,-0.00030713,-0.00026625,-0.0024
 5659,0.02092308,-0.01596150,-0.00211166,-0.00380914,0.00076004,-0.0183
 4494,-0.01097095,-0.01929841,0.00180063,-0.00049040,0.00012423,-0.0001
 5771,-0.00033294,-0.00026530,-0.00012682,0.00001013,-0.00008715,0.0002
 7279,0.00009826,-0.00001935,-0.00000351,0.00126795,0.00148233,-0.00121
 826,0.00121018,-0.00043479,0.00150196,-0.01245126,-0.08756523,0.081831
 77,0.03333921,0.06135509,-0.02182021,0.00023755,0.00358224,-0.00652269
 ,-0.00091816,0.00700487,-0.00741297,0.00216419,-0.00099953,-0.00053169
 ,0.00002104,-0.00016523,0.00045045,-0.00100960,0.00016470,0.00019391,-
 0.00076411,0.00020843,-0.00016883,-0.00012630,0.00036730,-0.00037643,0
 .00011361,-0.00005453,-0.00003364,0.00004606,-0.00002704,0.00010969,-0
 .00000741,-0.00004290,0.00001277,-0.00031695,0.00097147,0.00108395,-0.
 00007550,-0.00024371,0.00001852,-0.00024814,-0.00001947,-0.00039462,-0
 .00030542,-0.00054931,-0.00006775,0.00001267,-0.00000020,0.00013741,0.
 00013502,0.00001569,0.00001016,0.00002178,0.00003922,-0.00005670,-0.00
 002952,-0.00020562,-0.00009351,0.00704730,-0.00251721,0.04526664,-0.00
 169717,-0.01028464,0.00048106,-0.00320416,-0.07029248,0.01925586,-0.02
 374790,0.09845812,-0.00040461,0.00143657,-0.00049216,-0.00138473,-0.00
 082588,0.00008312,0.00021374,-0.00023127,0.00037790,-0.00007143,-0.000
 50821,0.00001585,0.00101613,-0.00181711,0.00147824,-0.00021228,0.00100
 075,0.00158808,0.00782431,-0.02039685,0.03022946,0.02364462,0.05212792
 ,-0.04386257,-0.00136216,0.00223724,-0.00573128,-0.00182683,0.01171785
 ,-0.00843136,0.00386296,-0.00229607,-0.00248560,0.00087616,-0.00097837
 ,-0.00088676,-0.00210928,-0.00003053,-0.00102276,-0.00020800,-0.000036
 60,0.00049009,0.00029762,0.00039082,0.00021176,-0.00004984,-0.00011700
 ,0.00003876,0.00033451,-0.00006879,0.00004199,-0.00001360,-0.00008077,
 -0.00008958,0.00060386,0.00055945,0.00078527,0.00015721,-0.00051696,0.
 00029213,-0.00055302,-0.00032045,-0.00002445,-0.00046203,-0.00098471,-
 0.00028365,0.00007038,-0.00015208,0.00016294,0.00032992,0.00006377,0.0
 0007298,-0.00010594,-0.00007510,-0.00009118,-0.00017779,-0.00025478,-0
 .00026187,-0.00914690,0.04533475,-0.04114231,-0.00426252,0.00215016,0.
 00276636,-0.02629136,0.02431385,-0.16276101,0.00941092,-0.11164160,0.2
 2893162\\0.00000076,-0.00000155,-0.00000208,-0.00000070,-0.00000274,-0
 .00000380,0.00000064,0.00000183,-0.00000114,-0.00000055,-0.00000400,0.
 00000033,0.00000149,-0.00000325,-0.00000008,-0.00000106,-0.00000496,0.
 00000009,-0.00000173,-0.00001234,0.00000872,0.00000339,0.00000290,-0.0
 0000939,-0.00000018,-0.00000193,0.00000185,0.00000159,0.00000531,-0.00
 000284,0.00000045,0.00000448,0.00000165,0.00000106,0.00000487,-0.00000
 360,0.00000032,0.00000040,-0.00000023,0.00000087,-0.00000086,-0.000003
 25,0.00000135,0.00000478,-0.00000260,-0.00000054,0.00000691,0.00000063
 ,0.00000063,0.00000369,-0.00000229,0.00000129,0.00000564,-0.00000452,-
 0.00000231,-0.00000192,0.00000577,-0.00000047,0.00000211,0.00000398,-0
 .00000182,-0.00000444,0.00000558,-0.00000185,-0.00000220,0.00000581,-0
 .00000002,-0.00000063,0.00000282,-0.00000057,-0.00000089,0.00000248,-0
 .00000202,0.00000181,0.00000461,-0.00000174,-0.00000247,0.00000327,0.0
 0000057,0.00000096,-0.00000343,-0.00000029,0.00000236,-0.00000101,0.00
 000089,-0.00000145,0.00000412,0.00000054,-0.00000239,-0.00001145\\\@
 Job cpu time:  0 days  9 hours 10 minutes 42.1 seconds.
 File lengths (MBytes):  RWF=  73521 Int=      0 D2E=      0 Chk=     26 Scr=      1
 Normal termination of Gaussian 09 at Mon Feb 17 21:09:43 2014.
