 Entering Gaussian System, Link 0=g09
 Initial command:
 /usr/caen/gaussian-09revc/g09/l1.exe /scratch/avioli_flux/hetanjin/scratch/Gau-26389.inp -scrdir=/scratch/avioli_flux/hetanjin/scratch/
 Entering Link 1 = /usr/caen/gaussian-09revc/g09/l1.exe PID=     26390.
  
 Copyright (c) 1988,1990,1992,1993,1995,1998,2003,2009,2011,
            Gaussian, Inc.  All Rights Reserved.
  
 This is part of the Gaussian(R) 09 program.  It is based on
 the Gaussian(R) 03 system (copyright 2003, Gaussian, Inc.),
 the Gaussian(R) 98 system (copyright 1998, Gaussian, Inc.),
 the Gaussian(R) 94 system (copyright 1995, Gaussian, Inc.),
 the Gaussian 92(TM) system (copyright 1992, Gaussian, Inc.),
 the Gaussian 90(TM) system (copyright 1990, Gaussian, Inc.),
 the Gaussian 88(TM) system (copyright 1988, Gaussian, Inc.),
 the Gaussian 86(TM) system (copyright 1986, Carnegie Mellon
 University), and the Gaussian 82(TM) system (copyright 1983,
 Carnegie Mellon University). Gaussian is a federally registered
 trademark of Gaussian, Inc.
  
 This software contains proprietary and confidential information,
 including trade secrets, belonging to Gaussian, Inc.
  
 This software is provided under written license and may be
 used, copied, transmitted, or stored only in accord with that
 written license.
  
 The following legend is applicable only to US Government
 contracts under FAR:
  
                    RESTRICTED RIGHTS LEGEND
  
 Use, reproduction and disclosure by the US Government is
 subject to restrictions as set forth in subparagraphs (a)
 and (c) of the Commercial Computer Software - Restricted
 Rights clause in FAR 52.227-19.
  
 Gaussian, Inc.
 340 Quinnipiac St., Bldg. 40, Wallingford CT 06492
  
  
 ---------------------------------------------------------------
 Warning -- This program may not be used in any manner that
 competes with the business of Gaussian, Inc. or will provide
 assistance to any competitor of Gaussian, Inc.  The licensee
 of this program is prohibited from giving any competitor of
 Gaussian, Inc. access to this program.  By using this program,
 the user acknowledges that Gaussian, Inc. is engaged in the
 business of creating and licensing software in the field of
 computational chemistry and represents and warrants to the
 licensee that it is not a competitor of Gaussian, Inc. and that
 it will not use this program in any manner prohibited above.
 ---------------------------------------------------------------
  

 Cite this work as:
 Gaussian 09, Revision C.01,
 M. J. Frisch, G. W. Trucks, H. B. Schlegel, G. E. Scuseria, 
 M. A. Robb, J. R. Cheeseman, G. Scalmani, V. Barone, B. Mennucci, 
 G. A. Petersson, H. Nakatsuji, M. Caricato, X. Li, H. P. Hratchian, 
 A. F. Izmaylov, J. Bloino, G. Zheng, J. L. Sonnenberg, M. Hada, 
 M. Ehara, K. Toyota, R. Fukuda, J. Hasegawa, M. Ishida, T. Nakajima, 
 Y. Honda, O. Kitao, H. Nakai, T. Vreven, J. A. Montgomery, Jr., 
 J. E. Peralta, F. Ogliaro, M. Bearpark, J. J. Heyd, E. Brothers, 
 K. N. Kudin, V. N. Staroverov, T. Keith, R. Kobayashi, J. Normand, 
 K. Raghavachari, A. Rendell, J. C. Burant, S. S. Iyengar, J. Tomasi, 
 M. Cossi, N. Rega, J. M. Millam, M. Klene, J. E. Knox, J. B. Cross, 
 V. Bakken, C. Adamo, J. Jaramillo, R. Gomperts, R. E. Stratmann, 
 O. Yazyev, A. J. Austin, R. Cammi, C. Pomelli, J. W. Ochterski, 
 R. L. Martin, K. Morokuma, V. G. Zakrzewski, G. A. Voth, 
 P. Salvador, J. J. Dannenberg, S. Dapprich, A. D. Daniels, 
 O. Farkas, J. B. Foresman, J. V. Ortiz, J. Cioslowski, 
 and D. J. Fox, Gaussian, Inc., Wallingford CT, 2010.
 
 ******************************************
 Gaussian 09:  EM64L-G09RevC.01 23-Sep-2011
                19-Feb-2014 
 ******************************************
 %mem=30GB
 %nprocshared=8
 Will use up to    8 processors via shared memory.
 %chk=TS_3_C9H18O_3.chk
 -------------------------------
 #p cbs-qb3 opt=(ts,calcfc) freq
 -------------------------------
 1/5=1,10=4,14=-1,18=20,26=3,38=1/1,3;
 2/9=110,12=2,17=6,18=5,40=1/2;
 3/5=4,6=6,7=700,11=2,16=1,25=1,30=1,71=2,74=-5/1,2,3;
 4//1;
 5/5=2,38=5/2;
 8/6=4,10=90,11=11/1;
 11/6=1,8=1,9=11,15=111,16=1/1,2,10;
 10/6=1,7=6,13=1/2;
 6/7=2,8=2,9=2,10=2,28=1/1;
 7/10=1,18=20,25=1/1,2,3,16;
 1/5=1,10=4,14=-1,18=20/3(2);
 2/9=110/2;
 99//99;
 2/9=110/2;
 3/5=4,6=6,7=700,11=2,16=1,25=1,30=1,71=1,74=-5/1,2,3;
 4/5=5,16=3/1;
 5/5=2,38=5/2;
 7//1,2,3,16;
 1/5=1,14=-1,18=20/3(-5);
 2/9=110/2;
 6/7=2,8=2,9=2,10=2,19=2,28=1/1;
 99/9=1/99;
 Leave Link    1 at Wed Feb 19 23:48:28 2014, MaxMem= 4026531840 cpu:       0.5
 (Enter /usr/caen/gaussian-09revc/g09/l101.exe)
 -----------------------------------------------------
 TS_3_C9H18O_3 using B3LYP/6-311++g(d,p) to calc. freq
 -----------------------------------------------------
 Charge =  0 Multiplicity = 2
 Symbolic Z-Matrix:
 C                    -3.63909   0.16034  -0.02102 
 H                    -3.63864   1.14204  -0.49393 
 H                    -3.7269    0.30545   1.05963 
 H                    -4.5207   -0.38986  -0.35982 
 C                    -2.36805  -0.62809  -0.36744 
 H                    -2.37826  -0.81306  -1.45425 
 C                     0.26448  -0.46065  -0.33832 
 H                     0.35079  -0.66016  -1.41861 
 H                     0.27375  -1.43262   0.15744 
 C                     1.45983   0.38902   0.11456 
 H                     1.44822   0.47723   1.20823 
 H                     1.33373   1.40159  -0.27642 
 C                     2.82913  -0.15669  -0.33123 
 H                     2.80655  -0.25526  -1.42565 
 C                     3.93825   0.84343   0.02385 
 H                     4.00741   0.98085   1.10852 
 H                     4.91338   0.49524  -0.32906 
 H                     3.74862   1.82334  -0.42337 
 C                    -2.35204  -1.98801   0.34682 
 H                    -2.25134  -1.85995   1.42953 
 H                    -3.29252  -2.51363   0.16367 
 H                    -1.54342  -2.63611   0.00363 
 C                     3.14004  -1.53937   0.26076 
 H                     3.14105  -1.50169   1.35611 
 H                     4.12668  -1.88788  -0.05822 
 H                     2.41319  -2.29577  -0.04699 
 C                    -1.09388   0.1809   -0.12749 
 H                    -1.14873   0.75656   1.07576 
 O                    -1.1675    1.49672  -0.61648 
 O                    -1.22435   2.01058   0.7866 
 
 NAtoms=     30 NQM=        0 NQMF=       0 NMMI=     30 NMMIF=      0
                NMic=       0 NMicF=      0.
                    Isotopes and Nuclear Properties:
 (Nuclear quadrupole moments (NQMom) in fm**2, nuclear magnetic moments (NMagM)
  in nuclear magnetons)

  Atom         1           2           3           4           5           6           7           8           9          10
 IAtWgt=          12           1           1           1          12           1          12           1           1          12
 AtmWgt=  12.0000000   1.0078250   1.0078250   1.0078250  12.0000000   1.0078250  12.0000000   1.0078250   1.0078250  12.0000000
 NucSpn=           0           1           1           1           0           1           0           1           1           0
 AtZEff=   0.0000000   0.0000000   0.0000000   0.0000000   0.0000000   0.0000000   0.0000000   0.0000000   0.0000000   0.0000000
 NQMom=    0.0000000   0.0000000   0.0000000   0.0000000   0.0000000   0.0000000   0.0000000   0.0000000   0.0000000   0.0000000
 NMagM=    0.0000000   2.7928460   2.7928460   2.7928460   0.0000000   2.7928460   0.0000000   2.7928460   2.7928460   0.0000000

  Atom        11          12          13          14          15          16          17          18          19          20
 IAtWgt=           1           1          12           1          12           1           1           1          12           1
 AtmWgt=   1.0078250   1.0078250  12.0000000   1.0078250  12.0000000   1.0078250   1.0078250   1.0078250  12.0000000   1.0078250
 NucSpn=           1           1           0           1           0           1           1           1           0           1
 AtZEff=   0.0000000   0.0000000   0.0000000   0.0000000   0.0000000   0.0000000   0.0000000   0.0000000   0.0000000   0.0000000
 NQMom=    0.0000000   0.0000000   0.0000000   0.0000000   0.0000000   0.0000000   0.0000000   0.0000000   0.0000000   0.0000000
 NMagM=    2.7928460   2.7928460   0.0000000   2.7928460   0.0000000   2.7928460   2.7928460   2.7928460   0.0000000   2.7928460

  Atom        21          22          23          24          25          26          27          28          29          30
 IAtWgt=           1           1          12           1           1           1          12           1          16          16
 AtmWgt=   1.0078250   1.0078250  12.0000000   1.0078250   1.0078250   1.0078250  12.0000000   1.0078250  15.9949146  15.9949146
 NucSpn=           1           1           0           1           1           1           0           1           0           0
 AtZEff=   0.0000000   0.0000000   0.0000000   0.0000000   0.0000000   0.0000000   0.0000000   0.0000000   0.0000000   0.0000000
 NQMom=    0.0000000   0.0000000   0.0000000   0.0000000   0.0000000   0.0000000   0.0000000   0.0000000   0.0000000   0.0000000
 NMagM=    2.7928460   2.7928460   0.0000000   2.7928460   2.7928460   2.7928460   0.0000000   2.7928460   0.0000000   0.0000000
 Leave Link  101 at Wed Feb 19 23:48:29 2014, MaxMem= 4026531840 cpu:       2.4
 (Enter /usr/caen/gaussian-09revc/g09/l103.exe)

 GradGradGradGradGradGradGradGradGradGradGradGradGradGradGradGradGradGrad
 Berny optimization.
 Initialization pass.
                           ----------------------------
                           !    Initial Parameters    !
                           ! (Angstroms and Degrees)  !
 --------------------------                            --------------------------
 ! Name  Definition              Value          Derivative Info.                !
 --------------------------------------------------------------------------------
 ! R1    R(1,2)                  1.0897         calculate D2E/DX2 analytically  !
 ! R2    R(1,3)                  1.0939         calculate D2E/DX2 analytically  !
 ! R3    R(1,4)                  1.093          calculate D2E/DX2 analytically  !
 ! R4    R(1,5)                  1.5353         calculate D2E/DX2 analytically  !
 ! R5    R(5,6)                  1.1025         calculate D2E/DX2 analytically  !
 ! R6    R(5,19)                 1.5362         calculate D2E/DX2 analytically  !
 ! R7    R(5,27)                 1.5283         calculate D2E/DX2 analytically  !
 ! R8    R(7,8)                  1.1019         calculate D2E/DX2 analytically  !
 ! R9    R(7,9)                  1.0911         calculate D2E/DX2 analytically  !
 ! R10   R(7,10)                 1.5349         calculate D2E/DX2 analytically  !
 ! R11   R(7,27)                 1.517          calculate D2E/DX2 analytically  !
 ! R12   R(10,11)                1.0973         calculate D2E/DX2 analytically  !
 ! R13   R(10,12)                1.0927         calculate D2E/DX2 analytically  !
 ! R14   R(10,13)                1.54           calculate D2E/DX2 analytically  !
 ! R15   R(13,14)                1.0991         calculate D2E/DX2 analytically  !
 ! R16   R(13,15)                1.5351         calculate D2E/DX2 analytically  !
 ! R17   R(13,23)                1.5359         calculate D2E/DX2 analytically  !
 ! R18   R(15,16)                1.0955         calculate D2E/DX2 analytically  !
 ! R19   R(15,17)                1.0939         calculate D2E/DX2 analytically  !
 ! R20   R(15,18)                1.0937         calculate D2E/DX2 analytically  !
 ! R21   R(19,20)                1.0949         calculate D2E/DX2 analytically  !
 ! R22   R(19,21)                1.0928         calculate D2E/DX2 analytically  !
 ! R23   R(19,22)                1.0916         calculate D2E/DX2 analytically  !
 ! R24   R(23,24)                1.096          calculate D2E/DX2 analytically  !
 ! R25   R(23,25)                1.0939         calculate D2E/DX2 analytically  !
 ! R26   R(23,26)                1.0932         calculate D2E/DX2 analytically  !
 ! R27   R(27,28)                1.335          calculate D2E/DX2 analytically  !
 ! R28   R(27,29)                1.4057         calculate D2E/DX2 analytically  !
 ! R29   R(29,30)                1.4953         calculate D2E/DX2 analytically  !
 ! A1    A(2,1,3)              108.0154         calculate D2E/DX2 analytically  !
 ! A2    A(2,1,4)              108.6202         calculate D2E/DX2 analytically  !
 ! A3    A(2,1,5)              111.3696         calculate D2E/DX2 analytically  !
 ! A4    A(3,1,4)              107.9534         calculate D2E/DX2 analytically  !
 ! A5    A(3,1,5)              110.9461         calculate D2E/DX2 analytically  !
 ! A6    A(4,1,5)              109.834          calculate D2E/DX2 analytically  !
 ! A7    A(1,5,6)              107.5133         calculate D2E/DX2 analytically  !
 ! A8    A(1,5,19)             110.9976         calculate D2E/DX2 analytically  !
 ! A9    A(1,5,27)             112.5171         calculate D2E/DX2 analytically  !
 ! A10   A(6,5,19)             108.0549         calculate D2E/DX2 analytically  !
 ! A11   A(6,5,27)             104.5548         calculate D2E/DX2 analytically  !
 ! A12   A(19,5,27)            112.7636         calculate D2E/DX2 analytically  !
 ! A13   A(8,7,9)              106.4675         calculate D2E/DX2 analytically  !
 ! A14   A(8,7,10)             109.177          calculate D2E/DX2 analytically  !
 ! A15   A(8,7,27)             106.4372         calculate D2E/DX2 analytically  !
 ! A16   A(9,7,10)             110.6359         calculate D2E/DX2 analytically  !
 ! A17   A(9,7,27)             108.7352         calculate D2E/DX2 analytically  !
 ! A18   A(10,7,27)            114.9758         calculate D2E/DX2 analytically  !
 ! A19   A(7,10,11)            109.29           calculate D2E/DX2 analytically  !
 ! A20   A(7,10,12)            108.5127         calculate D2E/DX2 analytically  !
 ! A21   A(7,10,13)            114.2609         calculate D2E/DX2 analytically  !
 ! A22   A(11,10,12)           106.3144         calculate D2E/DX2 analytically  !
 ! A23   A(11,10,13)           109.0513         calculate D2E/DX2 analytically  !
 ! A24   A(12,10,13)           109.1117         calculate D2E/DX2 analytically  !
 ! A25   A(10,13,14)           107.5636         calculate D2E/DX2 analytically  !
 ! A26   A(10,13,15)           110.158          calculate D2E/DX2 analytically  !
 ! A27   A(10,13,23)           112.7955         calculate D2E/DX2 analytically  !
 ! A28   A(14,13,15)           107.6737         calculate D2E/DX2 analytically  !
 ! A29   A(14,13,23)           107.892          calculate D2E/DX2 analytically  !
 ! A30   A(15,13,23)           110.5552         calculate D2E/DX2 analytically  !
 ! A31   A(13,15,16)           110.8761         calculate D2E/DX2 analytically  !
 ! A32   A(13,15,17)           111.2273         calculate D2E/DX2 analytically  !
 ! A33   A(13,15,18)           111.3381         calculate D2E/DX2 analytically  !
 ! A34   A(16,15,17)           107.6414         calculate D2E/DX2 analytically  !
 ! A35   A(16,15,18)           107.6626         calculate D2E/DX2 analytically  !
 ! A36   A(17,15,18)           107.928          calculate D2E/DX2 analytically  !
 ! A37   A(5,19,20)            110.9289         calculate D2E/DX2 analytically  !
 ! A38   A(5,19,21)            109.809          calculate D2E/DX2 analytically  !
 ! A39   A(5,19,22)            112.7753         calculate D2E/DX2 analytically  !
 ! A40   A(20,19,21)           107.5256         calculate D2E/DX2 analytically  !
 ! A41   A(20,19,22)           108.1916         calculate D2E/DX2 analytically  !
 ! A42   A(21,19,22)           107.4111         calculate D2E/DX2 analytically  !
 ! A43   A(13,23,24)           110.7592         calculate D2E/DX2 analytically  !
 ! A44   A(13,23,25)           110.916          calculate D2E/DX2 analytically  !
 ! A45   A(13,23,26)           112.3205         calculate D2E/DX2 analytically  !
 ! A46   A(24,23,25)           107.5502         calculate D2E/DX2 analytically  !
 ! A47   A(24,23,26)           107.8027         calculate D2E/DX2 analytically  !
 ! A48   A(25,23,26)           107.2864         calculate D2E/DX2 analytically  !
 ! A49   A(5,27,7)             120.0579         calculate D2E/DX2 analytically  !
 ! A50   A(5,27,28)            109.6043         calculate D2E/DX2 analytically  !
 ! A51   A(5,27,29)            113.4054         calculate D2E/DX2 analytically  !
 ! A52   A(7,27,28)            110.1468         calculate D2E/DX2 analytically  !
 ! A53   A(7,27,29)            113.2307         calculate D2E/DX2 analytically  !
 ! A54   A(28,27,29)            84.7067         calculate D2E/DX2 analytically  !
 ! A55   A(27,29,30)            89.8428         calculate D2E/DX2 analytically  !
 ! D1    D(2,1,5,6)            -64.2137         calculate D2E/DX2 analytically  !
 ! D2    D(2,1,5,19)           177.8024         calculate D2E/DX2 analytically  !
 ! D3    D(2,1,5,27)            50.374          calculate D2E/DX2 analytically  !
 ! D4    D(3,1,5,6)            175.4296         calculate D2E/DX2 analytically  !
 ! D5    D(3,1,5,19)            57.4456         calculate D2E/DX2 analytically  !
 ! D6    D(3,1,5,27)           -69.9828         calculate D2E/DX2 analytically  !
 ! D7    D(4,1,5,6)             56.1589         calculate D2E/DX2 analytically  !
 ! D8    D(4,1,5,19)           -61.8251         calculate D2E/DX2 analytically  !
 ! D9    D(4,1,5,27)           170.7466         calculate D2E/DX2 analytically  !
 ! D10   D(1,5,19,20)          -67.4043         calculate D2E/DX2 analytically  !
 ! D11   D(1,5,19,21)           51.3095         calculate D2E/DX2 analytically  !
 ! D12   D(1,5,19,22)          171.0565         calculate D2E/DX2 analytically  !
 ! D13   D(6,5,19,20)          174.941          calculate D2E/DX2 analytically  !
 ! D14   D(6,5,19,21)          -66.3452         calculate D2E/DX2 analytically  !
 ! D15   D(6,5,19,22)           53.4018         calculate D2E/DX2 analytically  !
 ! D16   D(27,5,19,20)          59.8894         calculate D2E/DX2 analytically  !
 ! D17   D(27,5,19,21)         178.6032         calculate D2E/DX2 analytically  !
 ! D18   D(27,5,19,22)         -61.6498         calculate D2E/DX2 analytically  !
 ! D19   D(1,5,27,7)           176.4955         calculate D2E/DX2 analytically  !
 ! D20   D(1,5,27,28)           47.5527         calculate D2E/DX2 analytically  !
 ! D21   D(1,5,27,29)          -45.1674         calculate D2E/DX2 analytically  !
 ! D22   D(6,5,27,7)           -67.1324         calculate D2E/DX2 analytically  !
 ! D23   D(6,5,27,28)          163.9248         calculate D2E/DX2 analytically  !
 ! D24   D(6,5,27,29)           71.2047         calculate D2E/DX2 analytically  !
 ! D25   D(19,5,27,7)           50.0098         calculate D2E/DX2 analytically  !
 ! D26   D(19,5,27,28)         -78.933          calculate D2E/DX2 analytically  !
 ! D27   D(19,5,27,29)        -171.6531         calculate D2E/DX2 analytically  !
 ! D28   D(8,7,10,11)         -172.5656         calculate D2E/DX2 analytically  !
 ! D29   D(8,7,10,12)           71.9001         calculate D2E/DX2 analytically  !
 ! D30   D(8,7,10,13)          -50.0808         calculate D2E/DX2 analytically  !
 ! D31   D(9,7,10,11)          -55.7144         calculate D2E/DX2 analytically  !
 ! D32   D(9,7,10,12)         -171.2487         calculate D2E/DX2 analytically  !
 ! D33   D(9,7,10,13)           66.7704         calculate D2E/DX2 analytically  !
 ! D34   D(27,7,10,11)          67.9299         calculate D2E/DX2 analytically  !
 ! D35   D(27,7,10,12)         -47.6044         calculate D2E/DX2 analytically  !
 ! D36   D(27,7,10,13)        -169.5853         calculate D2E/DX2 analytically  !
 ! D37   D(8,7,27,5)            66.8626         calculate D2E/DX2 analytically  !
 ! D38   D(8,7,27,28)         -164.4384         calculate D2E/DX2 analytically  !
 ! D39   D(8,7,27,29)          -71.5414         calculate D2E/DX2 analytically  !
 ! D40   D(9,7,27,5)           -47.4773         calculate D2E/DX2 analytically  !
 ! D41   D(9,7,27,28)           81.2218         calculate D2E/DX2 analytically  !
 ! D42   D(9,7,27,29)          174.1187         calculate D2E/DX2 analytically  !
 ! D43   D(10,7,27,5)         -172.1243         calculate D2E/DX2 analytically  !
 ! D44   D(10,7,27,28)         -43.4252         calculate D2E/DX2 analytically  !
 ! D45   D(10,7,27,29)          49.4717         calculate D2E/DX2 analytically  !
 ! D46   D(7,10,13,14)          56.2064         calculate D2E/DX2 analytically  !
 ! D47   D(7,10,13,15)         173.298          calculate D2E/DX2 analytically  !
 ! D48   D(7,10,13,23)         -62.647          calculate D2E/DX2 analytically  !
 ! D49   D(11,10,13,14)        178.8212         calculate D2E/DX2 analytically  !
 ! D50   D(11,10,13,15)        -64.0873         calculate D2E/DX2 analytically  !
 ! D51   D(11,10,13,23)         59.9677         calculate D2E/DX2 analytically  !
 ! D52   D(12,10,13,14)        -65.4456         calculate D2E/DX2 analytically  !
 ! D53   D(12,10,13,15)         51.6459         calculate D2E/DX2 analytically  !
 ! D54   D(12,10,13,23)        175.701          calculate D2E/DX2 analytically  !
 ! D55   D(10,13,15,16)         63.0349         calculate D2E/DX2 analytically  !
 ! D56   D(10,13,15,17)       -177.2229         calculate D2E/DX2 analytically  !
 ! D57   D(10,13,15,18)        -56.8074         calculate D2E/DX2 analytically  !
 ! D58   D(14,13,15,16)       -179.9421         calculate D2E/DX2 analytically  !
 ! D59   D(14,13,15,17)        -60.1999         calculate D2E/DX2 analytically  !
 ! D60   D(14,13,15,18)         60.2156         calculate D2E/DX2 analytically  !
 ! D61   D(23,13,15,16)        -62.3062         calculate D2E/DX2 analytically  !
 ! D62   D(23,13,15,17)         57.4359         calculate D2E/DX2 analytically  !
 ! D63   D(23,13,15,18)        177.8514         calculate D2E/DX2 analytically  !
 ! D64   D(10,13,23,24)        -59.4631         calculate D2E/DX2 analytically  !
 ! D65   D(10,13,23,25)       -178.8098         calculate D2E/DX2 analytically  !
 ! D66   D(10,13,23,26)         61.1386         calculate D2E/DX2 analytically  !
 ! D67   D(14,13,23,24)       -178.1253         calculate D2E/DX2 analytically  !
 ! D68   D(14,13,23,25)         62.528          calculate D2E/DX2 analytically  !
 ! D69   D(14,13,23,26)        -57.5235         calculate D2E/DX2 analytically  !
 ! D70   D(15,13,23,24)         64.373          calculate D2E/DX2 analytically  !
 ! D71   D(15,13,23,25)        -54.9737         calculate D2E/DX2 analytically  !
 ! D72   D(15,13,23,26)       -175.0253         calculate D2E/DX2 analytically  !
 ! D73   D(5,27,29,30)         108.9905         calculate D2E/DX2 analytically  !
 ! D74   D(7,27,29,30)        -109.7736         calculate D2E/DX2 analytically  !
 ! D75   D(28,27,29,30)         -0.1005         calculate D2E/DX2 analytically  !
 --------------------------------------------------------------------------------
 Trust Radius=3.00D-01 FncErr=1.00D-07 GrdErr=1.00D-06
 Number of steps in this run=    169 maximum allowed number of steps=    180.
 Search for a saddle point of order  1.
 GradGradGradGradGradGradGradGradGradGradGradGradGradGradGradGradGradGrad

 Leave Link  103 at Wed Feb 19 23:48:29 2014, MaxMem= 4026531840 cpu:       0.1
 (Enter /usr/caen/gaussian-09revc/g09/l202.exe)
                          Input orientation:                          
 ---------------------------------------------------------------------
 Center     Atomic      Atomic             Coordinates (Angstroms)
 Number     Number       Type             X           Y           Z
 ---------------------------------------------------------------------
      1          6           0       -3.639090    0.160342   -0.021017
      2          1           0       -3.638642    1.142036   -0.493933
      3          1           0       -3.726899    0.305451    1.059626
      4          1           0       -4.520699   -0.389855   -0.359820
      5          6           0       -2.368053   -0.628094   -0.367443
      6          1           0       -2.378255   -0.813060   -1.454249
      7          6           0        0.264476   -0.460647   -0.338324
      8          1           0        0.350788   -0.660164   -1.418612
      9          1           0        0.273754   -1.432620    0.157438
     10          6           0        1.459828    0.389024    0.114557
     11          1           0        1.448223    0.477234    1.208229
     12          1           0        1.333725    1.401586   -0.276418
     13          6           0        2.829125   -0.156692   -0.331228
     14          1           0        2.806547   -0.255261   -1.425645
     15          6           0        3.938249    0.843429    0.023845
     16          1           0        4.007408    0.980847    1.108515
     17          1           0        4.913383    0.495238   -0.329057
     18          1           0        3.748620    1.823342   -0.423374
     19          6           0       -2.352044   -1.988011    0.346823
     20          1           0       -2.251341   -1.859952    1.429530
     21          1           0       -3.292522   -2.513630    0.163669
     22          1           0       -1.543424   -2.636114    0.003626
     23          6           0        3.140036   -1.539372    0.260756
     24          1           0        3.141045   -1.501687    1.356105
     25          1           0        4.126676   -1.887880   -0.058221
     26          1           0        2.413189   -2.295769   -0.046993
     27          6           0       -1.093877    0.180902   -0.127489
     28          1           0       -1.148729    0.756558    1.075758
     29          8           0       -1.167498    1.496723   -0.616482
     30          8           0       -1.224346    2.010580    0.786600
 ---------------------------------------------------------------------
                    Distance matrix (angstroms):
                    1          2          3          4          5
     1  C    0.000000
     2  H    1.089666   0.000000
     3  H    1.093872   1.766694   0.000000
     4  H    1.093041   1.772766   1.768727   0.000000
     5  C    1.535310   2.182603   2.180480   2.165803   0.000000
     6  H    2.142748   2.516582   3.064225   2.442733   1.102481
     7  C    3.965367   4.222219   4.297935   4.785747   2.638010
     8  H    4.306464   4.474205   4.868430   4.992544   2.915147
     9  H    4.228442   4.728634   4.454218   4.933730   2.811033
    10  C    5.105844   5.189575   5.272786   6.049660   3.989928
    11  H    5.243302   5.405138   5.180104   6.232066   4.274161
    12  H    5.131745   4.983885   5.347564   6.122948   4.222682
    13  C    6.483405   6.598877   6.717849   7.353577   5.218639
    14  H    6.609988   6.660404   7.012623   7.405581   5.294835
    15  C    7.608199   7.600430   7.753500   8.556985   6.487521
    16  H    7.772902   7.813828   7.763894   8.761475   6.738965
    17  H    8.564569   8.578034   8.753224   9.475560   7.367677
    18  H    7.583253   7.418948   7.770886   8.560603   6.589868
    19  C    2.531248   3.487033   2.767360   2.785051   1.536166
    20  H    2.848073   3.825735   2.646332   3.242367   2.181790
    21  H    2.702655   3.730433   2.989756   2.508561   2.166095
    22  H    3.494652   4.348784   3.812546   3.747258   2.202237
    23  C    6.994639   7.328709   7.155163   7.771317   5.618194
    24  H    7.115408   7.508400   7.107904   7.929873   5.838146
    25  H    8.031421   8.346880   8.230366   8.781352   6.623004
    26  H    6.531710   6.974447   6.759559   7.197859   5.073865
    27  C    2.547522   2.744793   2.890944   3.481788   1.528259
    28  H    2.785729   2.968533   2.617388   3.839965   2.342401
    29  O    2.872152   2.499475   3.283139   3.856035   2.453202
    30  O    3.147477   2.867570   3.040523   4.235836   3.098787
                    6          7          8          9         10
     6  H    0.000000
     7  C    2.890244   0.000000
     8  H    2.733555   1.101943   0.000000
     9  H    3.164576   1.091145   1.756860   0.000000
    10  C    4.317064   1.534897   2.163648   2.174166   0.000000
    11  H    4.836898   2.161644   3.065670   2.476102   1.097285
    12  H    4.480038   2.148264   2.553739   3.056876   1.092724
    13  C    5.367383   2.582608   2.752824   2.897707   1.539969
    14  H    5.214799   2.772467   2.488925   3.210509   2.144989
    15  C    6.695292   3.915149   4.148656   4.315874   2.521365
    16  H    7.110735   4.263894   4.738160   4.546377   2.797923
    17  H    7.493042   4.746171   4.831082   5.047719   3.483549
    18  H    6.749216   4.166905   4.324762   4.797221   2.754125
    19  C    2.150595   3.106194   3.490736   2.690565   4.498290
    20  H    3.070549   3.378268   4.040109   2.859534   4.534294
    21  H    2.519024   4.137508   4.383225   3.726519   5.568900
    22  H    2.479086   2.849226   3.084668   2.184992   4.264187
    23  C    5.824114   3.129120   3.372416   2.870129   2.561871
    24  H    6.231771   3.497071   4.024022   3.108525   2.818283
    25  H    6.739307   4.126989   4.197056   3.885715   3.510872
    26  H    5.209293   2.840689   2.968171   2.316031   2.853613
    27  C    2.097112   1.516957   2.112214   2.134257   2.573579
    28  H    3.221237   2.340591   3.236902   2.767539   2.804204
    29  O    2.739139   2.441151   2.756949   3.355177   2.943511
    30  O    3.784951   3.096612   3.804850   3.807332   3.207160
                   11         12         13         14         15
    11  H    0.000000
    12  H    1.752630   0.000000
    13  C    2.163026   2.160429   0.000000
    14  H    3.052685   2.497012   1.099079   0.000000
    15  C    2.781563   2.680530   1.535081   2.142170   0.000000
    16  H    2.610172   3.040336   2.180643   3.064637   1.095525
    17  H    3.790898   3.692992   2.183838   2.490886   1.093921
    18  H    3.125054   2.455849   2.185062   2.492517   1.093706
    19  C    4.611018   5.046057   5.536966   5.723209   6.905733
    20  H    4.381573   5.138150   5.640257   6.025719   6.898931
    21  H    5.701845   6.076574   6.578346   6.695132   7.973296
    22  H    4.482628   4.965826   5.037742   5.160768   6.492793
    23  C    2.797613   3.492928   1.535876   2.145718   2.524086
    24  H    2.608379   3.789529   2.180229   3.066529   2.812476
    25  H    3.791012   4.320737   2.180638   2.505600   2.739031
    26  H    3.193163   3.858538   2.197599   2.493809   3.490758
    27  C    2.886906   2.721305   3.942769   4.133855   5.077808
    28  H    2.615288   2.899486   4.317054   4.788006   5.195326
    29  O    3.348272   2.526027   4.334530   4.417831   5.187048
    30  O    3.109911   2.836302   4.730458   5.126028   5.347562
                   16         17         18         19         20
    16  H    0.000000
    17  H    1.767263   0.000000
    18  H    1.767329   1.769019   0.000000
    19  C    7.059527   7.707773   7.234481   0.000000
    20  H    6.880780   7.744212   7.280071   1.094895   0.000000
    21  H    8.148195   8.754024   8.290454   1.092849   1.764584
    22  H    6.716764   7.183759   6.933600   1.091645   1.771095
    23  C    2.796879   2.762658   3.485148   5.511046   5.525916
    24  H    2.640996   3.157319   3.819884   5.606174   5.404773
    25  H    3.099208   2.524185   3.748257   6.492141   6.549296
    26  H    3.822688   3.757692   4.346506   4.791373   4.912016
    27  C    5.309494   6.018854   5.122005   2.551889   2.815869
    28  H    5.161117   6.228242   5.231582   3.084149   2.861299
    29  O    5.479178   6.169497   4.930739   3.804534   4.077763
    30  O    5.341838   6.419709   5.121473   4.177779   4.055748
                   21         22         23         24         25
    21  H    0.000000
    22  H    1.760670   0.000000
    23  C    6.506643   4.817028   0.000000
    24  H    6.620930   5.006034   1.095998   0.000000
    25  H    7.448845   5.719590   1.093921   1.766616   0.000000
    26  H    5.713754   3.971547   1.093230   1.768905   1.761402
    27  C    3.489888   2.855672   4.586512   4.792361   5.615944
    28  H    4.015207   3.579871   4.932446   4.855968   6.009065
    29  O    4.605138   4.195974   5.342496   5.607593   6.308365
    30  O    5.013369   4.722989   5.650354   5.631784   6.674215
                   26         27         28         29         30
    26  H    0.000000
    27  C    4.294169   0.000000
    28  H    4.823332   1.334988   0.000000
    29  O    5.246774   1.405674   1.847126   0.000000
    30  O    5.698349   2.049464   1.289148   1.495299   0.000000
 Stoichiometry    C9H19O2(2)
 Framework group  C1[X(C9H19O2)]
 Deg. of freedom    84
 Full point group                 C1      NOp   1
 Largest Abelian subgroup         C1      NOp   1
 Largest concise Abelian subgroup C1      NOp   1
                         Standard orientation:                         
 ---------------------------------------------------------------------
 Center     Atomic      Atomic             Coordinates (Angstroms)
 Number     Number       Type             X           Y           Z
 ---------------------------------------------------------------------
      1          6           0        3.639090   -0.160342   -0.021017
      2          1           0        3.638642   -1.142036   -0.493933
      3          1           0        3.726899   -0.305451    1.059626
      4          1           0        4.520699    0.389855   -0.359820
      5          6           0        2.368053    0.628094   -0.367443
      6          1           0        2.378255    0.813060   -1.454249
      7          6           0       -0.264476    0.460647   -0.338324
      8          1           0       -0.350788    0.660164   -1.418612
      9          1           0       -0.273754    1.432620    0.157438
     10          6           0       -1.459828   -0.389024    0.114557
     11          1           0       -1.448223   -0.477234    1.208229
     12          1           0       -1.333725   -1.401586   -0.276418
     13          6           0       -2.829125    0.156692   -0.331228
     14          1           0       -2.806547    0.255261   -1.425645
     15          6           0       -3.938249   -0.843429    0.023845
     16          1           0       -4.007408   -0.980847    1.108515
     17          1           0       -4.913383   -0.495238   -0.329057
     18          1           0       -3.748620   -1.823342   -0.423374
     19          6           0        2.352044    1.988011    0.346823
     20          1           0        2.251341    1.859952    1.429530
     21          1           0        3.292522    2.513630    0.163669
     22          1           0        1.543424    2.636114    0.003626
     23          6           0       -3.140036    1.539372    0.260756
     24          1           0       -3.141045    1.501687    1.356105
     25          1           0       -4.126676    1.887880   -0.058221
     26          1           0       -2.413189    2.295769   -0.046993
     27          6           0        1.093877   -0.180902   -0.127489
     28          1           0        1.148729   -0.756558    1.075758
     29          8           0        1.167498   -1.496723   -0.616482
     30          8           0        1.224346   -2.010580    0.786600
 ---------------------------------------------------------------------
 Rotational constants (GHZ):      1.8486623      0.5097350      0.4256901
 Leave Link  202 at Wed Feb 19 23:48:29 2014, MaxMem= 4026531840 cpu:       0.6
 (Enter /usr/caen/gaussian-09revc/g09/l301.exe)
 Standard basis: 6-311G(2d,d,p) (5D, 7F)
 Ernie: Thresh=  0.10000D-02 Tol=  0.10000D-05 Strict=F.
 There are   312 symmetry adapted basis functions of A   symmetry.
 Integral buffers will be    131072 words long.
 Raffenetti 2 integral format.
 Two-electron integral symmetry is turned on.
   312 basis functions,   504 primitive gaussians,   323 cartesian basis functions
    45 alpha electrons       44 beta electrons
       nuclear repulsion energy       666.2041472687 Hartrees.
 IExCor=  402 DFT=T Ex+Corr=B3LYP ExCW=0 ScaHFX=  0.200000
 ScaDFX=  0.800000  0.720000  1.000000  0.810000 ScalE2=  1.000000  1.000000
 IRadAn=      0 IRanWt=     -1 IRanGd=            0 ICorTp=0
 NAtoms=   30 NActive=   30 NUniq=   30 SFac= 1.00D+00 NAtFMM=   60 NAOKFM=F Big=F
 Leave Link  301 at Wed Feb 19 23:48:30 2014, MaxMem= 4026531840 cpu:       0.6
 (Enter /usr/caen/gaussian-09revc/g09/l302.exe)
 NPDir=0 NMtPBC=     1 NCelOv=     1 NCel=       1 NClECP=     1 NCelD=      1
         NCelK=      1 NCelE2=     1 NClLst=     1 CellRange=     0.0.
 One-electron integrals computed using PRISM.
 NBasis=   312 RedAO= T  NBF=   312
 NBsUse=   312 1.00D-06 NBFU=   312
 Precomputing XC quadrature grid using
 IXCGrd= 2 IRadAn=           0 IRanWt=          -1 IRanGd=           0 AccXCQ= 0.00D+00.
 NRdTot=    1911 NPtTot=      243552 NUsed=      257332 NTot=      257364
 NSgBfM=   323   323   323   323   323 NAtAll=    30    30.
 Leave Link  302 at Wed Feb 19 23:48:32 2014, MaxMem= 4026531840 cpu:       8.0
 (Enter /usr/caen/gaussian-09revc/g09/l303.exe)
 DipDrv:  MaxL=1.
 Leave Link  303 at Wed Feb 19 23:48:32 2014, MaxMem= 4026531840 cpu:       2.1
 (Enter /usr/caen/gaussian-09revc/g09/l401.exe)
 Harris functional with IExCor=  402 diagonalized for initial guess.
 ExpMin= 1.03D-01 ExpMax= 8.59D+03 ExpMxC= 1.30D+03 IAcc=1 IRadAn=         1 AccDes= 0.00D+00
 HarFok:  IExCor=  402 AccDes= 0.00D+00 IRadAn=         1 IDoV= 1
 ScaDFX=  1.000000  1.000000  1.000000  1.000000
 FoFCou: FMM=F IPFlag=           0 FMFlag=      100000 FMFlg1=           0
         NFxFlg=           0 DoJE=T BraDBF=F KetDBF=T FulRan=T
         Omega=  0.000000  0.000000  1.000000  0.000000  0.000000 ICntrl=     500 IOpCl=  0
         NMat0=    1 NMatS0=    1 NMatT0=    0 NMatD0=    1 NMtDS0=    0 NMtDT0=    0
         I1Cent=           4 NGrid=           0.
 Petite list used in FoFCou.
 Harris En= -504.867131673174    
 Initial guess orbital symmetries:
 Alpha Orbitals:
       Occupied  (A) (A) (A) (A) (A) (A) (A) (A) (A) (A) (A) (A)
                 (A) (A) (A) (A) (A) (A) (A) (A) (A) (A) (A) (A)
                 (A) (A) (A) (A) (A) (A) (A) (A) (A) (A) (A) (A)
                 (A) (A) (A) (A) (A) (A) (A) (A) (A)
       Virtual   (A) (A) (A) (A) (A) (A) (A) (A) (A) (A) (A) (A)
                 (A) (A) (A) (A) (A) (A) (A) (A) (A) (A) (A) (A)
                 (A) (A) (A) (A) (A) (A) (A) (A) (A) (A) (A) (A)
                 (A) (A) (A) (A) (A) (A) (A) (A) (A) (A) (A) (A)
                 (A) (A) (A) (A) (A) (A) (A) (A) (A) (A) (A) (A)
                 (A) (A) (A) (A) (A) (A) (A) (A) (A) (A) (A) (A)
                 (A) (A) (A) (A) (A) (A) (A) (A) (A) (A) (A) (A)
                 (A) (A) (A) (A) (A) (A) (A) (A) (A) (A) (A) (A)
                 (A) (A) (A) (A) (A) (A) (A) (A) (A) (A) (A) (A)
                 (A) (A) (A) (A) (A) (A) (A) (A) (A) (A) (A) (A)
                 (A) (A) (A) (A) (A) (A) (A) (A) (A) (A) (A) (A)
                 (A) (A) (A) (A) (A) (A) (A) (A) (A) (A) (A) (A)
                 (A) (A) (A) (A) (A) (A) (A) (A) (A) (A) (A) (A)
                 (A) (A) (A) (A) (A) (A) (A) (A) (A) (A) (A) (A)
                 (A) (A) (A) (A) (A) (A) (A) (A) (A) (A) (A) (A)
                 (A) (A) (A) (A) (A) (A) (A) (A) (A) (A) (A) (A)
                 (A) (A) (A) (A) (A) (A) (A) (A) (A) (A) (A) (A)
                 (A) (A) (A) (A) (A) (A) (A) (A) (A) (A) (A) (A)
                 (A) (A) (A) (A) (A) (A) (A) (A) (A) (A) (A) (A)
                 (A) (A) (A) (A) (A) (A) (A) (A) (A) (A) (A) (A)
                 (A) (A) (A) (A) (A) (A) (A) (A) (A) (A) (A) (A)
                 (A) (A) (A) (A) (A) (A) (A) (A) (A) (A) (A) (A)
                 (A) (A) (A)
 Beta  Orbitals:
       Occupied  (A) (A) (A) (A) (A) (A) (A) (A) (A) (A) (A) (A)
                 (A) (A) (A) (A) (A) (A) (A) (A) (A) (A) (A) (A)
                 (A) (A) (A) (A) (A) (A) (A) (A) (A) (A) (A) (A)
                 (A) (A) (A) (A) (A) (A) (A) (A)
       Virtual   (A) (A) (A) (A) (A) (A) (A) (A) (A) (A) (A) (A)
                 (A) (A) (A) (A) (A) (A) (A) (A) (A) (A) (A) (A)
                 (A) (A) (A) (A) (A) (A) (A) (A) (A) (A) (A) (A)
                 (A) (A) (A) (A) (A) (A) (A) (A) (A) (A) (A) (A)
                 (A) (A) (A) (A) (A) (A) (A) (A) (A) (A) (A) (A)
                 (A) (A) (A) (A) (A) (A) (A) (A) (A) (A) (A) (A)
                 (A) (A) (A) (A) (A) (A) (A) (A) (A) (A) (A) (A)
                 (A) (A) (A) (A) (A) (A) (A) (A) (A) (A) (A) (A)
                 (A) (A) (A) (A) (A) (A) (A) (A) (A) (A) (A) (A)
                 (A) (A) (A) (A) (A) (A) (A) (A) (A) (A) (A) (A)
                 (A) (A) (A) (A) (A) (A) (A) (A) (A) (A) (A) (A)
                 (A) (A) (A) (A) (A) (A) (A) (A) (A) (A) (A) (A)
                 (A) (A) (A) (A) (A) (A) (A) (A) (A) (A) (A) (A)
                 (A) (A) (A) (A) (A) (A) (A) (A) (A) (A) (A) (A)
                 (A) (A) (A) (A) (A) (A) (A) (A) (A) (A) (A) (A)
                 (A) (A) (A) (A) (A) (A) (A) (A) (A) (A) (A) (A)
                 (A) (A) (A) (A) (A) (A) (A) (A) (A) (A) (A) (A)
                 (A) (A) (A) (A) (A) (A) (A) (A) (A) (A) (A) (A)
                 (A) (A) (A) (A) (A) (A) (A) (A) (A) (A) (A) (A)
                 (A) (A) (A) (A) (A) (A) (A) (A) (A) (A) (A) (A)
                 (A) (A) (A) (A) (A) (A) (A) (A) (A) (A) (A) (A)
                 (A) (A) (A) (A) (A) (A) (A) (A) (A) (A) (A) (A)
                 (A) (A) (A) (A)
 The electronic state of the initial guess is 2-A.
 Initial guess <Sx>= 0.0000 <Sy>= 0.0000 <Sz>= 0.5000 <S**2>= 0.7500 S= 0.5000
 Leave Link  401 at Wed Feb 19 23:48:36 2014, MaxMem= 4026531840 cpu:      17.0
 (Enter /usr/caen/gaussian-09revc/g09/l502.exe)
 UHF open shell SCF:
 Requested convergence on RMS density matrix=1.00D-08 within 128 cycles.
 Requested convergence on MAX density matrix=1.00D-06.
 Requested convergence on             energy=1.00D-06.
 No special actions if energy rises.
 Using DIIS extrapolation, IDIIS=  1040.
 Integral symmetry usage will be decided dynamically.
       257049 words used for storage of precomputed grid.
 Keep R1 and R2 ints in memory in canonical form, NReq=2755661780.
 IEnd=      593207 IEndB=      593207 NGot=  4026531840 MDV=  1287997296
 LenX=  1287997296 LenY=  1287892526
 Symmetry not used in FoFDir.
 MinBra= 0 MaxBra= 2 Meth= 1.
 IRaf=       0 NMat=   1 IRICut=       1 DoRegI=T DoRafI=F ISym2E= 0 JSym2E=0.
 Integral accuracy reduced to 1.0D-05 until final iterations.

 Cycle   1  Pass 0  IDiag  1:
 E= -504.428306919686    
 DIIS: error= 3.07D-02 at cycle   1 NSaved=   1.
 NSaved= 1 IEnMin= 1 EnMin= -504.428306919686     IErMin= 1 ErrMin= 3.07D-02
 ErrMax= 3.07D-02 EMaxC= 1.00D-01 BMatC= 1.52D+00 BMatP= 1.52D+00
 IDIUse=3 WtCom= 6.93D-01 WtEn= 3.07D-01
 Coeff-Com:  0.100D+01
 Coeff-En:   0.100D+01
 Coeff:      0.100D+01
 Gap=     0.246 Goal=   None    Shift=    0.000
 Gap=     0.117 Goal=   None    Shift=    0.000
 GapD=    0.117 DampG=1.000 DampE=0.500 DampFc=0.5000 IDamp=-1.
 Damping current iteration by 5.00D-01
 RMSDP=3.15D-03 MaxDP=1.21D-01              OVMax= 1.89D-01

 Cycle   2  Pass 0  IDiag  1:
 E= -504.590485607119     Delta-E=       -0.162178687433 Rises=F Damp=T
 DIIS: error= 6.48D-03 at cycle   2 NSaved=   2.
 NSaved= 2 IEnMin= 2 EnMin= -504.590485607119     IErMin= 2 ErrMin= 6.48D-03
 ErrMax= 6.48D-03 EMaxC= 1.00D-01 BMatC= 7.66D-02 BMatP= 1.52D+00
 IDIUse=3 WtCom= 9.35D-01 WtEn= 6.48D-02
 Coeff-Com:  0.590D-01 0.941D+00
 Coeff-En:   0.141D+00 0.859D+00
 Coeff:      0.643D-01 0.936D+00
 Gap=     0.333 Goal=   None    Shift=    0.000
 Gap=     0.211 Goal=   None    Shift=    0.000
 RMSDP=6.62D-04 MaxDP=2.16D-02 DE=-1.62D-01 OVMax= 1.06D-01

 Cycle   3  Pass 0  IDiag  1:
 E= -504.798662290988     Delta-E=       -0.208176683869 Rises=F Damp=F
 DIIS: error= 4.73D-03 at cycle   3 NSaved=   3.
 NSaved= 3 IEnMin= 3 EnMin= -504.798662290988     IErMin= 3 ErrMin= 4.73D-03
 ErrMax= 4.73D-03 EMaxC= 1.00D-01 BMatC= 1.96D-02 BMatP= 7.66D-02
 IDIUse=3 WtCom= 9.53D-01 WtEn= 4.73D-02
 Coeff-Com: -0.230D-01 0.290D+00 0.733D+00
 Coeff-En:   0.000D+00 0.000D+00 0.100D+01
 Coeff:     -0.219D-01 0.277D+00 0.745D+00
 Gap=     0.244 Goal=   None    Shift=    0.000
 Gap=     0.128 Goal=   None    Shift=    0.000
 RMSDP=3.19D-04 MaxDP=1.22D-02 DE=-2.08D-01 OVMax= 1.47D-02

 Cycle   4  Pass 0  IDiag  1:
 E= -504.802307351977     Delta-E=       -0.003645060989 Rises=F Damp=F
 DIIS: error= 1.91D-03 at cycle   4 NSaved=   4.
 NSaved= 4 IEnMin= 4 EnMin= -504.802307351977     IErMin= 4 ErrMin= 1.91D-03
 ErrMax= 1.91D-03 EMaxC= 1.00D-01 BMatC= 5.49D-03 BMatP= 1.96D-02
 IDIUse=3 WtCom= 9.81D-01 WtEn= 1.91D-02
 Coeff-Com: -0.163D-01 0.688D-01 0.380D+00 0.567D+00
 Coeff-En:   0.000D+00 0.000D+00 0.155D+00 0.845D+00
 Coeff:     -0.160D-01 0.675D-01 0.376D+00 0.572D+00
 Gap=     0.244 Goal=   None    Shift=    0.000
 Gap=     0.125 Goal=   None    Shift=    0.000
 RMSDP=1.10D-04 MaxDP=5.76D-03 DE=-3.65D-03 OVMax= 8.99D-03

 Cycle   5  Pass 0  IDiag  1:
 E= -504.803529859730     Delta-E=       -0.001222507753 Rises=F Damp=F
 DIIS: error= 5.20D-04 at cycle   5 NSaved=   5.
 NSaved= 5 IEnMin= 5 EnMin= -504.803529859730     IErMin= 5 ErrMin= 5.20D-04
 ErrMax= 5.20D-04 EMaxC= 1.00D-01 BMatC= 3.07D-04 BMatP= 5.49D-03
 IDIUse=3 WtCom= 9.95D-01 WtEn= 5.20D-03
 Coeff-Com: -0.376D-02 0.634D-03 0.829D-01 0.237D+00 0.683D+00
 Coeff-En:   0.000D+00 0.000D+00 0.000D+00 0.000D+00 0.100D+01
 Coeff:     -0.374D-02 0.631D-03 0.824D-01 0.236D+00 0.685D+00
 Gap=     0.243 Goal=   None    Shift=    0.000
 Gap=     0.128 Goal=   None    Shift=    0.000
 RMSDP=2.91D-05 MaxDP=1.42D-03 DE=-1.22D-03 OVMax= 2.84D-03

 Cycle   6  Pass 0  IDiag  1:
 E= -504.803597768641     Delta-E=       -0.000067908911 Rises=F Damp=F
 DIIS: error= 2.33D-04 at cycle   6 NSaved=   6.
 NSaved= 6 IEnMin= 6 EnMin= -504.803597768641     IErMin= 6 ErrMin= 2.33D-04
 ErrMax= 2.33D-04 EMaxC= 1.00D-01 BMatC= 4.84D-05 BMatP= 3.07D-04
 IDIUse=3 WtCom= 9.98D-01 WtEn= 2.33D-03
 Coeff-Com: -0.191D-03-0.593D-02 0.434D-02 0.627D-01 0.316D+00 0.623D+00
 Coeff-En:   0.000D+00 0.000D+00 0.000D+00 0.000D+00 0.000D+00 0.100D+01
 Coeff:     -0.191D-03-0.591D-02 0.433D-02 0.625D-01 0.316D+00 0.624D+00
 Gap=     0.243 Goal=   None    Shift=    0.000
 Gap=     0.127 Goal=   None    Shift=    0.000
 RMSDP=1.33D-05 MaxDP=8.13D-04 DE=-6.79D-05 OVMax= 1.56D-03

 Cycle   7  Pass 0  IDiag  1:
 E= -504.803611925838     Delta-E=       -0.000014157197 Rises=F Damp=F
 DIIS: error= 1.59D-04 at cycle   7 NSaved=   7.
 NSaved= 7 IEnMin= 7 EnMin= -504.803611925838     IErMin= 7 ErrMin= 1.59D-04
 ErrMax= 1.59D-04 EMaxC= 1.00D-01 BMatC= 2.02D-05 BMatP= 4.84D-05
 IDIUse=3 WtCom= 9.98D-01 WtEn= 1.59D-03
 Coeff-Com:  0.152D-02-0.430D-02-0.312D-01-0.539D-01-0.899D-01 0.395D+00
 Coeff-Com:  0.783D+00
 Coeff-En:   0.000D+00 0.000D+00 0.000D+00 0.000D+00 0.000D+00 0.000D+00
 Coeff-En:   0.100D+01
 Coeff:      0.152D-02-0.430D-02-0.311D-01-0.538D-01-0.898D-01 0.395D+00
 Coeff:      0.783D+00
 Gap=     0.243 Goal=   None    Shift=    0.000
 Gap=     0.128 Goal=   None    Shift=    0.000
 RMSDP=1.15D-05 MaxDP=6.74D-04 DE=-1.42D-05 OVMax= 9.87D-04

 Cycle   8  Pass 0  IDiag  1:
 E= -504.803619023280     Delta-E=       -0.000007097442 Rises=F Damp=F
 DIIS: error= 1.06D-04 at cycle   8 NSaved=   8.
 NSaved= 8 IEnMin= 8 EnMin= -504.803619023280     IErMin= 8 ErrMin= 1.06D-04
 ErrMax= 1.06D-04 EMaxC= 1.00D-01 BMatC= 7.12D-06 BMatP= 2.02D-05
 IDIUse=3 WtCom= 9.99D-01 WtEn= 1.06D-03
 Coeff-Com:  0.107D-02-0.174D-02-0.223D-01-0.484D-01-0.120D+00 0.176D+00
 Coeff-Com:  0.525D+00 0.491D+00
 Coeff-En:   0.000D+00 0.000D+00 0.000D+00 0.000D+00 0.000D+00 0.000D+00
 Coeff-En:   0.000D+00 0.100D+01
 Coeff:      0.106D-02-0.173D-02-0.223D-01-0.483D-01-0.120D+00 0.175D+00
 Coeff:      0.524D+00 0.492D+00
 Gap=     0.243 Goal=   None    Shift=    0.000
 Gap=     0.128 Goal=   None    Shift=    0.000
 RMSDP=4.07D-06 MaxDP=2.88D-04 DE=-7.10D-06 OVMax= 6.18D-04

 Initial convergence to 1.0D-05 achieved.  Increase integral accuracy.
 Cycle   9  Pass 1  IDiag  1:
 E= -504.803711697634     Delta-E=       -0.000092674354 Rises=F Damp=F
 DIIS: error= 6.27D-05 at cycle   1 NSaved=   1.
 NSaved= 1 IEnMin= 1 EnMin= -504.803711697634     IErMin= 1 ErrMin= 6.27D-05
 ErrMax= 6.27D-05 EMaxC= 1.00D-01 BMatC= 2.35D-06 BMatP= 2.35D-06
 IDIUse=1 WtCom= 1.00D+00 WtEn= 0.00D+00
 Coeff-Com:  0.100D+01
 Coeff:      0.100D+01
 Gap=     0.243 Goal=   None    Shift=    0.000
 Gap=     0.128 Goal=   None    Shift=    0.000
 RMSDP=4.07D-06 MaxDP=2.88D-04 DE=-9.27D-05 OVMax= 4.08D-04

 Cycle  10  Pass 1  IDiag  1:
 E= -504.803710834988     Delta-E=        0.000000862646 Rises=F Damp=F
 DIIS: error= 1.08D-04 at cycle   2 NSaved=   2.
 NSaved= 2 IEnMin= 1 EnMin= -504.803711697634     IErMin= 1 ErrMin= 6.27D-05
 ErrMax= 1.08D-04 EMaxC= 1.00D-01 BMatC= 9.31D-06 BMatP= 2.35D-06
 IDIUse=3 WtCom= 4.90D-01 WtEn= 5.10D-01
 Coeff-Com:  0.686D+00 0.314D+00
 Coeff-En:   0.696D+00 0.304D+00
 Coeff:      0.691D+00 0.309D+00
 Gap=     0.243 Goal=   None    Shift=    0.000
 Gap=     0.128 Goal=   None    Shift=    0.000
 RMSDP=3.25D-06 MaxDP=1.61D-04 DE= 8.63D-07 OVMax= 3.77D-04

 Cycle  11  Pass 1  IDiag  1:
 E= -504.803712531039     Delta-E=       -0.000001696051 Rises=F Damp=F
 DIIS: error= 2.08D-05 at cycle   3 NSaved=   3.
 NSaved= 3 IEnMin= 3 EnMin= -504.803712531039     IErMin= 3 ErrMin= 2.08D-05
 ErrMax= 2.08D-05 EMaxC= 1.00D-01 BMatC= 2.00D-07 BMatP= 2.35D-06
 IDIUse=1 WtCom= 1.00D+00 WtEn= 0.00D+00
 Coeff-Com: -0.903D-02 0.857D-01 0.923D+00
 Coeff:     -0.903D-02 0.857D-01 0.923D+00
 Gap=     0.243 Goal=   None    Shift=    0.000
 Gap=     0.128 Goal=   None    Shift=    0.000
 RMSDP=1.17D-06 MaxDP=8.14D-05 DE=-1.70D-06 OVMax= 1.69D-04

 Cycle  12  Pass 1  IDiag  1:
 E= -504.803712632212     Delta-E=       -0.000000101173 Rises=F Damp=F
 DIIS: error= 1.00D-05 at cycle   4 NSaved=   4.
 NSaved= 4 IEnMin= 4 EnMin= -504.803712632212     IErMin= 4 ErrMin= 1.00D-05
 ErrMax= 1.00D-05 EMaxC= 1.00D-01 BMatC= 1.11D-07 BMatP= 2.00D-07
 IDIUse=1 WtCom= 1.00D+00 WtEn= 0.00D+00
 Coeff-Com: -0.119D+00-0.205D-02 0.538D+00 0.583D+00
 Coeff:     -0.119D+00-0.205D-02 0.538D+00 0.583D+00
 Gap=     0.243 Goal=   None    Shift=    0.000
 Gap=     0.128 Goal=   None    Shift=    0.000
 RMSDP=6.58D-07 MaxDP=3.34D-05 DE=-1.01D-07 OVMax= 9.54D-05

 Cycle  13  Pass 1  IDiag  1:
 E= -504.803712679552     Delta-E=       -0.000000047339 Rises=F Damp=F
 DIIS: error= 7.22D-06 at cycle   5 NSaved=   5.
 NSaved= 5 IEnMin= 5 EnMin= -504.803712679552     IErMin= 5 ErrMin= 7.22D-06
 ErrMax= 7.22D-06 EMaxC= 1.00D-01 BMatC= 2.37D-08 BMatP= 1.11D-07
 IDIUse=1 WtCom= 1.00D+00 WtEn= 0.00D+00
 Coeff-Com: -0.470D-01-0.384D-01-0.203D+00 0.229D+00 0.106D+01
 Coeff:     -0.470D-01-0.384D-01-0.203D+00 0.229D+00 0.106D+01
 Gap=     0.243 Goal=   None    Shift=    0.000
 Gap=     0.128 Goal=   None    Shift=    0.000
 RMSDP=6.39D-07 MaxDP=4.26D-05 DE=-4.73D-08 OVMax= 1.40D-04

 Cycle  14  Pass 1  IDiag  1:
 E= -504.803712702017     Delta-E=       -0.000000022466 Rises=F Damp=F
 DIIS: error= 2.77D-06 at cycle   6 NSaved=   6.
 NSaved= 6 IEnMin= 6 EnMin= -504.803712702017     IErMin= 6 ErrMin= 2.77D-06
 ErrMax= 2.77D-06 EMaxC= 1.00D-01 BMatC= 7.01D-09 BMatP= 2.37D-08
 IDIUse=1 WtCom= 1.00D+00 WtEn= 0.00D+00
 Coeff-Com:  0.101D-01-0.214D-01-0.272D+00-0.454D-01 0.585D+00 0.744D+00
 Coeff:      0.101D-01-0.214D-01-0.272D+00-0.454D-01 0.585D+00 0.744D+00
 Gap=     0.243 Goal=   None    Shift=    0.000
 Gap=     0.128 Goal=   None    Shift=    0.000
 RMSDP=3.08D-07 MaxDP=1.71D-05 DE=-2.25D-08 OVMax= 7.79D-05

 Cycle  15  Pass 1  IDiag  1:
 E= -504.803712706197     Delta-E=       -0.000000004180 Rises=F Damp=F
 DIIS: error= 7.80D-07 at cycle   7 NSaved=   7.
 NSaved= 7 IEnMin= 7 EnMin= -504.803712706197     IErMin= 7 ErrMin= 7.80D-07
 ErrMax= 7.80D-07 EMaxC= 1.00D-01 BMatC= 5.88D-10 BMatP= 7.01D-09
 IDIUse=1 WtCom= 1.00D+00 WtEn= 0.00D+00
 Coeff-Com:  0.793D-02-0.724D-02-0.116D+00-0.373D-01 0.204D+00 0.355D+00
 Coeff-Com:  0.594D+00
 Coeff:      0.793D-02-0.724D-02-0.116D+00-0.373D-01 0.204D+00 0.355D+00
 Coeff:      0.594D+00
 Gap=     0.243 Goal=   None    Shift=    0.000
 Gap=     0.128 Goal=   None    Shift=    0.000
 RMSDP=6.52D-08 MaxDP=3.40D-06 DE=-4.18D-09 OVMax= 2.05D-05

 Cycle  16  Pass 1  IDiag  1:
 E= -504.803712706480     Delta-E=       -0.000000000283 Rises=F Damp=F
 DIIS: error= 5.86D-07 at cycle   8 NSaved=   8.
 NSaved= 8 IEnMin= 8 EnMin= -504.803712706480     IErMin= 8 ErrMin= 5.86D-07
 ErrMax= 5.86D-07 EMaxC= 1.00D-01 BMatC= 6.90D-11 BMatP= 5.88D-10
 IDIUse=1 WtCom= 1.00D+00 WtEn= 0.00D+00
 Coeff-Com:  0.483D-03 0.112D-02 0.726D-02-0.384D-02-0.254D-01-0.994D-02
 Coeff-Com:  0.157D+00 0.874D+00
 Coeff:      0.483D-03 0.112D-02 0.726D-02-0.384D-02-0.254D-01-0.994D-02
 Coeff:      0.157D+00 0.874D+00
 Gap=     0.243 Goal=   None    Shift=    0.000
 Gap=     0.128 Goal=   None    Shift=    0.000
 RMSDP=4.98D-08 MaxDP=3.24D-06 DE=-2.83D-10 OVMax= 1.97D-05

 Cycle  17  Pass 1  IDiag  1:
 E= -504.803712706595     Delta-E=       -0.000000000115 Rises=F Damp=F
 DIIS: error= 4.16D-07 at cycle   9 NSaved=   9.
 NSaved= 9 IEnMin= 9 EnMin= -504.803712706595     IErMin= 9 ErrMin= 4.16D-07
 ErrMax= 4.16D-07 EMaxC= 1.00D-01 BMatC= 2.71D-11 BMatP= 6.90D-11
 IDIUse=1 WtCom= 1.00D+00 WtEn= 0.00D+00
 Coeff-Com: -0.286D-02 0.290D-02 0.465D-01 0.119D-01-0.825D-01-0.138D+00
 Coeff-Com: -0.193D+00 0.172D+00 0.118D+01
 Coeff:     -0.286D-02 0.290D-02 0.465D-01 0.119D-01-0.825D-01-0.138D+00
 Coeff:     -0.193D+00 0.172D+00 0.118D+01
 Gap=     0.243 Goal=   None    Shift=    0.000
 Gap=     0.128 Goal=   None    Shift=    0.000
 RMSDP=5.82D-08 MaxDP=3.85D-06 DE=-1.15D-10 OVMax= 2.35D-05

 Cycle  18  Pass 1  IDiag  1:
 E= -504.803712706678     Delta-E=       -0.000000000083 Rises=F Damp=F
 DIIS: error= 1.93D-07 at cycle  10 NSaved=  10.
 NSaved=10 IEnMin=10 EnMin= -504.803712706678     IErMin=10 ErrMin= 1.93D-07
 ErrMax= 1.93D-07 EMaxC= 1.00D-01 BMatC= 7.07D-12 BMatP= 2.71D-11
 IDIUse=1 WtCom= 1.00D+00 WtEn= 0.00D+00
 Coeff-Com: -0.846D-03 0.285D-03 0.804D-02 0.375D-02-0.911D-02-0.274D-01
 Coeff-Com: -0.108D+00-0.315D+00 0.269D+00 0.118D+01
 Coeff:     -0.846D-03 0.285D-03 0.804D-02 0.375D-02-0.911D-02-0.274D-01
 Coeff:     -0.108D+00-0.315D+00 0.269D+00 0.118D+01
 Gap=     0.243 Goal=   None    Shift=    0.000
 Gap=     0.128 Goal=   None    Shift=    0.000
 RMSDP=4.26D-08 MaxDP=2.85D-06 DE=-8.28D-11 OVMax= 1.73D-05

 Cycle  19  Pass 1  IDiag  1:
 E= -504.803712706706     Delta-E=       -0.000000000028 Rises=F Damp=F
 DIIS: error= 3.78D-08 at cycle  11 NSaved=  11.
 NSaved=11 IEnMin=11 EnMin= -504.803712706706     IErMin=11 ErrMin= 3.78D-08
 ErrMax= 3.78D-08 EMaxC= 1.00D-01 BMatC= 1.59D-12 BMatP= 7.07D-12
 IDIUse=1 WtCom= 1.00D+00 WtEn= 0.00D+00
 Coeff-Com:  0.488D-04-0.283D-03-0.341D-02 0.380D-04 0.793D-02 0.896D-02
 Coeff-Com: -0.193D-01-0.167D+00-0.634D-01 0.541D+00 0.696D+00
 Coeff:      0.488D-04-0.283D-03-0.341D-02 0.380D-04 0.793D-02 0.896D-02
 Coeff:     -0.193D-01-0.167D+00-0.634D-01 0.541D+00 0.696D+00
 Gap=     0.243 Goal=   None    Shift=    0.000
 Gap=     0.128 Goal=   None    Shift=    0.000
 RMSDP=9.02D-09 MaxDP=5.92D-07 DE=-2.84D-11 OVMax= 3.60D-06

 SCF Done:  E(UB3LYP) =  -504.803712707     A.U. after   19 cycles
             Convg  =    0.9015D-08             -V/T =  2.0043
 <Sx>= 0.0000 <Sy>= 0.0000 <Sz>= 0.5000 <S**2>= 0.7582 S= 0.5041
 <L.S>= 0.000000000000E+00
 KE= 5.026575633155D+02 PE=-2.508271639284D+03 EE= 8.346062159928D+02
 Annihilation of the first spin contaminant:
 S**2 before annihilation     0.7582,   after     0.7500
 Leave Link  502 at Wed Feb 19 23:51:49 2014, MaxMem= 4026531840 cpu:    1444.2
 (Enter /usr/caen/gaussian-09revc/g09/l801.exe)
 Range of M.O.s used for correlation:     1   312
 NBasis=   312 NAE=    45 NBE=    44 NFC=     0 NFV=     0
 NROrb=    312 NOA=    45 NOB=    44 NVA=   267 NVB=   268
 Leave Link  801 at Wed Feb 19 23:51:51 2014, MaxMem= 4026531840 cpu:       1.5
 (Enter /usr/caen/gaussian-09revc/g09/l1101.exe)
 Using compressed storage, NAtomX=    30.
 Will process  31 centers per pass.
 Leave Link 1101 at Wed Feb 19 23:51:54 2014, MaxMem= 4026531840 cpu:      18.1
 (Enter /usr/caen/gaussian-09revc/g09/l1102.exe)
 Symmetrizing basis deriv contribution to polar:
 IMax=3 JMax=2 DiffMx= 0.00D+00
 Leave Link 1102 at Wed Feb 19 23:51:55 2014, MaxMem= 4026531840 cpu:       1.5
 (Enter /usr/caen/gaussian-09revc/g09/l1110.exe)
 Forming Gx(P) for the SCF density, NAtomX=    30.
 Integral derivatives from FoFDir/FoFCou, PRISM(SPDF).
 Do as many integral derivatives as possible in FoFDir.
 G2DrvN: MDV=    4026531496.
 G2DrvN: will do    31 centers at a time, making    1 passes doing MaxLOS=2.
 Calling FoFCou, ICntrl=  3107 FMM=F I1Cent=   0 AccDes= 0.00D+00.
 FoFCou: FMM=F IPFlag=           0 FMFlag=      100000 FMFlg1=           0
         NFxFlg=           0 DoJE=F BraDBF=F KetDBF=F FulRan=T
         Omega=  0.000000  0.000000  1.000000  0.000000  0.000000 ICntrl=    3107 IOpCl=  1
         NMat0=    1 NMatS0=    1 NMatT0=    0 NMatD0=    1 NMtDS0=    0 NMtDT0=    0
         I1Cent=           0 NGrid=           0.
 Symmetry not used in FoFCou.
 FoFDir/FoFCou used for L=0 through L=2.
 End of G2Drv Frequency-dependent properties file   721 does not exist.
 End of G2Drv Frequency-dependent properties file   722 does not exist.
 Leave Link 1110 at Wed Feb 19 23:55:27 2014, MaxMem= 4026531840 cpu:    1608.1
 (Enter /usr/caen/gaussian-09revc/g09/l1002.exe)
 Minotr:  UHF open shell wavefunction.
          IDoAtm=111111111111111111111111111111
          Direct CPHF calculation.
          Differentiating once with respect to nuclear coordinates.
          Requested convergence is 1.0D-06 RMS, and 1.0D-05 maximum.
          Secondary convergence is 1.0D-12 RMS, and 1.0D-12 maximum.
          NewPWx=T KeepS1=F KeepF1=F KeepIn=T MapXYZ=F SortEE=F KeepMc=T.
          MDV=    4026531536 using IRadAn=       2.
 Generate precomputed XC quadrature information.
          Keep R1 and R2 ints in memory in canonical form, NReq=2738891885.
 Symmetry not used in FoFDir.
 MinBra= 0 MaxBra= 2 Meth= 1.
 IRaf=       0 NMat=   1 IRICut=       1 DoRegI=T DoRafI=F ISym2E= 0 JSym2E=0.
          Solving linear equations simultaneously, MaxMat=       0.
          There are    93 degrees of freedom in the 1st order CPHF.  IDoFFX=5.
     87 vectors produced by pass  0 Test12= 2.56D-10 1.08D-07 XBig12= 2.60D-01 1.55D-01.
 AX will form    87 AO Fock derivatives at one time.
     87 vectors produced by pass  1 Test12= 2.56D-10 1.08D-07 XBig12= 1.47D-02 1.71D-02.
     87 vectors produced by pass  2 Test12= 2.56D-10 1.08D-07 XBig12= 1.61D-04 1.70D-03.
     87 vectors produced by pass  3 Test12= 2.56D-10 1.08D-07 XBig12= 9.74D-07 8.70D-05.
     65 vectors produced by pass  4 Test12= 2.56D-10 1.08D-07 XBig12= 4.85D-09 6.62D-06.
     16 vectors produced by pass  5 Test12= 2.56D-10 1.08D-07 XBig12= 2.63D-11 3.99D-07.
 Inverted reduced A of dimension   429 with in-core refinement.
 End of Minotr Frequency-dependent properties file   721 does not exist.
 End of Minotr Frequency-dependent properties file   722 does not exist.
 Leave Link 1002 at Thu Feb 20 00:00:25 2014, MaxMem= 4026531840 cpu:    2261.2
 (Enter /usr/caen/gaussian-09revc/g09/l601.exe)
 Copying SCF densities to generalized density rwf, IOpCl= 1 IROHF=0.

 **********************************************************************

            Population analysis using the SCF density.

 **********************************************************************

 Orbital symmetries:
 Alpha Orbitals:
       Occupied  (A) (A) (A) (A) (A) (A) (A) (A) (A) (A) (A) (A)
                 (A) (A) (A) (A) (A) (A) (A) (A) (A) (A) (A) (A)
                 (A) (A) (A) (A) (A) (A) (A) (A) (A) (A) (A) (A)
                 (A) (A) (A) (A) (A) (A) (A) (A) (A)
       Virtual   (A) (A) (A) (A) (A) (A) (A) (A) (A) (A) (A) (A)
                 (A) (A) (A) (A) (A) (A) (A) (A) (A) (A) (A) (A)
                 (A) (A) (A) (A) (A) (A) (A) (A) (A) (A) (A) (A)
                 (A) (A) (A) (A) (A) (A) (A) (A) (A) (A) (A) (A)
                 (A) (A) (A) (A) (A) (A) (A) (A) (A) (A) (A) (A)
                 (A) (A) (A) (A) (A) (A) (A) (A) (A) (A) (A) (A)
                 (A) (A) (A) (A) (A) (A) (A) (A) (A) (A) (A) (A)
                 (A) (A) (A) (A) (A) (A) (A) (A) (A) (A) (A) (A)
                 (A) (A) (A) (A) (A) (A) (A) (A) (A) (A) (A) (A)
                 (A) (A) (A) (A) (A) (A) (A) (A) (A) (A) (A) (A)
                 (A) (A) (A) (A) (A) (A) (A) (A) (A) (A) (A) (A)
                 (A) (A) (A) (A) (A) (A) (A) (A) (A) (A) (A) (A)
                 (A) (A) (A) (A) (A) (A) (A) (A) (A) (A) (A) (A)
                 (A) (A) (A) (A) (A) (A) (A) (A) (A) (A) (A) (A)
                 (A) (A) (A) (A) (A) (A) (A) (A) (A) (A) (A) (A)
                 (A) (A) (A) (A) (A) (A) (A) (A) (A) (A) (A) (A)
                 (A) (A) (A) (A) (A) (A) (A) (A) (A) (A) (A) (A)
                 (A) (A) (A) (A) (A) (A) (A) (A) (A) (A) (A) (A)
                 (A) (A) (A) (A) (A) (A) (A) (A) (A) (A) (A) (A)
                 (A) (A) (A) (A) (A) (A) (A) (A) (A) (A) (A) (A)
                 (A) (A) (A) (A) (A) (A) (A) (A) (A) (A) (A) (A)
                 (A) (A) (A) (A) (A) (A) (A) (A) (A) (A) (A) (A)
                 (A) (A) (A)
 Beta  Orbitals:
       Occupied  (A) (A) (A) (A) (A) (A) (A) (A) (A) (A) (A) (A)
                 (A) (A) (A) (A) (A) (A) (A) (A) (A) (A) (A) (A)
                 (A) (A) (A) (A) (A) (A) (A) (A) (A) (A) (A) (A)
                 (A) (A) (A) (A) (A) (A) (A) (A)
       Virtual   (A) (A) (A) (A) (A) (A) (A) (A) (A) (A) (A) (A)
                 (A) (A) (A) (A) (A) (A) (A) (A) (A) (A) (A) (A)
                 (A) (A) (A) (A) (A) (A) (A) (A) (A) (A) (A) (A)
                 (A) (A) (A) (A) (A) (A) (A) (A) (A) (A) (A) (A)
                 (A) (A) (A) (A) (A) (A) (A) (A) (A) (A) (A) (A)
                 (A) (A) (A) (A) (A) (A) (A) (A) (A) (A) (A) (A)
                 (A) (A) (A) (A) (A) (A) (A) (A) (A) (A) (A) (A)
                 (A) (A) (A) (A) (A) (A) (A) (A) (A) (A) (A) (A)
                 (A) (A) (A) (A) (A) (A) (A) (A) (A) (A) (A) (A)
                 (A) (A) (A) (A) (A) (A) (A) (A) (A) (A) (A) (A)
                 (A) (A) (A) (A) (A) (A) (A) (A) (A) (A) (A) (A)
                 (A) (A) (A) (A) (A) (A) (A) (A) (A) (A) (A) (A)
                 (A) (A) (A) (A) (A) (A) (A) (A) (A) (A) (A) (A)
                 (A) (A) (A) (A) (A) (A) (A) (A) (A) (A) (A) (A)
                 (A) (A) (A) (A) (A) (A) (A) (A) (A) (A) (A) (A)
                 (A) (A) (A) (A) (A) (A) (A) (A) (A) (A) (A) (A)
                 (A) (A) (A) (A) (A) (A) (A) (A) (A) (A) (A) (A)
                 (A) (A) (A) (A) (A) (A) (A) (A) (A) (A) (A) (A)
                 (A) (A) (A) (A) (A) (A) (A) (A) (A) (A) (A) (A)
                 (A) (A) (A) (A) (A) (A) (A) (A) (A) (A) (A) (A)
                 (A) (A) (A) (A) (A) (A) (A) (A) (A) (A) (A) (A)
                 (A) (A) (A) (A) (A) (A) (A) (A) (A) (A) (A) (A)
                 (A) (A) (A) (A)
 The electronic state is 2-A.
 Alpha  occ. eigenvalues --  -19.18378 -19.17509 -10.25820 -10.19685 -10.18534
 Alpha  occ. eigenvalues --  -10.17728 -10.17362 -10.16715 -10.16125 -10.16069
 Alpha  occ. eigenvalues --  -10.15737  -1.12225  -0.88936  -0.82284  -0.81127
 Alpha  occ. eigenvalues --   -0.76137  -0.69535  -0.68759  -0.68016  -0.62163
 Alpha  occ. eigenvalues --   -0.58880  -0.56373  -0.50259  -0.48803  -0.47734
 Alpha  occ. eigenvalues --   -0.47080  -0.45275  -0.44023  -0.43283  -0.41073
 Alpha  occ. eigenvalues --   -0.40937  -0.39886  -0.38942  -0.38742  -0.38091
 Alpha  occ. eigenvalues --   -0.37300  -0.36369  -0.35355  -0.35154  -0.34761
 Alpha  occ. eigenvalues --   -0.32819  -0.32792  -0.32321  -0.25229  -0.25077
 Alpha virt. eigenvalues --   -0.00815   0.03416   0.04401   0.04925   0.06405
 Alpha virt. eigenvalues --    0.07444   0.08231   0.08807   0.09456   0.09824
 Alpha virt. eigenvalues --    0.10955   0.11250   0.12140   0.13600   0.13649
 Alpha virt. eigenvalues --    0.14298   0.14594   0.14795   0.15528   0.16318
 Alpha virt. eigenvalues --    0.17799   0.18821   0.19647   0.21655   0.22318
 Alpha virt. eigenvalues --    0.22910   0.23359   0.25302   0.25644   0.27464
 Alpha virt. eigenvalues --    0.29142   0.29435   0.30302   0.32479   0.34060
 Alpha virt. eigenvalues --    0.35621   0.36894   0.38302   0.39005   0.41360
 Alpha virt. eigenvalues --    0.42959   0.43494   0.45069   0.46222   0.46914
 Alpha virt. eigenvalues --    0.48644   0.50149   0.52946   0.53715   0.55045
 Alpha virt. eigenvalues --    0.56024   0.56677   0.56713   0.57280   0.57508
 Alpha virt. eigenvalues --    0.57941   0.58623   0.58824   0.58925   0.59227
 Alpha virt. eigenvalues --    0.60024   0.60208   0.61000   0.61252   0.62059
 Alpha virt. eigenvalues --    0.62473   0.62956   0.64118   0.64937   0.65988
 Alpha virt. eigenvalues --    0.66170   0.67139   0.69717   0.70824   0.73454
 Alpha virt. eigenvalues --    0.77531   0.79309   0.82944   0.85811   0.86848
 Alpha virt. eigenvalues --    0.87301   0.92245   0.94270   0.95945   0.97725
 Alpha virt. eigenvalues --    0.98413   1.00212   1.02454   1.04760   1.05499
 Alpha virt. eigenvalues --    1.08081   1.08750   1.10799   1.14917   1.16983
 Alpha virt. eigenvalues --    1.18087   1.19957   1.23873   1.24806   1.25818
 Alpha virt. eigenvalues --    1.30897   1.34763   1.35936   1.36763   1.39334
 Alpha virt. eigenvalues --    1.39447   1.41332   1.42879   1.44669   1.45190
 Alpha virt. eigenvalues --    1.45854   1.47056   1.47915   1.48518   1.49148
 Alpha virt. eigenvalues --    1.49419   1.50759   1.51944   1.52469   1.53238
 Alpha virt. eigenvalues --    1.53373   1.55188   1.57173   1.57771   1.58576
 Alpha virt. eigenvalues --    1.60103   1.61148   1.61946   1.62569   1.63701
 Alpha virt. eigenvalues --    1.65516   1.66730   1.68443   1.69673   1.70941
 Alpha virt. eigenvalues --    1.71890   1.74002   1.74853   1.75458   1.76212
 Alpha virt. eigenvalues --    1.77038   1.78179   1.78654   1.79736   1.81239
 Alpha virt. eigenvalues --    1.83506   1.86318   1.89421   1.89800   1.92669
 Alpha virt. eigenvalues --    1.96023   1.97544   1.98069   2.01003   2.02489
 Alpha virt. eigenvalues --    2.04306   2.06145   2.07458   2.08726   2.09559
 Alpha virt. eigenvalues --    2.12448   2.12684   2.14837   2.17372   2.18326
 Alpha virt. eigenvalues --    2.22428   2.25274   2.25937   2.26952   2.31012
 Alpha virt. eigenvalues --    2.32394   2.34913   2.35747   2.36071   2.38336
 Alpha virt. eigenvalues --    2.38555   2.41261   2.43270   2.44105   2.45079
 Alpha virt. eigenvalues --    2.46207   2.47573   2.47972   2.48950   2.50398
 Alpha virt. eigenvalues --    2.51060   2.51095   2.52127   2.52674   2.54618
 Alpha virt. eigenvalues --    2.55297   2.55856   2.57771   2.59219   2.60649
 Alpha virt. eigenvalues --    2.61187   2.62771   2.63610   2.64082   2.65085
 Alpha virt. eigenvalues --    2.66064   2.66919   2.70080   2.72610   2.73111
 Alpha virt. eigenvalues --    2.76367   2.78466   2.79688   2.82712   2.84856
 Alpha virt. eigenvalues --    2.85986   2.87709   2.88625   2.90036   2.91114
 Alpha virt. eigenvalues --    2.91510   2.92874   2.95705   3.00707   3.02443
 Alpha virt. eigenvalues --    3.07645   3.09506   3.11710   3.13189   3.23253
 Alpha virt. eigenvalues --    3.25897   3.33566   3.43609   3.47195   3.51686
 Alpha virt. eigenvalues --    3.58957   3.71086   3.76619   3.77277   3.77772
 Alpha virt. eigenvalues --    3.78099   3.79621   3.80375   3.81476   3.81849
 Alpha virt. eigenvalues --    3.82141   3.84593   3.95915   3.97312   4.06333
 Alpha virt. eigenvalues --    4.19238   4.26950   4.29067   4.29606   4.40377
 Alpha virt. eigenvalues --    4.68386   4.86158   4.92166   4.95408   5.40206
 Alpha virt. eigenvalues --    5.45961  23.63201  23.80579  23.81704  23.87511
 Alpha virt. eigenvalues --   23.88090  23.92363  23.93419  23.94100  23.94710
 Alpha virt. eigenvalues --   49.74035  49.89431
  Beta  occ. eigenvalues --  -19.17644 -19.16667 -10.25007 -10.19671 -10.18524
  Beta  occ. eigenvalues --  -10.17729 -10.17361 -10.16700 -10.16113 -10.16069
  Beta  occ. eigenvalues --  -10.15737  -1.10683  -0.86246  -0.81955  -0.80886
  Beta  occ. eigenvalues --   -0.75881  -0.69513  -0.68751  -0.67399  -0.61846
  Beta  occ. eigenvalues --   -0.57192  -0.56281  -0.49803  -0.47305  -0.47117
  Beta  occ. eigenvalues --   -0.46761  -0.44953  -0.43687  -0.42882  -0.40964
  Beta  occ. eigenvalues --   -0.40461  -0.39625  -0.38902  -0.38436  -0.37512
  Beta  occ. eigenvalues --   -0.36591  -0.35688  -0.34915  -0.34777  -0.34318
  Beta  occ. eigenvalues --   -0.32785  -0.32752  -0.32061  -0.24476
  Beta virt. eigenvalues --   -0.11671   0.00264   0.03555   0.04443   0.05290
  Beta virt. eigenvalues --    0.06460   0.07654   0.08323   0.08956   0.09508
  Beta virt. eigenvalues --    0.09954   0.11086   0.11303   0.12226   0.13718
  Beta virt. eigenvalues --    0.13900   0.14355   0.14751   0.15114   0.15602
  Beta virt. eigenvalues --    0.16427   0.17999   0.19100   0.19804   0.21893
  Beta virt. eigenvalues --    0.22533   0.23115   0.23524   0.25438   0.25965
  Beta virt. eigenvalues --    0.27519   0.29288   0.29524   0.30397   0.32611
  Beta virt. eigenvalues --    0.34242   0.35749   0.36967   0.38399   0.39054
  Beta virt. eigenvalues --    0.41732   0.43268   0.43615   0.45136   0.46992
  Beta virt. eigenvalues --    0.47480   0.48906   0.50398   0.53210   0.53831
  Beta virt. eigenvalues --    0.55189   0.56225   0.56758   0.56831   0.57346
  Beta virt. eigenvalues --    0.57594   0.57985   0.58741   0.58895   0.59024
  Beta virt. eigenvalues --    0.59294   0.60192   0.60256   0.61085   0.61446
  Beta virt. eigenvalues --    0.62138   0.62527   0.63002   0.64231   0.65043
  Beta virt. eigenvalues --    0.66066   0.66215   0.67379   0.69855   0.71163
  Beta virt. eigenvalues --    0.73690   0.79381   0.79912   0.83700   0.86000
  Beta virt. eigenvalues --    0.87168   0.87869   0.92798   0.94413   0.96142
  Beta virt. eigenvalues --    0.97930   0.98690   1.00436   1.02629   1.04895
  Beta virt. eigenvalues --    1.05849   1.08278   1.08957   1.10942   1.15235
  Beta virt. eigenvalues --    1.17153   1.18304   1.20229   1.24199   1.25091
  Beta virt. eigenvalues --    1.26103   1.31232   1.34996   1.36377   1.36921
  Beta virt. eigenvalues --    1.39526   1.39886   1.41711   1.43224   1.44907
  Beta virt. eigenvalues --    1.45260   1.45884   1.47235   1.48010   1.48601
  Beta virt. eigenvalues --    1.49309   1.49670   1.50805   1.52042   1.52559
  Beta virt. eigenvalues --    1.53384   1.53635   1.55319   1.57268   1.57954
  Beta virt. eigenvalues --    1.58648   1.60251   1.61696   1.62031   1.62839
  Beta virt. eigenvalues --    1.63963   1.65678   1.66866   1.68632   1.69833
  Beta virt. eigenvalues --    1.71243   1.71979   1.74213   1.75007   1.75693
  Beta virt. eigenvalues --    1.76689   1.77181   1.78234   1.78695   1.79793
  Beta virt. eigenvalues --    1.81357   1.83822   1.86799   1.89648   1.89921
  Beta virt. eigenvalues --    1.92970   1.96340   1.97644   1.98164   2.01244
  Beta virt. eigenvalues --    2.02829   2.04526   2.06396   2.07610   2.08828
  Beta virt. eigenvalues --    2.09618   2.12601   2.12948   2.15077   2.17491
  Beta virt. eigenvalues --    2.18554   2.22534   2.25515   2.26098   2.27103
  Beta virt. eigenvalues --    2.31115   2.32559   2.35021   2.35819   2.36137
  Beta virt. eigenvalues --    2.38463   2.38697   2.41371   2.43310   2.44269
  Beta virt. eigenvalues --    2.45190   2.46285   2.47686   2.48165   2.49012
  Beta virt. eigenvalues --    2.50571   2.51123   2.51147   2.52268   2.52799
  Beta virt. eigenvalues --    2.54722   2.55401   2.55923   2.57941   2.59331
  Beta virt. eigenvalues --    2.60728   2.61673   2.62857   2.63883   2.64131
  Beta virt. eigenvalues --    2.65196   2.66329   2.67046   2.70304   2.72748
  Beta virt. eigenvalues --    2.73257   2.76511   2.78575   2.80191   2.83095
  Beta virt. eigenvalues --    2.85471   2.86972   2.87814   2.90183   2.90385
  Beta virt. eigenvalues --    2.91725   2.92885   2.93515   2.96830   3.01339
  Beta virt. eigenvalues --    3.03034   3.07776   3.09663   3.11863   3.13862
  Beta virt. eigenvalues --    3.23448   3.26208   3.33819   3.45072   3.47988
  Beta virt. eigenvalues --    3.52316   3.61715   3.72003   3.76647   3.77283
  Beta virt. eigenvalues --    3.77794   3.78143   3.79682   3.80451   3.81508
  Beta virt. eigenvalues --    3.81912   3.82218   3.84619   3.96238   3.97352
  Beta virt. eigenvalues --    4.06582   4.19482   4.27045   4.29071   4.29773
  Beta virt. eigenvalues --    4.40624   4.69194   4.87500   4.95315   4.97672
  Beta virt. eigenvalues --    5.40985   5.46606  23.64031  23.80604  23.81719
  Beta virt. eigenvalues --   23.87525  23.88152  23.92375  23.93423  23.94104
  Beta virt. eigenvalues --   23.94727  49.75576  49.89462
          Condensed to atoms (all electrons):
              1          2          3          4          5          6
     1  C    4.872835   0.400815   0.404137   0.399304   0.361228  -0.042493
     2  H    0.400815   0.537018  -0.026731  -0.025892  -0.028451  -0.003307
     3  H    0.404137  -0.026731   0.582631  -0.030631  -0.039413   0.008925
     4  H    0.399304  -0.025892  -0.030631   0.589008  -0.032251  -0.008241
     5  C    0.361228  -0.028451  -0.039413  -0.032251   5.079850   0.394556
     6  H   -0.042493  -0.003307   0.008925  -0.008241   0.394556   0.608757
     7  C    0.008103   0.000867   0.000032  -0.000292  -0.068541  -0.006921
     8  H   -0.000407   0.000005   0.000017   0.000013  -0.003608   0.005363
     9  H    0.000042  -0.000100   0.000106   0.000011  -0.002568  -0.000080
    10  C   -0.000282  -0.000039  -0.000043   0.000010   0.007151  -0.000486
    11  H   -0.000029   0.000003  -0.000030  -0.000001   0.000116   0.000019
    12  H   -0.000039  -0.000015   0.000003   0.000001   0.000832  -0.000020
    13  C    0.000001   0.000001  -0.000001   0.000000  -0.000155   0.000003
    14  H    0.000000   0.000000   0.000000   0.000000   0.000001  -0.000016
    15  C    0.000000   0.000000   0.000000   0.000000   0.000003   0.000000
    16  H    0.000000   0.000000   0.000000   0.000000   0.000000   0.000000
    17  H    0.000000   0.000000   0.000000   0.000000   0.000000   0.000000
    18  H    0.000000   0.000000   0.000000   0.000000  -0.000001   0.000000
    19  C   -0.062509   0.008110  -0.007338  -0.006723   0.347117  -0.041388
    20  H   -0.005037  -0.000149   0.004958  -0.000636  -0.042197   0.009932
    21  H   -0.006644   0.000025  -0.000615   0.003806  -0.028335  -0.005979
    22  H    0.007463  -0.000443  -0.000047  -0.000033  -0.028782  -0.006338
    23  C    0.000000   0.000000   0.000000   0.000000   0.000010  -0.000001
    24  H    0.000000   0.000000   0.000000   0.000000   0.000002   0.000000
    25  H    0.000000   0.000000   0.000000   0.000000  -0.000001   0.000000
    26  H    0.000000   0.000000   0.000000   0.000000   0.000023   0.000001
    27  C   -0.061736  -0.009962  -0.003324   0.009144   0.314374  -0.043438
    28  H   -0.010089   0.001094   0.003797  -0.000123  -0.020331   0.006306
    29  O   -0.013925   0.015311  -0.001747  -0.000257  -0.035420  -0.000710
    30  O    0.010053  -0.002054   0.003733   0.000281  -0.005286  -0.000904
              7          8          9         10         11         12
     1  C    0.008103  -0.000407   0.000042  -0.000282  -0.000029  -0.000039
     2  H    0.000867   0.000005  -0.000100  -0.000039   0.000003  -0.000015
     3  H    0.000032   0.000017   0.000106  -0.000043  -0.000030   0.000003
     4  H   -0.000292   0.000013   0.000011   0.000010  -0.000001   0.000001
     5  C   -0.068541  -0.003608  -0.002568   0.007151   0.000116   0.000832
     6  H   -0.006921   0.005363  -0.000080  -0.000486   0.000019  -0.000020
     7  C    4.972747   0.388318   0.400783   0.347437  -0.042840  -0.038989
     8  H    0.388318   0.592503  -0.030648  -0.042983   0.009022  -0.003505
     9  H    0.400783  -0.030648   0.577058  -0.029492  -0.008318   0.007871
    10  C    0.347437  -0.042983  -0.029492   4.975790   0.399410   0.413427
    11  H   -0.042840   0.009022  -0.008318   0.399410   0.600481  -0.030697
    12  H   -0.038989  -0.003505   0.007871   0.413427  -0.030697   0.549361
    13  C   -0.052923  -0.004544  -0.006908   0.360723  -0.038315  -0.039066
    14  H   -0.007818   0.006338  -0.000119  -0.047982   0.009629  -0.005510
    15  C    0.007795   0.000113  -0.000096  -0.067805  -0.004113  -0.005502
    16  H    0.000016   0.000028   0.000028  -0.007233   0.004548  -0.000586
    17  H   -0.000423  -0.000016   0.000017   0.008598  -0.000244   0.000135
    18  H    0.000062  -0.000006  -0.000014  -0.004519  -0.000594   0.003988
    19  C   -0.000098  -0.000924  -0.001754  -0.000007   0.000019  -0.000081
    20  H   -0.002260   0.000331   0.000353  -0.000168   0.000048  -0.000010
    21  H    0.000058  -0.000089   0.000426   0.000008  -0.000009   0.000009
    22  H    0.001965   0.000248  -0.000617   0.000085   0.000058  -0.000023
    23  C   -0.005753  -0.001480   0.003162  -0.065774  -0.008896   0.007489
    24  H   -0.001037   0.000171   0.000873  -0.005633   0.005530  -0.000055
    25  H    0.000007  -0.000142  -0.000104   0.008010  -0.000223  -0.000342
    26  H    0.002178   0.000496  -0.000119  -0.005945  -0.000197  -0.000169
    27  C    0.314519  -0.037809  -0.036938  -0.048143  -0.000738  -0.009316
    28  H   -0.019185   0.006128  -0.002987  -0.009988   0.004534   0.000756
    29  O   -0.052458  -0.000467   0.004565  -0.009167  -0.001346   0.016093
    30  O   -0.006330  -0.001050  -0.000463   0.011224   0.002696  -0.000972
             13         14         15         16         17         18
     1  C    0.000001   0.000000   0.000000   0.000000   0.000000   0.000000
     2  H    0.000001   0.000000   0.000000   0.000000   0.000000   0.000000
     3  H   -0.000001   0.000000   0.000000   0.000000   0.000000   0.000000
     4  H    0.000000   0.000000   0.000000   0.000000   0.000000   0.000000
     5  C   -0.000155   0.000001   0.000003   0.000000   0.000000  -0.000001
     6  H    0.000003  -0.000016   0.000000   0.000000   0.000000   0.000000
     7  C   -0.052923  -0.007818   0.007795   0.000016  -0.000423   0.000062
     8  H   -0.004544   0.006338   0.000113   0.000028  -0.000016  -0.000006
     9  H   -0.006908  -0.000119  -0.000096   0.000028   0.000017  -0.000014
    10  C    0.360723  -0.047982  -0.067805  -0.007233   0.008598  -0.004519
    11  H   -0.038315   0.009629  -0.004113   0.004548  -0.000244  -0.000594
    12  H   -0.039066  -0.005510  -0.005502  -0.000586   0.000135   0.003988
    13  C    5.056396   0.407911   0.379751  -0.038207  -0.032511  -0.032769
    14  H    0.407911   0.621244  -0.039555   0.009531  -0.006974  -0.006281
    15  C    0.379751  -0.039555   4.856869   0.403061   0.401770   0.402734
    16  H   -0.038207   0.009531   0.403061   0.592432  -0.031297  -0.030408
    17  H   -0.032511  -0.006974   0.401770  -0.031297   0.586882  -0.027499
    18  H   -0.032769  -0.006281   0.402734  -0.030408  -0.027499   0.579858
    19  C    0.000022  -0.000001   0.000000   0.000000   0.000000   0.000000
    20  H    0.000003   0.000000   0.000000   0.000000   0.000000   0.000000
    21  H   -0.000001   0.000000   0.000000   0.000000   0.000000   0.000000
    22  H    0.000030   0.000005   0.000000   0.000000   0.000000   0.000000
    23  C    0.352040  -0.047933  -0.066025  -0.006498  -0.005352   0.008638
    24  H   -0.040582   0.009718  -0.004653   0.005019  -0.000680  -0.000205
    25  H   -0.031112  -0.006190  -0.006248  -0.000628   0.004088   0.000026
    26  H   -0.032276  -0.005954   0.007886  -0.000131  -0.000002  -0.000518
[...]
 0.00008651,-0.00095603,0.00171282,0.00075158,0.00031515,-0.00008608,-0
 .00086778,-0.00031579,0.00013988,-0.00028982,-0.00038843,0.00170854,0.
 03075977,0.00128261,-0.00520225,0.00279099,0.00050797,0.00184258,0.000
 90888,-0.00020092,-0.00029150,-0.00072032,-0.00004525,-0.00009485,-0.0
 0008453,0.00014705,0.00023397,-0.00037677,0.00000827,-0.00001467,-0.00
 001408,-0.00001089,0.00001259,0.00001382,-0.00000293,-0.00000121,0.000
 00422,0.00000270,0.00000676,-0.00001506,-0.00028299,-0.04855458,-0.020
 54578,-0.00096851,0.05215934,-0.00000965,-0.00001936,-0.00000526,0.000
 00628,-0.00000245,0.00000043,-0.00000255,0.00000506,0.00000720,-0.0000
 0973,0.00000225,-0.00000002,-0.00001468,0.00004497,-0.00001411,0.00000
 466,-0.00000837,0.00001683,-0.00020114,0.00016143,0.00005325,0.0001559
 9,-0.00001360,0.00013104,-0.00011487,-0.00005337,-0.00021385,0.0006768
 2,-0.00082624,0.00058136,-0.00087165,0.00053080,0.00063432,0.00002233,
 0.00003683,0.00041704,-0.00009171,-0.00065616,-0.01590750,-0.00059705,
 0.00312781,0.00036274,-0.00020353,-0.00086381,0.00055267,0.00055569,0.
 00069920,0.00052206,-0.00003777,0.00002150,-0.00003924,-0.00000347,0.0
 0009887,0.00041199,0.00001089,-0.00000766,-0.00003148,-0.00001796,0.00
 001247,0.00002776,-0.00000136,-0.00000492,0.00001090,-0.00000137,0.000
 00540,-0.00001981,0.00205001,-0.02032673,-0.29848871,-0.00153517,0.019
 86948,0.32745615,-0.00001690,-0.00003565,-0.00001495,0.00001849,0.0000
 0693,0.00000335,0.00000354,0.00000554,0.00000387,-0.00003303,-0.000005
 71,0.00000070,-0.00001137,0.00005905,0.00002746,-0.00000712,-0.0000083
 3,-0.00000308,0.00001941,0.00000689,0.00043794,-0.00003179,0.00001364,
 -0.00007070,0.00028094,0.00021427,-0.00014460,0.00103944,0.00084020,-0
 .00151467,0.00011505,-0.00015005,0.00004124,-0.00036470,0.00019353,0.0
 0017168,-0.00625673,0.00128446,0.00186508,0.00002434,0.00007561,-0.000
 54531,0.00062788,-0.00113384,0.00016420,-0.00001158,0.00003728,-0.0000
 3395,0.00070689,0.00020437,0.00006251,0.00024285,-0.00005075,-0.000211
 07,-0.00001510,-0.00002534,-0.00003090,0.00001922,0.00000353,-0.000006
 61,-0.00004527,-0.00000448,0.00000087,0.00001740,0.00004958,0.00002613
 ,-0.25920580,0.07401681,0.06734739,0.00071594,-0.00071891,0.00003733,0
 .28157308,0.00001906,0.00003319,0.00000267,-0.00001525,0.00000524,-0.0
 0000299,-0.00000257,-0.00000504,-0.00000133,0.00001830,0.00000152,-0.0
 0000089,0.00002422,-0.00006423,0.00001614,0.00001065,0.00001029,0.0000
 0011,-0.00080307,-0.00043229,0.00008851,0.00005728,0.00001199,0.000048
 67,0.00022975,0.00035557,-0.00020409,-0.00047421,-0.00551630,0.0036465
 1,-0.00033153,0.00017135,0.00004114,0.00178464,-0.00056278,-0.00035046
 ,0.02651206,-0.00958639,-0.01005612,-0.00040786,0.00110975,0.00012101,
 0.00154402,0.00123871,-0.00079116,-0.00007366,-0.00009505,-0.00001911,
 -0.00101549,-0.00037499,0.00030133,-0.00020630,0.00046707,0.00014308,0
 .00002971,-0.00001986,-0.00000021,0.00000171,-0.00000357,-0.00000842,-
 0.00000161,0.00001393,-0.00000330,0.00000489,0.00000986,0.00001420,0.0
 7268386,-0.07192033,-0.02308794,0.00209581,-0.00166016,-0.00095511,-0.
 08152401,0.07905539,-0.00000437,-0.00000755,-0.00000361,0.00000355,-0.
 00000187,0.00000158,-0.00000089,0.00000151,0.00000092,-0.00000298,0.00
 000081,0.00000130,-0.00000438,0.00001429,0.00000068,-0.00000228,-0.000
 00426,0.00000179,0.00008040,0.00017879,0.00013726,0.00003189,-0.000044
 03,0.00002194,0.00000624,-0.00005033,-0.00014078,0.00000674,0.00234198
 ,-0.00101589,-0.00021992,0.00029302,0.00036430,-0.00059840,0.00032533,
 0.00057457,-0.01371809,0.00467678,0.00362279,-0.00023183,-0.00071865,0
 .00046644,-0.00014859,-0.00056541,0.00020529,0.00019776,-0.00003893,-0
 .00006543,0.00009728,-0.00010207,0.00023780,-0.00020693,-0.00012484,-0
 .00013520,0.00000022,-0.00000215,-0.00001821,-0.00001011,0.00000323,0.
 00001110,0.00000134,-0.00000186,0.00000847,0.00000192,-0.00000054,-0.0
 0000529,0.06752989,-0.02367610,-0.06837147,0.03007590,-0.00971971,-0.0
 0859919,-0.07387868,0.02362666,0.07059110,0.00001306,0.00002150,0.0000
 0424,-0.00000799,0.00000078,-0.00000256,-0.00000243,-0.00000340,0.0000
 0046,0.00001561,-0.00000007,0.,0.00002250,-0.00004945,-0.00000570,0.00
 000366,0.00000409,0.00000246,-0.00111382,0.00044465,0.00007037,-0.0000
 0879,-0.00006138,-0.00004919,-0.00134073,0.00109895,-0.00023588,0.0002
 2788,-0.00038997,0.00047707,-0.00004259,0.00005198,0.00001173,0.000133
 54,-0.00011468,-0.00010227,0.00520410,0.00527025,0.00306073,0.00032345
 ,-0.00059714,0.00049759,0.00014606,0.00077337,0.00002841,-0.00008270,0
 .00009654,-0.00003151,0.00043966,0.00020999,-0.00019183,0.00040649,0.0
 0014831,-0.00018795,0.00002151,0.00002011,0.00000880,-0.00000696,-0.00
 000301,0.00000216,0.00002031,-0.00000094,-0.00000245,-0.00001160,-0.00
 002323,-0.00000878,-0.16293396,-0.12028147,-0.04773748,0.00031243,0.00
 166124,0.00022407,-0.01950967,-0.02040896,-0.00896196,0.17771248,-0.00
 000185,-0.00001117,-0.00001328,0.00000646,0.00001299,0.00000026,-0.000
 00028,0.00000250,0.00000585,-0.00001921,-0.00000475,0.00000016,0.00003
 351,0.00000246,0.00003820,0.00000642,-0.00000370,0.00000595,-0.0003131
 6,-0.00050802,0.00051384,0.00004491,-0.00010668,0.00012927,0.00103902,
 0.00047912,-0.00046555,-0.00112023,0.00033592,-0.00036766,0.00008651,-
 0.00002926,0.00002187,-0.00000157,0.00013427,0.00013264,-0.02035700,-0
 .01776570,-0.00973164,-0.00000124,0.00125124,0.00031180,0.00305468,-0.
 00475523,0.00366798,0.00025705,0.00027572,-0.00005329,-0.00002448,0.00
 028539,0.00012269,-0.00146639,-0.00136719,-0.00032248,0.00001717,-0.00
 005072,-0.00003706,0.00001560,0.00000519,-0.00000612,-0.00004773,0.000
 00539,-0.00000007,0.00001543,0.00006818,0.00002618,-0.11903435,-0.1705
 5215,-0.04866431,-0.00095737,-0.00185868,-0.00086166,0.00652971,0.0075
 2111,0.00355912,0.13190092,0.18608556,0.00000332,0.00001212,-0.0000145
 1,-0.00000377,0.00000801,0.00000034,0.00000168,-0.00000481,-0.00000126
 ,-0.00000115,-0.00000261,0.00000231,-0.00001124,-0.00002046,0.00005019
 ,0.,0.00001122,-0.00001655,-0.00045623,-0.00025643,0.00055330,-0.00007
 298,0.00009958,-0.00022920,0.00010446,0.00022915,0.00009377,-0.0000960
 9,-0.00077060,0.00019443,-0.00008634,-0.00003561,-0.00000286,0.0001458
 1,-0.00000529,-0.00007217,0.01119348,0.00953764,0.00336245,0.00056203,
 -0.00060214,0.00057314,-0.00093328,0.00245881,-0.00092383,0.00011857,0
 .00038207,0.00034334,-0.00029024,-0.00013145,-0.00009734,0.00042306,0.
 00082725,0.00056779,0.00000747,-0.00000897,-0.00001436,0.00002739,-0.0
 0001682,-0.00002787,-0.00002045,0.00000855,-0.00000716,0.00000827,0.00
 001653,0.00005902,-0.04769223,-0.04932740,-0.06684047,-0.02259083,-0.0
 2228093,-0.00788585,0.00643164,0.00749077,0.00212666,0.05314165,0.0522
 2811,0.06839986,-0.03425947,-0.01081289,-0.00700375,0.00055877,-0.0003
 8457,-0.00017278,0.00205603,-0.00083783,-0.00059782,-0.00286955,0.0029
 5033,0.00157924,-0.14122327,-0.03011962,-0.02688521,-0.00755042,-0.005
 21651,-0.00534041,-0.15944242,0.03189777,0.02749220,-0.00950795,0.0053
 8208,0.00520819,0.00260819,0.00026777,0.00053429,-0.03208076,0.0061931
 4,0.00462776,0.00181030,0.00083943,0.00064428,0.00077916,0.00105695,0.
 00004673,-0.00172899,-0.00284421,-0.00166877,0.00014489,-0.00013104,-0
 .00000913,-0.00046386,0.00045991,0.00023951,-0.00005939,0.00000128,-0.
 00002675,-0.00007480,-0.00023364,-0.00008653,-0.00001621,-0.00000298,0
 .00002021,0.00358721,-0.00561555,0.00289106,0.00045227,0.00052563,-0.0
 0074985,0.00043425,0.00317063,-0.00088214,-0.00023854,0.00166286,0.000
 46824,0.00042982,-0.00074779,-0.00020002,-0.00008206,0.00006042,0.0000
 2887,0.00036460,0.00012389,0.00005220,0.00004558,0.00060749,0.00012619
 ,0.45442379,0.00798755,0.01404278,0.00460678,0.00208766,-0.00155547,0.
 00124902,0.00116769,0.00022595,-0.00073846,0.00456727,-0.00368794,-0.0
 0083233,-0.03031313,-0.08971042,-0.01227676,-0.00726410,-0.00448239,-0
 .00487257,0.02901440,-0.08922678,-0.00954548,0.00637784,-0.00374460,-0
 .00351646,0.02443510,-0.01379707,-0.00650550,-0.01080188,0.01611710,0.
 00667373,-0.00098626,0.00006450,-0.00075249,-0.00200737,-0.00192759,0.
 00114159,-0.00314577,-0.00569670,-0.00202455,0.00040303,-0.00003833,-0
 .00005639,-0.00173596,0.00131922,0.00056500,-0.00000184,0.00002098,-0.
 00012930,-0.00069830,-0.00047477,-0.00011162,0.00001605,-0.00010631,0.
 00014559,-0.02302095,-0.02161580,-0.00360460,-0.00000864,0.00172232,-0
 .00116018,0.00105033,-0.00301403,0.00178785,-0.00011963,-0.00006616,-0
 .00053347,0.00044044,-0.00045218,0.00000765,0.00001501,0.00005541,-0.0
 0008023,-0.00009015,0.00003530,0.00002256,0.00015980,0.00002942,0.0000
 4786,-0.00878203,0.47109931,0.00420440,0.00581697,0.00078582,-0.000357
 72,0.00012664,0.00077781,0.00139380,0.00064473,-0.00034979,0.00191472,
 -0.00084754,-0.00019896,-0.01140882,-0.00736213,-0.06152744,-0.0278912
 4,-0.01817039,-0.01073842,0.01122580,-0.00621109,-0.06121501,0.0299890
 9,-0.01578552,-0.00848142,-0.01328453,0.00527684,0.00016792,-0.0056937
 6,0.00730384,0.00062021,-0.00122440,0.00036465,-0.00041429,0.00022795,
 0.00003651,0.00101264,-0.00045770,-0.00170812,-0.00132295,-0.00017572,
 0.00001271,0.00035799,-0.00063639,0.00038949,0.00061874,0.00007427,0.0
 0010296,-0.00006149,-0.00025932,-0.00022567,-0.00004274,0.,-0.00006844
 ,0.00006157,0.01213742,0.00532507,0.00096220,0.00096687,0.00120607,0.0
 0009160,0.00052270,0.00300721,-0.00098746,-0.00039730,-0.00055801,0.00
 034642,-0.00002994,0.00010916,0.00025735,0.00006217,0.00000789,-0.0000
 0845,-0.00017778,-0.00006879,-0.00000190,-0.00000441,-0.00027795,-0.00
 019354,0.00054975,0.01010176,0.19221217,0.00003805,-0.00047375,-0.0015
 4941,0.00010760,0.00004937,0.00003167,-0.00061333,-0.00025478,0.000670
 31,0.00013476,0.00016879,0.00038275,-0.00383989,-0.00328389,-0.0115660
 0,-0.00157843,-0.00107342,-0.00080623,-0.00485604,0.00290294,0.0135268
 1,-0.00190992,0.00095665,0.00056371,0.00091112,-0.00061836,-0.00047378
 ,0.00023856,0.00063372,0.00150646,-0.00056208,0.00009525,-0.00071162,0
 .00007297,-0.00009078,0.00003072,-0.00029797,-0.00001828,-0.00010056,0
 .00012553,-0.00009189,-0.00021334,0.00000310,-0.00007231,-0.00002732,-
 0.00005054,-0.00000595,-0.00001317,0.00006140,-0.00000067,-0.00001164,
 -0.00001934,0.00000453,0.00000790,0.00058467,0.00061112,-0.00006187,0.
 00011914,-0.00014634,0.00025402,-0.00003299,0.00027874,-0.00003401,-0.
 00006110,0.00017965,0.00009646,0.00012584,0.00003848,-0.00002833,-0.00
 004218,0.00002462,-0.00001727,0.00004837,-0.00004975,-0.00000174,-0.00
 001687,-0.00001035,0.00001678,-0.01688736,-0.00246568,-0.00724964,0.03
 485824,0.00182860,-0.00032943,0.00001972,-0.00016641,0.00002967,-0.000
 09366,0.00045099,0.00011590,0.00024585,0.00010440,-0.00003030,-0.00010
 938,-0.00493590,-0.00420192,-0.01592219,-0.00122582,-0.00087613,0.0010
 3038,0.00544955,-0.00342802,-0.01476986,0.00092001,-0.00031164,0.00143
 215,-0.00084238,0.00074256,0.00051786,-0.00169049,-0.00058265,0.000188
 25,-0.00056237,0.00007673,0.00002555,0.00009666,0.00005155,-0.00004090
 ,-0.00016202,-0.00002086,-0.00031612,0.00012501,-0.00001649,0.00005861
 ,0.00001106,-0.00004363,0.00005708,-0.00000418,0.00000601,0.00000441,0
 .00001432,0.00000646,-0.00000759,-0.00000212,0.00002024,-0.00002081,0.
 00098789,0.00112439,-0.00012633,0.00004636,0.00007447,0.00037854,-0.00
 000759,0.00028584,-0.00000198,-0.00005719,-0.00005303,-0.00001973,0.00
 001785,0.00001582,0.00003731,-0.00001315,-0.00000460,-0.00000225,0.000
 02426,-0.00000782,-0.00000699,-0.00001023,0.00002019,-0.00000795,-0.00
 424817,0.03010817,0.12238452,0.00784051,-0.08904022,0.00027065,-0.0001
 3735,0.00049529,-0.00003370,-0.00003888,-0.00021726,-0.00022071,-0.000
 02901,0.00014738,0.00006526,0.00012743,0.00006543,-0.00279902,-0.00237
 116,-0.00536020,-0.00011853,0.00004954,0.00037075,0.00255170,-0.001874
 63,-0.00472518,-0.00001471,-0.00008391,0.00059805,-0.00023275,0.000156
 62,0.00054057,-0.00034263,-0.00018431,0.00065451,0.00003325,-0.0000294
 5,0.00003288,0.00010782,0.00000877,-0.00025511,-0.00000201,0.00006234,
 -0.00001901,-0.00003479,0.00000454,-0.00000691,0.00001505,0.00000729,0
 .00002769,0.00000006,-0.00000834,-0.00001007,-0.00001334,0.00000258,-0
 .00000569,0.00001056,0.00000886,-0.00001413,0.00058303,0.00049386,0.00
 088536,-0.00006690,-0.00029762,0.00001714,-0.00004524,0.00014403,0.000
 03797,-0.00002038,0.00003142,-0.00005079,-0.00001339,-0.00000306,0.000
 05220,-0.00000844,-0.00000669,-0.00002077,-0.00000446,0.00001605,-0.00
 001715,-0.00000094,0.00000467,0.00000016,0.00081066,-0.00475266,-0.017
 87712,0.00292070,-0.06640175,0.11688890,-0.00222625,-0.00001145,0.0004
 2113,-0.00100299,-0.00278779,0.00093998,-0.00022667,-0.00040089,0.0004
 1483,0.00040267,-0.00115171,0.00060278,0.00440753,-0.02405528,0.012719
 87,0.00070108,0.00051579,-0.00039736,0.00018554,0.02968124,-0.01446797
 ,0.00117518,-0.00061508,0.00033779,-0.00544096,0.00302759,0.00207758,-
 0.00082444,-0.00033205,-0.00061969,-0.00039050,0.00044475,-0.00045913,
 -0.00109262,0.00224540,-0.00061378,0.00092697,0.00092524,-0.00076994,-
 0.00001924,0.00003769,0.00012488,0.00008886,0.00002352,0.00005973,0.00
 002124,-0.00000285,-0.00002377,-0.00009180,0.00003758,0.00000442,0.000
 03730,0.00000120,-0.00001674,-0.00450227,-0.00213444,-0.00241233,-0.00
 009537,0.00033342,-0.00002288,0.00030548,-0.00161254,0.00060580,0.0001
 9776,-0.00052637,-0.00013942,-0.00059454,0.00028508,0.00032069,0.00004
 564,-0.00005144,-0.00001986,-0.00024577,0.00011139,-0.00007172,-0.0000
 0258,-0.00025565,-0.00005111,-0.06648525,0.00651556,-0.00076438,0.0047
 0063,-0.00160420,-0.00197678,0.07615575,0.00220393,-0.00009543,-0.0002
 6987,-0.00131497,0.00049389,0.00000612,-0.00050523,-0.00012184,0.00017
 337,0.00018700,0.00044742,-0.00026604,-0.00531534,-0.03467821,0.021417
 44,0.00228651,0.00156232,-0.00004755,0.01047537,-0.03273961,0.01960627
 ,-0.00238461,0.00136349,-0.00003883,0.00584500,-0.00200785,-0.00234514
 ,-0.00288513,-0.00090017,-0.00072931,0.00038190,0.00001453,0.00014637,
 0.00079351,0.00109987,0.00004207,0.00013589,0.00041127,-0.00022889,-0.
 00006349,-0.00003422,-0.00000853,0.00011954,-0.00008627,-0.00004410,0.
 00001820,-0.00001149,0.00002757,0.00004995,0.00004615,0.00002445,0.000
 04781,0.00008009,-0.00004892,-0.00689000,-0.00149760,-0.00364663,0.000
 00350,0.00013108,0.00004051,0.00007693,-0.00243350,0.00108347,0.000196
 95,0.00012690,-0.00002449,-0.00012738,-0.00029431,-0.00013059,-0.00001
 795,0.00000308,0.00001881,0.00014935,0.00017785,0.00001186,0.00007406,
 0.00039505,0.00012125,0.00656654,-0.18218042,0.01843763,-0.00201575,0.
 02542655,0.04539008,-0.01121051,0.28235377,-0.00012388,0.00071824,-0.0
 0021525,0.00044182,-0.00050058,0.00038270,-0.00020031,-0.00013052,0.00
 031291,-0.00012994,-0.00036230,0.00023370,-0.00045333,-0.00292045,-0.0
 0007416,0.00038680,-0.00015224,0.00201818,0.00034221,-0.00136240,0.001
 45028,-0.00071084,-0.00002089,0.00193333,0.00050672,-0.00010971,0.0016
 7216,0.00029414,0.00080701,-0.00041446,0.00015000,-0.00010618,0.000305
 70,-0.00038660,-0.00052192,0.00028003,-0.00010918,-0.00023416,0.000339
 28,-0.00003343,0.00004609,0.00004200,-0.00002371,0.00001703,-0.0000709
 9,0.00001740,-0.00000246,0.00003378,0.00002183,-0.00000399,0.00000735,
 -0.00003751,-0.00003054,0.00000721,-0.00011577,0.00067864,0.00088318,-
 0.00010484,-0.00058856,0.00057645,-0.00006174,0.00026853,0.00029485,0.
 00007965,0.00013412,0.00000949,0.00008736,-0.00000504,-0.00008385,0.00
 001841,-0.00000594,0.00003623,0.00000950,-0.00005404,0.00002436,-0.000
 01034,-0.00002675,-0.00000757,-0.00296039,0.05483904,-0.08255955,0.000
 21643,0.01473626,-0.05710130,0.00015861,-0.06552637,0.29998146,-0.0009
 8288,-0.00071228,0.00011251,-0.00019525,-0.00032966,0.00033138,0.00028
 531,0.00029042,-0.00100428,0.00001704,-0.00053085,-0.00061477,0.000136
 54,-0.00073976,0.00196469,0.00052314,0.00030733,0.00037930,0.00072072,
 0.00095917,-0.00196895,0.00037201,-0.00023141,-0.00026277,-0.00066610,
 0.00044444,-0.00023367,-0.00099364,0.00038913,-0.00005199,0.00008093,-
 0.00027264,0.00087373,-0.00027062,0.00035475,-0.00038218,0.00041681,0.
 00027174,0.00035300,-0.00018751,0.00008553,0.00009417,0.00003574,0.000
 06841,0.00000529,0.00004037,-0.00002274,-0.00000409,-0.00007689,0.0000
 1476,0.00001205,0.00002973,0.00000175,-0.00002671,-0.00041682,-0.00002
 216,0.00009981,-0.00006890,-0.00005454,0.00008291,0.00003507,-0.000121
 14,0.00011851,0.00007399,-0.00018787,-0.00005716,-0.00013636,-0.000051
 03,0.00010093,0.00003543,-0.00002472,-0.00002216,-0.00006260,0.0000630
 4,-0.00002250,0.00003237,-0.00000404,-0.00000588,0.00527544,0.00720397
 ,0.00674412,-0.01136195,-0.00238525,-0.00141999,-0.00611037,0.00311843
 ,0.00273093,0.01341927,-0.00073984,-0.00048616,0.00104230,-0.00025088,
 0.00017375,-0.00020056,-0.00077834,0.00009830,-0.00018863,0.00000019,0
 .00012495,-0.00007733,0.00419053,0.00020963,-0.00176630,-0.00176988,-0
 .00110949,-0.00069567,-0.00359489,-0.00001927,-0.00094559,0.00189914,-
 0.00081688,-0.00104088,0.00037836,0.00006220,0.00003791,0.00034267,-0.
 00056658,0.00071566,0.00083036,0.00016104,0.00003282,0.00031896,0.0002
 8371,-0.00023947,0.00004812,0.00030636,0.00010971,-0.00014806,-0.00000
 994,0.00006399,0.00008702,-0.00010318,-0.00001529,0.00001875,0.0000072
 4,0.00002991,0.00004615,0.00003500,0.00000501,0.00001065,0.00002963,-0
 .00002410,-0.00069097,0.00054626,-0.00046199,0.00004429,-0.00031085,0.
 00038307,-0.00003072,-0.00018177,0.00021123,0.00007373,0.00016222,0.00
 003490,-0.00012153,-0.00003629,-0.00006193,0.00001430,0.00001246,0.000
 04706,0.00003223,0.00003070,0.00000935,0.00000739,0.00010354,-0.000007
 48,0.00821071,-0.11306350,-0.12937101,-0.00311243,0.04084219,0.0297107
 3,0.00256679,-0.05705240,0.00042009,-0.00788279,0.13056711,0.00071479,
 -0.00034554,0.00036687,-0.00020150,0.00020155,-0.00073224,-0.00003685,
 -0.00027229,0.00031034,-0.00005507,0.00033142,-0.00008176,0.00159415,0
 .00081786,-0.00419157,-0.00050477,0.00032243,-0.00016680,-0.00145798,0
 .00060284,-0.00465223,0.00048838,0.00051217,-0.00011646,-0.00042857,0.
 00065865,0.00053284,-0.00085704,-0.00055871,0.00023150,0.00007095,-0.0
 0024240,0.00034590,0.00029420,0.00028665,-0.00070493,0.00014568,0.0003
 3339,-0.00017429,-0.00004448,0.00003821,0.00010695,0.00004904,-0.00004
 067,0.00000150,0.00002787,-0.00000604,0.00003191,0.00000799,0.00002626
 ,0.00000989,0.00002201,0.00001574,-0.00003482,0.00024173,0.00093278,0.
 00026633,0.00012419,0.00010411,0.00001225,-0.00008203,0.00001902,-0.00
 006727,-0.00000324,0.00007767,-0.00005158,-0.00013770,0.00000807,0.000
 03753,0.00000100,-0.00001563,0.00001226,0.00000588,0.00004709,-0.00002
 425,0.00000351,0.00005924,0.00000780,0.00126415,-0.02969538,0.04770808
 ,0.00264122,-0.04326900,-0.03513358,0.00403877,-0.03319201,-0.17029748
 ,-0.00792622,0.10224249,0.16644730\\0.00000004,0.00000196,0.00000026,0
 .00000051,0.00000301,0.00000257,0.00000024,-0.00000038,0.00000026,0.00
 000008,0.00000314,-0.00000123,0.00000020,0.00000207,-0.00000212,0.0000
 0039,0.00000562,-0.00000196,0.00000039,0.00000104,-0.00000051,-0.00000
 031,0.00000388,-0.00000094,0.00000022,-0.00000025,-0.00000286,0.000000
 25,-0.00000090,0.00000164,-0.00000039,-0.00000321,0.00000260,0.0000011
 6,0.00000014,0.00000440,-0.00000052,-0.00000033,0.00000151,0.00000030,
 0.00000250,0.00000077,0.00000063,-0.00000164,0.00000400,0.00000033,-0.
 00000472,0.00000471,0.00000050,-0.00000127,0.00000346,0.00000122,-0.00
 000038,0.00000660,-0.00000130,0.00000039,-0.00000573,-0.00000122,-0.00
 000239,-0.00000491,-0.00000108,0.00000151,-0.00000707,-0.00000105,0.00
 000097,-0.00000670,-0.00000046,-0.00000204,-0.00000255,-0.00000081,-0.
 00000502,-0.00000228,-0.00000068,-0.00000189,-0.00000311,-0.00000091,-
 0.00000114,-0.00000477,0.00000021,0.00000098,0.00000075,0.00000008,-0.
 00000241,0.00000227,0.00000086,0.00000235,0.00000510,0.00000112,-0.000
 00161,0.00000584\\\@
 Job cpu time:  0 days 12 hours 28 minutes  1.8 seconds.
 File lengths (MBytes):  RWF=  73269 Int=      0 D2E=      0 Chk=     26 Scr=      1
 Normal termination of Gaussian 09 at Thu Feb 20 17:12:26 2014.
