 Entering Gaussian System, Link 0=g09
 Initial command:
 /usr/caen/gaussian-09revc/g09/l1.exe /scratch/avioli_flux/hetanjin/scratch/Gau-39674.inp -scrdir=/scratch/avioli_flux/hetanjin/scratch/
 Entering Link 1 = /usr/caen/gaussian-09revc/g09/l1.exe PID=     39675.
  
 Copyright (c) 1988,1990,1992,1993,1995,1998,2003,2009,2011,
            Gaussian, Inc.  All Rights Reserved.
  
 This is part of the Gaussian(R) 09 program.  It is based on
 the Gaussian(R) 03 system (copyright 2003, Gaussian, Inc.),
 the Gaussian(R) 98 system (copyright 1998, Gaussian, Inc.),
 the Gaussian(R) 94 system (copyright 1995, Gaussian, Inc.),
 the Gaussian 92(TM) system (copyright 1992, Gaussian, Inc.),
 the Gaussian 90(TM) system (copyright 1990, Gaussian, Inc.),
 the Gaussian 88(TM) system (copyright 1988, Gaussian, Inc.),
 the Gaussian 86(TM) system (copyright 1986, Carnegie Mellon
 University), and the Gaussian 82(TM) system (copyright 1983,
 Carnegie Mellon University). Gaussian is a federally registered
 trademark of Gaussian, Inc.
  
 This software contains proprietary and confidential information,
 including trade secrets, belonging to Gaussian, Inc.
  
 This software is provided under written license and may be
 used, copied, transmitted, or stored only in accord with that
 written license.
  
 The following legend is applicable only to US Government
 contracts under FAR:
  
                    RESTRICTED RIGHTS LEGEND
  
 Use, reproduction and disclosure by the US Government is
 subject to restrictions as set forth in subparagraphs (a)
 and (c) of the Commercial Computer Software - Restricted
 Rights clause in FAR 52.227-19.
  
 Gaussian, Inc.
 340 Quinnipiac St., Bldg. 40, Wallingford CT 06492
  
  
 ---------------------------------------------------------------
 Warning -- This program may not be used in any manner that
 competes with the business of Gaussian, Inc. or will provide
 assistance to any competitor of Gaussian, Inc.  The licensee
 of this program is prohibited from giving any competitor of
 Gaussian, Inc. access to this program.  By using this program,
 the user acknowledges that Gaussian, Inc. is engaged in the
 business of creating and licensing software in the field of
 computational chemistry and represents and warrants to the
 licensee that it is not a competitor of Gaussian, Inc. and that
 it will not use this program in any manner prohibited above.
 ---------------------------------------------------------------
  

 Cite this work as:
 Gaussian 09, Revision C.01,
 M. J. Frisch, G. W. Trucks, H. B. Schlegel, G. E. Scuseria, 
 M. A. Robb, J. R. Cheeseman, G. Scalmani, V. Barone, B. Mennucci, 
 G. A. Petersson, H. Nakatsuji, M. Caricato, X. Li, H. P. Hratchian, 
 A. F. Izmaylov, J. Bloino, G. Zheng, J. L. Sonnenberg, M. Hada, 
 M. Ehara, K. Toyota, R. Fukuda, J. Hasegawa, M. Ishida, T. Nakajima, 
 Y. Honda, O. Kitao, H. Nakai, T. Vreven, J. A. Montgomery, Jr., 
 J. E. Peralta, F. Ogliaro, M. Bearpark, J. J. Heyd, E. Brothers, 
 K. N. Kudin, V. N. Staroverov, T. Keith, R. Kobayashi, J. Normand, 
 K. Raghavachari, A. Rendell, J. C. Burant, S. S. Iyengar, J. Tomasi, 
 M. Cossi, N. Rega, J. M. Millam, M. Klene, J. E. Knox, J. B. Cross, 
 V. Bakken, C. Adamo, J. Jaramillo, R. Gomperts, R. E. Stratmann, 
 O. Yazyev, A. J. Austin, R. Cammi, C. Pomelli, J. W. Ochterski, 
 R. L. Martin, K. Morokuma, V. G. Zakrzewski, G. A. Voth, 
 P. Salvador, J. J. Dannenberg, S. Dapprich, A. D. Daniels, 
 O. Farkas, J. B. Foresman, J. V. Ortiz, J. Cioslowski, 
 and D. J. Fox, Gaussian, Inc., Wallingford CT, 2010.
 
 ******************************************
 Gaussian 09:  EM64L-G09RevC.01 23-Sep-2011
                19-Feb-2014 
 ******************************************
 %mem=30GB
 %nprocshared=8
 Will use up to    8 processors via shared memory.
 %chk=TS_3_3g.chk
 -------------------------------
 #p cbs-qb3 opt=(TS,calcfc) freq
 -------------------------------
 1/5=1,10=4,14=-1,18=20,26=3,38=1/1,3;
 2/9=110,12=2,17=6,18=5,40=1/2;
 3/5=4,6=6,7=700,11=2,16=1,25=1,30=1,71=2,74=-5/1,2,3;
 4//1;
 5/5=2,38=5/2;
 8/6=4,10=90,11=11/1;
 11/6=1,8=1,9=11,15=111,16=1/1,2,10;
 10/6=1,7=6,13=1/2;
 6/7=2,8=2,9=2,10=2,28=1/1;
 7/10=1,18=20,25=1/1,2,3,16;
 1/5=1,10=4,14=-1,18=20/3(2);
 2/9=110/2;
 99//99;
 2/9=110/2;
 3/5=4,6=6,7=700,11=2,16=1,25=1,30=1,71=1,74=-5/1,2,3;
 4/5=5,16=3/1;
 5/5=2,38=5/2;
 7//1,2,3,16;
 1/5=1,14=-1,18=20/3(-5);
 2/9=110/2;
 6/7=2,8=2,9=2,10=2,19=2,28=1/1;
 99/9=1/99;
 Leave Link    1 at Wed Feb 19 11:22:36 2014, MaxMem= 4026531840 cpu:       0.7
 (Enter /usr/caen/gaussian-09revc/g09/l101.exe)
 -----------------------------------------------
 TS_3_3g using B3LYP/6-311++g(d,p) to calc. freq
 -----------------------------------------------
 Charge =  0 Multiplicity = 2
 Symbolic Z-Matrix:
 C                    -2.77537  -0.05442   1.01017 
 H                    -2.53012  -0.9738    1.54183 
 H                    -3.57485  -0.28164   0.29583 
 H                    -3.1703    0.66752   1.73064 
 C                    -1.54923   0.52881   0.28759 
 H                    -0.79456   0.75675   1.04507 
 C                     0.23577  -0.07853  -1.57745 
 H                     0.23633  -0.74503  -2.44543 
 H                    -0.04704   0.89987  -1.97486 
 C                     1.72407  -0.02578  -1.12217 
 H                     2.2319    0.62422  -1.84491 
 H                     2.14591  -1.02109  -1.26484 
 C                     2.17237   0.45226   0.28797 
 H                     3.26575   0.37418   0.2418 
 C                     1.85363   1.93173   0.56728 
 H                     0.78135   2.11762   0.64984 
 H                     2.31769   2.25845   1.50205 
 H                     2.24203   2.56536  -0.2364 
 C                    -1.94147   1.83423  -0.42215 
 H                    -2.62723   1.637    -1.25375 
 H                    -2.45748   2.50011   0.27483 
 H                    -1.08274   2.37945  -0.81893 
 C                     1.72533  -0.46384   1.41851 
 H                     2.50446  -1.01028   1.94753 
 H                     0.93688  -0.10526   2.07892 
 H                     1.04213  -1.53703   0.78874 
 C                    -0.9646   -0.50817  -0.70536 
 H                    -1.77291  -0.72281  -1.41859 
 O                    -0.81911  -1.77178   0.00805 
 O                     0.50283  -2.23838   0.07874 
 
 NAtoms=     30 NQM=        0 NQMF=       0 NMMI=     30 NMMIF=      0
                NMic=       0 NMicF=      0.
                    Isotopes and Nuclear Properties:
 (Nuclear quadrupole moments (NQMom) in fm**2, nuclear magnetic moments (NMagM)
  in nuclear magnetons)

  Atom         1           2           3           4           5           6           7           8           9          10
 IAtWgt=          12           1           1           1          12           1          12           1           1          12
 AtmWgt=  12.0000000   1.0078250   1.0078250   1.0078250  12.0000000   1.0078250  12.0000000   1.0078250   1.0078250  12.0000000
 NucSpn=           0           1           1           1           0           1           0           1           1           0
 AtZEff=   0.0000000   0.0000000   0.0000000   0.0000000   0.0000000   0.0000000   0.0000000   0.0000000   0.0000000   0.0000000
 NQMom=    0.0000000   0.0000000   0.0000000   0.0000000   0.0000000   0.0000000   0.0000000   0.0000000   0.0000000   0.0000000
 NMagM=    0.0000000   2.7928460   2.7928460   2.7928460   0.0000000   2.7928460   0.0000000   2.7928460   2.7928460   0.0000000

  Atom        11          12          13          14          15          16          17          18          19          20
 IAtWgt=           1           1          12           1          12           1           1           1          12           1
 AtmWgt=   1.0078250   1.0078250  12.0000000   1.0078250  12.0000000   1.0078250   1.0078250   1.0078250  12.0000000   1.0078250
 NucSpn=           1           1           0           1           0           1           1           1           0           1
 AtZEff=   0.0000000   0.0000000   0.0000000   0.0000000   0.0000000   0.0000000   0.0000000   0.0000000   0.0000000   0.0000000
 NQMom=    0.0000000   0.0000000   0.0000000   0.0000000   0.0000000   0.0000000   0.0000000   0.0000000   0.0000000   0.0000000
 NMagM=    2.7928460   2.7928460   0.0000000   2.7928460   0.0000000   2.7928460   2.7928460   2.7928460   0.0000000   2.7928460

  Atom        21          22          23          24          25          26          27          28          29          30
 IAtWgt=           1           1          12           1           1           1          12           1          16          16
 AtmWgt=   1.0078250   1.0078250  12.0000000   1.0078250   1.0078250   1.0078250  12.0000000   1.0078250  15.9949146  15.9949146
 NucSpn=           1           1           0           1           1           1           0           1           0           0
 AtZEff=   0.0000000   0.0000000   0.0000000   0.0000000   0.0000000   0.0000000   0.0000000   0.0000000   0.0000000   0.0000000
 NQMom=    0.0000000   0.0000000   0.0000000   0.0000000   0.0000000   0.0000000   0.0000000   0.0000000   0.0000000   0.0000000
 NMagM=    2.7928460   2.7928460   0.0000000   2.7928460   2.7928460   2.7928460   0.0000000   2.7928460   0.0000000   0.0000000
 Leave Link  101 at Wed Feb 19 11:22:37 2014, MaxMem= 4026531840 cpu:       2.8
 (Enter /usr/caen/gaussian-09revc/g09/l103.exe)

 GradGradGradGradGradGradGradGradGradGradGradGradGradGradGradGradGradGrad
 Berny optimization.
 Initialization pass.
                           ----------------------------
                           !    Initial Parameters    !
                           ! (Angstroms and Degrees)  !
 --------------------------                            --------------------------
 ! Name  Definition              Value          Derivative Info.                !
 --------------------------------------------------------------------------------
 ! R1    R(1,2)                  1.09           calculate D2E/DX2 analytically  !
 ! R2    R(1,3)                  1.0959         calculate D2E/DX2 analytically  !
 ! R3    R(1,4)                  1.0937         calculate D2E/DX2 analytically  !
 ! R4    R(1,5)                  1.5381         calculate D2E/DX2 analytically  !
 ! R5    R(5,6)                  1.0933         calculate D2E/DX2 analytically  !
 ! R6    R(5,19)                 1.5368         calculate D2E/DX2 analytically  !
 ! R7    R(5,27)                 1.5502         calculate D2E/DX2 analytically  !
 ! R8    R(7,8)                  1.0943         calculate D2E/DX2 analytically  !
 ! R9    R(7,9)                  1.0932         calculate D2E/DX2 analytically  !
 ! R10   R(7,10)                 1.5573         calculate D2E/DX2 analytically  !
 ! R11   R(7,27)                 1.5447         calculate D2E/DX2 analytically  !
 ! R12   R(10,11)                1.0967         calculate D2E/DX2 analytically  !
 ! R13   R(10,12)                1.0904         calculate D2E/DX2 analytically  !
 ! R14   R(10,13)                1.555          calculate D2E/DX2 analytically  !
 ! R15   R(13,14)                1.0971         calculate D2E/DX2 analytically  !
 ! R16   R(13,15)                1.539          calculate D2E/DX2 analytically  !
 ! R17   R(13,23)                1.5222         calculate D2E/DX2 analytically  !
 ! R18   R(15,16)                1.0914         calculate D2E/DX2 analytically  !
 ! R19   R(15,17)                1.0936         calculate D2E/DX2 analytically  !
 ! R20   R(15,18)                1.0946         calculate D2E/DX2 analytically  !
 ! R21   R(19,20)                1.0958         calculate D2E/DX2 analytically  !
 ! R22   R(19,21)                1.0934         calculate D2E/DX2 analytically  !
 ! R23   R(19,22)                1.0918         calculate D2E/DX2 analytically  !
 ! R24   R(23,24)                1.0888         calculate D2E/DX2 analytically  !
 ! R25   R(23,25)                1.0892         calculate D2E/DX2 analytically  !
 ! R26   R(26,30)                1.1344         calculate D2E/DX2 analytically  !
 ! R27   R(27,28)                1.0992         calculate D2E/DX2 analytically  !
 ! R28   R(27,29)                1.4584         calculate D2E/DX2 analytically  !
 ! R29   R(29,30)                1.4036         calculate D2E/DX2 analytically  !
 ! A1    A(2,1,3)              107.8898         calculate D2E/DX2 analytically  !
 ! A2    A(2,1,4)              108.4633         calculate D2E/DX2 analytically  !
 ! A3    A(2,1,5)              111.6918         calculate D2E/DX2 analytically  !
 ! A4    A(3,1,4)              107.627          calculate D2E/DX2 analytically  !
 ! A5    A(3,1,5)              110.7287         calculate D2E/DX2 analytically  !
 ! A6    A(4,1,5)              110.3054         calculate D2E/DX2 analytically  !
 ! A7    A(1,5,6)              107.6885         calculate D2E/DX2 analytically  !
 ! A8    A(1,5,19)             109.6089         calculate D2E/DX2 analytically  !
 ! A9    A(1,5,27)             110.3598         calculate D2E/DX2 analytically  !
 ! A10   A(6,5,19)             108.6059         calculate D2E/DX2 analytically  !
 ! A11   A(6,5,27)             108.841          calculate D2E/DX2 analytically  !
 ! A12   A(19,5,27)            111.6336         calculate D2E/DX2 analytically  !
 ! A13   A(8,7,9)              104.8846         calculate D2E/DX2 analytically  !
 ! A14   A(8,7,10)             104.5974         calculate D2E/DX2 analytically  !
 ! A15   A(8,7,27)             106.1878         calculate D2E/DX2 analytically  !
 ! A16   A(9,7,10)             108.8567         calculate D2E/DX2 analytically  !
 ! A17   A(9,7,27)             104.6624         calculate D2E/DX2 analytically  !
 ! A18   A(10,7,27)            125.9474         calculate D2E/DX2 analytically  !
 ! A19   A(7,10,11)            105.6611         calculate D2E/DX2 analytically  !
 ! A20   A(7,10,12)            107.4916         calculate D2E/DX2 analytically  !
 ! A21   A(7,10,13)            123.4399         calculate D2E/DX2 analytically  !
 ! A22   A(11,10,12)           106.0001         calculate D2E/DX2 analytically  !
 ! A23   A(11,10,13)           106.3752         calculate D2E/DX2 analytically  !
 ! A24   A(12,10,13)           106.723          calculate D2E/DX2 analytically  !
 ! A25   A(10,13,14)           103.1358         calculate D2E/DX2 analytically  !
 ! A26   A(10,13,15)           113.6043         calculate D2E/DX2 analytically  !
 ! A27   A(10,13,23)           113.8176         calculate D2E/DX2 analytically  !
 ! A28   A(14,13,15)           106.4068         calculate D2E/DX2 analytically  !
 ! A29   A(14,13,23)           106.3252         calculate D2E/DX2 analytically  !
 ! A30   A(15,13,23)           112.5155         calculate D2E/DX2 analytically  !
 ! A31   A(13,15,16)           112.3919         calculate D2E/DX2 analytically  !
 ! A32   A(13,15,17)           110.7603         calculate D2E/DX2 analytically  !
 ! A33   A(13,15,18)           110.4702         calculate D2E/DX2 analytically  !
 ! A34   A(16,15,17)           107.5408         calculate D2E/DX2 analytically  !
 ! A35   A(16,15,18)           107.7915         calculate D2E/DX2 analytically  !
 ! A36   A(17,15,18)           107.7028         calculate D2E/DX2 analytically  !
 ! A37   A(5,19,20)            110.9363         calculate D2E/DX2 analytically  !
 ! A38   A(5,19,21)            110.0833         calculate D2E/DX2 analytically  !
 ! A39   A(5,19,22)            113.0335         calculate D2E/DX2 analytically  !
 ! A40   A(20,19,21)           107.3399         calculate D2E/DX2 analytically  !
 ! A41   A(20,19,22)           107.8362         calculate D2E/DX2 analytically  !
 ! A42   A(21,19,22)           107.3812         calculate D2E/DX2 analytically  !
 ! A43   A(13,23,24)           116.9194         calculate D2E/DX2 analytically  !
 ! A44   A(13,23,25)           117.6945         calculate D2E/DX2 analytically  !
 ! A45   A(24,23,25)           112.8685         calculate D2E/DX2 analytically  !
 ! A46   A(5,27,7)             117.9464         calculate D2E/DX2 analytically  !
 ! A47   A(5,27,28)            105.6004         calculate D2E/DX2 analytically  !
 ! A48   A(5,27,29)            107.6917         calculate D2E/DX2 analytically  !
 ! A49   A(7,27,28)            105.0369         calculate D2E/DX2 analytically  !
 ! A50   A(7,27,29)            116.0818         calculate D2E/DX2 analytically  !
 ! A51   A(28,27,29)           102.8025         calculate D2E/DX2 analytically  !
 ! A52   A(27,29,30)           113.9925         calculate D2E/DX2 analytically  !
 ! A53   A(26,30,29)           105.8866         calculate D2E/DX2 analytically  !
 ! D1    D(2,1,5,6)            -60.9608         calculate D2E/DX2 analytically  !
 ! D2    D(2,1,5,19)          -178.9383         calculate D2E/DX2 analytically  !
 ! D3    D(2,1,5,27)            57.7184         calculate D2E/DX2 analytically  !
 ! D4    D(3,1,5,6)            178.773          calculate D2E/DX2 analytically  !
 ! D5    D(3,1,5,19)            60.7955         calculate D2E/DX2 analytically  !
 ! D6    D(3,1,5,27)           -62.5478         calculate D2E/DX2 analytically  !
 ! D7    D(4,1,5,6)             59.7432         calculate D2E/DX2 analytically  !
 ! D8    D(4,1,5,19)           -58.2342         calculate D2E/DX2 analytically  !
 ! D9    D(4,1,5,27)           178.4225         calculate D2E/DX2 analytically  !
 ! D10   D(1,5,19,20)          -67.9333         calculate D2E/DX2 analytically  !
 ! D11   D(1,5,19,21)           50.7292         calculate D2E/DX2 analytically  !
 ! D12   D(1,5,19,22)          170.8001         calculate D2E/DX2 analytically  !
 ! D13   D(6,5,19,20)          174.6622         calculate D2E/DX2 analytically  !
 ! D14   D(6,5,19,21)          -66.6753         calculate D2E/DX2 analytically  !
 ! D15   D(6,5,19,22)           53.3955         calculate D2E/DX2 analytically  !
 ! D16   D(27,5,19,20)          54.6562         calculate D2E/DX2 analytically  !
 ! D17   D(27,5,19,21)         173.3187         calculate D2E/DX2 analytically  !
 ! D18   D(27,5,19,22)         -66.6105         calculate D2E/DX2 analytically  !
 ! D19   D(1,5,27,7)           177.121          calculate D2E/DX2 analytically  !
 ! D20   D(1,5,27,28)           60.1816         calculate D2E/DX2 analytically  !
 ! D21   D(1,5,27,29)          -49.1206         calculate D2E/DX2 analytically  !
 ! D22   D(6,5,27,7)           -64.9054         calculate D2E/DX2 analytically  !
 ! D23   D(6,5,27,28)          178.1552         calculate D2E/DX2 analytically  !
 ! D24   D(6,5,27,29)           68.853          calculate D2E/DX2 analytically  !
 ! D25   D(19,5,27,7)           54.9622         calculate D2E/DX2 analytically  !
 ! D26   D(19,5,27,28)         -61.9771         calculate D2E/DX2 analytically  !
 ! D27   D(19,5,27,29)        -171.2793         calculate D2E/DX2 analytically  !
 ! D28   D(8,7,10,11)           75.7103         calculate D2E/DX2 analytically  !
 ! D29   D(8,7,10,12)          -37.1505         calculate D2E/DX2 analytically  !
 ! D30   D(8,7,10,13)         -161.8767         calculate D2E/DX2 analytically  !
 ! D31   D(9,7,10,11)          -35.9708         calculate D2E/DX2 analytically  !
 ! D32   D(9,7,10,12)         -148.8317         calculate D2E/DX2 analytically  !
 ! D33   D(9,7,10,13)           86.4422         calculate D2E/DX2 analytically  !
 ! D34   D(27,7,10,11)        -161.2851         calculate D2E/DX2 analytically  !
 ! D35   D(27,7,10,12)          85.854          calculate D2E/DX2 analytically  !
 ! D36   D(27,7,10,13)         -38.8721         calculate D2E/DX2 analytically  !
 ! D37   D(8,7,27,5)          -157.7128         calculate D2E/DX2 analytically  !
 ! D38   D(8,7,27,28)          -40.4717         calculate D2E/DX2 analytically  !
 ! D39   D(8,7,27,29)           72.2939         calculate D2E/DX2 analytically  !
 ! D40   D(9,7,27,5)           -47.0765         calculate D2E/DX2 analytically  !
 ! D41   D(9,7,27,28)           70.1646         calculate D2E/DX2 analytically  !
 ! D42   D(9,7,27,29)         -177.0698         calculate D2E/DX2 analytically  !
 ! D43   D(10,7,27,5)           79.9656         calculate D2E/DX2 analytically  !
 ! D44   D(10,7,27,28)        -162.7933         calculate D2E/DX2 analytically  !
 ! D45   D(10,7,27,29)         -50.0277         calculate D2E/DX2 analytically  !
 ! D46   D(7,10,13,14)        -178.9258         calculate D2E/DX2 analytically  !
 ! D47   D(7,10,13,15)         -64.1856         calculate D2E/DX2 analytically  !
 ! D48   D(7,10,13,23)          66.3327         calculate D2E/DX2 analytically  !
 ! D49   D(11,10,13,14)        -56.8377         calculate D2E/DX2 analytically  !
 ! D50   D(11,10,13,15)         57.9024         calculate D2E/DX2 analytically  !
 ! D51   D(11,10,13,23)       -171.5792         calculate D2E/DX2 analytically  !
 ! D52   D(12,10,13,14)         56.0089         calculate D2E/DX2 analytically  !
 ! D53   D(12,10,13,15)        170.7491         calculate D2E/DX2 analytically  !
 ! D54   D(12,10,13,23)        -58.7326         calculate D2E/DX2 analytically  !
 ! D55   D(10,13,15,16)         68.1865         calculate D2E/DX2 analytically  !
 ! D56   D(10,13,15,17)       -171.4971         calculate D2E/DX2 analytically  !
 ! D57   D(10,13,15,18)        -52.2475         calculate D2E/DX2 analytically  !
 ! D58   D(14,13,15,16)       -179.0328         calculate D2E/DX2 analytically  !
 ! D59   D(14,13,15,17)        -58.7165         calculate D2E/DX2 analytically  !
 ! D60   D(14,13,15,18)         60.5332         calculate D2E/DX2 analytically  !
 ! D61   D(23,13,15,16)        -62.9765         calculate D2E/DX2 analytically  !
 ! D62   D(23,13,15,17)         57.3399         calculate D2E/DX2 analytically  !
 ! D63   D(23,13,15,18)        176.5896         calculate D2E/DX2 analytically  !
 ! D64   D(10,13,23,24)        112.3207         calculate D2E/DX2 analytically  !
 ! D65   D(10,13,23,25)       -108.3252         calculate D2E/DX2 analytically  !
 ! D66   D(14,13,23,24)         -0.5184         calculate D2E/DX2 analytically  !
 ! D67   D(14,13,23,25)        138.8357         calculate D2E/DX2 analytically  !
 ! D68   D(15,13,23,24)       -116.6237         calculate D2E/DX2 analytically  !
 ! D69   D(15,13,23,25)         22.7304         calculate D2E/DX2 analytically  !
 ! D70   D(5,27,29,30)        -118.981          calculate D2E/DX2 analytically  !
 ! D71   D(7,27,29,30)          15.7535         calculate D2E/DX2 analytically  !
 ! D72   D(28,27,29,30)        129.7985         calculate D2E/DX2 analytically  !
 ! D73   D(27,29,30,26)         70.494          calculate D2E/DX2 analytically  !
 --------------------------------------------------------------------------------
 Trust Radius=3.00D-01 FncErr=1.00D-07 GrdErr=1.00D-06
 Number of steps in this run=    165 maximum allowed number of steps=    180.
 Search for a saddle point of order  1.
 GradGradGradGradGradGradGradGradGradGradGradGradGradGradGradGradGradGrad

 Leave Link  103 at Wed Feb 19 11:22:37 2014, MaxMem= 4026531840 cpu:       0.6
 (Enter /usr/caen/gaussian-09revc/g09/l202.exe)
                          Input orientation:                          
 ---------------------------------------------------------------------
 Center     Atomic      Atomic             Coordinates (Angstroms)
 Number     Number       Type             X           Y           Z
 ---------------------------------------------------------------------
      1          6           0       -2.775374   -0.054417    1.010171
      2          1           0       -2.530118   -0.973803    1.541834
      3          1           0       -3.574847   -0.281644    0.295830
      4          1           0       -3.170295    0.667520    1.730638
      5          6           0       -1.549227    0.528807    0.287585
      6          1           0       -0.794557    0.756753    1.045072
      7          6           0        0.235772   -0.078527   -1.577453
      8          1           0        0.236327   -0.745026   -2.445426
      9          1           0       -0.047044    0.899872   -1.974861
     10          6           0        1.724074   -0.025784   -1.122168
     11          1           0        2.231900    0.624217   -1.844907
     12          1           0        2.145914   -1.021094   -1.264842
     13          6           0        2.172365    0.452258    0.287970
     14          1           0        3.265754    0.374175    0.241795
     15          6           0        1.853629    1.931734    0.567284
     16          1           0        0.781348    2.117617    0.649838
     17          1           0        2.317693    2.258448    1.502052
     18          1           0        2.242030    2.565355   -0.236400
     19          6           0       -1.941467    1.834232   -0.422152
     20          1           0       -2.627227    1.637004   -1.253750
     21          1           0       -2.457480    2.500108    0.274827
     22          1           0       -1.082744    2.379445   -0.818925
     23          6           0        1.725334   -0.463844    1.418505
     24          1           0        2.504464   -1.010279    1.947527
     25          1           0        0.936882   -0.105260    2.078917
     26          1           0        1.042131   -1.537026    0.788741
     27          6           0       -0.964602   -0.508168   -0.705358
     28          1           0       -1.772913   -0.722810   -1.418589
     29          8           0       -0.819109   -1.771784    0.008051
     30          8           0        0.502828   -2.238381    0.078740
 ---------------------------------------------------------------------
                    Distance matrix (angstroms):
                    1          2          3          4          5
     1  C    0.000000
     2  H    1.089994   0.000000
     3  H    1.095934   1.767221   0.000000
     4  H    1.093722   1.771839   1.767272   0.000000
     5  C    1.538089   2.189321   2.181750   2.174742   0.000000
     6  H    2.140759   2.500754   3.060987   2.474287   1.093285
     7  C    3.970312   4.263991   4.251031   4.806386   2.652064
     8  H    4.635562   4.858374   4.717442   5.571344   3.504312
     9  H    4.155101   4.695046   4.358602   4.851743   2.740968
    10  C    4.979229   5.108209   5.491334   5.707365   3.606865
    11  H    5.803861   6.058094   6.254730   6.478434   4.342067
    12  H    5.507197   5.453892   5.975750   6.331382   4.297242
    13  C    5.025775   5.071407   5.793886   5.538199   3.722379
    14  H    6.104860   6.090918   6.872179   6.612521   4.817681
    15  C    5.056542   5.348750   5.868652   5.309561   3.691323
    16  H    4.183042   4.617179   4.985801   4.345848   2.843787
    17  H    5.615214   5.826689   6.529094   5.718506   4.406774
    18  H    5.795816   6.201706   6.498056   6.063355   4.335403
    19  C    2.512756   3.476897   2.767735   2.739661   1.536787
    20  H    2.829875   3.826360   2.642043   3.184556   2.183094
    21  H    2.677197   3.698465   2.997848   2.446604   2.170510
    22  H    3.483428   4.348833   3.812434   3.713331   2.206090
    23  C    4.537702   4.287673   5.420841   5.034342   3.603760
    24  H    5.446926   5.051033   6.341690   5.921566   4.642909
    25  H    3.863373   3.614265   4.854504   4.193732   3.129161
    26  H    4.101281   3.693959   4.809930   4.846826   3.351710
    27  C    2.535316   2.778044   2.804830   3.490186   1.550174
    28  H    2.711190   3.066017   2.526030   3.715283   2.127818
    29  O    2.789367   2.432451   3.146017   3.800735   2.429801
    30  O    4.047699   3.597021   4.528066   4.966373   3.451358
                    6          7          8          9         10
     6  H    0.000000
     7  C    2.938862   0.000000
     8  H    3.937212   1.094348   0.000000
     9  H    3.114363   1.093244   1.734191   0.000000
    10  C    3.413619   1.557276   2.117005   2.172736   0.000000
    11  H    4.186763   2.133051   2.493544   2.299230   1.096695
    12  H    4.140388   2.152859   2.261971   3.000550   1.090388
    13  C    3.077100   2.740790   3.557132   3.201022   1.554985
    14  H    4.156651   3.563060   4.201333   4.020516   2.096936
    15  C    2.936282   3.355370   4.342480   3.337634   2.588998
    16  H    2.119348   3.175142   4.251168   3.009681   2.936478
    17  H    3.485688   4.390808   5.379175   4.418895   3.529395
    18  H    3.759531   3.579610   4.456598   3.322039   2.786910
    19  C    2.151537   3.119894   3.935606   2.621597   4.169637
    20  H    3.068893   3.353296   3.910767   2.778616   4.660043
    21  H    2.529402   4.163401   5.018692   3.664977   5.081055
    22  H    2.488105   2.890584   3.761353   2.144294   3.708815
    23  C    2.824741   3.367941   4.150442   4.063985   2.578162
    24  H    3.849723   4.294253   4.951044   5.054107   3.316816
    25  H    2.193122   3.723078   4.622743   4.290864   3.297413
    26  H    2.949670   2.894185   3.425846   3.842170   2.529915
    27  C    2.166321   1.544681   2.127479   2.106212   2.763223
    28  H    3.035772   2.115456   2.256531   2.433343   3.578076
    29  O    2.733041   2.548277   2.861420   3.415519   3.285375
    30  O    3.404091   2.734824   2.944919   3.790550   2.798072
                   11         12         13         14         15
    11  H    0.000000
    12  H    1.746688   0.000000
    13  C    2.140626   2.140722   0.000000
    14  H    2.342157   2.338968   1.097146   0.000000
    15  C    2.769721   3.487307   1.538980   2.127447   0.000000
    16  H    3.249323   3.921677   2.199840   3.062411   1.091400
    17  H    3.725615   4.294253   2.181155   2.457143   1.093567
    18  H    2.520995   3.732231   2.178301   2.465350   1.094641
    19  C    4.572238   5.056649   4.397470   5.448646   3.923168
    20  H    4.998632   5.463377   5.178475   6.209559   4.845730
    21  H    5.477456   5.996722   5.062542   6.105415   4.358238
    22  H    3.888487   4.710280   3.941447   4.904658   3.277851
    23  C    3.477117   2.772682   1.522232   2.111828   2.545551
    24  H    4.138650   3.232335   2.236836   2.325037   3.314227
    25  H    4.195903   3.671680   2.246049   3.004750   2.697184
    26  H    3.608687   2.387829   2.342104   2.982673   3.569295
    27  C    3.577498   3.201785   3.427781   4.423973   3.938929
    28  H    4.246735   3.933169   4.456271   5.417418   4.913461
    29  O    4.299178   3.312877   3.738132   4.620160   4.601338
    30  O    3.858053   2.446780   3.173432   3.806021   4.410578
                   16         17         18         19         20
    16  H    0.000000
    17  H    1.762515   0.000000
    18  H    1.766205   1.766956   0.000000
    19  C    2.939930   4.692863   4.250964   0.000000
    20  H    3.933576   5.694986   5.060287   1.095774   0.000000
    21  H    3.282825   4.936270   4.727685   1.093362   1.763607
    22  H    2.387605   4.118804   3.380535   1.091829   1.767970
    23  C    2.854102   2.787246   3.490234   4.702616   5.522617
    24  H    3.799587   3.304226   4.198043   5.785579   6.602313
    25  H    2.647195   2.797593   3.767796   4.278068   5.181219
    26  H    3.666568   4.067124   4.395475   4.661920   5.264069
    27  C    3.432149   4.827037   4.466425   2.553685   2.768902
    28  H    4.344038   5.843894   5.322534   2.749502   2.515104
    29  O    4.254503   5.321122   5.314236   3.801067   4.059713
    30  O    4.402096   5.053813   5.118595   4.776154   5.156683
                   21         22         23         24         25
    21  H    0.000000
    22  H    1.760895   0.000000
    23  C    5.252518   4.579922   0.000000
    24  H    6.304096   5.657875   1.088806   0.000000
    25  H    4.643746   4.318580   1.089212   1.814838   0.000000
    26  H    5.367479   4.736922   1.419538   1.938728   1.930178
    27  C    3.498453   2.892259   3.427611   4.395945   3.395609
    28  H    3.704523   3.234179   4.511529   5.450627   4.467315
    29  O    4.583066   4.241002   3.189714   3.922702   3.185795
    30  O    5.590631   4.964288   2.537415   3.001191   2.956233
                   26         27         28         29         30
    26  H    0.000000
    27  C    2.705154   0.000000
    28  H    3.668750   1.099153   0.000000
    29  O    2.031946   1.458371   2.011316   0.000000
    30  O    1.134393   2.400374   3.117362   1.403648   0.000000
 Stoichiometry    C9H19O2(2)
 Framework group  C1[X(C9H19O2)]
 Deg. of freedom    84
 Full point group                 C1      NOp   1
 Largest Abelian subgroup         C1      NOp   1
 Largest concise Abelian subgroup C1      NOp   1
                         Standard orientation:                         
 ---------------------------------------------------------------------
 Center     Atomic      Atomic             Coordinates (Angstroms)
 Number     Number       Type             X           Y           Z
 ---------------------------------------------------------------------
      1          6           0        2.775374   -0.054417   -1.010171
      2          1           0        2.530118   -0.973803   -1.541834
      3          1           0        3.574847   -0.281644   -0.295830
      4          1           0        3.170295    0.667520   -1.730638
      5          6           0        1.549227    0.528807   -0.287585
      6          1           0        0.794557    0.756753   -1.045072
      7          6           0       -0.235772   -0.078527    1.577453
      8          1           0       -0.236327   -0.745026    2.445426
      9          1           0        0.047044    0.899872    1.974861
     10          6           0       -1.724074   -0.025784    1.122168
     11          1           0       -2.231900    0.624217    1.844907
     12          1           0       -2.145914   -1.021094    1.264842
     13          6           0       -2.172365    0.452258   -0.287970
     14          1           0       -3.265754    0.374175   -0.241795
     15          6           0       -1.853629    1.931734   -0.567284
     16          1           0       -0.781348    2.117617   -0.649838
     17          1           0       -2.317693    2.258448   -1.502052
     18          1           0       -2.242030    2.565355    0.236400
     19          6           0        1.941467    1.834232    0.422152
     20          1           0        2.627227    1.637004    1.253750
     21          1           0        2.457480    2.500108   -0.274827
     22          1           0        1.082744    2.379445    0.818925
     23          6           0       -1.725334   -0.463844   -1.418505
     24          1           0       -2.504464   -1.010279   -1.947527
     25          1           0       -0.936882   -0.105260   -2.078917
     26          1           0       -1.042131   -1.537026   -0.788741
     27          6           0        0.964602   -0.508168    0.705358
     28          1           0        1.772913   -0.722810    1.418589
     29          8           0        0.819109   -1.771784   -0.008051
     30          8           0       -0.502828   -2.238381   -0.078740
 ---------------------------------------------------------------------
 Rotational constants (GHZ):      1.2653842      0.8672943      0.7057384
 Leave Link  202 at Wed Feb 19 11:22:37 2014, MaxMem= 4026531840 cpu:       0.5
 (Enter /usr/caen/gaussian-09revc/g09/l301.exe)
 Standard basis: 6-311G(2d,d,p) (5D, 7F)
 Ernie: Thresh=  0.10000D-02 Tol=  0.10000D-05 Strict=F.
 There are   312 symmetry adapted basis functions of A   symmetry.
 Integral buffers will be    131072 words long.
 Raffenetti 2 integral format.
 Two-electron integral symmetry is turned on.
   312 basis functions,   504 primitive gaussians,   323 cartesian basis functions
    45 alpha electrons       44 beta electrons
       nuclear repulsion energy       708.0500906392 Hartrees.
 IExCor=  402 DFT=T Ex+Corr=B3LYP ExCW=0 ScaHFX=  0.200000
 ScaDFX=  0.800000  0.720000  1.000000  0.810000 ScalE2=  1.000000  1.000000
 IRadAn=      0 IRanWt=     -1 IRanGd=            0 ICorTp=0
 NAtoms=   30 NActive=   30 NUniq=   30 SFac= 1.00D+00 NAtFMM=   60 NAOKFM=F Big=F
 Leave Link  301 at Wed Feb 19 11:22:38 2014, MaxMem= 4026531840 cpu:       0.7
 (Enter /usr/caen/gaussian-09revc/g09/l302.exe)
 NPDir=0 NMtPBC=     1 NCelOv=     1 NCel=       1 NClECP=     1 NCelD=      1
         NCelK=      1 NCelE2=     1 NClLst=     1 CellRange=     0.0.
 One-electron integrals computed using PRISM.
 NBasis=   312 RedAO= T  NBF=   312
 NBsUse=   312 1.00D-06 NBFU=   312
 Precomputing XC quadrature grid using
 IXCGrd= 2 IRadAn=           0 IRanWt=          -1 IRanGd=           0 AccXCQ= 0.00D+00.
 NRdTot=    1904 NPtTot=      241508 NUsed=      255239 NTot=      255271
 NSgBfM=   323   323   323   323   323 NAtAll=    30    30.
 Leave Link  302 at Wed Feb 19 11:22:39 2014, MaxMem= 4026531840 cpu:       6.8
 (Enter /usr/caen/gaussian-09revc/g09/l303.exe)
 DipDrv:  MaxL=1.
 Leave Link  303 at Wed Feb 19 11:22:40 2014, MaxMem= 4026531840 cpu:       2.3
 (Enter /usr/caen/gaussian-09revc/g09/l401.exe)
 Harris functional with IExCor=  402 diagonalized for initial guess.
 ExpMin= 1.03D-01 ExpMax= 8.59D+03 ExpMxC= 1.30D+03 IAcc=1 IRadAn=         1 AccDes= 0.00D+00
 HarFok:  IExCor=  402 AccDes= 0.00D+00 IRadAn=         1 IDoV= 1
 ScaDFX=  1.000000  1.000000  1.000000  1.000000
 FoFCou: FMM=F IPFlag=           0 FMFlag=      100000 FMFlg1=           0
         NFxFlg=           0 DoJE=T BraDBF=F KetDBF=T FulRan=T
         Omega=  0.000000  0.000000  1.000000  0.000000  0.000000 ICntrl=     500 IOpCl=  0
         NMat0=    1 NMatS0=    1 NMatT0=    0 NMatD0=    1 NMtDS0=    0 NMtDT0=    0
         I1Cent=           4 NGrid=           0.
 Petite list used in FoFCou.
 Harris En= -504.869233827043    
 Initial guess orbital symmetries:
 Alpha Orbitals:
       Occupied  (A) (A) (A) (A) (A) (A) (A) (A) (A) (A) (A) (A)
                 (A) (A) (A) (A) (A) (A) (A) (A) (A) (A) (A) (A)
                 (A) (A) (A) (A) (A) (A) (A) (A) (A) (A) (A) (A)
                 (A) (A) (A) (A) (A) (A) (A) (A) (A)
       Virtual   (A) (A) (A) (A) (A) (A) (A) (A) (A) (A) (A) (A)
                 (A) (A) (A) (A) (A) (A) (A) (A) (A) (A) (A) (A)
                 (A) (A) (A) (A) (A) (A) (A) (A) (A) (A) (A) (A)
                 (A) (A) (A) (A) (A) (A) (A) (A) (A) (A) (A) (A)
                 (A) (A) (A) (A) (A) (A) (A) (A) (A) (A) (A) (A)
                 (A) (A) (A) (A) (A) (A) (A) (A) (A) (A) (A) (A)
                 (A) (A) (A) (A) (A) (A) (A) (A) (A) (A) (A) (A)
                 (A) (A) (A) (A) (A) (A) (A) (A) (A) (A) (A) (A)
                 (A) (A) (A) (A) (A) (A) (A) (A) (A) (A) (A) (A)
                 (A) (A) (A) (A) (A) (A) (A) (A) (A) (A) (A) (A)
                 (A) (A) (A) (A) (A) (A) (A) (A) (A) (A) (A) (A)
                 (A) (A) (A) (A) (A) (A) (A) (A) (A) (A) (A) (A)
                 (A) (A) (A) (A) (A) (A) (A) (A) (A) (A) (A) (A)
                 (A) (A) (A) (A) (A) (A) (A) (A) (A) (A) (A) (A)
                 (A) (A) (A) (A) (A) (A) (A) (A) (A) (A) (A) (A)
                 (A) (A) (A) (A) (A) (A) (A) (A) (A) (A) (A) (A)
                 (A) (A) (A) (A) (A) (A) (A) (A) (A) (A) (A) (A)
                 (A) (A) (A) (A) (A) (A) (A) (A) (A) (A) (A) (A)
                 (A) (A) (A) (A) (A) (A) (A) (A) (A) (A) (A) (A)
                 (A) (A) (A) (A) (A) (A) (A) (A) (A) (A) (A) (A)
                 (A) (A) (A) (A) (A) (A) (A) (A) (A) (A) (A) (A)
                 (A) (A) (A) (A) (A) (A) (A) (A) (A) (A) (A) (A)
                 (A) (A) (A)
 Beta  Orbitals:
       Occupied  (A) (A) (A) (A) (A) (A) (A) (A) (A) (A) (A) (A)
                 (A) (A) (A) (A) (A) (A) (A) (A) (A) (A) (A) (A)
                 (A) (A) (A) (A) (A) (A) (A) (A) (A) (A) (A) (A)
                 (A) (A) (A) (A) (A) (A) (A) (A)
       Virtual   (A) (A) (A) (A) (A) (A) (A) (A) (A) (A) (A) (A)
                 (A) (A) (A) (A) (A) (A) (A) (A) (A) (A) (A) (A)
                 (A) (A) (A) (A) (A) (A) (A) (A) (A) (A) (A) (A)
                 (A) (A) (A) (A) (A) (A) (A) (A) (A) (A) (A) (A)
                 (A) (A) (A) (A) (A) (A) (A) (A) (A) (A) (A) (A)
                 (A) (A) (A) (A) (A) (A) (A) (A) (A) (A) (A) (A)
                 (A) (A) (A) (A) (A) (A) (A) (A) (A) (A) (A) (A)
                 (A) (A) (A) (A) (A) (A) (A) (A) (A) (A) (A) (A)
                 (A) (A) (A) (A) (A) (A) (A) (A) (A) (A) (A) (A)
                 (A) (A) (A) (A) (A) (A) (A) (A) (A) (A) (A) (A)
                 (A) (A) (A) (A) (A) (A) (A) (A) (A) (A) (A) (A)
                 (A) (A) (A) (A) (A) (A) (A) (A) (A) (A) (A) (A)
                 (A) (A) (A) (A) (A) (A) (A) (A) (A) (A) (A) (A)
                 (A) (A) (A) (A) (A) (A) (A) (A) (A) (A) (A) (A)
                 (A) (A) (A) (A) (A) (A) (A) (A) (A) (A) (A) (A)
                 (A) (A) (A) (A) (A) (A) (A) (A) (A) (A) (A) (A)
                 (A) (A) (A) (A) (A) (A) (A) (A) (A) (A) (A) (A)
                 (A) (A) (A) (A) (A) (A) (A) (A) (A) (A) (A) (A)
                 (A) (A) (A) (A) (A) (A) (A) (A) (A) (A) (A) (A)
                 (A) (A) (A) (A) (A) (A) (A) (A) (A) (A) (A) (A)
                 (A) (A) (A) (A) (A) (A) (A) (A) (A) (A) (A) (A)
                 (A) (A) (A) (A) (A) (A) (A) (A) (A) (A) (A) (A)
                 (A) (A) (A) (A)
 The electronic state of the initial guess is 2-A.
 Initial guess <Sx>= 0.0000 <Sy>= 0.0000 <Sz>= 0.5000 <S**2>= 0.7500 S= 0.5000
 Leave Link  401 at Wed Feb 19 11:22:41 2014, MaxMem= 4026531840 cpu:       7.4
 (Enter /usr/caen/gaussian-09revc/g09/l502.exe)
 UHF open shell SCF:
 Requested convergence on RMS density matrix=1.00D-08 within 128 cycles.
 Requested convergence on MAX density matrix=1.00D-06.
 Requested convergence on             energy=1.00D-06.
 No special actions if energy rises.
 Using DIIS extrapolation, IDIIS=  1040.
 Integral symmetry usage will be decided dynamically.
       254956 words used for storage of precomputed grid.
 Keep R1 and R2 ints in memory in canonical form, NReq=2755659687.
 IEnd=      591114 IEndB=      591114 NGot=  4026531840 MDV=  1287999389
 LenX=  1287999389 LenY=  1287894619
 Symmetry not used in FoFDir.
 MinBra= 0 MaxBra= 2 Meth= 1.
 IRaf=       0 NMat=   1 IRICut=       1 DoRegI=T DoRafI=F ISym2E= 0 JSym2E=0.
 Integral accuracy reduced to 1.0D-05 until final iterations.

 Cycle   1  Pass 0  IDiag  1:
 E= -504.424428083798    
 DIIS: error= 2.83D-02 at cycle   1 NSaved=   1.
 NSaved= 1 IEnMin= 1 EnMin= -504.424428083798     IErMin= 1 ErrMin= 2.83D-02
 ErrMax= 2.83D-02 EMaxC= 1.00D-01 BMatC= 1.53D+00 BMatP= 1.53D+00
 IDIUse=3 WtCom= 7.17D-01 WtEn= 2.83D-01
 Coeff-Com:  0.100D+01
 Coeff-En:   0.100D+01
 Coeff:      0.100D+01
 Gap=     0.197 Goal=   None    Shift=    0.000
 Gap=     0.170 Goal=   None    Shift=    0.000
 GapD=    0.170 DampG=1.000 DampE=0.500 DampFc=0.5000 IDamp=-1.
 Damping current iteration by 5.00D-01
 RMSDP=3.47D-03 MaxDP=1.21D-01              OVMax= 3.26D-01

 Cycle   2  Pass 0  IDiag  1:
 E= -504.570433782470     Delta-E=       -0.146005698672 Rises=F Damp=T
 DIIS: error= 6.96D-03 at cycle   2 NSaved=   2.
 NSaved= 2 IEnMin= 2 EnMin= -504.570433782470     IErMin= 2 ErrMin= 6.96D-03
 ErrMax= 6.96D-03 EMaxC= 1.00D-01 BMatC= 1.52D-01 BMatP= 1.53D+00
 IDIUse=3 WtCom= 9.30D-01 WtEn= 6.96D-02
 Coeff-Com:  0.122D+00 0.878D+00
 Coeff-En:   0.225D+00 0.775D+00
 Coeff:      0.129D+00 0.871D+00
 Gap=     0.299 Goal=   None    Shift=    0.000
 Gap=     0.229 Goal=   None    Shift=    0.000
 RMSDP=1.18D-03 MaxDP=3.84D-02 DE=-1.46D-01 OVMax= 3.00D-01

 Cycle   3  Pass 0  IDiag  1:
 E= -504.774504806784     Delta-E=       -0.204071024314 Rises=F Damp=F
 DIIS: error= 1.47D-02 at cycle   3 NSaved=   3.
 NSaved= 3 IEnMin= 3 EnMin= -504.774504806784     IErMin= 2 ErrMin= 6.96D-03
 ErrMax= 1.47D-02 EMaxC= 1.00D-01 BMatC= 1.48D-01 BMatP= 1.52D-01
 IDIUse=3 WtCom= 8.53D-01 WtEn= 1.47D-01
 Coeff-Com:  0.109D-01 0.494D+00 0.495D+00
 Coeff-En:   0.000D+00 0.000D+00 0.100D+01
 Coeff:      0.931D-02 0.422D+00 0.569D+00
 Gap=     0.271 Goal=   None    Shift=    0.000
 Gap=     0.139 Goal=   None    Shift=    0.000
 RMSDP=8.44D-04 MaxDP=3.56D-02 DE=-2.04D-01 OVMax= 1.91D-01

 Cycle   4  Pass 0  IDiag  1:
 E= -504.792918015722     Delta-E=       -0.018413208938 Rises=F Damp=F
 DIIS: error= 7.05D-03 at cycle   4 NSaved=   4.
 NSaved= 4 IEnMin= 4 EnMin= -504.792918015722     IErMin= 2 ErrMin= 6.96D-03
 ErrMax= 7.05D-03 EMaxC= 1.00D-01 BMatC= 7.15D-02 BMatP= 1.48D-01
 IDIUse=3 WtCom= 9.30D-01 WtEn= 7.05D-02
 Coeff-Com: -0.481D-02 0.122D+00 0.411D+00 0.471D+00
 Coeff-En:   0.000D+00 0.000D+00 0.339D+00 0.661D+00
 Coeff:     -0.447D-02 0.114D+00 0.406D+00 0.485D+00
 Gap=     0.265 Goal=   None    Shift=    0.000
 Gap=     0.133 Goal=   None    Shift=    0.000
 RMSDP=3.23D-04 MaxDP=1.48D-02 DE=-1.84D-02 OVMax= 4.71D-02

 Cycle   5  Pass 0  IDiag  1:
 E= -504.806699995628     Delta-E=       -0.013781979907 Rises=F Damp=F
 DIIS: error= 1.14D-03 at cycle   5 NSaved=   5.
 NSaved= 5 IEnMin= 5 EnMin= -504.806699995628     IErMin= 5 ErrMin= 1.14D-03
 ErrMax= 1.14D-03 EMaxC= 1.00D-01 BMatC= 2.23D-03 BMatP= 7.15D-02
 IDIUse=3 WtCom= 9.89D-01 WtEn= 1.14D-02
 Coeff-Com: -0.189D-02 0.102D-01 0.173D+00 0.226D+00 0.593D+00
 Coeff-En:   0.000D+00 0.000D+00 0.000D+00 0.000D+00 0.100D+01
 Coeff:     -0.187D-02 0.101D-01 0.171D+00 0.224D+00 0.597D+00
 Gap=     0.250 Goal=   None    Shift=    0.000
 Gap=     0.135 Goal=   None    Shift=    0.000
 RMSDP=9.70D-05 MaxDP=3.57D-03 DE=-1.38D-02 OVMax= 1.22D-02

 Cycle   6  Pass 0  IDiag  1:
 E= -504.807114258146     Delta-E=       -0.000414262518 Rises=F Damp=F
 DIIS: error= 9.50D-04 at cycle   6 NSaved=   6.
 NSaved= 6 IEnMin= 6 EnMin= -504.807114258146     IErMin= 6 ErrMin= 9.50D-04
 ErrMax= 9.50D-04 EMaxC= 1.00D-01 BMatC= 9.71D-04 BMatP= 2.23D-03
 IDIUse=3 WtCom= 9.91D-01 WtEn= 9.50D-03
 Coeff-Com:  0.102D-02-0.163D-01 0.365D-01 0.371D-01 0.395D+00 0.547D+00
 Coeff-En:   0.000D+00 0.000D+00 0.000D+00 0.000D+00 0.140D+00 0.860D+00
 Coeff:      0.101D-02-0.161D-01 0.362D-01 0.367D-01 0.393D+00 0.550D+00
 Gap=     0.251 Goal=   None    Shift=    0.000
 Gap=     0.137 Goal=   None    Shift=    0.000
 RMSDP=4.61D-05 MaxDP=1.93D-03 DE=-4.14D-04 OVMax= 1.13D-02

 Cycle   7  Pass 0  IDiag  1:
 E= -504.807310867609     Delta-E=       -0.000196609463 Rises=F Damp=F
 DIIS: error= 3.06D-04 at cycle   7 NSaved=   7.
 NSaved= 7 IEnMin= 7 EnMin= -504.807310867609     IErMin= 7 ErrMin= 3.06D-04
 ErrMax= 3.06D-04 EMaxC= 1.00D-01 BMatC= 1.30D-04 BMatP= 9.71D-04
 IDIUse=3 WtCom= 9.97D-01 WtEn= 3.06D-03
 Coeff-Com:  0.155D-02-0.928D-02-0.206D-01-0.473D-01 0.361D-01 0.279D+00
 Coeff-Com:  0.761D+00
 Coeff-En:   0.000D+00 0.000D+00 0.000D+00 0.000D+00 0.000D+00 0.000D+00
 Coeff-En:   0.100D+01
 Coeff:      0.155D-02-0.925D-02-0.205D-01-0.472D-01 0.360D-01 0.278D+00
 Coeff:      0.761D+00
 Gap=     0.251 Goal=   None    Shift=    0.000
 Gap=     0.137 Goal=   None    Shift=    0.000
 RMSDP=2.89D-05 MaxDP=1.57D-03 DE=-1.97D-04 OVMax= 6.54D-03

 Cycle   8  Pass 0  IDiag  1:
 E= -504.807356306910     Delta-E=       -0.000045439300 Rises=F Damp=F
 DIIS: error= 1.00D-04 at cycle   8 NSaved=   8.
 NSaved= 8 IEnMin= 8 EnMin= -504.807356306910     IErMin= 8 ErrMin= 1.00D-04
 ErrMax= 1.00D-04 EMaxC= 1.00D-01 BMatC= 2.24D-05 BMatP= 1.30D-04
 IDIUse=3 WtCom= 9.99D-01 WtEn= 1.00D-03
 Coeff-Com:  0.616D-03 0.170D-03-0.154D-01-0.326D-01-0.784D-01 0.121D-01
 Coeff-Com:  0.374D+00 0.739D+00
 Coeff-En:   0.000D+00 0.000D+00 0.000D+00 0.000D+00 0.000D+00 0.000D+00
 Coeff-En:   0.000D+00 0.100D+01
 Coeff:      0.616D-03 0.170D-03-0.154D-01-0.326D-01-0.783D-01 0.121D-01
 Coeff:      0.374D+00 0.740D+00
 Gap=     0.251 Goal=   None    Shift=    0.000
 Gap=     0.138 Goal=   None    Shift=    0.000
 RMSDP=1.40D-05 MaxDP=4.92D-04 DE=-4.54D-05 OVMax= 5.01D-03

 Cycle   9  Pass 0  IDiag  1:
 E= -504.807366483174     Delta-E=       -0.000010176264 Rises=F Damp=F
 DIIS: error= 4.18D-05 at cycle   9 NSaved=   9.
 NSaved= 9 IEnMin= 9 EnMin= -504.807366483174     IErMin= 9 ErrMin= 4.18D-05
 ErrMax= 4.18D-05 EMaxC= 1.00D-01 BMatC= 2.32D-06 BMatP= 2.24D-05
 IDIUse=1 WtCom= 1.00D+00 WtEn= 0.00D+00
 Coeff-Com: -0.346D-04 0.103D-02-0.127D-02-0.383D-02-0.272D-01-0.303D-01
 Coeff-Com: -0.702D-02 0.226D+00 0.842D+00
 Coeff:     -0.346D-04 0.103D-02-0.127D-02-0.383D-02-0.272D-01-0.303D-01
 Coeff:     -0.702D-02 0.226D+00 0.842D+00
 Gap=     0.251 Goal=   None    Shift=    0.000
 Gap=     0.138 Goal=   None    Shift=    0.000
 RMSDP=5.78D-06 MaxDP=2.27D-04 DE=-1.02D-05 OVMax= 1.75D-03

 Initial convergence to 1.0D-05 achieved.  Increase integral accuracy.
 Cycle  10  Pass 1  IDiag  1:
 E= -504.807286632485     Delta-E=        0.000079850689 Rises=F Damp=F
 DIIS: error= 3.47D-05 at cycle   1 NSaved=   1.
 NSaved= 1 IEnMin= 1 EnMin= -504.807286632485     IErMin= 1 ErrMin= 3.47D-05
 ErrMax= 3.47D-05 EMaxC= 1.00D-01 BMatC= 1.99D-06 BMatP= 1.99D-06
 IDIUse=1 WtCom= 1.00D+00 WtEn= 0.00D+00
 Coeff-Com:  0.100D+01
 Coeff:      0.100D+01
 Gap=     0.251 Goal=   None    Shift=    0.000
 Gap=     0.138 Goal=   None    Shift=    0.000
 RMSDP=5.78D-06 MaxDP=2.27D-04 DE= 7.99D-05 OVMax= 5.33D-04

 Cycle  11  Pass 1  IDiag  1:
 E= -504.807287382975     Delta-E=       -0.000000750490 Rises=F Damp=F
 DIIS: error= 1.27D-05 at cycle   2 NSaved=   2.
 NSaved= 2 IEnMin= 2 EnMin= -504.807287382975     IErMin= 2 ErrMin= 1.27D-05
 ErrMax= 1.27D-05 EMaxC= 1.00D-01 BMatC= 4.08D-07 BMatP= 1.99D-06
 IDIUse=1 WtCom= 1.00D+00 WtEn= 0.00D+00
 Coeff-Com:  0.212D+00 0.788D+00
 Coeff:      0.212D+00 0.788D+00
 Gap=     0.251 Goal=   None    Shift=    0.000
 Gap=     0.138 Goal=   None    Shift=    0.000
 RMSDP=1.77D-06 MaxDP=6.97D-05 DE=-7.50D-07 OVMax= 3.76D-04

 Cycle  12  Pass 1  IDiag  1:
 E= -504.807287455105     Delta-E=       -0.000000072130 Rises=F Damp=F
 DIIS: error= 1.26D-05 at cycle   3 NSaved=   3.
 NSaved= 3 IEnMin= 3 EnMin= -504.807287455105     IErMin= 3 ErrMin= 1.26D-05
 ErrMax= 1.26D-05 EMaxC= 1.00D-01 BMatC= 3.19D-07 BMatP= 4.08D-07
 IDIUse=1 WtCom= 1.00D+00 WtEn= 0.00D+00
 Coeff-Com: -0.235D-01 0.468D+00 0.555D+00
 Coeff:     -0.235D-01 0.468D+00 0.555D+00
 Gap=     0.251 Goal=   None    Shift=    0.000
 Gap=     0.138 Goal=   None    Shift=    0.000
 RMSDP=9.94D-07 MaxDP=3.74D-05 DE=-7.21D-08 OVMax= 1.81D-04

 Cycle  13  Pass 1  IDiag  1:
 E= -504.807287531910     Delta-E=       -0.000000076805 Rises=F Damp=F
 DIIS: error= 6.98D-06 at cycle   4 NSaved=   4.
 NSaved= 4 IEnMin= 4 EnMin= -504.807287531910     IErMin= 4 ErrMin= 6.98D-06
 ErrMax= 6.98D-06 EMaxC= 1.00D-01 BMatC= 3.53D-08 BMatP= 3.19D-07
 IDIUse=1 WtCom= 1.00D+00 WtEn= 0.00D+00
 Coeff-Com: -0.314D-01 0.187D+00 0.298D+00 0.546D+00
 Coeff:     -0.314D-01 0.187D+00 0.298D+00 0.546D+00
 Gap=     0.251 Goal=   None    Shift=    0.000
 Gap=     0.138 Goal=   None    Shift=    0.000
 RMSDP=4.44D-07 MaxDP=2.37D-05 DE=-7.68D-08 OVMax= 1.43D-04

 Cycle  14  Pass 1  IDiag  1:
 E= -504.807287544524     Delta-E=       -0.000000012614 Rises=F Damp=F
 DIIS: error= 2.50D-06 at cycle   5 NSaved=   5.
 NSaved= 5 IEnMin= 5 EnMin= -504.807287544524     IErMin= 5 ErrMin= 2.50D-06
 ErrMax= 2.50D-06 EMaxC= 1.00D-01 BMatC= 7.51D-09 BMatP= 3.53D-08
 IDIUse=1 WtCom= 1.00D+00 WtEn= 0.00D+00
 Coeff-Com: -0.222D-02-0.970D-01-0.111D+00 0.221D+00 0.989D+00
 Coeff:     -0.222D-02-0.970D-01-0.111D+00 0.221D+00 0.989D+00
 Gap=     0.251 Goal=   None    Shift=    0.000
 Gap=     0.138 Goal=   None    Shift=    0.000
 RMSDP=3.97D-07 MaxDP=2.05D-05 DE=-1.26D-08 OVMax= 1.11D-04

 Cycle  15  Pass 1  IDiag  1:
 E= -504.807287550222     Delta-E=       -0.000000005698 Rises=F Damp=F
 DIIS: error= 1.27D-06 at cycle   6 NSaved=   6.
 NSaved= 6 IEnMin= 6 EnMin= -504.807287550222     IErMin= 6 ErrMin= 1.27D-06
 ErrMax= 1.27D-06 EMaxC= 1.00D-01 BMatC= 2.31D-09 BMatP= 7.51D-09
 IDIUse=1 WtCom= 1.00D+00 WtEn= 0.00D+00
 Coeff-Com:  0.777D-02-0.118D+00-0.164D+00-0.139D-01 0.606D+00 0.681D+00
 Coeff:      0.777D-02-0.118D+00-0.164D+00-0.139D-01 0.606D+00 0.681D+00
 Gap=     0.251 Goal=   None    Shift=    0.000
 Gap=     0.138 Goal=   None    Shift=    0.000
 RMSDP=2.04D-07 MaxDP=1.15D-05 DE=-5.70D-09 OVMax= 7.53D-05

 Cycle  16  Pass 1  IDiag  1:
 E= -504.807287551572     Delta-E=       -0.000000001350 Rises=F Damp=F
 DIIS: error= 3.73D-07 at cycle   7 NSaved=   7.
 NSaved= 7 IEnMin= 7 EnMin= -504.807287551572     IErMin= 7 ErrMin= 3.73D-07
 ErrMax= 3.73D-07 EMaxC= 1.00D-01 BMatC= 1.94D-10 BMatP= 2.31D-09
 IDIUse=1 WtCom= 1.00D+00 WtEn= 0.00D+00
 Coeff-Com:  0.381D-02-0.486D-01-0.704D-01-0.199D-01 0.201D+00 0.312D+00
 Coeff-Com:  0.622D+00
 Coeff:      0.381D-02-0.486D-01-0.704D-01-0.199D-01 0.201D+00 0.312D+00
 Coeff:      0.622D+00
 Gap=     0.251 Goal=   None    Shift=    0.000
 Gap=     0.138 Goal=   None    Shift=    0.000
 RMSDP=3.84D-08 MaxDP=2.30D-06 DE=-1.35D-09 OVMax= 1.03D-05

 Cycle  17  Pass 1  IDiag  1:
 E= -504.807287551611     Delta-E=       -0.000000000039 Rises=F Damp=F
 DIIS: error= 3.12D-07 at cycle   8 NSaved=   8.
 NSaved= 8 IEnMin= 8 EnMin= -504.807287551611     IErMin= 8 ErrMin= 3.12D-07
 ErrMax= 3.12D-07 EMaxC= 1.00D-01 BMatC= 1.07D-10 BMatP= 1.94D-10
 IDIUse=1 WtCom= 1.00D+00 WtEn= 0.00D+00
 Coeff-Com:  0.939D-03-0.810D-02-0.135D-01-0.872D-02 0.334D-02 0.674D-01
 Coeff-Com:  0.452D+00 0.506D+00
 Coeff:      0.939D-03-0.810D-02-0.135D-01-0.872D-02 0.334D-02 0.674D-01
 Coeff:      0.452D+00 0.506D+00
 Gap=     0.251 Goal=   None    Shift=    0.000
 Gap=     0.138 Goal=   None    Shift=    0.000
 RMSDP=1.67D-08 MaxDP=9.74D-07 DE=-3.93D-11 OVMax= 4.55D-06

 Cycle  18  Pass 1  IDiag  1:
 E= -504.807287551637     Delta-E=       -0.000000000026 Rises=F Damp=F
 DIIS: error= 6.05D-08 at cycle   9 NSaved=   9.
 NSaved= 9 IEnMin= 9 EnMin= -504.807287551637     IErMin= 9 ErrMin= 6.05D-08
 ErrMax= 6.05D-08 EMaxC= 1.00D-01 BMatC= 5.96D-12 BMatP= 1.07D-10
 IDIUse=1 WtCom= 1.00D+00 WtEn= 0.00D+00
 Coeff-Com:  0.167D-04 0.173D-02 0.150D-02-0.111D-02-0.225D-01-0.217D-02
 Coeff-Com:  0.134D+00 0.248D+00 0.641D+00
 Coeff:      0.167D-04 0.173D-02 0.150D-02-0.111D-02-0.225D-01-0.217D-02
 Coeff:      0.134D+00 0.248D+00 0.641D+00
 Gap=     0.251 Goal=   None    Shift=    0.000
 Gap=     0.138 Goal=   None    Shift=    0.000
 RMSDP=4.75D-09 MaxDP=1.91D-07 DE=-2.57D-11 OVMax= 1.27D-06

 SCF Done:  E(UB3LYP) =  -504.807287552     A.U. after   18 cycles
             Convg  =    0.4748D-08             -V/T =  2.0043
 <Sx>= 0.0000 <Sy>= 0.0000 <Sz>= 0.5000 <S**2>= 0.7567 S= 0.5034
 <L.S>= 0.000000000000E+00
 KE= 5.026498379448D+02 PE=-2.592151780673D+03 EE= 8.766445645375D+02
 Annihilation of the first spin contaminant:
 S**2 before annihilation     0.7567,   after     0.7500
 Leave Link  502 at Wed Feb 19 11:24:37 2014, MaxMem= 4026531840 cpu:     922.7
 (Enter /usr/caen/gaussian-09revc/g09/l801.exe)
 Range of M.O.s used for correlation:     1   312
 NBasis=   312 NAE=    45 NBE=    44 NFC=     0 NFV=     0
 NROrb=    312 NOA=    45 NOB=    44 NVA=   267 NVB=   268
 Leave Link  801 at Wed Feb 19 11:24:39 2014, MaxMem= 4026531840 cpu:       0.3
 (Enter /usr/caen/gaussian-09revc/g09/l1101.exe)
 Using compressed storage, NAtomX=    30.
 Will process  31 centers per pass.
 Leave Link 1101 at Wed Feb 19 11:24:40 2014, MaxMem= 4026531840 cpu:       4.5
 (Enter /usr/caen/gaussian-09revc/g09/l1102.exe)
 Symmetrizing basis deriv contribution to polar:
 IMax=3 JMax=2 DiffMx= 0.00D+00
 Leave Link 1102 at Wed Feb 19 11:24:41 2014, MaxMem= 4026531840 cpu:       1.3
 (Enter /usr/caen/gaussian-09revc/g09/l1110.exe)
 Forming Gx(P) for the SCF density, NAtomX=    30.
 Integral derivatives from FoFDir/FoFCou, PRISM(SPDF).
 Do as many integral derivatives as possible in FoFDir.
 G2DrvN: MDV=    4026531496.
 G2DrvN: will do    31 centers at a time, making    1 passes doing MaxLOS=2.
 Calling FoFCou, ICntrl=  3107 FMM=F I1Cent=   0 AccDes= 0.00D+00.
 FoFCou: FMM=F IPFlag=           0 FMFlag=      100000 FMFlg1=           0
         NFxFlg=           0 DoJE=F BraDBF=F KetDBF=F FulRan=T
         Omega=  0.000000  0.000000  1.000000  0.000000  0.000000 ICntrl=    3107 IOpCl=  1
         NMat0=    1 NMatS0=    1 NMatT0=    0 NMatD0=    1 NMtDS0=    0 NMtDT0=    0
         I1Cent=           0 NGrid=           0.
 Symmetry not used in FoFCou.
 FoFDir/FoFCou used for L=0 through L=2.
 End of G2Drv Frequency-dependent properties file   721 does not exist.
 End of G2Drv Frequency-dependent properties file   722 does not exist.
 Leave Link 1110 at Wed Feb 19 11:27:30 2014, MaxMem= 4026531840 cpu:    1350.2
 (Enter /usr/caen/gaussian-09revc/g09/l1002.exe)
 Minotr:  UHF open shell wavefunction.
          IDoAtm=111111111111111111111111111111
          Direct CPHF calculation.
          Differentiating once with respect to nuclear coordinates.
          Requested convergence is 1.0D-06 RMS, and 1.0D-05 maximum.
          Secondary convergence is 1.0D-12 RMS, and 1.0D-12 maximum.
          NewPWx=T KeepS1=F KeepF1=F KeepIn=T MapXYZ=F SortEE=F KeepMc=T.
          MDV=    4026531536 using IRadAn=       2.
 Generate precomputed XC quadrature information.
          Keep R1 and R2 ints in memory in canonical form, NReq=2738891850.
 Symmetry not used in FoFDir.
 MinBra= 0 MaxBra= 2 Meth= 1.
 IRaf=       0 NMat=   1 IRICut=       1 DoRegI=T DoRafI=F ISym2E= 0 JSym2E=0.
          Solving linear equations simultaneously, MaxMat=       0.
          There are    93 degrees of freedom in the 1st order CPHF.  IDoFFX=5.
     87 vectors produced by pass  0 Test12= 2.56D-10 1.08D-07 XBig12= 2.20D-01 2.38D-01.
 AX will form    87 AO Fock derivatives at one time.
     87 vectors produced by pass  1 Test12= 2.56D-10 1.08D-07 XBig12= 1.15D-02 1.63D-02.
     87 vectors produced by pass  2 Test12= 2.56D-10 1.08D-07 XBig12= 6.24D-05 8.80D-04.
     87 vectors produced by pass  3 Test12= 2.56D-10 1.08D-07 XBig12= 3.07D-07 4.54D-05.
     75 vectors produced by pass  4 Test12= 2.56D-10 1.08D-07 XBig12= 1.47D-09 2.83D-06.
      6 vectors produced by pass  5 Test12= 2.56D-10 1.08D-07 XBig12= 5.14D-12 1.49D-07.
 Inverted reduced A of dimension   429 with in-core refinement.
 End of Minotr Frequency-dependent properties file   721 does not exist.
 End of Minotr Frequency-dependent properties file   722 does not exist.
 Leave Link 1002 at Wed Feb 19 11:31:28 2014, MaxMem= 4026531840 cpu:    1890.1
 (Enter /usr/caen/gaussian-09revc/g09/l601.exe)
 Copying SCF densities to generalized density rwf, IOpCl= 1 IROHF=0.

 **********************************************************************

            Population analysis using the SCF density.

 **********************************************************************

 Orbital symmetries:
 Alpha Orbitals:
       Occupied  (A) (A) (A) (A) (A) (A) (A) (A) (A) (A) (A) (A)
                 (A) (A) (A) (A) (A) (A) (A) (A) (A) (A) (A) (A)
                 (A) (A) (A) (A) (A) (A) (A) (A) (A) (A) (A) (A)
                 (A) (A) (A) (A) (A) (A) (A) (A) (A)
       Virtual   (A) (A) (A) (A) (A) (A) (A) (A) (A) (A) (A) (A)
                 (A) (A) (A) (A) (A) (A) (A) (A) (A) (A) (A) (A)
                 (A) (A) (A) (A) (A) (A) (A) (A) (A) (A) (A) (A)
                 (A) (A) (A) (A) (A) (A) (A) (A) (A) (A) (A) (A)
                 (A) (A) (A) (A) (A) (A) (A) (A) (A) (A) (A) (A)
                 (A) (A) (A) (A) (A) (A) (A) (A) (A) (A) (A) (A)
                 (A) (A) (A) (A) (A) (A) (A) (A) (A) (A) (A) (A)
                 (A) (A) (A) (A) (A) (A) (A) (A) (A) (A) (A) (A)
                 (A) (A) (A) (A) (A) (A) (A) (A) (A) (A) (A) (A)
                 (A) (A) (A) (A) (A) (A) (A) (A) (A) (A) (A) (A)
                 (A) (A) (A) (A) (A) (A) (A) (A) (A) (A) (A) (A)
                 (A) (A) (A) (A) (A) (A) (A) (A) (A) (A) (A) (A)
                 (A) (A) (A) (A) (A) (A) (A) (A) (A) (A) (A) (A)
                 (A) (A) (A) (A) (A) (A) (A) (A) (A) (A) (A) (A)
                 (A) (A) (A) (A) (A) (A) (A) (A) (A) (A) (A) (A)
                 (A) (A) (A) (A) (A) (A) (A) (A) (A) (A) (A) (A)
                 (A) (A) (A) (A) (A) (A) (A) (A) (A) (A) (A) (A)
                 (A) (A) (A) (A) (A) (A) (A) (A) (A) (A) (A) (A)
                 (A) (A) (A) (A) (A) (A) (A) (A) (A) (A) (A) (A)
                 (A) (A) (A) (A) (A) (A) (A) (A) (A) (A) (A) (A)
                 (A) (A) (A) (A) (A) (A) (A) (A) (A) (A) (A) (A)
                 (A) (A) (A) (A) (A) (A) (A) (A) (A) (A) (A) (A)
                 (A) (A) (A)
 Beta  Orbitals:
       Occupied  (A) (A) (A) (A) (A) (A) (A) (A) (A) (A) (A) (A)
                 (A) (A) (A) (A) (A) (A) (A) (A) (A) (A) (A) (A)
                 (A) (A) (A) (A) (A) (A) (A) (A) (A) (A) (A) (A)
                 (A) (A) (A) (A) (A) (A) (A) (A)
       Virtual   (A) (A) (A) (A) (A) (A) (A) (A) (A) (A) (A) (A)
                 (A) (A) (A) (A) (A) (A) (A) (A) (A) (A) (A) (A)
                 (A) (A) (A) (A) (A) (A) (A) (A) (A) (A) (A) (A)
                 (A) (A) (A) (A) (A) (A) (A) (A) (A) (A) (A) (A)
                 (A) (A) (A) (A) (A) (A) (A) (A) (A) (A) (A) (A)
                 (A) (A) (A) (A) (A) (A) (A) (A) (A) (A) (A) (A)
                 (A) (A) (A) (A) (A) (A) (A) (A) (A) (A) (A) (A)
                 (A) (A) (A) (A) (A) (A) (A) (A) (A) (A) (A) (A)
                 (A) (A) (A) (A) (A) (A) (A) (A) (A) (A) (A) (A)
                 (A) (A) (A) (A) (A) (A) (A) (A) (A) (A) (A) (A)
                 (A) (A) (A) (A) (A) (A) (A) (A) (A) (A) (A) (A)
                 (A) (A) (A) (A) (A) (A) (A) (A) (A) (A) (A) (A)
                 (A) (A) (A) (A) (A) (A) (A) (A) (A) (A) (A) (A)
                 (A) (A) (A) (A) (A) (A) (A) (A) (A) (A) (A) (A)
                 (A) (A) (A) (A) (A) (A) (A) (A) (A) (A) (A) (A)
                 (A) (A) (A) (A) (A) (A) (A) (A) (A) (A) (A) (A)
                 (A) (A) (A) (A) (A) (A) (A) (A) (A) (A) (A) (A)
                 (A) (A) (A) (A) (A) (A) (A) (A) (A) (A) (A) (A)
                 (A) (A) (A) (A) (A) (A) (A) (A) (A) (A) (A) (A)
                 (A) (A) (A) (A) (A) (A) (A) (A) (A) (A) (A) (A)
                 (A) (A) (A) (A) (A) (A) (A) (A) (A) (A) (A) (A)
                 (A) (A) (A) (A) (A) (A) (A) (A) (A) (A) (A) (A)
                 (A) (A) (A) (A)
 The electronic state is 2-A.
 Alpha  occ. eigenvalues --  -19.17278 -19.16594 -10.22814 -10.18903 -10.18536
 Alpha  occ. eigenvalues --  -10.18112 -10.17793 -10.17332 -10.16703 -10.16619
 Alpha  occ. eigenvalues --  -10.15547  -1.12085  -0.89215  -0.82516  -0.79673
 Alpha  occ. eigenvalues --   -0.75533  -0.69920  -0.68854  -0.68022  -0.61910
 Alpha  occ. eigenvalues --   -0.57820  -0.56451  -0.50869  -0.48763  -0.48093
 Alpha  occ. eigenvalues --   -0.46070  -0.45297  -0.44598  -0.43728  -0.42553
 Alpha  occ. eigenvalues --   -0.40933  -0.39956  -0.39486  -0.38929  -0.37784
 Alpha  occ. eigenvalues --   -0.37393  -0.36145  -0.34769  -0.34216  -0.32815
 Alpha  occ. eigenvalues --   -0.32716  -0.32176  -0.29487  -0.26423  -0.22463
 Alpha virt. eigenvalues --    0.02665   0.04360   0.04753   0.05317   0.06640
 Alpha virt. eigenvalues --    0.07840   0.08768   0.09204   0.09645   0.10169
 Alpha virt. eigenvalues --    0.11288   0.11753   0.12761   0.13343   0.14018
 Alpha virt. eigenvalues --    0.14598   0.14919   0.16982   0.17194   0.18399
 Alpha virt. eigenvalues --    0.18902   0.19343   0.21292   0.21836   0.22978
 Alpha virt. eigenvalues --    0.23283   0.24408   0.26759   0.28070   0.29517
 Alpha virt. eigenvalues --    0.29743   0.30601   0.30947   0.33434   0.34849
 Alpha virt. eigenvalues --    0.36657   0.38530   0.38972   0.40121   0.40445
 Alpha virt. eigenvalues --    0.41666   0.43368   0.44536   0.45971   0.48653
 Alpha virt. eigenvalues --    0.49244   0.50474   0.51508   0.52046   0.53121
 Alpha virt. eigenvalues --    0.54954   0.55832   0.56378   0.57072   0.57587
 Alpha virt. eigenvalues --    0.58072   0.58585   0.59119   0.59887   0.59986
 Alpha virt. eigenvalues --    0.60379   0.61465   0.61621   0.62130   0.62479
 Alpha virt. eigenvalues --    0.63707   0.64190   0.64406   0.65838   0.66665
 Alpha virt. eigenvalues --    0.68054   0.68940   0.69904   0.72336   0.73731
 Alpha virt. eigenvalues --    0.75126   0.78213   0.82610   0.83343   0.86817
 Alpha virt. eigenvalues --    0.91143   0.92913   0.93787   0.95344   0.98801
 Alpha virt. eigenvalues --    0.99713   1.03103   1.04371   1.07347   1.07358
 Alpha virt. eigenvalues --    1.10034   1.11989   1.14301   1.15454   1.18827
 Alpha virt. eigenvalues --    1.19917   1.21877   1.23535   1.27251   1.28025
 Alpha virt. eigenvalues --    1.32107   1.33987   1.35697   1.38003   1.39922
 Alpha virt. eigenvalues --    1.42553   1.43429   1.44473   1.44730   1.46093
 Alpha virt. eigenvalues --    1.47348   1.47372   1.48440   1.49700   1.51183
 Alpha virt. eigenvalues --    1.51655   1.52267   1.52983   1.54315   1.54750
 Alpha virt. eigenvalues --    1.56264   1.56815   1.58034   1.58943   1.60512
 Alpha virt. eigenvalues --    1.61261   1.62004   1.63273   1.64948   1.65670
 Alpha virt. eigenvalues --    1.66734   1.67331   1.68686   1.70541   1.70754
 Alpha virt. eigenvalues --    1.72240   1.74422   1.75595   1.76619   1.77558
 Alpha virt. eigenvalues --    1.78099   1.79395   1.79553   1.80487   1.82108
 Alpha virt. eigenvalues --    1.84741   1.86783   1.88452   1.93459   1.94654
 Alpha virt. eigenvalues --    1.96573   1.99475   2.00253   2.00867   2.02260
 Alpha virt. eigenvalues --    2.04917   2.06401   2.08325   2.09810   2.11683
 Alpha virt. eigenvalues --    2.11917   2.12979   2.14040   2.18529   2.19795
 Alpha virt. eigenvalues --    2.22078   2.24267   2.24831   2.25596   2.26509
 Alpha virt. eigenvalues --    2.29899   2.32087   2.33383   2.36347   2.37346
 Alpha virt. eigenvalues --    2.38309   2.40177   2.41764   2.43321   2.43578
 Alpha virt. eigenvalues --    2.44367   2.45597   2.47618   2.48686   2.50611
 Alpha virt. eigenvalues --    2.50785   2.51532   2.52213   2.53602   2.54335
 Alpha virt. eigenvalues --    2.57255   2.57854   2.59372   2.60044   2.61518
 Alpha virt. eigenvalues --    2.62352   2.62759   2.63148   2.65058   2.66097
 Alpha virt. eigenvalues --    2.67536   2.68675   2.69462   2.71103   2.74310
 Alpha virt. eigenvalues --    2.75530   2.77068   2.79641   2.81060   2.83547
 Alpha virt. eigenvalues --    2.84584   2.86150   2.89847   2.91794   2.94490
 Alpha virt. eigenvalues --    2.95879   2.97830   3.01184   3.04751   3.08341
 Alpha virt. eigenvalues --    3.13064   3.13983   3.16542   3.22404   3.25625
 Alpha virt. eigenvalues --    3.30731   3.32543   3.35340   3.41635   3.47253
 Alpha virt. eigenvalues --    3.71430   3.72785   3.74507   3.77531   3.78157
 Alpha virt. eigenvalues --    3.80152   3.80724   3.81487   3.81727   3.84615
 Alpha virt. eigenvalues --    3.88451   3.94051   3.97292   4.00010   4.04322
 Alpha virt. eigenvalues --    4.14933   4.26127   4.27727   4.28674   4.41090
 Alpha virt. eigenvalues --    4.76761   4.92892   4.95357   5.22905   5.30334
 Alpha virt. eigenvalues --    5.84692  23.73102  23.79783  23.81248  23.82172
 Alpha virt. eigenvalues --   23.86988  23.88501  23.92841  23.93797  23.94397
 Alpha virt. eigenvalues --   49.82171  49.85966
  Beta  occ. eigenvalues --  -19.17063 -19.15542 -10.22820 -10.18932 -10.18097
  Beta  occ. eigenvalues --  -10.17793 -10.17560 -10.17270 -10.16667 -10.16618
  Beta  occ. eigenvalues --  -10.15548  -1.10876  -0.87817  -0.82058  -0.79370
  Beta  occ. eigenvalues --   -0.75290  -0.69003  -0.68223  -0.67840  -0.61484
  Beta  occ. eigenvalues --   -0.57547  -0.55785  -0.50133  -0.48309  -0.47718
  Beta  occ. eigenvalues --   -0.45730  -0.44858  -0.44150  -0.42948  -0.41615
  Beta  occ. eigenvalues --   -0.40766  -0.39823  -0.38991  -0.38896  -0.37425
  Beta  occ. eigenvalues --   -0.36976  -0.35738  -0.34578  -0.34049  -0.32613
  Beta  occ. eigenvalues --   -0.32376  -0.31875  -0.27881  -0.24965
  Beta virt. eigenvalues --   -0.11212   0.02740   0.04707   0.05129   0.05442
  Beta virt. eigenvalues --    0.06759   0.07966   0.08853   0.09280   0.09824
  Beta virt. eigenvalues --    0.10238   0.11345   0.11836   0.12926   0.13407
  Beta virt. eigenvalues --    0.14122   0.14613   0.15014   0.17063   0.17509
  Beta virt. eigenvalues --    0.18523   0.19113   0.19394   0.21419   0.22202
  Beta virt. eigenvalues --    0.23107   0.23380   0.24882   0.27361   0.28214
  Beta virt. eigenvalues --    0.29717   0.29889   0.30950   0.31185   0.33565
  Beta virt. eigenvalues --    0.34925   0.36859   0.38791   0.39276   0.40209
  Beta virt. eigenvalues --    0.40742   0.41803   0.43546   0.44594   0.46106
  Beta virt. eigenvalues --    0.48824   0.49766   0.51607   0.51670   0.52190
  Beta virt. eigenvalues --    0.53607   0.55140   0.56133   0.56535   0.57425
  Beta virt. eigenvalues --    0.57721   0.58186   0.58784   0.59283   0.60050
  Beta virt. eigenvalues --    0.60247   0.60441   0.61702   0.61973   0.62273
  Beta virt. eigenvalues --    0.62582   0.63829   0.64312   0.64480   0.66003
  Beta virt. eigenvalues --    0.66975   0.68170   0.69073   0.70034   0.72490
  Beta virt. eigenvalues --    0.73858   0.75492   0.78665   0.82806   0.84321
  Beta virt. eigenvalues --    0.87100   0.91536   0.93078   0.94323   0.95521
  Beta virt. eigenvalues --    0.99026   1.00063   1.03403   1.04514   1.07422
  Beta virt. eigenvalues --    1.07791   1.10308   1.12203   1.14494   1.15705
  Beta virt. eigenvalues --    1.19237   1.20329   1.22029   1.23785   1.27413
  Beta virt. eigenvalues --    1.28255   1.32194   1.34141   1.35781   1.38541
  Beta virt. eigenvalues --    1.40085   1.42774   1.43510   1.44757   1.45136
  Beta virt. eigenvalues --    1.46224   1.47457   1.47537   1.48575   1.49764
  Beta virt. eigenvalues --    1.51308   1.51772   1.52383   1.53108   1.54441
  Beta virt. eigenvalues --    1.55541   1.56347   1.56984   1.58206   1.59173
  Beta virt. eigenvalues --    1.60822   1.61509   1.62144   1.63425   1.65053
  Beta virt. eigenvalues --    1.65793   1.66840   1.67523   1.68932   1.70754
  Beta virt. eigenvalues --    1.71371   1.72340   1.74531   1.75661   1.76672
  Beta virt. eigenvalues --    1.77610   1.78237   1.79497   1.79676   1.80607
  Beta virt. eigenvalues --    1.82257   1.85015   1.86892   1.88551   1.93711
  Beta virt. eigenvalues --    1.95025   1.96870   2.00101   2.00423   2.01440
  Beta virt. eigenvalues --    2.02484   2.05101   2.06475   2.08491   2.10422
  Beta virt. eigenvalues --    2.11864   2.11979   2.13313   2.14382   2.18744
  Beta virt. eigenvalues --    2.20014   2.22446   2.24549   2.25072   2.25753
  Beta virt. eigenvalues --    2.27024   2.30098   2.32264   2.33537   2.36384
  Beta virt. eigenvalues --    2.37529   2.38411   2.40313   2.42068   2.43414
  Beta virt. eigenvalues --    2.43779   2.44440   2.45709   2.47767   2.48819
  Beta virt. eigenvalues --    2.50624   2.50911   2.51561   2.52269   2.53981
  Beta virt. eigenvalues --    2.54682   2.57501   2.57896   2.59531   2.60167
  Beta virt. eigenvalues --    2.61642   2.62576   2.63116   2.63324   2.65238
  Beta virt. eigenvalues --    2.66106   2.67685   2.68794   2.69751   2.71373
  Beta virt. eigenvalues --    2.74425   2.75734   2.77264   2.79860   2.81050
  Beta virt. eigenvalues --    2.83668   2.84712   2.86207   2.90005   2.91923
  Beta virt. eigenvalues --    2.94630   2.96802   2.97922   3.02542   3.05050
  Beta virt. eigenvalues --    3.08740   3.13187   3.14389   3.16859   3.22710
  Beta virt. eigenvalues --    3.26159   3.31616   3.35178   3.35718   3.41916
  Beta virt. eigenvalues --    3.47345   3.71605   3.73730   3.75512   3.77671
  Beta virt. eigenvalues --    3.78201   3.80221   3.80807   3.81617   3.81741
  Beta virt. eigenvalues --    3.85715   3.89544   3.94110   3.97553   4.00340
  Beta virt. eigenvalues --    4.04359   4.15303   4.26583   4.27864   4.28753
  Beta virt. eigenvalues --    4.41211   4.77400   4.93789   4.96130   5.23568
  Beta virt. eigenvalues --    5.33075   5.85488  23.73126  23.79993  23.81480
  Beta virt. eigenvalues --   23.82511  23.86988  23.88822  23.92887  23.93812
  Beta virt. eigenvalues --   23.94405  49.83201  49.86196
          Condensed to atoms (all electrons):
              1          2          3          4          5          6
     1  C    4.886037   0.402081   0.402106   0.400816   0.373069  -0.046082
     2  H    0.402081   0.540830  -0.027290  -0.025072  -0.030623  -0.005143
     3  H    0.402106  -0.027290   0.593728  -0.031980  -0.042035   0.010070
     4  H    0.400816  -0.025072  -0.031980   0.591032  -0.032415  -0.007876
     5  C    0.373069  -0.030623  -0.042035  -0.032415   5.139894   0.392139
     6  H   -0.046082  -0.005143   0.010070  -0.007876   0.392139   0.621284
     7  C    0.006969   0.000557   0.000115  -0.000347  -0.063318  -0.005405
     8  H   -0.000313  -0.000044  -0.000042   0.000028   0.009378  -0.000506
     9  H    0.000034  -0.000096   0.000025  -0.000029  -0.009638   0.000804
    10  C   -0.000209   0.000049   0.000013   0.000013  -0.005237   0.003068
    11  H    0.000020   0.000004   0.000000  -0.000001  -0.000131  -0.000175
    12  H    0.000005   0.000011   0.000001   0.000000  -0.000457   0.000044
    13  C   -0.000078  -0.000081   0.000000  -0.000004   0.003511  -0.003523
    14  H    0.000001   0.000000   0.000000   0.000000  -0.000045   0.000291
    15  C    0.000101   0.000004  -0.000010   0.000007  -0.003050  -0.002881
    16  H    0.000302   0.000004  -0.000021  -0.000012  -0.003097   0.003478
    17  H   -0.000011  -0.000001   0.000000   0.000002   0.000073  -0.000006
    18  H   -0.000001   0.000000   0.000001   0.000000   0.000171   0.000002
    19  C   -0.069054   0.008110  -0.005248  -0.006837   0.342568  -0.041310
    20  H   -0.004921  -0.000170   0.004777  -0.000700  -0.041477   0.010120
    21  H   -0.006658   0.000127  -0.000844   0.004547  -0.028181  -0.006636
    22  H    0.008126  -0.000461  -0.000144   0.000130  -0.032091  -0.008231
    23  C   -0.000024   0.000197  -0.000013   0.000000  -0.002968  -0.000539
    24  H   -0.000016  -0.000007   0.000001   0.000000   0.000113   0.000341
    25  H    0.000339   0.000301  -0.000041   0.000088  -0.002705   0.002628
    26  H   -0.000095   0.000178  -0.000015  -0.000042  -0.000057  -0.001713
    27  C   -0.061794  -0.009889  -0.005994   0.008041   0.350575  -0.042084
    28  H   -0.010022   0.000776   0.005976  -0.000152  -0.064429   0.010472
    29  O   -0.011757   0.015992  -0.000084   0.000129  -0.054496   0.001875
    30  O    0.000135  -0.000631  -0.000019  -0.000006  -0.000027   0.000671
              7          8          9         10         11         12
     1  C    0.006969  -0.000313   0.000034  -0.000209   0.000020   0.000005
     2  H    0.000557  -0.000044  -0.000096   0.000049   0.000004   0.000011
     3  H    0.000115  -0.000042   0.000025   0.000013   0.000000   0.000001
     4  H   -0.000347   0.000028  -0.000029   0.000013  -0.000001   0.000000
     5  C   -0.063318   0.009378  -0.009638  -0.005237  -0.000131  -0.000457
     6  H   -0.005405  -0.000506   0.000804   0.003068  -0.000175   0.000044
     7  C    4.932542   0.404552   0.401307   0.335997  -0.039142  -0.039467
     8  H    0.404552   0.581812  -0.031459  -0.035032   0.000101  -0.013772
     9  H    0.401307  -0.031459   0.602409  -0.037238  -0.014139   0.008639
    10  C    0.335997  -0.035032  -0.037238   5.015630   0.392593   0.408224
    11  H   -0.039142   0.000101  -0.014139   0.392593   0.614269  -0.027490
    12  H   -0.039467  -0.013772   0.008639   0.408224  -0.027490   0.563344
    13  C   -0.052699   0.006981  -0.001608   0.361173  -0.035837  -0.038865
    14  H    0.008246  -0.000346  -0.000368  -0.043898  -0.008085  -0.007534
    15  C   -0.000751  -0.000337   0.002369  -0.070954  -0.008656   0.008759
    16  H    0.003445  -0.000041  -0.001167  -0.005298  -0.000578  -0.000274
    17  H   -0.000329   0.000026  -0.000045   0.008005   0.000006  -0.000480
    18  H   -0.000858  -0.000078   0.000113  -0.004465   0.004343   0.000144
    19  C   -0.005096  -0.000418   0.000041   0.000988   0.000037   0.000052
    20  H   -0.001138  -0.000344   0.001084   0.000158  -0.000014   0.000007
    21  H    0.000298   0.000031   0.000172  -0.000062   0.000001   0.000003
    22  H   -0.000771   0.000079  -0.000936   0.000229   0.000180  -0.000046
    23  C   -0.007782   0.000049  -0.000241  -0.060173   0.010455  -0.003751
    24  H   -0.000401   0.000007   0.000028   0.005008  -0.000432   0.001063
    25  H    0.000900  -0.000027   0.000036   0.003956  -0.000424   0.000031
    26  H    0.004107  -0.000190  -0.000584  -0.013070   0.000154  -0.003027
    27  C    0.365736  -0.031861  -0.037412  -0.046066   0.007085  -0.002769
    28  H   -0.032052  -0.015395   0.000079   0.007590  -0.000223   0.000048
    29  O   -0.033159   0.000939   0.003853  -0.002336  -0.000213   0.000049
    30  O   -0.009599   0.000023   0.000503   0.009179   0.001233   0.013440
             13         14         15         16         17         18
     1  C   -0.000078   0.000001   0.000101   0.000302  -0.000011  -0.000001
     2  H   -0.000081   0.000000   0.000004   0.000004  -0.000001   0.000000
     3  H    0.000000   0.000000  -0.000010  -0.000021   0.000000   0.000001
     4  H   -0.000004   0.000000   0.000007  -0.000012   0.000002   0.000000
     5  C    0.003511  -0.000045  -0.003050  -0.003097   0.000073   0.000171
     6  H   -0.003523   0.000291  -0.002881   0.003478  -0.000006   0.000002
     7  C   -0.052699   0.008246  -0.000751   0.003445  -0.000329  -0.000858
     8  H    0.006981  -0.000346  -0.000337  -0.000041   0.000026  -0.000078
     9  H   -0.001608  -0.000368   0.002369  -0.001167  -0.000045   0.000113
    10  C    0.361173  -0.043898  -0.070954  -0.005298   0.008005  -0.004465
    11  H   -0.035837  -0.008085  -0.008656  -0.000578   0.000006   0.004343
    12  H   -0.038865  -0.007534   0.008759  -0.000274  -0.000480   0.000144
    13  C    5.061131   0.421283   0.358540  -0.036356  -0.032640  -0.034351
    14  H    0.421283   0.603213  -0.041664   0.008918  -0.008074  -0.006548
    15  C    0.358540  -0.041664   4.891580   0.405235   0.400466   0.401207
    16  H   -0.036356   0.008918   0.405235   0.581119  -0.029396  -0.030382
    17  H   -0.032640  -0.008074   0.400466  -0.029396   0.578653  -0.027082
    18  H   -0.034351  -0.006548   0.401207  -0.030382  -0.027082   0.584086
    19  C   -0.000234  -0.000025  -0.000898  -0.001604   0.000097  -0.000039
    20  H   -0.000011   0.000001   0.000008   0.000044  -0.000003  -0.000001
    21  H    0.000006   0.000000   0.000078   0.000276  -0.000007  -0.000013
    22  H   -0.000199   0.000000   0.000188   0.000547  -0.000012   0.000412
    23  C    0.300018  -0.047081  -0.064677  -0.006512  -0.002002   0.008552
    24  H   -0.029126  -0.012692   0.003797  -0.000239   0.000992  -0.000363
    25  H   -0.040977   0.005549  -0.007150   0.001931   0.000686   0.000334
    26  H   -0.004302   0.001724   0.001801   0.000109  -0.000166  -0.000133
    27  C   -0.001271  -0.000249   0.000077  -0.001401   0.000000   0.000159
    28  H   -0.000722   0.000020  -0.000080   0.000013   0.000002  -0.000002
    29  O    0.000478  -0.000032  -0.000033  -0.000053   0.000001  -0.000005
    30  O   -0.013460  -0.000472  -0.000021  -0.000028   0.000019   0.000009
             19         20         21         22         23         24
     1  C   -0.069054  -0.004921  -0.006658   0.008126  -0.000024  -0.000016
     2  H    0.008110  -0.000170   0.000127  -0.000461   0.000197  -0.000007
     3  H   -0.005248   0.004777  -0.000844  -0.000144  -0.000013   0.000001
     4  H   -0.006837  -0.000700   0.004547   0.000130   0.000000   0.000000
     5  C    0.342568  -0.041477  -0.028181  -0.032091  -0.002968   0.000113
     6  H   -0.041310   0.010120  -0.006636  -0.008231  -0.000539   0.000341
     7  C   -0.005096  -0.001138   0.000298  -0.000771  -0.007782  -0.000401
     8  H   -0.000418  -0.000344   0.000031   0.000079   0.000049   0.000007
     9  H    0.000041   0.001084   0.000172  -0.000936  -0.000241   0.000028
    10  C    0.000988   0.000158  -0.000062   0.000229  -0.060173   0.005008
[...]
 0.00063550,-0.00255689,-0.00040713,0.00023688,0.00026791,0.00068795,-0
 .00011099,-0.00000087,-0.00005085,0.01080954,-0.00358945,0.01005835,0.
 00041924,0.00059122,-0.00037272,-0.00025315,-0.00081144,0.00126579,-0.
 00006436,0.00019622,-0.00010361,-0.00000450,-0.00023341,-0.00021758,-0
 .00037487,-0.00062814,0.00003704,-0.00000886,0.00014264,0.00030328,0.0
 0004690,-0.00005928,0.00001729,-0.00002976,0.00009147,-0.00003820,0.00
 001088,0.00004131,-0.00005017,0.10366623,-0.09567036,0.07178689,-0.113
 85215,0.10567446,0.00000167,0.00002816,0.00009134,0.00001446,-0.000026
 53,-0.00005568,0.00005163,0.00001321,-0.00000418,-0.00003704,0.0000244
 6,0.00001340,-0.00006188,-0.00024942,-0.00039393,0.00006927,0.00026715
 ,0.00015309,0.00012906,0.00002761,0.00023412,-0.00002620,-0.00002238,0
 .00001496,0.00010969,0.00003781,-0.00002369,0.00081940,0.00160133,-0.0
 0163493,0.00018882,-0.00019991,-0.00072118,-0.00004828,-0.00029629,-0.
 00024611,-0.01540912,0.00901394,-0.00496482,0.00034106,-0.00026552,0.0
 0072521,0.00114354,-0.00006559,-0.00260032,-0.00015407,0.00006036,-0.0
 0003851,0.00002320,0.00000673,0.00015893,-0.00027975,0.00071544,0.0002
 6379,0.00009405,0.00015748,0.00017542,0.00003535,-0.00007210,0.0000424
 6,-0.00002447,0.00003913,-0.00001228,-0.00000527,-0.00002652,0.0000107
 6,-0.09267557,0.08218711,-0.11057254,0.09735643,-0.08345469,0.11236749
 ,0.00005706,0.00010061,0.00005277,-0.00000701,-0.00007734,-0.00006213,
 0.00004784,-0.00003286,0.00004180,-0.00004364,0.00004714,-0.00000119,-
 0.00114144,0.00062094,-0.00104665,-0.00117285,0.00054196,-0.00082160,0
 .00004890,0.00008390,-0.00015248,0.00003322,0.00000153,0.00007103,0.00
 007359,0.00004200,-0.00001273,-0.00152502,-0.00087608,-0.00016818,0.00
 021746,0.00023626,0.00033621,-0.00011558,0.00005113,-0.00001683,-0.003
 09526,0.00188517,0.00434219,0.00007513,-0.00046135,0.00153007,0.000990
 77,0.00142448,0.00018330,0.00022436,-0.00027721,-0.00005505,-0.0003009
 5,-0.00036384,-0.00016074,0.00010510,-0.00005170,-0.00027143,-0.000211
 78,0.00000726,0.00015900,0.00001213,0.00004883,0.00000791,-0.00003374,
 0.00005608,-0.00003823,0.00003642,0.00000904,-0.00001993,-0.18194131,0
 .07921121,0.11999423,-0.01136988,0.00888883,0.01446777,0.19774405,-0.0
 0007356,0.00012762,-0.00001515,-0.00006784,-0.00009190,-0.00008337,0.0
 0003957,-0.00004526,0.00003067,-0.00002870,0.00002963,0.00000449,0.000
 33192,0.00001359,-0.00033549,0.00097644,0.00001497,0.00038220,0.000146
 25,0.00015804,-0.00020728,0.00000181,0.00000661,0.00005547,0.00004738,
 0.00004286,-0.00000591,-0.00153389,-0.00113518,0.00052161,0.00038827,0
 .00034724,0.00056448,-0.00010376,0.00005330,0.00015927,-0.01202165,0.0
 0618361,0.01112503,-0.00204582,-0.00121305,0.00261412,-0.00131000,0.00
 206108,0.00039885,0.00052004,0.00003710,-0.00005989,-0.00016449,-0.000
 03713,-0.00005407,0.00010752,0.00004200,-0.00019992,-0.00005722,0.0001
 2234,0.00021061,0.00001079,-0.00004539,0.00003064,-0.00001284,0.000065
 84,-0.00003704,-0.00000421,-0.00002430,0.00002499,0.08860670,-0.070388
 65,-0.05148688,0.00844224,-0.00210166,-0.00873818,-0.08609079,0.073630
 97,0.00000693,0.00005719,0.00034753,-0.00003448,-0.00003171,-0.0000585
 1,0.00019461,0.00005388,-0.00001470,-0.00002099,-0.00000548,-0.0000060
 3,-0.00080070,-0.00057723,-0.00116620,-0.00023665,0.00080093,0.0002329
 9,0.00017018,0.00000483,-0.00016015,-0.00014585,0.00000598,0.00003900,
 -0.00000583,0.00003138,-0.00004568,0.00068535,0.00108904,-0.00130085,-
 0.00038845,0.00004740,-0.00066357,-0.00005803,0.00011828,0.00022464,0.
 01516901,-0.00997679,-0.00709852,0.00030445,0.00178903,-0.00242151,-0.
 00012330,-0.00124396,0.00104296,-0.00056182,0.00059027,0.00010831,0.00
 004267,0.00038445,0.00021569,-0.00024293,-0.00022011,0.00016018,0.0002
 1415,0.00037621,0.00035175,0.00011914,-0.00015984,0.00014438,-0.000028
 80,0.00002005,-0.00002834,-0.00003277,-0.00005288,-0.00000043,0.129674
 35,-0.04621450,-0.14295130,-0.01155342,0.00661354,0.01090325,-0.134632
 36,0.05207919,0.14720039,0.00016709,0.00014464,0.00017194,0.00010504,-
 0.00013818,-0.00040412,0.00018072,-0.00003372,-0.00002760,-0.00014399,
 0.00018568,0.00009438,0.00002978,0.00053761,-0.00232737,0.00060507,0.0
 0024966,0.00064368,-0.00078561,0.00103928,-0.00028623,0.00029482,0.000
 08650,0.00023442,0.00034569,0.00015940,-0.00016615,-0.00009747,-0.0024
 7506,-0.00242877,0.00038503,0.00030746,0.00045717,-0.00032162,0.000071
 75,0.00053703,-0.00375910,-0.00841651,-0.00007720,-0.00038992,-0.00133
 359,0.00078808,-0.00204124,0.00038017,0.00194763,0.00014106,0.00005209
 ,-0.00013938,0.00001837,0.00013883,-0.00018687,0.00020040,-0.00081985,
 -0.00015681,-0.00025258,0.00038406,0.00100738,0.00013370,-0.00013589,0
 .00005510,-0.00015437,0.00033355,-0.00015426,0.00005993,0.00008708,-0.
 00014156,0.01427873,0.05630409,0.02634242,-0.00786770,-0.01307891,-0.0
 0896736,-0.00254878,0.00117913,0.00082056,0.03069329,0.00030885,0.0002
 6364,0.00005346,0.00031278,-0.00009112,-0.00043771,0.00005183,-0.00001
 808,-0.00006231,-0.00024416,0.00019892,0.00014628,0.00060068,0.0011123
 9,-0.00337401,-0.00046669,0.00047483,0.00053725,-0.00112491,0.00064933
 ,-0.00037515,0.00040370,0.00010781,0.00019224,0.00045947,0.00030853,-0
 .00035339,-0.00202046,-0.00279549,-0.00210513,0.00050357,0.00042270,0.
 00048278,-0.00029145,0.00012078,-0.00010001,-0.00717608,-0.01369554,0.
 00026949,-0.00011396,-0.00154777,0.00079794,-0.00251733,-0.00019331,0.
 00270310,0.00016632,0.00000461,-0.00024020,0.00013147,0.00026142,-0.00
 018791,0.00024411,-0.00117101,-0.00002769,-0.00053725,0.00043928,0.001
 40920,0.00008338,-0.00006474,-0.00003859,-0.00024351,0.00053929,-0.000
 24342,0.00009395,0.00012092,-0.00020044,0.04551632,0.05190112,0.032622
 74,-0.00029952,-0.00587059,-0.00232392,-0.00774775,-0.01109004,-0.0077
 4891,-0.05955290,-0.00363283,0.00025923,-0.00006308,0.00008762,0.00036
 942,-0.00001584,-0.00040160,0.00004675,0.00004880,-0.00010524,-0.00013
 021,0.00019468,0.00005577,0.00031344,0.00086464,-0.00219989,0.00019316
 ,0.00001843,0.00041108,-0.00166769,0.00066370,-0.00146470,0.00041932,0
 .00007234,0.00036420,0.00064532,0.00013631,0.00008801,-0.00025923,0.00
 125627,-0.00405445,0.00028769,-0.00055684,0.00074106,0.00072152,-0.000
 20725,-0.00126698,0.00178188,0.00177791,0.00260479,0.00021206,-0.00132
 201,0.00008702,-0.00185510,0.00069992,0.00104961,0.00014175,-0.0000113
 8,-0.00015925,0.00012747,-0.00010748,-0.00020990,0.00010574,-0.0004398
 6,-0.00022126,-0.00035214,0.00028454,0.00095825,0.00006371,-0.00005703
 ,-0.00000246,-0.00012510,0.00033929,-0.00019781,0.00009766,0.00020033,
 -0.00018029,0.03984916,0.06252863,0.01295747,-0.00610019,-0.01124648,-
 0.00663782,-0.00740817,-0.01124783,-0.00748383,-0.03268029,-0.03525533
 ,0.01970176,-0.01491945,0.01733337,0.02190146,0.00137605,0.00007809,-0
 .00094429,0.00047833,0.00124460,0.00051435,-0.00395093,-0.00189705,0.0
 0266907,-0.08658849,0.00529051,0.01295738,0.00894802,-0.01543870,-0.01
 532599,-0.13689454,-0.00684061,0.03911935,-0.00639868,-0.00199893,0.00
 363364,0.00671752,0.00232216,-0.00519318,-0.01535072,-0.00840230,0.014
 87216,-0.00311128,0.00136892,-0.00089749,0.00000686,0.00001984,0.00047
 482,0.00136763,-0.00046801,-0.00107652,0.00049680,0.00037462,0.0005512
 4,0.00019179,-0.00039677,0.00028011,0.00007974,0.00010751,-0.00036525,
 0.00013131,0.00010963,0.00009363,-0.00025435,-0.00003606,0.00008399,-0
 .00463330,0.00851384,0.00223034,0.00001389,0.00130162,0.00078573,-0.00
 040230,0.00042948,-0.00004492,-0.00013106,-0.00143480,-0.00010994,0.00
 057808,0.00040014,-0.00061797,-0.00002817,-0.00012836,0.00018363,0.000
 14861,-0.00038774,-0.00016871,-0.00147340,0.00088904,-0.00280600,0.533
 56872,0.00093501,0.01135933,0.00434057,-0.00034882,-0.00094700,0.00173
 911,-0.00082796,0.00023219,0.00006634,-0.00361260,-0.00190588,0.002641
 08,0.00951542,-0.09461198,-0.03903473,0.00365412,-0.00681974,-0.005350
 53,-0.01441957,-0.07726793,0.00922594,0.01601206,0.00632537,-0.0137703
 6,-0.02118226,-0.01029857,0.02044544,-0.00474841,-0.00396504,-0.004402
 22,0.00004511,0.00072330,0.00014914,0.00171614,-0.00006552,-0.00016638
 ,-0.00035639,0.00023092,0.00110201,0.00004528,-0.00055611,0.00026813,-
 0.00144509,0.00029717,0.00090727,0.00039237,-0.00044323,-0.00035715,0.
 00029928,0.00013178,-0.00000846,0.00023878,-0.00042590,-0.00000541,0.0
 1158332,-0.02390942,-0.01156472,-0.00109898,0.00141620,-0.00139634,-0.
 00021428,-0.00166610,0.00155314,-0.00012675,0.00049617,-0.00052784,0.0
 0335169,0.00678286,0.00082050,-0.00023394,-0.00157453,-0.00050897,-0.0
 0079277,-0.00067487,-0.00075647,-0.00416197,-0.00276573,-0.00332163,0.
 02903453,0.38773210,0.01098150,-0.01105542,-0.01545421,0.00006605,0.00
 007977,-0.00014755,-0.00243721,0.00006667,0.00154654,0.00116819,0.0017
 0513,-0.00083185,0.01756667,-0.03579363,-0.11833299,0.00939331,-0.0174
 2917,-0.01829669,0.03053736,0.00400716,-0.10303119,0.02111043,0.010231
 24,-0.01883382,0.00721985,0.00407433,-0.00943280,-0.00326705,-0.003735
 69,0.01501796,-0.00489226,-0.00071447,-0.00046930,-0.00112816,0.000623
 10,-0.00007666,0.00021327,0.00004305,0.00190739,0.00028254,0.00044541,
 -0.00069610,0.00046292,0.00000774,-0.00085291,0.00001557,-0.00014433,-
 0.00001235,0.00002525,-0.00022929,-0.00013801,-0.00000249,0.00057663,-
 0.00003530,-0.00610162,0.00704524,0.01168878,-0.00125109,0.00154907,0.
 00021240,-0.00149163,0.00475061,-0.00185632,0.00065992,0.00068558,-0.0
 0013050,-0.00335440,-0.00532044,-0.00247204,0.00058827,0.00090270,0.00
 031706,0.00080605,0.00032545,-0.00042243,0.00256646,0.00770452,0.00387
 518,0.04068121,0.02910671,0.48657721,0.00150180,0.00061496,0.00085555,
 -0.00013888,-0.00011742,0.00004028,0.00018626,-0.00005571,-0.00047535,
 0.00022426,0.00002446,-0.00009800,0.00548230,0.00344164,0.00662828,0.0
 0010557,0.00149247,0.00173126,-0.02360126,-0.00576690,-0.01316944,0.00
 015099,0.00080423,-0.00014477,0.00046907,-0.00051619,0.00019687,-0.000
 43933,-0.00206531,0.00359427,-0.00140746,0.00004350,-0.00016043,-0.000
 12845,0.00006851,0.00002703,0.00039940,0.00011920,0.00049419,-0.000025
 49,-0.00001318,-0.00013093,-0.00006708,0.00010464,-0.00008272,0.000033
 82,-0.00001943,0.00001129,-0.00000756,-0.00006024,-0.00004773,0.000023
 43,0.00002010,0.00000536,0.00059866,-0.00031914,0.00044319,0.00018675,
 -0.00049265,-0.00008941,0.00012907,-0.00024791,0.00012294,-0.00000700,
 0.00002771,-0.00002194,0.00001892,-0.00012640,-0.00011175,0.00002577,0
 .00005098,-0.00004249,-0.00001783,-0.00000910,-0.00006426,0.00035889,0
 .00030637,0.00042609,-0.17745767,-0.03986510,-0.11491959,0.19655586,-0
 .00066164,0.00071679,0.00121592,0.00008918,0.00009489,-0.00004360,0.00
 070543,0.00033253,0.00005254,-0.00004809,0.00002849,0.00036022,-0.0147
 7046,-0.00678838,-0.01820744,0.00221564,-0.00266710,-0.00301917,-0.008
 29127,-0.00019265,-0.00614196,0.00099446,0.00090266,0.00034238,0.00016
 636,0.00007666,-0.00025064,0.00020057,-0.00011762,0.00170997,-0.000561
 16,0.00006249,-0.00005522,-0.00037077,0.00001849,0.00007761,0.00013732
 ,0.00005849,0.00029914,-0.00001483,0.00007262,-0.00009193,0.00023142,-
 0.00003795,-0.00015913,0.00001262,0.00013111,-0.00003148,-0.00003206,-
 0.00005132,-0.00001539,-0.00008548,0.00010705,-0.00000572,-0.00142088,
 0.00122438,-0.00104246,0.00073135,-0.00028454,0.00073577,0.00021448,0.
 00025808,0.00025923,0.00008070,0.00000842,0.00002148,-0.00066736,-0.00
 145843,-0.00023958,0.00004358,0.00040436,0.00012888,0.00027539,0.00018
 234,0.00021063,0.00150312,0.00040302,0.00108779,-0.04485647,-0.0554309
 0,-0.03834647,0.03598485,0.07255667,-0.00170525,0.00005593,0.00063126,
 -0.00000489,0.00003535,-0.00000215,0.00129742,0.00028474,0.00004505,0.
 00023268,0.00016527,0.00046666,-0.01654917,-0.01073241,-0.01920580,0.0
 0217149,-0.00309556,-0.00224121,0.01741873,0.00234129,0.00866170,0.000
 95735,0.00030786,0.00161477,-0.00092330,-0.00026328,0.00043908,0.00152
 178,0.00149498,-0.00164907,0.00087086,0.00007002,0.00000087,0.00012145
 ,-0.00007939,-0.00003338,0.00011727,-0.00007000,-0.00038204,-0.0000228
 4,-0.00005019,0.00022223,0.00000368,-0.00008830,0.00020030,-0.00002358
 ,0.00013683,-0.00005328,-0.00001371,0.00005463,0.00001571,-0.00006624,
 -0.00008976,0.00003072,-0.00034295,0.00108959,0.00040158,0.00052392,-0
 .00054650,0.00079925,0.00032054,0.00016213,0.00029640,0.00007947,0.000
 08119,0.00004616,0.00040218,0.00086769,0.00002720,-0.00014535,-0.00023
 917,-0.00002794,-0.00003483,-0.00008816,0.00014604,-0.00079628,-0.0005
 7786,-0.00083349,-0.11559925,-0.03681859,-0.14668190,0.12243786,0.0333
 6487,0.16907659,-0.00138030,0.00229259,0.00175040,-0.00110778,0.002164
 65,0.00002013,-0.00013321,0.00000642,-0.00016226,-0.00024176,0.0008998
 0,-0.00030775,-0.00161275,0.01512139,-0.00934595,0.00042932,0.00035644
 ,0.00145536,0.00764787,-0.02227517,0.00989117,0.00114687,0.00001649,0.
 00050927,-0.00385471,-0.00084696,0.00364885,-0.00210101,-0.00130307,-0
 .00249942,0.00042659,0.00041154,0.00070302,-0.00086936,-0.00073362,0.0
 0006405,-0.00072100,-0.00136372,-0.00119807,-0.00016735,-0.00103976,0.
 00056408,-0.00178349,0.00018161,0.00187232,0.00026275,-0.00011812,-0.0
 0020778,0.00014110,0.00033599,-0.00007218,0.00026362,-0.00098126,0.000
 20864,-0.00082456,0.00236891,0.00395908,0.00033327,-0.00056707,0.00029
 609,-0.00009033,0.00143581,-0.00057510,0.00019100,0.00060619,-0.000262
 98,0.01399338,0.02432524,0.00768070,-0.00146620,-0.00449692,-0.0019404
 8,-0.00202746,-0.00315787,-0.00256122,-0.05062964,-0.02295042,-0.02739
 846,-0.09166687,-0.00278413,0.01592474,-0.00282350,0.02709261,-0.01488
 452,0.35098973,-0.00035790,-0.00002675,-0.00009860,0.00092997,-0.00064
 039,-0.00052060,0.00031984,-0.00009517,0.00035734,-0.00005553,-0.00024
 976,0.00015089,0.01112532,-0.03819244,0.01570596,-0.00144891,0.0020512
 6,0.00076442,0.00415515,-0.02332435,0.01339854,-0.00034687,0.00078997,
 -0.00018236,-0.00350412,0.00043981,0.00318399,0.00100297,0.00111037,0.
 00056264,0.00015888,-0.00021085,-0.00042835,-0.00038476,-0.00000983,-0
 .00038483,-0.00033297,0.00115335,0.00045199,0.00000717,0.00059905,-0.0
 0031084,0.00139547,-0.00025477,-0.00108714,-0.00023298,0.00012640,0.00
 024895,-0.00016684,-0.00011132,0.00001387,-0.00009186,0.00064130,-0.00
 010361,0.00271964,-0.00169548,-0.00657773,0.00001538,0.00015431,0.0002
 1352,0.00080878,-0.00198346,0.00129836,-0.00029315,-0.00003527,0.00020
 728,-0.00857751,-0.01180106,-0.00369819,0.00026399,0.00171978,0.000902
 97,0.00175972,0.00204303,0.00146552,0.00021623,0.02082079,0.01508442,-
 0.02475383,-0.12021156,0.04238702,0.00561360,-0.00840579,0.01303172,-0
 .05762722,0.24486937,0.00252501,0.00025391,-0.00059737,0.00055156,-0.0
 0209299,0.00002751,0.00039544,-0.00052514,0.00013291,0.00014287,-0.000
 61206,0.00027337,0.00244170,-0.00445264,0.01245251,-0.00027969,0.00169
 715,0.00170503,-0.00578149,0.02380847,-0.01331238,-0.00106457,-0.00095
 469,0.00067128,0.00477036,0.00059089,-0.00271810,-0.00081333,-0.001431
 06,0.00025009,-0.00014046,0.00031426,0.00047104,-0.00004361,-0.0000555
 0,0.00024229,0.00008084,-0.00025888,0.00008223,-0.00004797,-0.00026853
 ,0.00031081,-0.00025010,0.00001920,0.00033199,0.00004524,0.00002347,-0
 .00008421,0.00002345,0.00005988,0.00005844,0.00001650,-0.00024448,-0.0
 0001190,0.00161897,-0.00141375,-0.00096398,0.00023576,-0.00039375,-0.0
 0008184,0.00007023,-0.00052190,0.00015596,-0.00021857,-0.00015551,0.00
 002478,0.00026830,0.00271748,0.00204497,-0.00042589,-0.00079668,-0.000
 03994,0.00052548,0.00056186,0.00037066,-0.01796866,0.00676335,0.001412
 10,0.02385323,0.03995873,-0.07406550,-0.00605165,0.02273592,-0.0097769
 9,-0.00855522,-0.09467319,0.09920484,-0.00049228,-0.00033124,0.0003463
 3,-0.00074669,0.00043087,0.00022854,-0.00003694,-0.00013421,0.00014817
 ,0.00032674,0.00000013,-0.00029356,-0.00100536,-0.00268883,0.00371484,
 -0.00011828,-0.00017858,-0.00064442,0.00401153,-0.00406225,0.00297907,
 -0.00042645,0.00039666,-0.00108955,-0.00128271,-0.00116118,0.00131503,
 -0.00110032,0.00120744,0.00472690,0.00003766,-0.00196499,-0.00139263,0
 .00085291,-0.00285391,0.00059455,0.00118753,0.00443338,0.00211913,0.00
 030193,0.00141933,-0.00094403,0.00268399,-0.00018938,-0.00324732,-0.00
 024137,0.00004881,0.00031803,-0.00016478,-0.00052897,0.00008454,-0.000
 25621,0.00158434,-0.00018453,0.00067505,-0.00066258,-0.00162156,-0.000
 08924,-0.00001828,0.00005853,0.00043873,-0.00057280,0.00030885,-0.0001
 0855,-0.00009062,0.00028817,-0.04444533,-0.07818790,-0.03696565,0.0032
 1457,0.00877990,0.00464296,0.00573789,0.00627143,0.00425917,0.02246781
 ,0.05521456,0.03472118,-0.01084215,0.01939592,-0.02142407,-0.00032931,
 0.00110139,0.00263548,-0.21232420,0.06768234,0.00407626,0.23207384,-0.
 00034507,-0.00054816,0.00049709,0.00019064,0.00004753,-0.00025513,0.00
 006149,-0.00001062,-0.00001608,0.00008207,0.00015023,-0.00008683,0.000
 97529,-0.00290195,0.00473590,-0.00023866,-0.00032225,-0.00042522,-0.00
 221934,0.00336241,-0.00111823,-0.00023243,0.00001322,0.00019794,0.0010
 8009,0.00027791,-0.00072157,-0.00133108,-0.00189648,0.00370885,-0.0006
 1986,-0.00146118,-0.00040661,-0.00039709,-0.00165847,0.00153836,0.0014
 1960,0.00162973,-0.00151803,0.00001903,0.00011141,-0.00015792,-0.00015
 773,0.00005249,0.00008043,0.00006195,-0.00002640,0.00001730,0.00000211
 ,0.00004954,0.00002971,0.00006391,-0.00009261,0.00009527,0.00039825,-0
 .00094901,-0.00181608,-0.00008257,0.00021579,-0.00006233,0.00005807,-0
 .00066459,0.00023594,0.00000156,0.00000309,-0.00001831,-0.03512918,-0.
 05069324,-0.03196897,0.00060446,0.00345647,0.00103827,0.00148022,0.001
 68526,0.00125004,0.02678623,-0.03521313,-0.02140600,0.03822174,-0.0121
 8739,-0.00354823,0.00095746,-0.00220487,-0.00080494,0.04262963,-0.0692
 7056,0.00934614,-0.07434079,0.16904582,-0.00031129,-0.00001141,-0.0006
 5433,-0.00018338,-0.00029393,0.00074476,0.00004119,0.00001009,0.000089
 02,0.00014886,-0.00039988,0.00014207,-0.00000424,-0.00203119,0.0014309
 6,-0.00010562,-0.00031498,-0.00028837,0.00222521,-0.00144495,0.0023562
 6,0.00024439,0.00000437,0.00013595,-0.00125719,-0.00028124,0.00051960,
 0.00311363,0.00356658,-0.00107043,0.00010661,0.00141474,-0.00029985,-0
 .00002446,0.00217938,-0.00058770,0.00113776,0.00294162,-0.00107644,0.0
 0008838,0.00085971,-0.00035832,0.00123959,-0.00011467,-0.00084850,-0.0
 0011413,0.00000094,0.00009742,-0.00004039,0.00011947,0.00020450,-0.000
 11903,0.00036328,0.00017672,0.00004824,-0.00043918,-0.00080236,0.00010
 357,-0.00000457,0.00011607,0.00014393,-0.00024224,0.00032481,-0.000074
 33,-0.00019038,0.00017493,-0.04068516,-0.06561430,-0.03311055,0.002125
 24,0.00557411,0.00250258,0.00238472,0.00347023,0.00233427,0.03124265,-
 0.00003040,-0.01897493,-0.02173579,0.00566570,-0.00887210,-0.00140401,
 0.00504782,-0.00223434,0.02142350,-0.00136395,-0.01857059,0.00024157,0
 .04155924,0.07639891\\-0.00000008,0.00000298,0.00000129,0.00000130,0.0
 0000755,0.00000874,0.00000100,-0.00000391,0.00000246,-0.00000168,0.000
 00812,-0.00000464,-0.00000033,-0.00000054,-0.00000288,-0.00000106,0.00
 000661,-0.00000413,0.00000214,-0.00001199,0.00000296,0.00000356,-0.000
 01908,0.00000861,-0.00000006,-0.00001548,-0.00000404,0.00000157,-0.000
 00569,0.00000399,0.00000083,-0.00001096,-0.00000066,0.00000331,-0.0000
 0617,0.00001230,-0.00000042,0.00000612,0.00000066,-0.00000019,0.000007
 71,0.00000192,-0.00000304,0.00000752,-0.00001143,-0.00000361,0.0000063
 0,-0.00001355,-0.00000440,0.00001575,-0.00001365,-0.00000368,0.0000020
 4,-0.00001599,-0.00000242,-0.00000690,-0.00001338,-0.00000141,-0.00001
 470,-0.00001193,-0.00000408,-0.00000218,-0.00001864,-0.00000290,-0.000
 00867,-0.00001737,0.00000058,0.00001430,0.00000615,0.00000105,0.000019
 77,0.00001236,-0.00000115,0.00001817,0.00000434,0.00000413,0.00000814,
 0.00001749,0.00000171,-0.00000837,0.00000644,0.00000296,-0.00001461,0.
 00000696,0.00000409,-0.00000205,0.00001688,0.00000227,0.00000020,0.000
 01872\\\@
 Job cpu time:  0 days  9 hours 47 minutes 28.5 seconds.
 File lengths (MBytes):  RWF=  79520 Int=      0 D2E=      0 Chk=     26 Scr=      1
 Normal termination of Gaussian 09 at Thu Feb 20 00:00:24 2014.
