 Entering Gaussian System, Link 0=g09
 Initial command:
 /usr/caen/gaussian-09revc/g09/l1.exe /scratch/avioli_flux/hetanjin/scratch/Gau-26870.inp -scrdir=/scratch/avioli_flux/hetanjin/scratch/
 Entering Link 1 = /usr/caen/gaussian-09revc/g09/l1.exe PID=     26871.
  
 Copyright (c) 1988,1990,1992,1993,1995,1998,2003,2009,2011,
            Gaussian, Inc.  All Rights Reserved.
  
 This is part of the Gaussian(R) 09 program.  It is based on
 the Gaussian(R) 03 system (copyright 2003, Gaussian, Inc.),
 the Gaussian(R) 98 system (copyright 1998, Gaussian, Inc.),
 the Gaussian(R) 94 system (copyright 1995, Gaussian, Inc.),
 the Gaussian 92(TM) system (copyright 1992, Gaussian, Inc.),
 the Gaussian 90(TM) system (copyright 1990, Gaussian, Inc.),
 the Gaussian 88(TM) system (copyright 1988, Gaussian, Inc.),
 the Gaussian 86(TM) system (copyright 1986, Carnegie Mellon
 University), and the Gaussian 82(TM) system (copyright 1983,
 Carnegie Mellon University). Gaussian is a federally registered
 trademark of Gaussian, Inc.
  
 This software contains proprietary and confidential information,
 including trade secrets, belonging to Gaussian, Inc.
  
 This software is provided under written license and may be
 used, copied, transmitted, or stored only in accord with that
 written license.
  
 The following legend is applicable only to US Government
 contracts under FAR:
  
                    RESTRICTED RIGHTS LEGEND
  
 Use, reproduction and disclosure by the US Government is
 subject to restrictions as set forth in subparagraphs (a)
 and (c) of the Commercial Computer Software - Restricted
 Rights clause in FAR 52.227-19.
  
 Gaussian, Inc.
 340 Quinnipiac St., Bldg. 40, Wallingford CT 06492
  
  
 ---------------------------------------------------------------
 Warning -- This program may not be used in any manner that
 competes with the business of Gaussian, Inc. or will provide
 assistance to any competitor of Gaussian, Inc.  The licensee
 of this program is prohibited from giving any competitor of
 Gaussian, Inc. access to this program.  By using this program,
 the user acknowledges that Gaussian, Inc. is engaged in the
 business of creating and licensing software in the field of
 computational chemistry and represents and warrants to the
 licensee that it is not a competitor of Gaussian, Inc. and that
 it will not use this program in any manner prohibited above.
 ---------------------------------------------------------------
  

 Cite this work as:
 Gaussian 09, Revision C.01,
 M. J. Frisch, G. W. Trucks, H. B. Schlegel, G. E. Scuseria, 
 M. A. Robb, J. R. Cheeseman, G. Scalmani, V. Barone, B. Mennucci, 
 G. A. Petersson, H. Nakatsuji, M. Caricato, X. Li, H. P. Hratchian, 
 A. F. Izmaylov, J. Bloino, G. Zheng, J. L. Sonnenberg, M. Hada, 
 M. Ehara, K. Toyota, R. Fukuda, J. Hasegawa, M. Ishida, T. Nakajima, 
 Y. Honda, O. Kitao, H. Nakai, T. Vreven, J. A. Montgomery, Jr., 
 J. E. Peralta, F. Ogliaro, M. Bearpark, J. J. Heyd, E. Brothers, 
 K. N. Kudin, V. N. Staroverov, T. Keith, R. Kobayashi, J. Normand, 
 K. Raghavachari, A. Rendell, J. C. Burant, S. S. Iyengar, J. Tomasi, 
 M. Cossi, N. Rega, J. M. Millam, M. Klene, J. E. Knox, J. B. Cross, 
 V. Bakken, C. Adamo, J. Jaramillo, R. Gomperts, R. E. Stratmann, 
 O. Yazyev, A. J. Austin, R. Cammi, C. Pomelli, J. W. Ochterski, 
 R. L. Martin, K. Morokuma, V. G. Zakrzewski, G. A. Voth, 
 P. Salvador, J. J. Dannenberg, S. Dapprich, A. D. Daniels, 
 O. Farkas, J. B. Foresman, J. V. Ortiz, J. Cioslowski, 
 and D. J. Fox, Gaussian, Inc., Wallingford CT, 2010.
 
 ******************************************
 Gaussian 09:  EM64L-G09RevC.01 23-Sep-2011
                25-Feb-2014 
 ******************************************
 %mem=30GB
 %nprocshared=8
 Will use up to    8 processors via shared memory.
 %chk=TS_3_C9H18_3.chk
 -------------------------------
 #p cbs-qb3 opt=(ts,calcfc) freq
 -------------------------------
 1/5=1,10=4,14=-1,18=20,26=3,38=1/1,3;
 2/9=110,12=2,17=6,18=5,40=1/2;
 3/5=4,6=6,7=700,11=2,16=1,25=1,30=1,71=2,74=-5/1,2,3;
 4//1;
 5/5=2,38=5/2;
 8/6=4,10=90,11=11/1;
 11/6=1,8=1,9=11,15=111,16=1/1,2,10;
 10/6=1,7=6,13=1/2;
 6/7=2,8=2,9=2,10=2,28=1/1;
 7/10=1,18=20,25=1/1,2,3,16;
 1/5=1,10=4,14=-1,18=20/3(2);
 2/9=110/2;
 99//99;
 2/9=110/2;
 3/5=4,6=6,7=700,11=2,16=1,25=1,30=1,71=1,74=-5/1,2,3;
 4/5=5,16=3/1;
 5/5=2,38=5/2;
 7//1,2,3,16;
 1/5=1,14=-1,18=20/3(-5);
 2/9=110/2;
 6/7=2,8=2,9=2,10=2,19=2,28=1/1;
 99/9=1/99;
 Leave Link    1 at Tue Feb 25 19:58:38 2014, MaxMem= 4026531840 cpu:       0.4
 (Enter /usr/caen/gaussian-09revc/g09/l101.exe)
 -------------------------------------
 TS_3_C9H18_3 using cbs to cal. energy
 -------------------------------------
 Charge =  0 Multiplicity = 2
 Symbolic Z-Matrix:
 C                    -3.63931  -0.19268  -0.31752 
 H                    -3.54606  -1.26939  -0.17508 
 H                    -3.75171   0.00045  -1.38984 
 H                    -4.55565   0.14225   0.17622 
 C                    -2.42336   0.55537   0.24457 
 H                    -2.33616   0.33838   1.31621 
 C                     0.11917   0.27289   0.18441 
 H                     0.17298  -0.99444   0.57588 
 H                     0.12149   0.77751   1.15286 
 C                     1.38376   0.4508   -0.65759 
 H                     1.4903    1.51043  -0.92802 
 H                     1.25114  -0.09286  -1.60011 
 C                     2.69556  -0.01623   0.00475 
 H                     2.57272  -1.07034   0.28526 
 C                     3.8546    0.07102  -0.99747 
 H                     4.01708   1.10612  -1.3185 
 H                     4.78784  -0.28812  -0.55433 
 H                     3.65654  -0.52836  -1.891 
 C                    -2.60776   2.08432   0.0926 
 H                    -2.67951   2.36729  -0.96232 
 H                    -3.53058   2.40105   0.58704 
 H                    -1.77551   2.63637   0.53526 
 C                     3.02113   0.77939   1.27696 
 H                     3.12623   1.84687   1.05179 
 H                     3.96286   0.43951   1.71715 
 H                     2.24739   0.67254   2.04139 
 C                    -1.13139   0.15739  -0.41604 
 H                    -1.18188  -0.04762  -1.48339 
 O                    -1.26429  -2.12678  -0.07119 
 O                    -0.1962   -2.23838   0.61813 
 
 NAtoms=     30 NQM=        0 NQMF=       0 NMMI=     30 NMMIF=      0
                NMic=       0 NMicF=      0.
                    Isotopes and Nuclear Properties:
 (Nuclear quadrupole moments (NQMom) in fm**2, nuclear magnetic moments (NMagM)
  in nuclear magnetons)

  Atom         1           2           3           4           5           6           7           8           9          10
 IAtWgt=          12           1           1           1          12           1          12           1           1          12
 AtmWgt=  12.0000000   1.0078250   1.0078250   1.0078250  12.0000000   1.0078250  12.0000000   1.0078250   1.0078250  12.0000000
 NucSpn=           0           1           1           1           0           1           0           1           1           0
 AtZEff=   0.0000000   0.0000000   0.0000000   0.0000000   0.0000000   0.0000000   0.0000000   0.0000000   0.0000000   0.0000000
 NQMom=    0.0000000   0.0000000   0.0000000   0.0000000   0.0000000   0.0000000   0.0000000   0.0000000   0.0000000   0.0000000
 NMagM=    0.0000000   2.7928460   2.7928460   2.7928460   0.0000000   2.7928460   0.0000000   2.7928460   2.7928460   0.0000000

  Atom        11          12          13          14          15          16          17          18          19          20
 IAtWgt=           1           1          12           1          12           1           1           1          12           1
 AtmWgt=   1.0078250   1.0078250  12.0000000   1.0078250  12.0000000   1.0078250   1.0078250   1.0078250  12.0000000   1.0078250
 NucSpn=           1           1           0           1           0           1           1           1           0           1
 AtZEff=   0.0000000   0.0000000   0.0000000   0.0000000   0.0000000   0.0000000   0.0000000   0.0000000   0.0000000   0.0000000
 NQMom=    0.0000000   0.0000000   0.0000000   0.0000000   0.0000000   0.0000000   0.0000000   0.0000000   0.0000000   0.0000000
 NMagM=    2.7928460   2.7928460   0.0000000   2.7928460   0.0000000   2.7928460   2.7928460   2.7928460   0.0000000   2.7928460

  Atom        21          22          23          24          25          26          27          28          29          30
 IAtWgt=           1           1          12           1           1           1          12           1          16          16
 AtmWgt=   1.0078250   1.0078250  12.0000000   1.0078250   1.0078250   1.0078250  12.0000000   1.0078250  15.9949146  15.9949146
 NucSpn=           1           1           0           1           1           1           0           1           0           0
 AtZEff=   0.0000000   0.0000000   0.0000000   0.0000000   0.0000000   0.0000000   0.0000000   0.0000000   0.0000000   0.0000000
 NQMom=    0.0000000   0.0000000   0.0000000   0.0000000   0.0000000   0.0000000   0.0000000   0.0000000   0.0000000   0.0000000
 NMagM=    2.7928460   2.7928460   0.0000000   2.7928460   2.7928460   2.7928460   0.0000000   2.7928460   0.0000000   0.0000000
 Leave Link  101 at Tue Feb 25 19:58:39 2014, MaxMem= 4026531840 cpu:       1.6
 (Enter /usr/caen/gaussian-09revc/g09/l103.exe)

 GradGradGradGradGradGradGradGradGradGradGradGradGradGradGradGradGradGrad
 Berny optimization.
 Initialization pass.
                           ----------------------------
                           !    Initial Parameters    !
                           ! (Angstroms and Degrees)  !
 --------------------------                            --------------------------
 ! Name  Definition              Value          Derivative Info.                !
 --------------------------------------------------------------------------------
 ! R1    R(1,2)                  1.0901         calculate D2E/DX2 analytically  !
 ! R2    R(1,3)                  1.0954         calculate D2E/DX2 analytically  !
 ! R3    R(1,4)                  1.0935         calculate D2E/DX2 analytically  !
 ! R4    R(1,5)                  1.5343         calculate D2E/DX2 analytically  !
 ! R5    R(5,6)                  1.0969         calculate D2E/DX2 analytically  !
 ! R6    R(5,19)                 1.5475         calculate D2E/DX2 analytically  !
 ! R7    R(5,27)                 1.5047         calculate D2E/DX2 analytically  !
 ! R8    R(7,8)                  1.3275         calculate D2E/DX2 analytically  !
 ! R9    R(7,9)                  1.092          calculate D2E/DX2 analytically  !
 ! R10   R(7,10)                 1.5296         calculate D2E/DX2 analytically  !
 ! R11   R(7,27)                 1.392          calculate D2E/DX2 analytically  !
 ! R12   R(8,30)                 1.2983         calculate D2E/DX2 analytically  !
 ! R13   R(10,11)                1.0988         calculate D2E/DX2 analytically  !
 ! R14   R(10,12)                1.0961         calculate D2E/DX2 analytically  !
 ! R15   R(10,13)                1.542          calculate D2E/DX2 analytically  !
 ! R16   R(13,14)                1.0977         calculate D2E/DX2 analytically  !
 ! R17   R(13,15)                1.5347         calculate D2E/DX2 analytically  !
 ! R18   R(13,23)                1.5354         calculate D2E/DX2 analytically  !
 ! R19   R(15,16)                1.0958         calculate D2E/DX2 analytically  !
 ! R20   R(15,17)                1.0938         calculate D2E/DX2 analytically  !
 ! R21   R(15,18)                1.094          calculate D2E/DX2 analytically  !
 ! R22   R(19,20)                1.0946         calculate D2E/DX2 analytically  !
 ! R23   R(19,21)                1.0938         calculate D2E/DX2 analytically  !
 ! R24   R(19,22)                1.0924         calculate D2E/DX2 analytically  !
 ! R25   R(23,24)                1.096          calculate D2E/DX2 analytically  !
 ! R26   R(23,25)                1.0937         calculate D2E/DX2 analytically  !
 ! R27   R(23,26)                1.0929         calculate D2E/DX2 analytically  !
 ! R28   R(27,28)                1.088          calculate D2E/DX2 analytically  !
 ! R29   R(29,30)                1.2761         calculate D2E/DX2 analytically  !
 ! A1    A(2,1,3)              108.1108         calculate D2E/DX2 analytically  !
 ! A2    A(2,1,4)              108.3744         calculate D2E/DX2 analytically  !
 ! A3    A(2,1,5)              111.4634         calculate D2E/DX2 analytically  !
 ! A4    A(3,1,4)              107.5811         calculate D2E/DX2 analytically  !
 ! A5    A(3,1,5)              110.7326         calculate D2E/DX2 analytically  !
 ! A6    A(4,1,5)              110.4492         calculate D2E/DX2 analytically  !
 ! A7    A(1,5,6)              108.9345         calculate D2E/DX2 analytically  !
 ! A8    A(1,5,19)             110.5666         calculate D2E/DX2 analytically  !
 ! A9    A(1,5,27)             112.9975         calculate D2E/DX2 analytically  !
 ! A10   A(6,5,19)             107.5098         calculate D2E/DX2 analytically  !
 ! A11   A(6,5,27)             107.9603         calculate D2E/DX2 analytically  !
 ! A12   A(19,5,27)            108.6948         calculate D2E/DX2 analytically  !
 ! A13   A(8,7,9)              100.3431         calculate D2E/DX2 analytically  !
 ! A14   A(8,7,10)             103.8776         calculate D2E/DX2 analytically  !
 ! A15   A(8,7,27)              94.842          calculate D2E/DX2 analytically  !
 ! A16   A(9,7,10)             115.6365         calculate D2E/DX2 analytically  !
 ! A17   A(9,7,27)             115.0096         calculate D2E/DX2 analytically  !
 ! A18   A(10,7,27)            120.9919         calculate D2E/DX2 analytically  !
 ! A19   A(7,8,30)             155.8953         calculate D2E/DX2 analytically  !
 ! A20   A(7,10,11)            109.1356         calculate D2E/DX2 analytically  !
 ! A21   A(7,10,12)            108.3973         calculate D2E/DX2 analytically  !
 ! A22   A(7,10,13)            115.5726         calculate D2E/DX2 analytically  !
 ! A23   A(11,10,12)           106.1657         calculate D2E/DX2 analytically  !
 ! A24   A(11,10,13)           108.38           calculate D2E/DX2 analytically  !
 ! A25   A(12,10,13)           108.7871         calculate D2E/DX2 analytically  !
 ! A26   A(10,13,14)           107.7832         calculate D2E/DX2 analytically  !
 ! A27   A(10,13,15)           110.1672         calculate D2E/DX2 analytically  !
 ! A28   A(10,13,23)           112.2935         calculate D2E/DX2 analytically  !
 ! A29   A(14,13,15)           107.8171         calculate D2E/DX2 analytically  !
 ! A30   A(14,13,23)           108.0347         calculate D2E/DX2 analytically  !
 ! A31   A(15,13,23)           110.5785         calculate D2E/DX2 analytically  !
 ! A32   A(13,15,16)           110.9141         calculate D2E/DX2 analytically  !
 ! A33   A(13,15,17)           111.1696         calculate D2E/DX2 analytically  !
 ! A34   A(13,15,18)           111.4377         calculate D2E/DX2 analytically  !
 ! A35   A(16,15,17)           107.5977         calculate D2E/DX2 analytically  !
 ! A36   A(16,15,18)           107.7627         calculate D2E/DX2 analytically  !
 ! A37   A(17,15,18)           107.7873         calculate D2E/DX2 analytically  !
 ! A38   A(5,19,20)            110.97           calculate D2E/DX2 analytically  !
 ! A39   A(5,19,21)            110.0135         calculate D2E/DX2 analytically  !
 ! A40   A(5,19,22)            111.6369         calculate D2E/DX2 analytically  !
 ! A41   A(20,19,21)           107.7881         calculate D2E/DX2 analytically  !
 ! A42   A(20,19,22)           108.0486         calculate D2E/DX2 analytically  !
 ! A43   A(21,19,22)           108.2558         calculate D2E/DX2 analytically  !
 ! A44   A(13,23,24)           110.7806         calculate D2E/DX2 analytically  !
 ! A45   A(13,23,25)           110.7954         calculate D2E/DX2 analytically  !
 ! A46   A(13,23,26)           112.2573         calculate D2E/DX2 analytically  !
 ! A47   A(24,23,25)           107.6252         calculate D2E/DX2 analytically  !
 ! A48   A(24,23,26)           107.8671         calculate D2E/DX2 analytically  !
 ! A49   A(25,23,26)           107.3199         calculate D2E/DX2 analytically  !
 ! A50   A(5,27,7)             124.06           calculate D2E/DX2 analytically  !
 ! A51   A(5,27,28)            116.1477         calculate D2E/DX2 analytically  !
 ! A52   A(7,27,28)            118.7158         calculate D2E/DX2 analytically  !
 ! A53   A(8,30,29)             97.8531         calculate D2E/DX2 analytically  !
 ! D1    D(2,1,5,6)            -59.3627         calculate D2E/DX2 analytically  !
 ! D2    D(2,1,5,19)          -177.2964         calculate D2E/DX2 analytically  !
 ! D3    D(2,1,5,27)            60.6202         calculate D2E/DX2 analytically  !
 ! D4    D(3,1,5,6)           -179.7585         calculate D2E/DX2 analytically  !
 ! D5    D(3,1,5,19)            62.3079         calculate D2E/DX2 analytically  !
 ! D6    D(3,1,5,27)           -59.7755         calculate D2E/DX2 analytically  !
 ! D7    D(4,1,5,6)             61.1746         calculate D2E/DX2 analytically  !
 ! D8    D(4,1,5,19)           -56.7591         calculate D2E/DX2 analytically  !
 ! D9    D(4,1,5,27)          -178.8425         calculate D2E/DX2 analytically  !
 ! D10   D(1,5,19,20)          -62.4244         calculate D2E/DX2 analytically  !
 ! D11   D(1,5,19,21)           56.7711         calculate D2E/DX2 analytically  !
 ! D12   D(1,5,19,22)          176.9796         calculate D2E/DX2 analytically  !
 ! D13   D(6,5,19,20)          178.7733         calculate D2E/DX2 analytically  !
 ! D14   D(6,5,19,21)          -62.0312         calculate D2E/DX2 analytically  !
 ! D15   D(6,5,19,22)           58.1773         calculate D2E/DX2 analytically  !
 ! D16   D(27,5,19,20)          62.1513         calculate D2E/DX2 analytically  !
 ! D17   D(27,5,19,21)        -178.6532         calculate D2E/DX2 analytically  !
 ! D18   D(27,5,19,22)         -58.4448         calculate D2E/DX2 analytically  !
 ! D19   D(1,5,27,7)          -155.0842         calculate D2E/DX2 analytically  !
 ! D20   D(1,5,27,28)           36.9676         calculate D2E/DX2 analytically  !
 ! D21   D(6,5,27,7)           -34.5443         calculate D2E/DX2 analytically  !
 ! D22   D(6,5,27,28)          157.5075         calculate D2E/DX2 analytically  !
 ! D23   D(19,5,27,7)           81.7885         calculate D2E/DX2 analytically  !
 ! D24   D(19,5,27,28)         -86.1597         calculate D2E/DX2 analytically  !
 ! D25   D(9,7,8,30)           128.5922         calculate D2E/DX2 analytically  !
 ! D26   D(10,7,8,30)         -111.532          calculate D2E/DX2 analytically  !
 ! D27   D(27,7,8,30)           12.0567         calculate D2E/DX2 analytically  !
 ! D28   D(8,7,10,11)         -173.1843         calculate D2E/DX2 analytically  !
 ! D29   D(8,7,10,12)           71.603          calculate D2E/DX2 analytically  !
 ! D30   D(8,7,10,13)          -50.7693         calculate D2E/DX2 analytically  !
 ! D31   D(9,7,10,11)          -64.2974         calculate D2E/DX2 analytically  !
 ! D32   D(9,7,10,12)         -179.5101         calculate D2E/DX2 analytically  !
 ! D33   D(9,7,10,13)           58.1175         calculate D2E/DX2 analytically  !
 ! D34   D(27,7,10,11)          82.3485         calculate D2E/DX2 analytically  !
 ! D35   D(27,7,10,12)         -32.8642         calculate D2E/DX2 analytically  !
 ! D36   D(27,7,10,13)        -155.2366         calculate D2E/DX2 analytically  !
 ! D37   D(8,7,27,5)            97.6977         calculate D2E/DX2 analytically  !
 ! D38   D(8,7,27,28)          -94.6423         calculate D2E/DX2 analytically  !
 ! D39   D(9,7,27,5)            -6.0913         calculate D2E/DX2 analytically  !
 ! D40   D(9,7,27,28)          161.5687         calculate D2E/DX2 analytically  !
 ! D41   D(10,7,27,5)         -152.9318         calculate D2E/DX2 analytically  !
 ! D42   D(10,7,27,28)          14.7282         calculate D2E/DX2 analytically  !
 ! D43   D(7,8,30,29)           -7.1435         calculate D2E/DX2 analytically  !
 ! D44   D(7,10,13,14)          56.2894         calculate D2E/DX2 analytically  !
 ! D45   D(7,10,13,15)         173.6844         calculate D2E/DX2 analytically  !
 ! D46   D(7,10,13,23)         -62.5854         calculate D2E/DX2 analytically  !
 ! D47   D(11,10,13,14)        179.1054         calculate D2E/DX2 analytically  !
 ! D48   D(11,10,13,15)        -63.4996         calculate D2E/DX2 analytically  !
 ! D49   D(11,10,13,23)         60.2306         calculate D2E/DX2 analytically  !
 ! D50   D(12,10,13,14)        -65.8753         calculate D2E/DX2 analytically  !
 ! D51   D(12,10,13,15)         51.5198         calculate D2E/DX2 analytically  !
 ! D52   D(12,10,13,23)        175.2499         calculate D2E/DX2 analytically  !
 ! D53   D(10,13,15,16)         62.2072         calculate D2E/DX2 analytically  !
 ! D54   D(10,13,15,17)       -178.1185         calculate D2E/DX2 analytically  !
 ! D55   D(10,13,15,18)        -57.8535         calculate D2E/DX2 analytically  !
 ! D56   D(14,13,15,16)        179.5812         calculate D2E/DX2 analytically  !
 ! D57   D(14,13,15,17)        -60.7445         calculate D2E/DX2 analytically  !
 ! D58   D(14,13,15,18)         59.5205         calculate D2E/DX2 analytically  !
 ! D59   D(23,13,15,16)        -62.5129         calculate D2E/DX2 analytically  !
 ! D60   D(23,13,15,17)         57.1614         calculate D2E/DX2 analytically  !
 ! D61   D(23,13,15,18)        177.4264         calculate D2E/DX2 analytically  !
 ! D62   D(10,13,23,24)        -59.7155         calculate D2E/DX2 analytically  !
 ! D63   D(10,13,23,25)       -179.0916         calculate D2E/DX2 analytically  !
 ! D64   D(10,13,23,26)         60.9405         calculate D2E/DX2 analytically  !
 ! D65   D(14,13,23,24)       -178.4425         calculate D2E/DX2 analytically  !
 ! D66   D(14,13,23,25)         62.1814         calculate D2E/DX2 analytically  !
 ! D67   D(14,13,23,26)        -57.7865         calculate D2E/DX2 analytically  !
 ! D68   D(15,13,23,24)         63.7849         calculate D2E/DX2 analytically  !
 ! D69   D(15,13,23,25)        -55.5912         calculate D2E/DX2 analytically  !
 ! D70   D(15,13,23,26)       -175.5591         calculate D2E/DX2 analytically  !
 --------------------------------------------------------------------------------
 Trust Radius=3.00D-01 FncErr=1.00D-07 GrdErr=1.00D-06
 Number of steps in this run=    162 maximum allowed number of steps=    180.
 Search for a saddle point of order  1.
 GradGradGradGradGradGradGradGradGradGradGradGradGradGradGradGradGradGrad

 Leave Link  103 at Tue Feb 25 19:58:39 2014, MaxMem= 4026531840 cpu:       0.1
 (Enter /usr/caen/gaussian-09revc/g09/l202.exe)
                          Input orientation:                          
 ---------------------------------------------------------------------
 Center     Atomic      Atomic             Coordinates (Angstroms)
 Number     Number       Type             X           Y           Z
 ---------------------------------------------------------------------
      1          6           0       -3.639310   -0.192682   -0.317524
      2          1           0       -3.546064   -1.269390   -0.175080
      3          1           0       -3.751707    0.000447   -1.389843
      4          1           0       -4.555647    0.142248    0.176224
      5          6           0       -2.423363    0.555369    0.244569
      6          1           0       -2.336158    0.338381    1.316214
      7          6           0        0.119171    0.272889    0.184408
      8          1           0        0.172984   -0.994439    0.575877
      9          1           0        0.121486    0.777511    1.152856
     10          6           0        1.383761    0.450800   -0.657588
     11          1           0        1.490302    1.510431   -0.928018
     12          1           0        1.251144   -0.092861   -1.600107
     13          6           0        2.695560   -0.016226    0.004747
     14          1           0        2.572718   -1.070337    0.285255
     15          6           0        3.854599    0.071019   -0.997471
     16          1           0        4.017079    1.106118   -1.318495
     17          1           0        4.787841   -0.288121   -0.554326
     18          1           0        3.656544   -0.528356   -1.891002
     19          6           0       -2.607761    2.084315    0.092604
     20          1           0       -2.679510    2.367290   -0.962317
     21          1           0       -3.530582    2.401046    0.587038
     22          1           0       -1.775513    2.636366    0.535256
     23          6           0        3.021126    0.779391    1.276962
     24          1           0        3.126232    1.846871    1.051794
     25          1           0        3.962859    0.439508    1.717152
     26          1           0        2.247388    0.672539    2.041385
     27          6           0       -1.131391    0.157393   -0.416037
     28          1           0       -1.181884   -0.047620   -1.483392
     29          8           0       -1.264287   -2.126776   -0.071192
     30          8           0       -0.196196   -2.238379    0.618132
 ---------------------------------------------------------------------
                    Distance matrix (angstroms):
                    1          2          3          4          5
     1  C    0.000000
     2  H    1.090085   0.000000
     3  H    1.095354   1.769300   0.000000
     4  H    1.093453   1.770704   1.766067   0.000000
     5  C    1.534293   2.183188   2.178013   2.173011   0.000000
     6  H    2.156231   2.504547   3.072576   2.502834   1.096864
     7  C    3.820323   3.992719   4.187623   4.676650   2.558885
     8  H    3.996819   3.804057   4.500784   4.879727   3.041823
     9  H    4.152936   4.405013   4.697954   4.820056   2.711197
    10  C    5.075525   5.243572   5.206923   6.005582   3.913951
    11  H    5.439321   5.801664   5.474668   6.296410   4.195697
    12  H    5.056829   5.140829   5.008137   6.076961   4.162335
    13  C    6.345516   6.368723   6.596394   7.254965   5.156317
    14  H    6.302612   6.139302   6.629546   7.231586   5.254084
    15  C    7.529312   7.565900   7.616746   8.492048   6.417949
    16  H    7.830014   8.009467   7.847397   8.755276   6.650247
    17  H    8.431018   8.400041   8.585176   9.381881   7.304189
    18  H    7.471144   7.441175   7.443989   8.494893   6.534554
    19  C    2.533183   3.492765   2.801565   2.751886   1.547505
    20  H    2.808991   3.820484   2.633312   3.125216   2.192086
    21  H    2.749087   3.748755   3.117664   2.514298   2.179390
    22  H    3.493492   4.346764   3.815681   3.752156   2.198808
    23  C    6.917277   7.030926   7.320510   7.682777   5.546033
    24  H    7.197733   7.465644   7.528407   7.917299   5.754789
    25  H    7.895096   7.929994   8.328308   8.661857   6.554827
    26  H    6.400490   6.499838   6.943643   7.073989   5.005816
    27  C    2.534150   2.815034   2.799819   3.475130   1.504652
    28  H    2.723827   2.965426   2.571974   3.764658   2.211496
    29  O    3.072805   2.439756   3.528622   4.005338   2.938888
    30  O    4.112829   3.576275   4.656819   4.986730   3.592332
                    6          7          8          9         10
     6  H    0.000000
     7  C    2.704425   0.000000
     8  H    2.936035   1.327503   0.000000
     9  H    2.501906   1.092035   1.864233   0.000000
    10  C    4.212639   1.529640   2.253027   2.231095   0.000000
    11  H    4.588254   2.156154   3.204903   2.596318   1.098773
    12  H    4.643235   2.144675   2.590401   3.100400   1.096128
    13  C    5.211898   2.598778   2.765227   2.928144   1.541953
    14  H    5.210031   2.798985   2.418459   3.189955   2.148588
    15  C    6.614385   3.923138   4.143056   4.365681   2.522854
    16  H    6.920602   4.259891   4.772636   4.625063   2.792956
    17  H    7.392076   4.759931   4.803452   5.081822   3.484886
    18  H    6.852003   4.178795   4.293939   4.844274   2.765068
    19  C    2.149250   3.275034   4.176700   3.206347   4.377603
    20  H    3.070190   3.678873   4.669474   3.853172   4.502884
    21  H    2.492576   4.244038   5.024524   4.036535   5.431696
    22  H    2.490974   3.049417   4.120805   2.726789   4.022510
    23  C    5.375549   3.141904   3.427814   2.902295   2.555664
    24  H    5.673021   3.503169   4.125677   3.190963   2.811976
    25  H    6.312574   4.141377   4.209735   3.897284   3.505890
    26  H    4.652572   2.852611   3.038039   2.306504   2.842442
    27  C    2.117761   1.392041   2.002999   2.101350   2.543703
    28  H    3.052726   2.139399   2.640591   3.054410   2.740969
    29  O    3.025029   2.781668   1.940782   3.442898   3.741646
    30  O    3.421469   2.567886   1.298255   3.079358   3.369779
                   11         12         13         14         15
    11  H    0.000000
    12  H    1.754835   0.000000
    13  C    2.157169   2.160502   0.000000
    14  H    3.050249   2.501321   1.097691   0.000000
    15  C    2.768868   2.677313   1.534739   2.142732   0.000000
    16  H    2.588541   3.027747   2.181063   3.065151   1.095849
    17  H    3.774679   3.693238   2.182689   2.494700   1.093755
    18  H    3.126755   2.461752   2.186237   2.490887   1.094017
    19  C    4.262057   4.743049   5.704840   6.068468   6.855926
    20  H    4.257078   4.680722   5.958837   6.399970   6.925942
    21  H    5.319574   5.819629   6.704261   7.027933   7.904467
    22  H    3.751593   4.600990   5.225723   5.719201   6.374043
    23  C    2.782046   3.488723   1.535425   2.146170   2.523790
    24  H    2.590196   3.783001   2.180118   3.066604   2.807785
    25  H    3.775889   4.317525   2.178548   2.502489   2.741657
    26  H    3.176885   3.852117   2.196167   2.495486   3.489928
    27  C    2.994346   2.672288   3.853927   3.964789   5.020520
    28  H    3.142696   2.436246   4.153326   4.274471   5.061260
    29  O    4.642326   3.577958   4.487825   3.995713   5.647237
    30  O    4.391860   3.408610   3.698170   3.023576   4.934818
                   16         17         18         19         20
    16  H    0.000000
    17  H    1.766899   0.000000
    18  H    1.768970   1.767554   0.000000
    19  C    6.843725   7.793709   7.071228   0.000000
    20  H    6.823615   7.935931   7.028001   1.094569   0.000000
    21  H    7.891456   8.816490   8.147199   1.093793   1.768040
    22  H    6.271537   7.267560   6.738652   1.092400   1.769841
    23  C    2.799119   2.759435   3.485678   5.898296   6.327167
    24  H    2.638294   3.146229   3.818767   5.818514   6.167181
    25  H    3.108450   2.523817   3.748248   6.965457   7.417342
    26  H    3.822119   3.756925   4.346440   5.418794   6.014044
    27  C    5.312368   5.937585   5.056688   2.480204   2.752951
    28  H    5.327994   6.046373   4.879307   3.010321   2.888978
    29  O    6.316660   6.343684   5.484636   4.423239   4.795163
    30  O    5.717331   5.478940   4.905460   4.977701   5.465972
                   21         22         23         24         25
    21  H    0.000000
    22  H    1.771532   0.000000
    23  C    6.784588   5.196752   0.000000
    24  H    6.695990   4.991715   1.096021   0.000000
    25  H    7.827927   6.257154   1.093686   1.767291   0.000000
    26  H    6.203854   4.723216   1.092900   1.769382   1.761327
    27  C    3.434568   2.732244   4.527309   4.810012   5.530051
    28  H    3.974799   3.410442   5.095959   5.345664   6.078582
    29  O    5.105931   4.828732   5.350522   6.027240   6.091555
    30  O    5.713437   5.124866   4.460062   5.283546   5.067214
                   26         27         28         29         30
    26  H    0.000000
    27  C    4.209566   0.000000
    28  H    4.970170   1.088038   0.000000
    29  O    4.962964   2.313873   2.514754   0.000000
    30  O    4.058349   2.771970   3.191772   1.276104   0.000000
 Stoichiometry    C9H19O2(2)
 Framework group  C1[X(C9H19O2)]
 Deg. of freedom    84
 Full point group                 C1      NOp   1
 Largest Abelian subgroup         C1      NOp   1
 Largest concise Abelian subgroup C1      NOp   1
                         Standard orientation:                         
 ---------------------------------------------------------------------
 Center     Atomic      Atomic             Coordinates (Angstroms)
 Number     Number       Type             X           Y           Z
 ---------------------------------------------------------------------
      1          6           0        3.639310    0.192682   -0.317524
      2          1           0        3.546064    1.269390   -0.175080
      3          1           0        3.751707   -0.000447   -1.389843
      4          1           0        4.555647   -0.142248    0.176224
      5          6           0        2.423363   -0.555369    0.244569
      6          1           0        2.336158   -0.338381    1.316214
      7          6           0       -0.119171   -0.272889    0.184408
      8          1           0       -0.172984    0.994439    0.575877
      9          1           0       -0.121486   -0.777511    1.152856
     10          6           0       -1.383761   -0.450800   -0.657588
     11          1           0       -1.490302   -1.510431   -0.928018
     12          1           0       -1.251144    0.092861   -1.600107
     13          6           0       -2.695560    0.016226    0.004747
     14          1           0       -2.572718    1.070337    0.285255
     15          6           0       -3.854599   -0.071019   -0.997471
     16          1           0       -4.017079   -1.106118   -1.318495
     17          1           0       -4.787841    0.288121   -0.554326
     18          1           0       -3.656544    0.528356   -1.891002
     19          6           0        2.607761   -2.084315    0.092604
     20          1           0        2.679510   -2.367290   -0.962317
     21          1           0        3.530582   -2.401046    0.587038
     22          1           0        1.775513   -2.636366    0.535256
     23          6           0       -3.021126   -0.779391    1.276962
     24          1           0       -3.126232   -1.846871    1.051794
     25          1           0       -3.962859   -0.439508    1.717152
     26          1           0       -2.247388   -0.672539    2.041385
     27          6           0        1.131391   -0.157393   -0.416037
     28          1           0        1.181884    0.047620   -1.483392
     29          8           0        1.264287    2.126776   -0.071192
     30          8           0        0.196196    2.238379    0.618132
 ---------------------------------------------------------------------
 Rotational constants (GHZ):      1.5590788      0.5071553      0.4309848
 Leave Link  202 at Tue Feb 25 19:58:39 2014, MaxMem= 4026531840 cpu:       0.3
 (Enter /usr/caen/gaussian-09revc/g09/l301.exe)
 Standard basis: 6-311G(2d,d,p) (5D, 7F)
 Ernie: Thresh=  0.10000D-02 Tol=  0.10000D-05 Strict=F.
 There are   312 symmetry adapted basis functions of A   symmetry.
 Integral buffers will be    131072 words long.
 Raffenetti 2 integral format.
 Two-electron integral symmetry is turned on.
   312 basis functions,   504 primitive gaussians,   323 cartesian basis functions
    45 alpha electrons       44 beta electrons
       nuclear repulsion energy       653.5734143717 Hartrees.
 IExCor=  402 DFT=T Ex+Corr=B3LYP ExCW=0 ScaHFX=  0.200000
 ScaDFX=  0.800000  0.720000  1.000000  0.810000 ScalE2=  1.000000  1.000000
 IRadAn=      0 IRanWt=     -1 IRanGd=            0 ICorTp=0
 NAtoms=   30 NActive=   30 NUniq=   30 SFac= 1.00D+00 NAtFMM=   60 NAOKFM=F Big=F
 Leave Link  301 at Tue Feb 25 19:58:40 2014, MaxMem= 4026531840 cpu:       0.6
 (Enter /usr/caen/gaussian-09revc/g09/l302.exe)
 NPDir=0 NMtPBC=     1 NCelOv=     1 NCel=       1 NClECP=     1 NCelD=      1
         NCelK=      1 NCelE2=     1 NClLst=     1 CellRange=     0.0.
 One-electron integrals computed using PRISM.
 NBasis=   312 RedAO= T  NBF=   312
 NBsUse=   312 1.00D-06 NBFU=   312
 Precomputing XC quadrature grid using
 IXCGrd= 2 IRadAn=           0 IRanWt=          -1 IRanGd=           0 AccXCQ= 0.00D+00.
 NRdTot=    1910 NPtTot=      243552 NUsed=      257325 NTot=      257357
 NSgBfM=   323   323   323   323   323 NAtAll=    30    30.
 Leave Link  302 at Tue Feb 25 19:58:41 2014, MaxMem= 4026531840 cpu:       4.4
 (Enter /usr/caen/gaussian-09revc/g09/l303.exe)
 DipDrv:  MaxL=1.
 Leave Link  303 at Tue Feb 25 19:58:41 2014, MaxMem= 4026531840 cpu:       2.3
 (Enter /usr/caen/gaussian-09revc/g09/l401.exe)
 Harris functional with IExCor=  402 diagonalized for initial guess.
 ExpMin= 1.03D-01 ExpMax= 8.59D+03 ExpMxC= 1.30D+03 IAcc=1 IRadAn=         1 AccDes= 0.00D+00
 HarFok:  IExCor=  402 AccDes= 0.00D+00 IRadAn=         1 IDoV= 1
 ScaDFX=  1.000000  1.000000  1.000000  1.000000
 FoFCou: FMM=F IPFlag=           0 FMFlag=      100000 FMFlg1=           0
         NFxFlg=           0 DoJE=T BraDBF=F KetDBF=T FulRan=T
         Omega=  0.000000  0.000000  1.000000  0.000000  0.000000 ICntrl=     500 IOpCl=  0
         NMat0=    1 NMatS0=    1 NMatT0=    0 NMatD0=    1 NMtDS0=    0 NMtDT0=    0
         I1Cent=           4 NGrid=           0.
 Petite list used in FoFCou.
 Harris En= -504.900647884821    
 Initial guess orbital symmetries:
 Alpha Orbitals:
       Occupied  (A) (A) (A) (A) (A) (A) (A) (A) (A) (A) (A) (A)
                 (A) (A) (A) (A) (A) (A) (A) (A) (A) (A) (A) (A)
                 (A) (A) (A) (A) (A) (A) (A) (A) (A) (A) (A) (A)
                 (A) (A) (A) (A) (A) (A) (A) (A) (A)
       Virtual   (A) (A) (A) (A) (A) (A) (A) (A) (A) (A) (A) (A)
                 (A) (A) (A) (A) (A) (A) (A) (A) (A) (A) (A) (A)
                 (A) (A) (A) (A) (A) (A) (A) (A) (A) (A) (A) (A)
                 (A) (A) (A) (A) (A) (A) (A) (A) (A) (A) (A) (A)
                 (A) (A) (A) (A) (A) (A) (A) (A) (A) (A) (A) (A)
                 (A) (A) (A) (A) (A) (A) (A) (A) (A) (A) (A) (A)
                 (A) (A) (A) (A) (A) (A) (A) (A) (A) (A) (A) (A)
                 (A) (A) (A) (A) (A) (A) (A) (A) (A) (A) (A) (A)
                 (A) (A) (A) (A) (A) (A) (A) (A) (A) (A) (A) (A)
                 (A) (A) (A) (A) (A) (A) (A) (A) (A) (A) (A) (A)
                 (A) (A) (A) (A) (A) (A) (A) (A) (A) (A) (A) (A)
                 (A) (A) (A) (A) (A) (A) (A) (A) (A) (A) (A) (A)
                 (A) (A) (A) (A) (A) (A) (A) (A) (A) (A) (A) (A)
                 (A) (A) (A) (A) (A) (A) (A) (A) (A) (A) (A) (A)
                 (A) (A) (A) (A) (A) (A) (A) (A) (A) (A) (A) (A)
                 (A) (A) (A) (A) (A) (A) (A) (A) (A) (A) (A) (A)
                 (A) (A) (A) (A) (A) (A) (A) (A) (A) (A) (A) (A)
                 (A) (A) (A) (A) (A) (A) (A) (A) (A) (A) (A) (A)
                 (A) (A) (A) (A) (A) (A) (A) (A) (A) (A) (A) (A)
                 (A) (A) (A) (A) (A) (A) (A) (A) (A) (A) (A) (A)
                 (A) (A) (A) (A) (A) (A) (A) (A) (A) (A) (A) (A)
                 (A) (A) (A) (A) (A) (A) (A) (A) (A) (A) (A) (A)
                 (A) (A) (A)
 Beta  Orbitals:
       Occupied  (A) (A) (A) (A) (A) (A) (A) (A) (A) (A) (A) (A)
                 (A) (A) (A) (A) (A) (A) (A) (A) (A) (A) (A) (A)
                 (A) (A) (A) (A) (A) (A) (A) (A) (A) (A) (A) (A)
                 (A) (A) (A) (A) (A) (A) (A) (A)
       Virtual   (A) (A) (A) (A) (A) (A) (A) (A) (A) (A) (A) (A)
                 (A) (A) (A) (A) (A) (A) (A) (A) (A) (A) (A) (A)
                 (A) (A) (A) (A) (A) (A) (A) (A) (A) (A) (A) (A)
                 (A) (A) (A) (A) (A) (A) (A) (A) (A) (A) (A) (A)
                 (A) (A) (A) (A) (A) (A) (A) (A) (A) (A) (A) (A)
                 (A) (A) (A) (A) (A) (A) (A) (A) (A) (A) (A) (A)
                 (A) (A) (A) (A) (A) (A) (A) (A) (A) (A) (A) (A)
                 (A) (A) (A) (A) (A) (A) (A) (A) (A) (A) (A) (A)
                 (A) (A) (A) (A) (A) (A) (A) (A) (A) (A) (A) (A)
                 (A) (A) (A) (A) (A) (A) (A) (A) (A) (A) (A) (A)
                 (A) (A) (A) (A) (A) (A) (A) (A) (A) (A) (A) (A)
                 (A) (A) (A) (A) (A) (A) (A) (A) (A) (A) (A) (A)
                 (A) (A) (A) (A) (A) (A) (A) (A) (A) (A) (A) (A)
                 (A) (A) (A) (A) (A) (A) (A) (A) (A) (A) (A) (A)
                 (A) (A) (A) (A) (A) (A) (A) (A) (A) (A) (A) (A)
                 (A) (A) (A) (A) (A) (A) (A) (A) (A) (A) (A) (A)
                 (A) (A) (A) (A) (A) (A) (A) (A) (A) (A) (A) (A)
                 (A) (A) (A) (A) (A) (A) (A) (A) (A) (A) (A) (A)
                 (A) (A) (A) (A) (A) (A) (A) (A) (A) (A) (A) (A)
                 (A) (A) (A) (A) (A) (A) (A) (A) (A) (A) (A) (A)
                 (A) (A) (A) (A) (A) (A) (A) (A) (A) (A) (A) (A)
                 (A) (A) (A) (A) (A) (A) (A) (A) (A) (A) (A) (A)
                 (A) (A) (A) (A)
 The electronic state of the initial guess is 2-A.
 Initial guess <Sx>= 0.0000 <Sy>= 0.0000 <Sz>= 0.5000 <S**2>= 0.7500 S= 0.5000
 Leave Link  401 at Tue Feb 25 19:58:43 2014, MaxMem= 4026531840 cpu:       8.1
 (Enter /usr/caen/gaussian-09revc/g09/l502.exe)
 UHF open shell SCF:
 Requested convergence on RMS density matrix=1.00D-08 within 128 cycles.
 Requested convergence on MAX density matrix=1.00D-06.
 Requested convergence on             energy=1.00D-06.
 No special actions if energy rises.
 Using DIIS extrapolation, IDIIS=  1040.
 Integral symmetry usage will be decided dynamically.
       257042 words used for storage of precomputed grid.
 Keep R1 and R2 ints in memory in canonical form, NReq=2755661773.
 IEnd=      593200 IEndB=      593200 NGot=  4026531840 MDV=  1287997303
 LenX=  1287997303 LenY=  1287892533
 Symmetry not used in FoFDir.
 MinBra= 0 MaxBra= 2 Meth= 1.
 IRaf=       0 NMat=   1 IRICut=       1 DoRegI=T DoRafI=F ISym2E= 0 JSym2E=0.
 Integral accuracy reduced to 1.0D-05 until final iterations.

 Cycle   1  Pass 0  IDiag  1:
 E= -504.419170746586    
 DIIS: error= 3.95D-02 at cycle   1 NSaved=   1.
 NSaved= 1 IEnMin= 1 EnMin= -504.419170746586     IErMin= 1 ErrMin= 3.95D-02
 ErrMax= 3.95D-02 EMaxC= 1.00D-01 BMatC= 1.62D+00 BMatP= 1.62D+00
 IDIUse=3 WtCom= 6.05D-01 WtEn= 3.95D-01
 Coeff-Com:  0.100D+01
 Coeff-En:   0.100D+01
 Coeff:      0.100D+01
 Gap=     0.355 Goal=   None    Shift=    0.000
 Gap=     0.066 Goal=   None    Shift=    0.000
 GapD=    0.066 DampG=0.500 DampE=0.500 DampFc=0.2500 IDamp=-1.
 Damping current iteration by 2.50D-01
 RMSDP=3.96D-03 MaxDP=1.22D-01              OVMax= 9.58D-01

 Cycle   2  Pass 0  IDiag  1:
 E= -504.531092415129     Delta-E=       -0.111921668543 Rises=F Damp=T
 DIIS: error= 1.62D-02 at cycle   2 NSaved=   2.
 NSaved= 2 IEnMin= 2 EnMin= -504.531092415129     IErMin= 2 ErrMin= 1.62D-02
 ErrMax= 1.62D-02 EMaxC= 1.00D-01 BMatC= 3.76D-01 BMatP= 1.62D+00
 IDIUse=3 WtCom= 8.38D-01 WtEn= 1.62D-01
 Coeff-Com: -0.482D+00 0.148D+01
 Coeff-En:   0.119D-01 0.988D+00
 Coeff:     -0.402D+00 0.140D+01
 Gap=     0.281 Goal=   None    Shift=    0.000
 Gap=    -0.246 Goal=   None    Shift=    0.000
 RMSDP=1.84D-03 MaxDP=1.06D-01 DE=-1.12D-01 OVMax= 6.69D-01

 Cycle   3  Pass 0  IDiag  1:
 E= -504.577149484829     Delta-E=       -0.046057069700 Rises=F Damp=F
 DIIS: error= 5.56D-02 at cycle   3 NSaved=   3.
 NSaved= 3 IEnMin= 3 EnMin= -504.577149484829     IErMin= 2 ErrMin= 1.62D-02
 ErrMax= 5.56D-02 EMaxC= 1.00D-01 BMatC= 9.71D-01 BMatP= 3.76D-01
 IDIUse=2 WtCom= 0.00D+00 WtEn= 1.00D+00
 Coeff-En:   0.000D+00 0.417D+00 0.583D+00
 Coeff:      0.000D+00 0.417D+00 0.583D+00
 Gap=     0.308 Goal=   None    Shift=    0.000
 Gap=     0.014 Goal=   None    Shift=    0.000
 RMSDP=3.17D-03 MaxDP=1.54D-01 DE=-4.61D-02 OVMax= 9.31D-01

 Cycle   4  Pass 0  IDiag  1:
 E= -504.027938640898     Delta-E=        0.549210843931 Rises=F Damp=F
 DIIS: error= 6.01D-02 at cycle   4 NSaved=   4.
 NSaved= 4 IEnMin= 3 EnMin= -504.577149484829     IErMin= 2 ErrMin= 1.62D-02
 ErrMax= 6.01D-02 EMaxC= 1.00D-01 BMatC= 2.56D+00 BMatP= 3.76D-01
 IDIUse=2 WtCom= 0.00D+00 WtEn= 1.00D+00
 Coeff-En:   0.000D+00 0.000D+00 0.699D+00 0.301D+00
 Coeff:      0.000D+00 0.000D+00 0.699D+00 0.301D+00
 Gap=     0.249 Goal=   None    Shift=    0.000
 Gap=    -0.064 Goal=   None    Shift=    0.000
 RMSDP=2.14D-03 MaxDP=1.04D-01 DE= 5.49D-01 OVMax= 8.70D-01

 Cycle   5  Pass 0  IDiag  1:
 E= -504.797075716159     Delta-E=       -0.769137075261 Rises=F Damp=F
 DIIS: error= 1.60D-02 at cycle   5 NSaved=   5.
 NSaved= 5 IEnMin= 5 EnMin= -504.797075716159     IErMin= 5 ErrMin= 1.60D-02
 ErrMax= 1.60D-02 EMaxC= 1.00D-01 BMatC= 1.47D-01 BMatP= 3.76D-01
 IDIUse=3 WtCom= 8.40D-01 WtEn= 1.60D-01
 Coeff-Com: -0.249D+00 0.443D+00 0.286D+00-0.551D-02 0.525D+00
 Coeff-En:   0.000D+00 0.000D+00 0.132D+00 0.000D+00 0.868D+00
 Coeff:     -0.209D+00 0.372D+00 0.262D+00-0.463D-02 0.580D+00
 Gap=     0.191 Goal=   None    Shift=    0.000
 Gap=     0.138 Goal=   None    Shift=    0.000
 RMSDP=5.91D-04 MaxDP=3.07D-02 DE=-7.69D-01 OVMax= 1.27D-01

 Cycle   6  Pass 0  IDiag  1:
 E= -504.823448329477     Delta-E=       -0.026372613318 Rises=F Damp=F
 DIIS: error= 1.17D-02 at cycle   6 NSaved=   6.
 NSaved= 6 IEnMin= 6 EnMin= -504.823448329477     IErMin= 6 ErrMin= 1.17D-02
 ErrMax= 1.17D-02 EMaxC= 1.00D-01 BMatC= 2.89D-02 BMatP= 1.47D-01
 IDIUse=3 WtCom= 8.83D-01 WtEn= 1.17D-01
 Coeff-Com: -0.159D+00 0.235D+00 0.131D+00-0.308D-01 0.404D+00 0.419D+00
 Coeff-En:   0.000D+00 0.000D+00 0.000D+00 0.000D+00 0.139D+00 0.861D+00
 Coeff:     -0.140D+00 0.208D+00 0.115D+00-0.272D-01 0.373D+00 0.471D+00
 Gap=     0.202 Goal=   None    Shift=    0.000
 Gap=     0.139 Goal=   None    Shift=    0.000
 RMSDP=2.64D-04 MaxDP=1.29D-02 DE=-2.64D-02 OVMax= 5.13D-02

 Cycle   7  Pass 0  IDiag  1:
 E= -504.828657112426     Delta-E=       -0.005208782949 Rises=F Damp=F
 DIIS: error= 8.18D-03 at cycle   7 NSaved=   7.
 NSaved= 7 IEnMin= 7 EnMin= -504.828657112426     IErMin= 7 ErrMin= 8.18D-03
 ErrMax= 8.18D-03 EMaxC= 1.00D-01 BMatC= 8.31D-03 BMatP= 2.89D-02
 IDIUse=3 WtCom= 9.18D-01 WtEn= 8.18D-02
 Coeff-Com: -0.661D-01 0.911D-01 0.529D-01-0.151D-01 0.187D+00 0.352D+00
 Coeff-Com:  0.398D+00
 Coeff-En:   0.000D+00 0.000D+00 0.000D+00 0.000D+00 0.000D+00 0.223D+00
 Coeff-En:   0.777D+00
 Coeff:     -0.607D-01 0.837D-01 0.485D-01-0.138D-01 0.172D+00 0.341D+00
 Coeff:      0.429D+00
 Gap=     0.202 Goal=   None    Shift=    0.000
 Gap=     0.144 Goal=   None    Shift=    0.000
 RMSDP=9.84D-05 MaxDP=4.42D-03 DE=-5.21D-03 OVMax= 1.59D-02

 Cycle   8  Pass 0  IDiag  1:
 E= -504.830076412962     Delta-E=       -0.001419300536 Rises=F Damp=F
 DIIS: error= 2.82D-03 at cycle   8 NSaved=   8.
 NSaved= 8 IEnMin= 8 EnMin= -504.830076412962     IErMin= 8 ErrMin= 2.82D-03
 ErrMax= 2.82D-03 EMaxC= 1.00D-01 BMatC= 8.92D-04 BMatP= 8.31D-03
 IDIUse=3 WtCom= 9.72D-01 WtEn= 2.82D-02
 Coeff-Com:  0.928D-02-0.125D-01-0.646D-02 0.164D-02-0.331D-01 0.838D-01
 Coeff-Com:  0.297D+00 0.660D+00
 Coeff-En:   0.000D+00 0.000D+00 0.000D+00 0.000D+00 0.000D+00 0.000D+00
 Coeff-En:   0.635D-01 0.937D+00
 Coeff:      0.901D-02-0.122D-01-0.628D-02 0.159D-02-0.322D-01 0.814D-01
 Coeff:      0.291D+00 0.668D+00
 Gap=     0.202 Goal=   None    Shift=    0.000
 Gap=     0.146 Goal=   None    Shift=    0.000
 RMSDP=3.69D-05 MaxDP=1.97D-03 DE=-1.42D-03 OVMax= 7.22D-03

 Cycle   9  Pass 0  IDiag  1:
 E= -504.830251755924     Delta-E=       -0.000175342961 Rises=F Damp=F
 DIIS: error= 3.68D-04 at cycle   9 NSaved=   9.
 NSaved= 9 IEnMin= 9 EnMin= -504.830251755924     IErMin= 9 ErrMin= 3.68D-04
 ErrMax= 3.68D-04 EMaxC= 1.00D-01 BMatC= 7.19D-05 BMatP= 8.92D-04
 IDIUse=3 WtCom= 9.96D-01 WtEn= 3.68D-03
 Coeff-Com:  0.651D-02-0.105D-01-0.448D-02 0.173D-02-0.159D-01 0.252D-01
 Coeff-Com:  0.103D+00 0.321D+00 0.573D+00
 Coeff-En:   0.000D+00 0.000D+00 0.000D+00 0.000D+00 0.000D+00 0.000D+00
 Coeff-En:   0.000D+00 0.000D+00 0.100D+01
 Coeff:      0.649D-02-0.105D-01-0.446D-02 0.172D-02-0.158D-01 0.251D-01
 Coeff:      0.102D+00 0.320D+00 0.575D+00
 Gap=     0.203 Goal=   None    Shift=    0.000
 Gap=     0.146 Goal=   None    Shift=    0.000
 RMSDP=1.35D-05 MaxDP=6.19D-04 DE=-1.75D-04 OVMax= 3.12D-03

 Cycle  10  Pass 0  IDiag  1:
 E= -504.830270507485     Delta-E=       -0.000018751561 Rises=F Damp=F
 DIIS: error= 9.85D-05 at cycle  10 NSaved=  10.
 NSaved=10 IEnMin=10 EnMin= -504.830270507485     IErMin=10 ErrMin= 9.85D-05
 ErrMax= 9.85D-05 EMaxC= 1.00D-01 BMatC= 8.40D-06 BMatP= 7.19D-05
 IDIUse=1 WtCom= 1.00D+00 WtEn= 0.00D+00
 Coeff-Com:  0.242D-03-0.146D-03-0.112D-02 0.269D-03-0.105D-02-0.808D-02
 Coeff-Com: -0.271D-01-0.142D-02 0.219D+00 0.820D+00
 Coeff:      0.242D-03-0.146D-03-0.112D-02 0.269D-03-0.105D-02-0.808D-02
 Coeff:     -0.271D-01-0.142D-02 0.219D+00 0.820D+00
 Gap=     0.203 Goal=   None    Shift=    0.000
 Gap=     0.146 Goal=   None    Shift=    0.000
 RMSDP=9.23D-06 MaxDP=5.61D-04 DE=-1.88D-05 OVMax= 2.57D-03

 Initial convergence to 1.0D-05 achieved.  Increase integral accuracy.
 Cycle  11  Pass 1  IDiag  1:
 E= -504.830303142069     Delta-E=       -0.000032634584 Rises=F Damp=F
 DIIS: error= 8.93D-05 at cycle   1 NSaved=   1.
 NSaved= 1 IEnMin= 1 EnMin= -504.830303142069     IErMin= 1 ErrMin= 8.93D-05
 ErrMax= 8.93D-05 EMaxC= 1.00D-01 BMatC= 2.60D-06 BMatP= 2.60D-06
 IDIUse=1 WtCom= 1.00D+00 WtEn= 0.00D+00
 Coeff-Com:  0.100D+01
 Coeff:      0.100D+01
 Gap=     0.203 Goal=   None    Shift=    0.000
 Gap=     0.146 Goal=   None    Shift=    0.000
 RMSDP=9.23D-06 MaxDP=5.61D-04 DE=-3.26D-05 OVMax= 1.98D-03

 Cycle  12  Pass 1  IDiag  1:
 E= -504.830304786632     Delta-E=       -0.000001644563 Rises=F Damp=F
 DIIS: error= 1.31D-04 at cycle   2 NSaved=   2.
 NSaved= 2 IEnMin= 2 EnMin= -504.830304786632     IErMin= 1 ErrMin= 8.93D-05
 ErrMax= 1.31D-04 EMaxC= 1.00D-01 BMatC= 3.77D-06 BMatP= 2.60D-06
 IDIUse=3 WtCom= 4.66D-01 WtEn= 5.34D-01
 Coeff-Com:  0.569D+00 0.431D+00
 Coeff-En:   0.000D+00 0.100D+01
 Coeff:      0.265D+00 0.735D+00
 Gap=     0.203 Goal=   None    Shift=    0.000
 Gap=     0.146 Goal=   None    Shift=    0.000
 RMSDP=5.61D-06 MaxDP=3.85D-04 DE=-1.64D-06 OVMax= 1.76D-03

 Cycle  13  Pass 1  IDiag  1:
 E= -504.830304791301     Delta-E=       -0.000000004669 Rises=F Damp=F
 DIIS: error= 1.73D-04 at cycle   3 NSaved=   3.
 NSaved= 3 IEnMin= 3 EnMin= -504.830304791301     IErMin= 1 ErrMin= 8.93D-05
 ErrMax= 1.73D-04 EMaxC= 1.00D-01 BMatC= 7.23D-06 BMatP= 2.60D-06
 IDIUse=3 WtCom= 4.32D-01 WtEn= 5.68D-01
 Coeff-Com: -0.951D-01 0.625D+00 0.470D+00
 Coeff-En:   0.000D+00 0.499D+00 0.501D+00
 Coeff:     -0.411D-01 0.553D+00 0.488D+00
 Gap=     0.203 Goal=   None    Shift=    0.000
 Gap=     0.146 Goal=   None    Shift=    0.000
 RMSDP=3.97D-06 MaxDP=2.29D-04 DE=-4.67D-09 OVMax= 1.13D-03

 Cycle  14  Pass 1  IDiag  1:
 E= -504.830306497121     Delta-E=       -0.000001705820 Rises=F Damp=F
 DIIS: error= 7.57D-05 at cycle   4 NSaved=   4.
 NSaved= 4 IEnMin= 4 EnMin= -504.830306497121     IErMin= 4 ErrMin= 7.57D-05
 ErrMax= 7.57D-05 EMaxC= 1.00D-01 BMatC= 7.22D-07 BMatP= 2.60D-06
 IDIUse=1 WtCom= 1.00D+00 WtEn= 0.00D+00
 Coeff-Com: -0.258D+00 0.211D+00 0.386D+00 0.661D+00
 Coeff:     -0.258D+00 0.211D+00 0.386D+00 0.661D+00
 Gap=     0.203 Goal=   None    Shift=    0.000
 Gap=     0.146 Goal=   None    Shift=    0.000
 RMSDP=2.78D-06 MaxDP=1.81D-04 DE=-1.71D-06 OVMax= 8.27D-04

 Cycle  15  Pass 1  IDiag  1:
 E= -504.830306951293     Delta-E=       -0.000000454172 Rises=F Damp=F
 DIIS: error= 2.98D-05 at cycle   5 NSaved=   5.
 NSaved= 5 IEnMin= 5 EnMin= -504.830306951293     IErMin= 5 ErrMin= 2.98D-05
 ErrMax= 2.98D-05 EMaxC= 1.00D-01 BMatC= 1.78D-07 BMatP= 7.22D-07
 IDIUse=1 WtCom= 1.00D+00 WtEn= 0.00D+00
 Coeff-Com: -0.162D+00-0.119D+00 0.703D-01 0.493D+00 0.718D+00
 Coeff:     -0.162D+00-0.119D+00 0.703D-01 0.493D+00 0.718D+00
 Gap=     0.203 Goal=   None    Shift=    0.000
 Gap=     0.146 Goal=   None    Shift=    0.000
 RMSDP=2.20D-06 MaxDP=1.76D-04 DE=-4.54D-07 OVMax= 7.41D-04

 Cycle  16  Pass 1  IDiag  1:
 E= -504.830307113394     Delta-E=       -0.000000162101 Rises=F Damp=F
 DIIS: error= 1.85D-05 at cycle   6 NSaved=   6.
 NSaved= 6 IEnMin= 6 EnMin= -504.830307113394     IErMin= 6 ErrMin= 1.85D-05
 ErrMax= 1.85D-05 EMaxC= 1.00D-01 BMatC= 1.17D-07 BMatP= 1.78D-07
 IDIUse=1 WtCom= 1.00D+00 WtEn= 0.00D+00
 Coeff-Com: -0.120D-01-0.206D+00-0.127D+00 0.108D+00 0.657D+00 0.581D+00
 Coeff:     -0.120D-01-0.206D+00-0.127D+00 0.108D+00 0.657D+00 0.581D+00
 Gap=     0.204 Goal=   None    Shift=    0.000
 Gap=     0.146 Goal=   None    Shift=    0.000
 RMSDP=1.34D-06 MaxDP=9.49D-05 DE=-1.62D-07 OVMax= 4.44D-04

 Cycle  17  Pass 1  IDiag  1:
 E= -504.830307177253     Delta-E=       -0.000000063859 Rises=F Damp=F
 DIIS: error= 3.80D-06 at cycle   7 NSaved=   7.
 NSaved= 7 IEnMin= 7 EnMin= -504.830307177253     IErMin= 7 ErrMin= 3.80D-06
 ErrMax= 3.80D-06 EMaxC= 1.00D-01 BMatC= 8.00D-09 BMatP= 1.17D-07
 IDIUse=1 WtCom= 1.00D+00 WtEn= 0.00D+00
 Coeff-Com:  0.252D-01-0.824D-01-0.768D-01-0.500D-01 0.211D+00 0.265D+00
 Coeff-Com:  0.708D+00
 Coeff:      0.252D-01-0.824D-01-0.768D-01-0.500D-01 0.211D+00 0.265D+00
 Coeff:      0.708D+00
 Gap=     0.204 Goal=   None    Shift=    0.000
 Gap=     0.146 Goal=   None    Shift=    0.000
 RMSDP=4.19D-07 MaxDP=2.97D-05 DE=-6.39D-08 OVMax= 1.26D-04

 Cycle  18  Pass 1  IDiag  1:
 E= -504.830307183610     Delta-E=       -0.000000006357 Rises=F Damp=F
 DIIS: error= 2.10D-06 at cycle   8 NSaved=   8.
 NSaved= 8 IEnMin= 8 EnMin= -504.830307183610     IErMin= 8 ErrMin= 2.10D-06
 ErrMax= 2.10D-06 EMaxC= 1.00D-01 BMatC= 2.32D-09 BMatP= 8.00D-09
 IDIUse=1 WtCom= 1.00D+00 WtEn= 0.00D+00
 Coeff-Com:  0.121D-01 0.960D-02-0.889D-03-0.497D-01-0.378D-01-0.262D-01
 Coeff-Com:  0.293D+00 0.800D+00
 Coeff:      0.121D-01 0.960D-02-0.889D-03-0.497D-01-0.378D-01-0.262D-01
 Coeff:      0.293D+00 0.800D+00
 Gap=     0.204 Goal=   None    Shift=    0.000
 Gap=     0.146 Goal=   None    Shift=    0.000
 RMSDP=1.55D-07 MaxDP=9.38D-06 DE=-6.36D-09 OVMax= 3.71D-05

 Cycle  19  Pass 1  IDiag  1:
 E= -504.830307184875     Delta-E=       -0.000000001266 Rises=F Damp=F
 DIIS: error= 1.70D-06 at cycle   9 NSaved=   9.
 NSaved= 9 IEnMin= 9 EnMin= -504.830307184875     IErMin= 9 ErrMin= 1.70D-06
 ErrMax= 1.70D-06 EMaxC= 1.00D-01 BMatC= 7.71D-10 BMatP= 2.32D-09
 IDIUse=1 WtCom= 1.00D+00 WtEn= 0.00D+00
 Coeff-Com: -0.367D-02 0.399D-01 0.337D-01-0.126D-01-0.996D-01-0.138D+00
 Coeff-Com: -0.132D+00 0.441D+00 0.871D+00
 Coeff:     -0.367D-02 0.399D-01 0.337D-01-0.126D-01-0.996D-01-0.138D+00
 Coeff:     -0.132D+00 0.441D+00 0.871D+00
 Gap=     0.204 Goal=   None    Shift=    0.000
 Gap=     0.146 Goal=   None    Shift=    0.000
 RMSDP=1.05D-07 MaxDP=5.61D-06 DE=-1.27D-09 OVMax= 2.29D-05

 Cycle  20  Pass 1  IDiag  1:
 E= -504.830307185315     Delta-E=       -0.000000000440 Rises=F Damp=F
 DIIS: error= 1.53D-07 at cycle  10 NSaved=  10.
 NSaved=10 IEnMin=10 EnMin= -504.830307185315     IErMin=10 ErrMin= 1.53D-07
 ErrMax= 1.53D-07 EMaxC= 1.00D-01 BMatC= 3.57D-11 BMatP= 7.71D-10
 IDIUse=1 WtCom= 1.00D+00 WtEn= 0.00D+00
 Coeff-Com: -0.246D-02 0.145D-01 0.129D-01-0.116D-02-0.338D-01-0.498D-01
 Coeff-Com: -0.718D-01 0.898D-01 0.321D+00 0.721D+00
 Coeff:     -0.246D-02 0.145D-01 0.129D-01-0.116D-02-0.338D-01-0.498D-01
 Coeff:     -0.718D-01 0.898D-01 0.321D+00 0.721D+00
 Gap=     0.204 Goal=   None    Shift=    0.000
 Gap=     0.146 Goal=   None    Shift=    0.000
 RMSDP=1.79D-08 MaxDP=6.85D-07 DE=-4.40D-10 OVMax= 3.69D-06

 Cycle  21  Pass 1  IDiag  1:
 E= -504.830307185326     Delta-E=       -0.000000000011 Rises=F Damp=F
 DIIS: error= 8.00D-08 at cycle  11 NSaved=  11.
 NSaved=11 IEnMin=11 EnMin= -504.830307185326     IErMin=11 ErrMin= 8.00D-08
 ErrMax= 8.00D-08 EMaxC= 1.00D-01 BMatC= 4.42D-12 BMatP= 3.57D-11
 IDIUse=1 WtCom= 1.00D+00 WtEn= 0.00D+00
 Coeff-Com: -0.542D-03 0.180D-02 0.173D-02 0.634D-03-0.378D-02-0.585D-02
 Coeff-Com: -0.141D-01-0.625D-02 0.415D-01 0.277D+00 0.708D+00
 Coeff:     -0.542D-03 0.180D-02 0.173D-02 0.634D-03-0.378D-02-0.585D-02
 Coeff:     -0.141D-01-0.625D-02 0.415D-01 0.277D+00 0.708D+00
 Gap=     0.204 Goal=   None    Shift=    0.000
 Gap=     0.146 Goal=   None    Shift=    0.000
 RMSDP=5.75D-09 MaxDP=2.46D-07 DE=-1.09D-11 OVMax= 1.95D-06

 SCF Done:  E(UB3LYP) =  -504.830307185     A.U. after   21 cycles
             Convg  =    0.5754D-08             -V/T =  2.0043
 <Sx>= 0.0000 <Sy>= 0.0000 <Sz>= 0.5000 <S**2>= 0.7603 S= 0.5051
 <L.S>= 0.000000000000E+00
 KE= 5.026745305136D+02 PE=-2.483098585113D+03 EE= 8.220203330425D+02
 Annihilation of the first spin contaminant:
 S**2 before annihilation     0.7603,   after     0.7501
 Leave Link  502 at Tue Feb 25 20:01:57 2014, MaxMem= 4026531840 cpu:    1512.2
 (Enter /usr/caen/gaussian-09revc/g09/l801.exe)
 Range of M.O.s used for correlation:     1   312
 NBasis=   312 NAE=    45 NBE=    44 NFC=     0 NFV=     0
 NROrb=    312 NOA=    45 NOB=    44 NVA=   267 NVB=   268
 Leave Link  801 at Tue Feb 25 20:01:57 2014, MaxMem= 4026531840 cpu:       0.3
 (Enter /usr/caen/gaussian-09revc/g09/l1101.exe)
 Using compressed storage, NAtomX=    30.
 Will process  31 centers per pass.
 Leave Link 1101 at Tue Feb 25 20:01:58 2014, MaxMem= 4026531840 cpu:       5.1
 (Enter /usr/caen/gaussian-09revc/g09/l1102.exe)
 Symmetrizing basis deriv contribution to polar:
 IMax=3 JMax=2 DiffMx= 0.00D+00
 Leave Link 1102 at Tue Feb 25 20:01:59 2014, MaxMem= 4026531840 cpu:       1.3
 (Enter /usr/caen/gaussian-09revc/g09/l1110.exe)
 Forming Gx(P) for the SCF density, NAtomX=    30.
 Integral derivatives from FoFDir/FoFCou, PRISM(SPDF).
 Do as many integral derivatives as possible in FoFDir.
 G2DrvN: MDV=    4026531496.
 G2DrvN: will do    31 centers at a time, making    1 passes doing MaxLOS=2.
 Calling FoFCou, ICntrl=  3107 FMM=F I1Cent=   0 AccDes= 0.00D+00.
 FoFCou: FMM=F IPFlag=           0 FMFlag=      100000 FMFlg1=           0
         NFxFlg=           0 DoJE=F BraDBF=F KetDBF=F FulRan=T
         Omega=  0.000000  0.000000  1.000000  0.000000  0.000000 ICntrl=    3107 IOpCl=  1
         NMat0=    1 NMatS0=    1 NMatT0=    0 NMatD0=    1 NMtDS0=    0 NMtDT0=    0
         I1Cent=           0 NGrid=           0.
 Symmetry not used in FoFCou.
 FoFDir/FoFCou used for L=0 through L=2.
 End of G2Drv Frequency-dependent properties file   721 does not exist.
 End of G2Drv Frequency-dependent properties file   722 does not exist.
 Leave Link 1110 at Tue Feb 25 20:05:11 2014, MaxMem= 4026531840 cpu:    1489.8
 (Enter /usr/caen/gaussian-09revc/g09/l1002.exe)
 Minotr:  UHF open shell wavefunction.
          IDoAtm=111111111111111111111111111111
          Direct CPHF calculation.
          Differentiating once with respect to nuclear coordinates.
          Requested convergence is 1.0D-06 RMS, and 1.0D-05 maximum.
          Secondary convergence is 1.0D-12 RMS, and 1.0D-12 maximum.
          NewPWx=T KeepS1=F KeepF1=F KeepIn=T MapXYZ=F SortEE=F KeepMc=T.
          MDV=    4026531536 using IRadAn=       2.
 Generate precomputed XC quadrature information.
          Keep R1 and R2 ints in memory in canonical form, NReq=2738891885.
 Symmetry not used in FoFDir.
 MinBra= 0 MaxBra= 2 Meth= 1.
 IRaf=       0 NMat=   1 IRICut=       1 DoRegI=T DoRafI=F ISym2E= 0 JSym2E=0.
          Solving linear equations simultaneously, MaxMat=       0.
          There are    93 degrees of freedom in the 1st order CPHF.  IDoFFX=5.
     87 vectors produced by pass  0 Test12= 2.56D-10 1.08D-07 XBig12= 2.23D-01 2.10D-01.
 AX will form    87 AO Fock derivatives at one time.
     87 vectors produced by pass  1 Test12= 2.56D-10 1.08D-07 XBig12= 5.23D-02 7.85D-02.
     87 vectors produced by pass  2 Test12= 2.56D-10 1.08D-07 XBig12= 1.58D-04 3.46D-03.
     87 vectors produced by pass  3 Test12= 2.56D-10 1.08D-07 XBig12= 5.19D-07 2.22D-04.
     60 vectors produced by pass  4 Test12= 2.56D-10 1.08D-07 XBig12= 2.33D-09 5.87D-06.
     13 vectors produced by pass  5 Test12= 2.56D-10 1.08D-07 XBig12= 1.15D-11 3.67D-07.
 Inverted reduced A of dimension   421 with in-core refinement.
 End of Minotr Frequency-dependent properties file   721 does not exist.
 End of Minotr Frequency-dependent properties file   722 does not exist.
 Leave Link 1002 at Tue Feb 25 20:09:38 2014, MaxMem= 4026531840 cpu:    2128.7
 (Enter /usr/caen/gaussian-09revc/g09/l601.exe)
 Copying SCF densities to generalized density rwf, IOpCl= 1 IROHF=0.

 **********************************************************************

            Population analysis using the SCF density.

 **********************************************************************

 Orbital symmetries:
 Alpha Orbitals:
       Occupied  (A) (A) (A) (A) (A) (A) (A) (A) (A) (A) (A) (A)
                 (A) (A) (A) (A) (A) (A) (A) (A) (A) (A) (A) (A)
                 (A) (A) (A) (A) (A) (A) (A) (A) (A) (A) (A) (A)
                 (A) (A) (A) (A) (A) (A) (A) (A) (A)
       Virtual   (A) (A) (A) (A) (A) (A) (A) (A) (A) (A) (A) (A)
                 (A) (A) (A) (A) (A) (A) (A) (A) (A) (A) (A) (A)
                 (A) (A) (A) (A) (A) (A) (A) (A) (A) (A) (A) (A)
                 (A) (A) (A) (A) (A) (A) (A) (A) (A) (A) (A) (A)
                 (A) (A) (A) (A) (A) (A) (A) (A) (A) (A) (A) (A)
                 (A) (A) (A) (A) (A) (A) (A) (A) (A) (A) (A) (A)
                 (A) (A) (A) (A) (A) (A) (A) (A) (A) (A) (A) (A)
                 (A) (A) (A) (A) (A) (A) (A) (A) (A) (A) (A) (A)
                 (A) (A) (A) (A) (A) (A) (A) (A) (A) (A) (A) (A)
                 (A) (A) (A) (A) (A) (A) (A) (A) (A) (A) (A) (A)
                 (A) (A) (A) (A) (A) (A) (A) (A) (A) (A) (A) (A)
                 (A) (A) (A) (A) (A) (A) (A) (A) (A) (A) (A) (A)
                 (A) (A) (A) (A) (A) (A) (A) (A) (A) (A) (A) (A)
                 (A) (A) (A) (A) (A) (A) (A) (A) (A) (A) (A) (A)
                 (A) (A) (A) (A) (A) (A) (A) (A) (A) (A) (A) (A)
                 (A) (A) (A) (A) (A) (A) (A) (A) (A) (A) (A) (A)
                 (A) (A) (A) (A) (A) (A) (A) (A) (A) (A) (A) (A)
                 (A) (A) (A) (A) (A) (A) (A) (A) (A) (A) (A) (A)
                 (A) (A) (A) (A) (A) (A) (A) (A) (A) (A) (A) (A)
                 (A) (A) (A) (A) (A) (A) (A) (A) (A) (A) (A) (A)
                 (A) (A) (A) (A) (A) (A) (A) (A) (A) (A) (A) (A)
                 (A) (A) (A) (A) (A) (A) (A) (A) (A) (A) (A) (A)
                 (A) (A) (A)
 Beta  Orbitals:
       Occupied  (A) (A) (A) (A) (A) (A) (A) (A) (A) (A) (A) (A)
                 (A) (A) (A) (A) (A) (A) (A) (A) (A) (A) (A) (A)
                 (A) (A) (A) (A) (A) (A) (A) (A) (A) (A) (A) (A)
                 (A) (A) (A) (A) (A) (A) (A) (A)
       Virtual   (A) (A) (A) (A) (A) (A) (A) (A) (A) (A) (A) (A)
                 (A) (A) (A) (A) (A) (A) (A) (A) (A) (A) (A) (A)
                 (A) (A) (A) (A) (A) (A) (A) (A) (A) (A) (A) (A)
                 (A) (A) (A) (A) (A) (A) (A) (A) (A) (A) (A) (A)
                 (A) (A) (A) (A) (A) (A) (A) (A) (A) (A) (A) (A)
                 (A) (A) (A) (A) (A) (A) (A) (A) (A) (A) (A) (A)
                 (A) (A) (A) (A) (A) (A) (A) (A) (A) (A) (A) (A)
                 (A) (A) (A) (A) (A) (A) (A) (A) (A) (A) (A) (A)
                 (A) (A) (A) (A) (A) (A) (A) (A) (A) (A) (A) (A)
                 (A) (A) (A) (A) (A) (A) (A) (A) (A) (A) (A) (A)
                 (A) (A) (A) (A) (A) (A) (A) (A) (A) (A) (A) (A)
                 (A) (A) (A) (A) (A) (A) (A) (A) (A) (A) (A) (A)
                 (A) (A) (A) (A) (A) (A) (A) (A) (A) (A) (A) (A)
                 (A) (A) (A) (A) (A) (A) (A) (A) (A) (A) (A) (A)
                 (A) (A) (A) (A) (A) (A) (A) (A) (A) (A) (A) (A)
                 (A) (A) (A) (A) (A) (A) (A) (A) (A) (A) (A) (A)
                 (A) (A) (A) (A) (A) (A) (A) (A) (A) (A) (A) (A)
                 (A) (A) (A) (A) (A) (A) (A) (A) (A) (A) (A) (A)
                 (A) (A) (A) (A) (A) (A) (A) (A) (A) (A) (A) (A)
                 (A) (A) (A) (A) (A) (A) (A) (A) (A) (A) (A) (A)
                 (A) (A) (A) (A) (A) (A) (A) (A) (A) (A) (A) (A)
                 (A) (A) (A) (A) (A) (A) (A) (A) (A) (A) (A) (A)
                 (A) (A) (A) (A)
 The electronic state is 2-A.
 Alpha  occ. eigenvalues --  -19.20431 -19.19430 -10.21039 -10.19137 -10.17760
 Alpha  occ. eigenvalues --  -10.17592 -10.17244 -10.17164 -10.16091 -10.16046
 Alpha  occ. eigenvalues --  -10.15945  -1.19290  -0.83962  -0.81435  -0.79650
 Alpha  occ. eigenvalues --   -0.76464  -0.69268  -0.68859  -0.68454  -0.60990
 Alpha  occ. eigenvalues --   -0.56938  -0.56689  -0.52072  -0.48840  -0.48057
 Alpha  occ. eigenvalues --   -0.47154  -0.46860  -0.45286  -0.43699  -0.43454
 Alpha  occ. eigenvalues --   -0.41243  -0.40667  -0.39768  -0.39192  -0.38665
 Alpha  occ. eigenvalues --   -0.37290  -0.35963  -0.35344  -0.34370  -0.33453
 Alpha  occ. eigenvalues --   -0.33304  -0.32538  -0.29722  -0.26517  -0.24922
 Alpha virt. eigenvalues --   -0.04569   0.03860   0.04419   0.05058   0.06882
 Alpha virt. eigenvalues --    0.07621   0.08283   0.08917   0.09959   0.10179
 Alpha virt. eigenvalues --    0.10731   0.11689   0.12186   0.13142   0.13972
 Alpha virt. eigenvalues --    0.14610   0.15081   0.15786   0.16079   0.17593
 Alpha virt. eigenvalues --    0.18342   0.19332   0.20615   0.21734   0.22446
 Alpha virt. eigenvalues --    0.22965   0.23851   0.25560   0.27144   0.28201
 Alpha virt. eigenvalues --    0.29226   0.29888   0.30597   0.33111   0.33482
 Alpha virt. eigenvalues --    0.34448   0.36472   0.37147   0.38842   0.40735
 Alpha virt. eigenvalues --    0.41656   0.42945   0.45007   0.46097   0.48023
 Alpha virt. eigenvalues --    0.50483   0.50938   0.52951   0.54241   0.55546
 Alpha virt. eigenvalues --    0.56003   0.56163   0.56694   0.57311   0.57498
 Alpha virt. eigenvalues --    0.57812   0.58210   0.58541   0.58921   0.59743
 Alpha virt. eigenvalues --    0.59971   0.60743   0.60925   0.61194   0.61564
 Alpha virt. eigenvalues --    0.62613   0.63459   0.64359   0.64655   0.65788
 Alpha virt. eigenvalues --    0.66705   0.67352   0.69956   0.71633   0.74711
 Alpha virt. eigenvalues --    0.77913   0.78725   0.80197   0.82994   0.85512
 Alpha virt. eigenvalues --    0.86772   0.89725   0.92516   0.94362   0.96393
 Alpha virt. eigenvalues --    0.98044   0.99885   1.02503   1.02681   1.03996
 Alpha virt. eigenvalues --    1.05641   1.07576   1.10322   1.12831   1.14824
 Alpha virt. eigenvalues --    1.17772   1.19416   1.21105   1.22122   1.24803
 Alpha virt. eigenvalues --    1.32884   1.35367   1.36447   1.36845   1.37708
 Alpha virt. eigenvalues --    1.38707   1.40140   1.41905   1.43806   1.44223
 Alpha virt. eigenvalues --    1.45824   1.46622   1.46724   1.48065   1.49093
 Alpha virt. eigenvalues --    1.49615   1.50166   1.50717   1.50905   1.53466
 Alpha virt. eigenvalues --    1.53971   1.55518   1.56502   1.57525   1.58398
 Alpha virt. eigenvalues --    1.58858   1.59047   1.61200   1.63147   1.63266
 Alpha virt. eigenvalues --    1.65417   1.67732   1.69217   1.69447   1.71572
 Alpha virt. eigenvalues --    1.72229   1.74478   1.75316   1.76210   1.76759
 Alpha virt. eigenvalues --    1.77493   1.78634   1.78953   1.81853   1.82137
 Alpha virt. eigenvalues --    1.87277   1.89467   1.90205   1.93304   1.93765
 Alpha virt. eigenvalues --    1.96922   1.97622   1.99538   2.00259   2.00844
 Alpha virt. eigenvalues --    2.05520   2.07348   2.08498   2.09364   2.10161
 Alpha virt. eigenvalues --    2.10927   2.13442   2.14538   2.18011   2.18617
 Alpha virt. eigenvalues --    2.21244   2.23684   2.25356   2.26379   2.28927
 Alpha virt. eigenvalues --    2.32049   2.33786   2.34943   2.35704   2.36227
 Alpha virt. eigenvalues --    2.38235   2.39056   2.41633   2.43078   2.43353
 Alpha virt. eigenvalues --    2.45797   2.46055   2.47729   2.47975   2.48985
 Alpha virt. eigenvalues --    2.49473   2.50559   2.50729   2.51136   2.52945
 Alpha virt. eigenvalues --    2.53120   2.54415   2.55726   2.57692   2.58672
 Alpha virt. eigenvalues --    2.60448   2.61801   2.63579   2.63711   2.66388
 Alpha virt. eigenvalues --    2.67173   2.67973   2.70006   2.71534   2.74359
 Alpha virt. eigenvalues --    2.76614   2.77345   2.78492   2.79650   2.82126
 Alpha virt. eigenvalues --    2.83546   2.84526   2.86385   2.89388   2.90342
 Alpha virt. eigenvalues --    2.92064   2.92946   2.94326   2.99647   3.04108
 Alpha virt. eigenvalues --    3.08438   3.09649   3.09813   3.13100   3.24391
 Alpha virt. eigenvalues --    3.31839   3.36856   3.39387   3.43627   3.44914
 Alpha virt. eigenvalues --    3.55001   3.70966   3.76445   3.77185   3.77564
 Alpha virt. eigenvalues --    3.78704   3.79376   3.80769   3.81350   3.81484
 Alpha virt. eigenvalues --    3.84275   3.88912   3.89981   3.98365   4.06637
 Alpha virt. eigenvalues --    4.17626   4.24820   4.29141   4.32245   4.44028
 Alpha virt. eigenvalues --    4.63817   4.71486   4.84447   4.89842   5.11412
 Alpha virt. eigenvalues --    6.05042  23.74076  23.81107  23.82032  23.87501
 Alpha virt. eigenvalues --   23.91998  23.92627  23.93696  23.94088  24.07706
 Alpha virt. eigenvalues --   49.72605  49.75861
  Beta  occ. eigenvalues --  -19.19006 -19.17657 -10.21134 -10.19131 -10.17760
  Beta  occ. eigenvalues --  -10.17595 -10.17227 -10.17173 -10.16089 -10.16046
  Beta  occ. eigenvalues --  -10.15945  -1.16149  -0.84023  -0.81319  -0.76909
  Beta  occ. eigenvalues --   -0.74927  -0.69260  -0.68863  -0.68490  -0.60954
  Beta  occ. eigenvalues --   -0.56920  -0.56659  -0.51104  -0.48171  -0.47278
  Beta  occ. eigenvalues --   -0.45692  -0.45046  -0.43670  -0.43250  -0.41360
  Beta  occ. eigenvalues --   -0.40632  -0.39815  -0.39237  -0.39061  -0.38650
  Beta  occ. eigenvalues --   -0.37289  -0.35970  -0.35340  -0.34372  -0.33395
  Beta  occ. eigenvalues --   -0.33303  -0.32531  -0.28888  -0.23742
  Beta virt. eigenvalues --   -0.09164  -0.04381   0.03865   0.04445   0.05071
  Beta virt. eigenvalues --    0.06904   0.07667   0.08287   0.08937   0.09969
  Beta virt. eigenvalues --    0.10211   0.10791   0.11801   0.12200   0.13150
  Beta virt. eigenvalues --    0.14042   0.14630   0.15119   0.15848   0.16312
  Beta virt. eigenvalues --    0.17731   0.18577   0.19637   0.20993   0.21799
  Beta virt. eigenvalues --    0.22525   0.23246   0.23891   0.25798   0.27201
  Beta virt. eigenvalues --    0.28248   0.29254   0.29917   0.30587   0.33156
  Beta virt. eigenvalues --    0.33547   0.34468   0.36521   0.37180   0.38873
  Beta virt. eigenvalues --    0.40781   0.41714   0.43019   0.45074   0.46088
  Beta virt. eigenvalues --    0.48004   0.50559   0.50964   0.53049   0.54286
  Beta virt. eigenvalues --    0.55574   0.56071   0.56183   0.56707   0.57309
  Beta virt. eigenvalues --    0.57539   0.57827   0.58229   0.58559   0.58956
  Beta virt. eigenvalues --    0.59845   0.60041   0.60802   0.60929   0.61221
  Beta virt. eigenvalues --    0.61625   0.62625   0.63533   0.64410   0.64678
  Beta virt. eigenvalues --    0.66032   0.66728   0.67355   0.69958   0.71716
  Beta virt. eigenvalues --    0.74993   0.78567   0.79888   0.81964   0.83322
  Beta virt. eigenvalues --    0.86250   0.87167   0.90746   0.93381   0.94565
  Beta virt. eigenvalues --    0.96641   0.98162   0.99965   1.02716   1.03361
  Beta virt. eigenvalues --    1.04403   1.05777   1.07932   1.10417   1.12869
  Beta virt. eigenvalues --    1.14845   1.17784   1.19459   1.21113   1.22150
  Beta virt. eigenvalues --    1.24833   1.32886   1.35840   1.36736   1.37250
  Beta virt. eigenvalues --    1.37741   1.38830   1.40260   1.41969   1.43864
  Beta virt. eigenvalues --    1.44236   1.45842   1.46625   1.46781   1.48065
  Beta virt. eigenvalues --    1.49129   1.49619   1.50279   1.50746   1.50933
  Beta virt. eigenvalues --    1.53517   1.53987   1.55671   1.56497   1.57642
  Beta virt. eigenvalues --    1.58393   1.58879   1.59079   1.61340   1.63173
  Beta virt. eigenvalues --    1.63315   1.65441   1.67735   1.69261   1.69488
  Beta virt. eigenvalues --    1.71559   1.72286   1.74454   1.75309   1.76215
  Beta virt. eigenvalues --    1.76772   1.77516   1.78632   1.78959   1.81946
  Beta virt. eigenvalues --    1.82134   1.87315   1.89465   1.90223   1.93336
  Beta virt. eigenvalues --    1.93816   1.96940   1.97641   1.99638   2.00275
  Beta virt. eigenvalues --    2.00874   2.05468   2.07415   2.08506   2.09364
  Beta virt. eigenvalues --    2.10175   2.10949   2.13486   2.14601   2.18035
  Beta virt. eigenvalues --    2.18617   2.21310   2.23725   2.25383   2.26415
  Beta virt. eigenvalues --    2.28923   2.32097   2.34759   2.35720   2.36064
  Beta virt. eigenvalues --    2.37466   2.38601   2.39260   2.41711   2.43092
  Beta virt. eigenvalues --    2.43704   2.45805   2.46179   2.47777   2.48019
  Beta virt. eigenvalues --    2.49037   2.49486   2.50616   2.50753   2.51237
  Beta virt. eigenvalues --    2.53001   2.53133   2.54451   2.55825   2.57715
  Beta virt. eigenvalues --    2.58758   2.60676   2.61943   2.63572   2.63736
  Beta virt. eigenvalues --    2.66390   2.67696   2.68787   2.70464   2.72573
  Beta virt. eigenvalues --    2.74460   2.76878   2.77750   2.80032   2.81388
  Beta virt. eigenvalues --    2.82580   2.83812   2.85308   2.86990   2.89629
  Beta virt. eigenvalues --    2.90500   2.92403   2.94317   2.96778   2.99878
  Beta virt. eigenvalues --    3.04368   3.08652   3.09703   3.10622   3.13455
  Beta virt. eigenvalues --    3.25968   3.32147   3.39600   3.41596   3.44512
  Beta virt. eigenvalues --    3.45322   3.55247   3.72306   3.76443   3.77185
  Beta virt. eigenvalues --    3.77567   3.78712   3.79373   3.80793   3.81365
  Beta virt. eigenvalues --    3.81495   3.84277   3.89233   3.90785   3.98364
  Beta virt. eigenvalues --    4.06662   4.17614   4.24798   4.29141   4.32238
  Beta virt. eigenvalues --    4.43986   4.70001   4.72748   4.86175   4.96360
  Beta virt. eigenvalues --    5.12921   6.06705  23.74040  23.81108  23.82024
  Beta virt. eigenvalues --   23.87499  23.91991  23.92622  23.93695  23.94088
  Beta virt. eigenvalues --   24.07668  49.74275  49.77373
          Condensed to atoms (all electrons):
              1          2          3          4          5          6
     1  C    4.877723   0.403959   0.400447   0.402589   0.363260  -0.039619
     2  H    0.403959   0.539552  -0.026436  -0.025828  -0.029062  -0.004445
     3  H    0.400447  -0.026436   0.593226  -0.031534  -0.037985   0.008641
     4  H    0.402589  -0.025828  -0.031534   0.585708  -0.033827  -0.006481
     5  C    0.363260  -0.029062  -0.037985  -0.033827   5.006966   0.414232
     6  H   -0.039619  -0.004445   0.008641  -0.006481   0.414232   0.588156
     7  C    0.005278   0.000088   0.000347  -0.000416  -0.060680  -0.000683
     8  H   -0.000707   0.000988  -0.000068   0.000006  -0.001563  -0.000108
     9  H    0.000456  -0.000099   0.000030  -0.000016  -0.003897   0.004151
    10  C   -0.000234  -0.000045   0.000005   0.000011   0.005028   0.000380
    11  H   -0.000027   0.000005  -0.000005   0.000000  -0.000338  -0.000051
    12  H    0.000018  -0.000012  -0.000006   0.000001   0.000457   0.000016
    13  C    0.000004   0.000001   0.000001   0.000000  -0.000180   0.000031
    14  H    0.000000   0.000001   0.000000   0.000000  -0.000018  -0.000012
    15  C    0.000000   0.000000   0.000000   0.000000   0.000003   0.000000
    16  H    0.000000   0.000000   0.000000   0.000000   0.000000   0.000000
    17  H    0.000000   0.000000   0.000000   0.000000   0.000000   0.000000
    18  H    0.000000   0.000000   0.000000   0.000000   0.000000   0.000000
    19  C   -0.070718   0.006408  -0.005208  -0.004928   0.355193  -0.039876
    20  H   -0.005101  -0.000130   0.005189  -0.000816  -0.037162   0.009086
    21  H   -0.004630   0.000191  -0.000766   0.003678  -0.031574  -0.006772
    22  H    0.008112  -0.000446  -0.000151   0.000041  -0.030919  -0.005724
    23  C    0.000000   0.000000   0.000000   0.000000   0.000002  -0.000012
    24  H    0.000000   0.000000   0.000000   0.000000  -0.000002  -0.000002
    25  H    0.000000   0.000000   0.000000   0.000000  -0.000001   0.000001
    26  H   -0.000001   0.000000   0.000000   0.000000  -0.000003   0.000005
    27  C   -0.058205  -0.007553  -0.007677   0.008644   0.346755  -0.050131
    28  H   -0.005488   0.000065   0.004209  -0.000158  -0.037615   0.006863
    29  O   -0.004929   0.009938  -0.000096   0.000136  -0.007357  -0.000468
    30  O    0.000107  -0.000818   0.000005  -0.000019   0.002654   0.001701
              7          8          9         10         11         12
     1  C    0.005278  -0.000707   0.000456  -0.000234  -0.000027   0.000018
     2  H    0.000088   0.000988  -0.000099  -0.000045   0.000005  -0.000012
     3  H    0.000347  -0.000068   0.000030   0.000005  -0.000005  -0.000006
     4  H   -0.000416   0.000006  -0.000016   0.000011   0.000000   0.000001
     5  C   -0.060680  -0.001563  -0.003897   0.005028  -0.000338   0.000457
     6  H   -0.000683  -0.000108   0.004151   0.000380  -0.000051   0.000016
     7  C    5.149999   0.227951   0.402314   0.344120  -0.039888  -0.040339
     8  H    0.227951   0.481502  -0.014753  -0.025500   0.003896  -0.004439
     9  H    0.402314  -0.014753   0.548435  -0.033671  -0.004105   0.007123
    10  C    0.344120  -0.025500  -0.033671   4.941662   0.401448   0.408780
    11  H   -0.039888   0.003896  -0.004105   0.401448   0.598361  -0.032538
    12  H   -0.040339  -0.004439   0.007123   0.408780  -0.032538   0.588697
    13  C   -0.055722  -0.001315  -0.003903   0.367504  -0.042404  -0.038015
    14  H   -0.004405   0.002991   0.000160  -0.046263   0.009498  -0.005157
    15  C    0.007902   0.000220  -0.000149  -0.066796  -0.004091  -0.006328
    16  H    0.000001   0.000014   0.000014  -0.006942   0.005434  -0.000712
    17  H   -0.000440  -0.000015   0.000019   0.008344  -0.000330   0.000101
    18  H    0.000002   0.000032  -0.000012  -0.005614  -0.000588   0.004623
    19  C   -0.008635  -0.000020  -0.000498  -0.000526   0.000433  -0.000075
    20  H   -0.000027  -0.000011   0.000077   0.000150  -0.000008   0.000008
    21  H    0.000100   0.000014  -0.000174   0.000030  -0.000030   0.000002
    22  H    0.003405   0.000004   0.001684  -0.000501   0.000064   0.000000
    23  C   -0.007609  -0.001328   0.002164  -0.066442  -0.008666   0.008512
    24  H   -0.000975   0.000050   0.000438  -0.005816   0.005797  -0.000067
    25  H   -0.000122  -0.000031  -0.000155   0.008278  -0.000206  -0.000431
    26  H    0.002921   0.000533   0.000683  -0.006588  -0.000031  -0.000217
    27  C    0.467414  -0.010744  -0.039034  -0.056288  -0.007003  -0.004626
    28  H   -0.037860   0.001254   0.006811  -0.006822   0.000343   0.004833
    29  O   -0.021462  -0.064425   0.002169   0.001560  -0.000166   0.001038
    30  O   -0.068355   0.132176  -0.000794   0.003309  -0.000085   0.001166
             13         14         15         16         17         18
     1  C    0.000004   0.000000   0.000000   0.000000   0.000000   0.000000
     2  H    0.000001   0.000001   0.000000   0.000000   0.000000   0.000000
     3  H    0.000001   0.000000   0.000000   0.000000   0.000000   0.000000
     4  H    0.000000   0.000000   0.000000   0.000000   0.000000   0.000000
     5  C   -0.000180  -0.000018   0.000003   0.000000   0.000000   0.000000
     6  H    0.000031  -0.000012   0.000000   0.000000   0.000000   0.000000
     7  C   -0.055722  -0.004405   0.007902   0.000001  -0.000440   0.000002
     8  H   -0.001315   0.002991   0.000220   0.000014  -0.000015   0.000032
     9  H   -0.003903   0.000160  -0.000149   0.000014   0.000019  -0.000012
    10  C    0.367504  -0.046263  -0.066796  -0.006942   0.008344  -0.005614
    11  H   -0.042404   0.009498  -0.004091   0.005434  -0.000330  -0.000588
    12  H   -0.038015  -0.005157  -0.006328  -0.000712   0.000101   0.004623
    13  C    5.052493   0.409237   0.377705  -0.039081  -0.031726  -0.032725
    14  H    0.409237   0.600251  -0.037547   0.009202  -0.006602  -0.006290
[...]
 18999,0.00007505,0.00079738,0.00067034,0.00088801,-0.00074605,0.000677
 64,-0.00063625,0.00009240,0.00038769,-0.00006824,-0.00218941,-0.017526
 17,0.00202713,-0.00059780,0.00004442,-0.00342809,-0.00023419,0.0005151
 5,0.00101949,0.00057291,0.00041859,-0.00077616,-0.00003803,-0.00003472
 ,-0.00002340,0.00005537,0.00044984,-0.00011790,-0.00005552,-0.00004391
 ,0.00000680,0.00000328,0.00000197,-0.00000447,-0.00000637,0.00002472,0
 .00000219,0.00001012,0.00000791,0.00000906,-0.02803263,-0.28934201,0.0
 4057504,0.03224933,0.31794402,0.00000116,-0.00000687,-0.00000141,-0.00
 000303,-0.00000172,-0.00000146,-0.00000103,0.00000022,0.00000161,0.000
 00578,0.00000134,-0.00000128,-0.00001281,-0.00002227,-0.00000664,0.000
 00065,0.00000575,0.00000344,0.00010485,0.00003484,0.00005290,0.0001116
 5,-0.00008102,-0.00011815,-0.00001772,0.00008746,-0.00003397,0.0006815
 0,-0.00080858,0.00170277,-0.00005264,0.00079148,-0.00007914,0.00036421
 ,0.00024428,0.00016486,-0.00331950,-0.02924261,0.00392784,-0.00137712,
 -0.00299633,-0.00479261,-0.00065045,-0.00069649,0.00183677,0.00025245,
 0.00054294,-0.00016728,0.00007088,0.00006359,-0.00012123,-0.00011760,0
 .00037179,0.00021735,0.00002873,0.00001875,0.00000040,-0.00000558,-0.0
 0000372,-0.00000180,0.00000574,-0.00000833,-0.00000141,-0.00000729,-0.
 00000107,0.00000374,0.00515713,0.04082017,-0.05370318,-0.00421804,-0.0
 4213948,0.05757847,-0.00001384,0.00002771,0.00002320,0.00001343,-0.000
 00681,-0.00000300,0.00000260,-0.00000276,-0.00000772,-0.00003416,-0.00
 000002,0.00000160,0.00002700,-0.00001833,-0.00001961,0.00000261,0.0000
 0752,-0.00000184,-0.00005389,0.00040289,-0.00009984,-0.00000139,0.0002
 1173,-0.00001495,0.00024421,-0.00022631,-0.00014411,0.00090370,-0.0017
 5599,-0.00078853,0.00007358,0.00008095,0.00011432,-0.00038773,0.000241
 89,-0.00030962,-0.00678842,0.00259078,-0.00203782,-0.00002934,-0.00044
 223,0.00001455,0.00065264,0.00019088,0.00113943,0.00001183,-0.00004845
 ,0.00000817,0.00072353,-0.00003457,-0.00023266,0.00018292,-0.00023599,
 0.00007217,-0.00001746,-0.00002523,0.00002985,0.00000366,-0.00000246,-
 0.00001240,-0.00002977,0.00002003,0.00000323,0.00000937,-0.00002851,-0
 .00000597,-0.23622352,0.08041218,-0.08275841,0.00418130,-0.00135217,0.
 00222712,0.25613982,-0.00000711,0.00000934,-0.00000127,0.00000017,0.00
 000246,0.00000036,0.00000174,-0.00000127,0.00000215,-0.00000008,-0.000
 00274,-0.00000040,-0.00000141,-0.00002426,0.00002081,-0.00000861,0.000
 00167,0.00000461,0.00015131,0.00002865,-0.00015392,0.00003359,0.000050
 57,0.00001670,-0.00006294,-0.00007421,0.00010725,-0.00014891,-0.001359
 36,-0.00261640,-0.00014064,0.00033762,-0.00034251,-0.00064517,0.000598
 70,-0.00049249,-0.01449285,0.00551997,-0.00634266,-0.00015060,0.000612
 96,0.00076594,-0.00033784,0.00032095,0.00049051,0.00019186,-0.00007923
 ,0.00002661,0.00012941,0.00024240,0.00013106,-0.00022812,-0.00007954,0
 .00015853,-0.00001763,-0.00001873,-0.00001614,0.00000214,0.00000206,0.
 00000290,0.00000753,0.00000401,0.00000081,0.00000060,0.00001026,0.0000
 0728,0.08083852,-0.08131075,0.03560618,0.02790141,-0.01096372,0.011217
 02,-0.08839433,0.08505097,-0.00001341,0.00001408,0.00001756,0.00000615
 ,-0.00000097,-0.00000180,0.00000589,-0.00000007,-0.00000043,-0.0000156
 9,-0.00000106,-0.00000033,-0.00001087,-0.00000949,-0.00001348,-0.00002
 347,-0.00000094,0.00001546,0.00066089,-0.00015992,-0.00036902,-0.00003
 470,0.00001247,-0.00011592,-0.00027156,0.00023429,0.00030153,0.0003609
 3,-0.00403356,-0.00488466,0.00031978,-0.00008574,0.00020956,-0.0017585
 8,0.00040291,-0.00078499,-0.02390633,0.01174675,-0.01126860,0.00037201
 ,-0.00011575,0.00108658,-0.00139688,0.00104901,0.00111987,0.00005141,0
 .00001093,-0.00011186,0.00101314,-0.00044116,-0.00024234,0.00020079,-0
 .00012788,0.00048421,-0.00002659,-0.00001709,0.00000658,0.00001063,-0.
 00000015,0.00000367,-0.00001036,0.00001027,0.00000362,0.00000567,0.000
 00262,-0.00000922,-0.08171381,0.03488484,-0.08219702,-0.00414641,0.001
 90756,-0.00278581,0.09140659,-0.03628719,0.09010484,0.00001235,-0.0000
 1113,-0.00001728,-0.00000545,0.00000232,0.00000262,-0.00000386,0.00000
 047,-0.00000132,0.00001591,0.00000120,0.00000128,0.00001719,0.00000792
 ,0.00002948,0.00000678,0.00000238,-0.00000752,-0.00084858,0.00008462,-
 0.00024522,-0.00003086,-0.00018164,0.00004108,-0.00113386,-0.00005049,
 -0.00113205,0.00017288,0.00053621,0.00047381,-0.00002322,0.00000770,-0
 .00004960,0.00015306,-0.00009818,0.00015977,0.00631373,0.00201782,-0.0
 0599607,0.00038022,0.00052245,0.00061727,0.00013025,-0.00014989,-0.001
 00585,-0.00006548,-0.00000632,-0.00013401,0.00037474,-0.00025121,-0.00
 016492,0.00042355,-0.00019888,-0.00020072,0.00001862,0.00001611,-0.000
 01156,-0.00000647,-0.00000022,-0.00000384,0.00001267,-0.00000986,-0.00
 000037,-0.00000655,0.00000469,0.00000750,-0.18102766,-0.02509912,0.128
 16245,-0.00246832,-0.00031983,0.00092812,-0.01977699,-0.00461223,0.018
 97975,0.19746377,0.00000602,0.00000228,-0.00001412,-0.00001246,-0.0000
 0830,-0.00000100,-0.00000348,-0.00000340,-0.00000011,0.00000437,-0.000
 00101,0.00000075,-0.00000309,-0.00002319,0.00001447,0.00001190,0.00002
 049,-0.00000623,-0.00015134,0.00026407,0.00039922,-0.00015824,0.000198
 79,-0.00021717,0.00024125,0.00016067,-0.00006084,-0.00004835,0.0002907
 0,0.00068426,-0.00010027,0.00000782,-0.00000826,0.00013393,-0.00009293
 ,0.00000961,0.01294170,0.00144567,-0.01022624,0.00052170,0.00046772,0.
 00057301,-0.00126701,-0.00132059,-0.00269513,0.00015332,0.00030518,-0.
 00036680,-0.00035499,-0.00003299,0.00017071,0.00058465,0.00046971,-0.0
 0096361,0.00005046,0.00003525,-0.00000228,-0.00000916,-0.00000687,-0.0
 0000801,0.00000123,-0.00001555,-0.00000006,-0.00000735,-0.00002164,0.0
 0000668,-0.02525181,-0.05191887,0.02404840,-0.02369481,-0.00319341,0.0
 2175404,0.00865500,0.00109462,-0.00902127,0.02776233,0.05224694,0.0000
 0557,-0.00001900,-0.00002558,-0.00001676,0.00000383,-0.00000068,0.0000
 0102,0.00000017,0.00001413,0.00003058,0.00000001,-0.00000270,-0.000059
 34,0.00000207,-0.00000480,-0.00001245,-0.00000609,0.00001928,0.0006395
 6,-0.00061903,-0.00025926,-0.00008984,-0.00022197,-0.00025032,-0.00109
 036,0.00063790,0.00031139,0.00120854,0.00047125,0.00051212,-0.00007654
 ,-0.00003924,-0.00003726,-0.00000153,-0.00012159,0.00015691,0.02070722
 ,0.00552996,-0.01759839,-0.00011280,-0.00015151,0.00121324,-0.00317011
 ,-0.00357171,-0.00431887,-0.00026683,0.00008171,0.00027986,0.00004215,
 -0.00010409,0.00026705,0.00147437,-0.00000468,-0.00127175,0.00001102,0
 .00003032,-0.00004035,0.00000656,0.00000258,0.00002461,0.00002774,-0.0
 0002436,0.00000005,-0.00000841,0.00003613,-0.00000517,0.12674832,0.023
 37402,-0.16862860,0.00305320,0.00087741,-0.00372105,-0.00856429,-0.002
 33321,0.00897953,-0.14008472,-0.02404952,0.18370151,-0.03350145,0.0054
 3464,0.00948549,0.00141776,0.00095582,0.00052615,0.00174982,0.00079195
 ,0.00133902,-0.00289641,-0.00285958,-0.00110715,-0.16605411,0.01779419
 ,0.04502353,0.00115237,0.00201872,0.00096718,-0.30084764,-0.07008469,-
 0.08360688,0.00327593,0.06478319,-0.01245923,0.00029240,0.00698202,-0.
 00373003,-0.03356570,0.00837468,-0.00993766,0.00310700,0.00045218,-0.0
 0267853,0.00169841,-0.00050340,-0.00278040,-0.00250619,-0.00183236,0.0
 0267416,-0.00016121,0.00018616,0.00015071,-0.00050170,0.00058913,-0.00
 048757,0.00000673,-0.00008096,-0.00005103,-0.00012286,-0.00004564,0.00
 026070,-0.00002692,0.00001149,-0.00005230,-0.00814709,0.01825124,0.000
 80134,0.00028120,-0.00108889,0.00091546,-0.00030121,-0.00167352,0.0002
 8144,0.00052102,-0.00283360,-0.00074538,-0.00008991,-0.00008319,0.0005
 9616,-0.00005030,0.00003544,-0.00011886,0.00033368,-0.00004867,-0.0001
 8095,-0.00008367,-0.00001532,-0.00070912,0.61227390,-0.01342581,0.0063
 1092,0.00946244,-0.00134916,-0.00042470,0.00037994,0.00018539,0.000400
 67,-0.00015042,-0.00333909,-0.00239909,-0.00157830,0.02319257,-0.06687
 373,-0.01990055,-0.00308713,-0.00032543,0.00064692,-0.01791532,-0.0708
 7914,-0.01912745,0.01510914,0.02119113,0.00420275,-0.01480653,0.002350
 83,-0.00948126,-0.00496181,-0.00029072,0.00123141,-0.00029525,0.000782
 23,-0.00057847,0.00087898,0.00049028,-0.00015285,0.00158735,0.00116064
 ,-0.00090059,-0.00024688,0.00000917,-0.00002283,0.00047087,-0.00001932
 ,0.00038905,-0.00000276,-0.00002582,-0.00002465,0.00022029,-0.00000407
 ,-0.00008816,-0.00003994,-0.00000160,-0.00005180,0.02723433,-0.0176254
 9,-0.01251074,-0.00003139,0.00093804,-0.00035593,0.00142235,-0.0047599
 0,0.00068679,0.00096218,0.00044767,-0.00031695,0.00005219,-0.00005828,
 -0.00014756,0.00004141,-0.00000975,-0.00003561,0.00004254,0.00002490,0
 .00011092,-0.00011732,-0.00006082,0.00000630,-0.01736697,0.18800167,-0
 .00909582,0.00550779,0.00640545,-0.00010021,-0.00034375,0.00022993,-0.
 00196930,0.00023730,0.00031632,-0.00362278,-0.00180086,-0.00068097,0.0
 4746919,-0.01630709,-0.11608234,0.03043989,-0.01133628,-0.01805516,-0.
 10393226,-0.04343282,-0.15033020,-0.00065789,0.02774918,-0.01199575,-0
 .02702438,0.00303617,-0.01536698,0.01489533,0.00364735,0.01263077,0.00
 292903,0.00029025,-0.00143956,0.00198391,-0.00019049,0.00026285,0.0020
 3900,0.00153662,-0.00424030,-0.00005039,-0.00019571,0.00012823,0.00132
 567,-0.00054625,0.00124797,-0.00011510,0.00001211,0.00002400,0.0006595
 7,-0.00007943,-0.00035370,-0.00009363,-0.00005536,-0.00004833,-0.00344
 195,-0.00409339,0.00273639,-0.00135401,0.00171133,0.00039650,-0.001185
 78,0.00219779,0.00051521,0.00064907,-0.00027993,-0.00022398,-0.0002115
 3,0.00002651,-0.00084718,-0.00004318,-0.00000084,-0.00000312,-0.000059
 12,-0.00000706,0.00033573,-0.00026488,-0.00009190,0.00052111,0.0717980
 6,0.09918927,0.62094282,0.00203392,0.00016039,0.00126042,-0.00015218,-
 0.00018761,0.00004666,-0.00035428,0.00016675,-0.00081887,0.00022797,0.
 00003275,-0.00041019,0.00178113,0.00302461,0.02587371,-0.00403723,0.00
 175375,0.00235669,0.00100610,-0.00743506,-0.02654322,-0.00016573,0.000
 44990,-0.00030966,-0.00404416,0.00087199,-0.00249493,0.00189799,-0.000
 98007,-0.00188212,-0.00023408,-0.00010116,0.00009141,-0.00030942,0.000
 40455,0.00077313,0.00000643,0.00017973,0.00012613,0.00004050,-0.000028
 88,-0.00001442,-0.00001525,-0.00002707,0.00003289,-0.00000712,0.000004
 93,-0.00000356,0.00003094,-0.00000016,0.00000564,-0.00003530,0.0000260
 1,0.00004240,0.00032986,-0.00083163,0.00015328,0.00006049,0.00035572,-
 0.00047754,-0.00004244,0.00007256,-0.00028426,-0.00000064,0.00005223,-
 0.00004759,0.00005416,-0.00000203,-0.00020597,0.00001044,-0.00000460,0
 .00000468,-0.00008413,0.00001272,0.00012517,-0.00005276,-0.00003034,0.
 00023408,-0.05610229,0.00058753,-0.00959569,0.05812652,0.00004687,0.00
 001318,0.00051716,0.00002021,-0.00011084,0.00015419,0.00020878,0.00025
 153,0.00022730,0.00003853,-0.00010668,0.00000558,-0.00110392,0.0033580
 5,-0.00985640,0.00151710,0.00017627,-0.00004923,-0.00191261,0.00822623
 ,-0.00402649,-0.00224749,-0.00327188,-0.00043207,-0.00022517,0.0052218
 9,-0.00260116,0.00262684,-0.00353184,0.00070022,-0.00092722,-0.0004376
 9,0.00025119,-0.00030762,0.00018043,-0.00012735,0.00018764,0.00001467,
 0.00005538,0.00000321,0.00000799,-0.00003260,-0.00002461,0.00002099,0.
 00001821,0.00001902,0.00001322,-0.00001444,-0.00000595,0.00001699,-0.0
 0000450,0.00000699,-0.00000020,0.00000016,-0.00102182,0.00106350,0.000
 44308,0.00016590,-0.00029455,0.00029327,0.00002614,0.00017135,0.000207
 14,0.00001859,-0.00004627,-0.00007278,0.00007543,-0.00001470,-0.000005
 93,-0.00002085,-0.00001269,0.00002545,-0.00001689,0.00000765,0.0000176
 6,-0.00000012,0.00000513,0.00005706,0.00039964,-0.04648450,-0.05791967
 ,0.00084459,0.04091233,-0.00117416,-0.00010489,0.00076331,0.00020013,0
 .00014577,-0.00005066,0.00081948,0.00027867,0.00051370,-0.00002578,0.0
 0002000,0.00033193,-0.00224974,-0.00178275,-0.01043337,0.00171804,-0.0
 0128897,-0.00023801,0.00155862,-0.00647824,-0.01063632,0.00040953,0.00
 002434,0.00014358,-0.00198958,-0.00039607,0.00013945,0.00147636,0.0011
 8865,0.00046710,0.00003328,0.00016134,0.00001638,-0.00083849,0.0001807
 6,0.00098465,-0.00021027,0.00014438,0.00030044,-0.00000186,-0.00000119
 ,-0.00000230,-0.00005585,0.00004956,-0.00005778,0.00000216,-0.00000430
 ,-0.00000528,-0.00001800,-0.00000981,0.00001696,-0.00000835,0.00000915
 ,0.00002136,0.00025650,0.00011058,-0.00038942,0.00021797,-0.00051642,0
 .00027486,0.00008263,-0.00030312,0.00022097,-0.00000950,0.00006071,0.0
 0001029,0.00022324,-0.00001909,-0.00009444,0.00000238,0.00000718,-0.00
 000157,-0.00000649,0.00002723,0.00008212,-0.00005018,-0.00004806,0.000
 08406,-0.01260426,-0.05879908,-0.31542615,0.01217889,0.06600630,0.3327
 6870,-0.00175500,-0.00012397,-0.00034140,-0.00131587,0.00238524,0.0002
 0681,-0.00019854,0.00020904,-0.00018566,0.00032626,0.00068686,-0.00009
 481,-0.00200770,-0.00058269,0.00089519,0.00098076,-0.00030174,-0.00107
 160,-0.00986971,0.02004823,-0.01394093,-0.03826007,-0.04186843,-0.0205
 7405,-0.00181527,-0.00281298,0.00132266,0.00026376,-0.00255751,-0.0014
 8123,-0.00016928,0.00010205,0.00052949,0.00016100,-0.00005983,0.000292
 32,0.00036676,-0.00051493,0.00041926,-0.00010320,-0.00010572,-0.000268
 76,-0.00019965,-0.00002780,-0.00022957,0.00000405,0.00006530,0.0000388
 3,-0.00020360,0.00003792,0.00001850,0.00002125,-0.00003541,0.00010382,
 0.00185972,0.00083126,-0.00122040,-0.00026006,0.00040245,0.00001134,0.
 00050142,-0.00093896,-0.00022641,-0.00013974,0.00024973,0.00003300,-0.
 00000016,0.00028299,-0.00008941,0.00006686,0.00003146,0.00003902,-0.00
 022905,-0.00001325,-0.00004227,0.00010526,0.00000722,0.00027520,0.0014
 8718,0.01766988,0.00921949,0.00034265,-0.00340020,0.00050057,0.3961039
 9,-0.00022623,0.00015086,0.00071218,0.00142055,0.00000502,0.00009820,0
 .00026125,-0.00015231,0.00010439,-0.00036314,0.00025960,-0.00013217,0.
 00253919,-0.00714280,0.00048497,-0.00075981,0.00032303,0.00074886,-0.0
 2451643,0.00899818,-0.01968302,-0.03379292,-0.03758882,-0.01042898,-0.
 00039117,-0.00471203,0.00265667,0.00146688,-0.00602253,-0.00024975,-0.
 00191114,-0.00009365,0.00152689,-0.00026124,0.00043311,0.00039133,0.00
 080346,-0.00028124,0.00040232,0.00006401,-0.00015053,-0.00012731,-0.00
 015445,-0.00010837,-0.00017906,0.00000083,0.00004140,0.00003159,-0.000
 17130,0.00004394,0.00000436,0.00003004,0.00000550,0.00006705,-0.000432
 05,0.00099922,-0.00021465,0.00014413,-0.00013497,0.00009939,-0.0002343
 9,0.00006195,0.00014067,0.00008627,-0.00006508,0.00001070,0.00006208,0
 .00012882,-0.00004337,0.00003035,-0.00001743,0.00005097,-0.00020934,0.
 00000684,-0.00003055,0.00013040,0.00005019,0.00027212,0.00219621,0.022
 97748,-0.00628958,0.00054911,-0.00526335,0.00146220,-0.00236517,0.0668
 1431,-0.00061750,0.00018077,-0.00021514,0.00018367,-0.00035247,-0.0000
 0861,0.00006789,-0.00026762,0.00011131,0.00030658,0.00008427,0.0001521
 4,-0.00086299,-0.00615630,0.00252171,0.00043487,-0.00008187,-0.0000182
 2,-0.00257542,0.01205392,-0.00236416,-0.02361290,-0.01670439,-0.000231
 48,-0.00091925,-0.00097447,0.00022508,-0.00028230,-0.00080743,-0.00123
 453,0.00015566,0.00012668,0.00006698,0.00006966,-0.00016331,0.00019569
 ,0.00010270,-0.00028764,0.00022323,-0.00020506,-0.00004060,-0.00011935
 ,-0.00011087,0.00002050,-0.00012337,0.00001767,0.00005202,0.00001254,-
 0.00009270,0.00001004,0.00002017,-0.00000717,-0.00001843,0.00007288,0.
 00274961,0.00061092,-0.00141902,-0.00009154,0.00007178,0.00015903,0.00
 040575,-0.00121903,-0.00001534,-0.00023040,0.00005672,-0.00005250,0.00
 000964,0.00010807,-0.00004300,0.00004246,0.00003918,0.00001116,-0.0000
 9019,-0.00000830,-0.00001595,0.00002360,0.00000443,0.00011086,0.008815
 72,0.00893120,-0.00930973,0.00002821,0.00466804,0.00067380,0.24462453,
 -0.01467815,0.17530260,-0.00019502,0.00025876,0.00071981,-0.00010873,0
 .00044440,-0.00040827,0.00022089,0.00001579,0.00001440,-0.00043180,0.0
 0016601,-0.00010086,0.00194499,0.00430251,-0.00343528,-0.00081321,0.00
 002609,0.00134596,0.01496464,-0.04218068,0.01735540,-0.00426814,0.0365
 0187,0.00285755,0.00119685,0.00204754,-0.00117971,0.00045593,0.0034481
 2,-0.00011959,0.00001055,-0.00024469,-0.00036898,-0.00024647,0.0002360
 0,-0.00008643,-0.00051314,0.00163733,-0.00057564,-0.00025576,-0.000623
 00,0.00046784,0.00023607,-0.00010995,0.00013785,-0.00005149,-0.0001466
 3,0.00003753,0.00014467,-0.00000671,-0.00001494,-0.00001074,0.00005839
 ,-0.00008658,-0.00268904,-0.00048776,0.00207260,0.00026028,-0.00054854
 ,0.00003791,-0.00045487,0.00138300,0.00029883,0.00025886,0.00011608,0.
 00007310,0.00005348,-0.00036979,0.00020956,-0.00008121,-0.00014371,-0.
 00008200,0.00016379,0.00003940,0.00003306,-0.00006723,0.00003294,-0.00
 020203,-0.02263875,-0.01267164,-0.02059030,-0.00031209,0.00500896,-0.0
 0043725,-0.34606402,0.05600401,-0.22833993,0.35929070,0.00052635,-0.00
 109909,-0.00114545,0.00062076,0.00010632,0.00002845,-0.00020011,0.0000
 8045,-0.00001168,0.00051343,0.00028036,0.00017507,-0.00011072,-0.00118
 492,0.00085927,0.00087050,-0.00008627,-0.00079133,0.04098036,-0.087601
 98,0.05003453,0.02814832,0.03418012,0.00241774,-0.00025052,0.00542213,
 -0.00331150,0.00117425,0.00581857,-0.00267335,0.00002556,0.00014621,-0
 .00070946,-0.00011593,-0.00041709,0.00049539,-0.00078935,-0.00096179,0
 .00089456,-0.00111790,0.00117981,-0.00015417,-0.00045308,0.00085983,-0
 .00040155,0.00031410,0.00004869,-0.00015421,-0.00022405,-0.00004937,0.
 00011393,0.00004103,-0.00007300,0.00000249,0.00225814,0.00102861,-0.00
 150332,-0.00030790,0.00022015,0.00011044,0.00065654,-0.00079839,0.0000
 7557,-0.00011815,0.00070705,0.00024009,-0.00039588,0.00025802,-0.00007
 861,0.00018443,0.00019675,0.00001402,-0.00008369,-0.00001278,-0.000071
 53,0.00000981,-0.00036566,-0.00011684,-0.03073990,-0.03484327,-0.00217
 124,0.00007876,-0.00008621,-0.00012482,0.01269896,-0.03956637,0.014741
 47,-0.05419412,0.11661311,0.00010954,0.00039530,0.00087974,-0.00038192
 ,0.00042299,-0.00025851,0.00010069,-0.00000602,0.00001968,-0.00040559,
 0.00004411,-0.00015724,0.00121460,0.00575265,-0.00312011,-0.00071690,0
 .00016407,0.00069415,-0.00280246,-0.00501310,0.00546640,0.00677936,0.0
 1047621,-0.02312358,0.00026243,0.00155886,-0.00019333,0.00002700,-0.00
 057140,0.00153632,-0.00042572,-0.00026368,0.00003462,-0.00008808,0.000
 18421,-0.00006636,-0.00004915,0.00049021,-0.00027539,0.00025709,-0.000
 14769,-0.00001785,0.00018024,-0.00018550,0.00017150,-0.00006109,-0.000
 04484,0.00001881,0.00014320,-0.00000590,-0.00003486,-0.00002188,0.0000
 3638,-0.00001223,-0.00319123,-0.00070254,0.00193902,0.00020929,-0.0003
 0701,-0.00010866,-0.00050904,0.00140103,0.00006947,0.00022736,-0.00016
 581,0.00000491,0.00018081,-0.00006446,-0.00003517,-0.00007000,-0.00006
 784,0.00003980,0.00011633,0.00001558,0.00005058,-0.00005660,0.00011500
 ,-0.00003094,-0.01238576,-0.00101379,-0.00228983,-0.00024536,0.0014952
 2,-0.00047836,-0.21876354,0.04279176,-0.16468877,0.23036638,-0.0567839
 6,0.18396618\\-0.00000010,-0.00000129,0.00000228,0.00000037,-0.0000013
 1,0.00000325,-0.00000045,-0.00000247,0.00000252,0.00000013,-0.00000157
 ,0.00000269,0.,-0.00000077,0.00000126,0.00000068,0.00000029,0.00000122
 ,0.00000009,0.00000052,0.00000013,0.00000021,0.00000083,0.00000053,0.0
 0000021,0.00000062,-0.00000044,-0.00000060,-0.00000007,-0.00000156,-0.
 00000148,-0.00000024,-0.00000197,0.00000022,-0.00000102,-0.00000009,0.
 00000107,0.00000007,-0.00000036,0.00000066,0.00000126,0.00000008,-0.00
 000082,0.00000048,-0.00000240,-0.00000082,0.00000067,-0.00000220,0.,0.
 00000143,-0.00000161,-0.00000042,-0.00000072,-0.00000099,-0.00000066,-
 0.00000084,-0.00000006,-0.00000120,-0.00000180,-0.00000030,-0.00000042
 ,-0.00000087,0.00000008,-0.00000063,-0.00000036,-0.00000104,0.00000102
 ,0.00000287,-0.00000130,-0.00000020,0.00000157,-0.00000361,0.00000059,
 0.00000244,-0.00000233,0.00000080,0.00000290,-0.00000095,0.00000075,-0
 .00000036,0.00000086,-0.00000081,-0.00000181,0.00000111,0.00000060,-0.
 00000100,0.00000256,0.00000121,0.00000053,0.00000263\\\@
 Job cpu time:  1 days  0 hours 51 minutes 39.6 seconds.
 File lengths (MBytes):  RWF=  73058 Int=      0 D2E=      0 Chk=     26 Scr=      1
 Normal termination of Gaussian 09 at Wed Feb 26 15:01:08 2014.
