 Entering Gaussian System, Link 0=g09
 Initial command:
 /usr/caen/gaussian-09revc/g09/l1.exe /scratch/avioli_flux/hetanjin/scratch/Gau-33924.inp -scrdir=/scratch/avioli_flux/hetanjin/scratch/
 Entering Link 1 = /usr/caen/gaussian-09revc/g09/l1.exe PID=     33925.
  
 Copyright (c) 1988,1990,1992,1993,1995,1998,2003,2009,2011,
            Gaussian, Inc.  All Rights Reserved.
  
 This is part of the Gaussian(R) 09 program.  It is based on
 the Gaussian(R) 03 system (copyright 2003, Gaussian, Inc.),
 the Gaussian(R) 98 system (copyright 1998, Gaussian, Inc.),
 the Gaussian(R) 94 system (copyright 1995, Gaussian, Inc.),
 the Gaussian 92(TM) system (copyright 1992, Gaussian, Inc.),
 the Gaussian 90(TM) system (copyright 1990, Gaussian, Inc.),
 the Gaussian 88(TM) system (copyright 1988, Gaussian, Inc.),
 the Gaussian 86(TM) system (copyright 1986, Carnegie Mellon
 University), and the Gaussian 82(TM) system (copyright 1983,
 Carnegie Mellon University). Gaussian is a federally registered
 trademark of Gaussian, Inc.
  
 This software contains proprietary and confidential information,
 including trade secrets, belonging to Gaussian, Inc.
  
 This software is provided under written license and may be
 used, copied, transmitted, or stored only in accord with that
 written license.
  
 The following legend is applicable only to US Government
 contracts under FAR:
  
                    RESTRICTED RIGHTS LEGEND
  
 Use, reproduction and disclosure by the US Government is
 subject to restrictions as set forth in subparagraphs (a)
 and (c) of the Commercial Computer Software - Restricted
 Rights clause in FAR 52.227-19.
  
 Gaussian, Inc.
 340 Quinnipiac St., Bldg. 40, Wallingford CT 06492
  
  
 ---------------------------------------------------------------
 Warning -- This program may not be used in any manner that
 competes with the business of Gaussian, Inc. or will provide
 assistance to any competitor of Gaussian, Inc.  The licensee
 of this program is prohibited from giving any competitor of
 Gaussian, Inc. access to this program.  By using this program,
 the user acknowledges that Gaussian, Inc. is engaged in the
 business of creating and licensing software in the field of
 computational chemistry and represents and warrants to the
 licensee that it is not a competitor of Gaussian, Inc. and that
 it will not use this program in any manner prohibited above.
 ---------------------------------------------------------------
  

 Cite this work as:
 Gaussian 09, Revision C.01,
 M. J. Frisch, G. W. Trucks, H. B. Schlegel, G. E. Scuseria, 
 M. A. Robb, J. R. Cheeseman, G. Scalmani, V. Barone, B. Mennucci, 
 G. A. Petersson, H. Nakatsuji, M. Caricato, X. Li, H. P. Hratchian, 
 A. F. Izmaylov, J. Bloino, G. Zheng, J. L. Sonnenberg, M. Hada, 
 M. Ehara, K. Toyota, R. Fukuda, J. Hasegawa, M. Ishida, T. Nakajima, 
 Y. Honda, O. Kitao, H. Nakai, T. Vreven, J. A. Montgomery, Jr., 
 J. E. Peralta, F. Ogliaro, M. Bearpark, J. J. Heyd, E. Brothers, 
 K. N. Kudin, V. N. Staroverov, T. Keith, R. Kobayashi, J. Normand, 
 K. Raghavachari, A. Rendell, J. C. Burant, S. S. Iyengar, J. Tomasi, 
 M. Cossi, N. Rega, J. M. Millam, M. Klene, J. E. Knox, J. B. Cross, 
 V. Bakken, C. Adamo, J. Jaramillo, R. Gomperts, R. E. Stratmann, 
 O. Yazyev, A. J. Austin, R. Cammi, C. Pomelli, J. W. Ochterski, 
 R. L. Martin, K. Morokuma, V. G. Zakrzewski, G. A. Voth, 
 P. Salvador, J. J. Dannenberg, S. Dapprich, A. D. Daniels, 
 O. Farkas, J. B. Foresman, J. V. Ortiz, J. Cioslowski, 
 and D. J. Fox, Gaussian, Inc., Wallingford CT, 2010.
 
 ******************************************
 Gaussian 09:  EM64L-G09RevC.01 23-Sep-2011
                17-Feb-2014 
 ******************************************
 %mem=30GB
 %nprocshared=8
 Will use up to    8 processors via shared memory.
 %chk=TS_3_3a.chk
 -------------------------------
 #p cbs-qb3 opt=(TS,calcfc) freq
 -------------------------------
 1/5=1,10=4,14=-1,18=20,26=3,38=1/1,3;
 2/9=110,12=2,17=6,18=5,40=1/2;
 3/5=4,6=6,7=700,11=2,16=1,25=1,30=1,71=2,74=-5/1,2,3;
 4//1;
 5/5=2,38=5/2;
 8/6=4,10=90,11=11/1;
 11/6=1,8=1,9=11,15=111,16=1/1,2,10;
 10/6=1,7=6,13=1/2;
 6/7=2,8=2,9=2,10=2,28=1/1;
 7/10=1,18=20,25=1/1,2,3,16;
 1/5=1,10=4,14=-1,18=20/3(2);
 2/9=110/2;
 99//99;
 2/9=110/2;
 3/5=4,6=6,7=700,11=2,16=1,25=1,30=1,71=1,74=-5/1,2,3;
 4/5=5,16=3/1;
 5/5=2,38=5/2;
 7//1,2,3,16;
 1/5=1,14=-1,18=20/3(-5);
 2/9=110/2;
 6/7=2,8=2,9=2,10=2,19=2,28=1/1;
 99/9=1/99;
 Leave Link    1 at Mon Feb 17 03:23:48 2014, MaxMem= 4026531840 cpu:       1.6
 (Enter /usr/caen/gaussian-09revc/g09/l101.exe)
 ------------------------------------
 TS_3_3a using cbs-qb3 to cal. energy
 ------------------------------------
 Charge =  0 Multiplicity = 2
 Symbolic Z-Matrix:
 C                    -2.45121   2.03825  -0.27211 
 H                    -2.08942   2.43379  -1.22634 
 H                    -1.81699   2.43329   0.52483 
 H                    -3.46216   2.42021  -0.11245 
 C                    -2.46099   0.49573  -0.28212 
 H                    -3.16883   0.16793  -1.04969 
 C                     0.13941   0.33997   0.07114 
 H                    -0.00053   0.09059   1.12689 
 H                     0.20285   1.42964   0.00533 
 C                     1.43933  -0.29736  -0.437 
 H                     1.60603  -0.00219  -1.48253 
 H                     1.31295  -1.38361  -0.44084 
 C                     2.69278   0.05383   0.38631 
 H                     2.4877   -0.21676   1.43127 
 C                     3.89161  -0.78134  -0.08496 
 H                     4.13896  -0.55527  -1.12821 
 H                     4.78065  -0.57465   0.51828 
 H                     3.6815   -1.85258  -0.01758 
 C                    -2.90282  -0.08808   1.03826 
 H                    -2.47895   0.35422   1.93921 
 H                    -3.95194  -0.35894   1.13431 
 H                    -2.22573  -1.31195   0.96841 
 C                     3.0306    1.55134   0.34335 
 H                     3.93305   1.7651    0.92364 
 H                     3.21454   1.87858  -0.68651 
 H                     2.22684   2.16935   0.75181 
 C                    -1.08646  -0.10129  -0.73036 
 H                    -0.9367    0.13475  -1.78978 
 O                    -1.25632  -1.52927  -0.762 
 O                    -1.3946   -2.00671   0.56385 
 
 NAtoms=     30 NQM=        0 NQMF=       0 NMMI=     30 NMMIF=      0
                NMic=       0 NMicF=      0.
                    Isotopes and Nuclear Properties:
 (Nuclear quadrupole moments (NQMom) in fm**2, nuclear magnetic moments (NMagM)
  in nuclear magnetons)

  Atom         1           2           3           4           5           6           7           8           9          10
 IAtWgt=          12           1           1           1          12           1          12           1           1          12
 AtmWgt=  12.0000000   1.0078250   1.0078250   1.0078250  12.0000000   1.0078250  12.0000000   1.0078250   1.0078250  12.0000000
 NucSpn=           0           1           1           1           0           1           0           1           1           0
 AtZEff=   0.0000000   0.0000000   0.0000000   0.0000000   0.0000000   0.0000000   0.0000000   0.0000000   0.0000000   0.0000000
 NQMom=    0.0000000   0.0000000   0.0000000   0.0000000   0.0000000   0.0000000   0.0000000   0.0000000   0.0000000   0.0000000
 NMagM=    0.0000000   2.7928460   2.7928460   2.7928460   0.0000000   2.7928460   0.0000000   2.7928460   2.7928460   0.0000000

  Atom        11          12          13          14          15          16          17          18          19          20
 IAtWgt=           1           1          12           1          12           1           1           1          12           1
 AtmWgt=   1.0078250   1.0078250  12.0000000   1.0078250  12.0000000   1.0078250   1.0078250   1.0078250  12.0000000   1.0078250
 NucSpn=           1           1           0           1           0           1           1           1           0           1
 AtZEff=   0.0000000   0.0000000   0.0000000   0.0000000   0.0000000   0.0000000   0.0000000   0.0000000   0.0000000   0.0000000
 NQMom=    0.0000000   0.0000000   0.0000000   0.0000000   0.0000000   0.0000000   0.0000000   0.0000000   0.0000000   0.0000000
 NMagM=    2.7928460   2.7928460   0.0000000   2.7928460   0.0000000   2.7928460   2.7928460   2.7928460   0.0000000   2.7928460

  Atom        21          22          23          24          25          26          27          28          29          30
 IAtWgt=           1           1          12           1           1           1          12           1          16          16
 AtmWgt=   1.0078250   1.0078250  12.0000000   1.0078250   1.0078250   1.0078250  12.0000000   1.0078250  15.9949146  15.9949146
 NucSpn=           1           1           0           1           1           1           0           1           0           0
 AtZEff=   0.0000000   0.0000000   0.0000000   0.0000000   0.0000000   0.0000000   0.0000000   0.0000000   0.0000000   0.0000000
 NQMom=    0.0000000   0.0000000   0.0000000   0.0000000   0.0000000   0.0000000   0.0000000   0.0000000   0.0000000   0.0000000
 NMagM=    2.7928460   2.7928460   0.0000000   2.7928460   2.7928460   2.7928460   0.0000000   2.7928460   0.0000000   0.0000000
 Leave Link  101 at Mon Feb 17 03:23:49 2014, MaxMem= 4026531840 cpu:       2.4
 (Enter /usr/caen/gaussian-09revc/g09/l103.exe)

 GradGradGradGradGradGradGradGradGradGradGradGradGradGradGradGradGradGrad
 Berny optimization.
 Initialization pass.
                           ----------------------------
                           !    Initial Parameters    !
                           ! (Angstroms and Degrees)  !
 --------------------------                            --------------------------
 ! Name  Definition              Value          Derivative Info.                !
 --------------------------------------------------------------------------------
 ! R1    R(1,2)                  1.0945         calculate D2E/DX2 analytically  !
 ! R2    R(1,3)                  1.0924         calculate D2E/DX2 analytically  !
 ! R3    R(1,4)                  1.0924         calculate D2E/DX2 analytically  !
 ! R4    R(1,5)                  1.5426         calculate D2E/DX2 analytically  !
 ! R5    R(5,6)                  1.0944         calculate D2E/DX2 analytically  !
 ! R6    R(5,19)                 1.5098         calculate D2E/DX2 analytically  !
 ! R7    R(5,27)                 1.5642         calculate D2E/DX2 analytically  !
 ! R8    R(7,8)                  1.0938         calculate D2E/DX2 analytically  !
 ! R9    R(7,9)                  1.0935         calculate D2E/DX2 analytically  !
 ! R10   R(7,10)                 1.5343         calculate D2E/DX2 analytically  !
 ! R11   R(7,27)                 1.5297         calculate D2E/DX2 analytically  !
 ! R12   R(10,11)                1.0991         calculate D2E/DX2 analytically  !
 ! R13   R(10,12)                1.0936         calculate D2E/DX2 analytically  !
 ! R14   R(10,13)                1.5402         calculate D2E/DX2 analytically  !
 ! R15   R(13,14)                1.0987         calculate D2E/DX2 analytically  !
 ! R16   R(13,15)                1.5352         calculate D2E/DX2 analytically  !
 ! R17   R(13,23)                1.5357         calculate D2E/DX2 analytically  !
 ! R18   R(15,16)                1.0957         calculate D2E/DX2 analytically  !
 ! R19   R(15,17)                1.0941         calculate D2E/DX2 analytically  !
 ! R20   R(15,18)                1.0937         calculate D2E/DX2 analytically  !
 ! R21   R(19,20)                1.0895         calculate D2E/DX2 analytically  !
 ! R22   R(19,21)                1.0878         calculate D2E/DX2 analytically  !
 ! R23   R(19,22)                1.4004         calculate D2E/DX2 analytically  !
 ! R24   R(22,30)                1.1563         calculate D2E/DX2 analytically  !
 ! R25   R(23,24)                1.094          calculate D2E/DX2 analytically  !
 ! R26   R(23,25)                1.0961         calculate D2E/DX2 analytically  !
 ! R27   R(23,26)                1.0931         calculate D2E/DX2 analytically  !
 ! R28   R(27,28)                1.0957         calculate D2E/DX2 analytically  !
 ! R29   R(27,29)                1.4384         calculate D2E/DX2 analytically  !
 ! R30   R(29,30)                1.416          calculate D2E/DX2 analytically  !
 ! A1    A(2,1,3)              108.2665         calculate D2E/DX2 analytically  !
 ! A2    A(2,1,4)              107.8758         calculate D2E/DX2 analytically  !
 ! A3    A(2,1,5)              110.9662         calculate D2E/DX2 analytically  !
 ! A4    A(3,1,4)              107.7104         calculate D2E/DX2 analytically  !
 ! A5    A(3,1,5)              111.7166         calculate D2E/DX2 analytically  !
 ! A6    A(4,1,5)              110.164          calculate D2E/DX2 analytically  !
 ! A7    A(1,5,6)              107.9494         calculate D2E/DX2 analytically  !
 ! A8    A(1,5,19)             112.5102         calculate D2E/DX2 analytically  !
 ! A9    A(1,5,27)             112.207          calculate D2E/DX2 analytically  !
 ! A10   A(6,5,19)             107.9556         calculate D2E/DX2 analytically  !
 ! A11   A(6,5,27)             104.6585         calculate D2E/DX2 analytically  !
 ! A12   A(19,5,27)            111.1116         calculate D2E/DX2 analytically  !
 ! A13   A(8,7,9)              107.0206         calculate D2E/DX2 analytically  !
 ! A14   A(8,7,10)             109.4721         calculate D2E/DX2 analytically  !
 ! A15   A(8,7,27)             109.7216         calculate D2E/DX2 analytically  !
 ! A16   A(9,7,10)             110.172          calculate D2E/DX2 analytically  !
 ! A17   A(9,7,27)             107.6027         calculate D2E/DX2 analytically  !
 ! A18   A(10,7,27)            112.6814         calculate D2E/DX2 analytically  !
 ! A19   A(7,10,11)            109.3891         calculate D2E/DX2 analytically  !
 ! A20   A(7,10,12)            108.4123         calculate D2E/DX2 analytically  !
 ! A21   A(7,10,13)            114.6916         calculate D2E/DX2 analytically  !
 ! A22   A(11,10,12)           106.3163         calculate D2E/DX2 analytically  !
 ! A23   A(11,10,13)           108.8938         calculate D2E/DX2 analytically  !
 ! A24   A(12,10,13)           108.8081         calculate D2E/DX2 analytically  !
 ! A25   A(10,13,14)           107.4771         calculate D2E/DX2 analytically  !
 ! A26   A(10,13,15)           110.3268         calculate D2E/DX2 analytically  !
 ! A27   A(10,13,23)           112.7307         calculate D2E/DX2 analytically  !
 ! A28   A(14,13,15)           107.6819         calculate D2E/DX2 analytically  !
 ! A29   A(14,13,23)           107.9267         calculate D2E/DX2 analytically  !
 ! A30   A(15,13,23)           110.4939         calculate D2E/DX2 analytically  !
 ! A31   A(13,15,16)           110.8732         calculate D2E/DX2 analytically  !
 ! A32   A(13,15,17)           111.2555         calculate D2E/DX2 analytically  !
 ! A33   A(13,15,18)           111.3403         calculate D2E/DX2 analytically  !
 ! A34   A(16,15,17)           107.6104         calculate D2E/DX2 analytically  !
 ! A35   A(16,15,18)           107.7036         calculate D2E/DX2 analytically  !
 ! A36   A(17,15,18)           107.8888         calculate D2E/DX2 analytically  !
 ! A37   A(5,19,20)            116.8956         calculate D2E/DX2 analytically  !
 ! A38   A(5,19,21)            117.1133         calculate D2E/DX2 analytically  !
 ! A39   A(5,19,22)             98.7905         calculate D2E/DX2 analytically  !
 ! A40   A(20,19,21)           113.7845         calculate D2E/DX2 analytically  !
 ! A41   A(20,19,22)           102.0013         calculate D2E/DX2 analytically  !
 ! A42   A(21,19,22)           104.661          calculate D2E/DX2 analytically  !
 ! A43   A(19,22,30)           152.8782         calculate D2E/DX2 analytically  !
 ! A44   A(13,23,24)           110.9255         calculate D2E/DX2 analytically  !
 ! A45   A(13,23,25)           110.7503         calculate D2E/DX2 analytically  !
 ! A46   A(13,23,26)           112.2783         calculate D2E/DX2 analytically  !
 ! A47   A(24,23,25)           107.5537         calculate D2E/DX2 analytically  !
 ! A48   A(24,23,26)           107.3307         calculate D2E/DX2 analytically  !
 ! A49   A(25,23,26)           107.7994         calculate D2E/DX2 analytically  !
 ! A50   A(5,27,7)             116.3576         calculate D2E/DX2 analytically  !
 ! A51   A(5,27,28)            108.359          calculate D2E/DX2 analytically  !
 ! A52   A(5,27,29)            106.3466         calculate D2E/DX2 analytically  !
 ! A53   A(7,27,28)            109.5698         calculate D2E/DX2 analytically  !
 ! A54   A(7,27,29)            113.1124         calculate D2E/DX2 analytically  !
 ! A55   A(28,27,29)           102.0486         calculate D2E/DX2 analytically  !
 ! A56   A(27,29,30)           109.0072         calculate D2E/DX2 analytically  !
 ! A57   A(22,30,29)           101.2563         calculate D2E/DX2 analytically  !
 ! D1    D(2,1,5,6)            -63.2588         calculate D2E/DX2 analytically  !
 ! D2    D(2,1,5,19)           177.727          calculate D2E/DX2 analytically  !
 ! D3    D(2,1,5,27)            51.5481         calculate D2E/DX2 analytically  !
 ! D4    D(3,1,5,6)            175.8157         calculate D2E/DX2 analytically  !
 ! D5    D(3,1,5,19)            56.8016         calculate D2E/DX2 analytically  !
 ! D6    D(3,1,5,27)           -69.3774         calculate D2E/DX2 analytically  !
 ! D7    D(4,1,5,6)             56.1405         calculate D2E/DX2 analytically  !
 ! D8    D(4,1,5,19)           -62.8736         calculate D2E/DX2 analytically  !
 ! D9    D(4,1,5,27)           170.9474         calculate D2E/DX2 analytically  !
 ! D10   D(1,5,19,20)          -44.5657         calculate D2E/DX2 analytically  !
 ! D11   D(1,5,19,21)           95.587          calculate D2E/DX2 analytically  !
 ! D12   D(1,5,19,22)         -152.8881         calculate D2E/DX2 analytically  !
 ! D13   D(6,5,19,20)         -163.5762         calculate D2E/DX2 analytically  !
 ! D14   D(6,5,19,21)          -23.4235         calculate D2E/DX2 analytically  !
 ! D15   D(6,5,19,22)           88.1014         calculate D2E/DX2 analytically  !
 ! D16   D(27,5,19,20)          82.2017         calculate D2E/DX2 analytically  !
 ! D17   D(27,5,19,21)        -137.6455         calculate D2E/DX2 analytically  !
 ! D18   D(27,5,19,22)         -26.1207         calculate D2E/DX2 analytically  !
 ! D19   D(1,5,27,7)            55.9296         calculate D2E/DX2 analytically  !
 ! D20   D(1,5,27,28)          -68.0083         calculate D2E/DX2 analytically  !
 ! D21   D(1,5,27,29)         -177.0671         calculate D2E/DX2 analytically  !
 ! D22   D(6,5,27,7)           172.7278         calculate D2E/DX2 analytically  !
 ! D23   D(6,5,27,28)           48.7898         calculate D2E/DX2 analytically  !
 ! D24   D(6,5,27,29)          -60.2689         calculate D2E/DX2 analytically  !
 ! D25   D(19,5,27,7)          -71.0042         calculate D2E/DX2 analytically  !
 ! D26   D(19,5,27,28)         165.0578         calculate D2E/DX2 analytically  !
 ! D27   D(19,5,27,29)          55.9991         calculate D2E/DX2 analytically  !
 ! D28   D(8,7,10,11)         -177.0228         calculate D2E/DX2 analytically  !
 ! D29   D(8,7,10,12)           67.4424         calculate D2E/DX2 analytically  !
 ! D30   D(8,7,10,13)          -54.3634         calculate D2E/DX2 analytically  !
 ! D31   D(9,7,10,11)          -59.5934         calculate D2E/DX2 analytically  !
 ! D32   D(9,7,10,12)         -175.1282         calculate D2E/DX2 analytically  !
 ! D33   D(9,7,10,13)           63.0659         calculate D2E/DX2 analytically  !
 ! D34   D(27,7,10,11)          60.5865         calculate D2E/DX2 analytically  !
 ! D35   D(27,7,10,12)         -54.9484         calculate D2E/DX2 analytically  !
 ! D36   D(27,7,10,13)        -176.7542         calculate D2E/DX2 analytically  !
 ! D37   D(8,7,27,5)            57.6112         calculate D2E/DX2 analytically  !
 ! D38   D(8,7,27,28)         -179.0765         calculate D2E/DX2 analytically  !
 ! D39   D(8,7,27,29)          -65.9606         calculate D2E/DX2 analytically  !
 ! D40   D(9,7,27,5)           -58.4904         calculate D2E/DX2 analytically  !
 ! D41   D(9,7,27,28)           64.8219         calculate D2E/DX2 analytically  !
 ! D42   D(9,7,27,29)          177.9378         calculate D2E/DX2 analytically  !
 ! D43   D(10,7,27,5)          179.8616         calculate D2E/DX2 analytically  !
 ! D44   D(10,7,27,28)         -56.8261         calculate D2E/DX2 analytically  !
 ! D45   D(10,7,27,29)          56.2898         calculate D2E/DX2 analytically  !
 ! D46   D(7,10,13,14)          55.0653         calculate D2E/DX2 analytically  !
 ! D47   D(7,10,13,15)         172.2086         calculate D2E/DX2 analytically  !
 ! D48   D(7,10,13,23)         -63.7362         calculate D2E/DX2 analytically  !
 ! D49   D(11,10,13,14)        177.9915         calculate D2E/DX2 analytically  !
 ! D50   D(11,10,13,15)        -64.8652         calculate D2E/DX2 analytically  !
 ! D51   D(11,10,13,23)         59.19           calculate D2E/DX2 analytically  !
 ! D52   D(12,10,13,14)        -66.5247         calculate D2E/DX2 analytically  !
 ! D53   D(12,10,13,15)         50.6186         calculate D2E/DX2 analytically  !
 ! D54   D(12,10,13,23)        174.6738         calculate D2E/DX2 analytically  !
 ! D55   D(10,13,15,16)         62.6933         calculate D2E/DX2 analytically  !
 ! D56   D(10,13,15,17)       -177.5868         calculate D2E/DX2 analytically  !
 ! D57   D(10,13,15,18)        -57.2003         calculate D2E/DX2 analytically  !
 ! D58   D(14,13,15,16)        179.7097         calculate D2E/DX2 analytically  !
 ! D59   D(14,13,15,17)        -60.5704         calculate D2E/DX2 analytically  !
 ! D60   D(14,13,15,18)         59.8161         calculate D2E/DX2 analytically  !
 ! D61   D(23,13,15,16)        -62.642          calculate D2E/DX2 analytically  !
 ! D62   D(23,13,15,17)         57.0779         calculate D2E/DX2 analytically  !
 ! D63   D(23,13,15,18)        177.4644         calculate D2E/DX2 analytically  !
 ! D64   D(10,13,23,24)       -179.103          calculate D2E/DX2 analytically  !
 ! D65   D(10,13,23,25)        -59.7517         calculate D2E/DX2 analytically  !
 ! D66   D(10,13,23,26)         60.8109         calculate D2E/DX2 analytically  !
 ! D67   D(14,13,23,24)         62.3578         calculate D2E/DX2 analytically  !
 ! D68   D(14,13,23,25)       -178.2908         calculate D2E/DX2 analytically  !
 ! D69   D(14,13,23,26)        -57.7282         calculate D2E/DX2 analytically  !
 ! D70   D(15,13,23,24)        -55.14           calculate D2E/DX2 analytically  !
 ! D71   D(15,13,23,25)         64.2114         calculate D2E/DX2 analytically  !
 ! D72   D(15,13,23,26)       -175.2261         calculate D2E/DX2 analytically  !
 ! D73   D(5,19,22,30)          21.2153         calculate D2E/DX2 analytically  !
 ! D74   D(20,19,22,30)        -98.8406         calculate D2E/DX2 analytically  !
 ! D75   D(21,19,22,30)        142.3563         calculate D2E/DX2 analytically  !
 ! D76   D(19,22,30,29)        -33.1161         calculate D2E/DX2 analytically  !
 ! D77   D(5,27,29,30)         -69.5414         calculate D2E/DX2 analytically  !
 ! D78   D(7,27,29,30)          59.3785         calculate D2E/DX2 analytically  !
 ! D79   D(28,27,29,30)        176.9907         calculate D2E/DX2 analytically  !
 ! D80   D(27,29,30,22)         51.0554         calculate D2E/DX2 analytically  !
 --------------------------------------------------------------------------------
 Trust Radius=3.00D-01 FncErr=1.00D-07 GrdErr=1.00D-06
 Number of steps in this run=    177 maximum allowed number of steps=    180.
 Search for a saddle point of order  1.
 GradGradGradGradGradGradGradGradGradGradGradGradGradGradGradGradGradGrad

 Leave Link  103 at Mon Feb 17 03:23:49 2014, MaxMem= 4026531840 cpu:       0.1
 (Enter /usr/caen/gaussian-09revc/g09/l202.exe)
                          Input orientation:                          
 ---------------------------------------------------------------------
 Center     Atomic      Atomic             Coordinates (Angstroms)
 Number     Number       Type             X           Y           Z
 ---------------------------------------------------------------------
      1          6           0       -2.451205    2.038250   -0.272107
      2          1           0       -2.089424    2.433794   -1.226342
      3          1           0       -1.816988    2.433285    0.524826
      4          1           0       -3.462163    2.420213   -0.112449
      5          6           0       -2.460986    0.495734   -0.282121
      6          1           0       -3.168826    0.167932   -1.049687
      7          6           0        0.139412    0.339968    0.071140
      8          1           0       -0.000526    0.090585    1.126889
      9          1           0        0.202853    1.429643    0.005327
     10          6           0        1.439325   -0.297360   -0.437001
     11          1           0        1.606026   -0.002192   -1.482529
     12          1           0        1.312952   -1.383612   -0.440838
     13          6           0        2.692776    0.053828    0.386308
     14          1           0        2.487696   -0.216758    1.431268
     15          6           0        3.891611   -0.781341   -0.084957
     16          1           0        4.138955   -0.555265   -1.128209
     17          1           0        4.780650   -0.574651    0.518277
     18          1           0        3.681501   -1.852582   -0.017582
     19          6           0       -2.902817   -0.088080    1.038264
     20          1           0       -2.478953    0.354219    1.939210
     21          1           0       -3.951939   -0.358944    1.134309
     22          1           0       -2.225728   -1.311949    0.968411
     23          6           0        3.030602    1.551340    0.343353
     24          1           0        3.933050    1.765103    0.923643
     25          1           0        3.214539    1.878581   -0.686510
     26          1           0        2.226842    2.169346    0.751813
     27          6           0       -1.086458   -0.101287   -0.730364
     28          1           0       -0.936698    0.134747   -1.789777
     29          8           0       -1.256318   -1.529266   -0.761996
     30          8           0       -1.394604   -2.006710    0.563853
 ---------------------------------------------------------------------
                    Distance matrix (angstroms):
                    1          2          3          4          5
     1  C    0.000000
     2  H    1.094488   0.000000
     3  H    1.092422   1.772233   0.000000
     4  H    1.092439   1.767867   1.764339   0.000000
     5  C    1.542580   2.187622   2.195450   2.175951   0.000000
     6  H    2.148883   2.516038   3.072195   2.457078   1.094372
     7  C    3.116613   3.321939   2.900915   4.163228   2.628902
     8  H    3.428763   3.923241   3.024939   4.352707   2.864144
     9  H    2.737041   2.789240   2.314505   3.798347   2.837402
    10  C    4.540759   4.531482   4.357190   5.613833   3.983141
    11  H    4.699963   4.433510   4.655969   5.782016   4.269601
    12  H    5.089842   5.173564   5.029685   6.113808   4.218974
    13  C    5.552655   5.579813   5.100880   6.613003   5.215682
    14  H    5.690280   5.919320   5.135627   6.688610   5.285149
    15  C    6.943805   6.885683   6.579799   8.020517   6.482691
    16  H    7.133683   6.909183   6.865655   8.225706   6.736445
    17  H    7.729921   7.700153   7.250969   8.792667   7.363943
    18  H    7.267286   7.289561   6.992585   8.324525   6.581392
    19  C    2.538170   3.485670   2.792835   2.815767   1.509791
    20  H    2.779686   3.807504   2.600230   3.073164   2.225907
    21  H    3.158599   4.103781   3.567356   3.085126   2.227036
    22  H    3.579603   4.343514   3.793496   4.077507   2.210632
    23  C    5.537696   5.427461   4.930506   6.566483   5.626994
    24  H    6.501011   6.429602   5.802453   7.496121   6.629394
    25  H    5.683122   5.360196   5.204930   6.723188   5.855543
    26  H    4.790587   4.755332   4.058787   5.759745   5.083869
    27  C    2.578789   2.771023   2.921169   3.519056   1.564188
    28  H    2.867120   2.632841   3.378694   3.796677   2.174119
    29  O    3.794063   4.076215   4.203816   4.570126   2.404606
    30  O    4.263442   4.837938   4.460212   4.932528   2.848696
                    6          7          8          9         10
     6  H    0.000000
     7  C    3.497183   0.000000
     8  H    3.844683   1.093792   0.000000
     9  H    3.751425   1.093502   1.758505   0.000000
    10  C    4.671931   1.534330   2.160885   2.169575   0.000000
    11  H    4.797448   2.163774   3.065727   2.496550   1.099110
    12  H    4.781665   2.147102   2.521160   3.057088   1.093585
    13  C    6.036015   2.588605   2.793508   2.870145   1.540231
    14  H    6.188648   2.770258   2.525541   3.156652   2.143830
    15  C    7.188991   3.919273   4.168640   4.301574   2.524258
    16  H    7.343898   4.270389   4.757929   4.551666   2.798622
    17  H    8.136591   4.751584   4.865449   5.023598   3.486244
    18  H    7.216280   4.166718   4.317758   4.782731   2.760794
    19  C    2.120340   3.220825   2.909135   3.607718   4.590686
    20  H    3.073131   3.216477   2.621444   3.476855   4.628589
    21  H    2.379223   4.284619   3.976908   4.662182   5.615918
    22  H    2.674360   3.021227   2.635098   3.787065   4.054280
    23  C    6.502867   3.146506   3.454775   2.850480   2.561017
    24  H    7.541991   4.141191   4.279993   3.856191   3.510523
    25  H    6.618577   3.521047   4.101462   3.122569   2.819283
    26  H    6.030281   2.857849   3.069706   2.280555   2.849228
    27  C    2.123841   1.529664   2.159966   2.132442   2.550311
    28  H    2.351857   2.159431   3.063545   2.489524   2.768069
    29  O    2.573118   2.477138   2.787260   3.387198   2.981561
    30  O    3.237351   2.846554   2.580525   3.830449   3.457563
                   11         12         13         14         15
    11  H    0.000000
    12  H    1.754803   0.000000
    13  C    2.162572   2.157387   0.000000
    14  H    3.051818   2.499270   1.098734   0.000000
    15  C    2.790014   2.671865   1.535188   2.142118   0.000000
    16  H    2.616708   3.024059   2.180869   3.064664   1.095748
    17  H    3.795941   3.687716   2.184404   2.493848   1.094076
    18  H    3.142866   2.451347   2.185201   2.490031   1.093729
    19  C    5.166376   4.651758   5.635233   5.406352   6.921451
    20  H    5.340635   4.802419   5.408190   5.025099   6.780180
    21  H    6.153543   5.590180   6.699412   6.448046   7.948981
    22  H    4.733382   3.809642   5.137691   4.861075   6.230005
    23  C    2.788678   3.489874   1.535745   2.145804   2.523130
    24  H    3.785239   4.317537   2.180704   2.504896   2.739228
    25  H    2.599667   3.783952   2.180114   3.066550   2.809889
    26  H    3.176991   3.857606   2.196840   2.494633   3.489727
    27  C    2.797328   2.735937   3.943809   4.178584   5.065589
    28  H    2.564878   3.030837   4.232609   4.714357   5.201749
    29  O    3.323272   2.593358   4.406828   4.533291   5.245850
    30  O    4.148440   2.954406   4.580831   4.362177   5.465030
                   16         17         18         19         20
    16  H    0.000000
    17  H    1.767219   0.000000
    18  H    1.767990   1.768723   0.000000
    19  C    7.382305   7.716398   6.897936   0.000000
    20  H    7.350709   7.455447   6.830095   1.089492   0.000000
    21  H    8.403576   8.756948   7.863028   1.087772   1.823775
    22  H    6.743706   7.059431   6.013304   1.400423   1.944914
    23  C    2.798522   2.759185   3.484340   6.194841   5.859612
    24  H    3.104288   2.521348   3.746575   7.083537   6.643474
    25  H    2.640691   3.150010   3.819306   6.653168   6.452436
    26  H    3.822848   3.755795   4.345562   5.611722   5.181612
    27  C    5.260163   6.017153   5.129184   2.535228   3.045185
    28  H    5.164885   6.206322   5.330845   3.451535   4.041295
    29  O    5.494703   6.244627   5.004073   2.833534   3.512672
    30  O    5.965739   6.339293   5.111620   2.486144   2.939627
                   21         22         23         24         25
    21  H    0.000000
    22  H    1.978774   0.000000
    23  C    7.282216   6.018150   0.000000
    24  H    8.168782   6.884824   1.094003   0.000000
    25  H    7.725303   6.520334   1.096147   1.766841   0.000000
    26  H    6.686994   5.656121   1.093070   1.761841   1.768859
    27  C    3.428465   2.376862   4.564453   5.604874   4.735016
    28  H    4.229147   3.370776   4.721912   5.808197   4.635830
    29  O    3.497427   1.995317   5.393479   6.373679   5.622071
    30  O    3.095241   1.156342   5.682498   6.537577   6.156549
                   26         27         28         29         30
    26  H    0.000000
    27  C    4.281423   0.000000
    28  H    4.539522   1.095671   0.000000
    29  O    5.301297   1.438394   1.981774   0.000000
    30  O    5.530791   2.323917   3.214824   1.415963   0.000000
 Stoichiometry    C9H19O2(2)
 Framework group  C1[X(C9H19O2)]
 Deg. of freedom    84
 Full point group                 C1      NOp   1
 Largest Abelian subgroup         C1      NOp   1
 Largest concise Abelian subgroup C1      NOp   1
                         Standard orientation:                         
 ---------------------------------------------------------------------
 Center     Atomic      Atomic             Coordinates (Angstroms)
 Number     Number       Type             X           Y           Z
 ---------------------------------------------------------------------
      1          6           0       -2.451205    2.038250   -0.272107
      2          1           0       -2.089424    2.433794   -1.226342
      3          1           0       -1.816988    2.433285    0.524826
      4          1           0       -3.462163    2.420213   -0.112449
      5          6           0       -2.460986    0.495734   -0.282121
      6          1           0       -3.168826    0.167932   -1.049687
      7          6           0        0.139412    0.339968    0.071140
      8          1           0       -0.000526    0.090585    1.126889
      9          1           0        0.202853    1.429643    0.005327
     10          6           0        1.439325   -0.297360   -0.437001
     11          1           0        1.606026   -0.002192   -1.482529
     12          1           0        1.312952   -1.383612   -0.440838
     13          6           0        2.692776    0.053828    0.386308
     14          1           0        2.487696   -0.216758    1.431268
     15          6           0        3.891611   -0.781341   -0.084957
     16          1           0        4.138955   -0.555265   -1.128209
     17          1           0        4.780650   -0.574651    0.518277
     18          1           0        3.681501   -1.852582   -0.017582
     19          6           0       -2.902817   -0.088080    1.038264
     20          1           0       -2.478953    0.354219    1.939210
     21          1           0       -3.951939   -0.358944    1.134309
     22          1           0       -2.225728   -1.311949    0.968411
     23          6           0        3.030602    1.551340    0.343353
     24          1           0        3.933050    1.765103    0.923643
     25          1           0        3.214539    1.878581   -0.686510
     26          1           0        2.226842    2.169346    0.751813
     27          6           0       -1.086458   -0.101287   -0.730364
     28          1           0       -0.936698    0.134747   -1.789777
     29          8           0       -1.256318   -1.529266   -0.761996
     30          8           0       -1.394604   -2.006710    0.563853
 ---------------------------------------------------------------------
 Rotational constants (GHZ):      1.7138779      0.5398241      0.4569685
 Leave Link  202 at Mon Feb 17 03:23:49 2014, MaxMem= 4026531840 cpu:       0.4
 (Enter /usr/caen/gaussian-09revc/g09/l301.exe)
 Standard basis: 6-311G(2d,d,p) (5D, 7F)
 Ernie: Thresh=  0.10000D-02 Tol=  0.10000D-05 Strict=F.
 There are   312 symmetry adapted basis functions of A   symmetry.
 Integral buffers will be    131072 words long.
 Raffenetti 2 integral format.
 Two-electron integral symmetry is turned on.
   312 basis functions,   504 primitive gaussians,   323 cartesian basis functions
    45 alpha electrons       44 beta electrons
       nuclear repulsion energy       674.0747640592 Hartrees.
 IExCor=  402 DFT=T Ex+Corr=B3LYP ExCW=0 ScaHFX=  0.200000
 ScaDFX=  0.800000  0.720000  1.000000  0.810000 ScalE2=  1.000000  1.000000
 IRadAn=      0 IRanWt=     -1 IRanGd=            0 ICorTp=0
 NAtoms=   30 NActive=   30 NUniq=   30 SFac= 1.00D+00 NAtFMM=   60 NAOKFM=F Big=F
 Leave Link  301 at Mon Feb 17 03:23:49 2014, MaxMem= 4026531840 cpu:       0.6
 (Enter /usr/caen/gaussian-09revc/g09/l302.exe)
 NPDir=0 NMtPBC=     1 NCelOv=     1 NCel=       1 NClECP=     1 NCelD=      1
         NCelK=      1 NCelE2=     1 NClLst=     1 CellRange=     0.0.
 One-electron integrals computed using PRISM.
 NBasis=   312 RedAO= T  NBF=   312
 NBsUse=   312 1.00D-06 NBFU=   312
 Precomputing XC quadrature grid using
 IXCGrd= 2 IRadAn=           0 IRanWt=          -1 IRanGd=           0 AccXCQ= 0.00D+00.
 NRdTot=    1908 NPtTot=      243260 NUsed=      257019 NTot=      257051
 NSgBfM=   323   323   323   323   323 NAtAll=    30    30.
 Leave Link  302 at Mon Feb 17 03:23:51 2014, MaxMem= 4026531840 cpu:       7.3
 (Enter /usr/caen/gaussian-09revc/g09/l303.exe)
 DipDrv:  MaxL=1.
 Leave Link  303 at Mon Feb 17 03:23:51 2014, MaxMem= 4026531840 cpu:       1.4
 (Enter /usr/caen/gaussian-09revc/g09/l401.exe)
 Harris functional with IExCor=  402 diagonalized for initial guess.
 ExpMin= 1.03D-01 ExpMax= 8.59D+03 ExpMxC= 1.30D+03 IAcc=1 IRadAn=         1 AccDes= 0.00D+00
 HarFok:  IExCor=  402 AccDes= 0.00D+00 IRadAn=         1 IDoV= 1
 ScaDFX=  1.000000  1.000000  1.000000  1.000000
 FoFCou: FMM=F IPFlag=           0 FMFlag=      100000 FMFlg1=           0
         NFxFlg=           0 DoJE=T BraDBF=F KetDBF=T FulRan=T
         Omega=  0.000000  0.000000  1.000000  0.000000  0.000000 ICntrl=     500 IOpCl=  0
         NMat0=    1 NMatS0=    1 NMatT0=    0 NMatD0=    1 NMtDS0=    0 NMtDT0=    0
         I1Cent=           4 NGrid=           0.
 Petite list used in FoFCou.
 Harris En= -504.893446256993    
 Initial guess orbital symmetries:
 Alpha Orbitals:
       Occupied  (A) (A) (A) (A) (A) (A) (A) (A) (A) (A) (A) (A)
                 (A) (A) (A) (A) (A) (A) (A) (A) (A) (A) (A) (A)
                 (A) (A) (A) (A) (A) (A) (A) (A) (A) (A) (A) (A)
                 (A) (A) (A) (A) (A) (A) (A) (A) (A)
       Virtual   (A) (A) (A) (A) (A) (A) (A) (A) (A) (A) (A) (A)
                 (A) (A) (A) (A) (A) (A) (A) (A) (A) (A) (A) (A)
                 (A) (A) (A) (A) (A) (A) (A) (A) (A) (A) (A) (A)
                 (A) (A) (A) (A) (A) (A) (A) (A) (A) (A) (A) (A)
                 (A) (A) (A) (A) (A) (A) (A) (A) (A) (A) (A) (A)
                 (A) (A) (A) (A) (A) (A) (A) (A) (A) (A) (A) (A)
                 (A) (A) (A) (A) (A) (A) (A) (A) (A) (A) (A) (A)
                 (A) (A) (A) (A) (A) (A) (A) (A) (A) (A) (A) (A)
                 (A) (A) (A) (A) (A) (A) (A) (A) (A) (A) (A) (A)
                 (A) (A) (A) (A) (A) (A) (A) (A) (A) (A) (A) (A)
                 (A) (A) (A) (A) (A) (A) (A) (A) (A) (A) (A) (A)
                 (A) (A) (A) (A) (A) (A) (A) (A) (A) (A) (A) (A)
                 (A) (A) (A) (A) (A) (A) (A) (A) (A) (A) (A) (A)
                 (A) (A) (A) (A) (A) (A) (A) (A) (A) (A) (A) (A)
                 (A) (A) (A) (A) (A) (A) (A) (A) (A) (A) (A) (A)
                 (A) (A) (A) (A) (A) (A) (A) (A) (A) (A) (A) (A)
                 (A) (A) (A) (A) (A) (A) (A) (A) (A) (A) (A) (A)
                 (A) (A) (A) (A) (A) (A) (A) (A) (A) (A) (A) (A)
                 (A) (A) (A) (A) (A) (A) (A) (A) (A) (A) (A) (A)
                 (A) (A) (A) (A) (A) (A) (A) (A) (A) (A) (A) (A)
                 (A) (A) (A) (A) (A) (A) (A) (A) (A) (A) (A) (A)
                 (A) (A) (A) (A) (A) (A) (A) (A) (A) (A) (A) (A)
                 (A) (A) (A)
 Beta  Orbitals:
       Occupied  (A) (A) (A) (A) (A) (A) (A) (A) (A) (A) (A) (A)
                 (A) (A) (A) (A) (A) (A) (A) (A) (A) (A) (A) (A)
                 (A) (A) (A) (A) (A) (A) (A) (A) (A) (A) (A) (A)
                 (A) (A) (A) (A) (A) (A) (A) (A)
       Virtual   (A) (A) (A) (A) (A) (A) (A) (A) (A) (A) (A) (A)
                 (A) (A) (A) (A) (A) (A) (A) (A) (A) (A) (A) (A)
                 (A) (A) (A) (A) (A) (A) (A) (A) (A) (A) (A) (A)
                 (A) (A) (A) (A) (A) (A) (A) (A) (A) (A) (A) (A)
                 (A) (A) (A) (A) (A) (A) (A) (A) (A) (A) (A) (A)
                 (A) (A) (A) (A) (A) (A) (A) (A) (A) (A) (A) (A)
                 (A) (A) (A) (A) (A) (A) (A) (A) (A) (A) (A) (A)
                 (A) (A) (A) (A) (A) (A) (A) (A) (A) (A) (A) (A)
                 (A) (A) (A) (A) (A) (A) (A) (A) (A) (A) (A) (A)
                 (A) (A) (A) (A) (A) (A) (A) (A) (A) (A) (A) (A)
                 (A) (A) (A) (A) (A) (A) (A) (A) (A) (A) (A) (A)
                 (A) (A) (A) (A) (A) (A) (A) (A) (A) (A) (A) (A)
                 (A) (A) (A) (A) (A) (A) (A) (A) (A) (A) (A) (A)
                 (A) (A) (A) (A) (A) (A) (A) (A) (A) (A) (A) (A)
                 (A) (A) (A) (A) (A) (A) (A) (A) (A) (A) (A) (A)
                 (A) (A) (A) (A) (A) (A) (A) (A) (A) (A) (A) (A)
                 (A) (A) (A) (A) (A) (A) (A) (A) (A) (A) (A) (A)
                 (A) (A) (A) (A) (A) (A) (A) (A) (A) (A) (A) (A)
                 (A) (A) (A) (A) (A) (A) (A) (A) (A) (A) (A) (A)
                 (A) (A) (A) (A) (A) (A) (A) (A) (A) (A) (A) (A)
                 (A) (A) (A) (A) (A) (A) (A) (A) (A) (A) (A) (A)
                 (A) (A) (A) (A) (A) (A) (A) (A) (A) (A) (A) (A)
                 (A) (A) (A) (A)
 The electronic state of the initial guess is 2-A.
 Initial guess <Sx>= 0.0000 <Sy>= 0.0000 <Sz>= 0.5000 <S**2>= 0.7500 S= 0.5000
 Leave Link  401 at Mon Feb 17 03:23:53 2014, MaxMem= 4026531840 cpu:      14.5
 (Enter /usr/caen/gaussian-09revc/g09/l502.exe)
 UHF open shell SCF:
 Requested convergence on RMS density matrix=1.00D-08 within 128 cycles.
 Requested convergence on MAX density matrix=1.00D-06.
 Requested convergence on             energy=1.00D-06.
 No special actions if energy rises.
 Using DIIS extrapolation, IDIIS=  1040.
 Integral symmetry usage will be decided dynamically.
       256736 words used for storage of precomputed grid.
 Keep R1 and R2 ints in memory in canonical form, NReq=2755661467.
 IEnd=      592894 IEndB=      592894 NGot=  4026531840 MDV=  1287997609
 LenX=  1287997609 LenY=  1287892839
 Symmetry not used in FoFDir.
 MinBra= 0 MaxBra= 2 Meth= 1.
 IRaf=       0 NMat=   1 IRICut=       1 DoRegI=T DoRafI=F ISym2E= 0 JSym2E=0.
 Integral accuracy reduced to 1.0D-05 until final iterations.

 Cycle   1  Pass 0  IDiag  1:
 E= -504.444991977435    
 DIIS: error= 3.21D-02 at cycle   1 NSaved=   1.
 NSaved= 1 IEnMin= 1 EnMin= -504.444991977435     IErMin= 1 ErrMin= 3.21D-02
 ErrMax= 3.21D-02 EMaxC= 1.00D-01 BMatC= 1.54D+00 BMatP= 1.54D+00
 IDIUse=3 WtCom= 6.79D-01 WtEn= 3.21D-01
 Coeff-Com:  0.100D+01
 Coeff-En:   0.100D+01
 Coeff:      0.100D+01
 Gap=     0.187 Goal=   None    Shift=    0.000
 Gap=     0.166 Goal=   None    Shift=    0.000
 GapD=    0.166 DampG=1.000 DampE=0.500 DampFc=0.5000 IDamp=-1.
 Damping current iteration by 5.00D-01
 RMSDP=3.38D-03 MaxDP=1.20D-01              OVMax= 2.73D-01

 Cycle   2  Pass 0  IDiag  1:
 E= -504.596052927606     Delta-E=       -0.151060950171 Rises=F Damp=T
 DIIS: error= 7.24D-03 at cycle   2 NSaved=   2.
 NSaved= 2 IEnMin= 2 EnMin= -504.596052927606     IErMin= 2 ErrMin= 7.24D-03
 ErrMax= 7.24D-03 EMaxC= 1.00D-01 BMatC= 1.35D-01 BMatP= 1.54D+00
 IDIUse=3 WtCom= 9.28D-01 WtEn= 7.24D-02
 Coeff-Com:  0.110D+00 0.890D+00
 Coeff-En:   0.208D+00 0.792D+00
 Coeff:      0.117D+00 0.883D+00
 Gap=     0.293 Goal=   None    Shift=    0.000
 Gap=     0.203 Goal=   None    Shift=    0.000
 RMSDP=1.01D-03 MaxDP=3.08D-02 DE=-1.51D-01 OVMax= 2.41D-01

 Cycle   3  Pass 0  IDiag  1:
 E= -504.803541769727     Delta-E=       -0.207488842121 Rises=F Damp=F
 DIIS: error= 1.50D-02 at cycle   3 NSaved=   3.
 NSaved= 3 IEnMin= 3 EnMin= -504.803541769727     IErMin= 2 ErrMin= 7.24D-03
 ErrMax= 1.50D-02 EMaxC= 1.00D-01 BMatC= 1.20D-01 BMatP= 1.35D-01
 IDIUse=3 WtCom= 8.50D-01 WtEn= 1.50D-01
 Coeff-Com:  0.790D-02 0.482D+00 0.510D+00
 Coeff-En:   0.000D+00 0.000D+00 0.100D+01
 Coeff:      0.671D-02 0.410D+00 0.584D+00
 Gap=     0.272 Goal=   None    Shift=    0.000
 Gap=     0.138 Goal=   None    Shift=    0.000
 RMSDP=7.17D-04 MaxDP=3.73D-02 DE=-2.07D-01 OVMax= 1.54D-01

 Cycle   4  Pass 0  IDiag  1:
 E= -504.816219646636     Delta-E=       -0.012677876909 Rises=F Damp=F
 DIIS: error= 6.64D-03 at cycle   4 NSaved=   4.
 NSaved= 4 IEnMin= 4 EnMin= -504.816219646636     IErMin= 4 ErrMin= 6.64D-03
 ErrMax= 6.64D-03 EMaxC= 1.00D-01 BMatC= 6.81D-02 BMatP= 1.20D-01
 IDIUse=3 WtCom= 9.34D-01 WtEn= 6.64D-02
 Coeff-Com: -0.763D-02 0.119D+00 0.429D+00 0.459D+00
 Coeff-En:   0.000D+00 0.000D+00 0.366D+00 0.634D+00
 Coeff:     -0.713D-02 0.111D+00 0.425D+00 0.471D+00
 Gap=     0.260 Goal=   None    Shift=    0.000
 Gap=     0.133 Goal=   None    Shift=    0.000
 RMSDP=2.85D-04 MaxDP=1.42D-02 DE=-1.27D-02 OVMax= 3.37D-02

 Cycle   5  Pass 0  IDiag  1:
 E= -504.828737152564     Delta-E=       -0.012517505928 Rises=F Damp=F
 DIIS: error= 1.39D-03 at cycle   5 NSaved=   5.
 NSaved= 5 IEnMin= 5 EnMin= -504.828737152564     IErMin= 5 ErrMin= 1.39D-03
 ErrMax= 1.39D-03 EMaxC= 1.00D-01 BMatC= 2.30D-03 BMatP= 6.81D-02
 IDIUse=3 WtCom= 9.86D-01 WtEn= 1.39D-02
 Coeff-Com: -0.356D-02 0.201D-01 0.200D+00 0.237D+00 0.546D+00
 Coeff-En:   0.000D+00 0.000D+00 0.000D+00 0.000D+00 0.100D+01
 Coeff:     -0.351D-02 0.198D-01 0.197D+00 0.234D+00 0.553D+00
 Gap=     0.254 Goal=   None    Shift=    0.000
 Gap=     0.132 Goal=   None    Shift=    0.000
 RMSDP=8.80D-05 MaxDP=4.20D-03 DE=-1.25D-02 OVMax= 1.12D-02

 Cycle   6  Pass 0  IDiag  1:
 E= -504.829160214345     Delta-E=       -0.000423061781 Rises=F Damp=F
 DIIS: error= 1.02D-03 at cycle   6 NSaved=   6.
 NSaved= 6 IEnMin= 6 EnMin= -504.829160214345     IErMin= 6 ErrMin= 1.02D-03
 ErrMax= 1.02D-03 EMaxC= 1.00D-01 BMatC= 8.68D-04 BMatP= 2.30D-03
 IDIUse=3 WtCom= 9.90D-01 WtEn= 1.02D-02
 Coeff-Com:  0.620D-03-0.126D-01 0.390D-01 0.315D-01 0.368D+00 0.574D+00
 Coeff-En:   0.000D+00 0.000D+00 0.000D+00 0.000D+00 0.142D+00 0.858D+00
 Coeff:      0.613D-03-0.124D-01 0.386D-01 0.312D-01 0.365D+00 0.577D+00
 Gap=     0.255 Goal=   None    Shift=    0.000
 Gap=     0.134 Goal=   None    Shift=    0.000
 RMSDP=4.64D-05 MaxDP=2.14D-03 DE=-4.23D-04 OVMax= 1.39D-02

 Cycle   7  Pass 0  IDiag  1:
 E= -504.829359207253     Delta-E=       -0.000198992908 Rises=F Damp=F
 DIIS: error= 3.24D-04 at cycle   7 NSaved=   7.
 NSaved= 7 IEnMin= 7 EnMin= -504.829359207253     IErMin= 7 ErrMin= 3.24D-04
 ErrMax= 3.24D-04 EMaxC= 1.00D-01 BMatC= 1.10D-04 BMatP= 8.68D-04
 IDIUse=3 WtCom= 9.97D-01 WtEn= 3.24D-03
 Coeff-Com:  0.157D-02-0.944D-02-0.205D-01-0.453D-01 0.418D-01 0.267D+00
 Coeff-Com:  0.765D+00
 Coeff-En:   0.000D+00 0.000D+00 0.000D+00 0.000D+00 0.000D+00 0.000D+00
 Coeff-En:   0.100D+01
 Coeff:      0.156D-02-0.941D-02-0.205D-01-0.451D-01 0.416D-01 0.266D+00
 Coeff:      0.766D+00
 Gap=     0.255 Goal=   None    Shift=    0.000
 Gap=     0.134 Goal=   None    Shift=    0.000
 RMSDP=2.96D-05 MaxDP=1.41D-03 DE=-1.99D-04 OVMax= 9.00D-03

 Cycle   8  Pass 0  IDiag  1:
 E= -504.829409814916     Delta-E=       -0.000050607663 Rises=F Damp=F
 DIIS: error= 1.20D-04 at cycle   8 NSaved=   8.
 NSaved= 8 IEnMin= 8 EnMin= -504.829409814916     IErMin= 8 ErrMin= 1.20D-04
 ErrMax= 1.20D-04 EMaxC= 1.00D-01 BMatC= 2.38D-05 BMatP= 1.10D-04
 IDIUse=3 WtCom= 9.99D-01 WtEn= 1.20D-03
 Coeff-Com:  0.754D-03 0.527D-04-0.192D-01-0.351D-01-0.950D-01-0.443D-01
 Coeff-Com:  0.379D+00 0.814D+00
 Coeff-En:   0.000D+00 0.000D+00 0.000D+00 0.000D+00 0.000D+00 0.000D+00
 Coeff-En:   0.000D+00 0.100D+01
 Coeff:      0.754D-03 0.526D-04-0.192D-01-0.351D-01-0.948D-01-0.442D-01
 Coeff:      0.378D+00 0.814D+00
 Gap=     0.255 Goal=   None    Shift=    0.000
 Gap=     0.135 Goal=   None    Shift=    0.000
 RMSDP=2.03D-05 MaxDP=8.45D-04 DE=-5.06D-05 OVMax= 7.91D-03

 Cycle   9  Pass 0  IDiag  1:
 E= -504.829426233585     Delta-E=       -0.000016418669 Rises=F Damp=F
 DIIS: error= 4.81D-05 at cycle   9 NSaved=   9.
 NSaved= 9 IEnMin= 9 EnMin= -504.829426233585     IErMin= 9 ErrMin= 4.81D-05
 ErrMax= 4.81D-05 EMaxC= 1.00D-01 BMatC= 2.44D-06 BMatP= 2.38D-05
 IDIUse=1 WtCom= 1.00D+00 WtEn= 0.00D+00
 Coeff-Com: -0.918D-04 0.125D-02-0.776D-04-0.169D-02-0.244D-01-0.431D-01
 Coeff-Com: -0.447D-01 0.178D+00 0.934D+00
 Coeff:     -0.918D-04 0.125D-02-0.776D-04-0.169D-02-0.244D-01-0.431D-01
 Coeff:     -0.447D-01 0.178D+00 0.934D+00
 Gap=     0.255 Goal=   None    Shift=    0.000
 Gap=     0.135 Goal=   None    Shift=    0.000
 RMSDP=8.36D-06 MaxDP=4.12D-04 DE=-1.64D-05 OVMax= 3.16D-03

 Initial convergence to 1.0D-05 achieved.  Increase integral accuracy.
 Cycle  10  Pass 1  IDiag  1:
 E= -504.829411381534     Delta-E=        0.000014852051 Rises=F Damp=F
 DIIS: error= 1.82D-05 at cycle   1 NSaved=   1.
 NSaved= 1 IEnMin= 1 EnMin= -504.829411381534     IErMin= 1 ErrMin= 1.82D-05
 ErrMax= 1.82D-05 EMaxC= 1.00D-01 BMatC= 9.09D-07 BMatP= 9.09D-07
 IDIUse=1 WtCom= 1.00D+00 WtEn= 0.00D+00
 Coeff-Com:  0.100D+01
 Coeff:      0.100D+01
 Gap=     0.255 Goal=   None    Shift=    0.000
 Gap=     0.135 Goal=   None    Shift=    0.000
 RMSDP=8.36D-06 MaxDP=4.12D-04 DE= 1.49D-05 OVMax= 7.41D-04

 Cycle  11  Pass 1  IDiag  1:
 E= -504.829411787495     Delta-E=       -0.000000405961 Rises=F Damp=F
 DIIS: error= 2.07D-05 at cycle   2 NSaved=   2.
 NSaved= 2 IEnMin= 2 EnMin= -504.829411787495     IErMin= 1 ErrMin= 1.82D-05
 ErrMax= 2.07D-05 EMaxC= 1.00D-01 BMatC= 5.24D-07 BMatP= 9.09D-07
 IDIUse=1 WtCom= 1.00D+00 WtEn= 0.00D+00
 Coeff-Com:  0.403D+00 0.597D+00
 Coeff:      0.403D+00 0.597D+00
 Gap=     0.255 Goal=   None    Shift=    0.000
 Gap=     0.135 Goal=   None    Shift=    0.000
 RMSDP=1.51D-06 MaxDP=6.85D-05 DE=-4.06D-07 OVMax= 4.64D-04

 Cycle  12  Pass 1  IDiag  1:
 E= -504.829411945777     Delta-E=       -0.000000158282 Rises=F Damp=F
 DIIS: error= 1.07D-05 at cycle   3 NSaved=   3.
 NSaved= 3 IEnMin= 3 EnMin= -504.829411945777     IErMin= 3 ErrMin= 1.07D-05
 ErrMax= 1.07D-05 EMaxC= 1.00D-01 BMatC= 1.51D-07 BMatP= 5.24D-07
 IDIUse=1 WtCom= 1.00D+00 WtEn= 0.00D+00
 Coeff-Com: -0.517D-01 0.307D+00 0.744D+00
 Coeff:     -0.517D-01 0.307D+00 0.744D+00
 Gap=     0.255 Goal=   None    Shift=    0.000
 Gap=     0.135 Goal=   None    Shift=    0.000
 RMSDP=1.09D-06 MaxDP=5.40D-05 DE=-1.58D-07 OVMax= 2.82D-04

 Cycle  13  Pass 1  IDiag  1:
 E= -504.829412019008     Delta-E=       -0.000000073231 Rises=F Damp=F
 DIIS: error= 8.92D-06 at cycle   4 NSaved=   4.
 NSaved= 4 IEnMin= 4 EnMin= -504.829412019008     IErMin= 4 ErrMin= 8.92D-06
 ErrMax= 8.92D-06 EMaxC= 1.00D-01 BMatC= 3.04D-08 BMatP= 1.51D-07
 IDIUse=1 WtCom= 1.00D+00 WtEn= 0.00D+00
 Coeff-Com: -0.923D-01 0.709D-01 0.354D+00 0.667D+00
 Coeff:     -0.923D-01 0.709D-01 0.354D+00 0.667D+00
 Gap=     0.255 Goal=   None    Shift=    0.000
 Gap=     0.135 Goal=   None    Shift=    0.000
 RMSDP=6.43D-07 MaxDP=4.05D-05 DE=-7.32D-08 OVMax= 2.62D-04

 Cycle  14  Pass 1  IDiag  1:
 E= -504.829412039852     Delta-E=       -0.000000020843 Rises=F Damp=F
 DIIS: error= 3.60D-06 at cycle   5 NSaved=   5.
 NSaved= 5 IEnMin= 5 EnMin= -504.829412039852     IErMin= 5 ErrMin= 3.60D-06
 ErrMax= 3.60D-06 EMaxC= 1.00D-01 BMatC= 1.61D-08 BMatP= 3.04D-08
 IDIUse=1 WtCom= 1.00D+00 WtEn= 0.00D+00
 Coeff-Com: -0.323D-01-0.794D-01-0.138D+00 0.441D+00 0.808D+00
 Coeff:     -0.323D-01-0.794D-01-0.138D+00 0.441D+00 0.808D+00
 Gap=     0.255 Goal=   None    Shift=    0.000
 Gap=     0.135 Goal=   None    Shift=    0.000
 RMSDP=5.42D-07 MaxDP=3.05D-05 DE=-2.08D-08 OVMax= 1.92D-04

 Cycle  15  Pass 1  IDiag  1:
 E= -504.829412050099     Delta-E=       -0.000000010247 Rises=F Damp=F
 DIIS: error= 1.34D-06 at cycle   6 NSaved=   6.
 NSaved= 6 IEnMin= 6 EnMin= -504.829412050099     IErMin= 6 ErrMin= 1.34D-06
 ErrMax= 1.34D-06 EMaxC= 1.00D-01 BMatC= 3.42D-09 BMatP= 1.61D-08
 IDIUse=1 WtCom= 1.00D+00 WtEn= 0.00D+00
 Coeff-Com:  0.657D-02-0.708D-01-0.210D+00 0.120D+00 0.490D+00 0.664D+00
 Coeff:      0.657D-02-0.708D-01-0.210D+00 0.120D+00 0.490D+00 0.664D+00
 Gap=     0.255 Goal=   None    Shift=    0.000
 Gap=     0.135 Goal=   None    Shift=    0.000
 RMSDP=2.60D-07 MaxDP=1.41D-05 DE=-1.02D-08 OVMax= 1.00D-04

 Cycle  16  Pass 1  IDiag  1:
 E= -504.829412051849     Delta-E=       -0.000000001750 Rises=F Damp=F
 DIIS: error= 9.23D-07 at cycle   7 NSaved=   7.
 NSaved= 7 IEnMin= 7 EnMin= -504.829412051849     IErMin= 7 ErrMin= 9.23D-07
 ErrMax= 9.23D-07 EMaxC= 1.00D-01 BMatC= 7.68D-10 BMatP= 3.42D-09
 IDIUse=1 WtCom= 1.00D+00 WtEn= 0.00D+00
 Coeff-Com:  0.722D-02-0.368D-01-0.123D+00 0.402D-01 0.227D+00 0.433D+00
 Coeff-Com:  0.452D+00
 Coeff:      0.722D-02-0.368D-01-0.123D+00 0.402D-01 0.227D+00 0.433D+00
 Coeff:      0.452D+00
 Gap=     0.255 Goal=   None    Shift=    0.000
 Gap=     0.135 Goal=   None    Shift=    0.000
 RMSDP=4.80D-08 MaxDP=2.83D-06 DE=-1.75D-09 OVMax= 1.42D-05

 Cycle  17  Pass 1  IDiag  1:
 E= -504.829412052009     Delta-E=       -0.000000000160 Rises=F Damp=F
 DIIS: error= 2.37D-07 at cycle   8 NSaved=   8.
 NSaved= 8 IEnMin= 8 EnMin= -504.829412052009     IErMin= 8 ErrMin= 2.37D-07
 ErrMax= 2.37D-07 EMaxC= 1.00D-01 BMatC= 6.91D-11 BMatP= 7.68D-10
 IDIUse=1 WtCom= 1.00D+00 WtEn= 0.00D+00
 Coeff-Com:  0.261D-02-0.674D-02-0.303D-01 0.566D-02 0.270D-01 0.112D+00
 Coeff-Com:  0.236D+00 0.654D+00
 Coeff:      0.261D-02-0.674D-02-0.303D-01 0.566D-02 0.270D-01 0.112D+00
 Coeff:      0.236D+00 0.654D+00
 Gap=     0.255 Goal=   None    Shift=    0.000
 Gap=     0.135 Goal=   None    Shift=    0.000
 RMSDP=2.04D-08 MaxDP=9.95D-07 DE=-1.60D-10 OVMax= 6.26D-06

 Cycle  18  Pass 1  IDiag  1:
 E= -504.829412052039     Delta-E=       -0.000000000030 Rises=F Damp=F
 DIIS: error= 1.32D-07 at cycle   9 NSaved=   9.
 NSaved= 9 IEnMin= 9 EnMin= -504.829412052039     IErMin= 9 ErrMin= 1.32D-07
 ErrMax= 1.32D-07 EMaxC= 1.00D-01 BMatC= 1.64D-11 BMatP= 6.91D-11
 IDIUse=1 WtCom= 1.00D+00 WtEn= 0.00D+00
 Coeff-Com: -0.635D-03 0.691D-02 0.166D-01-0.518D-02-0.523D-01-0.564D-01
 Coeff-Com: -0.454D-02 0.358D+00 0.738D+00
 Coeff:     -0.635D-03 0.691D-02 0.166D-01-0.518D-02-0.523D-01-0.564D-01
 Coeff:     -0.454D-02 0.358D+00 0.738D+00
 Gap=     0.255 Goal=   None    Shift=    0.000
 Gap=     0.135 Goal=   None    Shift=    0.000
 RMSDP=9.76D-09 MaxDP=3.38D-07 DE=-3.02D-11 OVMax= 3.08D-06

 SCF Done:  E(UB3LYP) =  -504.829412052     A.U. after   18 cycles
             Convg  =    0.9755D-08             -V/T =  2.0043
 <Sx>= 0.0000 <Sy>= 0.0000 <Sz>= 0.5000 <S**2>= 0.7566 S= 0.5033
 <L.S>= 0.000000000000E+00
 KE= 5.026809822785D+02 PE=-2.524180030452D+03 EE= 8.425948720623D+02
 Annihilation of the first spin contaminant:
 S**2 before annihilation     0.7566,   after     0.7500
 Leave Link  502 at Mon Feb 17 03:25:54 2014, MaxMem= 4026531840 cpu:     946.1
 (Enter /usr/caen/gaussian-09revc/g09/l801.exe)
 Range of M.O.s used for correlation:     1   312
 NBasis=   312 NAE=    45 NBE=    44 NFC=     0 NFV=     0
 NROrb=    312 NOA=    45 NOB=    44 NVA=   267 NVB=   268
 Leave Link  801 at Mon Feb 17 03:25:56 2014, MaxMem= 4026531840 cpu:       1.3
 (Enter /usr/caen/gaussian-09revc/g09/l1101.exe)
 Using compressed storage, NAtomX=    30.
 Will process  31 centers per pass.
 Leave Link 1101 at Mon Feb 17 03:25:56 2014, MaxMem= 4026531840 cpu:       4.7
 (Enter /usr/caen/gaussian-09revc/g09/l1102.exe)
 Symmetrizing basis deriv contribution to polar:
 IMax=3 JMax=2 DiffMx= 0.00D+00
 Leave Link 1102 at Mon Feb 17 03:25:56 2014, MaxMem= 4026531840 cpu:       0.3
 (Enter /usr/caen/gaussian-09revc/g09/l1110.exe)
 Forming Gx(P) for the SCF density, NAtomX=    30.
 Integral derivatives from FoFDir/FoFCou, PRISM(SPDF).
 Do as many integral derivatives as possible in FoFDir.
 G2DrvN: MDV=    4026531496.
 G2DrvN: will do    31 centers at a time, making    1 passes doing MaxLOS=2.
 Calling FoFCou, ICntrl=  3107 FMM=F I1Cent=   0 AccDes= 0.00D+00.
 FoFCou: FMM=F IPFlag=           0 FMFlag=      100000 FMFlg1=           0
         NFxFlg=           0 DoJE=F BraDBF=F KetDBF=F FulRan=T
         Omega=  0.000000  0.000000  1.000000  0.000000  0.000000 ICntrl=    3107 IOpCl=  1
         NMat0=    1 NMatS0=    1 NMatT0=    0 NMatD0=    1 NMtDS0=    0 NMtDT0=    0
         I1Cent=           0 NGrid=           0.
 Symmetry not used in FoFCou.
 FoFDir/FoFCou used for L=0 through L=2.
 End of G2Drv Frequency-dependent properties file   721 does not exist.
 End of G2Drv Frequency-dependent properties file   722 does not exist.
 Leave Link 1110 at Mon Feb 17 03:28:27 2014, MaxMem= 4026531840 cpu:    1197.6
 (Enter /usr/caen/gaussian-09revc/g09/l1002.exe)
 Minotr:  UHF open shell wavefunction.
          IDoAtm=111111111111111111111111111111
          Direct CPHF calculation.
          Differentiating once with respect to nuclear coordinates.
          Requested convergence is 1.0D-06 RMS, and 1.0D-05 maximum.
          Secondary convergence is 1.0D-12 RMS, and 1.0D-12 maximum.
          NewPWx=T KeepS1=F KeepF1=F KeepIn=T MapXYZ=F SortEE=F KeepMc=T.
          MDV=    4026531536 using IRadAn=       2.
 Generate precomputed XC quadrature information.
          Keep R1 and R2 ints in memory in canonical form, NReq=2738891878.
 Symmetry not used in FoFDir.
 MinBra= 0 MaxBra= 2 Meth= 1.
 IRaf=       0 NMat=   1 IRICut=       1 DoRegI=T DoRafI=F ISym2E= 0 JSym2E=0.
          Solving linear equations simultaneously, MaxMat=       0.
          There are    93 degrees of freedom in the 1st order CPHF.  IDoFFX=5.
     87 vectors produced by pass  0 Test12= 2.56D-10 1.08D-07 XBig12= 2.06D-01 1.65D-01.
 AX will form    87 AO Fock derivatives at one time.
     87 vectors produced by pass  1 Test12= 2.56D-10 1.08D-07 XBig12= 1.48D-02 1.84D-02.
     87 vectors produced by pass  2 Test12= 2.56D-10 1.08D-07 XBig12= 1.04D-04 1.12D-03.
     87 vectors produced by pass  3 Test12= 2.56D-10 1.08D-07 XBig12= 6.18D-07 9.09D-05.
     66 vectors produced by pass  4 Test12= 2.56D-10 1.08D-07 XBig12= 2.88D-09 4.84D-06.
      8 vectors produced by pass  5 Test12= 2.56D-10 1.08D-07 XBig12= 1.21D-11 3.18D-07.
 Inverted reduced A of dimension   422 with in-core refinement.
 End of Minotr Frequency-dependent properties file   721 does not exist.
 End of Minotr Frequency-dependent properties file   722 does not exist.
 Leave Link 1002 at Mon Feb 17 03:32:10 2014, MaxMem= 4026531840 cpu:    1778.4
 (Enter /usr/caen/gaussian-09revc/g09/l601.exe)
 Copying SCF densities to generalized density rwf, IOpCl= 1 IROHF=0.

 **********************************************************************

            Population analysis using the SCF density.

 **********************************************************************

 Orbital symmetries:
 Alpha Orbitals:
       Occupied  (A) (A) (A) (A) (A) (A) (A) (A) (A) (A) (A) (A)
                 (A) (A) (A) (A) (A) (A) (A) (A) (A) (A) (A) (A)
                 (A) (A) (A) (A) (A) (A) (A) (A) (A) (A) (A) (A)
                 (A) (A) (A) (A) (A) (A) (A) (A) (A)
       Virtual   (A) (A) (A) (A) (A) (A) (A) (A) (A) (A) (A) (A)
                 (A) (A) (A) (A) (A) (A) (A) (A) (A) (A) (A) (A)
                 (A) (A) (A) (A) (A) (A) (A) (A) (A) (A) (A) (A)
                 (A) (A) (A) (A) (A) (A) (A) (A) (A) (A) (A) (A)
                 (A) (A) (A) (A) (A) (A) (A) (A) (A) (A) (A) (A)
                 (A) (A) (A) (A) (A) (A) (A) (A) (A) (A) (A) (A)
                 (A) (A) (A) (A) (A) (A) (A) (A) (A) (A) (A) (A)
                 (A) (A) (A) (A) (A) (A) (A) (A) (A) (A) (A) (A)
                 (A) (A) (A) (A) (A) (A) (A) (A) (A) (A) (A) (A)
                 (A) (A) (A) (A) (A) (A) (A) (A) (A) (A) (A) (A)
                 (A) (A) (A) (A) (A) (A) (A) (A) (A) (A) (A) (A)
                 (A) (A) (A) (A) (A) (A) (A) (A) (A) (A) (A) (A)
                 (A) (A) (A) (A) (A) (A) (A) (A) (A) (A) (A) (A)
                 (A) (A) (A) (A) (A) (A) (A) (A) (A) (A) (A) (A)
                 (A) (A) (A) (A) (A) (A) (A) (A) (A) (A) (A) (A)
                 (A) (A) (A) (A) (A) (A) (A) (A) (A) (A) (A) (A)
                 (A) (A) (A) (A) (A) (A) (A) (A) (A) (A) (A) (A)
                 (A) (A) (A) (A) (A) (A) (A) (A) (A) (A) (A) (A)
                 (A) (A) (A) (A) (A) (A) (A) (A) (A) (A) (A) (A)
                 (A) (A) (A) (A) (A) (A) (A) (A) (A) (A) (A) (A)
                 (A) (A) (A) (A) (A) (A) (A) (A) (A) (A) (A) (A)
                 (A) (A) (A) (A) (A) (A) (A) (A) (A) (A) (A) (A)
                 (A) (A) (A)
 Beta  Orbitals:
       Occupied  (A) (A) (A) (A) (A) (A) (A) (A) (A) (A) (A) (A)
                 (A) (A) (A) (A) (A) (A) (A) (A) (A) (A) (A) (A)
                 (A) (A) (A) (A) (A) (A) (A) (A) (A) (A) (A) (A)
                 (A) (A) (A) (A) (A) (A) (A) (A)
       Virtual   (A) (A) (A) (A) (A) (A) (A) (A) (A) (A) (A) (A)
                 (A) (A) (A) (A) (A) (A) (A) (A) (A) (A) (A) (A)
                 (A) (A) (A) (A) (A) (A) (A) (A) (A) (A) (A) (A)
                 (A) (A) (A) (A) (A) (A) (A) (A) (A) (A) (A) (A)
                 (A) (A) (A) (A) (A) (A) (A) (A) (A) (A) (A) (A)
                 (A) (A) (A) (A) (A) (A) (A) (A) (A) (A) (A) (A)
                 (A) (A) (A) (A) (A) (A) (A) (A) (A) (A) (A) (A)
                 (A) (A) (A) (A) (A) (A) (A) (A) (A) (A) (A) (A)
                 (A) (A) (A) (A) (A) (A) (A) (A) (A) (A) (A) (A)
                 (A) (A) (A) (A) (A) (A) (A) (A) (A) (A) (A) (A)
                 (A) (A) (A) (A) (A) (A) (A) (A) (A) (A) (A) (A)
                 (A) (A) (A) (A) (A) (A) (A) (A) (A) (A) (A) (A)
                 (A) (A) (A) (A) (A) (A) (A) (A) (A) (A) (A) (A)
                 (A) (A) (A) (A) (A) (A) (A) (A) (A) (A) (A) (A)
                 (A) (A) (A) (A) (A) (A) (A) (A) (A) (A) (A) (A)
                 (A) (A) (A) (A) (A) (A) (A) (A) (A) (A) (A) (A)
                 (A) (A) (A) (A) (A) (A) (A) (A) (A) (A) (A) (A)
                 (A) (A) (A) (A) (A) (A) (A) (A) (A) (A) (A) (A)
                 (A) (A) (A) (A) (A) (A) (A) (A) (A) (A) (A) (A)
                 (A) (A) (A) (A) (A) (A) (A) (A) (A) (A) (A) (A)
                 (A) (A) (A) (A) (A) (A) (A) (A) (A) (A) (A) (A)
                 (A) (A) (A) (A) (A) (A) (A) (A) (A) (A) (A) (A)
                 (A) (A) (A) (A)
 The electronic state is 2-A.
 Alpha  occ. eigenvalues --  -19.18134 -19.16814 -10.23441 -10.19557 -10.18890
 Alpha  occ. eigenvalues --  -10.17820 -10.17294 -10.17057 -10.16198 -10.15726
 Alpha  occ. eigenvalues --  -10.15443  -1.12778  -0.89411  -0.82345  -0.81042
 Alpha  occ. eigenvalues --   -0.75156  -0.70524  -0.68410  -0.67057  -0.62004
 Alpha  occ. eigenvalues --   -0.57929  -0.56102  -0.51680  -0.49872  -0.48778
 Alpha  occ. eigenvalues --   -0.45779  -0.45492  -0.44063  -0.43025  -0.42106
 Alpha  occ. eigenvalues --   -0.41296  -0.40325  -0.39152  -0.38598  -0.38490
 Alpha  occ. eigenvalues --   -0.37210  -0.35916  -0.35284  -0.34314  -0.33661
 Alpha  occ. eigenvalues --   -0.32336  -0.32164  -0.31376  -0.26335  -0.22617
 Alpha virt. eigenvalues --    0.02913   0.04162   0.04547   0.05227   0.06390
 Alpha virt. eigenvalues --    0.07781   0.08330   0.08751   0.09874   0.10404
 Alpha virt. eigenvalues --    0.11439   0.11679   0.11774   0.13366   0.14291
 Alpha virt. eigenvalues --    0.14793   0.15105   0.15639   0.15918   0.18198
 Alpha virt. eigenvalues --    0.18569   0.18690   0.19849   0.21661   0.21839
 Alpha virt. eigenvalues --    0.23098   0.25243   0.25297   0.26135   0.28628
 Alpha virt. eigenvalues --    0.28815   0.29717   0.30664   0.32989   0.34485
 Alpha virt. eigenvalues --    0.34877   0.37498   0.37857   0.39041   0.40918
 Alpha virt. eigenvalues --    0.42413   0.43321   0.45660   0.46764   0.48777
 Alpha virt. eigenvalues --    0.49337   0.51789   0.52311   0.53125   0.53986
 Alpha virt. eigenvalues --    0.54464   0.56318   0.56664   0.56886   0.57468
 Alpha virt. eigenvalues --    0.57792   0.58644   0.59214   0.59493   0.59782
 Alpha virt. eigenvalues --    0.60456   0.60706   0.60915   0.61149   0.61729
 Alpha virt. eigenvalues --    0.63002   0.63885   0.64241   0.65553   0.65946
 Alpha virt. eigenvalues --    0.66484   0.68040   0.68675   0.71158   0.72223
 Alpha virt. eigenvalues --    0.79693   0.80275   0.83138   0.85043   0.88267
 Alpha virt. eigenvalues --    0.89708   0.92348   0.94401   0.96187   0.98900
 Alpha virt. eigenvalues --    0.99970   1.01036   1.01371   1.05235   1.06740
 Alpha virt. eigenvalues --    1.08339   1.10069   1.13659   1.14247   1.17680
 Alpha virt. eigenvalues --    1.20369   1.21625   1.23843   1.24462   1.26276
 Alpha virt. eigenvalues --    1.32087   1.33466   1.36965   1.37485   1.38157
 Alpha virt. eigenvalues --    1.39791   1.40705   1.42484   1.43747   1.44776
 Alpha virt. eigenvalues --    1.45962   1.46138   1.47296   1.48873   1.49742
 Alpha virt. eigenvalues --    1.49940   1.51072   1.52337   1.53303   1.54598
 Alpha virt. eigenvalues --    1.55239   1.56436   1.57439   1.58317   1.58855
 Alpha virt. eigenvalues --    1.59092   1.61012   1.61684   1.62494   1.65069
 Alpha virt. eigenvalues --    1.66372   1.67010   1.68066   1.68998   1.69867
 Alpha virt. eigenvalues --    1.71938   1.73440   1.74666   1.75867   1.77639
 Alpha virt. eigenvalues --    1.78423   1.79473   1.79689   1.81247   1.82916
 Alpha virt. eigenvalues --    1.86119   1.87071   1.91863   1.92466   1.93260
 Alpha virt. eigenvalues --    1.95814   1.97072   1.98793   1.99764   2.01295
 Alpha virt. eigenvalues --    2.04526   2.05736   2.08002   2.08678   2.09523
 Alpha virt. eigenvalues --    2.10866   2.11923   2.14417   2.17241   2.19779
 Alpha virt. eigenvalues --    2.20970   2.23210   2.26019   2.26260   2.30330
 Alpha virt. eigenvalues --    2.30569   2.32474   2.34999   2.36613   2.37997
 Alpha virt. eigenvalues --    2.39835   2.41026   2.41318   2.43593   2.44966
 Alpha virt. eigenvalues --    2.45468   2.46683   2.48201   2.48612   2.49864
 Alpha virt. eigenvalues --    2.50744   2.51493   2.51957   2.53459   2.54334
 Alpha virt. eigenvalues --    2.54820   2.56707   2.57658   2.59050   2.60217
 Alpha virt. eigenvalues --    2.60414   2.62942   2.64017   2.64976   2.65303
 Alpha virt. eigenvalues --    2.68118   2.68502   2.71736   2.73343   2.74677
 Alpha virt. eigenvalues --    2.75885   2.77892   2.78629   2.80823   2.81437
 Alpha virt. eigenvalues --    2.84629   2.88304   2.89313   2.91001   2.92409
 Alpha virt. eigenvalues --    2.94207   2.95873   2.98987   3.03964   3.05246
 Alpha virt. eigenvalues --    3.09076   3.11541   3.17202   3.18655   3.20396
 Alpha virt. eigenvalues --    3.30246   3.38211   3.41098   3.45434   3.47261
 Alpha virt. eigenvalues --    3.65341   3.73583   3.77535   3.78214   3.78444
 Alpha virt. eigenvalues --    3.78625   3.79955   3.81031   3.82553   3.84737
 Alpha virt. eigenvalues --    3.85105   3.91284   3.97451   4.02735   4.08629
 Alpha virt. eigenvalues --    4.17589   4.23375   4.28378   4.29475   4.38334
 Alpha virt. eigenvalues --    4.72555   4.87927   4.93546   5.19444   5.27383
 Alpha virt. eigenvalues --    5.76603  23.74244  23.81539  23.81975  23.83548
 Alpha virt. eigenvalues --   23.87820  23.89127  23.92245  23.93705  23.94425
 Alpha virt. eigenvalues --   49.78070  49.85187
  Beta  occ. eigenvalues --  -19.17895 -19.15697 -10.23386 -10.19570 -10.17972
  Beta  occ. eigenvalues --  -10.17718 -10.17294 -10.17054 -10.16196 -10.15726
  Beta  occ. eigenvalues --  -10.15443  -1.11569  -0.87825  -0.81726  -0.80785
  Beta  occ. eigenvalues --   -0.74989  -0.69407  -0.68408  -0.66478  -0.61549
  Beta  occ. eigenvalues --   -0.57221  -0.56078  -0.50473  -0.49556  -0.48198
  Beta  occ. eigenvalues --   -0.45651  -0.44810  -0.43623  -0.42852  -0.41874
  Beta  occ. eigenvalues --   -0.40698  -0.40001  -0.38591  -0.38332  -0.37305
  Beta  occ. eigenvalues --   -0.37010  -0.35521  -0.35123  -0.33935  -0.32733
  Beta  occ. eigenvalues --   -0.32331  -0.31865  -0.30607  -0.24883
  Beta virt. eigenvalues --   -0.11397   0.03103   0.04394   0.04888   0.05442
  Beta virt. eigenvalues --    0.06501   0.08006   0.08394   0.08829   0.09929
  Beta virt. eigenvalues --    0.10468   0.11523   0.11760   0.11905   0.13417
  Beta virt. eigenvalues --    0.14350   0.14871   0.15267   0.15680   0.16083
  Beta virt. eigenvalues --    0.18478   0.18769   0.19139   0.20326   0.21820
  Beta virt. eigenvalues --    0.21940   0.23155   0.25360   0.25618   0.26366
  Beta virt. eigenvalues --    0.28675   0.29092   0.29891   0.30943   0.33065
  Beta virt. eigenvalues --    0.34703   0.34976   0.37704   0.37957   0.39352
  Beta virt. eigenvalues --    0.41126   0.42664   0.43487   0.45866   0.46918
  Beta virt. eigenvalues --    0.49031   0.49892   0.52380   0.53018   0.53402
  Beta virt. eigenvalues --    0.54116   0.55277   0.56446   0.56892   0.57122
  Beta virt. eigenvalues --    0.57652   0.57922   0.58704   0.59228   0.59613
  Beta virt. eigenvalues --    0.59916   0.60537   0.60849   0.61134   0.61430
  Beta virt. eigenvalues --    0.61837   0.63264   0.63968   0.64290   0.65648
  Beta virt. eigenvalues --    0.66107   0.66558   0.68398   0.68906   0.71207
  Beta virt. eigenvalues --    0.72355   0.80261   0.80648   0.83754   0.85369
  Beta virt. eigenvalues --    0.88664   0.89946   0.92714   0.95066   0.96561
  Beta virt. eigenvalues --    0.98940   1.00130   1.01515   1.01686   1.05535
  Beta virt. eigenvalues --    1.06958   1.08532   1.10408   1.13828   1.14369
  Beta virt. eigenvalues --    1.17740   1.20439   1.21797   1.23937   1.24784
  Beta virt. eigenvalues --    1.26860   1.32240   1.33736   1.37101   1.37700
  Beta virt. eigenvalues --    1.38288   1.39865   1.40936   1.42855   1.44164
  Beta virt. eigenvalues --    1.45146   1.46045   1.46427   1.47551   1.48952
  Beta virt. eigenvalues --    1.49780   1.50148   1.51107   1.52398   1.53435
  Beta virt. eigenvalues --    1.54755   1.55473   1.56604   1.57738   1.58655
  Beta virt. eigenvalues --    1.59225   1.59313   1.61124   1.61913   1.62612
  Beta virt. eigenvalues --    1.65315   1.66570   1.67191   1.68157   1.69154
  Beta virt. eigenvalues --    1.69964   1.72119   1.73466   1.74754   1.75922
  Beta virt. eigenvalues --    1.77802   1.78453   1.79600   1.79817   1.81511
  Beta virt. eigenvalues --    1.83028   1.86283   1.87317   1.91998   1.92775
  Beta virt. eigenvalues --    1.93328   1.96218   1.97228   1.98914   2.00033
  Beta virt. eigenvalues --    2.01581   2.04748   2.06324   2.08184   2.08910
  Beta virt. eigenvalues --    2.10016   2.11047   2.12002   2.14645   2.17400
  Beta virt. eigenvalues --    2.20683   2.21466   2.23755   2.26137   2.26320
  Beta virt. eigenvalues --    2.30563   2.30729   2.32524   2.35056   2.36642
  Beta virt. eigenvalues --    2.38089   2.40180   2.41195   2.41583   2.43839
  Beta virt. eigenvalues --    2.45122   2.45635   2.46685   2.48303   2.48708
  Beta virt. eigenvalues --    2.49973   2.50774   2.51527   2.51998   2.53789
  Beta virt. eigenvalues --    2.54410   2.55133   2.56875   2.57780   2.59204
  Beta virt. eigenvalues --    2.60289   2.60671   2.63171   2.64240   2.65044
  Beta virt. eigenvalues --    2.65358   2.68289   2.68556   2.71912   2.73486
  Beta virt. eigenvalues --    2.74999   2.76001   2.77953   2.79248   2.80869
  Beta virt. eigenvalues --    2.81688   2.84726   2.88408   2.89428   2.91207
  Beta virt. eigenvalues --    2.92450   2.94295   2.96057   3.01162   3.04195
  Beta virt. eigenvalues --    3.05505   3.09199   3.11613   3.17558   3.19106
  Beta virt. eigenvalues --    3.22182   3.30647   3.38761   3.42187   3.46510
  Beta virt. eigenvalues --    3.47390   3.66211   3.74584   3.77536   3.78217
  Beta virt. eigenvalues --    3.78584   3.78792   3.79999   3.81057   3.84160
  Beta virt. eigenvalues --    3.85114   3.85704   3.91750   3.97455   4.02975
  Beta virt. eigenvalues --    4.08755   4.17813   4.23981   4.28507   4.29477
  Beta virt. eigenvalues --    4.38387   4.73147   4.88678   4.94536   5.23013
  Beta virt. eigenvalues --    5.27790   5.77361  23.74468  23.81653  23.81980
  Beta virt. eigenvalues --   23.84256  23.87833  23.89135  23.92374  23.93707
  Beta virt. eigenvalues --   23.94426  49.79050  49.85552
          Condensed to atoms (all electrons):
              1          2          3          4          5          6
     1  C    4.897346   0.400445   0.402495   0.397590   0.332604  -0.033034
     2  H    0.400445   0.578902  -0.029372  -0.026835  -0.037388  -0.004375
     3  H    0.402495  -0.029372   0.574900  -0.028720  -0.030973   0.007909
     4  H    0.397590  -0.026835  -0.028720   0.571407  -0.027508  -0.008574
     5  C    0.332604  -0.037388  -0.030973  -0.027508   5.105734   0.410601
     6  H   -0.033034  -0.004375   0.007909  -0.008574   0.410601   0.579096
     7  C    0.001553  -0.001843   0.003495  -0.000138  -0.085463   0.010828
     8  H    0.000154   0.000106  -0.000131  -0.000127  -0.010545  -0.000096
     9  H    0.000883   0.000644  -0.000630   0.000270  -0.004056  -0.000425
    10  C   -0.000344  -0.000150  -0.000026   0.000021   0.008019  -0.000445
    11  H   -0.000078   0.000012   0.000030  -0.000004  -0.000002  -0.000017
    12  H   -0.000051  -0.000019  -0.000019   0.000008   0.000651  -0.000050
    13  C   -0.000001  -0.000001   0.000033  -0.000001  -0.000167   0.000013
    14  H   -0.000005   0.000000   0.000007   0.000000   0.000025   0.000000
    15  C    0.000000   0.000000   0.000000   0.000000   0.000004   0.000000
    16  H    0.000000   0.000000   0.000000   0.000000   0.000000   0.000000
    17  H    0.000000   0.000000   0.000000   0.000000   0.000000   0.000000
    18  H    0.000000   0.000000   0.000000   0.000000  -0.000001   0.000000
    19  C   -0.064678   0.008778  -0.006777  -0.002668   0.322967  -0.041890
    20  H   -0.005691   0.000149   0.004971  -0.000626  -0.039239   0.007428
    21  H    0.001022  -0.000279  -0.000434   0.001780  -0.028875  -0.010900
    22  H    0.002496  -0.000283   0.000037  -0.000023  -0.002275   0.000309
    23  C   -0.000008   0.000000  -0.000009   0.000000  -0.000007   0.000000
    24  H    0.000000   0.000000  -0.000001   0.000000  -0.000001   0.000000
    25  H   -0.000001   0.000002  -0.000006   0.000000   0.000002   0.000000
    26  H   -0.000012  -0.000008   0.000123  -0.000003   0.000035   0.000000
    27  C   -0.060097  -0.003773  -0.008790   0.007942   0.367694  -0.045612
    28  H   -0.002332   0.003994  -0.000707  -0.000174  -0.038081  -0.010322
    29  O    0.003795   0.000114  -0.000017  -0.000223  -0.051832   0.006649
    30  O    0.000111   0.000032  -0.000086   0.000020  -0.025203  -0.000497
              7          8          9         10         11         12
     1  C    0.001553   0.000154   0.000883  -0.000344  -0.000078  -0.000051
     2  H   -0.001843   0.000106   0.000644  -0.000150   0.000012  -0.000019
     3  H    0.003495  -0.000131  -0.000630  -0.000026   0.000030  -0.000019
     4  H   -0.000138  -0.000127   0.000270   0.000021  -0.000004   0.000008
     5  C   -0.085463  -0.010545  -0.004056   0.008019  -0.000002   0.000651
     6  H    0.010828  -0.000096  -0.000425  -0.000445  -0.000017  -0.000050
     7  C    5.067802   0.400611   0.393884   0.333724  -0.045934  -0.036301
     8  H    0.400611   0.570113  -0.031784  -0.036827   0.008802  -0.005877
     9  H    0.393884  -0.031784   0.593166  -0.032716  -0.007571   0.008246
    10  C    0.333724  -0.036827  -0.032716   4.968565   0.400838   0.412449
    11  H   -0.045934   0.008802  -0.007571   0.400838   0.616804  -0.033759
    12  H   -0.036301  -0.005877   0.008246   0.412449  -0.033759   0.559135
    13  C   -0.051030  -0.004328  -0.005632   0.369711  -0.040044  -0.036114
    14  H   -0.007466   0.005663  -0.000450  -0.047505   0.010098  -0.006028
    15  C    0.007597  -0.000011  -0.000056  -0.067477  -0.004453  -0.005806
    16  H   -0.000035   0.000024   0.000006  -0.007340   0.004790  -0.000637
    17  H   -0.000427  -0.000006   0.000018   0.008663  -0.000286   0.000151
    18  H    0.000110   0.000012  -0.000005  -0.004672  -0.000573   0.004104
    19  C   -0.014460   0.007846   0.000086  -0.000167   0.000027   0.000044
    20  H    0.002740  -0.000943  -0.000184  -0.000071   0.000000  -0.000050
    21  H   -0.000129   0.000180  -0.000053   0.000017   0.000002  -0.000003
    22  H   -0.000210  -0.003984  -0.000078   0.000053  -0.000051   0.000409
    23  C   -0.005754  -0.000632   0.002841  -0.067985  -0.009204   0.007744
    24  H   -0.000006  -0.000088  -0.000142   0.008129  -0.000217  -0.000359
    25  H   -0.000818   0.000100   0.000604  -0.006202   0.005749  -0.000099
    26  H    0.001555   0.000351   0.000360  -0.005717  -0.000208  -0.000173
    27  C    0.305736  -0.033073  -0.033197  -0.045059  -0.002926  -0.010651
    28  H   -0.040093   0.008206  -0.002940  -0.005832   0.004803  -0.000929
    29  O   -0.061922  -0.006340   0.003823   0.002512  -0.000342   0.010365
    30  O   -0.005122   0.018307  -0.000010  -0.001112   0.000038   0.003215
             13         14         15         16         17         18
     1  C   -0.000001  -0.000005   0.000000   0.000000   0.000000   0.000000
     2  H   -0.000001   0.000000   0.000000   0.000000   0.000000   0.000000
     3  H    0.000033   0.000007   0.000000   0.000000   0.000000   0.000000
     4  H   -0.000001   0.000000   0.000000   0.000000   0.000000   0.000000
     5  C   -0.000167   0.000025   0.000004   0.000000   0.000000  -0.000001
     6  H    0.000013   0.000000   0.000000   0.000000   0.000000   0.000000
     7  C   -0.051030  -0.007466   0.007597  -0.000035  -0.000427   0.000110
     8  H   -0.004328   0.005663  -0.000011   0.000024  -0.000006   0.000012
     9  H   -0.005632  -0.000450  -0.000056   0.000006   0.000018  -0.000005
    10  C    0.369711  -0.047505  -0.067477  -0.007340   0.008663  -0.004672
    11  H   -0.040044   0.010098  -0.004453   0.004790  -0.000286  -0.000573
    12  H   -0.036114  -0.006028  -0.005806  -0.000637   0.000151   0.004104
    13  C    5.032705   0.410304   0.379589  -0.038215  -0.032806  -0.032808
    14  H    0.410304   0.617749  -0.040161   0.009523  -0.006861  -0.006288
    15  C    0.379589  -0.040161   4.860810   0.402173   0.401773   0.402796
    16  H   -0.038215   0.009523   0.402173   0.596422  -0.031711  -0.030637
    17  H   -0.032806  -0.006861   0.401773  -0.031711   0.588530  -0.027596
    18  H   -0.032808  -0.006288   0.402796  -0.030637  -0.027596   0.580146
    19  C   -0.000013  -0.000011   0.000000   0.000000   0.000000   0.000000
    20  H    0.000012  -0.000004   0.000000   0.000000   0.000000   0.000000
    21  H   -0.000001   0.000000   0.000000   0.000000   0.000000   0.000000
    22  H    0.000045  -0.000001   0.000000   0.000000   0.000000  -0.000002
    23  C    0.356548  -0.047812  -0.066551  -0.006449  -0.005363   0.008623
    24  H   -0.031640  -0.006225  -0.006260  -0.000630   0.004096   0.000029
    25  H   -0.040007   0.009663  -0.004812   0.005018  -0.000661  -0.000203
    26  H   -0.032093  -0.005883   0.008008  -0.000140  -0.000002  -0.000522
    27  C    0.006292   0.000015  -0.000231  -0.000013   0.000012  -0.000009
    28  H   -0.000018   0.000008  -0.000005  -0.000009   0.000000   0.000006
    29  O    0.000175   0.000032   0.000002   0.000001   0.000000  -0.000036
[...]
 4312,-0.00694097,0.00110975,0.00023432,0.00007642,-0.00004642,-0.00173
 355,-0.00040942,-0.00108954,-0.02704140,-0.00533012,-0.01896138,0.0002
 2789,0.00121282,0.00049232,-0.00137642,0.00151784,-0.00045830,0.000139
 51,-0.00008771,-0.00000627,0.00088984,-0.00035475,0.00016856,0.0000488
 3,0.00037069,0.00036750,0.00001419,-0.00006216,-0.00000350,-0.00000738
 ,0.00001093,0.00000033,-0.00000552,0.00001192,0.00000338,-0.00005731,0
 .00007349,0.00001903,-0.03409915,-0.05278965,-0.02228271,0.03930453,0.
 05901015,-0.00000184,-0.00000158,-0.00002102,0.00000959,-0.00000253,0.
 00000851,0.00000056,-0.00000203,-0.00000146,-0.00000855,0.00000028,0.0
 0000669,-0.00001844,-0.00001487,0.00000713,-0.00001175,0.00000424,-0.0
 0000036,0.00022195,-0.00004843,0.00013389,-0.00005474,-0.00003950,0.00
 001685,-0.00002055,0.00012184,-0.00014270,0.00026621,-0.00041672,0.000
 67784,0.00026193,0.00018430,0.00051321,-0.00027708,-0.00010143,0.00029
 689,0.00122135,0.00058874,-0.00050057,0.00028992,-0.00043174,0.0004852
 5,-0.00030517,0.00018608,-0.00011982,-0.00013825,-0.00004988,-0.000112
 57,0.00037036,-0.00037151,0.00026735,0.00030474,0.00007562,0.00005689,
 0.00000504,-0.00002102,-0.00000276,-0.00000027,0.00000278,-0.00000159,
 -0.00000658,0.00000377,0.00000178,-0.00001148,0.00002977,0.00000390,-0
 .11502789,-0.02313100,-0.12201754,0.12713432,0.02534836,0.12881895,0.0
 0001003,-0.00000715,0.00003483,-0.00001816,0.00000609,-0.00003059,-0.0
 0000529,-0.00000238,0.00001572,0.00001099,0.00000625,-0.00001008,0.000
 00147,0.00000519,-0.00002452,0.00000151,0.00000128,-0.00000084,-0.0001
 5519,-0.00001560,-0.00009271,0.00017129,0.00012404,-0.00009861,-0.0000
 9152,0.00009074,0.00019410,0.00041205,0.00006479,0.00146749,0.00002778
 ,-0.00014564,-0.00049411,0.00007296,0.00015356,-0.00021670,-0.00256615
 ,-0.00298254,0.00730325,0.00032335,-0.00171948,-0.00016217,0.00016379,
 0.00053333,-0.00084253,0.00037295,0.00007074,-0.00000194,0.00003334,0.
 00001198,-0.00012543,-0.00012702,-0.00004901,0.00004098,0.00000429,0.0
 0001660,0.00001617,0.00000588,-0.00000660,-0.00000483,0.00000361,-0.00
 000355,-0.00000795,0.00000709,-0.00001353,0.00000272,-0.05406137,-0.01
 224641,0.03855465,0.00532049,0.00905658,-0.02563628,0.05396189,-0.0000
 0247,-0.00001147,-0.00001088,0.00000237,0.00000661,0.00000455,-0.00000
 290,0.00000490,-0.00000194,0.00000217,0.00000174,0.00000157,-0.0000108
 7,-0.00000090,-0.00000728,-0.00000573,0.00000220,0.00000065,-0.0001055
 8,0.00001548,-0.00012407,0.00018307,-0.00008072,-0.00006287,-0.0000496
 9,0.00001244,0.00000760,0.00102511,0.00156032,0.00137206,-0.00038940,0
 .00008049,-0.00102488,0.00035969,0.00027146,-0.00028723,-0.00574428,-0
 .01199036,0.03182617,-0.00144813,-0.00644167,-0.00039121,-0.00080634,0
 .00162703,0.00131222,0.00056851,-0.00004900,-0.00092481,0.00004798,-0.
 00007414,-0.00008173,-0.00006006,0.00036296,-0.00041661,0.00000486,-0.
 00000983,-0.00000346,-0.00000034,-0.00000409,0.00000066,0.00000033,0.0
 0000214,0.00000016,0.00000155,0.00000356,0.00000503,-0.01226047,-0.071
 45259,0.07373857,0.00159471,0.00094325,-0.00499996,0.01562973,0.079556
 64,-0.00000710,0.00001035,-0.00003514,0.00000733,-0.00000475,0.0000313
 1,-0.00000014,0.00001329,-0.00000692,0.00000400,-0.00000764,0.00000813
 ,0.00001698,0.00001579,0.00001218,0.00002027,-0.00000427,0.00000276,0.
 00016031,0.00014788,0.00010151,-0.00009141,-0.00009261,0.00004385,0.00
 009089,0.00003032,-0.00017982,-0.00035849,-0.00045960,0.00090868,0.000
 54563,0.00028243,0.00046584,0.00006751,0.00000758,0.00027257,0.0003954
 1,0.00073841,-0.00126957,-0.00018230,-0.00002334,0.00163632,-0.0001266
 2,-0.00030435,0.00060737,-0.00043758,0.00047346,0.00034264,0.00007362,
 -0.00000737,-0.00007728,-0.00012583,0.00007370,0.00028857,-0.00000908,
 0.00000478,-0.00001683,-0.00000700,0.00000567,0.00001017,0.00000632,0.
 00000044,0.00000660,0.00000387,-0.00002898,-0.00001249,0.03831973,0.07
 395706,-0.26823258,0.00322800,0.00481883,-0.01584566,-0.04284481,-0.08
 303512,0.29232944,0.00001436,-0.00000317,0.00000457,-0.00000432,-0.000
 00019,0.00000454,-0.00001077,0.00001367,0.00000222,0.00001075,-0.00000
 081,0.00000418,0.00004281,0.00001801,0.00000697,0.00001882,-0.00000922
 ,-0.00000583,-0.00093431,-0.00023220,-0.00045561,-0.00001340,0.0000153
 6,0.00009202,-0.00121668,-0.00100530,-0.00039812,0.00015513,0.00070986
 ,-0.00018167,-0.00006001,-0.00004520,-0.00004626,0.00012836,0.00006389
 ,0.00017074,0.00669992,-0.00448097,-0.00406475,0.00042815,0.00073529,-
 0.00020899,0.00021161,-0.00080985,-0.00039983,-0.00003444,-0.00014689,
 -0.00009387,0.00035377,-0.00026519,0.00016783,0.00037221,-0.00024638,0
 .00008628,-0.00000742,0.00004089,0.00000807,0.00000219,-0.00000722,0.0
 0000179,0.00000425,-0.00000491,-0.00000208,0.00002929,-0.00004834,-0.0
 0000889,-0.19007537,0.10436898,0.07704031,-0.01985955,0.01396563,0.011
 45424,-0.00382478,0.00153564,0.00124036,0.20751256,-0.00001078,-0.0000
 3082,-0.00004685,-0.00000901,0.00000927,0.00000256,-0.00001758,0.00003
 986,0.00002647,0.00003350,0.00000244,0.00000909,-0.00004106,-0.0000035
 2,0.00000190,0.00002740,0.00000676,0.00000325,0.00019485,-0.00045006,0
 .00004158,-0.00015016,-0.00018804,0.00015093,-0.00057588,0.00067884,-0
 .00029944,0.00094002,0.00082981,0.00005709,-0.00013274,-0.00002949,0.0
 0000625,0.00002731,0.00006984,0.00018144,0.02515948,-0.01519190,-0.013
 12141,0.00004967,0.00114661,0.00061479,-0.00343928,-0.00633059,0.00078
 993,-0.00016467,0.00017395,-0.00016068,-0.00013733,0.00023888,0.000241
 84,0.00165658,-0.00128537,-0.00082190,-0.00000189,-0.00000367,-0.00001
 961,-0.00001570,0.00000095,0.00002123,0.00002091,0.00000120,0.00000824
 ,-0.00002534,-0.00003840,0.00000024,0.10321384,-0.12231156,-0.05501811
 ,-0.00382291,0.00259216,0.00299499,-0.00858391,0.00560759,0.00334815,-
 0.11395005,0.13392596,0.00000035,-0.00002418,-0.00002249,-0.00002911,0
 .00000581,-0.00004383,-0.00002863,0.00000956,0.00006576,0.00003675,0.0
 0001402,0.00000198,-0.00000747,-0.00000854,-0.00000128,0.00002203,0.00
 001469,-0.00000385,0.00027932,-0.00074811,0.00043964,0.00004514,0.0001
 1661,-0.00010044,-0.00067327,0.00037606,-0.00003377,0.00059667,-0.0003
 6310,-0.00010740,0.00000835,-0.00005845,0.00000573,-0.00011881,0.00006
 784,0.00001097,-0.00136858,0.00115759,-0.00104641,-0.00049715,-0.00017
 306,0.00045117,-0.00040840,0.00002256,0.00056134,-0.00028946,0.0002881
 4,0.00040062,0.00034764,-0.00004203,0.00003580,0.00016864,0.00001529,0
 .00050083,-0.00000078,0.00002408,0.00002388,0.00000279,-0.00001285,0.0
 0000394,0.00001224,-0.00000505,-0.00000787,-0.00000241,-0.00003188,0.0
 0000794,0.07654817,-0.05557231,-0.08810127,-0.01312957,0.01048778,0.00
 745893,0.02303792,-0.01688653,-0.01141103,-0.08438907,0.06091436,0.091
 05141,0.00045855,0.00512882,0.00012001,0.00009236,-0.00107281,0.000739
 35,0.00030454,-0.00144302,-0.00125932,0.00066741,-0.00264605,-0.000186
 58,-0.11749026,0.01031828,-0.00109924,-0.02710747,0.00956484,0.0077202
 5,-0.13583730,-0.01346040,-0.04096763,0.00310958,0.00149230,0.00066126
 ,0.00020917,-0.00025086,-0.00001848,-0.03305265,-0.00656775,-0.0136189
 9,0.00158380,-0.00054953,-0.00105165,0.00108720,-0.00084352,-0.0006865
 6,-0.00242547,0.00251770,0.00224886,-0.00001436,0.00015217,-0.00009710
 ,-0.00055620,-0.00026430,-0.00071100,-0.00001005,-0.00005386,0.0000061
 1,-0.00014896,0.00023718,0.00017181,-0.00002725,0.00000951,-0.00004301
 ,-0.01503026,-0.00304147,0.01671459,0.00123844,-0.00188900,-0.00036131
 ,0.00017572,0.00191431,0.00084754,0.00365734,-0.00672592,0.00193869,0.
 00039331,0.00061899,0.00058135,0.00037767,-0.00008044,-0.00003585,-0.0
 0004564,-0.00005491,-0.00007403,0.00007153,-0.00056639,-0.00031971,0.4
 3500590,0.02754498,-0.01778029,-0.00618192,0.00068838,0.00092009,-0.00
 013680,0.00015310,0.00112481,-0.00027251,-0.00071417,-0.00423848,-0.00
 023848,0.00692807,-0.05948578,0.00185858,-0.00830250,0.00179047,0.0020
 3167,-0.01663598,-0.07570621,-0.01157170,0.00863906,0.00240618,0.00396
 501,-0.02505617,-0.01110163,-0.01783461,0.00755490,0.00663505,0.010212
 77,-0.00020897,0.00019181,-0.00012234,0.00189726,-0.00154183,0.0004642
 8,0.00275060,-0.00316784,-0.00194239,-0.00025936,0.00004200,-0.0002392
 9,0.00102368,0.00074260,0.00063032,0.00003133,-0.00000151,-0.00007213,
 0.00049832,-0.00023161,-0.00006914,-0.00002686,-0.00009328,0.00005308,
 -0.01156530,0.01345770,-0.00714262,0.00120235,-0.00019535,0.00016515,-
 0.00024661,-0.00523215,0.00283978,0.00504401,-0.00500013,-0.00332710,-
 0.00032391,-0.00033878,-0.00037696,-0.00000577,0.00005285,0.00006978,-
 0.00001970,0.00004806,-0.00000508,-0.00015835,0.00013246,0.00015201,0.
 02401488,0.38764317,-0.00091991,-0.00094745,0.00067019,-0.00054745,0.0
 0159890,0.00012640,0.00075483,-0.00019761,-0.00038884,0.00003681,0.001
 32967,0.00021108,0.01407774,-0.00467458,-0.08264638,-0.01990911,0.0068
 6830,0.00548811,-0.04236045,-0.00605771,-0.11638960,-0.02913615,-0.011
 11481,-0.01918433,0.00488891,0.00194256,0.00102556,0.00537441,0.006308
 79,0.00789643,0.00212557,0.00022990,-0.00006157,-0.00014353,-0.0006873
 9,0.00035960,0.00222021,-0.00152591,-0.00253711,-0.00019979,-0.0001718
 4,0.00037182,0.00082546,0.00019503,0.00106152,-0.00006772,0.00010998,-
 0.00004823,0.00045122,-0.00023189,-0.00009264,-0.00005528,-0.00003813,
 0.00000092,0.02874408,-0.00465018,-0.01208008,-0.00066239,0.00117761,-
 0.00065517,0.00106674,0.00079151,-0.00399204,0.00196181,0.00433582,-0.
 00120950,-0.00000127,-0.00005458,0.00044607,0.00021239,-0.00001405,-0.
 00002803,-0.00000796,0.00001444,-0.00007508,0.00001141,-0.00017416,-0.
 00025356,-0.00528490,-0.03306154,0.62089928,0.00063581,-0.00107391,-0.
 00010400,0.00021375,0.00050552,-0.00032094,-0.00002292,0.00000569,-0.0
 0007510,0.00001213,-0.00010014,-0.00029814,-0.00782411,-0.00367559,0.0
 2698968,0.00074456,-0.00059964,0.00019386,0.00157113,0.00516597,-0.025
 70672,-0.00382287,-0.00162326,-0.00267702,0.00090526,-0.00003252,0.000
 78635,0.00193537,0.00016490,-0.00128740,-0.00046610,-0.00021159,0.0006
 0321,-0.00007979,0.00010559,0.00010310,-0.00014036,-0.00007350,-0.0000
 6969,0.00003375,-0.00003454,0.00028255,-0.00000525,-0.00000401,0.00008
 523,-0.00004986,0.00001504,0.00001993,0.00002222,-0.00000975,0.0000027
 9,-0.00000204,0.00000544,-0.00000455,-0.00373112,0.00235652,0.00029467
 ,-0.00006260,-0.00010179,0.00036226,-0.00033729,-0.00047842,0.00098845
 ,0.00027535,-0.00015218,-0.00071249,0.00007455,-0.00003929,-0.00000804
 ,-0.00000728,0.00002657,0.00002311,-0.00003941,-0.00002456,0.00002191,
 -0.00000272,0.00007052,0.00000612,-0.05076624,-0.00804450,0.03166387,0
 .06079970,-0.00023879,0.00094754,-0.00075224,0.00005286,-0.00021336,0.
 00024894,0.00006009,-0.00003760,0.00005094,-0.00008365,0.00006175,0.00
 020651,0.00285299,0.00358814,-0.01260854,-0.00058390,0.00050127,0.0005
 7792,0.00096526,0.00386777,-0.01092283,-0.00248516,-0.00005239,-0.0011
 5190,0.00044806,0.00039118,0.00032663,0.00038203,0.00005765,0.00032153
 ,-0.00000433,0.00011349,0.00018994,-0.00006935,-0.00002054,0.00010798,
 0.00004528,-0.00009811,-0.00015873,0.00000026,-0.00003773,0.00006224,0
 .00001921,-0.00002265,0.00006038,-0.00000609,0.00001891,0.00000389,-0.
 00000398,-0.00000755,-0.00001687,0.00000220,0.00000039,0.00000841,0.00
 255772,-0.00211151,0.00042974,-0.00019142,0.00022362,-0.00006631,0.000
 17725,0.00059206,-0.00062391,0.00003328,0.00015658,-0.00009675,0.00000
 478,0.00001416,-0.00001061,-0.00001106,-0.00001057,0.00000320,-0.00001
 750,-0.00000225,0.00001852,0.00001307,0.00002283,-0.00001704,-0.005819
 12,-0.05490651,0.03670383,0.00930922,0.07108584,-0.00000883,0.00020738
 ,-0.00012447,0.00006628,-0.00066854,0.00023075,-0.00002026,0.00005418,
 0.00009033,-0.00000469,-0.00020393,0.00029164,0.00094407,0.00197603,-0
 .00843549,0.00021556,0.00019918,0.00114633,0.00072320,0.00264665,-0.01
 748144,-0.00257176,-0.00139942,-0.00062122,-0.00013278,-0.00043224,0.0
 0032403,0.00137921,-0.00004624,0.00056694,-0.00082842,0.00013800,0.000
 61653,-0.00007869,0.00006695,-0.00001688,-0.00019925,-0.00014412,0.000
 33390,0.00024941,-0.00001229,0.00018545,-0.00005283,-0.00001964,0.0000
 0850,-0.00003650,0.00000309,0.00001218,-0.00001239,0.00000789,-0.00000
 089,0.00000666,0.00000192,-0.00000700,0.00154765,-0.00051386,0.0009169
 6,-0.00004058,-0.00003008,0.00003919,0.00014177,0.00004013,-0.00047512
 ,-0.00030133,-0.00040608,0.00034709,0.00005127,-0.00002815,-0.00005836
 ,-0.00001924,0.00000902,0.00002031,-0.00004971,-0.00001320,0.00004086,
 0.00000063,0.00008331,0.00000349,0.03307797,0.04753975,-0.28928998,-0.
 03481503,-0.05391457,0.31164454,-0.00439714,0.00176024,0.00226981,0.00
 014986,-0.00029313,-0.00052946,-0.00004541,0.00054904,0.00037570,0.000
 20628,0.00152047,0.00013660,-0.00126177,0.02749124,0.00508561,0.002968
 77,0.00083915,0.00008770,-0.00236248,-0.03271492,-0.00023859,0.0009784
 5,0.00078852,-0.00004320,-0.00518348,-0.00188957,-0.00389609,0.0000743
 2,0.00015670,-0.00065983,-0.00024992,-0.00030751,0.00037703,-0.0007412
 7,-0.00188741,-0.00004920,0.00076757,-0.00104417,0.00043385,-0.0000000
 2,-0.00001490,-0.00010322,0.00006171,-0.00001344,-0.00007697,0.0000136
 0,0.00000013,0.00003815,-0.00011821,-0.00002301,-0.00003222,0.00004589
 ,-0.00000576,0.00003000,0.00566919,-0.00132039,0.00030454,-0.00133160,
 0.00154492,-0.00005823,0.00026368,-0.00005118,0.00000325,-0.00752789,0
 .00011931,0.02600200,-0.00051283,-0.00010518,-0.00052617,-0.00026910,-
 0.00011623,-0.00000988,0.00003877,0.00002242,0.00006350,-0.00000359,0.
 00024852,0.00017232,-0.05812058,-0.01168647,-0.00670380,-0.00072740,-0
 .00512866,0.00073657,0.09332769,0.00750179,-0.00098708,-0.00410853,-0.
 00039609,0.00111244,0.00010461,-0.00020000,-0.00026072,0.00000108,-0.0
 0018200,-0.00278328,0.00004880,0.01195351,-0.04461198,-0.00744055,-0.0
 0179707,0.00170919,0.00050997,-0.01060835,-0.03576477,-0.00242770,0.00
 082126,0.00071863,0.00090981,-0.00492326,-0.00030624,-0.00308171,0.002
 87548,0.00012862,-0.00016312,-0.00023792,-0.00010617,0.00015440,-0.000
 69292,0.00089660,0.00008334,0.00006989,0.00030228,0.00006169,0.0000388
 2,-0.00002224,-0.00002100,-0.00010336,-0.00003425,-0.00006957,-0.00000
 313,-0.00000830,0.00000979,-0.00007166,0.00001284,0.00000496,-0.000009
 36,0.00006471,0.00000757,0.00088258,-0.01547070,0.00553762,-0.00046247
 ,0.00030018,0.00006572,-0.00071278,0.00344325,0.00020313,-0.01261235,0
 .01605202,-0.00475870,0.00011731,-0.00022424,-0.00024468,-0.00017733,0
 .00013788,0.00003977,0.00002092,0.00001292,0.00001973,-0.00008875,0.00
 031332,0.00024259,-0.00994531,-0.15539789,-0.04775133,-0.00083385,-0.0
 1552954,0.00511750,0.01275458,0.31736692,-0.00144998,-0.00059276,0.003
 17647,-0.00039721,-0.00140491,0.00066274,0.00003653,0.00052738,0.00001
 289,-0.00018994,0.00075814,0.00001889,0.00855576,-0.00707624,-0.007134
 77,0.00063141,0.00009494,0.00083854,0.00028492,-0.02102816,0.00244135,
 0.00147541,0.00038479,-0.00049770,-0.00315330,-0.00061373,-0.00295832,
 0.00075424,-0.00070493,0.00106723,-0.00022360,0.00010592,0.00003467,-0
 .00101609,0.00074731,0.00018076,-0.00022352,0.00015736,-0.00022107,0.0
 0005314,-0.00003035,0.00004849,0.00000717,0.00004580,0.00005793,-0.000
 02231,-0.00001106,-0.00001181,0.00009714,0.00001953,0.00003221,-0.0000
 8141,0.00008186,-0.00002643,-0.00844404,0.02318283,-0.00031597,0.00261
 908,-0.00330236,0.00059294,0.00069276,-0.00428537,0.00055883,0.0358961
 1,-0.02811670,-0.03857467,0.00024767,-0.00018987,0.00000070,0.00002010
 ,0.00015185,0.00005341,-0.00003100,0.00000294,0.00001248,-0.00009338,0
 .00015013,0.00008575,-0.01651388,-0.01555902,-0.08388659,0.00327107,0.
 03841563,-0.00443959,-0.01897322,-0.00752678,0.32814244,-0.00231274,0.
 00027811,0.00275323,-0.00008100,-0.00069193,0.00006235,0.00005580,0.00
 020408,-0.00004100,0.00006426,0.00066715,0.00000604,0.00729277,-0.0019
 4599,-0.00598305,0.00021615,-0.00037299,0.00017367,-0.00040428,-0.0011
 2155,-0.00133551,-0.00026120,-0.00088304,0.00203671,0.00063178,0.00048
 171,0.00128841,0.00008902,0.00002575,0.00080705,-0.00003927,0.00012819
 ,-0.00004305,-0.00091207,-0.00010726,-0.00022254,0.00008803,0.00006981
 ,-0.00032927,0.00002547,0.00001861,0.00010295,0.00004711,0.00001117,0.
 00008569,-0.00001722,-0.00000266,0.00000803,0.00003833,-0.00000375,-0.
 00000393,-0.00002154,0.00001618,-0.00001914,-0.04665085,0.08461069,0.0
 0605354,0.00334386,-0.00414206,0.00137552,0.00099376,-0.00390403,-0.00
 016602,-0.00178020,-0.02663677,-0.02060522,0.00011035,-0.00001491,0.00
 011036,0.00003710,0.00003192,0.00000129,-0.00000898,-0.00001241,-0.000
 00123,-0.00000838,0.00000210,-0.00002205,-0.00779981,-0.00471628,0.011
 58426,0.00086376,-0.00228058,0.00003201,-0.02171310,0.00702182,-0.0038
 2961,0.06811308,0.00062726,0.00077240,0.00003865,0.00008937,0.00004127
 ,-0.00014104,0.00000239,0.00013959,-0.00007148,-0.00002010,-0.00014136
 ,-0.00010027,-0.00495620,0.00269675,0.00196788,0.00049313,-0.00050966,
 0.00046211,-0.00131658,0.00132676,-0.00189706,-0.00139929,-0.00161761,
 0.00177168,0.00072028,0.00042540,0.00158610,0.00034594,-0.00082147,-0.
 00009069,-0.00007808,0.00013983,0.00007097,-0.00032436,0.00025218,-0.0
 0005729,0.00001988,0.00031571,0.00011314,0.00002430,-0.00003837,0.0000
 2164,-0.00008279,-0.00013283,-0.00006750,-0.00000535,0.00000312,0.0000
 1533,-0.00007643,0.00002725,0.00000112,-0.00000672,0.00004388,-0.00000
 900,0.04210213,-0.05929759,-0.00672970,-0.00190998,0.00275744,-0.00019
 381,0.00102396,0.00085828,0.00011641,0.00391452,-0.00787641,0.01976684
 ,0.00005444,0.00001896,0.00002448,-0.00004900,0.00000748,-0.00002132,0
 .00002119,-0.00000276,0.00000672,0.00002271,0.00007068,0.00003414,-0.0
 0069431,-0.02076795,0.04974680,-0.00061794,-0.00859287,-0.00025865,0.0
 0880671,-0.07106441,0.02561583,-0.04673107,0.16096631,0.00473447,-0.00
 096732,-0.00584983,0.00012677,0.00168711,-0.00018993,-0.00023863,-0.00
 033422,0.00026437,0.00003564,-0.00171358,0.00032960,-0.00887590,-0.000
 76432,0.00867806,-0.00048784,0.00070314,-0.00098104,-0.00199382,-0.004
 10225,0.00322004,0.00036667,0.00047730,0.00168940,-0.00140631,-0.00135
 830,0.00041905,0.00003874,0.00099122,-0.00069075,-0.00019512,-0.000308
 29,0.00022025,0.00132614,-0.00067926,-0.00010143,0.00028621,-0.0003240
 8,0.00025731,0.00001900,0.00004054,0.00002196,0.00000796,-0.00000232,-
 0.00009779,0.00000338,-0.00000844,0.00004751,-0.00011888,-0.00002094,-
 0.00003250,0.00010082,-0.00008677,0.00001668,0.02829739,-0.06378238,0.
 00243525,-0.00282334,0.00516831,-0.00053604,-0.00124786,0.00711508,-0.
 00056141,-0.03739676,0.05479287,-0.00962132,-0.00028722,0.00006917,-0.
 00019679,-0.00012501,-0.00011689,-0.00003369,0.00001493,-0.00001485,0.
 00004113,0.00005220,0.00001438,0.00002403,0.01750144,0.02817144,-0.025
 73824,0.00038094,0.00260407,0.00413140,-0.00421654,0.06447159,-0.19995
 181,0.00612052,-0.09172201,0.22278652\\0.00000033,0.00000017,-0.000003
 78,0.00000099,-0.00000180,-0.00000420,0.00000024,0.00000088,-0.0000042
 2,0.00000049,0.00000034,-0.00000471,-0.00000004,0.00000021,-0.00000158
 ,0.00000031,-0.00000116,-0.00000096,0.00000051,-0.00000001,0.00000011,
 -0.00000058,0.00000231,0.00000018,0.00000061,0.00000014,-0.00000162,-0
 .00000001,-0.00000086,0.00000118,0.00000049,-0.00000276,0.00000075,-0.
 00000033,-0.00000112,0.00000305,-0.00000027,-0.00000050,0.00000206,-0.
 00000053,0.00000215,0.00000152,0.00000014,-0.00000091,0.00000294,0.000
 00001,-0.00000253,0.00000275,-0.00000030,-0.00000014,0.00000306,-0.000
 00042,-0.00000077,0.00000467,-0.00000029,0.00000182,-0.00000018,-0.000
 00056,0.00000343,-0.00000113,-0.00000039,0.00000248,-0.00000047,-0.000
 00008,0.00000203,0.00000154,0.00000016,0.00000071,-0.00000155,-0.00000
 009,0.00000075,-0.00000104,0.00000075,-0.00000197,-0.00000166,0.000000
 07,0.00000095,-0.00000241,-0.00000034,-0.00000101,0.00000004,0.0000005
 0,-0.00000280,-0.00000014,0.00000042,-0.00000092,0.00000258,-0.0000018
 0,0.00000088,0.00000321\\\@
 Job cpu time:  0 days 11 hours 38 minutes 15.1 seconds.
 File lengths (MBytes):  RWF=  73980 Int=      0 D2E=      0 Chk=     26 Scr=      1
 Normal termination of Gaussian 09 at Mon Feb 17 21:00:10 2014.
