 Entering Gaussian System, Link 0=g09
 Initial command:
 /usr/caen/gaussian-09revc/g09/l1.exe /scratch/avioli_flux/hetanjin/scratch/Gau-13648.inp -scrdir=/scratch/avioli_flux/hetanjin/scratch/
 Entering Link 1 = /usr/caen/gaussian-09revc/g09/l1.exe PID=     13649.
  
 Copyright (c) 1988,1990,1992,1993,1995,1998,2003,2009,2011,
            Gaussian, Inc.  All Rights Reserved.
  
 This is part of the Gaussian(R) 09 program.  It is based on
 the Gaussian(R) 03 system (copyright 2003, Gaussian, Inc.),
 the Gaussian(R) 98 system (copyright 1998, Gaussian, Inc.),
 the Gaussian(R) 94 system (copyright 1995, Gaussian, Inc.),
 the Gaussian 92(TM) system (copyright 1992, Gaussian, Inc.),
 the Gaussian 90(TM) system (copyright 1990, Gaussian, Inc.),
 the Gaussian 88(TM) system (copyright 1988, Gaussian, Inc.),
 the Gaussian 86(TM) system (copyright 1986, Carnegie Mellon
 University), and the Gaussian 82(TM) system (copyright 1983,
 Carnegie Mellon University). Gaussian is a federally registered
 trademark of Gaussian, Inc.
  
 This software contains proprietary and confidential information,
 including trade secrets, belonging to Gaussian, Inc.
  
 This software is provided under written license and may be
 used, copied, transmitted, or stored only in accord with that
 written license.
  
 The following legend is applicable only to US Government
 contracts under FAR:
  
                    RESTRICTED RIGHTS LEGEND
  
 Use, reproduction and disclosure by the US Government is
 subject to restrictions as set forth in subparagraphs (a)
 and (c) of the Commercial Computer Software - Restricted
 Rights clause in FAR 52.227-19.
  
 Gaussian, Inc.
 340 Quinnipiac St., Bldg. 40, Wallingford CT 06492
  
  
 ---------------------------------------------------------------
 Warning -- This program may not be used in any manner that
 competes with the business of Gaussian, Inc. or will provide
 assistance to any competitor of Gaussian, Inc.  The licensee
 of this program is prohibited from giving any competitor of
 Gaussian, Inc. access to this program.  By using this program,
 the user acknowledges that Gaussian, Inc. is engaged in the
 business of creating and licensing software in the field of
 computational chemistry and represents and warrants to the
 licensee that it is not a competitor of Gaussian, Inc. and that
 it will not use this program in any manner prohibited above.
 ---------------------------------------------------------------
  

 Cite this work as:
 Gaussian 09, Revision C.01,
 M. J. Frisch, G. W. Trucks, H. B. Schlegel, G. E. Scuseria, 
 M. A. Robb, J. R. Cheeseman, G. Scalmani, V. Barone, B. Mennucci, 
 G. A. Petersson, H. Nakatsuji, M. Caricato, X. Li, H. P. Hratchian, 
 A. F. Izmaylov, J. Bloino, G. Zheng, J. L. Sonnenberg, M. Hada, 
 M. Ehara, K. Toyota, R. Fukuda, J. Hasegawa, M. Ishida, T. Nakajima, 
 Y. Honda, O. Kitao, H. Nakai, T. Vreven, J. A. Montgomery, Jr., 
 J. E. Peralta, F. Ogliaro, M. Bearpark, J. J. Heyd, E. Brothers, 
 K. N. Kudin, V. N. Staroverov, T. Keith, R. Kobayashi, J. Normand, 
 K. Raghavachari, A. Rendell, J. C. Burant, S. S. Iyengar, J. Tomasi, 
 M. Cossi, N. Rega, J. M. Millam, M. Klene, J. E. Knox, J. B. Cross, 
 V. Bakken, C. Adamo, J. Jaramillo, R. Gomperts, R. E. Stratmann, 
 O. Yazyev, A. J. Austin, R. Cammi, C. Pomelli, J. W. Ochterski, 
 R. L. Martin, K. Morokuma, V. G. Zakrzewski, G. A. Voth, 
 P. Salvador, J. J. Dannenberg, S. Dapprich, A. D. Daniels, 
 O. Farkas, J. B. Foresman, J. V. Ortiz, J. Cioslowski, 
 and D. J. Fox, Gaussian, Inc., Wallingford CT, 2010.
 
 ******************************************
 Gaussian 09:  EM64L-G09RevC.01 23-Sep-2011
                19-Feb-2014 
 ******************************************
 %mem=30GB
 %nprocshared=8
 Will use up to    8 processors via shared memory.
 %chk=TS_3_3f.chk
 -------------------------------
 #p cbs-qb3 opt=(TS,calcfc) freq
 -------------------------------
 1/5=1,10=4,14=-1,18=20,26=3,38=1/1,3;
 2/9=110,12=2,17=6,18=5,40=1/2;
 3/5=4,6=6,7=700,11=2,16=1,25=1,30=1,71=2,74=-5/1,2,3;
 4//1;
 5/5=2,38=5/2;
 8/6=4,10=90,11=11/1;
 11/6=1,8=1,9=11,15=111,16=1/1,2,10;
 10/6=1,7=6,13=1/2;
 6/7=2,8=2,9=2,10=2,28=1/1;
 7/10=1,18=20,25=1/1,2,3,16;
 1/5=1,10=4,14=-1,18=20/3(2);
 2/9=110/2;
 99//99;
 2/9=110/2;
 3/5=4,6=6,7=700,11=2,16=1,25=1,30=1,71=1,74=-5/1,2,3;
 4/5=5,16=3/1;
 5/5=2,38=5/2;
 7//1,2,3,16;
 1/5=1,14=-1,18=20/3(-5);
 2/9=110/2;
 6/7=2,8=2,9=2,10=2,19=2,28=1/1;
 99/9=1/99;
 Leave Link    1 at Wed Feb 19 14:03:32 2014, MaxMem= 4026531840 cpu:       0.7
 (Enter /usr/caen/gaussian-09revc/g09/l101.exe)
 ------------------------------------
 TS_3_3f using cbs-qb3 to cal. energy
 ------------------------------------
 Charge =  0 Multiplicity = 2
 Symbolic Z-Matrix:
 C                     3.19802  -1.13116  -0.12944 
 H                     2.66569  -2.06941  -0.28989 
 H                     3.60166  -1.14109   0.88958 
 H                     4.0449   -1.0941   -0.82056 
 C                     2.27678   0.07745  -0.34304 
 H                     1.91404   0.05586  -1.37752 
 C                     0.05124   1.17107   0.40176 
 H                     0.0096    1.4755   -0.6484 
 H                     0.45905   2.02254   0.95239 
 C                    -1.37449   0.87275   0.91399 
 H                    -1.87991   1.8259    1.1272 
 H                    -1.31253   0.3376    1.86622 
 C                    -2.24793   0.08192  -0.06146 
 H                    -1.33321  -0.74655  -0.58716 
 C                    -3.26158  -0.83424   0.5883 
 H                    -4.00362  -0.24559   1.14865 
 H                    -3.80535  -1.4264   -0.15241 
 H                    -2.78406  -1.51785   1.29482 
 C                     3.04491   1.38982  -0.12147 
 H                     3.36855   1.48573   0.92142 
 H                     3.94309   1.41214  -0.7446 
 H                     2.45065   2.27145  -0.37217 
 C                    -2.76749   0.86779  -1.24845 
 H                    -3.21484   0.21135  -1.99956 
 H                    -3.54772   1.57205  -0.92335 
 H                    -1.98256   1.45228  -1.73462 
 C                     1.03283  -0.00633   0.55833 
 H                     1.34999  -0.07388   1.60751 
 O                     0.35363  -1.27619   0.40256 
 O                    -0.31078  -1.31656  -0.84115 
 
 NAtoms=     30 NQM=        0 NQMF=       0 NMMI=     30 NMMIF=      0
                NMic=       0 NMicF=      0.
                    Isotopes and Nuclear Properties:
 (Nuclear quadrupole moments (NQMom) in fm**2, nuclear magnetic moments (NMagM)
  in nuclear magnetons)

  Atom         1           2           3           4           5           6           7           8           9          10
 IAtWgt=          12           1           1           1          12           1          12           1           1          12
 AtmWgt=  12.0000000   1.0078250   1.0078250   1.0078250  12.0000000   1.0078250  12.0000000   1.0078250   1.0078250  12.0000000
 NucSpn=           0           1           1           1           0           1           0           1           1           0
 AtZEff=   0.0000000   0.0000000   0.0000000   0.0000000   0.0000000   0.0000000   0.0000000   0.0000000   0.0000000   0.0000000
 NQMom=    0.0000000   0.0000000   0.0000000   0.0000000   0.0000000   0.0000000   0.0000000   0.0000000   0.0000000   0.0000000
 NMagM=    0.0000000   2.7928460   2.7928460   2.7928460   0.0000000   2.7928460   0.0000000   2.7928460   2.7928460   0.0000000

  Atom        11          12          13          14          15          16          17          18          19          20
 IAtWgt=           1           1          12           1          12           1           1           1          12           1
 AtmWgt=   1.0078250   1.0078250  12.0000000   1.0078250  12.0000000   1.0078250   1.0078250   1.0078250  12.0000000   1.0078250
 NucSpn=           1           1           0           1           0           1           1           1           0           1
 AtZEff=   0.0000000   0.0000000   0.0000000   0.0000000   0.0000000   0.0000000   0.0000000   0.0000000   0.0000000   0.0000000
 NQMom=    0.0000000   0.0000000   0.0000000   0.0000000   0.0000000   0.0000000   0.0000000   0.0000000   0.0000000   0.0000000
 NMagM=    2.7928460   2.7928460   0.0000000   2.7928460   0.0000000   2.7928460   2.7928460   2.7928460   0.0000000   2.7928460

  Atom        21          22          23          24          25          26          27          28          29          30
 IAtWgt=           1           1          12           1           1           1          12           1          16          16
 AtmWgt=   1.0078250   1.0078250  12.0000000   1.0078250   1.0078250   1.0078250  12.0000000   1.0078250  15.9949146  15.9949146
 NucSpn=           1           1           0           1           1           1           0           1           0           0
 AtZEff=   0.0000000   0.0000000   0.0000000   0.0000000   0.0000000   0.0000000   0.0000000   0.0000000   0.0000000   0.0000000
 NQMom=    0.0000000   0.0000000   0.0000000   0.0000000   0.0000000   0.0000000   0.0000000   0.0000000   0.0000000   0.0000000
 NMagM=    2.7928460   2.7928460   0.0000000   2.7928460   2.7928460   2.7928460   0.0000000   2.7928460   0.0000000   0.0000000
 Leave Link  101 at Wed Feb 19 14:03:33 2014, MaxMem= 4026531840 cpu:       2.6
 (Enter /usr/caen/gaussian-09revc/g09/l103.exe)

 GradGradGradGradGradGradGradGradGradGradGradGradGradGradGradGradGradGrad
 Berny optimization.
 Initialization pass.
                           ----------------------------
                           !    Initial Parameters    !
                           ! (Angstroms and Degrees)  !
 --------------------------                            --------------------------
 ! Name  Definition              Value          Derivative Info.                !
 --------------------------------------------------------------------------------
 ! R1    R(1,2)                  1.0906         calculate D2E/DX2 analytically  !
 ! R2    R(1,3)                  1.0961         calculate D2E/DX2 analytically  !
 ! R3    R(1,4)                  1.0937         calculate D2E/DX2 analytically  !
 ! R4    R(1,5)                  1.5346         calculate D2E/DX2 analytically  !
 ! R5    R(5,6)                  1.0965         calculate D2E/DX2 analytically  !
 ! R6    R(5,19)                 1.5367         calculate D2E/DX2 analytically  !
 ! R7    R(5,27)                 1.5385         calculate D2E/DX2 analytically  !
 ! R8    R(7,8)                  1.0942         calculate D2E/DX2 analytically  !
 ! R9    R(7,9)                  1.0929         calculate D2E/DX2 analytically  !
 ! R10   R(7,10)                 1.544          calculate D2E/DX2 analytically  !
 ! R11   R(7,27)                 1.5409         calculate D2E/DX2 analytically  !
 ! R12   R(10,11)                1.0997         calculate D2E/DX2 analytically  !
 ! R13   R(10,12)                1.0941         calculate D2E/DX2 analytically  !
 ! R14   R(10,13)                1.5296         calculate D2E/DX2 analytically  !
 ! R15   R(13,14)                1.3414         calculate D2E/DX2 analytically  !
 ! R16   R(13,15)                1.513          calculate D2E/DX2 analytically  !
 ! R17   R(13,23)                1.5154         calculate D2E/DX2 analytically  !
 ! R18   R(14,30)                1.1978         calculate D2E/DX2 analytically  !
 ! R19   R(15,16)                1.1005         calculate D2E/DX2 analytically  !
 ! R20   R(15,17)                1.0932         calculate D2E/DX2 analytically  !
 ! R21   R(15,18)                1.0929         calculate D2E/DX2 analytically  !
 ! R22   R(19,20)                1.0962         calculate D2E/DX2 analytically  !
 ! R23   R(19,21)                1.0934         calculate D2E/DX2 analytically  !
 ! R24   R(19,22)                1.0924         calculate D2E/DX2 analytically  !
 ! R25   R(23,24)                1.0933         calculate D2E/DX2 analytically  !
 ! R26   R(23,25)                1.1002         calculate D2E/DX2 analytically  !
 ! R27   R(23,26)                1.0927         calculate D2E/DX2 analytically  !
 ! R28   R(27,28)                1.0982         calculate D2E/DX2 analytically  !
 ! R29   R(27,29)                1.4485         calculate D2E/DX2 analytically  !
 ! R30   R(29,30)                1.4106         calculate D2E/DX2 analytically  !
 ! A1    A(2,1,3)              107.9823         calculate D2E/DX2 analytically  !
 ! A2    A(2,1,4)              108.3081         calculate D2E/DX2 analytically  !
 ! A3    A(2,1,5)              111.3491         calculate D2E/DX2 analytically  !
 ! A4    A(3,1,4)              107.6157         calculate D2E/DX2 analytically  !
 ! A5    A(3,1,5)              110.9531         calculate D2E/DX2 analytically  !
 ! A6    A(4,1,5)              110.4987         calculate D2E/DX2 analytically  !
 ! A7    A(1,5,6)              108.3251         calculate D2E/DX2 analytically  !
 ! A8    A(1,5,19)             110.6375         calculate D2E/DX2 analytically  !
 ! A9    A(1,5,27)             111.1587         calculate D2E/DX2 analytically  !
 ! A10   A(6,5,19)             108.5555         calculate D2E/DX2 analytically  !
 ! A11   A(6,5,27)             106.5116         calculate D2E/DX2 analytically  !
 ! A12   A(19,5,27)            111.4814         calculate D2E/DX2 analytically  !
 ! A13   A(8,7,9)              106.319          calculate D2E/DX2 analytically  !
 ! A14   A(8,7,10)             109.6948         calculate D2E/DX2 analytically  !
 ! A15   A(8,7,27)             109.5331         calculate D2E/DX2 analytically  !
 ! A16   A(9,7,10)             109.1432         calculate D2E/DX2 analytically  !
 ! A17   A(9,7,27)             107.8427         calculate D2E/DX2 analytically  !
 ! A18   A(10,7,27)            114.0091         calculate D2E/DX2 analytically  !
 ! A19   A(7,10,11)            108.7374         calculate D2E/DX2 analytically  !
 ! A20   A(7,10,12)            109.3267         calculate D2E/DX2 analytically  !
 ! A21   A(7,10,13)            114.5567         calculate D2E/DX2 analytically  !
 ! A22   A(11,10,12)           106.3335         calculate D2E/DX2 analytically  !
 ! A23   A(11,10,13)           108.017          calculate D2E/DX2 analytically  !
 ! A24   A(12,10,13)           109.5406         calculate D2E/DX2 analytically  !
 ! A25   A(10,13,14)           100.3604         calculate D2E/DX2 analytically  !
 ! A26   A(10,13,15)           114.9463         calculate D2E/DX2 analytically  !
 ! A27   A(10,13,23)           115.2872         calculate D2E/DX2 analytically  !
 ! A28   A(14,13,15)           104.5471         calculate D2E/DX2 analytically  !
 ! A29   A(14,13,23)           104.3067         calculate D2E/DX2 analytically  !
 ! A30   A(15,13,23)           114.8793         calculate D2E/DX2 analytically  !
 ! A31   A(13,14,30)           163.546          calculate D2E/DX2 analytically  !
 ! A32   A(13,15,16)           110.2747         calculate D2E/DX2 analytically  !
 ! A33   A(13,15,17)           111.7338         calculate D2E/DX2 analytically  !
 ! A34   A(13,15,18)           111.325          calculate D2E/DX2 analytically  !
 ! A35   A(16,15,17)           107.4191         calculate D2E/DX2 analytically  !
 ! A36   A(16,15,18)           107.4579         calculate D2E/DX2 analytically  !
 ! A37   A(17,15,18)           108.4528         calculate D2E/DX2 analytically  !
 ! A38   A(5,19,20)            111.0689         calculate D2E/DX2 analytically  !
 ! A39   A(5,19,21)            110.2351         calculate D2E/DX2 analytically  !
 ! A40   A(5,19,22)            112.597          calculate D2E/DX2 analytically  !
 ! A41   A(20,19,21)           107.3307         calculate D2E/DX2 analytically  !
 ! A42   A(20,19,22)           107.9599         calculate D2E/DX2 analytically  !
 ! A43   A(21,19,22)           107.434          calculate D2E/DX2 analytically  !
 ! A44   A(13,23,24)           111.5339         calculate D2E/DX2 analytically  !
 ! A45   A(13,23,25)           110.099          calculate D2E/DX2 analytically  !
 ! A46   A(13,23,26)           112.3081         calculate D2E/DX2 analytically  !
 ! A47   A(24,23,25)           107.2889         calculate D2E/DX2 analytically  !
 ! A48   A(24,23,26)           108.0247         calculate D2E/DX2 analytically  !
 ! A49   A(25,23,26)           107.3666         calculate D2E/DX2 analytically  !
 ! A50   A(5,27,7)             114.4526         calculate D2E/DX2 analytically  !
 ! A51   A(5,27,28)            109.2437         calculate D2E/DX2 analytically  !
 ! A52   A(5,27,29)            111.3383         calculate D2E/DX2 analytically  !
 ! A53   A(7,27,28)            109.1512         calculate D2E/DX2 analytically  !
 ! A54   A(7,27,29)            111.1151         calculate D2E/DX2 analytically  !
 ! A55   A(28,27,29)           100.617          calculate D2E/DX2 analytically  !
 ! A56   A(27,29,30)           109.923          calculate D2E/DX2 analytically  !
 ! A57   A(14,30,29)           101.6226         calculate D2E/DX2 analytically  !
 ! D1    D(2,1,5,6)            -60.7744         calculate D2E/DX2 analytically  !
 ! D2    D(2,1,5,19)          -179.6525         calculate D2E/DX2 analytically  !
 ! D3    D(2,1,5,27)            55.9197         calculate D2E/DX2 analytically  !
 ! D4    D(3,1,5,6)            178.9199         calculate D2E/DX2 analytically  !
 ! D5    D(3,1,5,19)            60.0418         calculate D2E/DX2 analytically  !
 ! D6    D(3,1,5,27)           -64.3861         calculate D2E/DX2 analytically  !
 ! D7    D(4,1,5,6)             59.6367         calculate D2E/DX2 analytically  !
 ! D8    D(4,1,5,19)           -59.2414         calculate D2E/DX2 analytically  !
 ! D9    D(4,1,5,27)           176.3307         calculate D2E/DX2 analytically  !
 ! D10   D(1,5,19,20)          -65.1158         calculate D2E/DX2 analytically  !
 ! D11   D(1,5,19,21)           53.7157         calculate D2E/DX2 analytically  !
 ! D12   D(1,5,19,22)          173.6687         calculate D2E/DX2 analytically  !
 ! D13   D(6,5,19,20)          176.1457         calculate D2E/DX2 analytically  !
 ! D14   D(6,5,19,21)          -65.0228         calculate D2E/DX2 analytically  !
 ! D15   D(6,5,19,22)           54.9302         calculate D2E/DX2 analytically  !
 ! D16   D(27,5,19,20)          59.1276         calculate D2E/DX2 analytically  !
 ! D17   D(27,5,19,21)         177.9591         calculate D2E/DX2 analytically  !
 ! D18   D(27,5,19,22)         -62.0879         calculate D2E/DX2 analytically  !
 ! D19   D(1,5,27,7)          -179.8381         calculate D2E/DX2 analytically  !
 ! D20   D(1,5,27,28)           57.4471         calculate D2E/DX2 analytically  !
 ! D21   D(1,5,27,29)          -52.7886         calculate D2E/DX2 analytically  !
 ! D22   D(6,5,27,7)           -62.0392         calculate D2E/DX2 analytically  !
 ! D23   D(6,5,27,28)          175.246          calculate D2E/DX2 analytically  !
 ! D24   D(6,5,27,29)           65.0103         calculate D2E/DX2 analytically  !
 ! D25   D(19,5,27,7)           56.2124         calculate D2E/DX2 analytically  !
 ! D26   D(19,5,27,28)         -66.5024         calculate D2E/DX2 analytically  !
 ! D27   D(19,5,27,29)        -176.7381         calculate D2E/DX2 analytically  !
 ! D28   D(8,7,10,11)          -78.2999         calculate D2E/DX2 analytically  !
 ! D29   D(8,7,10,12)          165.9996         calculate D2E/DX2 analytically  !
 ! D30   D(8,7,10,13)           42.6362         calculate D2E/DX2 analytically  !
 ! D31   D(9,7,10,11)           37.8146         calculate D2E/DX2 analytically  !
 ! D32   D(9,7,10,12)          -77.886          calculate D2E/DX2 analytically  !
 ! D33   D(9,7,10,13)          158.7506         calculate D2E/DX2 analytically  !
 ! D34   D(27,7,10,11)         158.4567         calculate D2E/DX2 analytically  !
 ! D35   D(27,7,10,12)          42.7561         calculate D2E/DX2 analytically  !
 ! D36   D(27,7,10,13)         -80.6073         calculate D2E/DX2 analytically  !
 ! D37   D(8,7,27,5)            37.0074         calculate D2E/DX2 analytically  !
 ! D38   D(8,7,27,28)          159.7723         calculate D2E/DX2 analytically  !
 ! D39   D(8,7,27,29)          -90.1567         calculate D2E/DX2 analytically  !
 ! D40   D(9,7,27,5)           -78.2955         calculate D2E/DX2 analytically  !
 ! D41   D(9,7,27,28)           44.4694         calculate D2E/DX2 analytically  !
 ! D42   D(9,7,27,29)          154.5404         calculate D2E/DX2 analytically  !
 ! D43   D(10,7,27,5)          160.3386         calculate D2E/DX2 analytically  !
 ! D44   D(10,7,27,28)         -76.8965         calculate D2E/DX2 analytically  !
 ! D45   D(10,7,27,29)          33.1745         calculate D2E/DX2 analytically  !
 ! D46   D(7,10,13,14)          36.9456         calculate D2E/DX2 analytically  !
 ! D47   D(7,10,13,15)         148.455          calculate D2E/DX2 analytically  !
 ! D48   D(7,10,13,23)         -74.4127         calculate D2E/DX2 analytically  !
 ! D49   D(11,10,13,14)        158.2778         calculate D2E/DX2 analytically  !
 ! D50   D(11,10,13,15)        -90.2128         calculate D2E/DX2 analytically  !
 ! D51   D(11,10,13,23)         46.9195         calculate D2E/DX2 analytically  !
 ! D52   D(12,10,13,14)        -86.303          calculate D2E/DX2 analytically  !
 ! D53   D(12,10,13,15)         25.2064         calculate D2E/DX2 analytically  !
 ! D54   D(12,10,13,23)        162.3387         calculate D2E/DX2 analytically  !
 ! D55   D(10,13,14,30)          0.1326         calculate D2E/DX2 analytically  !
 ! D56   D(15,13,14,30)       -119.2343         calculate D2E/DX2 analytically  !
 ! D57   D(23,13,14,30)        119.7864         calculate D2E/DX2 analytically  !
 ! D58   D(10,13,15,16)         64.7822         calculate D2E/DX2 analytically  !
 ! D59   D(10,13,15,17)       -175.8238         calculate D2E/DX2 analytically  !
 ! D60   D(10,13,15,18)        -54.3968         calculate D2E/DX2 analytically  !
 ! D61   D(14,13,15,16)        173.7854         calculate D2E/DX2 analytically  !
 ! D62   D(14,13,15,17)        -66.8206         calculate D2E/DX2 analytically  !
 ! D63   D(14,13,15,18)         54.6064         calculate D2E/DX2 analytically  !
 ! D64   D(23,13,15,16)        -72.5268         calculate D2E/DX2 analytically  !
 ! D65   D(23,13,15,17)         46.8672         calculate D2E/DX2 analytically  !
 ! D66   D(23,13,15,18)        168.2942         calculate D2E/DX2 analytically  !
 ! D67   D(10,13,23,24)        168.931          calculate D2E/DX2 analytically  !
 ! D68   D(10,13,23,25)        -72.0827         calculate D2E/DX2 analytically  !
 ! D69   D(10,13,23,26)         47.5009         calculate D2E/DX2 analytically  !
 ! D70   D(14,13,23,24)         59.9204         calculate D2E/DX2 analytically  !
 ! D71   D(14,13,23,25)        178.9068         calculate D2E/DX2 analytically  !
 ! D72   D(14,13,23,26)        -61.5096         calculate D2E/DX2 analytically  !
 ! D73   D(15,13,23,24)        -53.9079         calculate D2E/DX2 analytically  !
 ! D74   D(15,13,23,25)         65.0785         calculate D2E/DX2 analytically  !
 ! D75   D(15,13,23,26)       -175.3379         calculate D2E/DX2 analytically  !
 ! D76   D(13,14,30,29)         32.0211         calculate D2E/DX2 analytically  !
 ! D77   D(5,27,29,30)         -72.8546         calculate D2E/DX2 analytically  !
 ! D78   D(7,27,29,30)          55.9929         calculate D2E/DX2 analytically  !
 ! D79   D(28,27,29,30)        171.4723         calculate D2E/DX2 analytically  !
 ! D80   D(27,29,30,14)        -83.2403         calculate D2E/DX2 analytically  !
 --------------------------------------------------------------------------------
 Trust Radius=3.00D-01 FncErr=1.00D-07 GrdErr=1.00D-06
 Number of steps in this run=    177 maximum allowed number of steps=    180.
 Search for a saddle point of order  1.
 GradGradGradGradGradGradGradGradGradGradGradGradGradGradGradGradGradGrad

 Leave Link  103 at Wed Feb 19 14:03:33 2014, MaxMem= 4026531840 cpu:       0.2
 (Enter /usr/caen/gaussian-09revc/g09/l202.exe)
                          Input orientation:                          
 ---------------------------------------------------------------------
 Center     Atomic      Atomic             Coordinates (Angstroms)
 Number     Number       Type             X           Y           Z
 ---------------------------------------------------------------------
      1          6           0        3.198023   -1.131159   -0.129438
      2          1           0        2.665693   -2.069409   -0.289890
      3          1           0        3.601663   -1.141094    0.889577
      4          1           0        4.044895   -1.094099   -0.820557
      5          6           0        2.276776    0.077452   -0.343035
      6          1           0        1.914042    0.055860   -1.377521
      7          6           0        0.051238    1.171072    0.401764
      8          1           0        0.009600    1.475498   -0.648403
      9          1           0        0.459045    2.022537    0.952390
     10          6           0       -1.374486    0.872751    0.913985
     11          1           0       -1.879906    1.825898    1.127196
     12          1           0       -1.312532    0.337595    1.866224
     13          6           0       -2.247926    0.081922   -0.061462
     14          1           0       -1.333205   -0.746553   -0.587155
     15          6           0       -3.261579   -0.834238    0.588295
     16          1           0       -4.003622   -0.245586    1.148651
     17          1           0       -3.805345   -1.426401   -0.152411
     18          1           0       -2.784064   -1.517854    1.294815
     19          6           0        3.044908    1.389817   -0.121465
     20          1           0        3.368551    1.485729    0.921423
     21          1           0        3.943088    1.412135   -0.744598
     22          1           0        2.450652    2.271453   -0.372169
     23          6           0       -2.767489    0.867788   -1.248449
     24          1           0       -3.214839    0.211345   -1.999557
     25          1           0       -3.547719    1.572046   -0.923346
     26          1           0       -1.982560    1.452275   -1.734615
     27          6           0        1.032832   -0.006329    0.558329
     28          1           0        1.349991   -0.073879    1.607512
     29          8           0        0.353629   -1.276189    0.402558
     30          8           0       -0.310780   -1.316555   -0.841147
 ---------------------------------------------------------------------
                    Distance matrix (angstroms):
                    1          2          3          4          5
     1  C    0.000000
     2  H    1.090611   0.000000
     3  H    1.096091   1.768884   0.000000
     4  H    1.093714   1.770603   1.767264   0.000000
     5  C    1.534621   2.182451   2.181631   2.174121   0.000000
     6  H    2.148332   2.502936   3.069283   2.484582   1.096450
     7  C    3.935060   4.220720   4.264926   4.751249   2.589160
     8  H    4.150907   4.444067   4.702643   4.787073   2.681020
     9  H    4.314876   4.812128   4.459659   5.071004   2.960680
    10  C    5.100218   5.140882   5.368261   6.020534   3.942628
    11  H    6.009050   6.151749   6.237556   6.886464   4.743063
    12  H    5.146359   5.125307   5.223952   6.162026   4.222752
    13  C    5.579834   5.368804   6.051275   6.446615   4.533457
    14  H    4.570498   4.222499   5.166171   5.394370   3.710868
    15  C    6.506133   6.117958   6.876701   7.445600   5.689634
    16  H    7.367594   7.062258   7.662207   8.329248   6.463194
    17  H    7.009626   6.504360   7.485380   7.885627   6.268182
    18  H    6.161444   5.702224   6.409655   7.161637   5.553346
    19  C    2.525634   3.484023   2.781671   2.767407   1.536692
    20  H    2.825153   3.821033   2.637339   3.185506   2.184965
    21  H    2.720641   3.736261   3.050586   2.509451   2.172378
    22  H    3.492170   4.346964   3.816059   3.750947   2.201073
    23  C    6.390251   6.250234   7.012336   7.102159   5.185462
    24  H    6.813550   6.534941   7.526014   7.469803   5.737580
    25  H    7.310447   7.229658   7.858847   8.047775   6.041135
    26  H    6.007426   6.007973   6.692944   6.606795   4.687065
    27  C    2.535018   2.764418   2.827775   3.486702   1.538464
    28  H    2.747737   3.051778   2.593146   3.768140   2.164824
    29  O    2.897349   2.540536   3.287121   3.892892   2.467133
    30  O    3.585052   3.119305   4.281752   4.361401   2.981077
                    6          7          8          9         10
     6  H    0.000000
     7  C    2.807061   0.000000
     8  H    2.484730   1.094194   0.000000
     9  H    3.378361   1.092926   1.750369   0.000000
    10  C    4.090566   1.544038   2.172569   2.164560   0.000000
    11  H    4.878594   2.164340   2.616441   2.353703   1.099726
    12  H    4.583889   2.167763   3.060426   2.610097   1.094070
    13  C    4.365165   2.585920   2.717163   3.481605   1.529642
    14  H    3.437028   2.563577   2.596996   3.640085   2.208454
    15  C    5.607474   3.876960   4.191052   4.704973   2.565347
    16  H    6.441363   4.359662   4.722021   5.009820   2.866723
    17  H    6.034019   4.682650   4.818800   5.594710   3.511748
    18  H    5.629401   4.008341   4.532197   4.813458   2.801238
    19  C    2.153132   3.046913   3.081899   2.870573   4.568431
    20  H    3.073315   3.372480   3.707696   2.958775   4.782489
    21  H    2.521329   4.064327   3.935174   3.923126   5.596287
    22  H    2.491493   2.750818   2.582360   2.404769   4.271094
    23  C    4.753169   3.280306   2.905441   4.072795   2.572276
    24  H    5.168803   4.165895   3.717621   5.048944   3.509000
    25  H    5.686469   3.856059   3.569234   4.446964   2.930485
    26  H    4.154636   2.963026   2.269162   3.675137   2.778612
    27  C    2.127890   1.540880   2.167722   2.144951   2.587364
    28  H    3.040626   2.165754   3.047355   2.370217   2.966456
    29  O    2.716234   2.465873   2.965579   3.345896   2.804618
    30  O    2.668530   2.804313   2.816976   3.867679   3.000836
                   11         12         13         14         15
    11  H    0.000000
    12  H    1.755882   0.000000
    13  C    2.142382   2.157847   0.000000
    14  H    3.139329   2.682326   1.341431   0.000000
    15  C    3.045613   2.608655   1.512953   2.260088   0.000000
    16  H    2.966762   2.845519   2.157337   3.224146   1.100517
    17  H    3.990258   3.660695   2.169992   2.600514   1.093153
    18  H    3.467892   2.436105   2.164767   2.498341   1.092942
    19  C    5.099325   4.903607   5.452365   4.893753   6.724727
    20  H    5.263493   4.911558   5.872099   5.418985   7.032201
    21  H    6.130422   5.965951   6.369050   5.702981   7.663552
    22  H    4.604383   4.786623   5.192997   4.844807   6.572472
    23  C    2.710990   3.478389   1.515411   2.258446   2.552380
    24  H    3.763697   4.310333   2.169766   2.540274   2.791488
    25  H    2.655327   3.781750   2.157029   3.223817   2.856070
    26  H    2.887922   3.828510   2.178928   2.563820   3.501420
    27  C    3.487794   2.707324   3.339955   2.730970   4.373591
    28  H    3.777842   2.706524   3.969226   3.531090   4.783673
    29  O    3.890594   2.742756   2.971173   2.026192   3.646855
    30  O    4.026356   3.327097   2.513201   1.197818   3.314083
                   16         17         18         19         20
    16  H    0.000000
    17  H    1.768163   0.000000
    18  H    1.768432   1.773652   0.000000
    19  C    7.346395   7.406619   6.666132   0.000000
    20  H    7.576148   7.816547   6.856793   1.096157   0.000000
    21  H    8.335624   8.273221   7.615682   1.093398   1.763841
    22  H    7.092675   7.270483   6.673825   1.092371   1.770108
    23  C    2.917827   2.746224   3.487084   5.943616   6.537674
    24  H    3.277526   2.538278   3.745475   6.640818   7.314178
    25  H    2.793708   3.106670   3.879548   6.643715   7.158590
    26  H    3.909047   3.756686   4.317583   5.280302   5.974115
    27  C    5.076573   5.092123   4.170829   2.541612   2.795292
    28  H    5.375984   5.612854   4.390131   2.829224   2.641530
    29  O    4.539211   4.198526   3.271031   3.824287   4.121549
    30  O    4.329359   3.563483   3.274139   4.370702   4.949437
                   21         22         23         24         25
    21  H    0.000000
    22  H    1.761958   0.000000
    23  C    6.751446   5.474225   0.000000
    24  H    7.365646   6.244215   1.093253   0.000000
    25  H    7.494646   6.064109   1.100196   1.766507   0.000000
    26  H    6.007916   4.709637   1.092747   1.768789   1.766982
    27  C    3.489878   2.839777   4.297786   4.963151   5.066367
    28  H    3.803263   3.260548   5.098715   5.824944   5.753423
    29  O    4.628960   4.193265   4.130840   4.551580   5.009090
    30  O    5.054747   4.551840   3.312502   3.479935   4.339187
                   26         27         28         29         30
    26  H    0.000000
    27  C    4.059274   0.000000
    28  H    4.960328   1.098152   0.000000
    29  O    4.179689   1.448491   1.972359   0.000000
    30  O    3.355526   2.341051   3.209102   1.410628   0.000000
 Stoichiometry    C9H19O2(2)
 Framework group  C1[X(C9H19O2)]
 Deg. of freedom    84
 Full point group                 C1      NOp   1
 Largest Abelian subgroup         C1      NOp   1
 Largest concise Abelian subgroup C1      NOp   1
                         Standard orientation:                         
 ---------------------------------------------------------------------
 Center     Atomic      Atomic             Coordinates (Angstroms)
 Number     Number       Type             X           Y           Z
 ---------------------------------------------------------------------
      1          6           0       -3.198023   -1.131159    0.129438
      2          1           0       -2.665693   -2.069409    0.289890
      3          1           0       -3.601663   -1.141094   -0.889577
      4          1           0       -4.044895   -1.094099    0.820557
      5          6           0       -2.276776    0.077452    0.343035
      6          1           0       -1.914042    0.055860    1.377521
      7          6           0       -0.051238    1.171072   -0.401764
      8          1           0       -0.009600    1.475498    0.648403
      9          1           0       -0.459045    2.022537   -0.952390
     10          6           0        1.374486    0.872751   -0.913985
     11          1           0        1.879906    1.825898   -1.127196
     12          1           0        1.312532    0.337595   -1.866224
     13          6           0        2.247926    0.081922    0.061462
     14          1           0        1.333205   -0.746553    0.587155
     15          6           0        3.261579   -0.834238   -0.588295
     16          1           0        4.003622   -0.245586   -1.148651
     17          1           0        3.805345   -1.426401    0.152411
     18          1           0        2.784064   -1.517854   -1.294815
     19          6           0       -3.044908    1.389817    0.121465
     20          1           0       -3.368551    1.485729   -0.921423
     21          1           0       -3.943088    1.412135    0.744598
     22          1           0       -2.450652    2.271453    0.372169
     23          6           0        2.767489    0.867788    1.248449
     24          1           0        3.214839    0.211345    1.999557
     25          1           0        3.547719    1.572046    0.923346
     26          1           0        1.982560    1.452275    1.734615
     27          6           0       -1.032832   -0.006329   -0.558329
     28          1           0       -1.349991   -0.073879   -1.607512
     29          8           0       -0.353629   -1.276189   -0.402558
     30          8           0        0.310780   -1.316555    0.841147
 ---------------------------------------------------------------------
 Rotational constants (GHZ):      2.0188202      0.5994416      0.5406229
 Leave Link  202 at Wed Feb 19 14:03:34 2014, MaxMem= 4026531840 cpu:       0.5
 (Enter /usr/caen/gaussian-09revc/g09/l301.exe)
 Standard basis: 6-311G(2d,d,p) (5D, 7F)
 Ernie: Thresh=  0.10000D-02 Tol=  0.10000D-05 Strict=F.
 There are   312 symmetry adapted basis functions of A   symmetry.
 Integral buffers will be    131072 words long.
 Raffenetti 2 integral format.
 Two-electron integral symmetry is turned on.
   312 basis functions,   504 primitive gaussians,   323 cartesian basis functions
    45 alpha electrons       44 beta electrons
       nuclear repulsion energy       693.9291472200 Hartrees.
 IExCor=  402 DFT=T Ex+Corr=B3LYP ExCW=0 ScaHFX=  0.200000
 ScaDFX=  0.800000  0.720000  1.000000  0.810000 ScalE2=  1.000000  1.000000
 IRadAn=      0 IRanWt=     -1 IRanGd=            0 ICorTp=0
 NAtoms=   30 NActive=   30 NUniq=   30 SFac= 1.00D+00 NAtFMM=   60 NAOKFM=F Big=F
 Leave Link  301 at Wed Feb 19 14:03:34 2014, MaxMem= 4026531840 cpu:       0.8
 (Enter /usr/caen/gaussian-09revc/g09/l302.exe)
 NPDir=0 NMtPBC=     1 NCelOv=     1 NCel=       1 NClECP=     1 NCelD=      1
         NCelK=      1 NCelE2=     1 NClLst=     1 CellRange=     0.0.
 One-electron integrals computed using PRISM.
 NBasis=   312 RedAO= T  NBF=   312
 NBsUse=   312 1.00D-06 NBFU=   312
 Precomputing XC quadrature grid using
 IXCGrd= 2 IRadAn=           0 IRanWt=          -1 IRanGd=           0 AccXCQ= 0.00D+00.
 NRdTot=    1908 NPtTot=      242968 NUsed=      256727 NTot=      256759
 NSgBfM=   323   323   323   323   323 NAtAll=    30    30.
 Leave Link  302 at Wed Feb 19 14:03:38 2014, MaxMem= 4026531840 cpu:      27.0
 (Enter /usr/caen/gaussian-09revc/g09/l303.exe)
 DipDrv:  MaxL=1.
 Leave Link  303 at Wed Feb 19 14:03:39 2014, MaxMem= 4026531840 cpu:       1.7
 (Enter /usr/caen/gaussian-09revc/g09/l401.exe)
 Harris functional with IExCor=  402 diagonalized for initial guess.
 ExpMin= 1.03D-01 ExpMax= 8.59D+03 ExpMxC= 1.30D+03 IAcc=1 IRadAn=         1 AccDes= 0.00D+00
 HarFok:  IExCor=  402 AccDes= 0.00D+00 IRadAn=         1 IDoV= 1
 ScaDFX=  1.000000  1.000000  1.000000  1.000000
 FoFCou: FMM=F IPFlag=           0 FMFlag=      100000 FMFlg1=           0
         NFxFlg=           0 DoJE=T BraDBF=F KetDBF=T FulRan=T
         Omega=  0.000000  0.000000  1.000000  0.000000  0.000000 ICntrl=     500 IOpCl=  0
         NMat0=    1 NMatS0=    1 NMatT0=    0 NMatD0=    1 NMtDS0=    0 NMtDT0=    0
         I1Cent=           4 NGrid=           0.
 Petite list used in FoFCou.
 Harris En= -504.905376475625    
 Initial guess orbital symmetries:
 Alpha Orbitals:
       Occupied  (A) (A) (A) (A) (A) (A) (A) (A) (A) (A) (A) (A)
                 (A) (A) (A) (A) (A) (A) (A) (A) (A) (A) (A) (A)
                 (A) (A) (A) (A) (A) (A) (A) (A) (A) (A) (A) (A)
                 (A) (A) (A) (A) (A) (A) (A) (A) (A)
       Virtual   (A) (A) (A) (A) (A) (A) (A) (A) (A) (A) (A) (A)
                 (A) (A) (A) (A) (A) (A) (A) (A) (A) (A) (A) (A)
                 (A) (A) (A) (A) (A) (A) (A) (A) (A) (A) (A) (A)
                 (A) (A) (A) (A) (A) (A) (A) (A) (A) (A) (A) (A)
                 (A) (A) (A) (A) (A) (A) (A) (A) (A) (A) (A) (A)
                 (A) (A) (A) (A) (A) (A) (A) (A) (A) (A) (A) (A)
                 (A) (A) (A) (A) (A) (A) (A) (A) (A) (A) (A) (A)
                 (A) (A) (A) (A) (A) (A) (A) (A) (A) (A) (A) (A)
                 (A) (A) (A) (A) (A) (A) (A) (A) (A) (A) (A) (A)
                 (A) (A) (A) (A) (A) (A) (A) (A) (A) (A) (A) (A)
                 (A) (A) (A) (A) (A) (A) (A) (A) (A) (A) (A) (A)
                 (A) (A) (A) (A) (A) (A) (A) (A) (A) (A) (A) (A)
                 (A) (A) (A) (A) (A) (A) (A) (A) (A) (A) (A) (A)
                 (A) (A) (A) (A) (A) (A) (A) (A) (A) (A) (A) (A)
                 (A) (A) (A) (A) (A) (A) (A) (A) (A) (A) (A) (A)
                 (A) (A) (A) (A) (A) (A) (A) (A) (A) (A) (A) (A)
                 (A) (A) (A) (A) (A) (A) (A) (A) (A) (A) (A) (A)
                 (A) (A) (A) (A) (A) (A) (A) (A) (A) (A) (A) (A)
                 (A) (A) (A) (A) (A) (A) (A) (A) (A) (A) (A) (A)
                 (A) (A) (A) (A) (A) (A) (A) (A) (A) (A) (A) (A)
                 (A) (A) (A) (A) (A) (A) (A) (A) (A) (A) (A) (A)
                 (A) (A) (A) (A) (A) (A) (A) (A) (A) (A) (A) (A)
                 (A) (A) (A)
 Beta  Orbitals:
       Occupied  (A) (A) (A) (A) (A) (A) (A) (A) (A) (A) (A) (A)
                 (A) (A) (A) (A) (A) (A) (A) (A) (A) (A) (A) (A)
                 (A) (A) (A) (A) (A) (A) (A) (A) (A) (A) (A) (A)
                 (A) (A) (A) (A) (A) (A) (A) (A)
       Virtual   (A) (A) (A) (A) (A) (A) (A) (A) (A) (A) (A) (A)
                 (A) (A) (A) (A) (A) (A) (A) (A) (A) (A) (A) (A)
                 (A) (A) (A) (A) (A) (A) (A) (A) (A) (A) (A) (A)
                 (A) (A) (A) (A) (A) (A) (A) (A) (A) (A) (A) (A)
                 (A) (A) (A) (A) (A) (A) (A) (A) (A) (A) (A) (A)
                 (A) (A) (A) (A) (A) (A) (A) (A) (A) (A) (A) (A)
                 (A) (A) (A) (A) (A) (A) (A) (A) (A) (A) (A) (A)
                 (A) (A) (A) (A) (A) (A) (A) (A) (A) (A) (A) (A)
                 (A) (A) (A) (A) (A) (A) (A) (A) (A) (A) (A) (A)
                 (A) (A) (A) (A) (A) (A) (A) (A) (A) (A) (A) (A)
                 (A) (A) (A) (A) (A) (A) (A) (A) (A) (A) (A) (A)
                 (A) (A) (A) (A) (A) (A) (A) (A) (A) (A) (A) (A)
                 (A) (A) (A) (A) (A) (A) (A) (A) (A) (A) (A) (A)
                 (A) (A) (A) (A) (A) (A) (A) (A) (A) (A) (A) (A)
                 (A) (A) (A) (A) (A) (A) (A) (A) (A) (A) (A) (A)
                 (A) (A) (A) (A) (A) (A) (A) (A) (A) (A) (A) (A)
                 (A) (A) (A) (A) (A) (A) (A) (A) (A) (A) (A) (A)
                 (A) (A) (A) (A) (A) (A) (A) (A) (A) (A) (A) (A)
                 (A) (A) (A) (A) (A) (A) (A) (A) (A) (A) (A) (A)
                 (A) (A) (A) (A) (A) (A) (A) (A) (A) (A) (A) (A)
                 (A) (A) (A) (A) (A) (A) (A) (A) (A) (A) (A) (A)
                 (A) (A) (A) (A) (A) (A) (A) (A) (A) (A) (A) (A)
                 (A) (A) (A) (A)
 The electronic state of the initial guess is 2-A.
 Initial guess <Sx>= 0.0000 <Sy>= 0.0000 <Sz>= 0.5000 <S**2>= 0.7500 S= 0.5000
 Leave Link  401 at Wed Feb 19 14:03:45 2014, MaxMem= 4026531840 cpu:      30.0
 (Enter /usr/caen/gaussian-09revc/g09/l502.exe)
 UHF open shell SCF:
 Requested convergence on RMS density matrix=1.00D-08 within 128 cycles.
 Requested convergence on MAX density matrix=1.00D-06.
 Requested convergence on             energy=1.00D-06.
 No special actions if energy rises.
 Using DIIS extrapolation, IDIIS=  1040.
 Integral symmetry usage will be decided dynamically.
       256444 words used for storage of precomputed grid.
 Keep R1 and R2 ints in memory in canonical form, NReq=2755661175.
 IEnd=      592602 IEndB=      592602 NGot=  4026531840 MDV=  1287997901
 LenX=  1287997901 LenY=  1287893131
 Symmetry not used in FoFDir.
 MinBra= 0 MaxBra= 2 Meth= 1.
 IRaf=       0 NMat=   1 IRICut=       1 DoRegI=T DoRafI=F ISym2E= 0 JSym2E=0.
 Integral accuracy reduced to 1.0D-05 until final iterations.

 Cycle   1  Pass 0  IDiag  1:
 E= -504.462497817458    
 DIIS: error= 2.91D-02 at cycle   1 NSaved=   1.
 NSaved= 1 IEnMin= 1 EnMin= -504.462497817458     IErMin= 1 ErrMin= 2.91D-02
 ErrMax= 2.91D-02 EMaxC= 1.00D-01 BMatC= 1.53D+00 BMatP= 1.53D+00
 IDIUse=3 WtCom= 7.09D-01 WtEn= 2.91D-01
 Coeff-Com:  0.100D+01
 Coeff-En:   0.100D+01
 Coeff:      0.100D+01
 Gap=     0.203 Goal=   None    Shift=    0.000
 Gap=     0.191 Goal=   None    Shift=    0.000
 GapD=    0.191 DampG=1.000 DampE=0.500 DampFc=0.5000 IDamp=-1.
 Damping current iteration by 5.00D-01
 RMSDP=3.26D-03 MaxDP=1.21D-01              OVMax= 1.97D-01

 Cycle   2  Pass 0  IDiag  1:
 E= -504.618928334493     Delta-E=       -0.156430517035 Rises=F Damp=T
 DIIS: error= 5.90D-03 at cycle   2 NSaved=   2.
 NSaved= 2 IEnMin= 2 EnMin= -504.618928334493     IErMin= 2 ErrMin= 5.90D-03
 ErrMax= 5.90D-03 EMaxC= 1.00D-01 BMatC= 1.09D-01 BMatP= 1.53D+00
 IDIUse=3 WtCom= 9.41D-01 WtEn= 5.90D-02
 Coeff-Com:  0.833D-01 0.917D+00
 Coeff-En:   0.175D+00 0.825D+00
 Coeff:      0.887D-01 0.911D+00
 Gap=     0.291 Goal=   None    Shift=    0.000
 Gap=     0.201 Goal=   None    Shift=    0.000
 RMSDP=9.14D-04 MaxDP=3.20D-02 DE=-1.56D-01 OVMax= 1.97D-01

 Cycle   3  Pass 0  IDiag  1:
 E= -504.820079262569     Delta-E=       -0.201150928076 Rises=F Damp=F
 DIIS: error= 1.18D-02 at cycle   3 NSaved=   3.
 NSaved= 3 IEnMin= 3 EnMin= -504.820079262569     IErMin= 2 ErrMin= 5.90D-03
 ErrMax= 1.18D-02 EMaxC= 1.00D-01 BMatC= 9.72D-02 BMatP= 1.09D-01
 IDIUse=3 WtCom= 8.82D-01 WtEn= 1.18D-01
 Coeff-Com: -0.147D-02 0.483D+00 0.518D+00
 Coeff-En:   0.000D+00 0.000D+00 0.100D+01
 Coeff:     -0.130D-02 0.426D+00 0.575D+00
 Gap=     0.265 Goal=   None    Shift=    0.000
 Gap=     0.159 Goal=   None    Shift=    0.000
 RMSDP=6.56D-04 MaxDP=2.71D-02 DE=-2.01D-01 OVMax= 1.29D-01

 Cycle   4  Pass 0  IDiag  1:
 E= -504.831987345271     Delta-E=       -0.011908082702 Rises=F Damp=F
 DIIS: error= 5.20D-03 at cycle   4 NSaved=   4.
 NSaved= 4 IEnMin= 4 EnMin= -504.831987345271     IErMin= 4 ErrMin= 5.20D-03
 ErrMax= 5.20D-03 EMaxC= 1.00D-01 BMatC= 4.55D-02 BMatP= 9.72D-02
 IDIUse=3 WtCom= 9.48D-01 WtEn= 5.20D-02
 Coeff-Com: -0.147D-01 0.109D+00 0.411D+00 0.495D+00
 Coeff-En:   0.000D+00 0.000D+00 0.336D+00 0.664D+00
 Coeff:     -0.139D-01 0.104D+00 0.407D+00 0.504D+00
 Gap=     0.259 Goal=   None    Shift=    0.000
 Gap=     0.148 Goal=   None    Shift=    0.000
 RMSDP=2.61D-04 MaxDP=1.20D-02 DE=-1.19D-02 OVMax= 3.87D-02

 Cycle   5  Pass 0  IDiag  1:
 E= -504.840826548320     Delta-E=       -0.008839203049 Rises=F Damp=F
 DIIS: error= 7.51D-04 at cycle   5 NSaved=   5.
 NSaved= 5 IEnMin= 5 EnMin= -504.840826548320     IErMin= 5 ErrMin= 7.51D-04
 ErrMax= 7.51D-04 EMaxC= 1.00D-01 BMatC= 9.82D-04 BMatP= 4.55D-02
 IDIUse=3 WtCom= 9.92D-01 WtEn= 7.51D-03
 Coeff-Com: -0.579D-02 0.189D-01 0.162D+00 0.219D+00 0.605D+00
 Coeff-En:   0.000D+00 0.000D+00 0.000D+00 0.000D+00 0.100D+01
 Coeff:     -0.575D-02 0.187D-01 0.161D+00 0.218D+00 0.608D+00
 Gap=     0.251 Goal=   None    Shift=    0.000
 Gap=     0.150 Goal=   None    Shift=    0.000
 RMSDP=5.67D-05 MaxDP=2.56D-03 DE=-8.84D-03 OVMax= 6.11D-03

 Cycle   6  Pass 0  IDiag  1:
 E= -504.840945359099     Delta-E=       -0.000118810779 Rises=F Damp=F
 DIIS: error= 6.39D-04 at cycle   6 NSaved=   6.
 NSaved= 6 IEnMin= 6 EnMin= -504.840945359099     IErMin= 6 ErrMin= 6.39D-04
 ErrMax= 6.39D-04 EMaxC= 1.00D-01 BMatC= 6.08D-04 BMatP= 9.82D-04
 IDIUse=3 WtCom= 9.94D-01 WtEn= 6.39D-03
 Coeff-Com: -0.708D-03-0.908D-02 0.356D-01 0.488D-01 0.440D+00 0.486D+00
 Coeff-En:   0.000D+00 0.000D+00 0.000D+00 0.000D+00 0.318D+00 0.682D+00
 Coeff:     -0.703D-03-0.903D-02 0.354D-01 0.485D-01 0.439D+00 0.487D+00
 Gap=     0.252 Goal=   None    Shift=    0.000
 Gap=     0.150 Goal=   None    Shift=    0.000
 RMSDP=3.09D-05 MaxDP=1.59D-03 DE=-1.19D-04 OVMax= 5.14D-03

 Cycle   7  Pass 0  IDiag  1:
 E= -504.841059482760     Delta-E=       -0.000114123661 Rises=F Damp=F
 DIIS: error= 1.41D-04 at cycle   7 NSaved=   7.
 NSaved= 7 IEnMin= 7 EnMin= -504.841059482760     IErMin= 7 ErrMin= 1.41D-04
 ErrMax= 1.41D-04 EMaxC= 1.00D-01 BMatC= 3.64D-05 BMatP= 6.08D-04
 IDIUse=3 WtCom= 9.99D-01 WtEn= 1.41D-03
 Coeff-Com:  0.103D-02-0.625D-02-0.142D-01-0.281D-01 0.440D-01 0.190D+00
 Coeff-Com:  0.813D+00
 Coeff-En:   0.000D+00 0.000D+00 0.000D+00 0.000D+00 0.000D+00 0.000D+00
 Coeff-En:   0.100D+01
 Coeff:      0.102D-02-0.624D-02-0.141D-01-0.281D-01 0.440D-01 0.190D+00
 Coeff:      0.814D+00
 Gap=     0.252 Goal=   None    Shift=    0.000
 Gap=     0.151 Goal=   None    Shift=    0.000
 RMSDP=1.40D-05 MaxDP=5.11D-04 DE=-1.14D-04 OVMax= 2.13D-03

 Cycle   8  Pass 0  IDiag  1:
 E= -504.841070816813     Delta-E=       -0.000011334053 Rises=F Damp=F
 DIIS: error= 6.03D-05 at cycle   8 NSaved=   8.
 NSaved= 8 IEnMin= 8 EnMin= -504.841070816813     IErMin= 8 ErrMin= 6.03D-05
 ErrMax= 6.03D-05 EMaxC= 1.00D-01 BMatC= 9.82D-06 BMatP= 3.64D-05
 IDIUse=1 WtCom= 1.00D+00 WtEn= 0.00D+00
 Coeff-Com:  0.713D-03-0.957D-03-0.145D-01-0.272D-01-0.786D-01-0.890D-02
 Coeff-Com:  0.435D+00 0.694D+00
 Coeff:      0.713D-03-0.957D-03-0.145D-01-0.272D-01-0.786D-01-0.890D-02
 Coeff:      0.435D+00 0.694D+00
 Gap=     0.252 Goal=   None    Shift=    0.000
 Gap=     0.151 Goal=   None    Shift=    0.000
 RMSDP=6.55D-06 MaxDP=2.92D-04 DE=-1.13D-05 OVMax= 1.57D-03

 Initial convergence to 1.0D-05 achieved.  Increase integral accuracy.
 Cycle   9  Pass 1  IDiag  1:
 E= -504.841078610456     Delta-E=       -0.000007793643 Rises=F Damp=F
 DIIS: error= 2.18D-05 at cycle   1 NSaved=   1.
 NSaved= 1 IEnMin= 1 EnMin= -504.841078610456     IErMin= 1 ErrMin= 2.18D-05
 ErrMax= 2.18D-05 EMaxC= 1.00D-01 BMatC= 1.53D-06 BMatP= 1.53D-06
 IDIUse=1 WtCom= 1.00D+00 WtEn= 0.00D+00
 Coeff-Com:  0.100D+01
 Coeff:      0.100D+01
 Gap=     0.252 Goal=   None    Shift=    0.000
 Gap=     0.151 Goal=   None    Shift=    0.000
 RMSDP=6.55D-06 MaxDP=2.92D-04 DE=-7.79D-06 OVMax= 2.79D-04

 Cycle  10  Pass 1  IDiag  1:
 E= -504.841079112748     Delta-E=       -0.000000502292 Rises=F Damp=F
 DIIS: error= 1.19D-05 at cycle   2 NSaved=   2.
 NSaved= 2 IEnMin= 2 EnMin= -504.841079112748     IErMin= 2 ErrMin= 1.19D-05
 ErrMax= 1.19D-05 EMaxC= 1.00D-01 BMatC= 4.00D-07 BMatP= 1.53D-06
 IDIUse=1 WtCom= 1.00D+00 WtEn= 0.00D+00
 Coeff-Com:  0.247D+00 0.753D+00
 Coeff:      0.247D+00 0.753D+00
 Gap=     0.252 Goal=   None    Shift=    0.000
 Gap=     0.151 Goal=   None    Shift=    0.000
 RMSDP=1.62D-06 MaxDP=8.66D-05 DE=-5.02D-07 OVMax= 3.09D-04

 Cycle  11  Pass 1  IDiag  1:
 E= -504.841079163656     Delta-E=       -0.000000050908 Rises=F Damp=F
 DIIS: error= 1.05D-05 at cycle   3 NSaved=   3.
 NSaved= 3 IEnMin= 3 EnMin= -504.841079163656     IErMin= 3 ErrMin= 1.05D-05
 ErrMax= 1.05D-05 EMaxC= 1.00D-01 BMatC= 3.19D-07 BMatP= 4.00D-07
 IDIUse=1 WtCom= 1.00D+00 WtEn= 0.00D+00
 Coeff-Com: -0.340D-01 0.473D+00 0.561D+00
 Coeff:     -0.340D-01 0.473D+00 0.561D+00
 Gap=     0.252 Goal=   None    Shift=    0.000
 Gap=     0.151 Goal=   None    Shift=    0.000
 RMSDP=9.48D-07 MaxDP=3.39D-05 DE=-5.09D-08 OVMax= 1.30D-04

 Cycle  12  Pass 1  IDiag  1:
 E= -504.841079240456     Delta-E=       -0.000000076800 Rises=F Damp=F
 DIIS: error= 4.64D-06 at cycle   4 NSaved=   4.
 NSaved= 4 IEnMin= 4 EnMin= -504.841079240456     IErMin= 4 ErrMin= 4.64D-06
 ErrMax= 4.64D-06 EMaxC= 1.00D-01 BMatC= 3.10D-08 BMatP= 3.19D-07
 IDIUse=1 WtCom= 1.00D+00 WtEn= 0.00D+00
 Coeff-Com: -0.391D-01 0.194D+00 0.297D+00 0.548D+00
 Coeff:     -0.391D-01 0.194D+00 0.297D+00 0.548D+00
 Gap=     0.252 Goal=   None    Shift=    0.000
 Gap=     0.151 Goal=   None    Shift=    0.000
 RMSDP=3.19D-07 MaxDP=1.38D-05 DE=-7.68D-08 OVMax= 7.73D-05

 Cycle  13  Pass 1  IDiag  1:
 E= -504.841079249114     Delta-E=       -0.000000008658 Rises=F Damp=F
 DIIS: error= 2.83D-06 at cycle   5 NSaved=   5.
 NSaved= 5 IEnMin= 5 EnMin= -504.841079249114     IErMin= 5 ErrMin= 2.83D-06
 ErrMax= 2.83D-06 EMaxC= 1.00D-01 BMatC= 9.64D-09 BMatP= 3.10D-08
 IDIUse=1 WtCom= 1.00D+00 WtEn= 0.00D+00
 Coeff-Com: -0.701D-02-0.107D+00-0.100D+00 0.338D+00 0.877D+00
 Coeff:     -0.701D-02-0.107D+00-0.100D+00 0.338D+00 0.877D+00
 Gap=     0.252 Goal=   None    Shift=    0.000
 Gap=     0.151 Goal=   None    Shift=    0.000
 RMSDP=2.77D-07 MaxDP=1.41D-05 DE=-8.66D-09 OVMax= 6.98D-05

 Cycle  14  Pass 1  IDiag  1:
 E= -504.841079253559     Delta-E=       -0.000000004445 Rises=F Damp=F
 DIIS: error= 1.56D-06 at cycle   6 NSaved=   6.
 NSaved= 6 IEnMin= 6 EnMin= -504.841079253559     IErMin= 6 ErrMin= 1.56D-06
 ErrMax= 1.56D-06 EMaxC= 1.00D-01 BMatC= 2.63D-09 BMatP= 9.64D-09
 IDIUse=1 WtCom= 1.00D+00 WtEn= 0.00D+00
 Coeff-Com:  0.527D-02-0.115D+00-0.139D+00 0.739D-01 0.530D+00 0.645D+00
 Coeff:      0.527D-02-0.115D+00-0.139D+00 0.739D-01 0.530D+00 0.645D+00
 Gap=     0.252 Goal=   None    Shift=    0.000
 Gap=     0.151 Goal=   None    Shift=    0.000
 RMSDP=1.34D-07 MaxDP=7.69D-06 DE=-4.45D-09 OVMax= 2.46D-05

 Cycle  15  Pass 1  IDiag  1:
 E= -504.841079254337     Delta-E=       -0.000000000777 Rises=F Damp=F
 DIIS: error= 8.51D-07 at cycle   7 NSaved=   7.
 NSaved= 7 IEnMin= 7 EnMin= -504.841079254337     IErMin= 7 ErrMin= 8.51D-07
 ErrMax= 8.51D-07 EMaxC= 1.00D-01 BMatC= 9.51D-10 BMatP= 2.63D-09
 IDIUse=1 WtCom= 1.00D+00 WtEn= 0.00D+00
 Coeff-Com:  0.502D-02-0.580D-01-0.768D-01-0.123D-01 0.206D+00 0.456D+00
 Coeff-Com:  0.480D+00
 Coeff:      0.502D-02-0.580D-01-0.768D-01-0.123D-01 0.206D+00 0.456D+00
 Coeff:      0.480D+00
 Gap=     0.252 Goal=   None    Shift=    0.000
 Gap=     0.151 Goal=   None    Shift=    0.000
 RMSDP=4.60D-08 MaxDP=2.43D-06 DE=-7.77D-10 OVMax= 1.22D-05

 Cycle  16  Pass 1  IDiag  1:
 E= -504.841079254549     Delta-E=       -0.000000000212 Rises=F Damp=F
 DIIS: error= 8.61D-08 at cycle   8 NSaved=   8.
 NSaved= 8 IEnMin= 8 EnMin= -504.841079254549     IErMin= 8 ErrMin= 8.61D-08
 ErrMax= 8.61D-08 EMaxC= 1.00D-01 BMatC= 2.03D-11 BMatP= 9.51D-10
 IDIUse=1 WtCom= 1.00D+00 WtEn= 0.00D+00
 Coeff-Com:  0.914D-03-0.609D-02-0.865D-02-0.142D-01 0.961D-02 0.710D-01
 Coeff-Com:  0.125D+00 0.823D+00
 Coeff:      0.914D-03-0.609D-02-0.865D-02-0.142D-01 0.961D-02 0.710D-01
 Coeff:      0.125D+00 0.823D+00
 Gap=     0.252 Goal=   None    Shift=    0.000
 Gap=     0.151 Goal=   None    Shift=    0.000
 RMSDP=1.34D-08 MaxDP=5.62D-07 DE=-2.12D-10 OVMax= 3.17D-06

 Cycle  17  Pass 1  IDiag  1:
 E= -504.841079254559     Delta-E=       -0.000000000010 Rises=F Damp=F
 DIIS: error= 7.30D-08 at cycle   9 NSaved=   9.
 NSaved= 9 IEnMin= 9 EnMin= -504.841079254559     IErMin= 9 ErrMin= 7.30D-08
 ErrMax= 7.30D-08 EMaxC= 1.00D-01 BMatC= 9.52D-12 BMatP= 2.03D-11
 IDIUse=1 WtCom= 1.00D+00 WtEn= 0.00D+00
 Coeff-Com: -0.450D-03 0.776D-02 0.103D-01-0.574D-02-0.332D-01-0.496D-01
 Coeff-Com: -0.367D-01 0.432D+00 0.676D+00
 Coeff:     -0.450D-03 0.776D-02 0.103D-01-0.574D-02-0.332D-01-0.496D-01
 Coeff:     -0.367D-01 0.432D+00 0.676D+00
 Gap=     0.252 Goal=   None    Shift=    0.000
 Gap=     0.151 Goal=   None    Shift=    0.000
 RMSDP=6.93D-09 MaxDP=2.44D-07 DE=-1.00D-11 OVMax= 1.48D-06

 SCF Done:  E(UB3LYP) =  -504.841079255     A.U. after   17 cycles
             Convg  =    0.6928D-08             -V/T =  2.0043
 <Sx>= 0.0000 <Sy>= 0.0000 <Sz>= 0.5000 <S**2>= 0.7566 S= 0.5033
 <L.S>= 0.000000000000E+00
 KE= 5.026792508458D+02 PE=-2.564129402015D+03 EE= 8.626799246942D+02
 Annihilation of the first spin contaminant:
 S**2 before annihilation     0.7566,   after     0.7500
 Leave Link  502 at Wed Feb 19 14:08:09 2014, MaxMem= 4026531840 cpu:    1891.3
 (Enter /usr/caen/gaussian-09revc/g09/l801.exe)
 Range of M.O.s used for correlation:     1   312
 NBasis=   312 NAE=    45 NBE=    44 NFC=     0 NFV=     0
 NROrb=    312 NOA=    45 NOB=    44 NVA=   267 NVB=   268
 Leave Link  801 at Wed Feb 19 14:08:10 2014, MaxMem= 4026531840 cpu:       0.3
 (Enter /usr/caen/gaussian-09revc/g09/l1101.exe)
 Using compressed storage, NAtomX=    30.
 Will process  31 centers per pass.
 Leave Link 1101 at Wed Feb 19 14:08:11 2014, MaxMem= 4026531840 cpu:       9.7
 (Enter /usr/caen/gaussian-09revc/g09/l1102.exe)
 Symmetrizing basis deriv contribution to polar:
 IMax=3 JMax=2 DiffMx= 0.00D+00
 Leave Link 1102 at Wed Feb 19 14:08:12 2014, MaxMem= 4026531840 cpu:       1.3
 (Enter /usr/caen/gaussian-09revc/g09/l1110.exe)
 Forming Gx(P) for the SCF density, NAtomX=    30.
 Integral derivatives from FoFDir/FoFCou, PRISM(SPDF).
 Do as many integral derivatives as possible in FoFDir.
 G2DrvN: MDV=    4026531496.
 G2DrvN: will do    31 centers at a time, making    1 passes doing MaxLOS=2.
 Calling FoFCou, ICntrl=  3107 FMM=F I1Cent=   0 AccDes= 0.00D+00.
 FoFCou: FMM=F IPFlag=           0 FMFlag=      100000 FMFlg1=           0
         NFxFlg=           0 DoJE=F BraDBF=F KetDBF=F FulRan=T
         Omega=  0.000000  0.000000  1.000000  0.000000  0.000000 ICntrl=    3107 IOpCl=  1
         NMat0=    1 NMatS0=    1 NMatT0=    0 NMatD0=    1 NMtDS0=    0 NMtDT0=    0
         I1Cent=           0 NGrid=           0.
 Symmetry not used in FoFCou.
 FoFDir/FoFCou used for L=0 through L=2.
 End of G2Drv Frequency-dependent properties file   721 does not exist.
 End of G2Drv Frequency-dependent properties file   722 does not exist.
 Leave Link 1110 at Wed Feb 19 14:11:44 2014, MaxMem= 4026531840 cpu:    1690.6
 (Enter /usr/caen/gaussian-09revc/g09/l1002.exe)
 Minotr:  UHF open shell wavefunction.
          IDoAtm=111111111111111111111111111111
          Direct CPHF calculation.
          Differentiating once with respect to nuclear coordinates.
          Requested convergence is 1.0D-06 RMS, and 1.0D-05 maximum.
          Secondary convergence is 1.0D-12 RMS, and 1.0D-12 maximum.
          NewPWx=T KeepS1=F KeepF1=F KeepIn=T MapXYZ=F SortEE=F KeepMc=T.
          MDV=    4026531536 using IRadAn=       2.
 Generate precomputed XC quadrature information.
          Keep R1 and R2 ints in memory in canonical form, NReq=2738891864.
 Symmetry not used in FoFDir.
 MinBra= 0 MaxBra= 2 Meth= 1.
 IRaf=       0 NMat=   1 IRICut=       1 DoRegI=T DoRafI=F ISym2E= 0 JSym2E=0.
          Solving linear equations simultaneously, MaxMat=       0.
          There are    93 degrees of freedom in the 1st order CPHF.  IDoFFX=5.
     87 vectors produced by pass  0 Test12= 2.56D-10 1.08D-07 XBig12= 2.92D-01 2.84D-01.
 AX will form    87 AO Fock derivatives at one time.
     87 vectors produced by pass  1 Test12= 2.56D-10 1.08D-07 XBig12= 1.16D-02 1.46D-02.
     87 vectors produced by pass  2 Test12= 2.56D-10 1.08D-07 XBig12= 7.82D-05 1.54D-03.
     87 vectors produced by pass  3 Test12= 2.56D-10 1.08D-07 XBig12= 5.69D-07 7.47D-05.
     72 vectors produced by pass  4 Test12= 2.56D-10 1.08D-07 XBig12= 2.41D-09 3.33D-06.
     11 vectors produced by pass  5 Test12= 2.56D-10 1.08D-07 XBig12= 1.27D-11 2.23D-07.
 Inverted reduced A of dimension   431 with in-core refinement.
 End of Minotr Frequency-dependent properties file   721 does not exist.
 End of Minotr Frequency-dependent properties file   722 does not exist.
 Leave Link 1002 at Wed Feb 19 14:16:44 2014, MaxMem= 4026531840 cpu:    2373.3
 (Enter /usr/caen/gaussian-09revc/g09/l601.exe)
 Copying SCF densities to generalized density rwf, IOpCl= 1 IROHF=0.

 **********************************************************************

            Population analysis using the SCF density.

 **********************************************************************

 Orbital symmetries:
 Alpha Orbitals:
       Occupied  (A) (A) (A) (A) (A) (A) (A) (A) (A) (A) (A) (A)
                 (A) (A) (A) (A) (A) (A) (A) (A) (A) (A) (A) (A)
                 (A) (A) (A) (A) (A) (A) (A) (A) (A) (A) (A) (A)
                 (A) (A) (A) (A) (A) (A) (A) (A) (A)
       Virtual   (A) (A) (A) (A) (A) (A) (A) (A) (A) (A) (A) (A)
                 (A) (A) (A) (A) (A) (A) (A) (A) (A) (A) (A) (A)
                 (A) (A) (A) (A) (A) (A) (A) (A) (A) (A) (A) (A)
                 (A) (A) (A) (A) (A) (A) (A) (A) (A) (A) (A) (A)
                 (A) (A) (A) (A) (A) (A) (A) (A) (A) (A) (A) (A)
                 (A) (A) (A) (A) (A) (A) (A) (A) (A) (A) (A) (A)
                 (A) (A) (A) (A) (A) (A) (A) (A) (A) (A) (A) (A)
                 (A) (A) (A) (A) (A) (A) (A) (A) (A) (A) (A) (A)
                 (A) (A) (A) (A) (A) (A) (A) (A) (A) (A) (A) (A)
                 (A) (A) (A) (A) (A) (A) (A) (A) (A) (A) (A) (A)
                 (A) (A) (A) (A) (A) (A) (A) (A) (A) (A) (A) (A)
                 (A) (A) (A) (A) (A) (A) (A) (A) (A) (A) (A) (A)
                 (A) (A) (A) (A) (A) (A) (A) (A) (A) (A) (A) (A)
                 (A) (A) (A) (A) (A) (A) (A) (A) (A) (A) (A) (A)
                 (A) (A) (A) (A) (A) (A) (A) (A) (A) (A) (A) (A)
                 (A) (A) (A) (A) (A) (A) (A) (A) (A) (A) (A) (A)
                 (A) (A) (A) (A) (A) (A) (A) (A) (A) (A) (A) (A)
                 (A) (A) (A) (A) (A) (A) (A) (A) (A) (A) (A) (A)
                 (A) (A) (A) (A) (A) (A) (A) (A) (A) (A) (A) (A)
                 (A) (A) (A) (A) (A) (A) (A) (A) (A) (A) (A) (A)
                 (A) (A) (A) (A) (A) (A) (A) (A) (A) (A) (A) (A)
                 (A) (A) (A) (A) (A) (A) (A) (A) (A) (A) (A) (A)
                 (A) (A) (A)
 Beta  Orbitals:
       Occupied  (A) (A) (A) (A) (A) (A) (A) (A) (A) (A) (A) (A)
                 (A) (A) (A) (A) (A) (A) (A) (A) (A) (A) (A) (A)
                 (A) (A) (A) (A) (A) (A) (A) (A) (A) (A) (A) (A)
                 (A) (A) (A) (A) (A) (A) (A) (A)
       Virtual   (A) (A) (A) (A) (A) (A) (A) (A) (A) (A) (A) (A)
                 (A) (A) (A) (A) (A) (A) (A) (A) (A) (A) (A) (A)
                 (A) (A) (A) (A) (A) (A) (A) (A) (A) (A) (A) (A)
                 (A) (A) (A) (A) (A) (A) (A) (A) (A) (A) (A) (A)
                 (A) (A) (A) (A) (A) (A) (A) (A) (A) (A) (A) (A)
                 (A) (A) (A) (A) (A) (A) (A) (A) (A) (A) (A) (A)
                 (A) (A) (A) (A) (A) (A) (A) (A) (A) (A) (A) (A)
                 (A) (A) (A) (A) (A) (A) (A) (A) (A) (A) (A) (A)
                 (A) (A) (A) (A) (A) (A) (A) (A) (A) (A) (A) (A)
                 (A) (A) (A) (A) (A) (A) (A) (A) (A) (A) (A) (A)
                 (A) (A) (A) (A) (A) (A) (A) (A) (A) (A) (A) (A)
                 (A) (A) (A) (A) (A) (A) (A) (A) (A) (A) (A) (A)
                 (A) (A) (A) (A) (A) (A) (A) (A) (A) (A) (A) (A)
                 (A) (A) (A) (A) (A) (A) (A) (A) (A) (A) (A) (A)
                 (A) (A) (A) (A) (A) (A) (A) (A) (A) (A) (A) (A)
                 (A) (A) (A) (A) (A) (A) (A) (A) (A) (A) (A) (A)
                 (A) (A) (A) (A) (A) (A) (A) (A) (A) (A) (A) (A)
                 (A) (A) (A) (A) (A) (A) (A) (A) (A) (A) (A) (A)
                 (A) (A) (A) (A) (A) (A) (A) (A) (A) (A) (A) (A)
                 (A) (A) (A) (A) (A) (A) (A) (A) (A) (A) (A) (A)
                 (A) (A) (A) (A) (A) (A) (A) (A) (A) (A) (A) (A)
                 (A) (A) (A) (A) (A) (A) (A) (A) (A) (A) (A) (A)
                 (A) (A) (A) (A)
 The electronic state is 2-A.
 Alpha  occ. eigenvalues --  -19.17273 -19.16221 -10.22286 -10.19642 -10.17824
 Alpha  occ. eigenvalues --  -10.17606 -10.17340 -10.17047 -10.16748 -10.16168
 Alpha  occ. eigenvalues --  -10.15070  -1.11841  -0.88528  -0.83160  -0.79530
 Alpha  occ. eigenvalues --   -0.75553  -0.70034  -0.68434  -0.67567  -0.61603
 Alpha  occ. eigenvalues --   -0.58128  -0.55520  -0.50855  -0.48689  -0.47676
 Alpha  occ. eigenvalues --   -0.46224  -0.44738  -0.44227  -0.42752  -0.42355
 Alpha  occ. eigenvalues --   -0.40332  -0.40167  -0.39821  -0.38604  -0.38372
 Alpha  occ. eigenvalues --   -0.37481  -0.36225  -0.34829  -0.34150  -0.33778
 Alpha  occ. eigenvalues --   -0.33615  -0.32537  -0.28503  -0.26783  -0.21805
 Alpha virt. eigenvalues --    0.03404   0.04560   0.04880   0.06027   0.06823
 Alpha virt. eigenvalues --    0.08722   0.08878   0.09162   0.09884   0.10008
 Alpha virt. eigenvalues --    0.11595   0.11836   0.12874   0.13185   0.13985
 Alpha virt. eigenvalues --    0.14580   0.14697   0.15171   0.16490   0.16864
 Alpha virt. eigenvalues --    0.17873   0.19508   0.20939   0.21737   0.22933
 Alpha virt. eigenvalues --    0.24118   0.24886   0.25096   0.26095   0.28487
 Alpha virt. eigenvalues --    0.30020   0.30630   0.31946   0.32804   0.33880
 Alpha virt. eigenvalues --    0.35468   0.36641   0.37189   0.39989   0.40554
 Alpha virt. eigenvalues --    0.42445   0.43743   0.45406   0.46806   0.47756
 Alpha virt. eigenvalues --    0.49562   0.51009   0.52129   0.54371   0.55165
 Alpha virt. eigenvalues --    0.55691   0.55831   0.56693   0.57407   0.57760
 Alpha virt. eigenvalues --    0.57900   0.58738   0.58859   0.59282   0.59401
 Alpha virt. eigenvalues --    0.59957   0.60541   0.61187   0.61326   0.62077
 Alpha virt. eigenvalues --    0.62827   0.63467   0.63776   0.64012   0.64601
 Alpha virt. eigenvalues --    0.66460   0.68182   0.68849   0.71064   0.75883
 Alpha virt. eigenvalues --    0.79666   0.80653   0.83413   0.84576   0.87028
 Alpha virt. eigenvalues --    0.89629   0.91710   0.95161   0.96816   0.98968
 Alpha virt. eigenvalues --    1.00517   1.02037   1.03208   1.04004   1.06175
 Alpha virt. eigenvalues --    1.08138   1.11951   1.17047   1.18895   1.19977
 Alpha virt. eigenvalues --    1.22124   1.24484   1.25979   1.29040   1.31236
 Alpha virt. eigenvalues --    1.33417   1.34704   1.37011   1.39634   1.40201
 Alpha virt. eigenvalues --    1.41969   1.42584   1.44233   1.44587   1.45683
 Alpha virt. eigenvalues --    1.45848   1.47528   1.48602   1.49222   1.49425
 Alpha virt. eigenvalues --    1.50129   1.51364   1.52594   1.53822   1.54120
 Alpha virt. eigenvalues --    1.54982   1.55971   1.56906   1.58005   1.59009
 Alpha virt. eigenvalues --    1.59396   1.61774   1.61876   1.63399   1.63628
 Alpha virt. eigenvalues --    1.65371   1.66705   1.67878   1.70233   1.71080
 Alpha virt. eigenvalues --    1.72478   1.74120   1.75133   1.75686   1.77760
 Alpha virt. eigenvalues --    1.78386   1.79432   1.80379   1.82624   1.83088
 Alpha virt. eigenvalues --    1.85022   1.88201   1.90862   1.92413   1.93578
 Alpha virt. eigenvalues --    1.94939   1.96976   1.99082   2.00549   2.01317
 Alpha virt. eigenvalues --    2.03097   2.06441   2.07605   2.09152   2.10440
 Alpha virt. eigenvalues --    2.12260   2.12760   2.16502   2.17502   2.20322
 Alpha virt. eigenvalues --    2.21426   2.25388   2.27026   2.28767   2.29444
 Alpha virt. eigenvalues --    2.32535   2.34069   2.35639   2.36361   2.38458
 Alpha virt. eigenvalues --    2.38851   2.41556   2.42763   2.43366   2.45223
 Alpha virt. eigenvalues --    2.45820   2.47677   2.48857   2.49921   2.50171
 Alpha virt. eigenvalues --    2.51348   2.51650   2.52056   2.53140   2.53675
 Alpha virt. eigenvalues --    2.55638   2.56699   2.57727   2.59928   2.60290
 Alpha virt. eigenvalues --    2.61173   2.61608   2.62645   2.64649   2.65395
 Alpha virt. eigenvalues --    2.66979   2.67798   2.69341   2.70964   2.74467
 Alpha virt. eigenvalues --    2.75816   2.75963   2.78408   2.79305   2.82460
 Alpha virt. eigenvalues --    2.86034   2.87827   2.89268   2.91140   2.92973
 Alpha virt. eigenvalues --    2.94736   2.97547   3.03253   3.06917   3.09598
 Alpha virt. eigenvalues --    3.11302   3.13240   3.15683   3.18865   3.23993
 Alpha virt. eigenvalues --    3.28526   3.36292   3.38108   3.49908   3.57575
 Alpha virt. eigenvalues --    3.70346   3.73310   3.74907   3.77447   3.79056
 Alpha virt. eigenvalues --    3.79378   3.79845   3.81912   3.82263   3.82554
 Alpha virt. eigenvalues --    3.86667   3.91637   3.94209   4.00124   4.11001
 Alpha virt. eigenvalues --    4.21203   4.29177   4.30067   4.32413   4.36199
 Alpha virt. eigenvalues --    4.74643   4.91071   4.98752   5.22531   5.30855
 Alpha virt. eigenvalues --    5.79797  23.74423  23.76856  23.82176  23.85560
 Alpha virt. eigenvalues --   23.88850  23.92948  23.93586  23.94393  23.95331
 Alpha virt. eigenvalues --   49.80215  49.87264
  Beta  occ. eigenvalues --  -19.17085 -19.14975 -10.22293 -10.18762 -10.17847
  Beta  occ. eigenvalues --  -10.17569 -10.17339 -10.17066 -10.16768 -10.16168
  Beta  occ. eigenvalues --  -10.15070  -1.10554  -0.86886  -0.82259  -0.79169
  Beta  occ. eigenvalues --   -0.75240  -0.69866  -0.68418  -0.67376  -0.61203
  Beta  occ. eigenvalues --   -0.57399  -0.54456  -0.49946  -0.48016  -0.47317
  Beta  occ. eigenvalues --   -0.45886  -0.44289  -0.43986  -0.42145  -0.41187
  Beta  occ. eigenvalues --   -0.40086  -0.39608  -0.39171  -0.38328  -0.38011
  Beta  occ. eigenvalues --   -0.37359  -0.35986  -0.34372  -0.33780  -0.33620
  Beta  occ. eigenvalues --   -0.33313  -0.32376  -0.27068  -0.25568
  Beta virt. eigenvalues --   -0.10462   0.03589   0.04635   0.05139   0.06348
  Beta virt. eigenvalues --    0.06928   0.08900   0.08944   0.09322   0.09942
  Beta virt. eigenvalues --    0.10061   0.11636   0.11948   0.12960   0.13262
  Beta virt. eigenvalues --    0.14046   0.14614   0.14757   0.15302   0.16695
  Beta virt. eigenvalues --    0.17211   0.18159   0.19661   0.21304   0.21986
  Beta virt. eigenvalues --    0.23162   0.24379   0.24966   0.25343   0.26395
  Beta virt. eigenvalues --    0.28643   0.30286   0.30967   0.32077   0.33320
  Beta virt. eigenvalues --    0.34034   0.35573   0.36845   0.37384   0.40120
  Beta virt. eigenvalues --    0.40672   0.42555   0.43923   0.45599   0.46932
  Beta virt. eigenvalues --    0.47867   0.50194   0.52051   0.52854   0.54541
  Beta virt. eigenvalues --    0.55478   0.56030   0.56161   0.56814   0.57503
  Beta virt. eigenvalues --    0.57842   0.58018   0.58824   0.58934   0.59455
  Beta virt. eigenvalues --    0.59525   0.60039   0.60640   0.61258   0.61504
  Beta virt. eigenvalues --    0.62136   0.63088   0.63621   0.63908   0.64171
  Beta virt. eigenvalues --    0.64700   0.66586   0.68270   0.68950   0.71266
  Beta virt. eigenvalues --    0.76006   0.79809   0.80860   0.83739   0.85590
  Beta virt. eigenvalues --    0.87375   0.89866   0.92057   0.95409   0.97059
  Beta virt. eigenvalues --    0.99145   1.00899   1.02361   1.03841   1.04320
  Beta virt. eigenvalues --    1.06477   1.08397   1.12089   1.17228   1.19130
  Beta virt. eigenvalues --    1.20103   1.22435   1.24900   1.26070   1.29201
  Beta virt. eigenvalues --    1.31461   1.33543   1.34964   1.37272   1.39851
  Beta virt. eigenvalues --    1.40447   1.42201   1.42635   1.44511   1.44852
  Beta virt. eigenvalues --    1.45897   1.46007   1.47565   1.48796   1.49490
  Beta virt. eigenvalues --    1.50176   1.50419   1.51966   1.52740   1.53887
  Beta virt. eigenvalues --    1.54281   1.55307   1.56089   1.57105   1.58129
  Beta virt. eigenvalues --    1.59274   1.59519   1.61923   1.62258   1.63613
  Beta virt. eigenvalues --    1.63793   1.65528   1.66873   1.68120   1.70414
  Beta virt. eigenvalues --    1.71332   1.72584   1.74327   1.75270   1.75794
  Beta virt. eigenvalues --    1.77899   1.78608   1.79467   1.80574   1.82847
  Beta virt. eigenvalues --    1.83435   1.85320   1.88417   1.91140   1.92705
  Beta virt. eigenvalues --    1.94021   1.95307   1.97203   1.99235   2.00677
  Beta virt. eigenvalues --    2.01439   2.03297   2.06791   2.07957   2.09377
  Beta virt. eigenvalues --    2.10924   2.12407   2.12931   2.16580   2.18072
  Beta virt. eigenvalues --    2.20591   2.21744   2.25505   2.27191   2.28966
  Beta virt. eigenvalues --    2.29708   2.32854   2.34215   2.35792   2.36472
  Beta virt. eigenvalues --    2.38502   2.38997   2.41770   2.43296   2.43438
  Beta virt. eigenvalues --    2.45270   2.45984   2.47884   2.49151   2.50351
  Beta virt. eigenvalues --    2.50430   2.51489   2.51865   2.52126   2.53383
  Beta virt. eigenvalues --    2.53998   2.55851   2.56880   2.58082   2.60144
  Beta virt. eigenvalues --    2.60395   2.61308   2.61818   2.62997   2.65103
  Beta virt. eigenvalues --    2.65501   2.67280   2.68095   2.69502   2.71324
  Beta virt. eigenvalues --    2.74762   2.76016   2.76273   2.78534   2.79406
  Beta virt. eigenvalues --    2.82657   2.86155   2.87756   2.89454   2.91400
  Beta virt. eigenvalues --    2.93234   2.94816   2.98820   3.04318   3.07109
  Beta virt. eigenvalues --    3.09865   3.11533   3.13778   3.16080   3.19181
  Beta virt. eigenvalues --    3.26173   3.29085   3.36567   3.39932   3.49996
  Beta virt. eigenvalues --    3.58528   3.70829   3.73597   3.75130   3.77454
  Beta virt. eigenvalues --    3.79115   3.79510   3.80038   3.81984   3.82279
  Beta virt. eigenvalues --    3.82601   3.87277   3.91790   3.96027   4.00178
  Beta virt. eigenvalues --    4.11579   4.21477   4.29203   4.30743   4.32761
  Beta virt. eigenvalues --    4.36461   4.75223   4.92071   4.99657   5.24789
  Beta virt. eigenvalues --    5.32675   5.80594  23.74931  23.77235  23.82188
  Beta virt. eigenvalues --   23.85547  23.88933  23.92948  23.93570  23.94396
  Beta virt. eigenvalues --   23.95351  49.81128  49.87778
          Condensed to atoms (all electrons):
              1          2          3          4          5          6
     1  C    4.867001   0.404491   0.402001   0.401544   0.361259  -0.036613
     2  H    0.404491   0.545139  -0.028762  -0.025646  -0.030778  -0.005183
     3  H    0.402001  -0.028762   0.602929  -0.032369  -0.040749   0.008725
     4  H    0.401544  -0.025646  -0.032369   0.589272  -0.032877  -0.007052
     5  C    0.361259  -0.030778  -0.040749  -0.032877   5.110981   0.408423
     6  H   -0.036613  -0.005183   0.008725  -0.007052   0.408423   0.581144
     7  C    0.009240   0.000878  -0.000027  -0.000347  -0.082619  -0.009893
     8  H    0.000194  -0.000046   0.000040  -0.000025  -0.003412   0.005271
     9  H   -0.000406  -0.000080   0.000014   0.000010  -0.001988   0.000547
    10  C   -0.000330  -0.000022  -0.000024   0.000013   0.008265  -0.000570
    11  H    0.000015   0.000003   0.000000  -0.000001  -0.000258   0.000001
    12  H   -0.000035  -0.000014  -0.000009   0.000002   0.000813   0.000042
    13  C   -0.000027   0.000042   0.000001  -0.000001  -0.000173   0.000553
    14  H   -0.000007   0.000338  -0.000010   0.000001  -0.000202  -0.000985
    15  C    0.000000  -0.000002   0.000000   0.000000  -0.000003  -0.000007
    16  H    0.000000   0.000000   0.000000   0.000000  -0.000001  -0.000001
    17  H    0.000000   0.000000   0.000000   0.000000  -0.000003  -0.000002
    18  H    0.000000  -0.000005   0.000000   0.000000   0.000041   0.000002
    19  C   -0.064787   0.008182  -0.006307  -0.005595   0.340461  -0.041353
    20  H   -0.003970  -0.000248   0.005211  -0.000601  -0.041973   0.008584
    21  H   -0.006208   0.000015  -0.000798   0.003988  -0.029621  -0.005376
    22  H    0.007581  -0.000471  -0.000089   0.000020  -0.030833  -0.006021
    23  C    0.000001  -0.000003   0.000000   0.000000   0.000037   0.000023
    24  H    0.000000   0.000000   0.000000   0.000000  -0.000006   0.000001
    25  H    0.000000   0.000000   0.000000   0.000000  -0.000004   0.000005
    26  H   -0.000001  -0.000001   0.000000   0.000000   0.000044   0.000055
    27  C   -0.062414  -0.009642  -0.006241   0.008542   0.352954  -0.044616
    28  H   -0.006037  -0.000511   0.004824  -0.000162  -0.040462   0.008934
    29  O   -0.003031   0.012335  -0.000154   0.000124  -0.052078  -0.005966
    30  O   -0.001468   0.001050  -0.000012  -0.000091  -0.002274   0.015173
              7          8          9         10         11         12
     1  C    0.009240   0.000194  -0.000406  -0.000330   0.000015  -0.000035
     2  H    0.000878  -0.000046  -0.000080  -0.000022   0.000003  -0.000014
     3  H   -0.000027   0.000040   0.000014  -0.000024   0.000000  -0.000009
     4  H   -0.000347  -0.000025   0.000010   0.000013  -0.000001   0.000002
     5  C   -0.082619  -0.003412  -0.001988   0.008265  -0.000258   0.000813
     6  H   -0.009893   0.005271   0.000547  -0.000570   0.000001   0.000042
     7  C    5.034191   0.411372   0.392451   0.339254  -0.033830  -0.039703
     8  H    0.411372   0.576329  -0.030587  -0.044987  -0.001724   0.007692
     9  H    0.392451  -0.030587   0.577024  -0.026812  -0.009099  -0.001305
    10  C    0.339254  -0.044987  -0.026812   4.976116   0.395012   0.409298
    11  H   -0.033830  -0.001724  -0.009099   0.395012   0.599922  -0.030588
    12  H   -0.039703   0.007692  -0.001305   0.409298  -0.030588   0.570532
    13  C   -0.054211  -0.004759   0.007334   0.330198  -0.042190  -0.039159
    14  H    0.000133  -0.003854  -0.000211  -0.019701   0.004391  -0.003062
    15  C    0.006853   0.000418  -0.000345  -0.060216  -0.001846  -0.005185
    16  H   -0.000074  -0.000017   0.000017  -0.004335   0.003969  -0.000427
    17  H   -0.000421   0.000009   0.000021   0.008170  -0.000644   0.000368
    18  H   -0.000316  -0.000003  -0.000052  -0.006841  -0.000473   0.003938
    19  C   -0.001565  -0.002792  -0.000026   0.000107   0.000007  -0.000114
    20  H   -0.002064   0.000325   0.000812  -0.000141   0.000000  -0.000003
    21  H   -0.000062  -0.000252   0.000195   0.000016  -0.000002   0.000004
    22  H    0.004499   0.001016  -0.001764   0.000122   0.000024   0.000002
    23  C   -0.008443   0.000745  -0.000246  -0.061298  -0.006840   0.007136
    24  H   -0.000106  -0.000360   0.000029   0.007709  -0.000140  -0.000413
    25  H    0.000017   0.000028   0.000019  -0.006915   0.006624  -0.000182
    26  H    0.000285   0.003973  -0.000262  -0.004801  -0.000804   0.000060
    27  C    0.333286  -0.046596  -0.027195  -0.043311   0.006270  -0.007261
    28  H   -0.031870   0.008362  -0.005821  -0.006982  -0.000114   0.002855
    29  O   -0.049572  -0.000246   0.003811  -0.000971   0.000168   0.004214
    30  O    0.013895   0.004307   0.000545  -0.009867  -0.000478   0.000098
             13         14         15         16         17         18
     1  C   -0.000027  -0.000007   0.000000   0.000000   0.000000   0.000000
     2  H    0.000042   0.000338  -0.000002   0.000000   0.000000  -0.000005
     3  H    0.000001  -0.000010   0.000000   0.000000   0.000000   0.000000
     4  H   -0.000001   0.000001   0.000000   0.000000   0.000000   0.000000
     5  C   -0.000173  -0.000202  -0.000003  -0.000001  -0.000003   0.000041
     6  H    0.000553  -0.000985  -0.000007  -0.000001  -0.000002   0.000002
     7  C   -0.054211   0.000133   0.006853  -0.000074  -0.000421  -0.000316
     8  H   -0.004759  -0.003854   0.000418  -0.000017   0.000009  -0.000003
     9  H    0.007334  -0.000211  -0.000345   0.000017   0.000021  -0.000052
    10  C    0.330198  -0.019701  -0.060216  -0.004335   0.008170  -0.006841
    11  H   -0.042190   0.004391  -0.001846   0.003969  -0.000644  -0.000473
    12  H   -0.039159  -0.003062  -0.005185  -0.000427   0.000368   0.003938
    13  C    5.414284   0.230528   0.359762  -0.039103  -0.035245  -0.033089
    14  H    0.230528   0.472980  -0.020764   0.004844  -0.004047  -0.005267
    15  C    0.359762  -0.020764   4.835391   0.388046   0.405404   0.404744
    16  H   -0.039103   0.004844   0.388046   0.606997  -0.031713  -0.032208
    17  H   -0.035245  -0.004047   0.405404  -0.031713   0.571324  -0.024212
    18  H   -0.033089  -0.005267   0.404744  -0.032208  -0.024212   0.556237
    19  C    0.000016   0.000056   0.000000   0.000000   0.000000  -0.000002
    20  H    0.000002   0.000001   0.000000   0.000000   0.000000   0.000000
    21  H    0.000002   0.000002   0.000000   0.000000   0.000000   0.000000
    22  H   -0.000024  -0.000006   0.000000   0.000000   0.000000   0.000000
    23  C    0.346055  -0.023682  -0.056792  -0.005348  -0.005175   0.007912
    24  H   -0.033786  -0.004273  -0.005699  -0.000808   0.004076   0.000126
    25  H   -0.038256   0.004531  -0.005097   0.005731  -0.001003  -0.000494
    26  H   -0.033136  -0.004254   0.007702  -0.000521   0.000119  -0.000366
    27  C   -0.010652   0.005029   0.000203  -0.000041   0.000019   0.000121
    28  H    0.001075  -0.001923   0.000010  -0.000005  -0.000005  -0.000024
    29  O    0.010631  -0.040435  -0.002188  -0.000095  -0.000162   0.004034
    30  O   -0.083188   0.147429   0.003846  -0.000202   0.000905   0.000640
             19         20         21         22         23         24
     1  C   -0.064787  -0.003970  -0.006208   0.007581   0.000001   0.000000
     2  H    0.008182  -0.000248   0.000015  -0.000471  -0.000003   0.000000
     3  H   -0.006307   0.005211  -0.000798  -0.000089   0.000000   0.000000
     4  H   -0.005595  -0.000601   0.003988   0.000020   0.000000   0.000000
     5  C    0.340461  -0.041973  -0.029621  -0.030833   0.000037  -0.000006
     6  H   -0.041353   0.008584  -0.005376  -0.006021   0.000023   0.000001
     7  C   -0.001565  -0.002064  -0.000062   0.004499  -0.008443  -0.000106
     8  H   -0.002792   0.000325  -0.000252   0.001016   0.000745  -0.000360
[...]
 ,0.00020498,0.00055650,0.00062484,0.00067286,0.00808921,0.01137146,0.0
 1237704,-0.00034061,0.00074234,0.00034941,0.00047219,0.00077916,0.0000
 4541,-0.00002278,-0.00009130,-0.00007375,-0.00003797,0.00003574,-0.000
 07742,0.00013518,0.00017075,-0.00014471,0.00000096,-0.00000328,0.00001
 467,-0.00000060,0.00000077,-0.00000424,-0.00001606,-0.00000226,0.00000
 283,0.00000756,0.00000987,-0.00000421,-0.06549725,-0.14432276,-0.10902
 796,0.06927466,0.15556934,-0.00002480,-0.00001705,0.00002917,0.0000094
 0,-0.00000054,-0.00000365,0.00000166,-0.00000032,-0.00000426,-0.000020
 37,0.00001049,0.00000413,0.00000246,0.00005914,-0.00001902,-0.00000877
 ,0.00000050,0.00000952,0.00034859,0.00007385,-0.00036737,-0.00015509,-
 0.00001374,0.00021364,-0.00009499,-0.00003123,0.00006177,-0.00055456,0
 .00385703,-0.00318574,0.00029224,0.00030511,0.00042863,-0.00114391,-0.
 00061638,-0.00092061,-0.01066036,-0.01567333,-0.01657893,0.00075010,-0
 .00067844,-0.00012835,-0.00040274,-0.00131640,0.00052707,-0.00002878,0
 .00004083,0.00006466,0.00070812,0.00098488,-0.00000692,0.00007241,0.00
 014629,0.00052721,-0.00000725,0.00000847,0.00001429,0.00000767,-0.0000
 0215,-0.00000124,-0.00001806,0.00000177,0.00000687,0.00000607,0.000013
 42,-0.00001322,-0.07033729,-0.10779853,-0.16875506,0.08025848,0.117541
 92,0.18376486,0.00002062,-0.00000394,-0.00000558,0.00003039,-0.0000327
 4,-0.00000796,-0.00000816,0.00000286,-0.00001795,-0.00002057,-0.000008
 99,0.00001180,0.00005907,-0.00010918,0.00004436,0.00000950,0.00000681,
 -0.00003212,-0.00015764,-0.00034101,0.00031694,0.00015762,0.00021455,-
 0.00009096,-0.00004875,-0.00001527,-0.00014653,0.00072367,0.00083801,0
 .00099052,-0.00011382,-0.00086498,-0.00067993,0.00018573,-0.00026200,-
 0.00012439,-0.01035121,0.00948839,-0.00076768,0.00032842,0.00024592,-0
 .00165353,0.00028989,-0.00073641,0.00029059,0.00061036,0.00026885,-0.0
 0036033,0.00007956,-0.00002127,-0.00004819,0.00002755,-0.00009830,-0.0
 0019693,-0.00003773,0.00003331,0.00002315,-0.00000641,-0.00000409,-0.0
 0001784,-0.00002167,-0.00002074,0.00000529,0.00001501,-0.00000372,0.00
 000704,-0.16794506,0.10828440,0.05676303,0.00966635,-0.00841768,-0.003
 54658,0.18341859,-0.00002995,-0.00001287,-0.00002140,-0.00004641,0.000
 04971,0.00001306,0.00000570,0.00000540,0.00001786,0.00002992,0.0000135
 4,-0.00001220,-0.00002199,0.00013096,0.00003553,-0.00000487,-0.0000340
 2,0.00001106,-0.00010412,0.00011344,0.00000025,0.00008884,0.00008129,-
 0.00006763,-0.00003189,0.00008961,-0.00005876,-0.00079932,-0.00007519,
 -0.00048458,0.00012013,0.00062968,0.00030974,-0.00010121,0.00008783,0.
 00005709,0.01334696,-0.01404532,-0.00037816,0.00091775,-0.00073572,0.0
 0189796,-0.00009952,0.00147274,-0.00062988,-0.00057361,-0.00030285,0.0
 0073160,0.00013582,-0.00017582,-0.00007354,-0.00017850,0.00028443,0.00
 008306,0.00005658,-0.00003934,-0.00004742,-0.00000067,0.00000637,0.000
 01218,0.00002994,0.00002927,-0.00000444,-0.00000917,0.00001926,0.00000
 155,0.10982403,-0.14119614,-0.05068135,0.01434298,-0.01276315,-0.00630
 549,-0.12403540,0.15489576,0.00003547,0.00001837,0.00001732,0.00004122
 ,-0.00004863,-0.00001605,-0.00000052,-0.00000614,-0.00000705,-0.000024
 00,-0.00002134,0.00000621,-0.00000722,-0.00016214,-0.00002107,-0.00000
 167,0.00003144,-0.00000096,0.00022842,-0.00001832,-0.00011455,-0.00003
 111,-0.00008044,0.00009135,0.00003631,-0.00008903,0.00006113,0.0006851
 4,0.00081598,0.00151695,0.00017333,-0.00076865,-0.00035241,0.00030347,
 -0.00010404,0.00011680,-0.01835897,0.01652059,0.00448520,-0.00271933,0
 .00232859,-0.00075556,-0.00004480,-0.00106696,0.00103455,0.00039135,-0
 .00004379,-0.00026244,0.00008030,0.00003597,-0.00008642,-0.00008257,-0
 .00038058,0.00012694,-0.00005248,0.00003310,0.00004424,0.00000184,-0.0
 0000367,-0.00000222,-0.00001893,-0.00002895,-0.00000157,0.00000273,-0.
 00002906,0.00000075,0.05154988,-0.04559176,-0.06691948,0.01633614,-0.0
 1323837,-0.00712387,-0.05836427,0.05087251,0.07327291,0.00000701,0.000
 00723,-0.00000362,-0.00001564,0.00001443,0.00000509,0.00000294,-0.0000
 0297,0.00000453,0.00001727,-0.00000166,-0.00000546,0.00000251,-0.00000
 185,0.00000484,-0.00001551,-0.00000373,0.00001050,-0.00040966,0.000453
 66,-0.00079552,-0.00074181,-0.00006815,-0.00062122,0.00010662,-0.00004
 765,0.00017738,-0.00004300,-0.00077451,0.00028170,-0.00006368,0.000042
 61,0.00016806,0.00007441,0.00015297,0.00023769,0.01040089,0.00758821,-
 0.00410366,0.00069437,-0.00028241,-0.00007485,-0.00034720,0.00105100,-
 0.00190746,0.00008418,0.00008263,-0.00023074,-0.00002465,0.00020729,0.
 00003090,0.00042116,0.00042590,-0.00036941,0.00001753,-0.00001772,-0.0
 0001017,-0.00000266,0.00000490,0.00000187,0.00001900,0.00000530,-0.000
 00319,-0.00001454,-0.00000460,0.00000063,-0.18455331,-0.10292049,0.081
 29068,-0.00929150,-0.00520137,0.00518833,-0.01682052,-0.01228912,0.009
 08232,0.20068585,-0.00000748,-0.00002629,-0.00002606,0.00000489,-0.000
 00083,0.00000570,-0.00001277,0.00000975,-0.00001654,-0.00000446,0.0000
 0470,0.00000626,0.00006895,-0.00000166,0.00010864,0.00001805,-0.000007
 97,-0.00004221,-0.00016838,0.00005638,0.00029768,0.00032782,0.00057187
 ,-0.00028471,0.00003148,0.00004356,-0.00025322,-0.00002720,0.00012404,
 -0.00054362,0.00010583,0.00006497,-0.00004554,-0.00000069,-0.00008570,
 -0.00008005,-0.01240077,-0.01150331,0.00722428,-0.00105967,0.00014183,
 0.00036434,0.00230406,-0.00081797,0.00261374,-0.00025527,0.00002103,0.
 00034363,0.00038233,0.00045532,-0.00012719,-0.00074154,-0.00030675,0.0
 0089471,0.00000294,0.00001736,-0.00002154,-0.00000945,-0.00000691,-0.0
 0001769,-0.00000562,-0.00000312,0.00000564,0.00001774,0.00001867,0.000
 01269,-0.10179380,-0.11954495,0.05909575,-0.01389602,-0.01046021,0.009
 03734,0.01520068,0.01163830,-0.00911835,0.11155007,0.12951030,0.000033
 48,0.00002392,-0.00001723,0.00000463,-0.00002314,-0.00000043,0.0000004
 2,-0.00000340,0.00000007,0.00001814,-0.00001933,-0.00000345,-0.0000423
 7,-0.00009596,0.00004361,0.00000317,0.00002839,0.00000597,-0.00003013,
 -0.00000481,-0.00071698,-0.00093669,-0.00020118,0.00047454,-0.00001931
 ,-0.00007671,0.00023112,0.00062158,0.00003430,0.00076008,0.00006923,-0
 .00024339,-0.00028242,0.00013062,-0.00008951,0.00028093,0.01992182,0.0
 1263792,-0.01041884,0.00031471,-0.00010398,0.00009715,-0.00366617,0.00
 237747,-0.00328322,-0.00016781,-0.00032664,0.00021715,0.00005949,0.000
 09391,0.00024053,0.00107074,0.00107894,-0.00052078,-0.00003547,0.00002
 888,-0.00000980,-0.00000260,-0.00000711,0.00000378,0.00002508,-0.00001
 807,-0.00000649,-0.00002197,-0.00004702,0.00001735,0.08044543,0.059661
 14,-0.09677377,-0.01659079,-0.01121368,0.01098870,0.00744598,0.0051354
 4,-0.00496022,-0.08836541,-0.06876556,0.10310985,-0.02378561,0.0066860
 8,0.01353716,0.00093200,-0.00168413,-0.00027163,0.00100326,-0.00113488
 ,0.00091211,-0.00117395,0.00197485,-0.00057344,-0.12305377,0.01065991,
 0.04273205,0.00634986,0.00014189,-0.00452213,-0.11772451,0.04129663,-0
 .00965004,-0.00383855,0.00314027,-0.00195879,0.00762290,-0.01087377,0.
 00060463,-0.02084977,0.02369942,-0.00006076,-0.00473556,-0.00178333,0.
 00079348,0.00148022,0.00065033,-0.00040746,-0.00475101,0.00365323,0.00
 280754,0.00321910,-0.00618205,-0.00261060,0.00022293,-0.00078609,-0.00
 010386,0.00049424,0.00020651,-0.00025073,0.00013067,0.00011978,0.00008
 998,-0.00014238,0.00001767,0.00006234,-0.01497423,-0.00916402,0.007001
 50,0.00052671,0.00068257,0.00118807,0.00067164,0.00012994,-0.00034231,
 0.00062430,0.00155714,-0.00067920,0.00105519,-0.00084718,-0.00124627,-
 0.00000024,0.00009833,0.00006492,0.00036843,-0.00052456,0.00052210,-0.
 00013790,-0.00003972,0.00001780,0.45308733,0.02265460,0.00219780,-0.01
 828579,0.00011657,-0.00128526,-0.00071221,-0.00042524,0.00080014,0.000
 05477,0.00342762,-0.00570851,0.00081753,0.00698581,-0.07320440,0.00063
 442,0.00180342,-0.00040369,-0.00051656,0.04360447,-0.11794821,0.016339
 35,0.00589699,-0.00707886,0.00086720,0.01316856,-0.01807336,0.00479165
 ,0.00469706,0.00774592,-0.00578381,-0.00374619,-0.00055160,0.00100245,
 -0.00061932,-0.00053223,0.00083897,-0.00984735,0.00956491,0.00740833,0
 .01203192,-0.00551637,-0.00245422,0.00090981,-0.00294885,-0.00229022,0
 .00107281,0.00064369,-0.00044505,-0.00047727,-0.00022553,0.00019451,-0
 .00037283,0.00017402,0.00031758,-0.02401705,-0.00475997,0.01658043,0.0
 0039942,0.00117158,0.00035580,-0.00209270,-0.00439744,-0.00072027,0.00
 016811,-0.00030938,0.00080292,0.00212079,-0.00211670,-0.00241344,-0.00
 046823,0.00008024,-0.00011307,0.00054496,-0.00071199,0.00100919,-0.000
 02858,-0.00001523,0.00064890,-0.03281033,0.41485172,-0.00074390,-0.003
 76434,0.00249953,0.00068834,0.00009041,0.00014348,-0.00236429,0.000765
 05,0.00036436,-0.00209492,0.00163776,0.00035886,0.03902125,-0.00493647
 ,-0.12013981,0.02784387,0.00230578,-0.02522311,-0.01229767,0.01218574,
 -0.08432054,-0.02101751,0.02619748,-0.00376800,0.01039353,-0.01365676,
 0.00087408,0.00879248,-0.01067133,-0.00047738,0.00376110,0.00059198,-0
 .00059369,0.00128374,-0.00060723,0.00040347,-0.00091826,0.00166857,0.0
 0028672,0.00206460,-0.00220347,-0.00074090,0.00032252,-0.00038335,-0.0
 0012820,0.00011332,0.00002274,-0.00005747,0.00000062,0.00005170,0.0000
 0047,-0.00019978,0.00003447,0.00014271,-0.00501772,0.00402726,0.004041
 54,-0.00213766,-0.00130737,0.00045426,-0.00266115,-0.00283428,0.000282
 57,0.00040929,-0.00018002,-0.00000517,0.00011187,-0.00011869,-0.000752
 64,-0.00020559,-0.00004090,0.00012401,-0.00003908,-0.00013462,0.000058
 13,-0.00009221,-0.00011603,0.00035914,0.04081229,-0.03321938,0.5971079
 8,0.00165060,-0.00069403,0.00063240,-0.00006007,0.00010519,-0.00009664
 ,-0.00017806,0.00001698,-0.00060780,0.00016603,-0.00020099,-0.00027464
 ,0.00561026,-0.00061661,0.02581302,-0.00384463,-0.00037656,0.00341301,
 -0.00608567,0.00344684,-0.01894512,-0.00198848,0.00251345,-0.00000490,
 0.00124043,-0.00044222,0.00054179,0.00091051,0.00035452,-0.00101442,0.
 00012217,-0.00001642,0.00024494,-0.00029778,-0.00030032,0.00063242,0.0
 0071534,-0.00063533,-0.00034829,-0.00008140,0.00023732,0.00006819,-0.0
 0009903,0.00018959,0.00006932,-0.00008483,-0.00003674,0.00003607,0.000
 03681,-0.00001192,0.00000972,0.00000810,-0.00005292,-0.00001034,0.0015
 0556,0.00101036,0.00028290,-0.00015535,-0.00018481,-0.00072398,0.00005
 819,0.00018266,-0.00027525,-0.00006817,-0.00006486,-0.00000855,-0.0001
 0596,0.00021467,0.00011078,-0.00000993,-0.00004296,0.00004999,-0.00008
 865,0.00004609,-0.00006009,-0.00001753,-0.00007414,0.00008378,-0.06751
 202,0.00509100,-0.06266536,0.07932159,-0.00019560,0.00021471,-0.000911
 73,-0.00004317,0.00002209,-0.00006070,0.00002586,0.00023053,0.00001653
 ,-0.00001212,-0.00008959,0.00008096,0.00159420,0.00091447,0.00148744,-
 0.00057267,0.00030402,0.00028530,0.00846068,-0.00472860,0.02360748,0.0
 0365980,-0.00307746,0.00079708,-0.00008897,0.00077662,0.00029705,-0.00
 107680,0.00016489,0.00039568,-0.00001956,0.00010099,0.00001704,0.00021
 494,0.00033356,-0.00046293,0.00081961,-0.00096537,-0.00058370,-0.00020
 190,-0.00010786,0.00010427,-0.00013306,0.00035008,0.00013220,-0.000107
 98,-0.00005888,0.00005409,0.00004974,-0.00000166,-0.00001118,0.0000198
 0,-0.00001197,-0.00003674,0.00062711,0.00039730,0.00070554,-0.00025698
 ,0.00000685,-0.00028553,-0.00002715,0.00000255,-0.00013975,0.00001360,
 0.00002839,0.00003464,-0.00023690,0.00003223,0.00034369,0.00010502,0.0
 0002908,-0.00002446,-0.00000898,0.00011214,-0.00008652,0.00002991,0.00
 008687,-0.00018623,0.00852408,-0.04699321,0.02382466,-0.00163369,0.061
 44428,-0.00128193,0.00057225,0.00078117,0.00002838,-0.00007331,-0.0000
 5172,0.00082871,-0.00053432,0.00058744,0.00006963,0.00003778,0.0004856
 9,-0.00418909,0.00119909,-0.02128365,0.00329620,0.00039524,-0.00140382
 ,0.00003238,0.00072033,-0.00218349,-0.00000849,0.00023499,0.00091006,-
 0.00007626,0.00067856,0.00091417,-0.00025929,0.00005733,0.00038736,-0.
 00011900,-0.00003551,0.00014684,-0.00061668,-0.00004956,0.00012504,0.0
 0042248,-0.00029441,-0.00015402,-0.00013346,0.00019981,0.00014348,-0.0
 0007200,0.00013445,0.00003164,-0.00004258,-0.00002037,0.00002559,0.000
 00758,-0.00001231,0.00000075,0.00001270,-0.00002875,-0.00000517,-0.000
 53608,-0.00055706,0.00035868,0.00069745,0.00072599,0.00048354,0.000195
 23,0.00006049,0.00035013,0.00000364,-0.00005634,0.00004728,0.00002613,
 0.00013366,0.00011394,0.00002819,-0.00002115,0.00000080,-0.00004247,0.
 00002027,-0.00001861,-0.00000260,-0.00003867,0.00000769,-0.06774425,0.
 01598093,-0.27332218,0.07483220,-0.01381216,0.29850361,-0.00014702,0.0
 0029342,0.00070197,-0.00195103,-0.00144328,0.00016411,-0.00051424,-0.0
 0018703,-0.00048170,-0.00020930,-0.00100699,-0.00003929,-0.02079631,-0
 .03477872,-0.00477214,0.00168852,0.00061543,-0.00056646,0.01007035,0.0
 0756168,-0.00053948,-0.00069775,0.00078716,-0.00015768,-0.00071989,0.0
 0235363,-0.00050842,-0.00188022,-0.00039247,0.00134896,0.00059207,0.00
 107198,0.00003704,-0.00003446,0.00092277,-0.00050351,0.01047665,-0.008
 44968,-0.00974923,-0.03189575,0.01408332,-0.02177023,-0.00063373,0.001
 90056,0.00063174,-0.00070425,-0.00050548,0.00046360,-0.00002073,0.0000
 2292,-0.00023699,0.00038966,-0.00008160,0.00019123,-0.00537954,0.00244
 726,0.00580094,0.00007259,0.00026619,-0.00036230,-0.00122679,-0.002524
 11,-0.00037828,0.00020835,-0.00056535,0.00020007,-0.00313772,0.0021755
 3,0.00300452,0.00016713,-0.00028769,-0.00002970,-0.00041843,0.00073324
 ,-0.00125288,0.00026759,0.00008832,-0.00016462,-0.07525079,-0.03739968
 ,0.00916527,-0.00916816,-0.01543669,-0.00631707,0.19167659,0.00237869,
 -0.00097103,-0.00049439,0.00035578,0.00177644,0.00012934,-0.00010225,0
 .00009949,-0.00004441,0.00042789,0.00078798,0.00003048,-0.01718902,-0.
 01933462,-0.00057948,0.00072325,0.00022175,-0.00039743,-0.01762726,-0.
 04590717,-0.01072768,-0.00013560,-0.00028472,0.00047367,0.00547821,-0.
 00653855,0.00293542,-0.00371842,0.00207851,0.00008543,-0.00012930,0.00
 027831,0.00084286,0.00070520,0.00027371,0.00000560,0.00693138,-0.00593
 222,-0.00270286,-0.00304671,0.00453400,0.01186397,-0.00091877,0.001701
 29,0.00116371,-0.00051035,-0.00036378,0.00031009,0.00031667,0.00010012
 ,-0.00006314,0.00018147,-0.00016100,-0.00011211,-0.00254608,0.00280442
 ,0.00360860,0.00005424,-0.00001403,-0.00036066,-0.00103633,-0.00144156
 ,-0.00038449,0.00030156,0.00022823,-0.00016125,-0.00054760,0.00064342,
 0.00070600,0.00017884,0.00003353,-0.00000088,-0.00023721,0.00028705,-0
 .00029724,-0.00001497,0.00006070,-0.00036333,-0.02639450,-0.14960309,0
 .03783606,-0.00331332,-0.00340100,-0.00368702,0.06593839,0.26643211,0.
 00043018,-0.00008567,0.00097988,0.00082056,-0.00032835,-0.00017994,0.0
 0029608,0.00009702,-0.00008560,-0.00017695,0.00000113,0.00010087,0.008
 53335,0.01723065,0.00669416,-0.00159577,0.00015988,0.00002904,0.002064
 15,-0.00246688,0.00018793,-0.00005958,-0.00011653,0.00008904,0.0009405
 0,-0.00090322,0.00028087,-0.00527693,0.00241184,0.00045070,0.00113486,
 0.00051517,0.00232034,0.00001897,-0.00012772,0.00161547,0.02290684,-0.
 02495694,-0.01694194,-0.05120982,0.03005979,0.00650893,-0.00341730,0.0
 0548211,0.00247567,-0.00168038,-0.00146221,0.00111350,0.00027438,-0.00
 012761,-0.00014772,-0.00021902,-0.00075451,0.00055039,0.00251785,-0.00
 062690,-0.00281429,0.00018977,-0.00003527,0.00010890,0.00070979,0.0008
 4681,0.00033905,-0.00016960,-0.00029026,0.00003057,-0.00392046,0.00340
 834,0.00448742,0.00034521,-0.00021649,-0.00006262,-0.00081414,0.001383
 03,-0.00153606,0.00020627,-0.00002102,-0.00050847,0.00196889,0.0194289
 7,-0.07089922,-0.02000866,-0.03146087,-0.00936776,0.09608020,-0.032977
 24,0.26237946,-0.00061687,-0.00039179,-0.00059559,-0.00098184,0.000860
 72,0.00020710,0.00022032,0.00025600,0.00025362,0.00034949,0.00022625,-
 0.00001165,-0.00058063,0.00210571,0.00088402,-0.00069319,-0.00032825,-
 0.00106004,0.00422820,0.00351166,0.00358882,0.00078711,0.00006885,-0.0
 0024231,-0.00118209,0.00163149,-0.00042143,0.00492381,-0.00814663,-0.0
 0357247,-0.00092160,-0.00000394,-0.00259887,0.00010096,-0.00016426,-0.
 00081776,-0.09144975,0.08227202,0.05545308,0.05224081,-0.04703147,-0.0
 0762639,0.00777049,-0.00499592,-0.00518500,0.00076645,0.00132108,-0.00
 049351,-0.00043041,-0.00034714,0.00012279,-0.00007712,-0.00004250,-0.0
 0015451,0.00114561,-0.00014922,-0.00134940,-0.00002843,-0.00007513,0.0
 0018770,0.00034022,0.00049949,0.00020732,-0.00005188,0.00025406,-0.000
 01499,0.00860254,-0.00778626,-0.00348251,-0.00064428,0.00024881,-0.000
 72716,0.00004785,-0.00082767,0.00154882,-0.00030225,0.00039381,-0.0002
 2274,-0.01985851,-0.01238917,-0.03232898,-0.00149987,-0.00409212,0.000
 96036,-0.06082341,-0.00650387,-0.05088923,0.09861827,-0.00015722,-0.00
 047369,-0.00027142,0.00021431,0.00008153,0.00007692,-0.00011197,0.0000
 3595,-0.00010123,-0.00005581,0.00011887,0.00003772,0.00077872,0.001360
 47,0.00125112,-0.00051497,-0.00031922,-0.00065927,-0.00078077,-0.00158
 933,-0.00109333,-0.00039097,0.00033191,-0.00136799,0.00011411,0.000526
 36,-0.00085549,-0.00074369,0.00224091,0.00214686,0.00011482,0.00019869
 ,0.00059822,0.00005146,-0.00019760,-0.00027052,0.04674438,-0.03713501,
 -0.02693471,-0.02579309,0.00448538,-0.00360311,-0.00313908,0.00173714,
 0.00255566,0.00016251,-0.00027685,-0.00035756,0.00064991,0.00021857,-0
 .00004978,0.00028442,0.00031027,-0.00071188,0.00013596,0.00023125,-0.0
 0066408,-0.00003317,-0.00010054,-0.00000555,0.00001782,0.00006343,0.00
 009955,0.00004094,0.00000003,0.00002456,-0.00385077,0.00346001,0.00081
 515,0.00042788,-0.00011405,0.00051101,0.00009317,0.00014561,-0.0004817
 6,0.00004365,-0.00004473,0.00003983,-0.01101409,0.00515386,-0.03706545
 ,-0.00471084,-0.00611606,-0.00193024,0.00179697,-0.04838829,0.01593294
 ,-0.00037461,0.07405512,-0.00045918,-0.00048262,-0.00028113,-0.0006741
 9,0.00092172,0.00011532,0.00032090,0.00009005,0.00025952,0.00025275,0.
 00031060,-0.00001310,0.00238727,0.00267972,0.00172914,-0.00055346,-0.0
 0019701,0.00162944,0.00205198,0.00421821,0.00250315,0.00041635,-0.0006
 5446,0.00031137,-0.00111893,0.00184232,0.00015521,0.00671676,-0.003630
 56,-0.00031319,-0.00129216,-0.00031962,-0.00200464,-0.00013932,-0.0005
 0898,-0.00101486,-0.00183469,0.00621310,0.00795513,0.03109321,-0.02443
 876,-0.04263220,0.00227786,-0.00541295,-0.00178580,0.00162890,0.001428
 01,-0.00110596,-0.00002583,0.00031470,0.00017697,0.00015582,0.00069623
 ,-0.00046165,0.00100884,-0.00020321,-0.00008107,0.00029846,0.00027991,
 0.00016744,0.00013071,0.00030729,0.00010721,-0.00006135,0.00022056,-0.
 00004869,0.00234722,-0.00195383,-0.00315441,0.00016823,-0.00000043,0.0
 0040553,0.00105775,-0.00168273,0.00134605,-0.00010528,-0.00049240,0.00
 066447,-0.02269339,-0.02111990,-0.02707301,-0.00177650,-0.00412115,0.0
 0338554,-0.06995965,-0.00663761,-0.18819859,0.04838091,0.05233382,0.24
 725680\\0.00000075,0.00000249,-0.00000471,0.00000146,0.00000255,-0.000
 00747,0.00000113,-0.00000028,-0.00000495,0.00000054,0.00000534,-0.0000
 0508,0.00000124,0.00000315,-0.00000114,0.00000014,0.00000557,-0.000000
 80,-0.00000083,-0.00000105,0.00000299,-0.00000096,0.00000217,0.0000041
 0,-0.00000104,-0.00000264,0.00000555,-0.00000049,-0.00000404,0.0000023
 6,-0.00000076,-0.00000469,0.00000539,0.00000048,-0.00000644,0.00000064
 ,-0.00000022,-0.00000118,0.00000028,0.00000120,0.00000095,-0.00000287,
 0.00000071,-0.00000386,-0.00000232,0.00000063,-0.00000609,-0.00000045,
 0.00000113,-0.00000201,-0.00000408,0.00000141,-0.00000577,-0.00000470,
 -0.00000089,0.00000245,0.00000321,-0.00000074,-0.00000060,0.00000319,-
 0.00000110,0.00000490,0.00000275,-0.00000147,0.00000269,0.00000590,-0.
 00000084,0.00000186,0.00000295,-0.00000037,0.00000413,0.00000093,-0.00
 000112,0.00000054,0.00000503,-0.00000128,0.00000402,0.00000431,-0.0000
 0011,-0.00000102,-0.00000052,0.00000057,-0.00000400,-0.00000111,0.0000
 0164,-0.00000113,-0.00000510,-0.00000078,0.00000199,-0.00000426\\\@
 Job cpu time:  0 days 12 hours 52 minutes 57.1 seconds.
 File lengths (MBytes):  RWF=  76051 Int=      0 D2E=      0 Chk=     26 Scr=      1
 Normal termination of Gaussian 09 at Thu Feb 20 08:13:44 2014.
