 Entering Gaussian System, Link 0=g09
 Initial command:
 /usr/caen/gaussian-09revc/g09/l1.exe /scratch/avioli_flux/hetanjin/scratch/Gau-1055.inp -scrdir=/scratch/avioli_flux/hetanjin/scratch/
 Entering Link 1 = /usr/caen/gaussian-09revc/g09/l1.exe PID=      1056.
  
 Copyright (c) 1988,1990,1992,1993,1995,1998,2003,2009,2011,
            Gaussian, Inc.  All Rights Reserved.
  
 This is part of the Gaussian(R) 09 program.  It is based on
 the Gaussian(R) 03 system (copyright 2003, Gaussian, Inc.),
 the Gaussian(R) 98 system (copyright 1998, Gaussian, Inc.),
 the Gaussian(R) 94 system (copyright 1995, Gaussian, Inc.),
 the Gaussian 92(TM) system (copyright 1992, Gaussian, Inc.),
 the Gaussian 90(TM) system (copyright 1990, Gaussian, Inc.),
 the Gaussian 88(TM) system (copyright 1988, Gaussian, Inc.),
 the Gaussian 86(TM) system (copyright 1986, Carnegie Mellon
 University), and the Gaussian 82(TM) system (copyright 1983,
 Carnegie Mellon University). Gaussian is a federally registered
 trademark of Gaussian, Inc.
  
 This software contains proprietary and confidential information,
 including trade secrets, belonging to Gaussian, Inc.
  
 This software is provided under written license and may be
 used, copied, transmitted, or stored only in accord with that
 written license.
  
 The following legend is applicable only to US Government
 contracts under FAR:
  
                    RESTRICTED RIGHTS LEGEND
  
 Use, reproduction and disclosure by the US Government is
 subject to restrictions as set forth in subparagraphs (a)
 and (c) of the Commercial Computer Software - Restricted
 Rights clause in FAR 52.227-19.
  
 Gaussian, Inc.
 340 Quinnipiac St., Bldg. 40, Wallingford CT 06492
  
  
 ---------------------------------------------------------------
 Warning -- This program may not be used in any manner that
 competes with the business of Gaussian, Inc. or will provide
 assistance to any competitor of Gaussian, Inc.  The licensee
 of this program is prohibited from giving any competitor of
 Gaussian, Inc. access to this program.  By using this program,
 the user acknowledges that Gaussian, Inc. is engaged in the
 business of creating and licensing software in the field of
 computational chemistry and represents and warrants to the
 licensee that it is not a competitor of Gaussian, Inc. and that
 it will not use this program in any manner prohibited above.
 ---------------------------------------------------------------
  

 Cite this work as:
 Gaussian 09, Revision C.01,
 M. J. Frisch, G. W. Trucks, H. B. Schlegel, G. E. Scuseria, 
 M. A. Robb, J. R. Cheeseman, G. Scalmani, V. Barone, B. Mennucci, 
 G. A. Petersson, H. Nakatsuji, M. Caricato, X. Li, H. P. Hratchian, 
 A. F. Izmaylov, J. Bloino, G. Zheng, J. L. Sonnenberg, M. Hada, 
 M. Ehara, K. Toyota, R. Fukuda, J. Hasegawa, M. Ishida, T. Nakajima, 
 Y. Honda, O. Kitao, H. Nakai, T. Vreven, J. A. Montgomery, Jr., 
 J. E. Peralta, F. Ogliaro, M. Bearpark, J. J. Heyd, E. Brothers, 
 K. N. Kudin, V. N. Staroverov, T. Keith, R. Kobayashi, J. Normand, 
 K. Raghavachari, A. Rendell, J. C. Burant, S. S. Iyengar, J. Tomasi, 
 M. Cossi, N. Rega, J. M. Millam, M. Klene, J. E. Knox, J. B. Cross, 
 V. Bakken, C. Adamo, J. Jaramillo, R. Gomperts, R. E. Stratmann, 
 O. Yazyev, A. J. Austin, R. Cammi, C. Pomelli, J. W. Ochterski, 
 R. L. Martin, K. Morokuma, V. G. Zakrzewski, G. A. Voth, 
 P. Salvador, J. J. Dannenberg, S. Dapprich, A. D. Daniels, 
 O. Farkas, J. B. Foresman, J. V. Ortiz, J. Cioslowski, 
 and D. J. Fox, Gaussian, Inc., Wallingford CT, 2010.
 
 ******************************************
 Gaussian 09:  EM64L-G09RevC.01 23-Sep-2011
                17-Feb-2014 
 ******************************************
 %mem=30GB
 %nprocshared=8
 Will use up to    8 processors via shared memory.
 %chk=TS_3_3e.chk
 -------------------------------
 #p cbs-qb3 opt=(TS,calcfc) freq
 -------------------------------
 1/5=1,10=4,14=-1,18=20,26=3,38=1/1,3;
 2/9=110,12=2,17=6,18=5,40=1/2;
 3/5=4,6=6,7=700,11=2,16=1,25=1,30=1,71=2,74=-5/1,2,3;
 4//1;
 5/5=2,38=5/2;
 8/6=4,10=90,11=11/1;
 11/6=1,8=1,9=11,15=111,16=1/1,2,10;
 10/6=1,7=6,13=1/2;
 6/7=2,8=2,9=2,10=2,28=1/1;
 7/10=1,18=20,25=1/1,2,3,16;
 1/5=1,10=4,14=-1,18=20/3(2);
 2/9=110/2;
 99//99;
 2/9=110/2;
 3/5=4,6=6,7=700,11=2,16=1,25=1,30=1,71=1,74=-5/1,2,3;
 4/5=5,16=3/1;
 5/5=2,38=5/2;
 7//1,2,3,16;
 1/5=1,14=-1,18=20/3(-5);
 2/9=110/2;
 6/7=2,8=2,9=2,10=2,19=2,28=1/1;
 99/9=1/99;
 Leave Link    1 at Mon Feb 17 03:03:49 2014, MaxMem= 4026531840 cpu:       1.7
 (Enter /usr/caen/gaussian-09revc/g09/l101.exe)
 ------------------------------------
 TS_3_3e using cbs-qb3 to cal. energy
 ------------------------------------
 Charge =  0 Multiplicity = 2
 Symbolic Z-Matrix:
 C                     3.0012   -0.03133  -1.00885 
 H                     2.88435  -1.09377  -1.22223 
 H                     3.81611   0.0815   -0.28508 
 H                     3.30208   0.47465  -1.93042 
 C                     1.69917   0.57702  -0.46907 
 H                     0.91884   0.4222   -1.21986 
 C                    -0.1339    0.23999   1.40227 
 H                    -0.24659   1.32835   1.35853 
 H                    -0.12863  -0.04199   2.45709 
 C                    -1.28752  -0.44878   0.69531 
 H                    -1.91973  -1.04959   1.35387 
 H                    -0.57211  -1.4362    0.0728 
 C                    -2.07363   0.28768  -0.37506 
 H                    -1.36564   0.82881  -1.01454 
 C                    -2.86807  -0.68684  -1.25784 
 H                    -3.58009  -1.26312  -0.65742 
 H                    -3.43648  -0.14826  -2.02129 
 H                    -2.20749  -1.39489  -1.76475 
 C                     1.86545   2.0871   -0.2398 
 H                     2.61618   2.28926   0.5323 
 H                     2.20365   2.57216  -1.15928 
 H                     0.93563   2.57583   0.06146 
 C                    -3.01699   1.33011   0.26366 
 H                    -3.54932   1.8906   -0.5108 
 H                    -3.76369   0.83957   0.89635 
 H                    -2.47225   2.04822   0.88219 
 C                     1.27075  -0.13466   0.8302 
 H                     2.0258    0.0635    1.59966 
 O                     1.31028  -1.5653    0.72923 
 O                     0.41478  -1.97328  -0.28841 
 
 NAtoms=     30 NQM=        0 NQMF=       0 NMMI=     30 NMMIF=      0
                NMic=       0 NMicF=      0.
                    Isotopes and Nuclear Properties:
 (Nuclear quadrupole moments (NQMom) in fm**2, nuclear magnetic moments (NMagM)
  in nuclear magnetons)

  Atom         1           2           3           4           5           6           7           8           9          10
 IAtWgt=          12           1           1           1          12           1          12           1           1          12
 AtmWgt=  12.0000000   1.0078250   1.0078250   1.0078250  12.0000000   1.0078250  12.0000000   1.0078250   1.0078250  12.0000000
 NucSpn=           0           1           1           1           0           1           0           1           1           0
 AtZEff=   0.0000000   0.0000000   0.0000000   0.0000000   0.0000000   0.0000000   0.0000000   0.0000000   0.0000000   0.0000000
 NQMom=    0.0000000   0.0000000   0.0000000   0.0000000   0.0000000   0.0000000   0.0000000   0.0000000   0.0000000   0.0000000
 NMagM=    0.0000000   2.7928460   2.7928460   2.7928460   0.0000000   2.7928460   0.0000000   2.7928460   2.7928460   0.0000000

  Atom        11          12          13          14          15          16          17          18          19          20
 IAtWgt=           1           1          12           1          12           1           1           1          12           1
 AtmWgt=   1.0078250   1.0078250  12.0000000   1.0078250  12.0000000   1.0078250   1.0078250   1.0078250  12.0000000   1.0078250
 NucSpn=           1           1           0           1           0           1           1           1           0           1
 AtZEff=   0.0000000   0.0000000   0.0000000   0.0000000   0.0000000   0.0000000   0.0000000   0.0000000   0.0000000   0.0000000
 NQMom=    0.0000000   0.0000000   0.0000000   0.0000000   0.0000000   0.0000000   0.0000000   0.0000000   0.0000000   0.0000000
 NMagM=    2.7928460   2.7928460   0.0000000   2.7928460   0.0000000   2.7928460   2.7928460   2.7928460   0.0000000   2.7928460

  Atom        21          22          23          24          25          26          27          28          29          30
 IAtWgt=           1           1          12           1           1           1          12           1          16          16
 AtmWgt=   1.0078250   1.0078250  12.0000000   1.0078250   1.0078250   1.0078250  12.0000000   1.0078250  15.9949146  15.9949146
 NucSpn=           1           1           0           1           1           1           0           1           0           0
 AtZEff=   0.0000000   0.0000000   0.0000000   0.0000000   0.0000000   0.0000000   0.0000000   0.0000000   0.0000000   0.0000000
 NQMom=    0.0000000   0.0000000   0.0000000   0.0000000   0.0000000   0.0000000   0.0000000   0.0000000   0.0000000   0.0000000
 NMagM=    2.7928460   2.7928460   0.0000000   2.7928460   2.7928460   2.7928460   0.0000000   2.7928460   0.0000000   0.0000000
 Leave Link  101 at Mon Feb 17 03:03:50 2014, MaxMem= 4026531840 cpu:       1.5
 (Enter /usr/caen/gaussian-09revc/g09/l103.exe)

 GradGradGradGradGradGradGradGradGradGradGradGradGradGradGradGradGradGrad
 Berny optimization.
 Initialization pass.
                           ----------------------------
                           !    Initial Parameters    !
                           ! (Angstroms and Degrees)  !
 --------------------------                            --------------------------
 ! Name  Definition              Value          Derivative Info.                !
 --------------------------------------------------------------------------------
 ! R1    R(1,2)                  1.0899         calculate D2E/DX2 analytically  !
 ! R2    R(1,3)                  1.0957         calculate D2E/DX2 analytically  !
 ! R3    R(1,4)                  1.0935         calculate D2E/DX2 analytically  !
 ! R4    R(1,5)                  1.5352         calculate D2E/DX2 analytically  !
 ! R5    R(5,6)                  1.0939         calculate D2E/DX2 analytically  !
 ! R6    R(5,19)                 1.5364         calculate D2E/DX2 analytically  !
 ! R7    R(5,27)                 1.5421         calculate D2E/DX2 analytically  !
 ! R8    R(7,8)                  1.0951         calculate D2E/DX2 analytically  !
 ! R9    R(7,9)                  1.0919         calculate D2E/DX2 analytically  !
 ! R10   R(7,10)                 1.5182         calculate D2E/DX2 analytically  !
 ! R11   R(7,27)                 1.5623         calculate D2E/DX2 analytically  !
 ! R12   R(10,11)                1.0929         calculate D2E/DX2 analytically  !
 ! R13   R(10,12)                1.3691         calculate D2E/DX2 analytically  !
 ! R14   R(10,13)                1.5186         calculate D2E/DX2 analytically  !
 ! R15   R(12,30)                1.1802         calculate D2E/DX2 analytically  !
 ! R16   R(13,14)                1.0968         calculate D2E/DX2 analytically  !
 ! R17   R(13,15)                1.5363         calculate D2E/DX2 analytically  !
 ! R18   R(13,23)                1.5442         calculate D2E/DX2 analytically  !
 ! R19   R(15,16)                1.0952         calculate D2E/DX2 analytically  !
 ! R20   R(15,17)                1.0936         calculate D2E/DX2 analytically  !
 ! R21   R(15,18)                1.093          calculate D2E/DX2 analytically  !
 ! R22   R(19,20)                1.0957         calculate D2E/DX2 analytically  !
 ! R23   R(19,21)                1.0932         calculate D2E/DX2 analytically  !
 ! R24   R(19,22)                1.0928         calculate D2E/DX2 analytically  !
 ! R25   R(23,24)                1.0942         calculate D2E/DX2 analytically  !
 ! R26   R(23,25)                1.0948         calculate D2E/DX2 analytically  !
 ! R27   R(23,26)                1.0932         calculate D2E/DX2 analytically  !
 ! R28   R(27,28)                1.0961         calculate D2E/DX2 analytically  !
 ! R29   R(27,29)                1.4347         calculate D2E/DX2 analytically  !
 ! R30   R(29,30)                1.4156         calculate D2E/DX2 analytically  !
 ! A1    A(2,1,3)              108.0238         calculate D2E/DX2 analytically  !
 ! A2    A(2,1,4)              108.3934         calculate D2E/DX2 analytically  !
 ! A3    A(2,1,5)              111.3573         calculate D2E/DX2 analytically  !
 ! A4    A(3,1,4)              107.7215         calculate D2E/DX2 analytically  !
 ! A5    A(3,1,5)              110.9596         calculate D2E/DX2 analytically  !
 ! A6    A(4,1,5)              110.2624         calculate D2E/DX2 analytically  !
 ! A7    A(1,5,6)              107.9156         calculate D2E/DX2 analytically  !
 ! A8    A(1,5,19)             110.4971         calculate D2E/DX2 analytically  !
 ! A9    A(1,5,27)             110.4252         calculate D2E/DX2 analytically  !
 ! A10   A(6,5,19)             108.5866         calculate D2E/DX2 analytically  !
 ! A11   A(6,5,27)             108.3469         calculate D2E/DX2 analytically  !
 ! A12   A(19,5,27)            110.9728         calculate D2E/DX2 analytically  !
 ! A13   A(8,7,9)              107.2031         calculate D2E/DX2 analytically  !
 ! A14   A(8,7,10)             110.7381         calculate D2E/DX2 analytically  !
 ! A15   A(8,7,27)             108.4363         calculate D2E/DX2 analytically  !
 ! A16   A(9,7,10)             109.6544         calculate D2E/DX2 analytically  !
 ! A17   A(9,7,27)             106.7074         calculate D2E/DX2 analytically  !
 ! A18   A(10,7,27)            113.821          calculate D2E/DX2 analytically  !
 ! A19   A(7,10,11)            114.1024         calculate D2E/DX2 analytically  !
 ! A20   A(7,10,12)             98.1559         calculate D2E/DX2 analytically  !
 ! A21   A(7,10,13)            120.1023         calculate D2E/DX2 analytically  !
 ! A22   A(11,10,12)           100.3571         calculate D2E/DX2 analytically  !
 ! A23   A(11,10,13)           113.0728         calculate D2E/DX2 analytically  !
 ! A24   A(12,10,13)           107.445          calculate D2E/DX2 analytically  !
 ! A25   A(10,12,30)           154.7349         calculate D2E/DX2 analytically  !
 ! A26   A(10,13,14)           108.4256         calculate D2E/DX2 analytically  !
 ! A27   A(10,13,15)           111.4132         calculate D2E/DX2 analytically  !
 ! A28   A(10,13,23)           110.6147         calculate D2E/DX2 analytically  !
 ! A29   A(14,13,15)           108.1639         calculate D2E/DX2 analytically  !
 ! A30   A(14,13,23)           107.6044         calculate D2E/DX2 analytically  !
 ! A31   A(15,13,23)           110.4864         calculate D2E/DX2 analytically  !
 ! A32   A(13,15,16)           110.7899         calculate D2E/DX2 analytically  !
 ! A33   A(13,15,17)           110.9481         calculate D2E/DX2 analytically  !
 ! A34   A(13,15,18)           111.401          calculate D2E/DX2 analytically  !
 ! A35   A(16,15,17)           107.6935         calculate D2E/DX2 analytically  !
 ! A36   A(16,15,18)           107.8358         calculate D2E/DX2 analytically  !
 ! A37   A(17,15,18)           108.0221         calculate D2E/DX2 analytically  !
 ! A38   A(5,19,20)            111.1397         calculate D2E/DX2 analytically  !
 ! A39   A(5,19,21)            110.125          calculate D2E/DX2 analytically  !
 ! A40   A(5,19,22)            112.8683         calculate D2E/DX2 analytically  !
 ! A41   A(20,19,21)           107.3884         calculate D2E/DX2 analytically  !
 ! A42   A(20,19,22)           107.8308         calculate D2E/DX2 analytically  !
 ! A43   A(21,19,22)           107.2569         calculate D2E/DX2 analytically  !
 ! A44   A(13,23,24)           110.5014         calculate D2E/DX2 analytically  !
 ! A45   A(13,23,25)           110.6856         calculate D2E/DX2 analytically  !
 ! A46   A(13,23,26)           111.905          calculate D2E/DX2 analytically  !
 ! A47   A(24,23,25)           107.863          calculate D2E/DX2 analytically  !
 ! A48   A(24,23,26)           107.8431         calculate D2E/DX2 analytically  !
 ! A49   A(25,23,26)           107.8931         calculate D2E/DX2 analytically  !
 ! A50   A(5,27,7)             116.5917         calculate D2E/DX2 analytically  !
 ! A51   A(5,27,28)            108.4606         calculate D2E/DX2 analytically  !
 ! A52   A(5,27,29)            113.1555         calculate D2E/DX2 analytically  !
 ! A53   A(7,27,28)            108.5988         calculate D2E/DX2 analytically  !
 ! A54   A(7,27,29)            106.8381         calculate D2E/DX2 analytically  !
 ! A55   A(28,27,29)           102.1625         calculate D2E/DX2 analytically  !
 ! A56   A(27,29,30)           108.6955         calculate D2E/DX2 analytically  !
 ! A57   A(12,30,29)           100.2418         calculate D2E/DX2 analytically  !
 ! D1    D(2,1,5,6)            -58.6654         calculate D2E/DX2 analytically  !
 ! D2    D(2,1,5,19)          -177.2514         calculate D2E/DX2 analytically  !
 ! D3    D(2,1,5,27)            59.5897         calculate D2E/DX2 analytically  !
 ! D4    D(3,1,5,6)           -179.0336         calculate D2E/DX2 analytically  !
 ! D5    D(3,1,5,19)            62.3804         calculate D2E/DX2 analytically  !
 ! D6    D(3,1,5,27)           -60.7785         calculate D2E/DX2 analytically  !
 ! D7    D(4,1,5,6)             61.7            calculate D2E/DX2 analytically  !
 ! D8    D(4,1,5,19)           -56.8859         calculate D2E/DX2 analytically  !
 ! D9    D(4,1,5,27)           179.9551         calculate D2E/DX2 analytically  !
 ! D10   D(1,5,19,20)          -63.7427         calculate D2E/DX2 analytically  !
 ! D11   D(1,5,19,21)           55.1347         calculate D2E/DX2 analytically  !
 ! D12   D(1,5,19,22)          174.9662         calculate D2E/DX2 analytically  !
 ! D13   D(6,5,19,20)          178.0809         calculate D2E/DX2 analytically  !
 ! D14   D(6,5,19,21)          -63.0417         calculate D2E/DX2 analytically  !
 ! D15   D(6,5,19,22)           56.7898         calculate D2E/DX2 analytically  !
 ! D16   D(27,5,19,20)          59.0977         calculate D2E/DX2 analytically  !
 ! D17   D(27,5,19,21)         177.975          calculate D2E/DX2 analytically  !
 ! D18   D(27,5,19,22)         -62.1935         calculate D2E/DX2 analytically  !
 ! D19   D(1,5,27,7)          -172.1467         calculate D2E/DX2 analytically  !
 ! D20   D(1,5,27,28)           64.9566         calculate D2E/DX2 analytically  !
 ! D21   D(1,5,27,29)          -47.6467         calculate D2E/DX2 analytically  !
 ! D22   D(6,5,27,7)           -54.1559         calculate D2E/DX2 analytically  !
 ! D23   D(6,5,27,28)         -177.0526         calculate D2E/DX2 analytically  !
 ! D24   D(6,5,27,29)           70.3441         calculate D2E/DX2 analytically  !
 ! D25   D(19,5,27,7)           64.9715         calculate D2E/DX2 analytically  !
 ! D26   D(19,5,27,28)         -57.9252         calculate D2E/DX2 analytically  !
 ! D27   D(19,5,27,29)        -170.5285         calculate D2E/DX2 analytically  !
 ! D28   D(8,7,10,11)         -115.4117         calculate D2E/DX2 analytically  !
 ! D29   D(8,7,10,12)          139.3353         calculate D2E/DX2 analytically  !
 ! D30   D(8,7,10,13)           23.6676         calculate D2E/DX2 analytically  !
 ! D31   D(9,7,10,11)            2.6904         calculate D2E/DX2 analytically  !
 ! D32   D(9,7,10,12)         -102.5627         calculate D2E/DX2 analytically  !
 ! D33   D(9,7,10,13)          141.7696         calculate D2E/DX2 analytically  !
 ! D34   D(27,7,10,11)         122.1215         calculate D2E/DX2 analytically  !
 ! D35   D(27,7,10,12)          16.8685         calculate D2E/DX2 analytically  !
 ! D36   D(27,7,10,13)         -98.7992         calculate D2E/DX2 analytically  !
 ! D37   D(8,7,27,5)           -44.478          calculate D2E/DX2 analytically  !
 ! D38   D(8,7,27,28)           78.3471         calculate D2E/DX2 analytically  !
 ! D39   D(8,7,27,29)         -172.1354         calculate D2E/DX2 analytically  !
 ! D40   D(9,7,27,5)          -159.6641         calculate D2E/DX2 analytically  !
 ! D41   D(9,7,27,28)          -36.839          calculate D2E/DX2 analytically  !
 ! D42   D(9,7,27,29)           72.6784         calculate D2E/DX2 analytically  !
 ! D43   D(10,7,27,5)           79.2456         calculate D2E/DX2 analytically  !
 ! D44   D(10,7,27,28)        -157.9293         calculate D2E/DX2 analytically  !
 ! D45   D(10,7,27,29)         -48.4118         calculate D2E/DX2 analytically  !
 ! D46   D(7,10,12,30)         -11.0074         calculate D2E/DX2 analytically  !
 ! D47   D(11,10,12,30)       -127.467          calculate D2E/DX2 analytically  !
 ! D48   D(13,10,12,30)        114.1717         calculate D2E/DX2 analytically  !
 ! D49   D(7,10,13,14)          42.8917         calculate D2E/DX2 analytically  !
 ! D50   D(7,10,13,15)         161.8121         calculate D2E/DX2 analytically  !
 ! D51   D(7,10,13,23)         -74.8777         calculate D2E/DX2 analytically  !
 ! D52   D(11,10,13,14)       -177.642          calculate D2E/DX2 analytically  !
 ! D53   D(11,10,13,15)        -58.7216         calculate D2E/DX2 analytically  !
 ! D54   D(11,10,13,23)         64.5886         calculate D2E/DX2 analytically  !
 ! D55   D(12,10,13,14)        -67.8445         calculate D2E/DX2 analytically  !
 ! D56   D(12,10,13,15)         51.0758         calculate D2E/DX2 analytically  !
 ! D57   D(12,10,13,23)        174.386          calculate D2E/DX2 analytically  !
 ! D58   D(10,12,30,29)         29.6634         calculate D2E/DX2 analytically  !
 ! D59   D(10,13,15,16)         60.0416         calculate D2E/DX2 analytically  !
 ! D60   D(10,13,15,17)        179.6089         calculate D2E/DX2 analytically  !
 ! D61   D(10,13,15,18)        -60.0034         calculate D2E/DX2 analytically  !
 ! D62   D(14,13,15,16)        179.1181         calculate D2E/DX2 analytically  !
 ! D63   D(14,13,15,17)        -61.3147         calculate D2E/DX2 analytically  !
 ! D64   D(14,13,15,18)         59.073          calculate D2E/DX2 analytically  !
 ! D65   D(23,13,15,16)        -63.3417         calculate D2E/DX2 analytically  !
 ! D66   D(23,13,15,17)         56.2256         calculate D2E/DX2 analytically  !
 ! D67   D(23,13,15,18)        176.6133         calculate D2E/DX2 analytically  !
 ! D68   D(10,13,23,24)        177.4626         calculate D2E/DX2 analytically  !
 ! D69   D(10,13,23,25)        -63.1158         calculate D2E/DX2 analytically  !
 ! D70   D(10,13,23,26)         57.2683         calculate D2E/DX2 analytically  !
 ! D71   D(14,13,23,24)         59.1913         calculate D2E/DX2 analytically  !
 ! D72   D(14,13,23,25)        178.6129         calculate D2E/DX2 analytically  !
 ! D73   D(14,13,23,26)        -61.003          calculate D2E/DX2 analytically  !
 ! D74   D(15,13,23,24)        -58.6926         calculate D2E/DX2 analytically  !
 ! D75   D(15,13,23,25)         60.729          calculate D2E/DX2 analytically  !
 ! D76   D(15,13,23,26)       -178.887          calculate D2E/DX2 analytically  !
 ! D77   D(5,27,29,30)         -60.9452         calculate D2E/DX2 analytically  !
 ! D78   D(7,27,29,30)          68.7045         calculate D2E/DX2 analytically  !
 ! D79   D(28,27,29,30)       -177.3352         calculate D2E/DX2 analytically  !
 ! D80   D(27,29,30,12)        -53.4325         calculate D2E/DX2 analytically  !
 --------------------------------------------------------------------------------
 Trust Radius=3.00D-01 FncErr=1.00D-07 GrdErr=1.00D-06
 Number of steps in this run=    177 maximum allowed number of steps=    180.
 Search for a saddle point of order  1.
 GradGradGradGradGradGradGradGradGradGradGradGradGradGradGradGradGradGrad

 Leave Link  103 at Mon Feb 17 03:03:50 2014, MaxMem= 4026531840 cpu:       0.1
 (Enter /usr/caen/gaussian-09revc/g09/l202.exe)
                          Input orientation:                          
 ---------------------------------------------------------------------
 Center     Atomic      Atomic             Coordinates (Angstroms)
 Number     Number       Type             X           Y           Z
 ---------------------------------------------------------------------
      1          6           0        3.001204   -0.031326   -1.008854
      2          1           0        2.884351   -1.093775   -1.222234
      3          1           0        3.816109    0.081496   -0.285079
      4          1           0        3.302085    0.474652   -1.930419
      5          6           0        1.699169    0.577022   -0.469073
      6          1           0        0.918842    0.422203   -1.219855
      7          6           0       -0.133897    0.239992    1.402268
      8          1           0       -0.246591    1.328353    1.358532
      9          1           0       -0.128628   -0.041991    2.457086
     10          6           0       -1.287521   -0.448777    0.695313
     11          1           0       -1.919727   -1.049586    1.353872
     12          1           0       -0.572111   -1.436202    0.072803
     13          6           0       -2.073627    0.287678   -0.375059
     14          1           0       -1.365638    0.828807   -1.014540
     15          6           0       -2.868067   -0.686838   -1.257836
     16          1           0       -3.580088   -1.263121   -0.657423
     17          1           0       -3.436483   -0.148256   -2.021293
     18          1           0       -2.207488   -1.394891   -1.764750
     19          6           0        1.865454    2.087098   -0.239797
     20          1           0        2.616179    2.289255    0.532299
     21          1           0        2.203654    2.572163   -1.159281
     22          1           0        0.935628    2.575825    0.061457
     23          6           0       -3.016989    1.330111    0.263662
     24          1           0       -3.549319    1.890596   -0.510802
     25          1           0       -3.763688    0.839567    0.896350
     26          1           0       -2.472249    2.048224    0.882187
     27          6           0        1.270749   -0.134656    0.830195
     28          1           0        2.025802    0.063496    1.599664
     29          8           0        1.310280   -1.565299    0.729225
     30          8           0        0.414782   -1.973281   -0.288411
 ---------------------------------------------------------------------
                    Distance matrix (angstroms):
                    1          2          3          4          5
     1  C    0.000000
     2  H    1.089947   0.000000
     3  H    1.095741   1.768529   0.000000
     4  H    1.093538   1.770873   1.768032   0.000000
     5  C    1.535170   2.182538   2.181934   2.171486   0.000000
     6  H    2.141598   2.482221   3.063339   2.487468   1.093871
     7  C    3.964339   4.216250   4.298233   4.792477   2.641143
     8  H    4.242808   4.725448   4.556494   4.913156   2.773197
     9  H    4.669979   4.870492   4.805795   5.593470   3.505200
    10  C    4.633747   4.636542   5.223925   5.367651   3.365765
    11  H    5.552917   5.451370   6.071682   6.354305   4.366393
    12  H    3.989015   3.706954   4.657034   4.761686   3.083085
    13  C    5.124195   5.216097   5.894031   5.599320   3.785043
    14  H    4.450749   4.669247   5.285933   4.769895   3.123135
    15  C    5.911009   5.766904   6.798147   6.314444   4.804075
    16  H    6.704791   6.491276   7.526644   7.211427   5.593939
    17  H    6.517862   6.440919   7.461053   6.767907   5.413902
    18  H    5.437018   5.129505   6.375960   5.820484   4.563901
    19  C    2.523707   3.481564   2.798132   2.742644   1.536407
    20  H    2.812204   3.820366   2.642374   3.135001   2.185268
    21  H    2.727062   3.729130   3.093164   2.490132   2.170594
    22  H    3.494196   4.348718   3.826086   3.739334   2.204466
    23  C    6.300115   6.550490   6.967882   6.743626   4.831790
    24  H    6.844793   7.127743   7.587709   7.138764   5.410531
    25  H    7.081809   7.240348   7.708681   7.618985   5.637031
    26  H    6.152987   6.556974   6.691336   6.612852   4.625048
    27  C    2.527301   2.781382   2.787367   3.481174   1.542118
    28  H    2.786533   3.168516   2.599573   3.776167   2.156402
    29  O    2.869358   2.551123   3.165427   3.899025   2.485295
    30  O    3.313579   2.782863   3.973807   4.126146   2.861177
                    6          7          8          9         10
     6  H    0.000000
     7  C    2.831429   0.000000
     8  H    2.971098   1.095054   0.000000
     9  H    3.851307   1.091871   1.760278   0.000000
    10  C    3.048690   1.518235   2.163697   2.147639   0.000000
    11  H    4.104596   2.203303   2.907576   2.332459   1.092866
    12  H    2.710641   2.183835   3.066240   2.797375   1.369065
    13  C    3.112338   2.631296   2.725143   3.451485   1.518560
    14  H    2.329448   2.775761   2.670821   3.786908   2.135865
    15  C    3.946149   3.925666   4.216457   4.660579   2.523805
    16  H    4.837046   4.286946   4.678890   4.806652   2.783687
    17  H    4.465040   4.772691   4.876372   5.568579   3.476823
    18  H    3.656868   4.123424   4.584328   4.896519   2.791663
    19  C    2.151386   3.178928   2.755192   3.972727   4.152872
    20  H    3.071950   3.538254   3.130726   4.083317   4.770982
    21  H    2.505342   4.179079   3.726949   5.035022   4.975329
    22  H    2.506019   2.897891   2.153191   3.704678   3.806886
    23  C    4.303009   3.285879   2.978901   3.877680   2.518298
    24  H    4.756406   4.248463   3.836475   4.923858   3.470318
    25  H    5.155444   3.713600   3.580851   4.052987   2.798508
    26  H    4.308367   3.001346   2.387189   3.513099   2.770111
    27  C    2.153285   1.562261   2.172983   2.147933   2.581010
    28  H    3.050200   2.175871   2.611853   2.321178   3.472518
    29  O    2.811103   2.407843   3.345609   2.715958   2.827780
    30  O    2.619162   2.838665   3.748416   3.400431   2.487903
                   11         12         13         14         15
    11  H    0.000000
    12  H    1.899126   0.000000
    13  C    2.191156   2.329569   0.000000
    14  H    3.073231   2.634818   1.096816   0.000000
    15  C    2.802134   2.757455   1.536265   2.147945   0.000000
    16  H    2.616812   3.100179   2.180397   3.067162   1.095250
    17  H    3.808501   3.774741   2.181170   2.501320   1.093633
    18  H    3.150848   2.460237   2.186366   2.493263   1.093008
    19  C    5.167801   4.295705   4.332732   3.552953   5.580085
    20  H    5.691861   4.924973   5.179178   4.514475   6.491430
    21  H    6.036164   5.028906   4.912129   3.974932   6.029358
    22  H    4.792389   4.285997   3.805493   3.083126   5.182046
    23  C    2.838221   3.696802   1.544203   2.147572   2.530853
    24  H    3.844119   4.502438   2.182989   2.479841   2.768633
    25  H    2.679257   4.005436   2.185719   3.066311   2.787932
    26  H    3.181854   4.050537   2.199793   2.511800   3.495273
    27  C    3.360130   2.379873   3.579924   3.358846   4.668466
    28  H    4.106892   3.365940   4.555777   4.349900   5.716490
    29  O    3.330028   1.997737   4.012953   3.991616   4.709426
    30  O    3.000040   1.180206   3.363276   3.398361   3.656750
                   16         17         18         19         20
    16  H    0.000000
    17  H    1.767396   0.000000
    18  H    1.768493   1.769277   0.000000
    19  C    6.407207   6.023377   5.571228   0.000000
    20  H    7.240755   7.006926   6.489771   1.095713   0.000000
    21  H    6.957941   6.320988   5.963412   1.093215   1.763989
    22  H    5.970426   5.556421   5.383381   1.092787   1.768634
    23  C    2.808973   2.753646   3.492189   4.966362   5.720551
    24  H    3.157273   2.539928   3.763950   5.425110   6.265808
    25  H    2.620919   3.097660   3.807363   5.876598   6.552620
    26  H    3.816112   3.766227   4.351025   4.480628   5.106135
    27  C    5.197794   5.503563   4.518857   2.536680   2.788238
    28  H    6.187112   6.556884   5.600618   2.739397   2.538073
    29  O    5.092132   5.666138   4.315512   3.819323   4.074523
    30  O    4.074246   4.600635   3.064378   4.312017   4.867127
                   21         22         23         24         25
    21  H    0.000000
    22  H    1.760143   0.000000
    23  C    5.551808   4.149201   0.000000
    24  H    5.829387   4.572939   1.094218   0.000000
    25  H    6.544974   5.078898   1.094754   1.769376   0.000000
    26  H    5.128954   3.544797   1.093161   1.767864   1.768860
    27  C    3.486430   2.837247   4.566311   5.397497   5.128259
    28  H    3.733205   3.141076   5.368329   6.234929   5.883463
    29  O    4.634993   4.211316   5.227371   6.090696   5.617514
    30  O    4.961808   4.592173   4.795230   5.540135   5.174494
                   26         27         28         29         30
    26  H    0.000000
    27  C    4.333325   0.000000
    28  H    4.968539   1.096108   0.000000
    29  O    5.233400   1.434746   1.980558   0.000000
    30  O    5.087018   2.316139   3.210712   1.415609   0.000000
 Stoichiometry    C9H19O2(2)
 Framework group  C1[X(C9H19O2)]
 Deg. of freedom    84
 Full point group                 C1      NOp   1
 Largest Abelian subgroup         C1      NOp   1
 Largest concise Abelian subgroup C1      NOp   1
                         Standard orientation:                         
 ---------------------------------------------------------------------
 Center     Atomic      Atomic             Coordinates (Angstroms)
 Number     Number       Type             X           Y           Z
 ---------------------------------------------------------------------
      1          6           0        3.001204   -0.031326   -1.008854
      2          1           0        2.884351   -1.093775   -1.222234
      3          1           0        3.816109    0.081496   -0.285079
      4          1           0        3.302085    0.474652   -1.930419
      5          6           0        1.699169    0.577022   -0.469073
      6          1           0        0.918842    0.422203   -1.219855
      7          6           0       -0.133897    0.239992    1.402268
      8          1           0       -0.246591    1.328353    1.358532
      9          1           0       -0.128628   -0.041991    2.457086
     10          6           0       -1.287521   -0.448777    0.695313
     11          1           0       -1.919727   -1.049586    1.353872
     12          1           0       -0.572111   -1.436202    0.072803
     13          6           0       -2.073627    0.287678   -0.375059
     14          1           0       -1.365638    0.828807   -1.014540
     15          6           0       -2.868067   -0.686838   -1.257836
     16          1           0       -3.580088   -1.263121   -0.657423
     17          1           0       -3.436483   -0.148256   -2.021293
     18          1           0       -2.207488   -1.394891   -1.764750
     19          6           0        1.865454    2.087098   -0.239797
     20          1           0        2.616179    2.289255    0.532299
     21          1           0        2.203654    2.572163   -1.159281
     22          1           0        0.935628    2.575825    0.061457
     23          6           0       -3.016989    1.330111    0.263662
     24          1           0       -3.549319    1.890596   -0.510802
     25          1           0       -3.763688    0.839567    0.896350
     26          1           0       -2.472249    2.048224    0.882187
     27          6           0        1.270749   -0.134656    0.830195
     28          1           0        2.025802    0.063496    1.599664
     29          8           0        1.310280   -1.565299    0.729225
     30          8           0        0.414782   -1.973281   -0.288411
 ---------------------------------------------------------------------
 Rotational constants (GHZ):      1.4762912      0.6736479      0.5871272
 Leave Link  202 at Mon Feb 17 03:03:50 2014, MaxMem= 4026531840 cpu:       0.3
 (Enter /usr/caen/gaussian-09revc/g09/l301.exe)
 Standard basis: 6-311G(2d,d,p) (5D, 7F)
 Ernie: Thresh=  0.10000D-02 Tol=  0.10000D-05 Strict=F.
 There are   312 symmetry adapted basis functions of A   symmetry.
 Integral buffers will be    131072 words long.
 Raffenetti 2 integral format.
 Two-electron integral symmetry is turned on.
   312 basis functions,   504 primitive gaussians,   323 cartesian basis functions
    45 alpha electrons       44 beta electrons
       nuclear repulsion energy       692.7793591648 Hartrees.
 IExCor=  402 DFT=T Ex+Corr=B3LYP ExCW=0 ScaHFX=  0.200000
 ScaDFX=  0.800000  0.720000  1.000000  0.810000 ScalE2=  1.000000  1.000000
 IRadAn=      0 IRanWt=     -1 IRanGd=            0 ICorTp=0
 NAtoms=   30 NActive=   30 NUniq=   30 SFac= 1.00D+00 NAtFMM=   60 NAOKFM=F Big=F
 Leave Link  301 at Mon Feb 17 03:03:51 2014, MaxMem= 4026531840 cpu:       0.6
 (Enter /usr/caen/gaussian-09revc/g09/l302.exe)
 NPDir=0 NMtPBC=     1 NCelOv=     1 NCel=       1 NClECP=     1 NCelD=      1
         NCelK=      1 NCelE2=     1 NClLst=     1 CellRange=     0.0.
 One-electron integrals computed using PRISM.
 NBasis=   312 RedAO= T  NBF=   312
 NBsUse=   312 1.00D-06 NBFU=   312
 Precomputing XC quadrature grid using
 IXCGrd= 2 IRadAn=           0 IRanWt=          -1 IRanGd=           0 AccXCQ= 0.00D+00.
 NRdTot=    1906 NPtTot=      242530 NUsed=      256275 NTot=      256307
 NSgBfM=   323   323   323   323   323 NAtAll=    30    30.
 Leave Link  302 at Mon Feb 17 03:03:52 2014, MaxMem= 4026531840 cpu:       8.8
 (Enter /usr/caen/gaussian-09revc/g09/l303.exe)
 DipDrv:  MaxL=1.
 Leave Link  303 at Mon Feb 17 03:03:53 2014, MaxMem= 4026531840 cpu:       1.6
 (Enter /usr/caen/gaussian-09revc/g09/l401.exe)
 Harris functional with IExCor=  402 diagonalized for initial guess.
 ExpMin= 1.03D-01 ExpMax= 8.59D+03 ExpMxC= 1.30D+03 IAcc=1 IRadAn=         1 AccDes= 0.00D+00
 HarFok:  IExCor=  402 AccDes= 0.00D+00 IRadAn=         1 IDoV= 1
 ScaDFX=  1.000000  1.000000  1.000000  1.000000
 FoFCou: FMM=F IPFlag=           0 FMFlag=      100000 FMFlg1=           0
         NFxFlg=           0 DoJE=T BraDBF=F KetDBF=T FulRan=T
         Omega=  0.000000  0.000000  1.000000  0.000000  0.000000 ICntrl=     500 IOpCl=  0
         NMat0=    1 NMatS0=    1 NMatT0=    0 NMatD0=    1 NMtDS0=    0 NMtDT0=    0
         I1Cent=           4 NGrid=           0.
 Petite list used in FoFCou.
 Harris En= -504.897877878925    
 Initial guess orbital symmetries:
 Alpha Orbitals:
       Occupied  (A) (A) (A) (A) (A) (A) (A) (A) (A) (A) (A) (A)
                 (A) (A) (A) (A) (A) (A) (A) (A) (A) (A) (A) (A)
                 (A) (A) (A) (A) (A) (A) (A) (A) (A) (A) (A) (A)
                 (A) (A) (A) (A) (A) (A) (A) (A) (A)
       Virtual   (A) (A) (A) (A) (A) (A) (A) (A) (A) (A) (A) (A)
                 (A) (A) (A) (A) (A) (A) (A) (A) (A) (A) (A) (A)
                 (A) (A) (A) (A) (A) (A) (A) (A) (A) (A) (A) (A)
                 (A) (A) (A) (A) (A) (A) (A) (A) (A) (A) (A) (A)
                 (A) (A) (A) (A) (A) (A) (A) (A) (A) (A) (A) (A)
                 (A) (A) (A) (A) (A) (A) (A) (A) (A) (A) (A) (A)
                 (A) (A) (A) (A) (A) (A) (A) (A) (A) (A) (A) (A)
                 (A) (A) (A) (A) (A) (A) (A) (A) (A) (A) (A) (A)
                 (A) (A) (A) (A) (A) (A) (A) (A) (A) (A) (A) (A)
                 (A) (A) (A) (A) (A) (A) (A) (A) (A) (A) (A) (A)
                 (A) (A) (A) (A) (A) (A) (A) (A) (A) (A) (A) (A)
                 (A) (A) (A) (A) (A) (A) (A) (A) (A) (A) (A) (A)
                 (A) (A) (A) (A) (A) (A) (A) (A) (A) (A) (A) (A)
                 (A) (A) (A) (A) (A) (A) (A) (A) (A) (A) (A) (A)
                 (A) (A) (A) (A) (A) (A) (A) (A) (A) (A) (A) (A)
                 (A) (A) (A) (A) (A) (A) (A) (A) (A) (A) (A) (A)
                 (A) (A) (A) (A) (A) (A) (A) (A) (A) (A) (A) (A)
                 (A) (A) (A) (A) (A) (A) (A) (A) (A) (A) (A) (A)
                 (A) (A) (A) (A) (A) (A) (A) (A) (A) (A) (A) (A)
                 (A) (A) (A) (A) (A) (A) (A) (A) (A) (A) (A) (A)
                 (A) (A) (A) (A) (A) (A) (A) (A) (A) (A) (A) (A)
                 (A) (A) (A) (A) (A) (A) (A) (A) (A) (A) (A) (A)
                 (A) (A) (A)
 Beta  Orbitals:
       Occupied  (A) (A) (A) (A) (A) (A) (A) (A) (A) (A) (A) (A)
                 (A) (A) (A) (A) (A) (A) (A) (A) (A) (A) (A) (A)
                 (A) (A) (A) (A) (A) (A) (A) (A) (A) (A) (A) (A)
                 (A) (A) (A) (A) (A) (A) (A) (A)
       Virtual   (A) (A) (A) (A) (A) (A) (A) (A) (A) (A) (A) (A)
                 (A) (A) (A) (A) (A) (A) (A) (A) (A) (A) (A) (A)
                 (A) (A) (A) (A) (A) (A) (A) (A) (A) (A) (A) (A)
                 (A) (A) (A) (A) (A) (A) (A) (A) (A) (A) (A) (A)
                 (A) (A) (A) (A) (A) (A) (A) (A) (A) (A) (A) (A)
                 (A) (A) (A) (A) (A) (A) (A) (A) (A) (A) (A) (A)
                 (A) (A) (A) (A) (A) (A) (A) (A) (A) (A) (A) (A)
                 (A) (A) (A) (A) (A) (A) (A) (A) (A) (A) (A) (A)
                 (A) (A) (A) (A) (A) (A) (A) (A) (A) (A) (A) (A)
                 (A) (A) (A) (A) (A) (A) (A) (A) (A) (A) (A) (A)
                 (A) (A) (A) (A) (A) (A) (A) (A) (A) (A) (A) (A)
                 (A) (A) (A) (A) (A) (A) (A) (A) (A) (A) (A) (A)
                 (A) (A) (A) (A) (A) (A) (A) (A) (A) (A) (A) (A)
                 (A) (A) (A) (A) (A) (A) (A) (A) (A) (A) (A) (A)
                 (A) (A) (A) (A) (A) (A) (A) (A) (A) (A) (A) (A)
                 (A) (A) (A) (A) (A) (A) (A) (A) (A) (A) (A) (A)
                 (A) (A) (A) (A) (A) (A) (A) (A) (A) (A) (A) (A)
                 (A) (A) (A) (A) (A) (A) (A) (A) (A) (A) (A) (A)
                 (A) (A) (A) (A) (A) (A) (A) (A) (A) (A) (A) (A)
                 (A) (A) (A) (A) (A) (A) (A) (A) (A) (A) (A) (A)
                 (A) (A) (A) (A) (A) (A) (A) (A) (A) (A) (A) (A)
                 (A) (A) (A) (A) (A) (A) (A) (A) (A) (A) (A) (A)
                 (A) (A) (A) (A)
 The electronic state of the initial guess is 2-A.
 Initial guess <Sx>= 0.0000 <Sy>= 0.0000 <Sz>= 0.5000 <S**2>= 0.7500 S= 0.5000
 Leave Link  401 at Mon Feb 17 03:03:55 2014, MaxMem= 4026531840 cpu:      13.8
 (Enter /usr/caen/gaussian-09revc/g09/l502.exe)
 UHF open shell SCF:
 Requested convergence on RMS density matrix=1.00D-08 within 128 cycles.
 Requested convergence on MAX density matrix=1.00D-06.
 Requested convergence on             energy=1.00D-06.
 No special actions if energy rises.
 Using DIIS extrapolation, IDIIS=  1040.
 Integral symmetry usage will be decided dynamically.
       255992 words used for storage of precomputed grid.
 Keep R1 and R2 ints in memory in canonical form, NReq=2755660723.
 IEnd=      592150 IEndB=      592150 NGot=  4026531840 MDV=  1287998353
 LenX=  1287998353 LenY=  1287893583
 Symmetry not used in FoFDir.
 MinBra= 0 MaxBra= 2 Meth= 1.
 IRaf=       0 NMat=   1 IRICut=       1 DoRegI=T DoRafI=F ISym2E= 0 JSym2E=0.
 Integral accuracy reduced to 1.0D-05 until final iterations.

 Cycle   1  Pass 0  IDiag  1:
 E= -504.451800305958    
 DIIS: error= 3.33D-02 at cycle   1 NSaved=   1.
 NSaved= 1 IEnMin= 1 EnMin= -504.451800305958     IErMin= 1 ErrMin= 3.33D-02
 ErrMax= 3.33D-02 EMaxC= 1.00D-01 BMatC= 1.54D+00 BMatP= 1.54D+00
 IDIUse=3 WtCom= 6.67D-01 WtEn= 3.33D-01
 Coeff-Com:  0.100D+01
 Coeff-En:   0.100D+01
 Coeff:      0.100D+01
 Gap=     0.186 Goal=   None    Shift=    0.000
 Gap=     0.173 Goal=   None    Shift=    0.000
 GapD=    0.173 DampG=1.000 DampE=0.500 DampFc=0.5000 IDamp=-1.
 Damping current iteration by 5.00D-01
 RMSDP=3.34D-03 MaxDP=1.22D-01              OVMax= 2.38D-01

 Cycle   2  Pass 0  IDiag  1:
 E= -504.602415541498     Delta-E=       -0.150615235540 Rises=F Damp=T
 DIIS: error= 7.04D-03 at cycle   2 NSaved=   2.
 NSaved= 2 IEnMin= 2 EnMin= -504.602415541498     IErMin= 2 ErrMin= 7.04D-03
 ErrMax= 7.04D-03 EMaxC= 1.00D-01 BMatC= 1.28D-01 BMatP= 1.54D+00
 IDIUse=3 WtCom= 9.30D-01 WtEn= 7.04D-02
 Coeff-Com:  0.104D+00 0.896D+00
 Coeff-En:   0.204D+00 0.796D+00
 Coeff:      0.111D+00 0.889D+00
 Gap=     0.292 Goal=   None    Shift=    0.000
 Gap=     0.232 Goal=   None    Shift=    0.000
 RMSDP=1.03D-03 MaxDP=3.46D-02 DE=-1.51D-01 OVMax= 2.24D-01

 Cycle   3  Pass 0  IDiag  1:
 E= -504.806381114393     Delta-E=       -0.203965572895 Rises=F Damp=F
 DIIS: error= 1.33D-02 at cycle   3 NSaved=   3.
 NSaved= 3 IEnMin= 3 EnMin= -504.806381114393     IErMin= 2 ErrMin= 7.04D-03
 ErrMax= 1.33D-02 EMaxC= 1.00D-01 BMatC= 1.22D-01 BMatP= 1.28D-01
 IDIUse=3 WtCom= 8.67D-01 WtEn= 1.33D-01
 Coeff-Com:  0.575D-02 0.492D+00 0.503D+00
 Coeff-En:   0.000D+00 0.000D+00 0.100D+01
 Coeff:      0.499D-02 0.426D+00 0.569D+00
 Gap=     0.259 Goal=   None    Shift=    0.000
 Gap=     0.144 Goal=   None    Shift=    0.000
 RMSDP=7.21D-04 MaxDP=3.04D-02 DE=-2.04D-01 OVMax= 1.43D-01

 Cycle   4  Pass 0  IDiag  1:
 E= -504.821206979034     Delta-E=       -0.014825864641 Rises=F Damp=F
 DIIS: error= 5.31D-03 at cycle   4 NSaved=   4.
 NSaved= 4 IEnMin= 4 EnMin= -504.821206979034     IErMin= 4 ErrMin= 5.31D-03
 ErrMax= 5.31D-03 EMaxC= 1.00D-01 BMatC= 5.94D-02 BMatP= 1.22D-01
 IDIUse=3 WtCom= 9.47D-01 WtEn= 5.31D-02
 Coeff-Com: -0.105D-01 0.120D+00 0.413D+00 0.477D+00
 Coeff-En:   0.000D+00 0.000D+00 0.339D+00 0.661D+00
 Coeff:     -0.997D-02 0.114D+00 0.409D+00 0.487D+00
 Gap=     0.251 Goal=   None    Shift=    0.000
 Gap=     0.138 Goal=   None    Shift=    0.000
 RMSDP=2.66D-04 MaxDP=1.32D-02 DE=-1.48D-02 OVMax= 3.34D-02

 Cycle   5  Pass 0  IDiag  1:
 E= -504.832298240420     Delta-E=       -0.011091261386 Rises=F Damp=F
 DIIS: error= 1.10D-03 at cycle   5 NSaved=   5.
 NSaved= 5 IEnMin= 5 EnMin= -504.832298240420     IErMin= 5 ErrMin= 1.10D-03
 ErrMax= 1.10D-03 EMaxC= 1.00D-01 BMatC= 1.98D-03 BMatP= 5.94D-02
 IDIUse=3 WtCom= 9.89D-01 WtEn= 1.10D-02
 Coeff-Com: -0.516D-02 0.245D-01 0.190D+00 0.243D+00 0.547D+00
 Coeff-En:   0.000D+00 0.000D+00 0.000D+00 0.000D+00 0.100D+01
 Coeff:     -0.510D-02 0.242D-01 0.188D+00 0.240D+00 0.552D+00
 Gap=     0.242 Goal=   None    Shift=    0.000
 Gap=     0.137 Goal=   None    Shift=    0.000
 RMSDP=8.32D-05 MaxDP=3.79D-03 DE=-1.11D-02 OVMax= 8.90D-03

 Cycle   6  Pass 0  IDiag  1:
 E= -504.832631973575     Delta-E=       -0.000333733155 Rises=F Damp=F
 DIIS: error= 8.48D-04 at cycle   6 NSaved=   6.
 NSaved= 6 IEnMin= 6 EnMin= -504.832631973575     IErMin= 6 ErrMin= 8.48D-04
 ErrMax= 8.48D-04 EMaxC= 1.00D-01 BMatC= 8.20D-04 BMatP= 1.98D-03
 IDIUse=3 WtCom= 9.92D-01 WtEn= 8.48D-03
 Coeff-Com: -0.141D-03-0.107D-01 0.380D-01 0.387D-01 0.383D+00 0.551D+00
 Coeff-En:   0.000D+00 0.000D+00 0.000D+00 0.000D+00 0.200D+00 0.800D+00
 Coeff:     -0.140D-03-0.106D-01 0.377D-01 0.383D-01 0.382D+00 0.553D+00
 Gap=     0.243 Goal=   None    Shift=    0.000
 Gap=     0.139 Goal=   None    Shift=    0.000
 RMSDP=4.18D-05 MaxDP=1.85D-03 DE=-3.34D-04 OVMax= 1.06D-02

 Cycle   7  Pass 0  IDiag  1:
 E= -504.832805077948     Delta-E=       -0.000173104373 Rises=F Damp=F
 DIIS: error= 2.38D-04 at cycle   7 NSaved=   7.
 NSaved= 7 IEnMin= 7 EnMin= -504.832805077948     IErMin= 7 ErrMin= 2.38D-04
 ErrMax= 2.38D-04 EMaxC= 1.00D-01 BMatC= 8.04D-05 BMatP= 8.20D-04
 IDIUse=3 WtCom= 9.98D-01 WtEn= 2.38D-03
 Coeff-Com:  0.125D-02-0.866D-02-0.146D-01-0.351D-01 0.650D-01 0.246D+00
 Coeff-Com:  0.746D+00
 Coeff-En:   0.000D+00 0.000D+00 0.000D+00 0.000D+00 0.000D+00 0.000D+00
 Coeff-En:   0.100D+01
 Coeff:      0.125D-02-0.864D-02-0.145D-01-0.350D-01 0.649D-01 0.246D+00
 Coeff:      0.747D+00
 Gap=     0.244 Goal=   None    Shift=    0.000
 Gap=     0.140 Goal=   None    Shift=    0.000
 RMSDP=2.35D-05 MaxDP=1.13D-03 DE=-1.73D-04 OVMax= 6.53D-03

 Cycle   8  Pass 0  IDiag  1:
 E= -504.832838230146     Delta-E=       -0.000033152198 Rises=F Damp=F
 DIIS: error= 1.03D-04 at cycle   8 NSaved=   8.
 NSaved= 8 IEnMin= 8 EnMin= -504.832838230146     IErMin= 8 ErrMin= 1.03D-04
 ErrMax= 1.03D-04 EMaxC= 1.00D-01 BMatC= 2.05D-05 BMatP= 8.04D-05
 IDIUse=3 WtCom= 9.99D-01 WtEn= 1.03D-03
 Coeff-Com:  0.820D-03-0.313D-03-0.174D-01-0.336D-01-0.930D-01-0.552D-01
 Coeff-Com:  0.393D+00 0.805D+00
 Coeff-En:   0.000D+00 0.000D+00 0.000D+00 0.000D+00 0.000D+00 0.000D+00
 Coeff-En:   0.000D+00 0.100D+01
 Coeff:      0.819D-03-0.313D-03-0.174D-01-0.336D-01-0.929D-01-0.552D-01
 Coeff:      0.393D+00 0.805D+00
 Gap=     0.244 Goal=   None    Shift=    0.000
 Gap=     0.140 Goal=   None    Shift=    0.000
 RMSDP=1.66D-05 MaxDP=5.43D-04 DE=-3.32D-05 OVMax= 6.12D-03

 Cycle   9  Pass 0  IDiag  1:
 E= -504.832850194234     Delta-E=       -0.000011964088 Rises=F Damp=F
 DIIS: error= 3.61D-05 at cycle   9 NSaved=   9.
 NSaved= 9 IEnMin= 9 EnMin= -504.832850194234     IErMin= 9 ErrMin= 3.61D-05
 ErrMax= 3.61D-05 EMaxC= 1.00D-01 BMatC= 1.38D-06 BMatP= 2.05D-05
 IDIUse=1 WtCom= 1.00D+00 WtEn= 0.00D+00
 Coeff-Com: -0.852D-04 0.939D-03 0.304D-03-0.856D-03-0.187D-01-0.346D-01
 Coeff-Com: -0.512D-01 0.102D+00 0.100D+01
 Coeff:     -0.852D-04 0.939D-03 0.304D-03-0.856D-03-0.187D-01-0.346D-01
 Coeff:     -0.512D-01 0.102D+00 0.100D+01
 Gap=     0.244 Goal=   None    Shift=    0.000
 Gap=     0.140 Goal=   None    Shift=    0.000
 RMSDP=6.54D-06 MaxDP=2.71D-04 DE=-1.20D-05 OVMax= 2.41D-03

 Initial convergence to 1.0D-05 achieved.  Increase integral accuracy.
 Cycle  10  Pass 1  IDiag  1:
 E= -504.832914366105     Delta-E=       -0.000064171871 Rises=F Damp=F
 DIIS: error= 2.81D-05 at cycle   1 NSaved=   1.
 NSaved= 1 IEnMin= 1 EnMin= -504.832914366105     IErMin= 1 ErrMin= 2.81D-05
 ErrMax= 2.81D-05 EMaxC= 1.00D-01 BMatC= 1.40D-06 BMatP= 1.40D-06
 IDIUse=1 WtCom= 1.00D+00 WtEn= 0.00D+00
 Coeff-Com:  0.100D+01
 Coeff:      0.100D+01
 Gap=     0.244 Goal=   None    Shift=    0.000
 Gap=     0.140 Goal=   None    Shift=    0.000
 RMSDP=6.54D-06 MaxDP=2.71D-04 DE=-6.42D-05 OVMax= 5.44D-04

 Cycle  11  Pass 1  IDiag  1:
 E= -504.832914890378     Delta-E=       -0.000000524273 Rises=F Damp=F
 DIIS: error= 1.25D-05 at cycle   2 NSaved=   2.
 NSaved= 2 IEnMin= 2 EnMin= -504.832914890378     IErMin= 2 ErrMin= 1.25D-05
 ErrMax= 1.25D-05 EMaxC= 1.00D-01 BMatC= 3.38D-07 BMatP= 1.40D-06
 IDIUse=1 WtCom= 1.00D+00 WtEn= 0.00D+00
 Coeff-Com:  0.235D+00 0.765D+00
 Coeff:      0.235D+00 0.765D+00
 Gap=     0.244 Goal=   None    Shift=    0.000
 Gap=     0.140 Goal=   None    Shift=    0.000
 RMSDP=1.36D-06 MaxDP=8.06D-05 DE=-5.24D-07 OVMax= 3.39D-04

 Cycle  12  Pass 1  IDiag  1:
 E= -504.832914954272     Delta-E=       -0.000000063893 Rises=F Damp=F
 DIIS: error= 9.62D-06 at cycle   3 NSaved=   3.
 NSaved= 3 IEnMin= 3 EnMin= -504.832914954272     IErMin= 3 ErrMin= 9.62D-06
 ErrMax= 9.62D-06 EMaxC= 1.00D-01 BMatC= 2.44D-07 BMatP= 3.38D-07
 IDIUse=1 WtCom= 1.00D+00 WtEn= 0.00D+00
 Coeff-Com: -0.341D-01 0.459D+00 0.575D+00
 Coeff:     -0.341D-01 0.459D+00 0.575D+00
 Gap=     0.244 Goal=   None    Shift=    0.000
 Gap=     0.140 Goal=   None    Shift=    0.000
 RMSDP=8.17D-07 MaxDP=3.44D-05 DE=-6.39D-08 OVMax= 1.44D-04

 Cycle  13  Pass 1  IDiag  1:
 E= -504.832915018828     Delta-E=       -0.000000064557 Rises=F Damp=F
 DIIS: error= 5.41D-06 at cycle   4 NSaved=   4.
 NSaved= 4 IEnMin= 4 EnMin= -504.832915018828     IErMin= 4 ErrMin= 5.41D-06
 ErrMax= 5.41D-06 EMaxC= 1.00D-01 BMatC= 3.00D-08 BMatP= 2.44D-07
 IDIUse=1 WtCom= 1.00D+00 WtEn= 0.00D+00
 Coeff-Com: -0.375D-01 0.215D+00 0.326D+00 0.496D+00
 Coeff:     -0.375D-01 0.215D+00 0.326D+00 0.496D+00
 Gap=     0.244 Goal=   None    Shift=    0.000
 Gap=     0.140 Goal=   None    Shift=    0.000
 RMSDP=3.31D-07 MaxDP=1.50D-05 DE=-6.46D-08 OVMax= 9.97D-05

 Cycle  14  Pass 1  IDiag  1:
 E= -504.832915028593     Delta-E=       -0.000000009765 Rises=F Damp=F
 DIIS: error= 2.94D-06 at cycle   5 NSaved=   5.
 NSaved= 5 IEnMin= 5 EnMin= -504.832915028593     IErMin= 5 ErrMin= 2.94D-06
 ErrMax= 2.94D-06 EMaxC= 1.00D-01 BMatC= 8.16D-09 BMatP= 3.00D-08
 IDIUse=1 WtCom= 1.00D+00 WtEn= 0.00D+00
 Coeff-Com:  0.125D-02-0.153D+00-0.179D+00 0.304D+00 0.103D+01
 Coeff:      0.125D-02-0.153D+00-0.179D+00 0.304D+00 0.103D+01
 Gap=     0.244 Goal=   None    Shift=    0.000
 Gap=     0.140 Goal=   None    Shift=    0.000
 RMSDP=4.87D-07 MaxDP=2.26D-05 DE=-9.76D-09 OVMax= 1.86D-04

 Cycle  15  Pass 1  IDiag  1:
 E= -504.832915035667     Delta-E=       -0.000000007075 Rises=F Damp=F
 DIIS: error= 1.51D-06 at cycle   6 NSaved=   6.
 NSaved= 6 IEnMin= 6 EnMin= -504.832915035667     IErMin= 6 ErrMin= 1.51D-06
 ErrMax= 1.51D-06 EMaxC= 1.00D-01 BMatC= 2.80D-09 BMatP= 8.16D-09
 IDIUse=1 WtCom= 1.00D+00 WtEn= 0.00D+00
 Coeff-Com:  0.894D-02-0.148D+00-0.194D+00 0.806D-01 0.664D+00 0.588D+00
 Coeff:      0.894D-02-0.148D+00-0.194D+00 0.806D-01 0.664D+00 0.588D+00
 Gap=     0.244 Goal=   None    Shift=    0.000
 Gap=     0.140 Goal=   None    Shift=    0.000
 RMSDP=1.85D-07 MaxDP=7.41D-06 DE=-7.07D-09 OVMax= 5.54D-05

 Cycle  16  Pass 1  IDiag  1:
 E= -504.832915036850     Delta-E=       -0.000000001183 Rises=F Damp=F
 DIIS: error= 8.34D-07 at cycle   7 NSaved=   7.
 NSaved= 7 IEnMin= 7 EnMin= -504.832915036850     IErMin= 7 ErrMin= 8.34D-07
 ErrMax= 8.34D-07 EMaxC= 1.00D-01 BMatC= 4.18D-10 BMatP= 2.80D-09
 IDIUse=1 WtCom= 1.00D+00 WtEn= 0.00D+00
 Coeff-Com:  0.471D-02-0.566D-01-0.795D-01-0.698D-02 0.205D+00 0.339D+00
 Coeff-Com:  0.595D+00
 Coeff:      0.471D-02-0.566D-01-0.795D-01-0.698D-02 0.205D+00 0.339D+00
 Coeff:      0.595D+00
 Gap=     0.244 Goal=   None    Shift=    0.000
 Gap=     0.140 Goal=   None    Shift=    0.000
 RMSDP=5.85D-08 MaxDP=2.07D-06 DE=-1.18D-09 OVMax= 2.28D-05

 Cycle  17  Pass 1  IDiag  1:
 E= -504.832915036998     Delta-E=       -0.000000000147 Rises=F Damp=F
 DIIS: error= 1.91D-07 at cycle   8 NSaved=   8.
 NSaved= 8 IEnMin= 8 EnMin= -504.832915036998     IErMin= 8 ErrMin= 1.91D-07
 ErrMax= 1.91D-07 EMaxC= 1.00D-01 BMatC= 7.42D-11 BMatP= 4.18D-10
 IDIUse=1 WtCom= 1.00D+00 WtEn= 0.00D+00
 Coeff-Com:  0.126D-02-0.956D-02-0.162D-01-0.154D-01 0.154D-01 0.804D-01
 Coeff-Com:  0.336D+00 0.608D+00
 Coeff:      0.126D-02-0.956D-02-0.162D-01-0.154D-01 0.154D-01 0.804D-01
 Coeff:      0.336D+00 0.608D+00
 Gap=     0.244 Goal=   None    Shift=    0.000
 Gap=     0.140 Goal=   None    Shift=    0.000
 RMSDP=1.95D-08 MaxDP=6.94D-07 DE=-1.47D-10 OVMax= 5.43D-06

 Cycle  18  Pass 1  IDiag  1:
 E= -504.832915037016     Delta-E=       -0.000000000018 Rises=F Damp=F
 DIIS: error= 6.28D-08 at cycle   9 NSaved=   9.
 NSaved= 9 IEnMin= 9 EnMin= -504.832915037016     IErMin= 9 ErrMin= 6.28D-08
 ErrMax= 6.28D-08 EMaxC= 1.00D-01 BMatC= 7.23D-12 BMatP= 7.42D-11
 IDIUse=1 WtCom= 1.00D+00 WtEn= 0.00D+00
 Coeff-Com: -0.265D-03 0.588D-02 0.662D-02-0.545D-02-0.265D-01-0.337D-01
 Coeff-Com:  0.640D-01 0.250D+00 0.739D+00
 Coeff:     -0.265D-03 0.588D-02 0.662D-02-0.545D-02-0.265D-01-0.337D-01
 Coeff:      0.640D-01 0.250D+00 0.739D+00
 Gap=     0.244 Goal=   None    Shift=    0.000
 Gap=     0.140 Goal=   None    Shift=    0.000
 RMSDP=6.99D-09 MaxDP=2.58D-07 DE=-1.82D-11 OVMax= 2.14D-06

 SCF Done:  E(UB3LYP) =  -504.832915037     A.U. after   18 cycles
             Convg  =    0.6991D-08             -V/T =  2.0043
 <Sx>= 0.0000 <Sy>= 0.0000 <Sz>= 0.5000 <S**2>= 0.7564 S= 0.5032
 <L.S>= 0.000000000000E+00
 KE= 5.026781125374D+02 PE=-2.561514306909D+03 EE= 8.612239201696D+02
 Annihilation of the first spin contaminant:
 S**2 before annihilation     0.7564,   after     0.7500
 Leave Link  502 at Mon Feb 17 03:07:15 2014, MaxMem= 4026531840 cpu:    1501.1
 (Enter /usr/caen/gaussian-09revc/g09/l801.exe)
 Range of M.O.s used for correlation:     1   312
 NBasis=   312 NAE=    45 NBE=    44 NFC=     0 NFV=     0
 NROrb=    312 NOA=    45 NOB=    44 NVA=   267 NVB=   268
 Leave Link  801 at Mon Feb 17 03:07:15 2014, MaxMem= 4026531840 cpu:       1.1
 (Enter /usr/caen/gaussian-09revc/g09/l1101.exe)
 Using compressed storage, NAtomX=    30.
 Will process  31 centers per pass.
 Leave Link 1101 at Mon Feb 17 03:07:17 2014, MaxMem= 4026531840 cpu:      10.0
 (Enter /usr/caen/gaussian-09revc/g09/l1102.exe)
 Symmetrizing basis deriv contribution to polar:
 IMax=3 JMax=2 DiffMx= 0.00D+00
 Leave Link 1102 at Mon Feb 17 03:07:18 2014, MaxMem= 4026531840 cpu:       1.1
 (Enter /usr/caen/gaussian-09revc/g09/l1110.exe)
 Forming Gx(P) for the SCF density, NAtomX=    30.
 Integral derivatives from FoFDir/FoFCou, PRISM(SPDF).
 Do as many integral derivatives as possible in FoFDir.
 G2DrvN: MDV=    4026531496.
 G2DrvN: will do    31 centers at a time, making    1 passes doing MaxLOS=2.
 Calling FoFCou, ICntrl=  3107 FMM=F I1Cent=   0 AccDes= 0.00D+00.
 FoFCou: FMM=F IPFlag=           0 FMFlag=      100000 FMFlg1=           0
         NFxFlg=           0 DoJE=F BraDBF=F KetDBF=F FulRan=T
         Omega=  0.000000  0.000000  1.000000  0.000000  0.000000 ICntrl=    3107 IOpCl=  1
         NMat0=    1 NMatS0=    1 NMatT0=    0 NMatD0=    1 NMtDS0=    0 NMtDT0=    0
         I1Cent=           0 NGrid=           0.
 Symmetry not used in FoFCou.
 FoFDir/FoFCou used for L=0 through L=2.
 End of G2Drv Frequency-dependent properties file   721 does not exist.
 End of G2Drv Frequency-dependent properties file   722 does not exist.
 Leave Link 1110 at Mon Feb 17 03:11:03 2014, MaxMem= 4026531840 cpu:    1736.3
 (Enter /usr/caen/gaussian-09revc/g09/l1002.exe)
 Minotr:  UHF open shell wavefunction.
          IDoAtm=111111111111111111111111111111
          Direct CPHF calculation.
          Differentiating once with respect to nuclear coordinates.
          Requested convergence is 1.0D-06 RMS, and 1.0D-05 maximum.
          Secondary convergence is 1.0D-12 RMS, and 1.0D-12 maximum.
          NewPWx=T KeepS1=F KeepF1=F KeepIn=T MapXYZ=F SortEE=F KeepMc=T.
          MDV=    4026531536 using IRadAn=       2.
 Generate precomputed XC quadrature information.
          Keep R1 and R2 ints in memory in canonical form, NReq=2738891857.
 Symmetry not used in FoFDir.
 MinBra= 0 MaxBra= 2 Meth= 1.
 IRaf=       0 NMat=   1 IRICut=       1 DoRegI=T DoRafI=F ISym2E= 0 JSym2E=0.
          Solving linear equations simultaneously, MaxMat=       0.
          There are    93 degrees of freedom in the 1st order CPHF.  IDoFFX=5.
     87 vectors produced by pass  0 Test12= 2.56D-10 1.08D-07 XBig12= 2.05D-01 1.73D-01.
 AX will form    87 AO Fock derivatives at one time.
     87 vectors produced by pass  1 Test12= 2.56D-10 1.08D-07 XBig12= 2.62D-02 3.26D-02.
     87 vectors produced by pass  2 Test12= 2.56D-10 1.08D-07 XBig12= 1.35D-04 1.57D-03.
     87 vectors produced by pass  3 Test12= 2.56D-10 1.08D-07 XBig12= 7.59D-07 8.66D-05.
     72 vectors produced by pass  4 Test12= 2.56D-10 1.08D-07 XBig12= 4.38D-09 5.58D-06.
     13 vectors produced by pass  5 Test12= 2.56D-10 1.08D-07 XBig12= 1.85D-11 2.84D-07.
 Inverted reduced A of dimension   433 with in-core refinement.
 End of Minotr Frequency-dependent properties file   721 does not exist.
 End of Minotr Frequency-dependent properties file   722 does not exist.
 Leave Link 1002 at Mon Feb 17 03:18:54 2014, MaxMem= 4026531840 cpu:    3292.9
 (Enter /usr/caen/gaussian-09revc/g09/l601.exe)
 Copying SCF densities to generalized density rwf, IOpCl= 1 IROHF=0.

 **********************************************************************

            Population analysis using the SCF density.

 **********************************************************************

 Orbital symmetries:
 Alpha Orbitals:
       Occupied  (A) (A) (A) (A) (A) (A) (A) (A) (A) (A) (A) (A)
                 (A) (A) (A) (A) (A) (A) (A) (A) (A) (A) (A) (A)
                 (A) (A) (A) (A) (A) (A) (A) (A) (A) (A) (A) (A)
                 (A) (A) (A) (A) (A) (A) (A) (A) (A)
       Virtual   (A) (A) (A) (A) (A) (A) (A) (A) (A) (A) (A) (A)
                 (A) (A) (A) (A) (A) (A) (A) (A) (A) (A) (A) (A)
                 (A) (A) (A) (A) (A) (A) (A) (A) (A) (A) (A) (A)
                 (A) (A) (A) (A) (A) (A) (A) (A) (A) (A) (A) (A)
                 (A) (A) (A) (A) (A) (A) (A) (A) (A) (A) (A) (A)
                 (A) (A) (A) (A) (A) (A) (A) (A) (A) (A) (A) (A)
                 (A) (A) (A) (A) (A) (A) (A) (A) (A) (A) (A) (A)
                 (A) (A) (A) (A) (A) (A) (A) (A) (A) (A) (A) (A)
                 (A) (A) (A) (A) (A) (A) (A) (A) (A) (A) (A) (A)
                 (A) (A) (A) (A) (A) (A) (A) (A) (A) (A) (A) (A)
                 (A) (A) (A) (A) (A) (A) (A) (A) (A) (A) (A) (A)
                 (A) (A) (A) (A) (A) (A) (A) (A) (A) (A) (A) (A)
                 (A) (A) (A) (A) (A) (A) (A) (A) (A) (A) (A) (A)
                 (A) (A) (A) (A) (A) (A) (A) (A) (A) (A) (A) (A)
                 (A) (A) (A) (A) (A) (A) (A) (A) (A) (A) (A) (A)
                 (A) (A) (A) (A) (A) (A) (A) (A) (A) (A) (A) (A)
                 (A) (A) (A) (A) (A) (A) (A) (A) (A) (A) (A) (A)
                 (A) (A) (A) (A) (A) (A) (A) (A) (A) (A) (A) (A)
                 (A) (A) (A) (A) (A) (A) (A) (A) (A) (A) (A) (A)
                 (A) (A) (A) (A) (A) (A) (A) (A) (A) (A) (A) (A)
                 (A) (A) (A) (A) (A) (A) (A) (A) (A) (A) (A) (A)
                 (A) (A) (A) (A) (A) (A) (A) (A) (A) (A) (A) (A)
                 (A) (A) (A)
 Beta  Orbitals:
       Occupied  (A) (A) (A) (A) (A) (A) (A) (A) (A) (A) (A) (A)
                 (A) (A) (A) (A) (A) (A) (A) (A) (A) (A) (A) (A)
                 (A) (A) (A) (A) (A) (A) (A) (A) (A) (A) (A) (A)
                 (A) (A) (A) (A) (A) (A) (A) (A)
       Virtual   (A) (A) (A) (A) (A) (A) (A) (A) (A) (A) (A) (A)
                 (A) (A) (A) (A) (A) (A) (A) (A) (A) (A) (A) (A)
                 (A) (A) (A) (A) (A) (A) (A) (A) (A) (A) (A) (A)
                 (A) (A) (A) (A) (A) (A) (A) (A) (A) (A) (A) (A)
                 (A) (A) (A) (A) (A) (A) (A) (A) (A) (A) (A) (A)
                 (A) (A) (A) (A) (A) (A) (A) (A) (A) (A) (A) (A)
                 (A) (A) (A) (A) (A) (A) (A) (A) (A) (A) (A) (A)
                 (A) (A) (A) (A) (A) (A) (A) (A) (A) (A) (A) (A)
                 (A) (A) (A) (A) (A) (A) (A) (A) (A) (A) (A) (A)
                 (A) (A) (A) (A) (A) (A) (A) (A) (A) (A) (A) (A)
                 (A) (A) (A) (A) (A) (A) (A) (A) (A) (A) (A) (A)
                 (A) (A) (A) (A) (A) (A) (A) (A) (A) (A) (A) (A)
                 (A) (A) (A) (A) (A) (A) (A) (A) (A) (A) (A) (A)
                 (A) (A) (A) (A) (A) (A) (A) (A) (A) (A) (A) (A)
                 (A) (A) (A) (A) (A) (A) (A) (A) (A) (A) (A) (A)
                 (A) (A) (A) (A) (A) (A) (A) (A) (A) (A) (A) (A)
                 (A) (A) (A) (A) (A) (A) (A) (A) (A) (A) (A) (A)
                 (A) (A) (A) (A) (A) (A) (A) (A) (A) (A) (A) (A)
                 (A) (A) (A) (A) (A) (A) (A) (A) (A) (A) (A) (A)
                 (A) (A) (A) (A) (A) (A) (A) (A) (A) (A) (A) (A)
                 (A) (A) (A) (A) (A) (A) (A) (A) (A) (A) (A) (A)
                 (A) (A) (A) (A) (A) (A) (A) (A) (A) (A) (A) (A)
                 (A) (A) (A) (A)
 The electronic state is 2-A.
 Alpha  occ. eigenvalues --  -19.17883 -19.16405 -10.23345 -10.18973 -10.18801
 Alpha  occ. eigenvalues --  -10.18470 -10.18052 -10.16965 -10.16724 -10.16384
 Alpha  occ. eigenvalues --  -10.15462  -1.12497  -0.88989  -0.83293  -0.80145
 Alpha  occ. eigenvalues --   -0.76321  -0.69420  -0.68838  -0.67013  -0.62541
 Alpha  occ. eigenvalues --   -0.58149  -0.57127  -0.52476  -0.48283  -0.47077
 Alpha  occ. eigenvalues --   -0.46578  -0.45798  -0.43963  -0.43261  -0.42300
 Alpha  occ. eigenvalues --   -0.41162  -0.39738  -0.39559  -0.39002  -0.38890
 Alpha  occ. eigenvalues --   -0.37025  -0.35859  -0.35035  -0.34666  -0.34510
 Alpha  occ. eigenvalues --   -0.33395  -0.32571  -0.32191  -0.25992  -0.21609
 Alpha virt. eigenvalues --    0.02763   0.03883   0.04811   0.04991   0.06431
 Alpha virt. eigenvalues --    0.07519   0.08114   0.09101   0.09767   0.10492
 Alpha virt. eigenvalues --    0.11218   0.12550   0.13086   0.14097   0.14275
 Alpha virt. eigenvalues --    0.14593   0.15297   0.15408   0.15901   0.18197
 Alpha virt. eigenvalues --    0.18610   0.19149   0.20449   0.20861   0.21968
 Alpha virt. eigenvalues --    0.22926   0.24921   0.25060   0.26423   0.28045
 Alpha virt. eigenvalues --    0.29249   0.30136   0.31477   0.33387   0.33635
 Alpha virt. eigenvalues --    0.34236   0.35968   0.39621   0.40374   0.41948
 Alpha virt. eigenvalues --    0.42556   0.42763   0.43786   0.44295   0.47627
 Alpha virt. eigenvalues --    0.50833   0.51112   0.52096   0.53246   0.54507
 Alpha virt. eigenvalues --    0.55203   0.56222   0.56721   0.57147   0.57350
 Alpha virt. eigenvalues --    0.57763   0.58345   0.58614   0.59271   0.59434
 Alpha virt. eigenvalues --    0.59742   0.60244   0.61569   0.62429   0.62895
 Alpha virt. eigenvalues --    0.62974   0.63384   0.64188   0.64920   0.66053
 Alpha virt. eigenvalues --    0.66560   0.67414   0.69372   0.70761   0.72958
 Alpha virt. eigenvalues --    0.75986   0.79710   0.82068   0.83393   0.88207
 Alpha virt. eigenvalues --    0.90352   0.92005   0.93599   0.98197   0.98737
 Alpha virt. eigenvalues --    0.99729   1.01112   1.01750   1.04877   1.06233
 Alpha virt. eigenvalues --    1.09803   1.12410   1.13300   1.17642   1.18860
 Alpha virt. eigenvalues --    1.19973   1.21269   1.24104   1.25571   1.33148
 Alpha virt. eigenvalues --    1.33662   1.35575   1.35701   1.38189   1.40458
 Alpha virt. eigenvalues --    1.42573   1.42767   1.43375   1.44300   1.45282
 Alpha virt. eigenvalues --    1.45663   1.47069   1.47244   1.49031   1.49503
 Alpha virt. eigenvalues --    1.49823   1.50014   1.51047   1.53614   1.53972
 Alpha virt. eigenvalues --    1.54051   1.55127   1.56708   1.56978   1.58642
 Alpha virt. eigenvalues --    1.59594   1.60998   1.62239   1.63097   1.64432
 Alpha virt. eigenvalues --    1.65432   1.65974   1.69698   1.70166   1.70892
 Alpha virt. eigenvalues --    1.71735   1.73686   1.75611   1.75981   1.76795
 Alpha virt. eigenvalues --    1.77396   1.78346   1.79599   1.79955   1.81993
 Alpha virt. eigenvalues --    1.84699   1.87776   1.89417   1.91647   1.92960
 Alpha virt. eigenvalues --    1.95101   1.95865   1.98516   1.99472   2.01213
 Alpha virt. eigenvalues --    2.03991   2.06161   2.07914   2.09166   2.10390
 Alpha virt. eigenvalues --    2.11296   2.13663   2.14838   2.15452   2.17321
 Alpha virt. eigenvalues --    2.21340   2.23032   2.24623   2.26257   2.31251
 Alpha virt. eigenvalues --    2.32149   2.33998   2.35177   2.37203   2.37449
 Alpha virt. eigenvalues --    2.38826   2.39708   2.41624   2.42735   2.43999
 Alpha virt. eigenvalues --    2.44940   2.46390   2.46963   2.47664   2.48879
 Alpha virt. eigenvalues --    2.50148   2.51662   2.51981   2.53073   2.53266
 Alpha virt. eigenvalues --    2.55019   2.56063   2.58115   2.58795   2.60431
 Alpha virt. eigenvalues --    2.60957   2.61750   2.62926   2.63807   2.65777
 Alpha virt. eigenvalues --    2.67227   2.67480   2.69547   2.71722   2.73273
 Alpha virt. eigenvalues --    2.73981   2.75478   2.79110   2.81993   2.83028
 Alpha virt. eigenvalues --    2.84671   2.86578   2.88938   2.91742   2.92860
 Alpha virt. eigenvalues --    2.93517   2.95781   3.00719   3.06880   3.08478
 Alpha virt. eigenvalues --    3.10169   3.11840   3.16791   3.20571   3.21290
 Alpha virt. eigenvalues --    3.28298   3.35094   3.40770   3.46391   3.48387
 Alpha virt. eigenvalues --    3.64853   3.72938   3.76731   3.77259   3.77812
 Alpha virt. eigenvalues --    3.80262   3.80497   3.81325   3.81679   3.81999
 Alpha virt. eigenvalues --    3.87667   3.91529   4.00206   4.01583   4.09133
 Alpha virt. eigenvalues --    4.16611   4.26599   4.28223   4.30595   4.35934
 Alpha virt. eigenvalues --    4.73499   4.90446   4.93464   5.20149   5.28221
 Alpha virt. eigenvalues --    5.77300  23.72304  23.78741  23.81591  23.83959
 Alpha virt. eigenvalues --   23.88089  23.92693  23.93097  23.94161  23.95067
 Alpha virt. eigenvalues --   49.79811  49.85823
  Beta  occ. eigenvalues --  -19.17639 -19.15246 -10.23281 -10.18824 -10.18479
  Beta  occ. eigenvalues --  -10.18095 -10.18045 -10.16889 -10.16723 -10.16367
  Beta  occ. eigenvalues --  -10.15458  -1.11272  -0.87349  -0.82532  -0.79886
  Beta  occ. eigenvalues --   -0.75899  -0.69275  -0.68807  -0.66132  -0.62146
  Beta  occ. eigenvalues --   -0.57377  -0.56734  -0.51431  -0.48100  -0.46460
  Beta  occ. eigenvalues --   -0.46105  -0.45454  -0.43701  -0.42567  -0.41864
  Beta  occ. eigenvalues --   -0.40409  -0.39540  -0.39418  -0.38828  -0.38007
  Beta  occ. eigenvalues --   -0.36543  -0.35353  -0.34634  -0.34474  -0.34162
  Beta  occ. eigenvalues --   -0.32927  -0.32300  -0.30718  -0.24628
  Beta virt. eigenvalues --   -0.10629   0.02849   0.04340   0.04896   0.05213
  Beta virt. eigenvalues --    0.06614   0.07577   0.08159   0.09173   0.09862
  Beta virt. eigenvalues --    0.10583   0.11350   0.12718   0.13254   0.14205
  Beta virt. eigenvalues --    0.14347   0.14615   0.15421   0.15546   0.16205
  Beta virt. eigenvalues --    0.18447   0.18696   0.19303   0.20609   0.21260
  Beta virt. eigenvalues --    0.22192   0.23078   0.25128   0.25413   0.26845
  Beta virt. eigenvalues --    0.28331   0.29335   0.30314   0.31553   0.33540
  Beta virt. eigenvalues --    0.33866   0.34543   0.36138   0.39816   0.40519
  Beta virt. eigenvalues --    0.42442   0.42673   0.42897   0.44039   0.44535
  Beta virt. eigenvalues --    0.47889   0.51328   0.51385   0.52430   0.53419
  Beta virt. eigenvalues --    0.54719   0.55730   0.56302   0.56916   0.57294
  Beta virt. eigenvalues --    0.57468   0.57862   0.58467   0.58860   0.59396
  Beta virt. eigenvalues --    0.59534   0.59813   0.60403   0.61766   0.62539
  Beta virt. eigenvalues --    0.62984   0.63171   0.63585   0.64352   0.65286
  Beta virt. eigenvalues --    0.66138   0.67057   0.67613   0.69531   0.70910
  Beta virt. eigenvalues --    0.73228   0.76188   0.80040   0.82490   0.84060
  Beta virt. eigenvalues --    0.88884   0.90663   0.92202   0.93881   0.98294
  Beta virt. eigenvalues --    0.99015   0.99963   1.01331   1.02274   1.05084
  Beta virt. eigenvalues --    1.06669   1.10094   1.12864   1.13694   1.17761
  Beta virt. eigenvalues --    1.19054   1.20079   1.21424   1.24408   1.25828
  Beta virt. eigenvalues --    1.33318   1.33954   1.35727   1.36025   1.38517
  Beta virt. eigenvalues --    1.40704   1.42689   1.42959   1.43731   1.44382
  Beta virt. eigenvalues --    1.45382   1.45725   1.47314   1.47333   1.49193
  Beta virt. eigenvalues --    1.49752   1.49880   1.50219   1.51079   1.53767
  Beta virt. eigenvalues --    1.54110   1.54285   1.55414   1.57122   1.57244
  Beta virt. eigenvalues --    1.58801   1.59759   1.61431   1.62318   1.63458
  Beta virt. eigenvalues --    1.64650   1.65527   1.66231   1.69837   1.70362
  Beta virt. eigenvalues --    1.71454   1.72003   1.73819   1.75708   1.76048
  Beta virt. eigenvalues --    1.76862   1.77739   1.78521   1.79736   1.80010
  Beta virt. eigenvalues --    1.82086   1.84935   1.88000   1.89622   1.91677
  Beta virt. eigenvalues --    1.93123   1.95259   1.96212   1.98722   1.99822
  Beta virt. eigenvalues --    2.01292   2.04383   2.06570   2.08212   2.09339
  Beta virt. eigenvalues --    2.10646   2.11483   2.13805   2.14974   2.15828
  Beta virt. eigenvalues --    2.17985   2.21446   2.23284   2.24706   2.26365
  Beta virt. eigenvalues --    2.31738   2.32440   2.34085   2.35355   2.37403
  Beta virt. eigenvalues --    2.37799   2.39184   2.39805   2.41737   2.42954
  Beta virt. eigenvalues --    2.44093   2.45072   2.46551   2.47096   2.47882
  Beta virt. eigenvalues --    2.48989   2.50282   2.51809   2.52071   2.53254
  Beta virt. eigenvalues --    2.53376   2.55451   2.56132   2.58294   2.59168
  Beta virt. eigenvalues --    2.60545   2.61142   2.62025   2.62994   2.63883
  Beta virt. eigenvalues --    2.65898   2.67419   2.67540   2.69761   2.71918
  Beta virt. eigenvalues --    2.73408   2.74199   2.75724   2.79307   2.82349
  Beta virt. eigenvalues --    2.83059   2.84941   2.86801   2.89177   2.92062
  Beta virt. eigenvalues --    2.92995   2.94168   2.96404   3.01995   3.07071
  Beta virt. eigenvalues --    3.08574   3.10283   3.12328   3.17394   3.21583
  Beta virt. eigenvalues --    3.22067   3.28938   3.35462   3.42312   3.47142
  Beta virt. eigenvalues --    3.48896   3.65679   3.73376   3.76777   3.77290
  Beta virt. eigenvalues --    3.77862   3.80413   3.80599   3.81522   3.81690
  Beta virt. eigenvalues --    3.82067   3.89480   3.92082   4.00310   4.01851
  Beta virt. eigenvalues --    4.09474   4.17073   4.26801   4.28302   4.30745
  Beta virt. eigenvalues --    4.36498   4.74096   4.91222   4.94503   5.23793
  Beta virt. eigenvalues --    5.28682   5.78068  23.72651  23.78803  23.81603
  Beta virt. eigenvalues --   23.84430  23.88142  23.92765  23.93204  23.94175
  Beta virt. eigenvalues --   23.95077  49.80653  49.86375
          Condensed to atoms (all electrons):
              1          2          3          4          5          6
     1  C    4.868037   0.403622   0.401781   0.402029   0.347520  -0.039306
     2  H    0.403622   0.539563  -0.028064  -0.025397  -0.026274  -0.005703
     3  H    0.401781  -0.028064   0.599165  -0.032470  -0.040176   0.009050
     4  H    0.402029  -0.025397  -0.032470   0.590821  -0.033535  -0.007210
     5  C    0.347520  -0.026274  -0.040176  -0.033535   5.166877   0.404828
     6  H   -0.039306  -0.005703   0.009050  -0.007210   0.404828   0.586329
     7  C    0.008775   0.000581  -0.000001  -0.000313  -0.078315  -0.011394
     8  H   -0.000137  -0.000026  -0.000009  -0.000031  -0.002902   0.001027
     9  H   -0.000394  -0.000019  -0.000028   0.000024   0.009169  -0.000222
    10  C   -0.000556   0.000148   0.000025   0.000014  -0.008448   0.006113
    11  H    0.000020  -0.000004   0.000001  -0.000002  -0.000170   0.000180
    12  H    0.000356   0.000259  -0.000052   0.000064  -0.000322  -0.004751
    13  C    0.000046  -0.000004  -0.000011   0.000004   0.000742  -0.002559
    14  H    0.000167  -0.000021   0.000000  -0.000015   0.000421   0.002334
    15  C   -0.000004  -0.000006   0.000000   0.000000  -0.000092   0.000149
    16  H    0.000000   0.000000   0.000000   0.000000  -0.000005  -0.000032
    17  H    0.000000   0.000000   0.000000   0.000000   0.000006  -0.000027
    18  H   -0.000008   0.000019   0.000000  -0.000001  -0.000022   0.000454
    19  C   -0.063218   0.008025  -0.006045  -0.006094   0.346902  -0.042051
    20  H   -0.004970  -0.000304   0.005088  -0.000643  -0.037917   0.008744
    21  H   -0.006358   0.000108  -0.000732   0.003895  -0.030150  -0.005738
    22  H    0.008077  -0.000443  -0.000170   0.000098  -0.033860  -0.006252
    23  C    0.000001   0.000001   0.000000   0.000000  -0.000088   0.000312
    24  H    0.000000   0.000000   0.000000   0.000000   0.000008  -0.000001
    25  H    0.000000   0.000000   0.000000   0.000000  -0.000008   0.000001
    26  H   -0.000002   0.000000   0.000000   0.000000   0.000010   0.000035
    27  C   -0.058872  -0.009450  -0.006120   0.008621   0.306977  -0.040503
    28  H   -0.006692  -0.000781   0.004859  -0.000268  -0.038124   0.009268
    29  O    0.005179   0.004846  -0.000049   0.000392  -0.061548  -0.004177
    30  O   -0.005625   0.006344   0.000029  -0.000279   0.002544   0.017361
              7          8          9         10         11         12
     1  C    0.008775  -0.000137  -0.000394  -0.000556   0.000020   0.000356
     2  H    0.000581  -0.000026  -0.000019   0.000148  -0.000004   0.000259
     3  H   -0.000001  -0.000009  -0.000028   0.000025   0.000001  -0.000052
     4  H   -0.000313  -0.000031   0.000024   0.000014  -0.000002   0.000064
     5  C   -0.078315  -0.002902   0.009169  -0.008448  -0.000170  -0.000322
     6  H   -0.011394   0.001027  -0.000222   0.006113   0.000180  -0.004751
     7  C    4.950218   0.393730   0.403517   0.325444  -0.029476  -0.007902
     8  H    0.393730   0.586873  -0.027131  -0.040904   0.003140   0.002191
     9  H    0.403517  -0.027131   0.565646  -0.031366  -0.011797   0.001511
    10  C    0.325444  -0.040904  -0.031366   5.364479   0.393585   0.222699
    11  H   -0.029476   0.003140  -0.011797   0.393585   0.554234  -0.013698
    12  H   -0.007902   0.002191   0.001511   0.222699  -0.013698   0.461458
    13  C   -0.049375  -0.006071   0.006130   0.323435  -0.038390  -0.014718
    14  H   -0.001152  -0.000362  -0.000194  -0.050523   0.008262  -0.003413
    15  C    0.006573   0.000365  -0.000353  -0.064120  -0.004700  -0.002501
    16  H    0.000080   0.000012  -0.000002  -0.007236   0.004781  -0.000503
    17  H   -0.000418  -0.000002   0.000024   0.008754  -0.000400   0.000346
    18  H   -0.000111  -0.000001  -0.000012  -0.004705  -0.000069   0.000764
    19  C   -0.004764  -0.001599  -0.000413   0.000782  -0.000033  -0.000220
    20  H   -0.000495   0.000770  -0.000218   0.000112   0.000003  -0.000001
    21  H   -0.000003  -0.000014   0.000049  -0.000069   0.000001   0.000029
    22  H    0.000061   0.001629   0.000004  -0.000326  -0.000002  -0.000035
    23  C   -0.008077   0.000807  -0.000279  -0.066837  -0.004767   0.002068
    24  H   -0.000044  -0.000471   0.000039   0.008817  -0.000084  -0.000164
    25  H   -0.000280   0.000001  -0.000021  -0.005298   0.004957  -0.000193
    26  H    0.001422   0.002959  -0.000283  -0.006139  -0.000454  -0.000049
    27  C    0.367295  -0.039252  -0.033640  -0.059916   0.003721  -0.003748
    28  H   -0.041080   0.001399  -0.011008   0.008620  -0.000119  -0.002171
    29  O   -0.053724   0.004462   0.004246   0.002558   0.000752  -0.041130
    30  O   -0.018676  -0.000527  -0.000483  -0.076238   0.001322   0.145794
             13         14         15         16         17         18
     1  C    0.000046   0.000167  -0.000004   0.000000   0.000000  -0.000008
     2  H   -0.000004  -0.000021  -0.000006   0.000000   0.000000   0.000019
     3  H   -0.000011   0.000000   0.000000   0.000000   0.000000   0.000000
     4  H    0.000004  -0.000015   0.000000   0.000000   0.000000  -0.000001
     5  C    0.000742   0.000421  -0.000092  -0.000005   0.000006  -0.000022
     6  H   -0.002559   0.002334   0.000149  -0.000032  -0.000027   0.000454
     7  C   -0.049375  -0.001152   0.006573   0.000080  -0.000418  -0.000111
     8  H   -0.006071  -0.000362   0.000365   0.000012  -0.000002  -0.000001
     9  H    0.006130  -0.000194  -0.000353  -0.000002   0.000024  -0.000012
    10  C    0.323435  -0.050523  -0.064120  -0.007236   0.008754  -0.004705
    11  H   -0.038390   0.008262  -0.004700   0.004781  -0.000400  -0.000069
    12  H   -0.014718  -0.003413  -0.002501  -0.000503   0.000346   0.000764
    13  C    5.045776   0.412054   0.368380  -0.037678  -0.032591  -0.030204
    14  H    0.412054   0.605323  -0.039786   0.009302  -0.007066  -0.006325
    15  C    0.368380  -0.039786   4.873127   0.402145   0.401862   0.402348
    16  H   -0.037678   0.009302   0.402145   0.587552  -0.030717  -0.028716
    17  H   -0.032591  -0.007066   0.401862  -0.030717   0.582396  -0.026021
    18  H   -0.030204  -0.006325   0.402348  -0.028716  -0.026021   0.563933
    19  C    0.000059  -0.000363   0.000004   0.000000   0.000000   0.000007
    20  H   -0.000035   0.000010   0.000001   0.000000   0.000000   0.000000
    21  H    0.000030   0.000063  -0.000003   0.000000   0.000000   0.000000
    22  H    0.000481   0.000416  -0.000014   0.000001   0.000000   0.000001
    23  C    0.349268  -0.046313  -0.067136  -0.006132  -0.004613   0.008180
    24  H   -0.031366  -0.006513  -0.005106  -0.000684   0.003584   0.000023
    25  H   -0.038190   0.009291  -0.005654   0.005073  -0.000776  -0.000120
    26  H   -0.030862  -0.005487   0.007973  -0.000159   0.000048  -0.000482
    27  C    0.001912  -0.000779  -0.000285  -0.000026   0.000009   0.000227
    28  H   -0.000551  -0.000054   0.000018  -0.000001  -0.000001   0.000006
    29  O    0.000281   0.000071   0.000056   0.000001   0.000000  -0.000088
[...]
 06382,0.00234626,-0.00207349,-0.00247182,-0.00022244,0.00031209,-0.000
 11751,0.00091220,-0.00052874,0.00023938,0.01002872,-0.01229214,0.01541
 305,-0.00034216,0.00095116,-0.00020612,0.00008826,0.00058693,0.0015381
 7,0.00002707,-0.00006920,-0.00004274,-0.00048268,-0.00012944,-0.001045
 24,-0.00019130,0.00046224,-0.00015562,0.00003182,-0.00001346,-0.000058
 66,-0.00000225,0.00000413,0.00000858,0.00001150,0.00003759,-0.00001099
 ,-0.00000509,0.00001163,0.00000610,0.06012558,-0.11307432,0.09557822,-
 0.06947246,0.12165903,-0.00000663,-0.00001988,-0.00000273,-0.00000607,
 0.00000527,0.00000677,-0.00000558,0.00000173,-0.00000031,-0.00000596,0
 .00000433,0.00000708,-0.00000710,0.00002881,0.00002013,0.00000315,-0.0
 0001317,-0.00001453,0.00002829,0.00003088,0.00022549,0.00026561,0.0001
 5206,0.00003798,0.00004337,0.00004936,0.00005186,0.00046306,-0.0011418
 9,-0.00024537,-0.00000230,-0.00024268,0.00022290,0.00080685,-0.0006239
 9,-0.00022158,0.00760382,-0.00898978,0.00907648,-0.00065225,0.00052081
 ,0.00082534,0.00041010,0.00001110,0.00082771,-0.00008155,-0.00002111,-
 0.00009986,-0.00006067,0.00014057,0.00012107,0.00011416,0.00018918,0.0
 0024616,0.00001754,-0.00001297,-0.00000218,-0.00000094,-0.00000028,-0.
 00000316,-0.00001826,0.00000698,0.00001597,-0.00000478,0.00003499,-0.0
 0001748,-0.08792271,0.09604849,-0.18186270,0.09554811,-0.10360369,0.19
 672160,-0.00002628,-0.00000175,-0.00008198,-0.00001006,0.00000902,0.00
 001532,-0.00003983,0.00000675,0.00000261,0.00000954,-0.00000093,-0.000
 00172,0.00009801,0.00002347,0.00016598,-0.00000862,-0.00005758,-0.0001
 3195,-0.00006259,-0.00009960,-0.00017308,0.00005822,0.00014469,0.00017
 640,-0.00012251,0.00008061,-0.00008525,0.00065437,-0.00175662,0.001060
 10,0.00009517,0.00070408,-0.00076995,0.00008190,0.00000837,0.00003243,
 -0.01646131,-0.00858036,0.01212958,-0.00177977,0.00341449,0.00142150,0
 .00078282,-0.00080594,-0.00110252,0.00063992,0.00050790,0.00020173,0.0
 0006595,0.00012174,0.00000577,0.00009743,0.00010614,-0.00029436,0.0000
 5287,-0.00000496,-0.00006246,-0.00004541,-0.00000506,-0.00001007,-0.00
 000156,0.00001259,0.00000727,0.00001194,0.00004969,0.00003507,-0.16640
 838,-0.08277197,0.09769296,0.01159093,0.00720645,-0.00860727,0.1817711
 9,0.00003929,0.00003301,0.00005711,0.00000088,0.00000590,-0.00000769,0
 .00002108,-0.00000942,-0.00000904,-0.00000560,-0.00000665,0.00000177,-
 0.00006449,-0.00005083,-0.00012531,0.00000205,0.00001828,0.00008943,-0
 .00016890,-0.00031199,0.00004025,0.00003674,0.00005394,0.00002258,-0.0
 0003155,0.00007248,0.00000095,0.00012070,0.00150383,-0.00121023,-0.000
 31454,-0.00012379,0.00039354,-0.00018936,0.00018961,-0.00005055,0.0157
 1113,0.00944735,-0.01282532,0.00330632,-0.00242757,-0.00221421,0.00064
 943,0.00169050,0.00018506,-0.00029650,-0.00008313,0.00035132,-0.000126
 21,-0.00010466,-0.00002579,-0.00002995,0.00013734,0.00027230,0.0000763
 1,-0.00005823,-0.00000663,-0.00001536,0.00002689,0.00000454,-0.0000076
 6,-0.00000067,0.00000404,-0.00000874,0.00001529,0.00001347,-0.08313877
 ,-0.10305971,0.06754115,-0.01127484,-0.00796321,0.00789619,0.08868673,
 0.11083537,0.00002087,0.00002011,0.00004030,-0.00000442,-0.00000220,0.
 00000055,0.00002455,-0.00000707,0.00000076,-0.00000092,0.00000224,-0.0
 0000515,-0.00006329,-0.00002973,-0.00010755,0.00002031,0.00003812,0.00
 008375,-0.00011830,-0.00007956,-0.00000528,0.00006251,0.00003619,0.000
 01744,0.00000039,0.00003837,0.00001654,-0.00143302,0.00019496,0.000480
 70,0.00016106,-0.00023512,0.00043665,0.00009163,-0.00007810,-0.0000805
 9,0.00984118,0.00566667,-0.00909918,0.00149087,-0.00237218,-0.00019217
 ,0.00026497,0.00112331,0.00031961,-0.00025774,-0.00065756,0.00003784,0
 .00007188,0.00002593,-0.00014122,-0.00034200,-0.00012002,0.00025013,0.
 00002606,-0.00003151,0.00000361,0.00001247,0.00000832,0.00001496,-0.00
 001322,0.00000313,-0.00000088,0.00000233,-0.00001023,-0.00002410,0.097
 79247,0.06738478,-0.12786766,0.01653595,0.01042314,-0.01290887,-0.1105
 4927,-0.07282763,0.13705292,-0.00000789,0.00000293,-0.00000681,-0.0000
 0207,-0.00000334,0.00000571,0.00000656,-0.00000118,0.00000493,0.000008
 84,0.00000393,-0.00001035,0.00000049,-0.00000399,0.00001107,0.00001088
 ,0.00001268,0.00001820,-0.00017288,0.00076798,0.00016049,-0.00064149,-
 0.00016563,-0.00033656,0.00009292,-0.00020417,0.00001929,0.00082268,-0
 .00007569,0.00018307,-0.00006538,-0.00000891,-0.00002841,0.00011196,-0
 .00013147,0.00011083,0.01118611,0.01360936,0.01177361,0.00100045,-0.00
 086147,-0.00044234,-0.00251575,0.00268440,0.00125567,0.00005074,0.0003
 2486,-0.00006108,-0.00008766,-0.00011426,0.00018810,0.00072130,0.00090
 313,0.00073405,-0.00004807,0.00004504,-0.00000440,0.00002112,-0.000007
 58,0.00000432,0.00002796,-0.00000157,-0.00001762,-0.00001612,-0.000059
 65,0.00000972,-0.11240308,-0.08504468,-0.07479715,-0.00798243,-0.00978
 399,-0.00741571,-0.01109562,-0.01308799,-0.01343956,0.12107757,0.00002
 144,-0.00002113,0.00005265,-0.00000778,0.00001511,-0.00000774,0.000012
 97,-0.00000119,-0.00000194,-0.00002524,-0.00000168,0.00001609,-0.00010
 374,0.00002712,-0.00010548,0.00000988,-0.00000243,0.00003645,-0.000324
 81,-0.00044860,0.00039412,0.00066858,0.00084864,0.00017368,0.00011438,
 0.00007271,0.00007300,-0.00155068,0.00029643,-0.00084123,0.00004598,-0
 .00014067,0.00001110,0.00015728,-0.00018943,-0.00026533,-0.01110904,-0
 .01413368,-0.01024717,0.00017053,0.00097511,0.00025811,0.00433811,-0.0
 0233905,-0.00156304,0.00015927,0.00037566,0.00025394,-0.00010776,0.000
 23335,-0.00007708,-0.00076525,-0.00072873,-0.00109136,0.00006144,-0.00
 005639,0.00001588,0.00000067,0.00001648,0.00000517,-0.00003962,-0.0000
 0025,0.00002774,-0.00001218,0.00007354,-0.00002983,-0.08429416,-0.1560
 6294,-0.09606169,0.00834701,0.01187340,0.00932203,-0.00707306,-0.00985
 001,-0.00857827,0.09124171,0.16866037,0.00001820,0.00004792,-0.0000025
 9,-0.00002763,0.00002228,0.00001238,0.00000234,-0.00000483,0.00000396,
 0.00000432,-0.00000471,-0.00000917,-0.00005452,-0.00005841,-0.00003765
 ,0.00001675,-0.00002575,0.00000828,-0.00020432,-0.00010392,0.00024127,
 -0.00001850,0.00026851,0.00020997,0.00000728,0.00012781,0.00000639,-0.
 00054873,0.00095280,0.00015063,0.00017200,-0.00004090,0.00005431,0.000
 22905,-0.00019427,-0.00025179,-0.00681118,-0.00753055,-0.00815437,-0.0
 0013796,0.00038572,0.00000502,0.00275202,-0.00157328,-0.00069348,-0.00
 018575,-0.00020711,0.00009080,0.00026547,0.00023812,0.00046946,-0.0005
 1626,-0.00093002,-0.00014205,0.00016402,-0.00008601,-0.00009545,-0.000
 05264,0.00003447,0.00001226,-0.00001260,0.00001727,0.00000557,-0.00000
 004,0.00005780,0.00005608,-0.07460060,-0.09652958,-0.13281783,-0.01134
 869,-0.01568507,-0.01323171,0.00900728,0.01242229,0.01165826,0.0820309
 1,0.10812204,0.14230703,-0.01300830,-0.01223987,0.02892991,0.00098199,
 -0.00000726,-0.00015033,0.00054032,-0.00096143,0.00082608,-0.00456812,
 0.00240249,0.00225708,-0.08315072,-0.00741729,0.00988246,0.00646045,0.
 01160203,-0.02156954,-0.11181140,0.00559209,0.02510292,-0.00142737,0.0
 0044721,0.00156706,-0.00603009,0.00194618,0.00175217,-0.03326656,-0.00
 577366,-0.00078425,-0.00196498,0.00080200,-0.00083440,-0.00193604,-0.0
 0569104,-0.00316035,0.00052499,-0.00161359,-0.00181704,-0.00000170,-0.
 00006909,-0.00009221,-0.00001869,-0.00056330,-0.00008550,0.00001858,0.
 00007269,-0.00001159,0.00025184,0.00006546,0.00017280,-0.00003841,0.00
 018124,0.00006311,-0.00141166,-0.00437498,0.00161501,-0.00013986,-0.00
 101715,0.00096031,-0.00028083,0.00031839,0.00013555,-0.00040681,0.0016
 5665,-0.00039399,0.00023416,-0.00050364,0.00160277,0.00063203,-0.00026
 192,0.00001591,-0.00000588,0.00011050,-0.00011182,-0.00019492,0.000538
 72,0.00004763,0.50423607,-0.00108273,0.00746469,-0.00823378,0.00089713
 ,-0.00118924,-0.00184554,0.00030869,0.00034542,0.00032767,0.00307933,-
 0.00218016,-0.00143327,-0.00782476,-0.07867295,0.02712040,0.00217342,0
 .00229027,-0.00399987,-0.00340441,-0.06097399,-0.00257866,0.02683677,-
 0.00845132,-0.01300981,-0.00924500,0.00070401,0.00478021,-0.00939870,0
 .01265136,0.01682438,-0.00140673,-0.00457202,-0.00270809,0.00574378,-0
 .00430877,-0.00208464,0.00134369,-0.00153620,-0.00219841,0.00012349,-0
 .00008024,0.00045323,-0.00060003,0.00034132,-0.00001422,-0.00002604,-0
 .00002328,-0.00003359,0.00012011,-0.00019836,-0.00015356,-0.00001371,-
 0.00007720,-0.00033307,-0.00847716,-0.02233064,0.02557519,0.00045776,0
 .00146834,0.00097109,-0.00001383,-0.00425266,-0.00108276,0.00010194,0.
 00056691,0.00044253,0.00028685,-0.00043165,0.00126292,0.00029885,-0.00
 028642,-0.00016943,-0.00004954,0.00009243,0.00005628,-0.00000344,-0.00
 000305,-0.00003593,0.03515403,0.39973447,0.01123215,0.00357988,-0.0158
 1132,-0.00027069,0.00043822,-0.00018163,-0.00239620,0.00012278,0.00130
 786,0.00029500,-0.00104307,0.00064591,0.01332535,0.02155689,-0.1473219
 8,0.00654884,0.01186876,-0.02378767,0.00987522,-0.00381542,-0.08819803
 ,-0.00153862,0.00033587,0.00012410,0.03143007,-0.00852185,-0.01359815,
 -0.00782617,0.00789750,0.01107307,-0.00162313,-0.00202788,-0.00097818,
 -0.00110484,-0.00085297,0.00203936,-0.00121580,-0.00193881,-0.00026762
 ,0.00006777,0.00058056,-0.00053300,-0.00015757,0.00086583,-0.00071151,
 0.00017305,0.00009305,0.00008521,-0.00019359,-0.00017993,-0.00030767,-
 0.00002170,-0.00016111,-0.00001063,-0.00238372,0.00392969,0.00682712,-
 0.00123049,-0.00221993,0.00043111,-0.00076200,-0.00457137,0.00024402,0
 .00085551,-0.00106652,-0.00002416,0.00038383,0.00006374,-0.00031215,-0
 .00021255,0.00003128,-0.00006634,0.00006496,-0.00007820,-0.00005612,0.
 00008057,-0.00020078,0.00001515,0.09720897,0.00761086,0.52788771,0.001
 35003,-0.00000826,0.00067167,-0.00008815,0.00003788,0.00002769,0.00013
 308,-0.00014570,-0.00037996,0.00009498,0.00000833,-0.00011679,0.004239
 92,0.00076232,0.00501739,0.00052054,-0.00062426,0.00156261,-0.02142658
 ,-0.00511010,-0.01620800,0.00013961,0.00052800,0.00004888,0.00077802,-
 0.00067868,0.00009843,-0.00264949,0.00237191,0.00276571,-0.00076544,-0
 .00045703,-0.00037589,0.00075858,0.00031370,0.00034626,-0.00026861,-0.
 00060316,0.00001943,0.00002224,0.00006301,-0.00002099,-0.00009032,0.00
 021648,-0.00013594,0.00002234,0.00000710,0.00002575,-0.00004996,-0.000
 04186,-0.00009679,0.00001872,-0.00001338,0.00000203,0.00040923,0.00029
 323,0.00013801,0.00018720,0.00045796,-0.00018291,0.00010470,0.00025242
 ,0.00011008,-0.00005285,-0.00002810,-0.00006137,0.00004249,-0.00003588
 ,-0.00006840,-0.00004309,0.00003867,-0.00001982,0.00000707,-0.00001075
 ,0.00000229,0.00002263,-0.00001554,0.00001698,-0.17092916,-0.03117551,
 -0.12438960,0.18585467,0.00026108,0.00011266,-0.00065941,-0.00013623,-
 0.00000891,-0.00000450,-0.00019950,0.00022362,-0.00021004,0.00010311,-
 0.00011759,-0.00013765,0.00986224,0.00255437,0.01202148,-0.00124739,-0
 .00122123,0.00301316,0.00664495,0.00434214,0.00571062,-0.00066109,0.00
 001198,0.00024124,-0.00065494,0.00049983,-0.00002616,0.00130382,-0.001
 81082,-0.00192839,0.00030127,0.00054718,0.00026903,0.00018471,0.000086
 40,0.00011473,-0.00020016,0.00027134,0.00042960,-0.00000473,0.00001562
 ,-0.00007840,0.00011713,-0.00007758,-0.00002282,0.00000650,0.00000117,
 0.00000185,-0.00003043,0.00004753,0.00003122,0.00000762,0.00000492,0.0
 0007780,0.00100878,0.00138672,0.00078412,-0.00035098,-0.00008832,-0.00
 026269,-0.00006219,0.00007975,-0.00018508,-0.00000387,-0.00006930,-0.0
 0004584,-0.00001164,0.00005842,-0.00020073,-0.00004676,0.00005812,0.00
 002669,0.00001735,-0.00001926,-0.00000747,0.00000300,0.00001375,0.0000
 1172,-0.02254948,-0.05331933,-0.02186320,0.03540367,0.06939139,-0.0015
 3817,-0.00010183,0.00088801,0.00003225,-0.00000148,0.00002115,0.001230
 52,-0.00010064,0.00024492,0.00027287,0.00010268,0.00046193,-0.01895988
 ,-0.00251591,-0.02270607,0.00189810,0.00251003,-0.00384994,0.01161463,
 0.00291624,0.00651044,-0.00072662,-0.00007304,0.00012249,0.00029228,0.
 00023885,0.00147689,0.00190156,-0.00152289,-0.00057695,0.00017280,0.00
 033255,0.00013874,-0.00002847,0.00037794,-0.00005109,0.00025490,0.0005
 9554,0.00007338,-0.00000426,-0.00014812,0.00009045,0.00008737,-0.00016
 009,0.00016373,-0.00003677,-0.00002046,-0.00000504,0.00003701,0.000037
 15,0.00004956,0.00000822,0.00002921,0.00000725,-0.00049265,-0.00141496
 ,0.00078498,0.00051697,0.00088133,0.00054037,0.00034617,-0.00009467,0.
 00035522,0.00007507,0.00003781,0.00003710,-0.00007831,-0.00001300,-0.0
 0002226,-0.00000181,0.00000802,0.00000724,-0.00002518,0.00000861,0.000
 01837,0.00000122,0.00000830,-0.00000326,-0.12420819,-0.02950581,-0.169
 11321,0.13065677,0.03388202,0.18737469,0.00020230,-0.00027035,0.002413
 37,-0.00010410,-0.00217407,-0.00051437,-0.00004572,0.00009680,-0.00022
 804,0.00013209,-0.00125858,-0.00011824,0.00019203,-0.00776500,0.000235
 55,-0.00025563,0.00004816,0.00020763,-0.01421327,0.02874093,0.00345850
 ,-0.00420335,0.00252270,0.00196741,0.00216470,0.00020073,-0.00097884,0
 .01163855,-0.01304590,-0.00935733,-0.00067247,0.00239677,0.00123663,-0
 .05158728,0.01312064,-0.01221870,-0.00283667,0.00251383,0.00494446,0.0
 0004899,0.00030177,-0.00056886,0.00056120,0.00065633,0.00009134,0.0000
 7099,-0.00000860,0.00009487,-0.00034546,0.00002218,-0.00022410,-0.0001
 2815,-0.00011604,0.00009205,-0.00064894,-0.00062740,0.00177857,0.00009
 771,0.00026315,0.00003177,0.00035497,-0.00070017,-0.00010181,0.0003808
 4,-0.00072236,-0.00006721,-0.00038864,0.00050034,-0.00327712,-0.000864
 15,0.00076485,0.00028909,0.00009924,-0.00020925,0.00007455,0.00024226,
 -0.00021594,0.00008762,-0.06101942,0.01555741,-0.01739924,-0.00091819,
 -0.02678588,-0.00459997,0.21183815,0.00173314,0.00079450,-0.00148216,-
 0.00073610,0.00034147,0.00075467,-0.00044784,-0.00004124,-0.00002580,0
 .00034588,0.00017156,-0.00025650,-0.00326867,-0.04092990,0.00015014,0.
 00058544,0.00073519,-0.00054708,0.02121040,-0.03759562,-0.00726241,0.0
 0549465,-0.00056474,-0.00192793,-0.00129809,0.00200216,0.00031438,-0.0
 0062313,-0.01421383,-0.00827265,-0.00090070,0.00239447,0.00094806,-0.0
 0978103,0.01043638,0.00949958,-0.00113574,0.00050153,0.00183666,0.0000
 3782,0.00015729,-0.00037913,0.00036190,0.00009887,-0.00000325,0.000142
 13,0.00002175,0.00002515,-0.00011814,0.00011072,-0.00004871,-0.0001704
 9,-0.00012012,0.00011408,-0.00147371,0.00039218,0.00824276,-0.00017821
 ,0.00028429,-0.00040690,-0.00027344,-0.00274666,-0.00053656,0.00027282
 ,0.00003696,-0.00019898,-0.00005451,-0.00013020,-0.00108129,-0.0001307
 6,0.00043762,0.00020227,0.00014662,-0.00004597,-0.00001925,-0.00002043
 ,0.00039905,0.00024101,0.03240681,-0.16499545,0.02991181,-0.00234394,-
 0.01426264,-0.00513542,-0.01275371,0.31718206,0.00041882,0.00064984,-0
 .00055021,0.00139420,0.00145458,-0.00076612,0.00034738,-0.00011095,0.0
 0003235,-0.00016838,0.00055232,0.00030671,-0.00202317,0.02918786,0.006
 60901,-0.00119193,-0.00058945,0.00010249,0.00074248,-0.01920968,0.0005
 6815,0.00516395,-0.00069733,-0.00051654,-0.00128559,0.00016262,0.00158
 761,0.00546269,-0.01960116,-0.00599818,-0.00137803,0.00377935,0.001899
 34,-0.02937818,0.01835897,0.01152842,-0.00180800,0.00165366,0.00263168
 ,-0.00001623,0.00004381,-0.00045506,0.00049653,0.00017716,0.00007304,-
 0.00002081,0.00005459,0.00012171,-0.00019101,0.00001632,-0.00010331,0.
 00012012,0.00009307,0.00012310,0.00045691,0.00096193,-0.00607776,0.000
 40806,-0.00015735,0.00021516,0.00022622,0.00188247,0.00047212,-0.00016
 488,0.00001775,-0.00003603,-0.00010788,-0.00002138,-0.00210026,-0.0003
 7163,0.00066000,0.00028676,0.00013024,-0.00013419,0.00003003,0.0001047
 5,0.00026498,0.00020382,-0.00309073,0.00663439,-0.07611721,-0.00089122
 ,-0.02866708,-0.00560481,0.11601838,0.02654984,0.21439229,-0.00107871,
 -0.00034905,-0.00098759,-0.00088163,-0.00011266,0.00138416,0.00013040,
 -0.00005902,0.00016509,0.00020403,0.00047609,-0.00009762,0.00248372,0.
 00163813,0.00221170,-0.00042579,-0.00070706,-0.00007612,0.01220557,0.0
 0232785,-0.00256538,-0.00422614,0.00038051,-0.00048036,-0.00100652,-0.
 00132536,-0.00041398,-0.06531441,0.09748865,0.05520842,0.00324463,-0.0
 0813024,-0.00402937,0.04221127,-0.05303993,-0.02059021,0.00654606,-0.0
 0582147,-0.00433553,-0.00010592,-0.00002889,0.00045308,-0.00084518,-0.
 00161823,-0.00052062,-0.00015756,0.00010164,-0.00008312,0.00054024,-0.
 00011566,0.00015639,-0.00009410,0.00008011,-0.00053529,0.00044220,0.00
 040672,-0.00155919,0.00006981,0.00000006,0.00011090,0.00010983,0.00058
 055,0.00016492,-0.00022466,0.00029138,0.00017151,-0.00022285,0.0001968
 2,0.00426009,0.00066839,-0.00088421,-0.00079144,-0.00004875,0.00021929
 ,-0.00016279,-0.00017111,-0.00024315,-0.00030248,-0.02226953,-0.019761
 65,-0.00881537,0.00257578,-0.00227994,0.00130159,-0.08979259,-0.027028
 99,-0.08940307,0.11543352,0.00013047,-0.00059541,-0.00035782,-0.000177
 23,0.00006731,0.00044405,-0.00012868,0.00002668,-0.00005524,-0.0000384
 1,0.00022792,0.00005862,0.00031688,0.00094741,0.00272772,-0.00241895,-
 0.00153354,-0.00116689,-0.00325046,0.00210844,0.00190507,-0.00019827,0
 .00052766,-0.00021339,0.00028092,-0.00053357,-0.00042316,0.03308465,-0
 .03440297,-0.02551160,0.00037078,0.00137273,-0.00019589,-0.01254110,-0
 .00606788,-0.00890955,-0.00172787,0.00129081,-0.00056381,0.00001660,0.
 00002388,0.00003150,0.00007622,-0.00010587,-0.00012688,0.00007616,-0.0
 0000952,-0.00004890,-0.00005638,0.00019541,0.00019283,0.00014431,0.000
 28919,0.00055000,-0.00088541,0.00068361,-0.00184093,0.00005248,-0.0004
 7544,-0.00000014,0.00009531,0.00032391,0.00021352,0.00002030,0.0000520
 6,0.00000526,0.00012738,-0.00004311,-0.00001332,0.00014016,-0.00021083
 ,0.00016713,-0.00003930,-0.00000712,0.00003438,-0.00001958,0.00009851,
 0.00006060,-0.03025280,-0.01777631,-0.04034569,0.00053745,-0.00871195,
 -0.00115797,-0.00105334,-0.06085168,-0.02396695,0.01731771,0.12308967,
 0.00003754,-0.00086089,-0.00014184,-0.00042355,0.00072372,0.00042743,0
 .00014797,0.00018874,0.00006325,-0.00011104,0.00040499,-0.00000458,0.0
 0218479,0.00363468,0.00107394,0.00097314,-0.00052501,0.00189996,0.0000
 9081,0.00388378,0.00077733,-0.00178038,0.00030368,-0.00010365,-0.00033
 177,-0.00067688,-0.00039063,0.01864790,-0.01256944,-0.00848640,0.00046
 988,-0.00227270,-0.00100724,0.00540133,-0.01311952,-0.03797649,0.00083
 132,-0.00080991,-0.00253824,0.00007180,-0.00045561,0.00070765,0.000031
 24,-0.00079810,-0.00012912,-0.00016023,-0.00001219,-0.00005945,0.00014
 769,0.00023236,0.00034315,-0.00002835,0.00047122,0.00044755,0.00095877
 ,0.00017848,0.00024822,0.00011258,0.00045294,-0.00000410,-0.00004109,0
 .00008226,0.00006892,-0.00019995,0.00020469,0.00005376,0.00040186,-0.0
 0049060,0.00179696,0.00055676,-0.00076305,-0.00002373,-0.00025412,0.00
 021020,0.00002633,-0.00013651,0.00003566,-0.00007132,-0.01582981,-0.02
 263873,-0.01328404,0.00143772,-0.00231583,0.00256575,-0.08336797,-0.05
 120641,-0.14285830,0.07016167,0.09850746,0.19657892\\-0.00000132,0.000
 00332,-0.00000129,0.00000166,0.00000479,-0.00000318,0.00000078,0.00000
 265,-0.00000088,-0.00000148,0.00000559,0.,0.00000158,0.00000377,-0.000
 00438,0.00000141,0.00000271,-0.00000112,0.00000106,-0.00000154,0.00000
 118,-0.00000107,-0.00000339,0.00000277,0.00000138,-0.00000340,-0.00000
 081,0.00000281,-0.00000198,-0.00000141,0.00000003,-0.00000257,-0.00000
 190,0.00000387,-0.00000093,0.00000506,0.00000097,-0.00000098,0.0000007
 9,-0.00000200,0.00000174,0.00000100,-0.00000045,-0.00000216,-0.0000008
 4,0.00000162,-0.00000103,-0.00000117,0.00000034,-0.00000121,0.00000007
 ,0.00000093,-0.00000037,-0.00000180,-0.00000106,0.00000080,0.00000202,
 -0.00000180,0.00000102,0.00000172,-0.00000257,0.00000341,0.00000215,-0
 .00000107,0.00000114,0.00000081,-0.00000143,-0.00000367,0.00000225,-0.
 00000136,-0.00000275,0.00000268,-0.00000021,-0.00000480,0.00000052,-0.
 00000190,-0.00000254,0.00000255,-0.00000563,0.00000214,0.00000206,0.00
 000095,0.00000074,-0.00000023,0.00000164,0.00000079,-0.00000171,0.0000
 0230,-0.00000130,-0.00000689\\\@
 Job cpu time:  0 days 16 hours 21 minutes 19.3 seconds.
 File lengths (MBytes):  RWF=  77044 Int=      0 D2E=      0 Chk=     26 Scr=      1
 Normal termination of Gaussian 09 at Mon Feb 17 20:01:47 2014.
