 Entering Gaussian System, Link 0=g09
 Initial command:
 /usr/caen/gaussian-09revc/g09/l1.exe /scratch/avioli_flux/hetanjin/scratch/Gau-109294.inp -scrdir=/scratch/avioli_flux/hetanjin/scratch/
 Entering Link 1 = /usr/caen/gaussian-09revc/g09/l1.exe PID=    109295.
  
 Copyright (c) 1988,1990,1992,1993,1995,1998,2003,2009,2011,
            Gaussian, Inc.  All Rights Reserved.
  
 This is part of the Gaussian(R) 09 program.  It is based on
 the Gaussian(R) 03 system (copyright 2003, Gaussian, Inc.),
 the Gaussian(R) 98 system (copyright 1998, Gaussian, Inc.),
 the Gaussian(R) 94 system (copyright 1995, Gaussian, Inc.),
 the Gaussian 92(TM) system (copyright 1992, Gaussian, Inc.),
 the Gaussian 90(TM) system (copyright 1990, Gaussian, Inc.),
 the Gaussian 88(TM) system (copyright 1988, Gaussian, Inc.),
 the Gaussian 86(TM) system (copyright 1986, Carnegie Mellon
 University), and the Gaussian 82(TM) system (copyright 1983,
 Carnegie Mellon University). Gaussian is a federally registered
 trademark of Gaussian, Inc.
  
 This software contains proprietary and confidential information,
 including trade secrets, belonging to Gaussian, Inc.
  
 This software is provided under written license and may be
 used, copied, transmitted, or stored only in accord with that
 written license.
  
 The following legend is applicable only to US Government
 contracts under FAR:
  
                    RESTRICTED RIGHTS LEGEND
  
 Use, reproduction and disclosure by the US Government is
 subject to restrictions as set forth in subparagraphs (a)
 and (c) of the Commercial Computer Software - Restricted
 Rights clause in FAR 52.227-19.
  
 Gaussian, Inc.
 340 Quinnipiac St., Bldg. 40, Wallingford CT 06492
  
  
 ---------------------------------------------------------------
 Warning -- This program may not be used in any manner that
 competes with the business of Gaussian, Inc. or will provide
 assistance to any competitor of Gaussian, Inc.  The licensee
 of this program is prohibited from giving any competitor of
 Gaussian, Inc. access to this program.  By using this program,
 the user acknowledges that Gaussian, Inc. is engaged in the
 business of creating and licensing software in the field of
 computational chemistry and represents and warrants to the
 licensee that it is not a competitor of Gaussian, Inc. and that
 it will not use this program in any manner prohibited above.
 ---------------------------------------------------------------
  

 Cite this work as:
 Gaussian 09, Revision C.01,
 M. J. Frisch, G. W. Trucks, H. B. Schlegel, G. E. Scuseria, 
 M. A. Robb, J. R. Cheeseman, G. Scalmani, V. Barone, B. Mennucci, 
 G. A. Petersson, H. Nakatsuji, M. Caricato, X. Li, H. P. Hratchian, 
 A. F. Izmaylov, J. Bloino, G. Zheng, J. L. Sonnenberg, M. Hada, 
 M. Ehara, K. Toyota, R. Fukuda, J. Hasegawa, M. Ishida, T. Nakajima, 
 Y. Honda, O. Kitao, H. Nakai, T. Vreven, J. A. Montgomery, Jr., 
 J. E. Peralta, F. Ogliaro, M. Bearpark, J. J. Heyd, E. Brothers, 
 K. N. Kudin, V. N. Staroverov, T. Keith, R. Kobayashi, J. Normand, 
 K. Raghavachari, A. Rendell, J. C. Burant, S. S. Iyengar, J. Tomasi, 
 M. Cossi, N. Rega, J. M. Millam, M. Klene, J. E. Knox, J. B. Cross, 
 V. Bakken, C. Adamo, J. Jaramillo, R. Gomperts, R. E. Stratmann, 
 O. Yazyev, A. J. Austin, R. Cammi, C. Pomelli, J. W. Ochterski, 
 R. L. Martin, K. Morokuma, V. G. Zakrzewski, G. A. Voth, 
 P. Salvador, J. J. Dannenberg, S. Dapprich, A. D. Daniels, 
 O. Farkas, J. B. Foresman, J. V. Ortiz, J. Cioslowski, 
 and D. J. Fox, Gaussian, Inc., Wallingford CT, 2010.
 
 ******************************************
 Gaussian 09:  EM64L-G09RevC.01 23-Sep-2011
                24-Feb-2014 
 ******************************************
 %mem=30GB
 %nprocshared=8
 Will use up to    8 processors via shared memory.
 %chk=TS_3_C9H18_2.chk
 -------------------------------
 #p cbs-qb3 opt=(ts,calcfc) freq
 -------------------------------
 1/5=1,10=4,14=-1,18=20,26=3,38=1/1,3;
 2/9=110,12=2,17=6,18=5,40=1/2;
 3/5=4,6=6,7=700,11=2,16=1,25=1,30=1,71=2,74=-5/1,2,3;
 4//1;
 5/5=2,38=5/2;
 8/6=4,10=90,11=11/1;
 11/6=1,8=1,9=11,15=111,16=1/1,2,10;
 10/6=1,7=6,13=1/2;
 6/7=2,8=2,9=2,10=2,28=1/1;
 7/10=1,18=20,25=1/1,2,3,16;
 1/5=1,10=4,14=-1,18=20/3(2);
 2/9=110/2;
 99//99;
 2/9=110/2;
 3/5=4,6=6,7=700,11=2,16=1,25=1,30=1,71=1,74=-5/1,2,3;
 4/5=5,16=3/1;
 5/5=2,38=5/2;
 7//1,2,3,16;
 1/5=1,14=-1,18=20/3(-5);
 2/9=110/2;
 6/7=2,8=2,9=2,10=2,19=2,28=1/1;
 99/9=1/99;
 Leave Link    1 at Mon Feb 24 15:11:12 2014, MaxMem= 4026531840 cpu:       0.6
 (Enter /usr/caen/gaussian-09revc/g09/l101.exe)
 ----------------------------------------------------
 TS_3_C9H18_2 using B3LYP/6-311++g(d,p) to calc. freq
 ----------------------------------------------------
 Charge =  0 Multiplicity = 2
 Symbolic Z-Matrix:
 C                     3.35355  -0.64008  -1.16425 
 H                     3.21002   0.08105  -1.97259 
 H                     3.38682  -1.64202  -1.60621 
 H                     4.33172  -0.44833  -0.71436 
 C                     2.23618  -0.54162  -0.12203 
 H                     2.45852   0.63273   0.40765 
 C                    -0.33467  -0.51433   0.11327 
 H                    -0.24495  -0.33025   1.18988 
 H                    -0.49247  -1.59917   0.01611 
 C                    -1.54196   0.24692  -0.44963 
 H                    -1.66075   0.0001   -1.51356 
 H                    -1.32437   1.31787  -0.40202 
 C                    -2.87277  -0.02266   0.27629 
 H                    -2.71672   0.18886   1.34322 
 C                    -3.9606    0.93276  -0.234 
 H                    -4.15532   0.76884  -1.29974 
 H                    -4.90262   0.7827    0.30145 
 H                    -3.66446   1.97789  -0.10651 
 C                     2.39478  -1.49831   1.05961 
 H                     2.24643  -2.53733   0.74351 
 H                     3.40162  -1.42528   1.47878 
 H                     1.68696  -1.28986   1.86384 
 C                    -3.33368  -1.48194   0.14594 
 H                    -3.47772  -1.75073  -0.9068 
 H                    -4.28688  -1.63719   0.65964 
 H                    -2.61487  -2.18509   0.57495 
 C                     0.95768  -0.18934  -0.57078 
 H                     0.8735    0.21885  -1.57427 
 O                     1.08687   1.99389   0.17288 
 O                     2.23243   1.8971    0.72592 
 
 NAtoms=     30 NQM=        0 NQMF=       0 NMMI=     30 NMMIF=      0
                NMic=       0 NMicF=      0.
                    Isotopes and Nuclear Properties:
 (Nuclear quadrupole moments (NQMom) in fm**2, nuclear magnetic moments (NMagM)
  in nuclear magnetons)

  Atom         1           2           3           4           5           6           7           8           9          10
 IAtWgt=          12           1           1           1          12           1          12           1           1          12
 AtmWgt=  12.0000000   1.0078250   1.0078250   1.0078250  12.0000000   1.0078250  12.0000000   1.0078250   1.0078250  12.0000000
 NucSpn=           0           1           1           1           0           1           0           1           1           0
 AtZEff=   0.0000000   0.0000000   0.0000000   0.0000000   0.0000000   0.0000000   0.0000000   0.0000000   0.0000000   0.0000000
 NQMom=    0.0000000   0.0000000   0.0000000   0.0000000   0.0000000   0.0000000   0.0000000   0.0000000   0.0000000   0.0000000
 NMagM=    0.0000000   2.7928460   2.7928460   2.7928460   0.0000000   2.7928460   0.0000000   2.7928460   2.7928460   0.0000000

  Atom        11          12          13          14          15          16          17          18          19          20
 IAtWgt=           1           1          12           1          12           1           1           1          12           1
 AtmWgt=   1.0078250   1.0078250  12.0000000   1.0078250  12.0000000   1.0078250   1.0078250   1.0078250  12.0000000   1.0078250
 NucSpn=           1           1           0           1           0           1           1           1           0           1
 AtZEff=   0.0000000   0.0000000   0.0000000   0.0000000   0.0000000   0.0000000   0.0000000   0.0000000   0.0000000   0.0000000
 NQMom=    0.0000000   0.0000000   0.0000000   0.0000000   0.0000000   0.0000000   0.0000000   0.0000000   0.0000000   0.0000000
 NMagM=    2.7928460   2.7928460   0.0000000   2.7928460   0.0000000   2.7928460   2.7928460   2.7928460   0.0000000   2.7928460

  Atom        21          22          23          24          25          26          27          28          29          30
 IAtWgt=           1           1          12           1           1           1          12           1          16          16
 AtmWgt=   1.0078250   1.0078250  12.0000000   1.0078250   1.0078250   1.0078250  12.0000000   1.0078250  15.9949146  15.9949146
 NucSpn=           1           1           0           1           1           1           0           1           0           0
 AtZEff=   0.0000000   0.0000000   0.0000000   0.0000000   0.0000000   0.0000000   0.0000000   0.0000000   0.0000000   0.0000000
 NQMom=    0.0000000   0.0000000   0.0000000   0.0000000   0.0000000   0.0000000   0.0000000   0.0000000   0.0000000   0.0000000
 NMagM=    2.7928460   2.7928460   0.0000000   2.7928460   2.7928460   2.7928460   0.0000000   2.7928460   0.0000000   0.0000000
 Leave Link  101 at Mon Feb 24 15:11:14 2014, MaxMem= 4026531840 cpu:       6.8
 (Enter /usr/caen/gaussian-09revc/g09/l103.exe)

 GradGradGradGradGradGradGradGradGradGradGradGradGradGradGradGradGradGrad
 Berny optimization.
 Initialization pass.
                           ----------------------------
                           !    Initial Parameters    !
                           ! (Angstroms and Degrees)  !
 --------------------------                            --------------------------
 ! Name  Definition              Value          Derivative Info.                !
 --------------------------------------------------------------------------------
 ! R1    R(1,2)                  1.0927         calculate D2E/DX2 analytically  !
 ! R2    R(1,3)                  1.0956         calculate D2E/DX2 analytically  !
 ! R3    R(1,4)                  1.0936         calculate D2E/DX2 analytically  !
 ! R4    R(1,5)                  1.5312         calculate D2E/DX2 analytically  !
 ! R5    R(5,6)                  1.3073         calculate D2E/DX2 analytically  !
 ! R6    R(5,19)                 1.5286         calculate D2E/DX2 analytically  !
 ! R7    R(5,27)                 1.4            calculate D2E/DX2 analytically  !
 ! R8    R(6,30)                 1.3233         calculate D2E/DX2 analytically  !
 ! R9    R(7,8)                  1.0959         calculate D2E/DX2 analytically  !
 ! R10   R(7,9)                  1.1006         calculate D2E/DX2 analytically  !
 ! R11   R(7,10)                 1.5342         calculate D2E/DX2 analytically  !
 ! R12   R(7,27)                 1.4979         calculate D2E/DX2 analytically  !
 ! R13   R(10,11)                1.0986         calculate D2E/DX2 analytically  !
 ! R14   R(10,12)                1.0939         calculate D2E/DX2 analytically  !
 ! R15   R(10,13)                1.5397         calculate D2E/DX2 analytically  !
 ! R16   R(13,14)                1.0988         calculate D2E/DX2 analytically  !
 ! R17   R(13,15)                1.5351         calculate D2E/DX2 analytically  !
 ! R18   R(13,23)                1.5359         calculate D2E/DX2 analytically  !
 ! R19   R(15,16)                1.0957         calculate D2E/DX2 analytically  !
 ! R20   R(15,17)                1.0939         calculate D2E/DX2 analytically  !
 ! R21   R(15,18)                1.0937         calculate D2E/DX2 analytically  !
 ! R22   R(19,20)                1.0961         calculate D2E/DX2 analytically  !
 ! R23   R(19,21)                1.0931         calculate D2E/DX2 analytically  !
 ! R24   R(19,22)                1.0914         calculate D2E/DX2 analytically  !
 ! R25   R(23,24)                1.096          calculate D2E/DX2 analytically  !
 ! R26   R(23,25)                1.0939         calculate D2E/DX2 analytically  !
 ! R27   R(23,26)                1.0932         calculate D2E/DX2 analytically  !
 ! R28   R(27,28)                1.0866         calculate D2E/DX2 analytically  !
 ! R29   R(29,30)                1.2757         calculate D2E/DX2 analytically  !
 ! A1    A(2,1,3)              108.0049         calculate D2E/DX2 analytically  !
 ! A2    A(2,1,4)              107.8239         calculate D2E/DX2 analytically  !
 ! A3    A(2,1,5)              111.4221         calculate D2E/DX2 analytically  !
 ! A4    A(3,1,4)              107.4057         calculate D2E/DX2 analytically  !
 ! A5    A(3,1,5)              110.8276         calculate D2E/DX2 analytically  !
 ! A6    A(4,1,5)              111.1883         calculate D2E/DX2 analytically  !
 ! A7    A(1,5,6)              102.0891         calculate D2E/DX2 analytically  !
 ! A8    A(1,5,19)             114.2179         calculate D2E/DX2 analytically  !
 ! A9    A(1,5,27)             117.6725         calculate D2E/DX2 analytically  !
 ! A10   A(6,5,19)             103.3771         calculate D2E/DX2 analytically  !
 ! A11   A(6,5,27)              93.3908         calculate D2E/DX2 analytically  !
 ! A12   A(19,5,27)            120.0005         calculate D2E/DX2 analytically  !
 ! A13   A(5,6,30)             157.9254         calculate D2E/DX2 analytically  !
 ! A14   A(8,7,9)              105.3098         calculate D2E/DX2 analytically  !
 ! A15   A(8,7,10)             109.9684         calculate D2E/DX2 analytically  !
 ! A16   A(8,7,27)             109.9714         calculate D2E/DX2 analytically  !
 ! A17   A(9,7,10)             110.1129         calculate D2E/DX2 analytically  !
 ! A18   A(9,7,27)             107.2928         calculate D2E/DX2 analytically  !
 ! A19   A(10,7,27)            113.8108         calculate D2E/DX2 analytically  !
 ! A20   A(7,10,11)            109.2028         calculate D2E/DX2 analytically  !
 ! A21   A(7,10,12)            108.2567         calculate D2E/DX2 analytically  !
 ! A22   A(7,10,13)            114.853          calculate D2E/DX2 analytically  !
 ! A23   A(11,10,12)           106.4759         calculate D2E/DX2 analytically  !
 ! A24   A(11,10,13)           108.8922         calculate D2E/DX2 analytically  !
 ! A25   A(12,10,13)           108.8342         calculate D2E/DX2 analytically  !
 ! A26   A(10,13,14)           107.5378         calculate D2E/DX2 analytically  !
 ! A27   A(10,13,15)           110.2916         calculate D2E/DX2 analytically  !
 ! A28   A(10,13,23)           112.688          calculate D2E/DX2 analytically  !
 ! A29   A(14,13,15)           107.6733         calculate D2E/DX2 analytically  !
 ! A30   A(14,13,23)           107.934          calculate D2E/DX2 analytically  !
 ! A31   A(15,13,23)           110.5159         calculate D2E/DX2 analytically  !
 ! A32   A(13,15,16)           110.8634         calculate D2E/DX2 analytically  !
 ! A33   A(13,15,17)           111.2322         calculate D2E/DX2 analytically  !
 ! A34   A(13,15,18)           111.3525         calculate D2E/DX2 analytically  !
 ! A35   A(16,15,17)           107.6096         calculate D2E/DX2 analytically  !
 ! A36   A(16,15,18)           107.7248         calculate D2E/DX2 analytically  !
 ! A37   A(17,15,18)           107.8906         calculate D2E/DX2 analytically  !
 ! A38   A(5,19,20)            110.8719         calculate D2E/DX2 analytically  !
 ! A39   A(5,19,21)            110.4986         calculate D2E/DX2 analytically  !
 ! A40   A(5,19,22)            112.5057         calculate D2E/DX2 analytically  !
 ! A41   A(20,19,21)           107.3731         calculate D2E/DX2 analytically  !
 ! A42   A(20,19,22)           107.8045         calculate D2E/DX2 analytically  !
 ! A43   A(21,19,22)           107.5801         calculate D2E/DX2 analytically  !
 ! A44   A(13,23,24)           110.7308         calculate D2E/DX2 analytically  !
 ! A45   A(13,23,25)           110.8849         calculate D2E/DX2 analytically  !
 ! A46   A(13,23,26)           112.364          calculate D2E/DX2 analytically  !
 ! A47   A(24,23,25)           107.5618         calculate D2E/DX2 analytically  !
 ! A48   A(24,23,26)           107.7944         calculate D2E/DX2 analytically  !
 ! A49   A(25,23,26)           107.2998         calculate D2E/DX2 analytically  !
 ! A50   A(5,27,7)             125.9384         calculate D2E/DX2 analytically  !
 ! A51   A(5,27,28)            117.471          calculate D2E/DX2 analytically  !
 ! A52   A(7,27,28)            115.8744         calculate D2E/DX2 analytically  !
 ! A53   A(6,30,29)             96.987          calculate D2E/DX2 analytically  !
 ! D1    D(2,1,5,6)            -67.5746         calculate D2E/DX2 analytically  !
 ! D2    D(2,1,5,19)          -178.4157         calculate D2E/DX2 analytically  !
 ! D3    D(2,1,5,27)            32.8311         calculate D2E/DX2 analytically  !
 ! D4    D(3,1,5,6)            172.127          calculate D2E/DX2 analytically  !
 ! D5    D(3,1,5,19)            61.2859         calculate D2E/DX2 analytically  !
 ! D6    D(3,1,5,27)           -87.4674         calculate D2E/DX2 analytically  !
 ! D7    D(4,1,5,6)             52.7391         calculate D2E/DX2 analytically  !
 ! D8    D(4,1,5,19)           -58.102          calculate D2E/DX2 analytically  !
 ! D9    D(4,1,5,27)           153.1448         calculate D2E/DX2 analytically  !
 ! D10   D(1,5,6,30)           115.079          calculate D2E/DX2 analytically  !
 ! D11   D(19,5,6,30)         -126.0953         calculate D2E/DX2 analytically  !
 ! D12   D(27,5,6,30)           -4.1612         calculate D2E/DX2 analytically  !
 ! D13   D(1,5,19,20)          -69.0535         calculate D2E/DX2 analytically  !
 ! D14   D(1,5,19,21)           49.8748         calculate D2E/DX2 analytically  !
 ! D15   D(1,5,19,22)          170.1357         calculate D2E/DX2 analytically  !
 ! D16   D(6,5,19,20)         -179.1141         calculate D2E/DX2 analytically  !
 ! D17   D(6,5,19,21)          -60.1857         calculate D2E/DX2 analytically  !
 ! D18   D(6,5,19,22)           60.0751         calculate D2E/DX2 analytically  !
 ! D19   D(27,5,19,20)          78.9097         calculate D2E/DX2 analytically  !
 ! D20   D(27,5,19,21)        -162.1619         calculate D2E/DX2 analytically  !
 ! D21   D(27,5,19,22)         -41.901          calculate D2E/DX2 analytically  !
 ! D22   D(1,5,27,7)           155.7825         calculate D2E/DX2 analytically  !
 ! D23   D(1,5,27,28)          -14.0804         calculate D2E/DX2 analytically  !
 ! D24   D(6,5,27,7)           -98.6742         calculate D2E/DX2 analytically  !
 ! D25   D(6,5,27,28)           91.4629         calculate D2E/DX2 analytically  !
 ! D26   D(19,5,27,7)            8.8933         calculate D2E/DX2 analytically  !
 ! D27   D(19,5,27,28)        -160.9696         calculate D2E/DX2 analytically  !
 ! D28   D(5,6,30,29)            1.2708         calculate D2E/DX2 analytically  !
 ! D29   D(8,7,10,11)         -176.1915         calculate D2E/DX2 analytically  !
 ! D30   D(8,7,10,12)           68.2688         calculate D2E/DX2 analytically  !
 ! D31   D(8,7,10,13)          -53.5634         calculate D2E/DX2 analytically  !
 ! D32   D(9,7,10,11)          -60.5824         calculate D2E/DX2 analytically  !
 ! D33   D(9,7,10,12)         -176.122          calculate D2E/DX2 analytically  !
 ! D34   D(9,7,10,13)           62.0457         calculate D2E/DX2 analytically  !
 ! D35   D(27,7,10,11)          59.9223         calculate D2E/DX2 analytically  !
 ! D36   D(27,7,10,12)         -55.6173         calculate D2E/DX2 analytically  !
 ! D37   D(27,7,10,13)        -177.4496         calculate D2E/DX2 analytically  !
 ! D38   D(8,7,27,5)            43.9504         calculate D2E/DX2 analytically  !
 ! D39   D(8,7,27,28)         -146.0443         calculate D2E/DX2 analytically  !
 ! D40   D(9,7,27,5)           -70.0893         calculate D2E/DX2 analytically  !
 ! D41   D(9,7,27,28)           99.916          calculate D2E/DX2 analytically  !
 ! D42   D(10,7,27,5)          167.8349         calculate D2E/DX2 analytically  !
 ! D43   D(10,7,27,28)         -22.1598         calculate D2E/DX2 analytically  !
 ! D44   D(7,10,13,14)          54.7687         calculate D2E/DX2 analytically  !
 ! D45   D(7,10,13,15)         171.9176         calculate D2E/DX2 analytically  !
 ! D46   D(7,10,13,23)         -64.0562         calculate D2E/DX2 analytically  !
 ! D47   D(11,10,13,14)        177.5638         calculate D2E/DX2 analytically  !
 ! D48   D(11,10,13,15)        -65.2874         calculate D2E/DX2 analytically  !
 ! D49   D(11,10,13,23)         58.7389         calculate D2E/DX2 analytically  !
 ! D50   D(12,10,13,14)        -66.7496         calculate D2E/DX2 analytically  !
 ! D51   D(12,10,13,15)         50.3993         calculate D2E/DX2 analytically  !
 ! D52   D(12,10,13,23)        174.4255         calculate D2E/DX2 analytically  !
 ! D53   D(10,13,15,16)         62.6776         calculate D2E/DX2 analytically  !
 ! D54   D(10,13,15,17)       -177.6255         calculate D2E/DX2 analytically  !
 ! D55   D(10,13,15,18)        -57.2444         calculate D2E/DX2 analytically  !
 ! D56   D(14,13,15,16)        179.7424         calculate D2E/DX2 analytically  !
 ! D57   D(14,13,15,17)        -60.5607         calculate D2E/DX2 analytically  !
 ! D58   D(14,13,15,18)         59.8204         calculate D2E/DX2 analytically  !
 ! D59   D(23,13,15,16)        -62.5933         calculate D2E/DX2 analytically  !
 ! D60   D(23,13,15,17)         57.1037         calculate D2E/DX2 analytically  !
 ! D61   D(23,13,15,18)        177.4848         calculate D2E/DX2 analytically  !
 ! D62   D(10,13,23,24)        -59.8919         calculate D2E/DX2 analytically  !
 ! D63   D(10,13,23,25)       -179.2143         calculate D2E/DX2 analytically  !
 ! D64   D(10,13,23,26)         60.7091         calculate D2E/DX2 analytically  !
 ! D65   D(14,13,23,24)       -178.4854         calculate D2E/DX2 analytically  !
 ! D66   D(14,13,23,25)         62.1922         calculate D2E/DX2 analytically  !
 ! D67   D(14,13,23,26)        -57.8844         calculate D2E/DX2 analytically  !
 ! D68   D(15,13,23,24)         64.0105         calculate D2E/DX2 analytically  !
 ! D69   D(15,13,23,25)        -55.3119         calculate D2E/DX2 analytically  !
 ! D70   D(15,13,23,26)       -175.3885         calculate D2E/DX2 analytically  !
 --------------------------------------------------------------------------------
 Trust Radius=3.00D-01 FncErr=1.00D-07 GrdErr=1.00D-06
 Number of steps in this run=    162 maximum allowed number of steps=    180.
 Search for a saddle point of order  1.
 GradGradGradGradGradGradGradGradGradGradGradGradGradGradGradGradGradGrad

 Leave Link  103 at Mon Feb 24 15:11:14 2014, MaxMem= 4026531840 cpu:       0.1
 (Enter /usr/caen/gaussian-09revc/g09/l202.exe)
                          Input orientation:                          
 ---------------------------------------------------------------------
 Center     Atomic      Atomic             Coordinates (Angstroms)
 Number     Number       Type             X           Y           Z
 ---------------------------------------------------------------------
      1          6           0        3.353549   -0.640082   -1.164246
      2          1           0        3.210015    0.081052   -1.972593
      3          1           0        3.386824   -1.642017   -1.606207
      4          1           0        4.331722   -0.448328   -0.714356
      5          6           0        2.236176   -0.541621   -0.122025
      6          1           0        2.458519    0.632733    0.407648
      7          6           0       -0.334667   -0.514328    0.113267
      8          1           0       -0.244950   -0.330245    1.189880
      9          1           0       -0.492465   -1.599168    0.016109
     10          6           0       -1.541961    0.246919   -0.449628
     11          1           0       -1.660751    0.000096   -1.513564
     12          1           0       -1.324365    1.317870   -0.402022
     13          6           0       -2.872768   -0.022655    0.276294
     14          1           0       -2.716722    0.188863    1.343216
     15          6           0       -3.960596    0.932764   -0.233996
     16          1           0       -4.155321    0.768841   -1.299735
     17          1           0       -4.902619    0.782697    0.301454
     18          1           0       -3.664460    1.977887   -0.106512
     19          6           0        2.394775   -1.498314    1.059614
     20          1           0        2.246429   -2.537330    0.743506
     21          1           0        3.401620   -1.425276    1.478779
     22          1           0        1.686957   -1.289860    1.863842
     23          6           0       -3.333675   -1.481936    0.145937
     24          1           0       -3.477722   -1.750729   -0.906800
     25          1           0       -4.286885   -1.637192    0.659642
     26          1           0       -2.614870   -2.185087    0.574945
     27          6           0        0.957683   -0.189339   -0.570779
     28          1           0        0.873496    0.218852   -1.574266
     29          8           0        1.086873    1.993889    0.172877
     30          8           0        2.232433    1.897098    0.725923
 ---------------------------------------------------------------------
                    Distance matrix (angstroms):
                    1          2          3          4          5
     1  C    0.000000
     2  H    1.092731   0.000000
     3  H    1.095587   1.770443   0.000000
     4  H    1.093615   1.766814   1.764405   0.000000
     5  C    1.531157   2.181900   2.176616   2.179650   0.000000
     6  H    2.211784   2.556295   3.176767   2.436488   1.307324
     7  C    3.905226   4.155726   4.251796   4.739673   2.581732
     8  H    4.311276   4.701828   4.767455   4.958426   2.814562
     9  H    4.135808   4.526194   4.205072   5.013062   2.929670
    10  C    5.026278   4.992816   5.403580   5.920608   3.873427
    11  H    5.067056   4.893018   5.308779   6.062141   4.173234
    12  H    5.128103   4.955503   5.692653   5.933661   4.026606
    13  C    6.420545   6.486023   6.734140   7.284728   5.150659
    14  H    6.619872   6.792085   7.021716   7.370222   5.216487
    15  C    7.538961   7.427368   7.905507   8.420255   6.370740
    16  H    7.641109   7.427918   7.924021   8.593839   6.629898
    17  H    8.505109   8.454491   8.844958   9.371251   7.272932
    18  H    7.564722   7.371475   8.066808   8.378241   6.416048
    19  C    2.569312   3.514725   2.848054   2.828640   1.528622
    20  H    2.909430   3.893792   2.761021   3.292072   2.175340
    21  H    2.757612   3.770637   3.092626   2.574754   2.168336
    22  H    3.516967   4.349407   3.880052   3.788148   2.192070
    23  C    6.866168   7.053437   6.946995   7.782465   5.655019
    24  H    6.925755   7.015494   6.900941   7.919640   5.892915
    25  H    7.918145   8.129239   8.001244   8.808045   6.660451
    26  H    6.405767   6.749416   6.408797   7.275560   5.169081
    27  C    2.509093   2.666682   3.013820   3.387009   1.400010
    28  H    2.656416   2.374231   3.127406   3.625452   2.131718
    29  O    3.723375   3.573474   4.655612   4.157000   2.799406
    30  O    3.356624   3.396421   4.392810   3.461566   2.581933
                    6          7          8          9         10
     6  H    0.000000
     7  C    3.033858   0.000000
     8  H    2.974552   1.095916   0.000000
     9  H    3.720617   1.100553   1.746187   0.000000
    10  C    4.109454   1.534245   2.168719   2.174026   0.000000
    11  H    4.589082   2.160951   3.069565   2.502486   1.098632
    12  H    3.928764   2.145221   2.532898   3.062026   1.093869
    13  C    5.373026   2.590420   2.799050   2.866868   1.539701
    14  H    5.277824   2.771541   2.530344   3.147314   2.144230
    15  C    6.458077   3.919442   4.174762   4.301298   2.523227
    16  H    6.832025   4.270889   4.764155   4.555812   2.797273
    17  H    7.363431   4.752249   4.870505   5.020375   3.484997
    18  H    6.290045   4.164968   4.324483   4.782459   2.760250
    19  C    2.229458   3.051828   2.889551   3.071682   4.563063
    20  H    3.194852   3.339430   3.358190   2.985095   4.850516
    21  H    2.504429   4.080967   3.818380   4.163357   5.563630
    22  H    2.532227   2.784408   2.259945   2.873964   4.259078
    23  C    6.171696   3.151409   3.457807   2.846590   2.560054
    24  H    6.530515   3.528175   4.106660   3.128337   2.819002
    25  H    7.121554   4.144801   4.280946   3.848792   3.509268
    26  H    5.805805   2.864246   3.071662   2.271608   2.848778
    27  C    1.971200   1.497900   2.136844   2.105940   2.540319
    28  H    2.571299   2.201131   3.031985   2.774948   2.664588
    29  O    1.946606   2.883658   2.865248   3.927969   3.217170
    30  O    1.323266   3.574958   3.363590   4.489185   4.283814
                   11         12         13         14         15
    11  H    0.000000
    12  H    1.756476   0.000000
    13  C    2.161734   2.157469   0.000000
    14  H    3.051541   2.501833   1.098823   0.000000
    15  C    2.792213   2.669504   1.535119   2.142010   0.000000
    16  H    2.619078   3.020204   2.180659   3.064495   1.095714
    17  H    3.796902   3.685809   2.183923   2.493201   1.093908
    18  H    3.147428   2.449284   2.185288   2.490085   1.093723
    19  C    5.031279   4.888688   5.526135   5.390213   6.926349
    20  H    5.176770   5.378231   5.722592   5.694265   7.178037
    21  H    6.050901   5.779031   6.540739   6.329134   7.918092
    22  H    4.927272   4.582844   4.991714   4.674405   6.421514
    23  C    2.783709   3.489484   1.535881   2.146084   2.523520
    24  H    2.595175   3.782598   2.179890   3.066547   2.808374
    25  H    3.781549   4.316949   2.180232   2.503430   2.740388
    26  H    3.169738   3.858831   2.198139   2.497249   3.490897
    27  C    2.789431   2.740055   3.926534   4.160248   5.055888
    28  H    2.544395   2.722607   4.185378   4.626258   5.066995
    29  O    3.790611   2.569354   4.444761   4.369799   5.173826
    30  O    4.875531   3.776053   5.472723   5.271931   6.340741
                   16         17         18         19         20
    16  H    0.000000
    17  H    1.767046   0.000000
    18  H    1.768196   1.768602   0.000000
    19  C    7.321904   7.683084   7.082242   0.000000
    20  H    7.489192   7.894737   7.486543   1.096123   0.000000
    21  H    8.345157   8.673040   8.001509   1.093056   1.764017
    22  H    6.955479   7.082306   6.572528   1.091440   1.767581
    23  C    2.798404   2.759408   3.484756   5.800880   5.710386
    24  H    2.638517   3.147770   3.818103   6.198122   6.009006
    25  H    3.105714   2.522556   3.747426   6.695061   6.595565
    26  H    3.822709   3.757171   4.346996   5.079676   4.876958
    27  C    5.252837   6.004064   5.126072   2.537091   2.983500
    28  H    5.066247   6.099160   5.083459   3.492889   3.854031
    29  O    5.581212   6.112081   4.759567   3.833066   4.711914
    30  O    6.795561   7.234019   5.955906   3.415630   4.434485
                   21         22         23         24         25
    21  H    0.000000
    22  H    1.762578   0.000000
    23  C    6.866140   5.309881   0.000000
    24  H    7.288501   5.879011   1.096018   0.000000
    25  H    7.734921   6.103894   1.093895   1.766742   0.000000
    26  H    6.131263   4.579127   1.093229   1.768827   1.761532
    27  C    3.420681   2.769543   4.538749   4.714198   5.578146
    28  H    4.291346   3.841682   4.853047   4.822640   5.921552
    29  O    4.330603   3.741988   5.623462   6.001949   6.503765
    30  O    3.601661   3.427697   6.537263   6.969813   7.416003
                   26         27         28         29         30
    26  H    0.000000
    27  C    4.249568   0.000000
    28  H    4.750445   1.086597   0.000000
    29  O    5.597178   2.310021   2.499759   0.000000
    30  O    6.339036   2.767606   3.155010   1.275749   0.000000
 Stoichiometry    C9H19O2(2)
 Framework group  C1[X(C9H19O2)]
 Deg. of freedom    84
 Full point group                 C1      NOp   1
 Largest Abelian subgroup         C1      NOp   1
 Largest concise Abelian subgroup C1      NOp   1
                         Standard orientation:                         
 ---------------------------------------------------------------------
 Center     Atomic      Atomic             Coordinates (Angstroms)
 Number     Number       Type             X           Y           Z
 ---------------------------------------------------------------------
      1          6           0       -3.353549   -0.640082    1.164246
      2          1           0       -3.210015    0.081052    1.972593
      3          1           0       -3.386824   -1.642017    1.606207
      4          1           0       -4.331722   -0.448328    0.714356
      5          6           0       -2.236176   -0.541621    0.122025
      6          1           0       -2.458519    0.632733   -0.407648
      7          6           0        0.334667   -0.514328   -0.113267
      8          1           0        0.244950   -0.330245   -1.189880
      9          1           0        0.492465   -1.599168   -0.016109
     10          6           0        1.541961    0.246919    0.449628
     11          1           0        1.660751    0.000096    1.513564
     12          1           0        1.324365    1.317870    0.402022
     13          6           0        2.872768   -0.022655   -0.276294
     14          1           0        2.716722    0.188863   -1.343216
     15          6           0        3.960596    0.932764    0.233996
     16          1           0        4.155321    0.768841    1.299735
     17          1           0        4.902619    0.782697   -0.301454
     18          1           0        3.664460    1.977887    0.106512
     19          6           0       -2.394775   -1.498314   -1.059614
     20          1           0       -2.246429   -2.537330   -0.743506
     21          1           0       -3.401620   -1.425276   -1.478779
     22          1           0       -1.686957   -1.289860   -1.863842
     23          6           0        3.333675   -1.481936   -0.145937
     24          1           0        3.477722   -1.750729    0.906800
     25          1           0        4.286885   -1.637192   -0.659642
     26          1           0        2.614870   -2.185087   -0.574945
     27          6           0       -0.957683   -0.189339    0.570779
     28          1           0       -0.873496    0.218852    1.574266
     29          8           0       -1.086873    1.993889   -0.172877
     30          8           0       -2.232433    1.897098   -0.725923
 ---------------------------------------------------------------------
 Rotational constants (GHZ):      1.6682790      0.4731282      0.4118379
 Leave Link  202 at Mon Feb 24 15:11:15 2014, MaxMem= 4026531840 cpu:       0.6
 (Enter /usr/caen/gaussian-09revc/g09/l301.exe)
 Standard basis: 6-311G(2d,d,p) (5D, 7F)
 Ernie: Thresh=  0.10000D-02 Tol=  0.10000D-05 Strict=F.
 There are   312 symmetry adapted basis functions of A   symmetry.
 Integral buffers will be    131072 words long.
 Raffenetti 2 integral format.
 Two-electron integral symmetry is turned on.
   312 basis functions,   504 primitive gaussians,   323 cartesian basis functions
    45 alpha electrons       44 beta electrons
       nuclear repulsion energy       650.6702276596 Hartrees.
 IExCor=  402 DFT=T Ex+Corr=B3LYP ExCW=0 ScaHFX=  0.200000
 ScaDFX=  0.800000  0.720000  1.000000  0.810000 ScalE2=  1.000000  1.000000
 IRadAn=      0 IRanWt=     -1 IRanGd=            0 ICorTp=0
 NAtoms=   30 NActive=   30 NUniq=   30 SFac= 1.00D+00 NAtFMM=   60 NAOKFM=F Big=F
 Leave Link  301 at Mon Feb 24 15:11:15 2014, MaxMem= 4026531840 cpu:       0.5
 (Enter /usr/caen/gaussian-09revc/g09/l302.exe)
 NPDir=0 NMtPBC=     1 NCelOv=     1 NCel=       1 NClECP=     1 NCelD=      1
         NCelK=      1 NCelE2=     1 NClLst=     1 CellRange=     0.0.
 One-electron integrals computed using PRISM.
 NBasis=   312 RedAO= T  NBF=   312
 NBsUse=   312 1.00D-06 NBFU=   312
 Precomputing XC quadrature grid using
 IXCGrd= 2 IRadAn=           0 IRanWt=          -1 IRanGd=           0 AccXCQ= 0.00D+00.
 NRdTot=    1912 NPtTot=      243698 NUsed=      257485 NTot=      257517
 NSgBfM=   323   323   323   323   323 NAtAll=    30    30.
 Leave Link  302 at Mon Feb 24 15:11:18 2014, MaxMem= 4026531840 cpu:       9.1
 (Enter /usr/caen/gaussian-09revc/g09/l303.exe)
 DipDrv:  MaxL=1.
 Leave Link  303 at Mon Feb 24 15:11:18 2014, MaxMem= 4026531840 cpu:       1.8
 (Enter /usr/caen/gaussian-09revc/g09/l401.exe)
 Harris functional with IExCor=  402 diagonalized for initial guess.
 ExpMin= 1.03D-01 ExpMax= 8.59D+03 ExpMxC= 1.30D+03 IAcc=1 IRadAn=         1 AccDes= 0.00D+00
 HarFok:  IExCor=  402 AccDes= 0.00D+00 IRadAn=         1 IDoV= 1
 ScaDFX=  1.000000  1.000000  1.000000  1.000000
 FoFCou: FMM=F IPFlag=           0 FMFlag=      100000 FMFlg1=           0
         NFxFlg=           0 DoJE=T BraDBF=F KetDBF=T FulRan=T
         Omega=  0.000000  0.000000  1.000000  0.000000  0.000000 ICntrl=     500 IOpCl=  0
         NMat0=    1 NMatS0=    1 NMatT0=    0 NMatD0=    1 NMtDS0=    0 NMtDT0=    0
         I1Cent=           4 NGrid=           0.
 Petite list used in FoFCou.
 Harris En= -504.898271047756    
 Initial guess orbital symmetries:
 Alpha Orbitals:
       Occupied  (A) (A) (A) (A) (A) (A) (A) (A) (A) (A) (A) (A)
                 (A) (A) (A) (A) (A) (A) (A) (A) (A) (A) (A) (A)
                 (A) (A) (A) (A) (A) (A) (A) (A) (A) (A) (A) (A)
                 (A) (A) (A) (A) (A) (A) (A) (A) (A)
       Virtual   (A) (A) (A) (A) (A) (A) (A) (A) (A) (A) (A) (A)
                 (A) (A) (A) (A) (A) (A) (A) (A) (A) (A) (A) (A)
                 (A) (A) (A) (A) (A) (A) (A) (A) (A) (A) (A) (A)
                 (A) (A) (A) (A) (A) (A) (A) (A) (A) (A) (A) (A)
                 (A) (A) (A) (A) (A) (A) (A) (A) (A) (A) (A) (A)
                 (A) (A) (A) (A) (A) (A) (A) (A) (A) (A) (A) (A)
                 (A) (A) (A) (A) (A) (A) (A) (A) (A) (A) (A) (A)
                 (A) (A) (A) (A) (A) (A) (A) (A) (A) (A) (A) (A)
                 (A) (A) (A) (A) (A) (A) (A) (A) (A) (A) (A) (A)
                 (A) (A) (A) (A) (A) (A) (A) (A) (A) (A) (A) (A)
                 (A) (A) (A) (A) (A) (A) (A) (A) (A) (A) (A) (A)
                 (A) (A) (A) (A) (A) (A) (A) (A) (A) (A) (A) (A)
                 (A) (A) (A) (A) (A) (A) (A) (A) (A) (A) (A) (A)
                 (A) (A) (A) (A) (A) (A) (A) (A) (A) (A) (A) (A)
                 (A) (A) (A) (A) (A) (A) (A) (A) (A) (A) (A) (A)
                 (A) (A) (A) (A) (A) (A) (A) (A) (A) (A) (A) (A)
                 (A) (A) (A) (A) (A) (A) (A) (A) (A) (A) (A) (A)
                 (A) (A) (A) (A) (A) (A) (A) (A) (A) (A) (A) (A)
                 (A) (A) (A) (A) (A) (A) (A) (A) (A) (A) (A) (A)
                 (A) (A) (A) (A) (A) (A) (A) (A) (A) (A) (A) (A)
                 (A) (A) (A) (A) (A) (A) (A) (A) (A) (A) (A) (A)
                 (A) (A) (A) (A) (A) (A) (A) (A) (A) (A) (A) (A)
                 (A) (A) (A)
 Beta  Orbitals:
       Occupied  (A) (A) (A) (A) (A) (A) (A) (A) (A) (A) (A) (A)
                 (A) (A) (A) (A) (A) (A) (A) (A) (A) (A) (A) (A)
                 (A) (A) (A) (A) (A) (A) (A) (A) (A) (A) (A) (A)
                 (A) (A) (A) (A) (A) (A) (A) (A)
       Virtual   (A) (A) (A) (A) (A) (A) (A) (A) (A) (A) (A) (A)
                 (A) (A) (A) (A) (A) (A) (A) (A) (A) (A) (A) (A)
                 (A) (A) (A) (A) (A) (A) (A) (A) (A) (A) (A) (A)
                 (A) (A) (A) (A) (A) (A) (A) (A) (A) (A) (A) (A)
                 (A) (A) (A) (A) (A) (A) (A) (A) (A) (A) (A) (A)
                 (A) (A) (A) (A) (A) (A) (A) (A) (A) (A) (A) (A)
                 (A) (A) (A) (A) (A) (A) (A) (A) (A) (A) (A) (A)
                 (A) (A) (A) (A) (A) (A) (A) (A) (A) (A) (A) (A)
                 (A) (A) (A) (A) (A) (A) (A) (A) (A) (A) (A) (A)
                 (A) (A) (A) (A) (A) (A) (A) (A) (A) (A) (A) (A)
                 (A) (A) (A) (A) (A) (A) (A) (A) (A) (A) (A) (A)
                 (A) (A) (A) (A) (A) (A) (A) (A) (A) (A) (A) (A)
                 (A) (A) (A) (A) (A) (A) (A) (A) (A) (A) (A) (A)
                 (A) (A) (A) (A) (A) (A) (A) (A) (A) (A) (A) (A)
                 (A) (A) (A) (A) (A) (A) (A) (A) (A) (A) (A) (A)
                 (A) (A) (A) (A) (A) (A) (A) (A) (A) (A) (A) (A)
                 (A) (A) (A) (A) (A) (A) (A) (A) (A) (A) (A) (A)
                 (A) (A) (A) (A) (A) (A) (A) (A) (A) (A) (A) (A)
                 (A) (A) (A) (A) (A) (A) (A) (A) (A) (A) (A) (A)
                 (A) (A) (A) (A) (A) (A) (A) (A) (A) (A) (A) (A)
                 (A) (A) (A) (A) (A) (A) (A) (A) (A) (A) (A) (A)
                 (A) (A) (A) (A) (A) (A) (A) (A) (A) (A) (A) (A)
                 (A) (A) (A) (A)
 The electronic state of the initial guess is 2-A.
 Initial guess <Sx>= 0.0000 <Sy>= 0.0000 <Sz>= 0.5000 <S**2>= 0.7500 S= 0.5000
 Leave Link  401 at Mon Feb 24 15:11:21 2014, MaxMem= 4026531840 cpu:      13.8
 (Enter /usr/caen/gaussian-09revc/g09/l502.exe)
 UHF open shell SCF:
 Requested convergence on RMS density matrix=1.00D-08 within 128 cycles.
 Requested convergence on MAX density matrix=1.00D-06.
 Requested convergence on             energy=1.00D-06.
 No special actions if energy rises.
 Using DIIS extrapolation, IDIIS=  1040.
 Integral symmetry usage will be decided dynamically.
       257202 words used for storage of precomputed grid.
 Keep R1 and R2 ints in memory in canonical form, NReq=2755661933.
 IEnd=      593360 IEndB=      593360 NGot=  4026531840 MDV=  1287997143
 LenX=  1287997143 LenY=  1287892373
 Symmetry not used in FoFDir.
 MinBra= 0 MaxBra= 2 Meth= 1.
 IRaf=       0 NMat=   1 IRICut=       1 DoRegI=T DoRafI=F ISym2E= 0 JSym2E=0.
 Integral accuracy reduced to 1.0D-05 until final iterations.

 Cycle   1  Pass 0  IDiag  1:
 E= -504.425449733933    
 DIIS: error= 3.19D-02 at cycle   1 NSaved=   1.
 NSaved= 1 IEnMin= 1 EnMin= -504.425449733933     IErMin= 1 ErrMin= 3.19D-02
 ErrMax= 3.19D-02 EMaxC= 1.00D-01 BMatC= 1.60D+00 BMatP= 1.60D+00
 IDIUse=3 WtCom= 6.81D-01 WtEn= 3.19D-01
 Coeff-Com:  0.100D+01
 Coeff-En:   0.100D+01
 Coeff:      0.100D+01
 Gap=     0.340 Goal=   None    Shift=    0.000
 Gap=     0.071 Goal=   None    Shift=    0.000
 GapD=    0.071 DampG=0.500 DampE=0.500 DampFc=0.2500 IDamp=-1.
 Damping current iteration by 2.50D-01
 RMSDP=3.51D-03 MaxDP=1.20D-01              OVMax= 2.29D-01

 Cycle   2  Pass 0  IDiag  1:
 E= -504.573954233287     Delta-E=       -0.148504499354 Rises=F Damp=T
 DIIS: error= 1.92D-02 at cycle   2 NSaved=   2.
 NSaved= 2 IEnMin= 2 EnMin= -504.573954233287     IErMin= 2 ErrMin= 1.92D-02
 ErrMax= 1.92D-02 EMaxC= 1.00D-01 BMatC= 3.87D-01 BMatP= 1.60D+00
 IDIUse=3 WtCom= 8.08D-01 WtEn= 1.92D-01
 Coeff-Com: -0.768D+00 0.177D+01
 Coeff-En:   0.000D+00 0.100D+01
 Coeff:     -0.621D+00 0.162D+01
 Gap=     0.261 Goal=   None    Shift=    0.000
 Gap=     0.231 Goal=   None    Shift=    0.000
 RMSDP=9.64D-04 MaxDP=3.54D-02 DE=-1.49D-01 OVMax= 2.99D-01

 Cycle   3  Pass 0  IDiag  1:
 E= -504.807953262780     Delta-E=       -0.233999029493 Rises=F Damp=F
 DIIS: error= 9.85D-03 at cycle   3 NSaved=   3.
 NSaved= 3 IEnMin= 3 EnMin= -504.807953262780     IErMin= 3 ErrMin= 9.85D-03
 ErrMax= 9.85D-03 EMaxC= 1.00D-01 BMatC= 9.37D-02 BMatP= 3.87D-01
 IDIUse=3 WtCom= 9.01D-01 WtEn= 9.85D-02
 Coeff-Com: -0.365D+00 0.846D+00 0.519D+00
 Coeff-En:   0.000D+00 0.000D+00 0.100D+01
 Coeff:     -0.329D+00 0.762D+00 0.567D+00
 Gap=     0.204 Goal=   None    Shift=    0.000
 Gap=     0.130 Goal=   None    Shift=    0.000
 RMSDP=6.35D-04 MaxDP=3.11D-02 DE=-2.34D-01 OVMax= 1.39D-01

 Cycle   4  Pass 0  IDiag  1:
 E= -504.815300047500     Delta-E=       -0.007346784720 Rises=F Damp=F
 DIIS: error= 1.08D-02 at cycle   4 NSaved=   4.
 NSaved= 4 IEnMin= 4 EnMin= -504.815300047500     IErMin= 3 ErrMin= 9.85D-03
 ErrMax= 1.08D-02 EMaxC= 1.00D-01 BMatC= 6.29D-02 BMatP= 9.37D-02
 IDIUse=3 WtCom= 8.92D-01 WtEn= 1.08D-01
 Coeff-Com: -0.651D-01 0.172D+00 0.434D+00 0.459D+00
 Coeff-En:   0.000D+00 0.000D+00 0.420D+00 0.580D+00
 Coeff:     -0.581D-01 0.153D+00 0.432D+00 0.472D+00
 Gap=     0.197 Goal=   None    Shift=    0.000
 Gap=     0.141 Goal=   None    Shift=    0.000
 RMSDP=2.92D-04 MaxDP=1.36D-02 DE=-7.35D-03 OVMax= 6.18D-02

 Cycle   5  Pass 0  IDiag  1:
 E= -504.828096275271     Delta-E=       -0.012796227770 Rises=F Damp=F
 DIIS: error= 4.65D-03 at cycle   5 NSaved=   5.
 NSaved= 5 IEnMin= 5 EnMin= -504.828096275271     IErMin= 5 ErrMin= 4.65D-03
 ErrMax= 4.65D-03 EMaxC= 1.00D-01 BMatC= 5.23D-03 BMatP= 6.29D-02
 IDIUse=3 WtCom= 9.54D-01 WtEn= 4.65D-02
 Coeff-Com: -0.474D-02 0.259D-01 0.246D+00 0.314D+00 0.419D+00
 Coeff-En:   0.000D+00 0.000D+00 0.000D+00 0.000D+00 0.100D+01
 Coeff:     -0.452D-02 0.247D-01 0.234D+00 0.300D+00 0.446D+00
 Gap=     0.197 Goal=   None    Shift=    0.000
 Gap=     0.146 Goal=   None    Shift=    0.000
 RMSDP=9.76D-05 MaxDP=5.28D-03 DE=-1.28D-02 OVMax= 1.64D-02

 Cycle   6  Pass 0  IDiag  1:
 E= -504.828915319130     Delta-E=       -0.000819043860 Rises=F Damp=F
 DIIS: error= 2.04D-03 at cycle   6 NSaved=   6.
 NSaved= 6 IEnMin= 6 EnMin= -504.828915319130     IErMin= 6 ErrMin= 2.04D-03
 ErrMax= 2.04D-03 EMaxC= 1.00D-01 BMatC= 1.13D-03 BMatP= 5.23D-03
 IDIUse=3 WtCom= 9.80D-01 WtEn= 2.04D-02
 Coeff-Com:  0.646D-02-0.966D-02 0.760D-01 0.106D+00 0.326D+00 0.495D+00
 Coeff-En:   0.000D+00 0.000D+00 0.000D+00 0.000D+00 0.205D+00 0.795D+00
 Coeff:      0.632D-02-0.946D-02 0.745D-01 0.104D+00 0.324D+00 0.501D+00
 Gap=     0.197 Goal=   None    Shift=    0.000
 Gap=     0.145 Goal=   None    Shift=    0.000
 RMSDP=3.58D-05 MaxDP=1.92D-03 DE=-8.19D-04 OVMax= 6.99D-03

 Cycle   7  Pass 0  IDiag  1:
 E= -504.829118941292     Delta-E=       -0.000203622161 Rises=F Damp=F
 DIIS: error= 2.46D-04 at cycle   7 NSaved=   7.
 NSaved= 7 IEnMin= 7 EnMin= -504.829118941292     IErMin= 7 ErrMin= 2.46D-04
 ErrMax= 2.46D-04 EMaxC= 1.00D-01 BMatC= 7.46D-05 BMatP= 1.13D-03
 IDIUse=3 WtCom= 9.98D-01 WtEn= 2.46D-03
 Coeff-Com:  0.468D-02-0.947D-02 0.125D-01 0.198D-01 0.141D+00 0.285D+00
 Coeff-Com:  0.546D+00
 Coeff-En:   0.000D+00 0.000D+00 0.000D+00 0.000D+00 0.000D+00 0.000D+00
 Coeff-En:   0.100D+01
 Coeff:      0.467D-02-0.944D-02 0.125D-01 0.197D-01 0.141D+00 0.285D+00
 Coeff:      0.547D+00
 Gap=     0.198 Goal=   None    Shift=    0.000
 Gap=     0.145 Goal=   None    Shift=    0.000
 RMSDP=1.48D-05 MaxDP=8.22D-04 DE=-2.04D-04 OVMax= 4.06D-03

 Cycle   8  Pass 0  IDiag  1:
 E= -504.829143409885     Delta-E=       -0.000024468593 Rises=F Damp=F
 DIIS: error= 1.46D-04 at cycle   8 NSaved=   8.
 NSaved= 8 IEnMin= 8 EnMin= -504.829143409885     IErMin= 8 ErrMin= 1.46D-04
 ErrMax= 1.46D-04 EMaxC= 1.00D-01 BMatC= 8.33D-06 BMatP= 7.46D-05
 IDIUse=3 WtCom= 9.99D-01 WtEn= 1.46D-03
 Coeff-Com: -0.632D-03 0.497D-03-0.110D-01-0.138D-01-0.230D-01-0.349D-01
 Coeff-Com:  0.153D+00 0.930D+00
 Coeff-En:   0.000D+00 0.000D+00 0.000D+00 0.000D+00 0.000D+00 0.000D+00
 Coeff-En:   0.000D+00 0.100D+01
 Coeff:     -0.631D-03 0.497D-03-0.110D-01-0.137D-01-0.230D-01-0.349D-01
 Coeff:      0.153D+00 0.930D+00
 Gap=     0.198 Goal=   None    Shift=    0.000
 Gap=     0.145 Goal=   None    Shift=    0.000
 RMSDP=1.27D-05 MaxDP=7.64D-04 DE=-2.45D-05 OVMax= 3.88D-03

 Cycle   9  Pass 0  IDiag  1:
 E= -504.829152967980     Delta-E=       -0.000009558095 Rises=F Damp=F
 DIIS: error= 7.79D-05 at cycle   9 NSaved=   9.
 NSaved= 9 IEnMin= 9 EnMin= -504.829152967980     IErMin= 9 ErrMin= 7.79D-05
 ErrMax= 7.79D-05 EMaxC= 1.00D-01 BMatC= 3.45D-06 BMatP= 8.33D-06
 IDIUse=1 WtCom= 1.00D+00 WtEn= 0.00D+00
 Coeff-Com: -0.174D-02 0.312D-02-0.849D-02-0.120D-01-0.493D-01-0.102D+00
 Coeff-Com: -0.774D-01 0.438D+00 0.810D+00
 Coeff:     -0.174D-02 0.312D-02-0.849D-02-0.120D-01-0.493D-01-0.102D+00
 Coeff:     -0.774D-01 0.438D+00 0.810D+00
 Gap=     0.198 Goal=   None    Shift=    0.000
 Gap=     0.145 Goal=   None    Shift=    0.000
 RMSDP=9.72D-06 MaxDP=6.35D-04 DE=-9.56D-06 OVMax= 2.83D-03

 Initial convergence to 1.0D-05 achieved.  Increase integral accuracy.
 Cycle  10  Pass 1  IDiag  1:
 E= -504.829164075606     Delta-E=       -0.000011107625 Rises=F Damp=F
 DIIS: error= 4.19D-05 at cycle   1 NSaved=   1.
 NSaved= 1 IEnMin= 1 EnMin= -504.829164075606     IErMin= 1 ErrMin= 4.19D-05
 ErrMax= 4.19D-05 EMaxC= 1.00D-01 BMatC= 1.48D-06 BMatP= 1.48D-06
 IDIUse=1 WtCom= 1.00D+00 WtEn= 0.00D+00
 Coeff-Com:  0.100D+01
 Coeff:      0.100D+01
 Gap=     0.199 Goal=   None    Shift=    0.000
 Gap=     0.145 Goal=   None    Shift=    0.000
 RMSDP=9.72D-06 MaxDP=6.35D-04 DE=-1.11D-05 OVMax= 1.42D-03

 Cycle  11  Pass 1  IDiag  1:
 E= -504.829165490086     Delta-E=       -0.000001414480 Rises=F Damp=F
 DIIS: error= 3.72D-05 at cycle   2 NSaved=   2.
 NSaved= 2 IEnMin= 2 EnMin= -504.829165490086     IErMin= 2 ErrMin= 3.72D-05
 ErrMax= 3.72D-05 EMaxC= 1.00D-01 BMatC= 1.34D-06 BMatP= 1.48D-06
 IDIUse=1 WtCom= 1.00D+00 WtEn= 0.00D+00
 Coeff-Com:  0.478D+00 0.522D+00
 Coeff:      0.478D+00 0.522D+00
 Gap=     0.199 Goal=   None    Shift=    0.000
 Gap=     0.145 Goal=   None    Shift=    0.000
 RMSDP=2.42D-06 MaxDP=1.45D-04 DE=-1.41D-06 OVMax= 6.09D-04

 Cycle  12  Pass 1  IDiag  1:
 E= -504.829166112729     Delta-E=       -0.000000622643 Rises=F Damp=F
 DIIS: error= 2.81D-05 at cycle   3 NSaved=   3.
 NSaved= 3 IEnMin= 3 EnMin= -504.829166112729     IErMin= 3 ErrMin= 2.81D-05
 ErrMax= 2.81D-05 EMaxC= 1.00D-01 BMatC= 3.54D-07 BMatP= 1.34D-06
 IDIUse=1 WtCom= 1.00D+00 WtEn= 0.00D+00
 Coeff-Com: -0.294D+00 0.171D+00 0.112D+01
 Coeff:     -0.294D+00 0.171D+00 0.112D+01
 Gap=     0.199 Goal=   None    Shift=    0.000
 Gap=     0.145 Goal=   None    Shift=    0.000
 RMSDP=3.77D-06 MaxDP=2.32D-04 DE=-6.23D-07 OVMax= 1.18D-03

 Cycle  13  Pass 1  IDiag  1:
 E= -504.829166782671     Delta-E=       -0.000000669943 Rises=F Damp=F
 DIIS: error= 1.91D-05 at cycle   4 NSaved=   4.
 NSaved= 4 IEnMin= 4 EnMin= -504.829166782671     IErMin= 4 ErrMin= 1.91D-05
 ErrMax= 1.91D-05 EMaxC= 1.00D-01 BMatC= 1.37D-07 BMatP= 3.54D-07
 IDIUse=1 WtCom= 1.00D+00 WtEn= 0.00D+00
 Coeff-Com: -0.252D+00-0.741D-01 0.479D+00 0.847D+00
 Coeff:     -0.252D+00-0.741D-01 0.479D+00 0.847D+00
 Gap=     0.199 Goal=   None    Shift=    0.000
 Gap=     0.145 Goal=   None    Shift=    0.000
 RMSDP=2.43D-06 MaxDP=1.74D-04 DE=-6.70D-07 OVMax= 8.20D-04

 Cycle  14  Pass 1  IDiag  1:
 E= -504.829167009326     Delta-E=       -0.000000226655 Rises=F Damp=F
 DIIS: error= 1.64D-05 at cycle   5 NSaved=   5.
 NSaved= 5 IEnMin= 5 EnMin= -504.829167009326     IErMin= 5 ErrMin= 1.64D-05
 ErrMax= 1.64D-05 EMaxC= 1.00D-01 BMatC= 1.12D-07 BMatP= 1.37D-07
 IDIUse=1 WtCom= 1.00D+00 WtEn= 0.00D+00
 Coeff-Com: -0.408D-01-0.196D+00-0.321D+00 0.777D+00 0.781D+00
 Coeff:     -0.408D-01-0.196D+00-0.321D+00 0.777D+00 0.781D+00
 Gap=     0.199 Goal=   None    Shift=    0.000
 Gap=     0.145 Goal=   None    Shift=    0.000
 RMSDP=2.40D-06 MaxDP=1.56D-04 DE=-2.27D-07 OVMax= 8.03D-04

 Cycle  15  Pass 1  IDiag  1:
 E= -504.829167124604     Delta-E=       -0.000000115278 Rises=F Damp=F
 DIIS: error= 7.06D-06 at cycle   6 NSaved=   6.
 NSaved= 6 IEnMin= 6 EnMin= -504.829167124604     IErMin= 6 ErrMin= 7.06D-06
 ErrMax= 7.06D-06 EMaxC= 1.00D-01 BMatC= 3.45D-08 BMatP= 1.12D-07
 IDIUse=1 WtCom= 1.00D+00 WtEn= 0.00D+00
 Coeff-Com:  0.193D-01-0.129D+00-0.323D+00 0.416D+00 0.564D+00 0.452D+00
 Coeff:      0.193D-01-0.129D+00-0.323D+00 0.416D+00 0.564D+00 0.452D+00
 Gap=     0.199 Goal=   None    Shift=    0.000
 Gap=     0.145 Goal=   None    Shift=    0.000
 RMSDP=5.28D-07 MaxDP=4.04D-05 DE=-1.15D-07 OVMax= 1.87D-04

 Cycle  16  Pass 1  IDiag  1:
 E= -504.829167135062     Delta-E=       -0.000000010458 Rises=F Damp=F
 DIIS: error= 2.69D-06 at cycle   7 NSaved=   7.
 NSaved= 7 IEnMin= 7 EnMin= -504.829167135062     IErMin= 7 ErrMin= 2.69D-06
 ErrMax= 2.69D-06 EMaxC= 1.00D-01 BMatC= 2.13D-09 BMatP= 3.45D-08
 IDIUse=1 WtCom= 1.00D+00 WtEn= 0.00D+00
 Coeff-Com:  0.145D-01-0.615D-01-0.164D+00 0.183D+00 0.274D+00 0.274D+00
 Coeff-Com:  0.480D+00
 Coeff:      0.145D-01-0.615D-01-0.164D+00 0.183D+00 0.274D+00 0.274D+00
 Coeff:      0.480D+00
 Gap=     0.199 Goal=   None    Shift=    0.000
 Gap=     0.145 Goal=   None    Shift=    0.000
 RMSDP=7.37D-08 MaxDP=3.44D-06 DE=-1.05D-08 OVMax= 1.57D-05

 Cycle  17  Pass 1  IDiag  1:
 E= -504.829167135369     Delta-E=       -0.000000000307 Rises=F Damp=F
 DIIS: error= 1.95D-06 at cycle   8 NSaved=   8.
 NSaved= 8 IEnMin= 8 EnMin= -504.829167135369     IErMin= 8 ErrMin= 1.95D-06
 ErrMax= 1.95D-06 EMaxC= 1.00D-01 BMatC= 6.31D-10 BMatP= 2.13D-09
 IDIUse=1 WtCom= 1.00D+00 WtEn= 0.00D+00
 Coeff-Com:  0.669D-02-0.194D-01-0.561D-01 0.502D-01 0.898D-01 0.113D+00
 Coeff-Com:  0.352D+00 0.464D+00
 Coeff:      0.669D-02-0.194D-01-0.561D-01 0.502D-01 0.898D-01 0.113D+00
 Coeff:      0.352D+00 0.464D+00
 Gap=     0.199 Goal=   None    Shift=    0.000
 Gap=     0.145 Goal=   None    Shift=    0.000
 RMSDP=3.34D-08 MaxDP=1.74D-06 DE=-3.07D-10 OVMax= 7.18D-06

 Cycle  18  Pass 1  IDiag  1:
 E= -504.829167135502     Delta-E=       -0.000000000133 Rises=F Damp=F
 DIIS: error= 4.54D-07 at cycle   9 NSaved=   9.
 NSaved= 9 IEnMin= 9 EnMin= -504.829167135502     IErMin= 9 ErrMin= 4.54D-07
 ErrMax= 4.54D-07 EMaxC= 1.00D-01 BMatC= 7.15D-11 BMatP= 6.31D-10
 IDIUse=1 WtCom= 1.00D+00 WtEn= 0.00D+00
 Coeff-Com: -0.543D-03 0.562D-02 0.150D-01-0.215D-01-0.237D-01-0.154D-01
 Coeff-Com:  0.331D-02 0.243D+00 0.795D+00
 Coeff:     -0.543D-03 0.562D-02 0.150D-01-0.215D-01-0.237D-01-0.154D-01
 Coeff:      0.331D-02 0.243D+00 0.795D+00
 Gap=     0.199 Goal=   None    Shift=    0.000
 Gap=     0.145 Goal=   None    Shift=    0.000
 RMSDP=1.56D-08 MaxDP=7.89D-07 DE=-1.33D-10 OVMax= 3.51D-06

 Cycle  19  Pass 1  IDiag  1:
 E= -504.829167135523     Delta-E=       -0.000000000021 Rises=F Damp=F
 DIIS: error= 1.46D-07 at cycle  10 NSaved=  10.
 NSaved=10 IEnMin=10 EnMin= -504.829167135523     IErMin=10 ErrMin= 1.46D-07
 ErrMax= 1.46D-07 EMaxC= 1.00D-01 BMatC= 1.04D-11 BMatP= 7.15D-11
 IDIUse=1 WtCom= 1.00D+00 WtEn= 0.00D+00
 Coeff-Com: -0.187D-02 0.708D-02 0.206D-01-0.222D-01-0.320D-01-0.329D-01
 Coeff-Com: -0.968D-01 0.203D-01 0.317D+00 0.821D+00
 Coeff:     -0.187D-02 0.708D-02 0.206D-01-0.222D-01-0.320D-01-0.329D-01
 Coeff:     -0.968D-01 0.203D-01 0.317D+00 0.821D+00
 Gap=     0.199 Goal=   None    Shift=    0.000
 Gap=     0.145 Goal=   None    Shift=    0.000
 RMSDP=8.51D-09 MaxDP=4.17D-07 DE=-2.09D-11 OVMax= 1.71D-06

 SCF Done:  E(UB3LYP) =  -504.829167136     A.U. after   19 cycles
             Convg  =    0.8509D-08             -V/T =  2.0043
 <Sx>= 0.0000 <Sy>= 0.0000 <Sz>= 0.5000 <S**2>= 0.7615 S= 0.5057
 <L.S>= 0.000000000000E+00
 KE= 5.026780920924D+02 PE=-2.477333886286D+03 EE= 8.191563993986D+02
 Annihilation of the first spin contaminant:
 S**2 before annihilation     0.7615,   after     0.7501
 Leave Link  502 at Mon Feb 24 15:13:23 2014, MaxMem= 4026531840 cpu:     935.1
 (Enter /usr/caen/gaussian-09revc/g09/l801.exe)
 Range of M.O.s used for correlation:     1   312
 NBasis=   312 NAE=    45 NBE=    44 NFC=     0 NFV=     0
 NROrb=    312 NOA=    45 NOB=    44 NVA=   267 NVB=   268
 Leave Link  801 at Mon Feb 24 15:13:24 2014, MaxMem= 4026531840 cpu:       0.3
 (Enter /usr/caen/gaussian-09revc/g09/l1101.exe)
 Using compressed storage, NAtomX=    30.
 Will process  31 centers per pass.
 Leave Link 1101 at Mon Feb 24 15:13:27 2014, MaxMem= 4026531840 cpu:      10.9
 (Enter /usr/caen/gaussian-09revc/g09/l1102.exe)
 Symmetrizing basis deriv contribution to polar:
 IMax=3 JMax=2 DiffMx= 0.00D+00
 Leave Link 1102 at Mon Feb 24 15:13:27 2014, MaxMem= 4026531840 cpu:       1.5
 (Enter /usr/caen/gaussian-09revc/g09/l1110.exe)
 Forming Gx(P) for the SCF density, NAtomX=    30.
 Integral derivatives from FoFDir/FoFCou, PRISM(SPDF).
 Do as many integral derivatives as possible in FoFDir.
 G2DrvN: MDV=    4026531496.
 G2DrvN: will do    31 centers at a time, making    1 passes doing MaxLOS=2.
 Calling FoFCou, ICntrl=  3107 FMM=F I1Cent=   0 AccDes= 0.00D+00.
 FoFCou: FMM=F IPFlag=           0 FMFlag=      100000 FMFlg1=           0
         NFxFlg=           0 DoJE=F BraDBF=F KetDBF=F FulRan=T
         Omega=  0.000000  0.000000  1.000000  0.000000  0.000000 ICntrl=    3107 IOpCl=  1
         NMat0=    1 NMatS0=    1 NMatT0=    0 NMatD0=    1 NMtDS0=    0 NMtDT0=    0
         I1Cent=           0 NGrid=           0.
 Symmetry not used in FoFCou.
 FoFDir/FoFCou used for L=0 through L=2.
 End of G2Drv Frequency-dependent properties file   721 does not exist.
 End of G2Drv Frequency-dependent properties file   722 does not exist.
 Leave Link 1110 at Mon Feb 24 15:15:45 2014, MaxMem= 4026531840 cpu:    1097.5
 (Enter /usr/caen/gaussian-09revc/g09/l1002.exe)
 Minotr:  UHF open shell wavefunction.
          IDoAtm=111111111111111111111111111111
          Direct CPHF calculation.
          Differentiating once with respect to nuclear coordinates.
          Requested convergence is 1.0D-06 RMS, and 1.0D-05 maximum.
          Secondary convergence is 1.0D-12 RMS, and 1.0D-12 maximum.
          NewPWx=T KeepS1=F KeepF1=F KeepIn=T MapXYZ=F SortEE=F KeepMc=T.
          MDV=    4026531536 using IRadAn=       2.
 Generate precomputed XC quadrature information.
          Keep R1 and R2 ints in memory in canonical form, NReq=2738891885.
 Symmetry not used in FoFDir.
 MinBra= 0 MaxBra= 2 Meth= 1.
 IRaf=       0 NMat=   1 IRICut=       1 DoRegI=T DoRafI=F ISym2E= 0 JSym2E=0.
          Solving linear equations simultaneously, MaxMat=       0.
          There are    93 degrees of freedom in the 1st order CPHF.  IDoFFX=5.
     87 vectors produced by pass  0 Test12= 2.56D-10 1.08D-07 XBig12= 2.49D-01 2.17D-01.
 AX will form    87 AO Fock derivatives at one time.
     87 vectors produced by pass  1 Test12= 2.56D-10 1.08D-07 XBig12= 5.43D-02 7.19D-02.
     87 vectors produced by pass  2 Test12= 2.56D-10 1.08D-07 XBig12= 1.21D-04 2.52D-03.
     87 vectors produced by pass  3 Test12= 2.56D-10 1.08D-07 XBig12= 8.23D-07 2.53D-04.
     63 vectors produced by pass  4 Test12= 2.56D-10 1.08D-07 XBig12= 2.23D-09 5.77D-06.
      9 vectors produced by pass  5 Test12= 2.56D-10 1.08D-07 XBig12= 8.37D-12 2.76D-07.
 Inverted reduced A of dimension   420 with in-core refinement.
 End of Minotr Frequency-dependent properties file   721 does not exist.
 End of Minotr Frequency-dependent properties file   722 does not exist.
 Leave Link 1002 at Mon Feb 24 15:19:49 2014, MaxMem= 4026531840 cpu:    1763.4
 (Enter /usr/caen/gaussian-09revc/g09/l601.exe)
 Copying SCF densities to generalized density rwf, IOpCl= 1 IROHF=0.

 **********************************************************************

            Population analysis using the SCF density.

 **********************************************************************

 Orbital symmetries:
 Alpha Orbitals:
       Occupied  (A) (A) (A) (A) (A) (A) (A) (A) (A) (A) (A) (A)
                 (A) (A) (A) (A) (A) (A) (A) (A) (A) (A) (A) (A)
                 (A) (A) (A) (A) (A) (A) (A) (A) (A) (A) (A) (A)
                 (A) (A) (A) (A) (A) (A) (A) (A) (A)
       Virtual   (A) (A) (A) (A) (A) (A) (A) (A) (A) (A) (A) (A)
                 (A) (A) (A) (A) (A) (A) (A) (A) (A) (A) (A) (A)
                 (A) (A) (A) (A) (A) (A) (A) (A) (A) (A) (A) (A)
                 (A) (A) (A) (A) (A) (A) (A) (A) (A) (A) (A) (A)
                 (A) (A) (A) (A) (A) (A) (A) (A) (A) (A) (A) (A)
                 (A) (A) (A) (A) (A) (A) (A) (A) (A) (A) (A) (A)
                 (A) (A) (A) (A) (A) (A) (A) (A) (A) (A) (A) (A)
                 (A) (A) (A) (A) (A) (A) (A) (A) (A) (A) (A) (A)
                 (A) (A) (A) (A) (A) (A) (A) (A) (A) (A) (A) (A)
                 (A) (A) (A) (A) (A) (A) (A) (A) (A) (A) (A) (A)
                 (A) (A) (A) (A) (A) (A) (A) (A) (A) (A) (A) (A)
                 (A) (A) (A) (A) (A) (A) (A) (A) (A) (A) (A) (A)
                 (A) (A) (A) (A) (A) (A) (A) (A) (A) (A) (A) (A)
                 (A) (A) (A) (A) (A) (A) (A) (A) (A) (A) (A) (A)
                 (A) (A) (A) (A) (A) (A) (A) (A) (A) (A) (A) (A)
                 (A) (A) (A) (A) (A) (A) (A) (A) (A) (A) (A) (A)
                 (A) (A) (A) (A) (A) (A) (A) (A) (A) (A) (A) (A)
                 (A) (A) (A) (A) (A) (A) (A) (A) (A) (A) (A) (A)
                 (A) (A) (A) (A) (A) (A) (A) (A) (A) (A) (A) (A)
                 (A) (A) (A) (A) (A) (A) (A) (A) (A) (A) (A) (A)
                 (A) (A) (A) (A) (A) (A) (A) (A) (A) (A) (A) (A)
                 (A) (A) (A) (A) (A) (A) (A) (A) (A) (A) (A) (A)
                 (A) (A) (A)
 Beta  Orbitals:
       Occupied  (A) (A) (A) (A) (A) (A) (A) (A) (A) (A) (A) (A)
                 (A) (A) (A) (A) (A) (A) (A) (A) (A) (A) (A) (A)
                 (A) (A) (A) (A) (A) (A) (A) (A) (A) (A) (A) (A)
                 (A) (A) (A) (A) (A) (A) (A) (A)
       Virtual   (A) (A) (A) (A) (A) (A) (A) (A) (A) (A) (A) (A)
                 (A) (A) (A) (A) (A) (A) (A) (A) (A) (A) (A) (A)
                 (A) (A) (A) (A) (A) (A) (A) (A) (A) (A) (A) (A)
                 (A) (A) (A) (A) (A) (A) (A) (A) (A) (A) (A) (A)
                 (A) (A) (A) (A) (A) (A) (A) (A) (A) (A) (A) (A)
                 (A) (A) (A) (A) (A) (A) (A) (A) (A) (A) (A) (A)
                 (A) (A) (A) (A) (A) (A) (A) (A) (A) (A) (A) (A)
                 (A) (A) (A) (A) (A) (A) (A) (A) (A) (A) (A) (A)
                 (A) (A) (A) (A) (A) (A) (A) (A) (A) (A) (A) (A)
                 (A) (A) (A) (A) (A) (A) (A) (A) (A) (A) (A) (A)
                 (A) (A) (A) (A) (A) (A) (A) (A) (A) (A) (A) (A)
                 (A) (A) (A) (A) (A) (A) (A) (A) (A) (A) (A) (A)
                 (A) (A) (A) (A) (A) (A) (A) (A) (A) (A) (A) (A)
                 (A) (A) (A) (A) (A) (A) (A) (A) (A) (A) (A) (A)
                 (A) (A) (A) (A) (A) (A) (A) (A) (A) (A) (A) (A)
                 (A) (A) (A) (A) (A) (A) (A) (A) (A) (A) (A) (A)
                 (A) (A) (A) (A) (A) (A) (A) (A) (A) (A) (A) (A)
                 (A) (A) (A) (A) (A) (A) (A) (A) (A) (A) (A) (A)
                 (A) (A) (A) (A) (A) (A) (A) (A) (A) (A) (A) (A)
                 (A) (A) (A) (A) (A) (A) (A) (A) (A) (A) (A) (A)
                 (A) (A) (A) (A) (A) (A) (A) (A) (A) (A) (A) (A)
                 (A) (A) (A) (A) (A) (A) (A) (A) (A) (A) (A) (A)
                 (A) (A) (A) (A)
 The electronic state is 2-A.
 Alpha  occ. eigenvalues --  -19.20049 -19.19120 -10.20937 -10.18283 -10.18201
 Alpha  occ. eigenvalues --  -10.17696 -10.17236 -10.17130 -10.16766 -10.16029
 Alpha  occ. eigenvalues --  -10.15774  -1.18928  -0.84019  -0.81433  -0.79275
 Alpha  occ. eigenvalues --   -0.75800  -0.70108  -0.68760  -0.68551  -0.62687
 Alpha  occ. eigenvalues --   -0.56657  -0.54766  -0.51921  -0.48443  -0.47373
 Alpha  occ. eigenvalues --   -0.46830  -0.46495  -0.45664  -0.43490  -0.43207
 Alpha  occ. eigenvalues --   -0.43042  -0.41100  -0.39726  -0.38864  -0.38313
 Alpha  occ. eigenvalues --   -0.37858  -0.36532  -0.36175  -0.34730  -0.33055
 Alpha  occ. eigenvalues --   -0.32831  -0.32460  -0.29074  -0.26185  -0.24459
 Alpha virt. eigenvalues --   -0.04573   0.03579   0.04378   0.05444   0.06793
 Alpha virt. eigenvalues --    0.07548   0.08510   0.09239   0.09634   0.09853
 Alpha virt. eigenvalues --    0.10845   0.11206   0.12188   0.13532   0.14264
 Alpha virt. eigenvalues --    0.14635   0.14934   0.15223   0.16515   0.17733
 Alpha virt. eigenvalues --    0.18715   0.19181   0.20992   0.22016   0.22286
 Alpha virt. eigenvalues --    0.22952   0.25138   0.26404   0.27659   0.27856
 Alpha virt. eigenvalues --    0.28559   0.29676   0.31882   0.32589   0.34009
 Alpha virt. eigenvalues --    0.35070   0.35689   0.38075   0.39873   0.40885
 Alpha virt. eigenvalues --    0.41764   0.44051   0.44608   0.46994   0.47901
 Alpha virt. eigenvalues --    0.49088   0.51413   0.52839   0.53603   0.54384
 Alpha virt. eigenvalues --    0.54672   0.56040   0.57344   0.57581   0.57774
 Alpha virt. eigenvalues --    0.58062   0.58532   0.58726   0.59295   0.60004
 Alpha virt. eigenvalues --    0.60396   0.60565   0.61079   0.61775   0.62594
 Alpha virt. eigenvalues --    0.62669   0.63158   0.64491   0.65289   0.65822
 Alpha virt. eigenvalues --    0.66371   0.69663   0.70519   0.71250   0.75318
 Alpha virt. eigenvalues --    0.77275   0.79442   0.80198   0.82429   0.85092
 Alpha virt. eigenvalues --    0.87364   0.89144   0.91644   0.93170   0.97309
 Alpha virt. eigenvalues --    0.98466   0.99981   1.01307   1.03509   1.05325
 Alpha virt. eigenvalues --    1.07379   1.09099   1.11418   1.12523   1.13761
 Alpha virt. eigenvalues --    1.18583   1.18887   1.21664   1.24106   1.29342
 Alpha virt. eigenvalues --    1.31981   1.33558   1.35232   1.36844   1.38533
 Alpha virt. eigenvalues --    1.39395   1.42050   1.42673   1.44337   1.45340
 Alpha virt. eigenvalues --    1.45488   1.45715   1.46373   1.46672   1.48729
 Alpha virt. eigenvalues --    1.49637   1.50323   1.50702   1.52428   1.53897
 Alpha virt. eigenvalues --    1.55090   1.56280   1.57174   1.58693   1.59677
 Alpha virt. eigenvalues --    1.59839   1.60484   1.61873   1.62799   1.64311
 Alpha virt. eigenvalues --    1.65881   1.67321   1.67685   1.68628   1.69711
 Alpha virt. eigenvalues --    1.70733   1.71922   1.74898   1.75474   1.75526
 Alpha virt. eigenvalues --    1.78056   1.78402   1.79725   1.81481   1.85260
 Alpha virt. eigenvalues --    1.86583   1.88536   1.90668   1.93003   1.94650
 Alpha virt. eigenvalues --    1.95448   1.98157   1.99787   2.00979   2.01549
 Alpha virt. eigenvalues --    2.04526   2.06292   2.08186   2.09009   2.10669
 Alpha virt. eigenvalues --    2.10878   2.14060   2.15596   2.17965   2.18050
 Alpha virt. eigenvalues --    2.24198   2.24271   2.29122   2.30217   2.31547
 Alpha virt. eigenvalues --    2.32487   2.33594   2.34661   2.35520   2.36379
 Alpha virt. eigenvalues --    2.38691   2.39726   2.40372   2.41393   2.43654
 Alpha virt. eigenvalues --    2.44943   2.46908   2.47821   2.48264   2.49427
 Alpha virt. eigenvalues --    2.50396   2.51471   2.51947   2.51997   2.53766
 Alpha virt. eigenvalues --    2.55192   2.55744   2.56394   2.57603   2.58537
 Alpha virt. eigenvalues --    2.59667   2.60938   2.63459   2.63991   2.64623
 Alpha virt. eigenvalues --    2.66995   2.67728   2.68769   2.72612   2.73063
 Alpha virt. eigenvalues --    2.74599   2.76515   2.77601   2.78036   2.82501
 Alpha virt. eigenvalues --    2.84088   2.87292   2.88444   2.89022   2.89465
 Alpha virt. eigenvalues --    2.91022   2.93443   2.94214   2.98581   3.00975
 Alpha virt. eigenvalues --    3.06613   3.08716   3.10656   3.16566   3.22010
 Alpha virt. eigenvalues --    3.29447   3.37159   3.43055   3.43568   3.48191
 Alpha virt. eigenvalues --    3.58121   3.73817   3.75795   3.76622   3.77433
 Alpha virt. eigenvalues --    3.77768   3.79405   3.80695   3.81051   3.81572
 Alpha virt. eigenvalues --    3.84047   3.84389   3.91211   3.96775   4.01307
 Alpha virt. eigenvalues --    4.18408   4.28297   4.29246   4.32457   4.47423
 Alpha virt. eigenvalues --    4.63916   4.72364   4.83809   4.89274   5.10951
 Alpha virt. eigenvalues --    6.05067  23.70163  23.81631  23.87202  23.87507
 Alpha virt. eigenvalues --   23.89508  23.92935  23.93395  23.94062  24.06159
 Alpha virt. eigenvalues --   49.72775  49.76306
  Beta  occ. eigenvalues --  -19.18596 -19.17352 -10.21042 -10.18263 -10.18194
  Beta  occ. eigenvalues --  -10.17696 -10.17238 -10.17133 -10.16766 -10.16029
  Beta  occ. eigenvalues --  -10.15774  -1.15764  -0.84083  -0.81352  -0.76556
  Beta  occ. eigenvalues --   -0.74126  -0.70111  -0.68774  -0.68602  -0.62677
  Beta  occ. eigenvalues --   -0.56658  -0.54631  -0.51208  -0.47314  -0.46973
  Beta  occ. eigenvalues --   -0.46031  -0.44734  -0.43299  -0.43093  -0.42780
  Beta  occ. eigenvalues --   -0.41204  -0.39767  -0.38986  -0.38858  -0.38203
  Beta  occ. eigenvalues --   -0.37869  -0.36528  -0.36180  -0.34721  -0.33043
  Beta  occ. eigenvalues --   -0.32833  -0.32459  -0.28246  -0.23256
  Beta virt. eigenvalues --   -0.08791  -0.04397   0.03591   0.04380   0.05455
  Beta virt. eigenvalues --    0.06796   0.07597   0.08524   0.09275   0.09646
  Beta virt. eigenvalues --    0.09875   0.10872   0.11243   0.12224   0.13542
  Beta virt. eigenvalues --    0.14375   0.14643   0.15034   0.15658   0.16577
  Beta virt. eigenvalues --    0.17774   0.18729   0.19252   0.21155   0.22276
  Beta virt. eigenvalues --    0.22786   0.23263   0.25222   0.26441   0.27683
  Beta virt. eigenvalues --    0.27888   0.28569   0.29738   0.31939   0.32637
  Beta virt. eigenvalues --    0.34011   0.35116   0.35670   0.38133   0.39892
  Beta virt. eigenvalues --    0.40898   0.41811   0.44109   0.44615   0.47066
  Beta virt. eigenvalues --    0.47931   0.49117   0.51410   0.52846   0.53723
  Beta virt. eigenvalues --    0.54462   0.54736   0.56108   0.57350   0.57585
  Beta virt. eigenvalues --    0.57837   0.58068   0.58535   0.58747   0.59307
  Beta virt. eigenvalues --    0.60079   0.60543   0.60590   0.61085   0.61826
  Beta virt. eigenvalues --    0.62578   0.62694   0.63169   0.64541   0.65323
  Beta virt. eigenvalues --    0.65847   0.66404   0.69750   0.70672   0.71354
  Beta virt. eigenvalues --    0.76143   0.77802   0.80503   0.81190   0.83653
  Beta virt. eigenvalues --    0.85693   0.87930   0.89763   0.92339   0.93604
  Beta virt. eigenvalues --    0.97396   0.98885   1.00169   1.01494   1.03591
  Beta virt. eigenvalues --    1.05864   1.07619   1.09378   1.11613   1.12582
  Beta virt. eigenvalues --    1.13811   1.18601   1.18965   1.21680   1.24177
  Beta virt. eigenvalues --    1.29511   1.32075   1.33767   1.35298   1.37051
  Beta virt. eigenvalues --    1.38640   1.39445   1.42131   1.42948   1.44379
  Beta virt. eigenvalues --    1.45377   1.45551   1.45884   1.46390   1.46739
  Beta virt. eigenvalues --    1.48756   1.49648   1.50339   1.50712   1.52475
  Beta virt. eigenvalues --    1.54017   1.55107   1.56331   1.57235   1.58735
  Beta virt. eigenvalues --    1.59714   1.59867   1.60560   1.62011   1.62791
  Beta virt. eigenvalues --    1.64273   1.66033   1.67317   1.67675   1.68637
  Beta virt. eigenvalues --    1.69784   1.70737   1.71923   1.74904   1.75496
  Beta virt. eigenvalues --    1.75571   1.78048   1.78403   1.79704   1.81586
  Beta virt. eigenvalues --    1.85293   1.86662   1.88494   1.90677   1.93003
  Beta virt. eigenvalues --    1.94695   1.95439   1.98162   1.99820   2.00957
  Beta virt. eigenvalues --    2.01554   2.04550   2.06344   2.08201   2.09010
  Beta virt. eigenvalues --    2.10682   2.10900   2.14195   2.15620   2.17982
  Beta virt. eigenvalues --    2.18054   2.24190   2.24296   2.29155   2.30284
  Beta virt. eigenvalues --    2.31759   2.32581   2.33917   2.34982   2.36134
  Beta virt. eigenvalues --    2.38330   2.38685   2.39954   2.40722   2.41622
  Beta virt. eigenvalues --    2.43791   2.44964   2.46924   2.47875   2.48378
  Beta virt. eigenvalues --    2.49441   2.50406   2.51492   2.51978   2.52068
  Beta virt. eigenvalues --    2.53763   2.55216   2.55785   2.56537   2.57927
  Beta virt. eigenvalues --    2.58718   2.59777   2.61288   2.63527   2.64077
  Beta virt. eigenvalues --    2.64777   2.67343   2.68248   2.68977   2.72628
  Beta virt. eigenvalues --    2.73215   2.75215   2.77195   2.78443   2.79548
  Beta virt. eigenvalues --    2.84202   2.84484   2.87764   2.88558   2.89428
  Beta virt. eigenvalues --    2.90720   2.91344   2.93735   2.95307   2.99874
  Beta virt. eigenvalues --    3.01998   3.07696   3.08850   3.10687   3.16736
  Beta virt. eigenvalues --    3.23435   3.29950   3.41906   3.43241   3.44769
  Beta virt. eigenvalues --    3.48266   3.58833   3.74455   3.75919   3.76619
  Beta virt. eigenvalues --    3.77432   3.77781   3.79496   3.80714   3.81262
  Beta virt. eigenvalues --    3.81648   3.84066   3.84406   3.92145   3.96833
  Beta virt. eigenvalues --    4.01294   4.18399   4.28306   4.29247   4.32439
  Beta virt. eigenvalues --    4.47375   4.70141   4.73579   4.85604   4.95786
  Beta virt. eigenvalues --    5.12511   6.06743  23.70123  23.81631  23.87202
  Beta virt. eigenvalues --   23.87508  23.89497  23.92933  23.93395  23.94061
  Beta virt. eigenvalues --   24.06112  49.74418  49.77867
          Condensed to atoms (all electrons):
              1          2          3          4          5          6
     1  C    4.828786   0.399947   0.404106   0.404867   0.364537  -0.024282
     2  H    0.399947   0.572512  -0.027725  -0.026492  -0.027992  -0.003480
     3  H    0.404106  -0.027725   0.587401  -0.033888  -0.041234   0.004274
     4  H    0.404867  -0.026492  -0.033888   0.580099  -0.037849  -0.005345
     5  C    0.364537  -0.027992  -0.041234  -0.037849   5.263159   0.225243
     6  H   -0.024282  -0.003480   0.004274  -0.005345   0.225243   0.500306
     7  C    0.005656   0.000307  -0.000190  -0.000285  -0.059345  -0.001490
     8  H    0.000325  -0.000009  -0.000068   0.000068  -0.000991   0.000233
     9  H   -0.000580  -0.000006   0.000277  -0.000054  -0.007897  -0.000141
    10  C   -0.000225  -0.000021  -0.000022   0.000017   0.005406  -0.000579
    11  H    0.000016   0.000004  -0.000007   0.000002   0.000490  -0.000034
    12  H   -0.000061  -0.000019   0.000007   0.000001  -0.000474   0.000816
    13  C    0.000003   0.000001   0.000000   0.000000  -0.000230   0.000006
    14  H    0.000000   0.000000   0.000000   0.000000   0.000020  -0.000003
    15  C    0.000000   0.000000   0.000000   0.000000   0.000004  -0.000001
    16  H    0.000000   0.000000   0.000000   0.000000   0.000000   0.000000
    17  H    0.000000   0.000000   0.000000   0.000000   0.000000   0.000000
    18  H    0.000000   0.000000   0.000000   0.000000   0.000001  -0.000002
    19  C   -0.060600   0.007243  -0.002368  -0.005204   0.372549  -0.021223
    20  H   -0.003040  -0.000234   0.004855  -0.001282  -0.044114   0.004339
    21  H   -0.006040   0.000060  -0.001296   0.004746  -0.034964  -0.004297
    22  H    0.007121  -0.000433  -0.000190   0.000046  -0.023820  -0.004088
    23  C    0.000000   0.000000   0.000000   0.000000   0.000006  -0.000003
    24  H    0.000000   0.000000   0.000000   0.000000   0.000002   0.000000
    25  H    0.000000   0.000000   0.000000   0.000000  -0.000001   0.000000
    26  H    0.000000   0.000000   0.000000   0.000000   0.000015  -0.000003
    27  C   -0.069129  -0.008178  -0.007136   0.008273   0.470003  -0.012896
    28  H   -0.008625   0.004250   0.000339   0.000304  -0.036946   0.001304
    29  O    0.001199   0.000897  -0.000196  -0.000112  -0.015457  -0.065334
    30  O    0.003121   0.000764  -0.000072   0.002054  -0.078568   0.137552
              7          8          9         10         11         12
     1  C    0.005656   0.000325  -0.000580  -0.000225   0.000016  -0.000061
     2  H    0.000307  -0.000009  -0.000006  -0.000021   0.000004  -0.000019
     3  H   -0.000190  -0.000068   0.000277  -0.000022  -0.000007   0.000007
     4  H   -0.000285   0.000068  -0.000054   0.000017   0.000002   0.000001
     5  C   -0.059345  -0.000991  -0.007897   0.005406   0.000490  -0.000474
     6  H   -0.001490   0.000233  -0.000141  -0.000579  -0.000034   0.000816
     7  C    4.900868   0.404815   0.396681   0.355744  -0.043356  -0.037673
     8  H    0.404815   0.565681  -0.032272  -0.037151   0.008674  -0.004817
     9  H    0.396681  -0.032272   0.586515  -0.037273  -0.007803   0.007265
    10  C    0.355744  -0.037151  -0.037273   4.974962   0.399163   0.414558
    11  H   -0.043356   0.008674  -0.007803   0.399163   0.610322  -0.032235
    12  H   -0.037673  -0.004817   0.007265   0.414558  -0.032235   0.553316
    13  C   -0.050906  -0.002901  -0.005761   0.369900  -0.039405  -0.036047
    14  H   -0.007520   0.005826  -0.000525  -0.047389   0.009993  -0.005817
    15  C    0.007726   0.000030  -0.000091  -0.067076  -0.004356  -0.006130
    16  H   -0.000025   0.000018   0.000019  -0.007246   0.004763  -0.000737
    17  H   -0.000415  -0.000011   0.000019   0.008586  -0.000308   0.000160
    18  H    0.000076   0.000005  -0.000004  -0.005274  -0.000600   0.004549
    19  C   -0.005528  -0.002801   0.002666   0.000250  -0.000049  -0.000005
    20  H    0.000308  -0.000855   0.002089  -0.000123  -0.000010   0.000009
    21  H    0.000269   0.000171  -0.000183   0.000006   0.000002   0.000003
    22  H    0.003006   0.003114  -0.001625   0.000120   0.000003  -0.000060
    23  C   -0.006192  -0.001051   0.003032  -0.067962  -0.008927   0.007844
    24  H   -0.000737   0.000105   0.000483  -0.006348   0.005763  -0.000106
    25  H    0.000022  -0.000095  -0.000076   0.008121  -0.000212  -0.000383
    26  H    0.001483   0.000304   0.000909  -0.005663  -0.000249  -0.000169
    27  C    0.351968  -0.041152  -0.038166  -0.042850  -0.004693  -0.007567
    28  H   -0.043150   0.005536   0.002447  -0.005605   0.003387   0.000809
    29  O   -0.011952   0.000935   0.001334  -0.001879  -0.000107   0.008975
    30  O    0.002329   0.002000  -0.000307   0.000117   0.000012  -0.000625
             13         14         15         16         17         18
     1  C    0.000003   0.000000   0.000000   0.000000   0.000000   0.000000
     2  H    0.000001   0.000000   0.000000   0.000000   0.000000   0.000000
     3  H    0.000000   0.000000   0.000000   0.000000   0.000000   0.000000
     4  H    0.000000   0.000000   0.000000   0.000000   0.000000   0.000000
     5  C   -0.000230   0.000020   0.000004   0.000000   0.000000   0.000001
     6  H    0.000006  -0.000003  -0.000001   0.000000   0.000000  -0.000002
     7  C   -0.050906  -0.007520   0.007726  -0.000025  -0.000415   0.000076
     8  H   -0.002901   0.005826   0.000030   0.000018  -0.000011   0.000005
     9  H   -0.005761  -0.000525  -0.000091   0.000019   0.000019  -0.000004
    10  C    0.369900  -0.047389  -0.067076  -0.007246   0.008586  -0.005274
    11  H   -0.039405   0.009993  -0.004356   0.004763  -0.000308  -0.000600
    12  H   -0.036047  -0.005817  -0.006130  -0.000737   0.000160   0.004549
    13  C    5.031637   0.410011   0.378700  -0.038272  -0.032434  -0.032577
    14  H    0.410011   0.617945  -0.040094   0.009533  -0.006892  -0.006302
    15  C    0.378700  -0.040094   4.859892   0.402202   0.401992   0.403204
    16  H   -0.038272   0.009533   0.402202   0.595444  -0.031383  -0.030549
    17  H   -0.032434  -0.006892   0.401992  -0.031383   0.585827  -0.027368
    18  H   -0.032577  -0.006302   0.403204  -0.030549  -0.027368   0.578844
    19  C    0.000003  -0.000016   0.000000   0.000000   0.000000   0.000000
    20  H    0.000002   0.000000   0.000000   0.000000   0.000000   0.000000
    21  H    0.000000   0.000001   0.000000   0.000000   0.000000   0.000000
    22  H    0.000008  -0.000022   0.000000   0.000000   0.000000   0.000000
    23  C    0.357712  -0.047798  -0.066076  -0.006482  -0.005316   0.008499
    24  H   -0.039917   0.009587  -0.004814   0.004993  -0.000665  -0.000196
    25  H   -0.031408  -0.006229  -0.006324  -0.000620   0.004123   0.000041
    26  H   -0.032474  -0.005891   0.007885  -0.000147   0.000012  -0.000514
    27  C    0.005870  -0.000138  -0.000249  -0.000010   0.000013  -0.000022
    28  H    0.000228   0.000026  -0.000024  -0.000004   0.000002   0.000004
    29  O   -0.000171   0.000005  -0.000002   0.000001   0.000000  -0.000048
    30  O    0.000006  -0.000007   0.000000   0.000000   0.000000   0.000001
             19         20         21         22         23         24
     1  C   -0.060600  -0.003040  -0.006040   0.007121   0.000000   0.000000
     2  H    0.007243  -0.000234   0.000060  -0.000433   0.000000   0.000000
     3  H   -0.002368   0.004855  -0.001296  -0.000190   0.000000   0.000000
[...]
 00018411,0.00081727,0.00035949,0.00020825,0.00027750,-0.00453000,-0.00
 868058,-0.03194112,-0.00205097,-0.00605083,-0.00041220,-0.00053684,0.0
 0174882,-0.00126000,0.00038070,-0.00021268,0.00082791,0.00003883,-0.00
 008090,0.00008481,-0.00005312,0.00034901,0.00041822,0.00000444,0.00000
 652,0.00000630,-0.00000381,0.00000273,0.00000485,0.00000297,0.00000018
 ,-0.00000194,-0.00000135,-0.00001167,-0.00000456,-0.00643805,-0.058442
 18,-0.05257074,0.00954453,0.06470396,0.00000787,-0.00000054,-0.0000143
 9,-0.00000057,-0.00000679,0.00000317,-0.00001384,0.00001374,0.00000751
 ,-0.00000739,0.00000359,0.00000505,-0.00004281,-0.00002982,0.00000630,
 0.00000423,0.00000671,-0.00000434,-0.00018471,-0.00013262,0.00011498,0
 .00011760,0.00007731,0.00006187,-0.00004719,-0.00002093,-0.00019714,0.
 00047300,0.00052092,0.00077830,-0.00062970,-0.00024938,0.00049091,-0.0
 0005447,0.00000075,0.00030957,-0.00086137,-0.00159560,-0.00481860,-0.0
 0011237,-0.00076496,0.00160177,0.00007734,0.00049398,0.00061624,0.0004
 2148,-0.00055455,0.00040735,-0.00005961,-0.00000453,-0.00007126,0.0000
 8862,-0.00007531,0.00032450,0.00000919,-0.00001606,-0.00001327,0.00000
 209,0.00001023,-0.00000693,-0.00001050,0.00000163,0.00000284,0.0000011
 9,0.00000893,0.00002016,-0.03129801,-0.05289743,-0.28409648,0.03521367
 ,0.06016317,0.31016703,0.00002213,0.00005292,-0.00002900,0.00000795,-0
 .00000477,-0.00000211,-0.00001953,0.00001630,0.00002579,-0.00002908,-0
 .00000390,0.00000079,-0.00010325,-0.00016014,-0.00002641,0.00002257,0.
 00009579,0.00005979,0.00019016,-0.00001421,0.00035204,-0.00004682,-0.0
 0002095,-0.00005600,0.00020204,-0.00026000,-0.00006222,0.00074289,-0.0
 0196448,-0.00138198,0.00012828,0.00013699,0.00003705,-0.00053274,-0.00
 015543,0.00038709,-0.00920362,-0.00072327,0.00461702,0.00000833,-0.000
 05660,-0.00048706,0.00061929,0.00125305,-0.00022203,0.00001441,-0.0000
 2878,-0.00004188,0.00078178,-0.00031795,0.00005166,0.00019626,-0.00000
 400,-0.00027535,-0.00000688,0.00001324,0.00003350,0.00001456,0.0000160
 6,-0.00000917,-0.00003261,-0.00000322,-0.00000701,0.00001495,-0.000005
 78,0.00002845,-0.24324812,-0.02974245,0.10694568,0.00470073,0.00113897
 ,-0.00222361,0.26419944,-0.00000940,-0.00001442,-0.00002044,0.00000391
 ,-0.00000015,-0.00000337,-0.00000248,0.00000697,0.00000409,-0.00000992
 ,0.00000146,0.00000464,-0.00001310,-0.00001120,-0.00000005,-0.00001642
 ,-0.00002784,-0.00002354,0.00069482,-0.00048508,0.00003537,-0.00005378
 ,0.00003123,-0.00002103,-0.00018011,0.00045006,0.00002050,-0.00041346,
 -0.00665383,-0.00160170,0.00025585,0.00004841,0.00000953,-0.00183482,-
 0.00033887,0.00087899,-0.02748141,-0.00456620,0.01650427,0.00038925,0.
 00120428,-0.00037288,-0.00136623,0.00149331,0.00053094,0.00012131,-0.0
 0009164,0.00000819,0.00077586,-0.00034921,-0.00020693,0.00011872,0.000
 39667,-0.00030625,-0.00000938,-0.00000685,0.00001289,-0.00000905,0.000
 01817,-0.00000362,-0.00000243,0.00000892,-0.00000497,-0.00000152,-0.00
 000670,0.00000193,-0.02846732,-0.05031042,0.01550148,0.00651315,0.0000
 3275,-0.00271192,0.03345362,0.05628248,0.00000372,0.00000059,0.0000044
 1,-0.00000293,-0.00000166,-0.00000032,-0.00000361,0.00000078,-0.000001
 82,0.00000603,0.00000118,0.00000236,0.00000046,0.00000088,-0.00000308,
 -0.00000750,-0.00000842,0.00000036,-0.00017270,0.00001172,0.00014611,0
 .00005123,0.00003064,0.00001099,0.00006454,-0.00008423,-0.00015079,-0.
 00026352,-0.00033875,0.00043876,-0.00028601,-0.00017890,0.00048930,0.0
 0006977,0.00001393,0.00042464,-0.00428133,-0.00083699,0.00109805,-0.00
 023157,0.00052293,0.00044323,0.00021835,-0.00000900,-0.00008037,0.0001
 5472,0.00002858,-0.00009218,-0.00021137,0.00034064,0.00026956,-0.00029
 467,-0.00002032,-0.00001238,-0.00000156,-0.00000383,-0.00000482,0.0000
 0101,-0.00000346,-0.00000130,0.00000451,-0.00000036,0.00000172,0.00000
 004,0.00000326,-0.00000332,0.10687964,0.01632432,-0.10505292,0.0279767
 9,0.00399297,-0.01427655,-0.11775562,-0.01725821,0.11007218,0.00000608
 ,-0.00000124,0.00002081,-0.00000488,-0.00000144,0.00000393,0.00000390,
 -0.00000507,-0.00000780,0.00001258,-0.00000083,-0.00000277,0.00001228,
 0.00002434,-0.00003430,-0.00000945,0.00000040,0.00000278,-0.00130500,-
 0.00032088,0.00030448,-0.00004613,0.00000283,-0.00009181,-0.00140541,-
 0.00077631,0.00035935,0.00031328,0.00056627,0.00032069,-0.00006200,-0.
 00002558,0.00002486,0.00015255,0.00008734,-0.00018106,0.00769444,-0.00
 659412,0.00520802,0.00050932,0.00083577,0.00024239,-0.00025675,-0.0013
 8834,0.00015855,-0.00008647,-0.00010750,0.00006229,0.00035319,-0.00025
 993,-0.00019085,0.00050015,-0.00040050,-0.00004295,0.00001221,-0.00000
 116,-0.00000023,-0.00000292,-0.00001112,-0.00000044,0.00001209,-0.0000
 0089,0.00000076,-0.00000589,0.00000619,-0.00001418,-0.16125982,0.11016
 891,-0.06732550,-0.00278309,0.00129745,-0.00086379,-0.01872264,0.01771
 862,-0.01196049,0.17624700,-0.00003658,-0.00006624,0.00000679,-0.00000
 191,0.00000868,-0.00000617,0.00002532,-0.00001344,-0.00002248,0.000016
 62,0.00000057,0.00000262,0.00009946,0.00012725,0.00001716,-0.00005418,
 -0.00012736,-0.00008448,0.00023152,-0.00018887,-0.00018158,-0.00017807
 ,-0.00019965,-0.00011704,-0.00054988,0.00083742,0.00028778,0.00103576,
 0.00071409,0.00006699,-0.00011354,-0.00000988,0.00000317,0.00002860,0.
 00006813,-0.00014000,0.02229575,-0.01790362,0.01267812,0.00016866,0.00
 117876,-0.00056531,-0.00391332,-0.00574227,-0.00163714,-0.00017013,0.0
 0021259,0.00012622,-0.00010085,0.00028350,-0.00020811,0.00144743,-0.00
 144617,0.00077206,-0.00001736,0.00000129,0.00000848,-0.00001838,0.0000
 0025,0.00001112,0.00003218,0.00000766,-0.00000543,-0.00001721,-0.00001
 741,-0.00003660,0.10904723,-0.15274850,0.06409101,-0.00560170,0.004763
 50,-0.00222020,-0.00262486,0.00263697,-0.00245956,-0.12070674,0.167123
 32,0.00001693,0.00005728,-0.00000429,0.00000329,-0.00000413,-0.0000006
 2,-0.00000708,0.00000192,0.00001104,-0.00001113,-0.00000569,-0.0000028
 2,-0.00005485,-0.00010081,-0.00001231,0.00002512,0.00008459,0.00006149
 ,-0.00023149,0.00053881,0.00042657,-0.00007108,-0.00013041,-0.00012405
 ,0.00048587,-0.00034999,0.00012631,-0.00041115,0.00046565,-0.00008036,
 -0.00005226,0.00004852,-0.00000290,0.00011925,-0.00005905,-0.00001666,
 0.00376521,-0.00310084,0.00034270,0.00055051,0.00025114,0.00045572,0.0
 0001633,-0.00067436,0.00046050,0.00021565,-0.00034026,0.00040952,-0.00
 033110,0.00007424,-0.00001520,-0.00005039,-0.00018745,0.00055488,-0.00
 000709,0.00003540,0.00003505,0.00001616,-0.00000961,-0.00000086,-0.000
 01268,-0.00001091,-0.00000809,0.00000449,-0.00000986,0.00000204,-0.066
 91308,0.06460769,-0.08660439,-0.02141280,0.02049530,-0.01141256,0.0102
 3429,-0.01093843,0.00626904,0.07396916,-0.07047542,0.08934281,-0.03550
 426,-0.00528595,-0.00627189,0.00124654,0.00100037,-0.00262489,0.003007
 19,-0.00073092,-0.00344767,-0.00328416,0.00146991,0.00309806,-0.287888
 65,0.10470922,-0.04329662,-0.00617720,-0.06375810,-0.02274685,-0.17568
 165,-0.01526126,0.04471226,0.00382840,-0.00284646,0.00208731,-0.007916
 06,-0.00720381,0.00497397,-0.03371273,-0.00493405,0.01172549,0.0017161
 3,-0.00078509,0.00134216,0.00153792,-0.00123612,0.00063310,-0.00186150
 ,0.00293671,-0.00243434,-0.00010352,0.00012331,0.00030802,-0.00070742,
 -0.00034515,0.00077560,0.00000820,-0.00004480,-0.00001244,-0.00017722,
 0.00028945,-0.00018292,-0.00003693,0.00004667,0.00002593,-0.00336551,-
 0.00104087,-0.01428280,0.00028575,-0.00427384,0.00310138,0.00081200,-0
 .00029736,0.00093618,-0.00043940,0.00007827,0.00192379,0.00029685,0.00
 068660,-0.00035970,-0.00002416,-0.00004600,0.00004578,0.00023216,-0.00
 014998,0.00005840,0.00008854,-0.00051835,0.00021209,0.62042446,0.00500
 412,0.00180885,-0.00224759,-0.00109182,0.00036650,0.00059833,-0.000088
 78,0.00075058,0.00132695,-0.00176032,0.00086787,0.00093485,0.05261374,
 -0.09566360,0.02870571,-0.01236462,0.02869179,0.00405894,-0.02150988,-
 0.06951217,0.02237830,0.00436196,-0.00123300,-0.00041924,-0.02702362,-
 0.00886019,0.01504884,0.01328794,0.00562188,-0.01135358,0.00006981,0.0
 0024998,0.00030276,0.00129771,-0.00039308,-0.00024330,0.00232124,-0.00
 311467,0.00276649,-0.00035791,-0.00001083,0.00011510,0.00112627,0.0007
 7693,-0.00070001,0.00002547,0.00000621,0.00008360,0.00049787,-0.000301
 76,0.00011201,-0.00005912,-0.00005348,-0.00005252,0.02057384,-0.003198
 28,0.01207357,0.00083979,0.00118313,-0.00023623,-0.00048325,-0.0014515
 5,0.00255677,-0.00008861,0.00103947,-0.00029788,-0.00014883,-0.0003308
 6,0.00013615,-0.00001343,0.00006043,0.00000797,0.00001466,0.00016934,-
 0.00006779,-0.00009542,0.00026093,-0.00014358,-0.03903628,0.22842789,0
 .02146266,-0.00608407,0.00862263,0.00145319,0.00001486,0.00027250,0.00
 220726,0.00000118,-0.00100662,0.00384657,-0.00022414,-0.00305145,-0.07
 325205,0.04977725,-0.12068714,-0.00567325,-0.01610067,-0.01205237,0.05
 415701,0.01939369,-0.11691131,0.02917162,0.01073592,-0.01623970,-0.002
 87011,0.00128179,0.00060183,-0.00857595,-0.00652522,0.00753760,-0.0019
 4374,-0.00005879,-0.00004969,-0.00038840,0.00059434,0.00042214,-0.0018
 9682,0.00212793,-0.00257451,0.00012403,0.00010741,0.00039758,-0.000942
 17,-0.00031341,0.00099762,0.00006607,-0.00010935,-0.00005271,-0.000421
 12,0.00030814,-0.00010919,0.00004779,0.00005400,0.00001904,-0.02706238
 ,0.00314137,-0.01138920,0.00017923,-0.00033656,0.00075532,-0.00033208,
 0.00423437,-0.00458435,0.00008317,-0.00053701,0.00027198,0.00007717,0.
 00010567,0.00029987,0.00002043,-0.00000946,-0.00004702,-0.00015135,0.0
 0001471,-0.00000396,0.00001944,0.00012877,-0.00019393,0.03954386,-0.16
 766174,0.56945469,0.00092394,0.00104328,-0.00186442,-0.00058011,-0.000
 47204,0.00073251,-0.00016136,0.00007045,0.00010253,0.00019582,-0.00016
 694,0.00026272,0.00014074,0.01329337,-0.02489507,0.00006726,-0.0010032
 9,-0.00044835,0.00214033,-0.00606326,0.02515812,-0.00391655,-0.0016431
 4,0.00208918,-0.00032359,-0.00067301,0.00005096,0.00187364,-0.00057433
 ,0.00148952,-0.00027437,-0.00034332,-0.00062767,-0.00015015,0.00043302
 ,0.00011666,-0.00013230,0.00006153,-0.00000794,0.00009042,-0.00002178,
 -0.00028480,-0.00002076,0.00001953,-0.00007575,-0.00005084,0.00001591,
 -0.00001845,0.00002207,-0.00000723,-0.00000572,-0.00001146,0.00001526,
 0.00001000,-0.00460590,-0.00082582,-0.00055545,-0.00002238,0.00011394,
 0.00004218,-0.00008890,0.00107582,-0.00118955,0.00008246,-0.00015058,-
 0.00003388,0.00009633,-0.00010861,0.00001149,-0.00003527,-0.00001706,-
 0.00002258,-0.00002271,0.00006795,-0.00002703,-0.00000589,0.00012488,-
 0.00003246,-0.05642055,0.00742980,-0.01870886,0.06143251,-0.00296009,-
 0.00307945,-0.00086490,0.00024520,0.00030643,-0.00004073,0.00089668,-0
 .00044965,-0.00045997,-0.00032038,0.00014430,-0.00015277,0.00205636,0.
 00482086,0.00849354,0.00171790,-0.00310833,-0.00063842,0.00183433,0.00
 378294,0.00898562,-0.00124735,-0.00021579,-0.00051031,0.00028678,-0.00
 037929,-0.00099729,0.00046492,0.00021034,-0.00028720,-0.00038506,0.000
 20522,-0.00033622,-0.00007939,-0.00012347,-0.00021669,-0.00008079,-0.0
 0010373,-0.00011425,0.00008527,-0.00001857,-0.00006474,-0.00002514,-0.
 00002286,0.00000474,-0.00001006,0.00001213,-0.00000529,-0.00002297,0.0
 0000400,0.00000582,0.00000960,-0.00000509,-0.00000599,0.00242302,0.004
 40755,0.00350785,-0.00039915,0.00043487,-0.00106408,0.00005298,-0.0005
 3218,0.00085222,0.00009736,-0.00028234,0.00012003,0.00000443,0.0000271
 5,0.00003205,-0.00002733,-0.00000404,-0.00002801,-0.00001126,-0.000018
 78,-0.00000259,0.00002084,0.00001513,0.00001788,0.00803656,-0.07189026
 ,0.10090898,-0.01058051,0.07004844,0.00068077,-0.00184043,0.00037067,-
 0.00034828,-0.00018604,0.00098581,0.00009932,-0.00028419,-0.00008527,0
 .00009061,-0.00017307,0.00019907,0.00166878,0.00844844,-0.00722245,0.0
 0064793,-0.00072431,-0.00009748,-0.00107379,0.00520292,-0.00871771,0.0
 0147236,0.00135234,-0.00050627,0.00074889,0.00016502,-0.00116257,-0.00
 193664,0.00026218,0.00062273,0.00085683,-0.00022405,0.00054987,0.00042
 881,-0.00042677,-0.00007241,0.00012250,-0.00005553,0.00033871,-0.00021
 782,0.00001586,0.00008893,0.00006524,0.00001514,-0.00001656,0.00001677
 ,0.00000218,0.00000266,0.00000703,-0.00001170,0.00000157,0.00000120,-0
 .00001010,-0.00000863,-0.00106821,0.00005552,0.00221747,-0.00014234,0.
 00027271,-0.00040415,-0.00011806,0.00035298,-0.00012612,0.00020144,-0.
 00015002,0.00016485,-0.00009555,0.00007608,-0.00003096,0.00003037,-0.0
 0000426,0.00002488,0.00000985,-0.00004304,0.00001263,0.00001236,-0.000
 09025,0.00002438,-0.02156929,0.10062975,-0.29015536,0.01979262,-0.1106
 4592,0.30400976,0.00013693,0.00284337,-0.00075450,0.00039324,0.0000612
 2,0.00028188,0.00011918,-0.00011257,0.00055680,-0.00018056,0.00005218,
 -0.00029577,-0.01223863,-0.02050604,-0.01353697,-0.03645018,0.04553638
 ,-0.00916475,-0.00126656,-0.00016219,-0.00056283,0.00157371,-0.0001609
 2,-0.00152487,0.00153176,-0.00036086,-0.00098330,-0.00101539,0.0008801
 7,-0.00104162,-0.00028618,-0.00029530,-0.00012950,-0.00084788,-0.00145
 760,0.00012507,0.00007985,-0.00053760,0.00029851,0.00006710,0.00008107
 ,-0.00012035,0.00022749,0.00026589,-0.00013218,-0.00002056,-0.00002532
 ,-0.00000402,0.00013631,-0.00007468,0.00000959,-0.00000004,-0.00013336
 ,0.00002442,-0.00112790,0.00211518,0.00214237,0.00016318,0.00018307,-0
 .00030319,-0.00021555,-0.00004533,-0.00007687,0.00026793,0.00004490,0.
 00013753,-0.00011360,0.00011060,-0.00011221,-0.00004558,-0.00001813,-0
 .00000271,0.00014265,-0.00007127,-0.00000985,0.00000382,-0.00022799,0.
 00015106,0.00185511,-0.01711048,0.00718040,0.00071875,0.00287610,0.001
 02172,0.45015292,-0.00220916,-0.00617465,-0.00063183,0.00012556,0.0003
 8695,-0.00036662,0.00140297,-0.00029733,-0.00178624,-0.00035077,0.0001
 0362,0.00027314,0.02950494,0.01238497,0.01805607,0.03569744,-0.0476658
 3,-0.00031983,-0.00356283,-0.00863740,-0.00079518,0.00061442,0.0000583
 9,-0.00119349,-0.00042786,0.00070101,-0.00019534,0.00055721,0.00012884
 ,-0.00056853,0.00000827,0.00000856,-0.00002203,-0.00084819,0.00046871,
 -0.00015096,-0.00006026,0.00034740,0.00024920,-0.00000339,-0.00003813,
 -0.00001260,-0.00001562,-0.00000254,-0.00003271,-0.00001180,0.00000003
 ,0.00000759,0.00002501,0.00001005,-0.00001314,-0.00002146,0.00005067,0
 .00001018,-0.00106160,-0.00509123,-0.00439832,0.00029648,-0.00153792,0
 .00172098,-0.00005195,0.00038912,-0.00025714,-0.00001984,0.00011714,0.
 00033986,0.00023105,-0.00008839,-0.00004938,-0.00000618,0.00000137,0.0
 0000985,0.00004764,0.00008934,-0.00000347,-0.00004502,0.00005999,-0.00
 004066,-0.00130845,0.02350987,0.01042208,-0.00122151,-0.00485705,-0.00
 244787,-0.05561805,0.06894868,-0.00069377,-0.00026962,-0.00081492,0.00
 013971,0.00017739,0.00009419,0.00040446,-0.00015823,-0.00025349,-0.000
 21201,0.00002859,-0.00001165,0.00227398,-0.00656609,0.00134627,-0.0118
 6411,0.00392034,0.00602252,0.00017622,0.00519148,0.00108538,0.00080096
 ,0.00002570,0.00028012,0.00242482,0.00064112,-0.00044654,-0.00084798,0
 .00044115,-0.00071157,0.00004572,0.00006675,0.00009591,-0.00027552,-0.
 00015933,0.00010812,-0.00006620,-0.00010351,0.00026667,-0.00001189,0.0
 0000482,0.00002168,0.00010603,0.00014586,-0.00009812,0.00000679,0.0000
 0323,0.00003871,0.00011419,-0.00004059,0.00000124,-0.00001690,-0.00005
 127,-0.00001255,-0.00091408,-0.00044903,-0.00060367,0.00021612,-0.0005
 4058,0.00044187,-0.00014233,0.00007725,-0.00004036,0.00016654,0.000044
 73,0.00027861,0.00007940,0.00008363,-0.00017382,-0.00002958,0.00000227
 ,0.00003037,0.00016228,-0.00001845,-0.00000110,-0.00001117,-0.00019964
 ,0.00011926,0.00653512,-0.00157105,-0.01011489,-0.00076890,-0.00599506
 ,-0.00053888,0.20496546,-0.00948336,0.11656340,0.00068003,-0.00306483,
 -0.00069041,-0.00043483,-0.00026832,-0.00028069,-0.00018205,0.00025680
 ,-0.00039694,0.00028638,-0.00037933,0.00008120,0.01450488,0.03300334,0
 .01570731,-0.00706774,-0.03292567,-0.00235764,0.00085142,-0.00500387,-
 0.00221646,-0.00136590,0.00037302,0.00168181,-0.00263625,-0.00029404,0
 .00164272,0.00046076,-0.00044134,0.00085869,0.00018727,-0.00007677,0.0
 0005468,-0.00012465,-0.00032624,-0.00023079,0.00020218,0.00002440,-0.0
 0056383,-0.00007920,-0.00005258,0.00013130,-0.00018791,-0.00028135,0.0
 0019667,0.00002985,0.00001728,-0.00002964,-0.00022047,0.00006460,0.000
 00446,0.00004040,0.00010712,-0.00003083,0.00099289,-0.00207714,-0.0006
 5084,-0.00028036,0.00034765,-0.00007332,0.00019878,-0.00020816,0.00005
 697,-0.00021386,-0.00003120,-0.00037284,-0.00019597,-0.00008299,0.0003
 1327,0.00006878,0.00002609,-0.00002683,-0.00027260,-0.00002098,0.00002
 054,0.00003491,0.00029766,-0.00018679,-0.02203833,0.01176815,-0.017421
 62,-0.00096117,-0.00495886,-0.00140542,-0.40376132,-0.00166703,-0.2027
 6339,0.42148406,-0.00037656,0.00683797,0.00424238,0.00011651,-0.000299
 77,-0.00068655,0.00035681,0.00015941,0.00097245,0.00255258,0.00006314,
 -0.00063386,-0.05575912,-0.08078230,-0.05631025,-0.02378962,0.04218113
 ,0.00959582,-0.00071138,0.00038398,0.00081365,-0.00093264,0.00026826,0
 .00081180,-0.00051925,0.00084974,0.00029587,-0.00012064,-0.00108421,0.
 00114355,0.00008558,0.00005694,0.00003980,-0.00023930,0.00018106,-0.00
 022780,-0.00004073,0.00028619,-0.00039495,-0.00000320,-0.00003172,0.00
 004706,-0.00017707,-0.00020992,0.00012589,0.00000992,0.00000744,-0.000
 01638,-0.00012659,0.00005815,-0.00000653,0.00000483,0.00007095,0.00000
 038,0.00133438,0.00846056,0.00139411,0.00016602,0.00048668,-0.00033916
 ,0.00115080,-0.00098634,0.00157062,-0.00040106,-0.00052372,0.00067835,
 -0.00006332,-0.00006618,0.00012545,0.00003146,0.00000567,-0.00001013,-
 0.00013720,0.00001084,0.00000511,0.00001316,0.00016343,-0.00009697,0.0
 2972578,-0.03777790,-0.00539203,0.00010767,0.00067154,0.00046646,0.041
 86755,-0.03337420,0.01475148,0.00587461,0.09393317,-0.00007566,0.00170
 574,0.00218918,-0.00009632,-0.00021154,-0.00015025,-0.00033032,0.00021
 302,0.00029241,0.00096747,0.00001468,-0.00017555,-0.01340071,-0.012209
 17,-0.00596961,0.00063034,0.00528974,-0.02170806,-0.00051111,-0.005316
 50,-0.00118291,-0.00112651,0.00010149,0.00053299,-0.00245862,-0.000091
 55,0.00083715,0.00050367,-0.00065902,0.00107062,0.00009295,0.00001459,
 0.00004217,-0.00021734,-0.00006682,-0.00036354,0.00008774,0.00009303,-
 0.00048748,-0.00004749,-0.00003572,0.00010602,-0.00017418,-0.00022481,
 0.00015873,0.00002140,0.00001564,-0.00001360,-0.00016524,0.00005510,-0
 .00000035,0.00001880,0.00009122,-0.00002434,0.00077354,0.00037217,0.00
 023692,-0.00002940,0.00015536,0.00011506,0.00049508,-0.00047485,0.0004
 5437,-0.00039806,-0.00038838,0.00009907,-0.00012776,-0.00009382,0.0002
 6220,0.00005616,0.00001972,-0.00001425,-0.00021450,0.00000730,0.000001
 58,0.00001749,0.00024911,-0.00016227,-0.00480913,-0.00684157,-0.000429
 43,-0.00029161,-0.00049827,-0.00046919,-0.18813935,-0.00832026,-0.1129
 7277,0.20894868,0.02703439,0.13772513\\-0.00000020,0.00000407,-0.00000
 212,-0.00000126,0.00000431,-0.00000109,0.00000065,0.00000435,-0.000002
 12,-0.00000019,0.00000474,-0.00000192,0.00000093,0.00000490,-0.0000027
 7,-0.00000284,0.00000110,0.00000358,0.00000036,0.00000057,0.00000021,0
 .00000013,-0.00000107,0.,0.00000149,-0.00000028,-0.00000102,-0.0000006
 3,-0.00000089,0.00000082,-0.00000117,-0.00000044,0.00000092,-0.0000012
 5,-0.00000083,0.00000118,-0.00000008,-0.00000257,0.00000122,-0.0000000
 7,-0.00000309,0.00000133,-0.00000123,-0.00000337,0.00000226,-0.0000016
 7,-0.00000293,0.00000224,-0.00000078,-0.00000439,0.00000265,-0.0000020
 0,-0.00000309,0.00000264,0.00000170,0.00000160,-0.00000175,0.00000251,
 0.00000187,-0.00000257,0.00000155,0.00000246,-0.00000210,0.00000161,0.
 00000041,-0.00000150,0.00000138,-0.00000286,0.00000058,0.00000099,-0.0
 0000250,0.00000023,0.00000152,-0.00000417,0.00000071,0.00000207,-0.000
 00252,-0.00000028,-0.00000030,0.00000099,-0.00000005,-0.00000090,0.000
 00317,0.00000031,-0.00000242,-0.00000107,0.00000032,0.00000007,0.00000
 148,-0.00000189\\\@
 Job cpu time:  0 days  8 hours 57 minutes 30.8 seconds.
 File lengths (MBytes):  RWF=  72433 Int=      0 D2E=      0 Chk=     26 Scr=      1
 Normal termination of Gaussian 09 at Tue Feb 25 12:21:28 2014.
