 Entering Gaussian System, Link 0=g09
 Initial command:
 /usr/caen/gaussian-09revc/g09/l1.exe /scratch/avioli_flux/hetanjin/scratch/Gau-11773.inp -scrdir=/scratch/avioli_flux/hetanjin/scratch/
 Entering Link 1 = /usr/caen/gaussian-09revc/g09/l1.exe PID=     11774.
  
 Copyright (c) 1988,1990,1992,1993,1995,1998,2003,2009,2011,
            Gaussian, Inc.  All Rights Reserved.
  
 This is part of the Gaussian(R) 09 program.  It is based on
 the Gaussian(R) 03 system (copyright 2003, Gaussian, Inc.),
 the Gaussian(R) 98 system (copyright 1998, Gaussian, Inc.),
 the Gaussian(R) 94 system (copyright 1995, Gaussian, Inc.),
 the Gaussian 92(TM) system (copyright 1992, Gaussian, Inc.),
 the Gaussian 90(TM) system (copyright 1990, Gaussian, Inc.),
 the Gaussian 88(TM) system (copyright 1988, Gaussian, Inc.),
 the Gaussian 86(TM) system (copyright 1986, Carnegie Mellon
 University), and the Gaussian 82(TM) system (copyright 1983,
 Carnegie Mellon University). Gaussian is a federally registered
 trademark of Gaussian, Inc.
  
 This software contains proprietary and confidential information,
 including trade secrets, belonging to Gaussian, Inc.
  
 This software is provided under written license and may be
 used, copied, transmitted, or stored only in accord with that
 written license.
  
 The following legend is applicable only to US Government
 contracts under FAR:
  
                    RESTRICTED RIGHTS LEGEND
  
 Use, reproduction and disclosure by the US Government is
 subject to restrictions as set forth in subparagraphs (a)
 and (c) of the Commercial Computer Software - Restricted
 Rights clause in FAR 52.227-19.
  
 Gaussian, Inc.
 340 Quinnipiac St., Bldg. 40, Wallingford CT 06492
  
  
 ---------------------------------------------------------------
 Warning -- This program may not be used in any manner that
 competes with the business of Gaussian, Inc. or will provide
 assistance to any competitor of Gaussian, Inc.  The licensee
 of this program is prohibited from giving any competitor of
 Gaussian, Inc. access to this program.  By using this program,
 the user acknowledges that Gaussian, Inc. is engaged in the
 business of creating and licensing software in the field of
 computational chemistry and represents and warrants to the
 licensee that it is not a competitor of Gaussian, Inc. and that
 it will not use this program in any manner prohibited above.
 ---------------------------------------------------------------
  

 Cite this work as:
 Gaussian 09, Revision C.01,
 M. J. Frisch, G. W. Trucks, H. B. Schlegel, G. E. Scuseria, 
 M. A. Robb, J. R. Cheeseman, G. Scalmani, V. Barone, B. Mennucci, 
 G. A. Petersson, H. Nakatsuji, M. Caricato, X. Li, H. P. Hratchian, 
 A. F. Izmaylov, J. Bloino, G. Zheng, J. L. Sonnenberg, M. Hada, 
 M. Ehara, K. Toyota, R. Fukuda, J. Hasegawa, M. Ishida, T. Nakajima, 
 Y. Honda, O. Kitao, H. Nakai, T. Vreven, J. A. Montgomery, Jr., 
 J. E. Peralta, F. Ogliaro, M. Bearpark, J. J. Heyd, E. Brothers, 
 K. N. Kudin, V. N. Staroverov, T. Keith, R. Kobayashi, J. Normand, 
 K. Raghavachari, A. Rendell, J. C. Burant, S. S. Iyengar, J. Tomasi, 
 M. Cossi, N. Rega, J. M. Millam, M. Klene, J. E. Knox, J. B. Cross, 
 V. Bakken, C. Adamo, J. Jaramillo, R. Gomperts, R. E. Stratmann, 
 O. Yazyev, A. J. Austin, R. Cammi, C. Pomelli, J. W. Ochterski, 
 R. L. Martin, K. Morokuma, V. G. Zakrzewski, G. A. Voth, 
 P. Salvador, J. J. Dannenberg, S. Dapprich, A. D. Daniels, 
 O. Farkas, J. B. Foresman, J. V. Ortiz, J. Cioslowski, 
 and D. J. Fox, Gaussian, Inc., Wallingford CT, 2010.
 
 ******************************************
 Gaussian 09:  EM64L-G09RevC.01 23-Sep-2011
                23-Feb-2014 
 ******************************************
 %mem=30GB
 %nprocshared=8
 Will use up to    8 processors via shared memory.
 %chk=TS_4_C9H18O_4.chk
 -------------------------------
 #p cbs-qb3 opt=(ts,calcfc) freq
 -------------------------------
 1/5=1,10=4,14=-1,18=20,26=3,38=1/1,3;
 2/9=110,12=2,17=6,18=5,40=1/2;
 3/5=4,6=6,7=700,11=2,16=1,25=1,30=1,71=2,74=-5/1,2,3;
 4//1;
 5/5=2,38=5/2;
 8/6=4,10=90,11=11/1;
 11/6=1,8=1,9=11,15=111,16=1/1,2,10;
 10/6=1,7=6,13=1/2;
 6/7=2,8=2,9=2,10=2,28=1/1;
 7/10=1,18=20,25=1/1,2,3,16;
 1/5=1,10=4,14=-1,18=20/3(2);
 2/9=110/2;
 99//99;
 2/9=110/2;
 3/5=4,6=6,7=700,11=2,16=1,25=1,30=1,71=1,74=-5/1,2,3;
 4/5=5,16=3/1;
 5/5=2,38=5/2;
 7//1,2,3,16;
 1/5=1,14=-1,18=20/3(-5);
 2/9=110/2;
 6/7=2,8=2,9=2,10=2,19=2,28=1/1;
 99/9=1/99;
 Leave Link    1 at Sun Feb 23 14:54:29 2014, MaxMem= 4026531840 cpu:       0.7
 (Enter /usr/caen/gaussian-09revc/g09/l101.exe)
 ----------------------------------------------------
 TS_4_C9H18O_4 using B3LYP/6-311++g(d,p) to cal. freq
 ----------------------------------------------------
 Charge =  0 Multiplicity = 2
 Symbolic Z-Matrix:
 C                     3.81253  -0.97257   0.04949 
 H                     3.75203  -1.75526  -0.71231 
 H                     3.89952  -1.4614    1.0265 
 H                     4.73478  -0.41044  -0.12139 
 C                     2.58901  -0.04693  -0.00023 
 H                     2.52362   0.38103  -1.00552 
 C                     1.30028  -0.85907   0.24035 
 H                     1.37578  -1.8153   -0.29918 
 H                     1.21045  -1.11071   1.30317 
 C                    -1.30026  -0.85906   0.24041 
 H                    -1.21042  -1.1106    1.30326 
 H                    -1.37573  -1.81534  -0.29903 
 C                    -2.58901  -0.04698  -0.00025 
 H                    -2.52364   0.38087  -1.00559 
 C                    -3.8125   -0.97263   0.0496 
 H                    -3.89949  -1.46133   1.02667 
 H                    -4.73476  -0.41053  -0.12136 
 H                    -3.75199  -1.75541  -0.7121 
 C                     2.73908   1.10057   1.00843 
 H                     2.8198    0.71412   2.03086 
 H                     3.64247   1.68091   0.8012 
 H                     1.89508   1.79339   0.97339 
 C                    -2.73908   1.10064   1.00829 
 H                    -3.64251   1.68091   0.80103 
 H                    -2.81973   0.7143    2.03076 
 H                    -1.89512   1.7935    0.97314 
 C                     0.       -0.23157  -0.22255 
 H                    0.         1.08146  -0.00631 
 O                    -0.00002   0.12903  -1.58297 
 O                    -0.00004   1.57239  -1.19558 
 
 NAtoms=     30 NQM=        0 NQMF=       0 NMMI=     30 NMMIF=      0
                NMic=       0 NMicF=      0.
                    Isotopes and Nuclear Properties:
 (Nuclear quadrupole moments (NQMom) in fm**2, nuclear magnetic moments (NMagM)
  in nuclear magnetons)

  Atom         1           2           3           4           5           6           7           8           9          10
 IAtWgt=          12           1           1           1          12           1          12           1           1          12
 AtmWgt=  12.0000000   1.0078250   1.0078250   1.0078250  12.0000000   1.0078250  12.0000000   1.0078250   1.0078250  12.0000000
 NucSpn=           0           1           1           1           0           1           0           1           1           0
 AtZEff=   0.0000000   0.0000000   0.0000000   0.0000000   0.0000000   0.0000000   0.0000000   0.0000000   0.0000000   0.0000000
 NQMom=    0.0000000   0.0000000   0.0000000   0.0000000   0.0000000   0.0000000   0.0000000   0.0000000   0.0000000   0.0000000
 NMagM=    0.0000000   2.7928460   2.7928460   2.7928460   0.0000000   2.7928460   0.0000000   2.7928460   2.7928460   0.0000000

  Atom        11          12          13          14          15          16          17          18          19          20
 IAtWgt=           1           1          12           1          12           1           1           1          12           1
 AtmWgt=   1.0078250   1.0078250  12.0000000   1.0078250  12.0000000   1.0078250   1.0078250   1.0078250  12.0000000   1.0078250
 NucSpn=           1           1           0           1           0           1           1           1           0           1
 AtZEff=   0.0000000   0.0000000   0.0000000   0.0000000   0.0000000   0.0000000   0.0000000   0.0000000   0.0000000   0.0000000
 NQMom=    0.0000000   0.0000000   0.0000000   0.0000000   0.0000000   0.0000000   0.0000000   0.0000000   0.0000000   0.0000000
 NMagM=    2.7928460   2.7928460   0.0000000   2.7928460   0.0000000   2.7928460   2.7928460   2.7928460   0.0000000   2.7928460

  Atom        21          22          23          24          25          26          27          28          29          30
 IAtWgt=           1           1          12           1           1           1          12           1          16          16
 AtmWgt=   1.0078250   1.0078250  12.0000000   1.0078250   1.0078250   1.0078250  12.0000000   1.0078250  15.9949146  15.9949146
 NucSpn=           1           1           0           1           1           1           0           1           0           0
 AtZEff=   0.0000000   0.0000000   0.0000000   0.0000000   0.0000000   0.0000000   0.0000000   0.0000000   0.0000000   0.0000000
 NQMom=    0.0000000   0.0000000   0.0000000   0.0000000   0.0000000   0.0000000   0.0000000   0.0000000   0.0000000   0.0000000
 NMagM=    2.7928460   2.7928460   0.0000000   2.7928460   2.7928460   2.7928460   0.0000000   2.7928460   0.0000000   0.0000000
 Leave Link  101 at Sun Feb 23 14:54:30 2014, MaxMem= 4026531840 cpu:       3.1
 (Enter /usr/caen/gaussian-09revc/g09/l103.exe)

 GradGradGradGradGradGradGradGradGradGradGradGradGradGradGradGradGradGrad
 Berny optimization.
 Initialization pass.
                           ----------------------------
                           !    Initial Parameters    !
                           ! (Angstroms and Degrees)  !
 --------------------------                            --------------------------
 ! Name  Definition              Value          Derivative Info.                !
 --------------------------------------------------------------------------------
 ! R1    R(1,2)                  1.0939         calculate D2E/DX2 analytically  !
 ! R2    R(1,3)                  1.0959         calculate D2E/DX2 analytically  !
 ! R3    R(1,4)                  1.0935         calculate D2E/DX2 analytically  !
 ! R4    R(1,5)                  1.535          calculate D2E/DX2 analytically  !
 ! R5    R(5,6)                  1.0945         calculate D2E/DX2 analytically  !
 ! R6    R(5,7)                  1.5422         calculate D2E/DX2 analytically  !
 ! R7    R(5,19)                 1.5352         calculate D2E/DX2 analytically  !
 ! R8    R(7,8)                  1.1005         calculate D2E/DX2 analytically  !
 ! R9    R(7,9)                  1.0959         calculate D2E/DX2 analytically  !
 ! R10   R(7,27)                 1.5162         calculate D2E/DX2 analytically  !
 ! R11   R(10,11)                1.0959         calculate D2E/DX2 analytically  !
 ! R12   R(10,12)                1.1005         calculate D2E/DX2 analytically  !
 ! R13   R(10,13)                1.5422         calculate D2E/DX2 analytically  !
 ! R14   R(10,27)                1.5162         calculate D2E/DX2 analytically  !
 ! R15   R(13,14)                1.0945         calculate D2E/DX2 analytically  !
 ! R16   R(13,15)                1.535          calculate D2E/DX2 analytically  !
 ! R17   R(13,23)                1.5352         calculate D2E/DX2 analytically  !
 ! R18   R(15,16)                1.0959         calculate D2E/DX2 analytically  !
 ! R19   R(15,17)                1.0935         calculate D2E/DX2 analytically  !
 ! R20   R(15,18)                1.0939         calculate D2E/DX2 analytically  !
 ! R21   R(19,20)                1.096          calculate D2E/DX2 analytically  !
 ! R22   R(19,21)                1.0935         calculate D2E/DX2 analytically  !
 ! R23   R(19,22)                1.0925         calculate D2E/DX2 analytically  !
 ! R24   R(23,24)                1.0935         calculate D2E/DX2 analytically  !
 ! R25   R(23,25)                1.096          calculate D2E/DX2 analytically  !
 ! R26   R(23,26)                1.0925         calculate D2E/DX2 analytically  !
 ! R27   R(27,28)                1.3307         calculate D2E/DX2 analytically  !
 ! R28   R(27,29)                1.4074         calculate D2E/DX2 analytically  !
 ! R29   R(29,30)                1.4944         calculate D2E/DX2 analytically  !
 ! A1    A(2,1,3)              107.824          calculate D2E/DX2 analytically  !
 ! A2    A(2,1,4)              107.796          calculate D2E/DX2 analytically  !
 ! A3    A(2,1,5)              111.3962         calculate D2E/DX2 analytically  !
 ! A4    A(3,1,4)              107.5576         calculate D2E/DX2 analytically  !
 ! A5    A(3,1,5)              111.1691         calculate D2E/DX2 analytically  !
 ! A6    A(4,1,5)              110.9276         calculate D2E/DX2 analytically  !
 ! A7    A(1,5,6)              108.2492         calculate D2E/DX2 analytically  !
 ! A8    A(1,5,7)              110.0883         calculate D2E/DX2 analytically  !
 ! A9    A(1,5,19)             110.582          calculate D2E/DX2 analytically  !
 ! A10   A(6,5,7)              107.4133         calculate D2E/DX2 analytically  !
 ! A11   A(6,5,19)             108.4841         calculate D2E/DX2 analytically  !
 ! A12   A(7,5,19)             111.89           calculate D2E/DX2 analytically  !
 ! A13   A(5,7,8)              108.8906         calculate D2E/DX2 analytically  !
 ! A14   A(5,7,9)              109.9211         calculate D2E/DX2 analytically  !
 ! A15   A(5,7,27)             116.8138         calculate D2E/DX2 analytically  !
 ! A16   A(8,7,9)              106.3531         calculate D2E/DX2 analytically  !
 ! A17   A(8,7,27)             105.5905         calculate D2E/DX2 analytically  !
 ! A18   A(9,7,27)             108.713          calculate D2E/DX2 analytically  !
 ! A19   A(11,10,12)           106.3529         calculate D2E/DX2 analytically  !
 ! A20   A(11,10,13)           109.9212         calculate D2E/DX2 analytically  !
 ! A21   A(11,10,27)           108.7134         calculate D2E/DX2 analytically  !
 ! A22   A(12,10,13)           108.8909         calculate D2E/DX2 analytically  !
 ! A23   A(12,10,27)           105.5901         calculate D2E/DX2 analytically  !
 ! A24   A(13,10,27)           116.8135         calculate D2E/DX2 analytically  !
 ! A25   A(10,13,14)           107.4133         calculate D2E/DX2 analytically  !
 ! A26   A(10,13,15)           110.0884         calculate D2E/DX2 analytically  !
 ! A27   A(10,13,23)           111.89           calculate D2E/DX2 analytically  !
 ! A28   A(14,13,15)           108.2491         calculate D2E/DX2 analytically  !
 ! A29   A(14,13,23)           108.4845         calculate D2E/DX2 analytically  !
 ! A30   A(15,13,23)           110.5816         calculate D2E/DX2 analytically  !
 ! A31   A(13,15,16)           111.1692         calculate D2E/DX2 analytically  !
 ! A32   A(13,15,17)           110.9276         calculate D2E/DX2 analytically  !
 ! A33   A(13,15,18)           111.3963         calculate D2E/DX2 analytically  !
 ! A34   A(16,15,17)           107.5576         calculate D2E/DX2 analytically  !
 ! A35   A(16,15,18)           107.8239         calculate D2E/DX2 analytically  !
 ! A36   A(17,15,18)           107.796          calculate D2E/DX2 analytically  !
 ! A37   A(5,19,20)            110.89           calculate D2E/DX2 analytically  !
 ! A38   A(5,19,21)            110.666          calculate D2E/DX2 analytically  !
 ! A39   A(5,19,22)            112.1747         calculate D2E/DX2 analytically  !
 ! A40   A(20,19,21)           107.6419         calculate D2E/DX2 analytically  !
 ! A41   A(20,19,22)           108.0848         calculate D2E/DX2 analytically  !
 ! A42   A(21,19,22)           107.1924         calculate D2E/DX2 analytically  !
 ! A43   A(13,23,24)           110.6661         calculate D2E/DX2 analytically  !
 ! A44   A(13,23,25)           110.8895         calculate D2E/DX2 analytically  !
 ! A45   A(13,23,26)           112.1754         calculate D2E/DX2 analytically  !
 ! A46   A(24,23,25)           107.6418         calculate D2E/DX2 analytically  !
 ! A47   A(24,23,26)           107.1924         calculate D2E/DX2 analytically  !
 ! A48   A(25,23,26)           108.0845         calculate D2E/DX2 analytically  !
 ! A49   A(7,27,10)            118.0976         calculate D2E/DX2 analytically  !
 ! A50   A(7,27,28)            111.024          calculate D2E/DX2 analytically  !
 ! A51   A(7,27,29)            113.6517         calculate D2E/DX2 analytically  !
 ! A52   A(10,27,28)           111.0228         calculate D2E/DX2 analytically  !
 ! A53   A(10,27,29)           113.6523         calculate D2E/DX2 analytically  !
 ! A54   A(28,27,29)            84.506          calculate D2E/DX2 analytically  !
 ! A55   A(27,29,30)            89.8222         calculate D2E/DX2 analytically  !
 ! D1    D(2,1,5,6)            -57.3225         calculate D2E/DX2 analytically  !
 ! D2    D(2,1,5,7)             59.814          calculate D2E/DX2 analytically  !
 ! D3    D(2,1,5,19)          -176.035          calculate D2E/DX2 analytically  !
 ! D4    D(3,1,5,6)           -177.6058         calculate D2E/DX2 analytically  !
 ! D5    D(3,1,5,7)            -60.4692         calculate D2E/DX2 analytically  !
 ! D6    D(3,1,5,19)            63.6817         calculate D2E/DX2 analytically  !
 ! D7    D(4,1,5,6)             62.7617         calculate D2E/DX2 analytically  !
 ! D8    D(4,1,5,7)            179.8983         calculate D2E/DX2 analytically  !
 ! D9    D(4,1,5,19)           -55.9507         calculate D2E/DX2 analytically  !
 ! D10   D(1,5,7,8)            -40.6714         calculate D2E/DX2 analytically  !
 ! D11   D(1,5,7,9)             75.4668         calculate D2E/DX2 analytically  !
 ! D12   D(1,5,7,27)          -160.0936         calculate D2E/DX2 analytically  !
 ! D13   D(6,5,7,8)             76.9839         calculate D2E/DX2 analytically  !
 ! D14   D(6,5,7,9)           -166.8778         calculate D2E/DX2 analytically  !
 ! D15   D(6,5,7,27)           -42.4383         calculate D2E/DX2 analytically  !
 ! D16   D(19,5,7,8)          -164.0622         calculate D2E/DX2 analytically  !
 ! D17   D(19,5,7,9)           -47.924          calculate D2E/DX2 analytically  !
 ! D18   D(19,5,7,27)           76.5156         calculate D2E/DX2 analytically  !
 ! D19   D(1,5,19,20)          -60.7847         calculate D2E/DX2 analytically  !
 ! D20   D(1,5,19,21)           58.5991         calculate D2E/DX2 analytically  !
 ! D21   D(1,5,19,22)          178.2606         calculate D2E/DX2 analytically  !
 ! D22   D(6,5,19,20)         -179.3544         calculate D2E/DX2 analytically  !
 ! D23   D(6,5,19,21)          -59.9705         calculate D2E/DX2 analytically  !
 ! D24   D(6,5,19,22)           59.691          calculate D2E/DX2 analytically  !
 ! D25   D(7,5,19,20)           62.327          calculate D2E/DX2 analytically  !
 ! D26   D(7,5,19,21)         -178.2891         calculate D2E/DX2 analytically  !
 ! D27   D(7,5,19,22)          -58.6277         calculate D2E/DX2 analytically  !
 ! D28   D(5,7,27,10)         -167.8972         calculate D2E/DX2 analytically  !
 ! D29   D(5,7,27,28)          -38.0406         calculate D2E/DX2 analytically  !
 ! D30   D(5,7,27,29)           55.1899         calculate D2E/DX2 analytically  !
 ! D31   D(8,7,27,10)           70.9276         calculate D2E/DX2 analytically  !
 ! D32   D(8,7,27,28)         -159.2158         calculate D2E/DX2 analytically  !
 ! D33   D(8,7,27,29)          -65.9853         calculate D2E/DX2 analytically  !
 ! D34   D(9,7,27,10)          -42.8471         calculate D2E/DX2 analytically  !
 ! D35   D(9,7,27,28)           87.0095         calculate D2E/DX2 analytically  !
 ! D36   D(9,7,27,29)         -179.76           calculate D2E/DX2 analytically  !
 ! D37   D(11,10,13,14)        166.8799         calculate D2E/DX2 analytically  !
 ! D38   D(11,10,13,15)        -75.4648         calculate D2E/DX2 analytically  !
 ! D39   D(11,10,13,23)         47.9256         calculate D2E/DX2 analytically  !
 ! D40   D(12,10,13,14)        -76.9818         calculate D2E/DX2 analytically  !
 ! D41   D(12,10,13,15)         40.6736         calculate D2E/DX2 analytically  !
 ! D42   D(12,10,13,23)        164.064          calculate D2E/DX2 analytically  !
 ! D43   D(27,10,13,14)         42.4399         calculate D2E/DX2 analytically  !
 ! D44   D(27,10,13,15)        160.0953         calculate D2E/DX2 analytically  !
 ! D45   D(27,10,13,23)        -76.5143         calculate D2E/DX2 analytically  !
 ! D46   D(11,10,27,7)          42.8532         calculate D2E/DX2 analytically  !
 ! D47   D(11,10,27,28)        -87.0039         calculate D2E/DX2 analytically  !
 ! D48   D(11,10,27,29)        179.7659         calculate D2E/DX2 analytically  !
 ! D49   D(12,10,27,7)         -70.9213         calculate D2E/DX2 analytically  !
 ! D50   D(12,10,27,28)        159.2216         calculate D2E/DX2 analytically  !
 ! D51   D(12,10,27,29)         65.9914         calculate D2E/DX2 analytically  !
 ! D52   D(13,10,27,7)         167.9036         calculate D2E/DX2 analytically  !
 ! D53   D(13,10,27,28)         38.0465         calculate D2E/DX2 analytically  !
 ! D54   D(13,10,27,29)        -55.1837         calculate D2E/DX2 analytically  !
 ! D55   D(10,13,15,16)         60.4702         calculate D2E/DX2 analytically  !
 ! D56   D(10,13,15,17)       -179.8974         calculate D2E/DX2 analytically  !
 ! D57   D(10,13,15,18)        -59.8131         calculate D2E/DX2 analytically  !
 ! D58   D(14,13,15,16)        177.6068         calculate D2E/DX2 analytically  !
 ! D59   D(14,13,15,17)        -62.7608         calculate D2E/DX2 analytically  !
 ! D60   D(14,13,15,18)         57.3235         calculate D2E/DX2 analytically  !
 ! D61   D(23,13,15,16)        -63.6805         calculate D2E/DX2 analytically  !
 ! D62   D(23,13,15,17)         55.9519         calculate D2E/DX2 analytically  !
 ! D63   D(23,13,15,18)        176.0362         calculate D2E/DX2 analytically  !
 ! D64   D(10,13,23,24)        178.2922         calculate D2E/DX2 analytically  !
 ! D65   D(10,13,23,25)        -62.3243         calculate D2E/DX2 analytically  !
 ! D66   D(10,13,23,26)         58.6301         calculate D2E/DX2 analytically  !
 ! D67   D(14,13,23,24)         59.9733         calculate D2E/DX2 analytically  !
 ! D68   D(14,13,23,25)        179.3569         calculate D2E/DX2 analytically  !
 ! D69   D(14,13,23,26)        -59.6887         calculate D2E/DX2 analytically  !
 ! D70   D(15,13,23,24)        -58.5963         calculate D2E/DX2 analytically  !
 ! D71   D(15,13,23,25)         60.7872         calculate D2E/DX2 analytically  !
 ! D72   D(15,13,23,26)       -178.2583         calculate D2E/DX2 analytically  !
 ! D73   D(7,27,29,30)        -110.5698         calculate D2E/DX2 analytically  !
 ! D74   D(10,27,29,30)        110.5674         calculate D2E/DX2 analytically  !
 ! D75   D(28,27,29,30)         -0.0006         calculate D2E/DX2 analytically  !
 --------------------------------------------------------------------------------
 Trust Radius=3.00D-01 FncErr=1.00D-07 GrdErr=1.00D-06
 Number of steps in this run=    169 maximum allowed number of steps=    180.
 Search for a saddle point of order  1.
 GradGradGradGradGradGradGradGradGradGradGradGradGradGradGradGradGradGrad

 Leave Link  103 at Sun Feb 23 14:54:30 2014, MaxMem= 4026531840 cpu:       0.2
 (Enter /usr/caen/gaussian-09revc/g09/l202.exe)
                          Input orientation:                          
 ---------------------------------------------------------------------
 Center     Atomic      Atomic             Coordinates (Angstroms)
 Number     Number       Type             X           Y           Z
 ---------------------------------------------------------------------
      1          6           0        3.812526   -0.972573    0.049494
      2          1           0        3.752025   -1.755255   -0.712313
      3          1           0        3.899521   -1.461402    1.026498
      4          1           0        4.734775   -0.410440   -0.121394
      5          6           0        2.589013   -0.046933   -0.000234
      6          1           0        2.523622    0.381028   -1.005519
      7          6           0        1.300284   -0.859067    0.240349
      8          1           0        1.375783   -1.815297   -0.299178
      9          1           0        1.210446   -1.110711    1.303171
     10          6           0       -1.300261   -0.859057    0.240411
     11          1           0       -1.210421   -1.110604    1.303257
     12          1           0       -1.375729   -1.815339   -0.299029
     13          6           0       -2.589005   -0.046976   -0.000252
     14          1           0       -2.523635    0.380865   -1.005590
     15          6           0       -3.812503   -0.972629    0.049604
     16          1           0       -3.899488   -1.461329    1.026674
     17          1           0       -4.734762   -0.410533   -0.121356
     18          1           0       -3.751994   -1.755413   -0.712098
     19          6           0        2.739076    1.100572    1.008433
     20          1           0        2.819795    0.714121    2.030860
     21          1           0        3.642465    1.680906    0.801196
     22          1           0        1.895080    1.793388    0.973390
     23          6           0       -2.739077    1.100642    1.008286
     24          1           0       -3.642507    1.680906    0.801027
     25          1           0       -2.819730    0.714300    2.030760
     26          1           0       -1.895122    1.793498    0.973135
     27          6           0        0.000003   -0.231573   -0.222554
     28          1           0       -0.000002    1.081456   -0.006313
     29          8           0       -0.000020    0.129034   -1.582970
     30          8           0       -0.000038    1.572394   -1.195579
 ---------------------------------------------------------------------
                    Distance matrix (angstroms):
                    1          2          3          4          5
     1  C    0.000000
     2  H    1.093893   0.000000
     3  H    1.095928   1.769624   0.000000
     4  H    1.093499   1.767346   1.766303   0.000000
     5  C    1.535013   2.185868   2.184567   2.179704   0.000000
     6  H    2.146290   2.481662   3.068671   2.509441   1.094543
     7  C    2.522037   2.778804   2.781523   3.482507   1.542162
     8  H    2.601821   2.412636   2.872614   3.645279   2.165273
     9  H    2.891645   3.307149   2.725923   3.865315   2.175071
    10  C    5.117609   5.218855   5.293249   6.062493   3.980441
    11  H    5.178897   5.394809   5.129441   6.153472   4.155260
    12  H    5.267800   5.144733   5.450739   6.272444   4.351519
    13  C    6.468292   6.605597   6.719806   7.333794   5.178018
    14  H    6.564445   6.635731   6.984287   7.354759   5.228090
    15  C    7.625029   7.642977   7.789001   8.567453   6.468292
    16  H    7.789026   7.852141   7.799009   8.773422   6.719799
    17  H    8.567451   8.612959   8.773411   9.469537   7.333795
    18  H    7.642959   7.504019   7.852060   8.612963   6.605606
    19  C    2.523844   3.484649   2.812591   2.746358   1.535153
    20  H    2.785007   3.806819   2.628203   3.092569   2.181240
    21  H    2.763137   3.756317   3.160845   2.533385   2.176575
    22  H    3.490089   4.345424   3.822860   3.757563   2.194600
    23  C    6.938372   7.297329   7.115854   7.708308   5.542796
    24  H    7.948790   8.293160   8.173562   8.683516   6.516079
    25  H    7.124449   7.537315   7.133762   7.935197   5.827428
    26  H    6.409486   6.879292   6.646436   7.071836   4.943895
    27  C    3.893382   4.079110   4.275377   4.739229   2.605089
    28  H    4.330995   4.756372   4.768554   4.965593   2.824234
    29  O    4.291152   4.287940   4.954314   4.984528   3.039590
    30  O    4.750022   5.038330   5.417389   5.244422   3.279368
                    6          7          8          9         10
     6  H    0.000000
     7  C    2.141630   0.000000
     8  H    2.576877   1.100530   0.000000
     9  H    3.046271   1.095895   1.758209   0.000000
    10  C    4.208590   2.600545   2.892536   2.737962   0.000000
    11  H    4.636646   2.738007   3.122954   2.420867   1.095896
    12  H    4.530794   2.892478   2.751512   3.122795   1.100530
    13  C    5.228069   3.980446   4.351535   4.155270   1.542159
    14  H    5.047257   4.208581   4.530740   4.636652   2.141628
    15  C    6.564461   5.117604   5.267832   5.178853   2.522036
    16  H    6.984299   5.293265   5.450840   5.129406   2.781532
    17  H    7.354757   6.062491   6.272459   6.153456   3.482506
    18  H    6.635799   5.218822   5.144724   5.394697   2.778799
    19  C    2.149457   2.549561   3.474292   2.704321   4.554805
    20  H    3.068919   2.826617   3.729907   2.539596   4.759775
    21  H    2.491127   3.500261   4.309537   3.736284   5.585377
    22  H    2.511156   2.815431   3.861568   3.001878   4.216981
    23  C    5.680603   4.554846   5.210013   4.536052   2.549558
    24  H    6.555489   5.585428   6.214268   5.621070   3.500260
    25  H    6.154793   4.759787   5.424924   4.483567   2.826586
    26  H    5.043356   4.217072   5.033985   4.264728   2.815456
    27  C    2.712373   1.516166   2.099244   2.136795   1.516166
    28  H    2.803157   2.348875   3.220207   2.825868   2.348859
    29  O    2.601100   2.447780   2.705805   3.366304   2.447789
    30  O    2.797201   3.108815   3.764687   3.861098   3.108794
                   11         12         13         14         15
    11  H    0.000000
    12  H    1.758209   0.000000
    13  C    2.175071   2.165275   0.000000
    14  H    3.046274   2.576864   1.094544   0.000000
    15  C    2.891628   2.601840   1.535014   2.146290   0.000000
    16  H    2.725910   2.872659   2.184568   3.068672   1.095929
    17  H    3.865307   3.645292   2.179705   2.509435   1.093499
    18  H    3.307118   2.412644   2.185869   2.481670   1.093893
    19  C    4.535939   5.209953   5.542811   5.680704   6.938350
    20  H    4.483488   5.424848   5.827504   6.154944   7.124456
    21  H    5.620952   6.214217   6.516066   6.555560   7.948754
    22  H    4.264519   5.033900   4.943879   5.043474   6.409425
    23  C    2.704331   3.474296   1.535154   2.149463   2.523840
    24  H    3.736282   4.309540   2.176578   2.491154   2.763111
    25  H    2.539569   3.729897   2.181235   3.068920   2.785015
    26  H    3.001933   3.861590   2.194607   2.511158   3.490089
    27  C    2.136802   2.099238   2.605083   2.712374   3.893384
    28  H    2.825812   3.220206   2.824240   2.803231   4.330999
    29  O    3.366315   2.705858   3.039543   2.601042   4.291152
    30  O    3.861047   3.764713   3.279316   2.797209   4.750001
                   16         17         18         19         20
    16  H    0.000000
    17  H    1.766303   0.000000
    18  H    1.769624   1.767346   0.000000
    19  C    7.115771   7.708315   7.297319   0.000000
    20  H    7.133704   7.935251   7.537296   1.096000   0.000000
    21  H    8.173465   8.683499   8.293152   1.093548   1.767352
    22  H    6.646280   7.071813   6.879266   1.092498   1.771485
    23  C    2.812577   2.746361   3.484648   5.478153   5.665343
    24  H    3.160791   2.533363   3.756304   6.411272   6.648948
    25  H    2.628199   3.092604   3.806819   5.665217   5.639525
    26  H    3.822859   3.757555   4.345429   4.685849   4.951190
    27  C    4.275383   4.739226   4.079120   3.285188   3.731412
    28  H    4.768523   4.965604   4.756406   2.921065   3.498037
    29  O    4.954326   4.984499   4.287991   3.893829   4.620979
    30  O    5.417342   5.244384   5.038375   3.547257   4.370126
                   21         22         23         24         25
    21  H    0.000000
    22  H    1.759448   0.000000
    23  C    6.411214   4.685779   0.000000
    24  H    7.284972   5.541411   1.093549   0.000000
    25  H    6.648768   4.950949   1.096001   1.767352   0.000000
    26  H    5.541400   3.790202   1.092495   1.759447   1.771479
    27  C    4.239477   3.020276   3.285167   4.239478   3.731353
    28  H    3.778753   2.249000   2.921012   3.778754   3.497905
    29  O    4.621715   3.591163   3.893721   4.621630   4.620860
    30  O    4.155323   2.888726   3.547098   4.155212   4.369926
                   26         27         28         29         30
    26  H    0.000000
    27  C    3.020279   0.000000
    28  H    2.248956   1.330716   0.000000
    29  O    3.591034   1.407398   1.841998   0.000000
    30  O    2.888521   2.049652   1.286613   1.494443   0.000000
 Stoichiometry    C9H19O2(2)
 Framework group  C1[X(C9H19O2)]
 Deg. of freedom    84
 Full point group                 C1      NOp   1
 Largest Abelian subgroup         C1      NOp   1
 Largest concise Abelian subgroup C1      NOp   1
                         Standard orientation:                         
 ---------------------------------------------------------------------
 Center     Atomic      Atomic             Coordinates (Angstroms)
 Number     Number       Type             X           Y           Z
 ---------------------------------------------------------------------
      1          6           0       -3.812526   -0.972573   -0.049494
      2          1           0       -3.752025   -1.755255    0.712313
      3          1           0       -3.899521   -1.461402   -1.026498
      4          1           0       -4.734775   -0.410440    0.121394
      5          6           0       -2.589013   -0.046933    0.000234
      6          1           0       -2.523622    0.381028    1.005519
      7          6           0       -1.300284   -0.859067   -0.240349
      8          1           0       -1.375783   -1.815297    0.299178
      9          1           0       -1.210446   -1.110711   -1.303171
     10          6           0        1.300261   -0.859057   -0.240411
     11          1           0        1.210421   -1.110604   -1.303257
     12          1           0        1.375729   -1.815339    0.299029
     13          6           0        2.589005   -0.046976    0.000252
     14          1           0        2.523635    0.380865    1.005590
     15          6           0        3.812503   -0.972629   -0.049604
     16          1           0        3.899488   -1.461329   -1.026674
     17          1           0        4.734762   -0.410533    0.121356
     18          1           0        3.751994   -1.755413    0.712098
     19          6           0       -2.739076    1.100572   -1.008433
     20          1           0       -2.819795    0.714121   -2.030860
     21          1           0       -3.642465    1.680906   -0.801196
     22          1           0       -1.895080    1.793388   -0.973390
     23          6           0        2.739077    1.100642   -1.008286
     24          1           0        3.642507    1.680906   -0.801027
     25          1           0        2.819730    0.714300   -2.030760
     26          1           0        1.895122    1.793498   -0.973135
     27          6           0       -0.000003   -0.231573    0.222554
     28          1           0        0.000002    1.081456    0.006313
     29          8           0        0.000020    0.129034    1.582970
     30          8           0        0.000038    1.572394    1.195579
 ---------------------------------------------------------------------
 Rotational constants (GHZ):      1.9902088      0.4991162      0.4814283
 Leave Link  202 at Sun Feb 23 14:54:31 2014, MaxMem= 4026531840 cpu:       0.3
 (Enter /usr/caen/gaussian-09revc/g09/l301.exe)
 Standard basis: 6-311G(2d,d,p) (5D, 7F)
 Ernie: Thresh=  0.10000D-02 Tol=  0.10000D-05 Strict=F.
 There are   312 symmetry adapted basis functions of A   symmetry.
 Integral buffers will be    131072 words long.
 Raffenetti 2 integral format.
 Two-electron integral symmetry is turned on.
   312 basis functions,   504 primitive gaussians,   323 cartesian basis functions
    45 alpha electrons       44 beta electrons
       nuclear repulsion energy       672.7346046174 Hartrees.
 IExCor=  402 DFT=T Ex+Corr=B3LYP ExCW=0 ScaHFX=  0.200000
 ScaDFX=  0.800000  0.720000  1.000000  0.810000 ScalE2=  1.000000  1.000000
 IRadAn=      0 IRanWt=     -1 IRanGd=            0 ICorTp=0
 NAtoms=   30 NActive=   30 NUniq=   30 SFac= 1.00D+00 NAtFMM=   60 NAOKFM=F Big=F
 Leave Link  301 at Sun Feb 23 14:54:31 2014, MaxMem= 4026531840 cpu:       0.6
 (Enter /usr/caen/gaussian-09revc/g09/l302.exe)
 NPDir=0 NMtPBC=     1 NCelOv=     1 NCel=       1 NClECP=     1 NCelD=      1
         NCelK=      1 NCelE2=     1 NClLst=     1 CellRange=     0.0.
 One-electron integrals computed using PRISM.
 NBasis=   312 RedAO= T  NBF=   312
 NBsUse=   312 1.00D-06 NBFU=   312
 Precomputing XC quadrature grid using
 IXCGrd= 2 IRadAn=           0 IRanWt=          -1 IRanGd=           0 AccXCQ= 0.00D+00.
 NRdTot=    1911 NPtTot=      243698 NUsed=      257478 NTot=      257510
 NSgBfM=   323   323   323   323   323 NAtAll=    30    30.
 Leave Link  302 at Sun Feb 23 14:54:32 2014, MaxMem= 4026531840 cpu:       8.0
 (Enter /usr/caen/gaussian-09revc/g09/l303.exe)
 DipDrv:  MaxL=1.
 Leave Link  303 at Sun Feb 23 14:54:33 2014, MaxMem= 4026531840 cpu:       1.5
 (Enter /usr/caen/gaussian-09revc/g09/l401.exe)
 Harris functional with IExCor=  402 diagonalized for initial guess.
 ExpMin= 1.03D-01 ExpMax= 8.59D+03 ExpMxC= 1.30D+03 IAcc=1 IRadAn=         1 AccDes= 0.00D+00
 HarFok:  IExCor=  402 AccDes= 0.00D+00 IRadAn=         1 IDoV= 1
 ScaDFX=  1.000000  1.000000  1.000000  1.000000
 FoFCou: FMM=F IPFlag=           0 FMFlag=      100000 FMFlg1=           0
         NFxFlg=           0 DoJE=T BraDBF=F KetDBF=T FulRan=T
         Omega=  0.000000  0.000000  1.000000  0.000000  0.000000 ICntrl=     500 IOpCl=  0
         NMat0=    1 NMatS0=    1 NMatT0=    0 NMatD0=    1 NMtDS0=    0 NMtDT0=    0
         I1Cent=           4 NGrid=           0.
 Petite list used in FoFCou.
 Harris En= -504.867079728205    
 Initial guess orbital symmetries:
 Alpha Orbitals:
       Occupied  (A) (A) (A) (A) (A) (A) (A) (A) (A) (A) (A) (A)
                 (A) (A) (A) (A) (A) (A) (A) (A) (A) (A) (A) (A)
                 (A) (A) (A) (A) (A) (A) (A) (A) (A) (A) (A) (A)
                 (A) (A) (A) (A) (A) (A) (A) (A) (A)
       Virtual   (A) (A) (A) (A) (A) (A) (A) (A) (A) (A) (A) (A)
                 (A) (A) (A) (A) (A) (A) (A) (A) (A) (A) (A) (A)
                 (A) (A) (A) (A) (A) (A) (A) (A) (A) (A) (A) (A)
                 (A) (A) (A) (A) (A) (A) (A) (A) (A) (A) (A) (A)
                 (A) (A) (A) (A) (A) (A) (A) (A) (A) (A) (A) (A)
                 (A) (A) (A) (A) (A) (A) (A) (A) (A) (A) (A) (A)
                 (A) (A) (A) (A) (A) (A) (A) (A) (A) (A) (A) (A)
                 (A) (A) (A) (A) (A) (A) (A) (A) (A) (A) (A) (A)
                 (A) (A) (A) (A) (A) (A) (A) (A) (A) (A) (A) (A)
                 (A) (A) (A) (A) (A) (A) (A) (A) (A) (A) (A) (A)
                 (A) (A) (A) (A) (A) (A) (A) (A) (A) (A) (A) (A)
                 (A) (A) (A) (A) (A) (A) (A) (A) (A) (A) (A) (A)
                 (A) (A) (A) (A) (A) (A) (A) (A) (A) (A) (A) (A)
                 (A) (A) (A) (A) (A) (A) (A) (A) (A) (A) (A) (A)
                 (A) (A) (A) (A) (A) (A) (A) (A) (A) (A) (A) (A)
                 (A) (A) (A) (A) (A) (A) (A) (A) (A) (A) (A) (A)
                 (A) (A) (A) (A) (A) (A) (A) (A) (A) (A) (A) (A)
                 (A) (A) (A) (A) (A) (A) (A) (A) (A) (A) (A) (A)
                 (A) (A) (A) (A) (A) (A) (A) (A) (A) (A) (A) (A)
                 (A) (A) (A) (A) (A) (A) (A) (A) (A) (A) (A) (A)
                 (A) (A) (A) (A) (A) (A) (A) (A) (A) (A) (A) (A)
                 (A) (A) (A) (A) (A) (A) (A) (A) (A) (A) (A) (A)
                 (A) (A) (A)
 Beta  Orbitals:
       Occupied  (A) (A) (A) (A) (A) (A) (A) (A) (A) (A) (A) (A)
                 (A) (A) (A) (A) (A) (A) (A) (A) (A) (A) (A) (A)
                 (A) (A) (A) (A) (A) (A) (A) (A) (A) (A) (A) (A)
                 (A) (A) (A) (A) (A) (A) (A) (A)
       Virtual   (A) (A) (A) (A) (A) (A) (A) (A) (A) (A) (A) (A)
                 (A) (A) (A) (A) (A) (A) (A) (A) (A) (A) (A) (A)
                 (A) (A) (A) (A) (A) (A) (A) (A) (A) (A) (A) (A)
                 (A) (A) (A) (A) (A) (A) (A) (A) (A) (A) (A) (A)
                 (A) (A) (A) (A) (A) (A) (A) (A) (A) (A) (A) (A)
                 (A) (A) (A) (A) (A) (A) (A) (A) (A) (A) (A) (A)
                 (A) (A) (A) (A) (A) (A) (A) (A) (A) (A) (A) (A)
                 (A) (A) (A) (A) (A) (A) (A) (A) (A) (A) (A) (A)
                 (A) (A) (A) (A) (A) (A) (A) (A) (A) (A) (A) (A)
                 (A) (A) (A) (A) (A) (A) (A) (A) (A) (A) (A) (A)
                 (A) (A) (A) (A) (A) (A) (A) (A) (A) (A) (A) (A)
                 (A) (A) (A) (A) (A) (A) (A) (A) (A) (A) (A) (A)
                 (A) (A) (A) (A) (A) (A) (A) (A) (A) (A) (A) (A)
                 (A) (A) (A) (A) (A) (A) (A) (A) (A) (A) (A) (A)
                 (A) (A) (A) (A) (A) (A) (A) (A) (A) (A) (A) (A)
                 (A) (A) (A) (A) (A) (A) (A) (A) (A) (A) (A) (A)
                 (A) (A) (A) (A) (A) (A) (A) (A) (A) (A) (A) (A)
                 (A) (A) (A) (A) (A) (A) (A) (A) (A) (A) (A) (A)
                 (A) (A) (A) (A) (A) (A) (A) (A) (A) (A) (A) (A)
                 (A) (A) (A) (A) (A) (A) (A) (A) (A) (A) (A) (A)
                 (A) (A) (A) (A) (A) (A) (A) (A) (A) (A) (A) (A)
                 (A) (A) (A) (A) (A) (A) (A) (A) (A) (A) (A) (A)
                 (A) (A) (A) (A)
 The electronic state of the initial guess is 2-A.
 Initial guess <Sx>= 0.0000 <Sy>= 0.0000 <Sz>= 0.5000 <S**2>= 0.7500 S= 0.5000
 Leave Link  401 at Sun Feb 23 14:54:35 2014, MaxMem= 4026531840 cpu:      12.1
 (Enter /usr/caen/gaussian-09revc/g09/l502.exe)
 UHF open shell SCF:
 Requested convergence on RMS density matrix=1.00D-08 within 128 cycles.
 Requested convergence on MAX density matrix=1.00D-06.
 Requested convergence on             energy=1.00D-06.
 No special actions if energy rises.
 Using DIIS extrapolation, IDIIS=  1040.
 Integral symmetry usage will be decided dynamically.
       257195 words used for storage of precomputed grid.
 Keep R1 and R2 ints in memory in canonical form, NReq=2755661926.
 IEnd=      593353 IEndB=      593353 NGot=  4026531840 MDV=  1287997150
 LenX=  1287997150 LenY=  1287892380
 Symmetry not used in FoFDir.
 MinBra= 0 MaxBra= 2 Meth= 1.
 IRaf=       0 NMat=   1 IRICut=       1 DoRegI=T DoRafI=F ISym2E= 0 JSym2E=0.
 Integral accuracy reduced to 1.0D-05 until final iterations.

 Cycle   1  Pass 0  IDiag  1:
 E= -504.427100178601    
 DIIS: error= 4.67D-02 at cycle   1 NSaved=   1.
 NSaved= 1 IEnMin= 1 EnMin= -504.427100178601     IErMin= 1 ErrMin= 4.67D-02
 ErrMax= 4.67D-02 EMaxC= 1.00D-01 BMatC= 1.53D+00 BMatP= 1.53D+00
 IDIUse=3 WtCom= 5.33D-01 WtEn= 4.67D-01
 Coeff-Com:  0.100D+01
 Coeff-En:   0.100D+01
 Coeff:      0.100D+01
 Gap=     0.246 Goal=   None    Shift=    0.000
 Gap=     0.118 Goal=   None    Shift=    0.000
 GapD=    0.118 DampG=1.000 DampE=0.500 DampFc=0.5000 IDamp=-1.
 Damping current iteration by 5.00D-01
 RMSDP=3.20D-03 MaxDP=1.21D-01              OVMax= 1.84D-01

 Cycle   2  Pass 0  IDiag  1:
 E= -504.588921556338     Delta-E=       -0.161821377737 Rises=F Damp=T
 DIIS: error= 7.54D-03 at cycle   2 NSaved=   2.
 NSaved= 2 IEnMin= 2 EnMin= -504.588921556338     IErMin= 2 ErrMin= 7.54D-03
 ErrMax= 7.54D-03 EMaxC= 1.00D-01 BMatC= 7.74D-02 BMatP= 1.53D+00
 IDIUse=3 WtCom= 9.25D-01 WtEn= 7.54D-02
 Coeff-Com:  0.620D-01 0.938D+00
 Coeff-En:   0.148D+00 0.852D+00
 Coeff:      0.685D-01 0.932D+00
 Gap=     0.318 Goal=   None    Shift=    0.000
 Gap=     0.192 Goal=   None    Shift=    0.000
 RMSDP=6.59D-04 MaxDP=1.94D-02 DE=-1.62D-01 OVMax= 1.15D-01

 Cycle   3  Pass 0  IDiag  1:
 E= -504.799008031404     Delta-E=       -0.210086475066 Rises=F Damp=F
 DIIS: error= 5.01D-03 at cycle   3 NSaved=   3.
 NSaved= 3 IEnMin= 3 EnMin= -504.799008031404     IErMin= 3 ErrMin= 5.01D-03
 ErrMax= 5.01D-03 EMaxC= 1.00D-01 BMatC= 2.19D-02 BMatP= 7.74D-02
 IDIUse=3 WtCom= 9.50D-01 WtEn= 5.01D-02
 Coeff-Com: -0.202D-01 0.303D+00 0.717D+00
 Coeff-En:   0.000D+00 0.000D+00 0.100D+01
 Coeff:     -0.191D-01 0.288D+00 0.731D+00
 Gap=     0.242 Goal=   None    Shift=    0.000
 Gap=     0.126 Goal=   None    Shift=    0.000
 RMSDP=3.28D-04 MaxDP=1.16D-02 DE=-2.10D-01 OVMax= 1.78D-02

 Cycle   4  Pass 0  IDiag  1:
 E= -504.802454239175     Delta-E=       -0.003446207771 Rises=F Damp=F
 DIIS: error= 2.90D-03 at cycle   4 NSaved=   4.
 NSaved= 4 IEnMin= 4 EnMin= -504.802454239175     IErMin= 4 ErrMin= 2.90D-03
 ErrMax= 2.90D-03 EMaxC= 1.00D-01 BMatC= 8.99D-03 BMatP= 2.19D-02
 IDIUse=3 WtCom= 9.71D-01 WtEn= 2.90D-02
 Coeff-Com: -0.173D-01 0.887D-01 0.418D+00 0.511D+00
 Coeff-En:   0.000D+00 0.000D+00 0.241D+00 0.759D+00
 Coeff:     -0.168D-01 0.861D-01 0.412D+00 0.518D+00
 Gap=     0.244 Goal=   None    Shift=    0.000
 Gap=     0.127 Goal=   None    Shift=    0.000
 RMSDP=1.37D-04 MaxDP=7.68D-03 DE=-3.45D-03 OVMax= 1.91D-02

 Cycle   5  Pass 0  IDiag  1:
 E= -504.803943330246     Delta-E=       -0.001489091071 Rises=F Damp=F
 DIIS: error= 1.82D-03 at cycle   5 NSaved=   5.
 NSaved= 5 IEnMin= 5 EnMin= -504.803943330246     IErMin= 5 ErrMin= 1.82D-03
 ErrMax= 1.82D-03 EMaxC= 1.00D-01 BMatC= 2.23D-03 BMatP= 8.99D-03
 IDIUse=3 WtCom= 9.82D-01 WtEn= 1.82D-02
 Coeff-Com: -0.937D-02 0.256D-01 0.206D+00 0.365D+00 0.412D+00
 Coeff-En:   0.000D+00 0.000D+00 0.000D+00 0.156D+00 0.844D+00
 Coeff:     -0.920D-02 0.251D-01 0.203D+00 0.361D+00 0.420D+00
 Gap=     0.244 Goal=   None    Shift=    0.000
 Gap=     0.126 Goal=   None    Shift=    0.000
 RMSDP=5.97D-05 MaxDP=2.83D-03 DE=-1.49D-03 OVMax= 6.24D-03

 Cycle   6  Pass 0  IDiag  1:
 E= -504.804327689782     Delta-E=       -0.000384359536 Rises=F Damp=F
 DIIS: error= 5.54D-04 at cycle   6 NSaved=   6.
 NSaved= 6 IEnMin= 6 EnMin= -504.804327689782     IErMin= 6 ErrMin= 5.54D-04
 ErrMax= 5.54D-04 EMaxC= 1.00D-01 BMatC= 2.07D-04 BMatP= 2.23D-03
 IDIUse=3 WtCom= 9.94D-01 WtEn= 5.54D-03
 Coeff-Com: -0.139D-02-0.519D-02 0.260D-01 0.106D+00 0.260D+00 0.615D+00
 Coeff-En:   0.000D+00 0.000D+00 0.000D+00 0.000D+00 0.736D-01 0.926D+00
 Coeff:     -0.138D-02-0.516D-02 0.259D-01 0.105D+00 0.259D+00 0.617D+00
 Gap=     0.243 Goal=   None    Shift=    0.000
 Gap=     0.127 Goal=   None    Shift=    0.000
 RMSDP=1.95D-05 MaxDP=9.37D-04 DE=-3.84D-04 OVMax= 2.34D-03

 Cycle   7  Pass 0  IDiag  1:
 E= -504.804379759947     Delta-E=       -0.000052070165 Rises=F Damp=F
 DIIS: error= 1.72D-04 at cycle   7 NSaved=   7.
 NSaved= 7 IEnMin= 7 EnMin= -504.804379759947     IErMin= 7 ErrMin= 1.72D-04
 ErrMax= 1.72D-04 EMaxC= 1.00D-01 BMatC= 1.22D-05 BMatP= 2.07D-04
 IDIUse=3 WtCom= 9.98D-01 WtEn= 1.72D-03
 Coeff-Com:  0.136D-02-0.459D-02-0.286D-01-0.382D-01-0.463D-01 0.909D-01
 Coeff-Com:  0.103D+01
 Coeff-En:   0.000D+00 0.000D+00 0.000D+00 0.000D+00 0.000D+00 0.000D+00
 Coeff-En:   0.100D+01
 Coeff:      0.136D-02-0.458D-02-0.285D-01-0.381D-01-0.462D-01 0.908D-01
 Coeff:      0.103D+01
 Gap=     0.244 Goal=   None    Shift=    0.000
 Gap=     0.127 Goal=   None    Shift=    0.000
 RMSDP=1.02D-05 MaxDP=6.06D-04 DE=-5.21D-05 OVMax= 1.54D-03

 Cycle   8  Pass 0  IDiag  1:
 E= -504.804386891400     Delta-E=       -0.000007131454 Rises=F Damp=F
 DIIS: error= 1.06D-04 at cycle   8 NSaved=   8.
 NSaved= 8 IEnMin= 8 EnMin= -504.804386891400     IErMin= 8 ErrMin= 1.06D-04
 ErrMax= 1.06D-04 EMaxC= 1.00D-01 BMatC= 6.63D-06 BMatP= 1.22D-05
 IDIUse=3 WtCom= 9.99D-01 WtEn= 1.06D-03
 Coeff-Com:  0.111D-02-0.182D-02-0.229D-01-0.432D-01-0.836D-01-0.629D-01
 Coeff-Com:  0.608D+00 0.606D+00
 Coeff-En:   0.000D+00 0.000D+00 0.000D+00 0.000D+00 0.000D+00 0.000D+00
 Coeff-En:   0.000D+00 0.100D+01
 Coeff:      0.111D-02-0.181D-02-0.228D-01-0.432D-01-0.835D-01-0.629D-01
 Coeff:      0.607D+00 0.606D+00
 Gap=     0.243 Goal=   None    Shift=    0.000
 Gap=     0.128 Goal=   None    Shift=    0.000
 RMSDP=5.38D-06 MaxDP=2.52D-04 DE=-7.13D-06 OVMax= 5.88D-04

 Initial convergence to 1.0D-05 achieved.  Increase integral accuracy.
 Cycle   9  Pass 1  IDiag  1:
 E= -504.804413701264     Delta-E=       -0.000026809864 Rises=F Damp=F
 DIIS: error= 3.63D-05 at cycle   1 NSaved=   1.
 NSaved= 1 IEnMin= 1 EnMin= -504.804413701264     IErMin= 1 ErrMin= 3.63D-05
 ErrMax= 3.63D-05 EMaxC= 1.00D-01 BMatC= 1.85D-06 BMatP= 1.85D-06
 IDIUse=1 WtCom= 1.00D+00 WtEn= 0.00D+00
 Coeff-Com:  0.100D+01
 Coeff:      0.100D+01
 Gap=     0.244 Goal=   None    Shift=    0.000
 Gap=     0.127 Goal=   None    Shift=    0.000
 RMSDP=5.38D-06 MaxDP=2.52D-04 DE=-2.68D-05 OVMax= 3.51D-04

 Cycle  10  Pass 1  IDiag  1:
 E= -504.804414124341     Delta-E=       -0.000000423077 Rises=F Damp=F
 DIIS: error= 5.44D-05 at cycle   2 NSaved=   2.
 NSaved= 2 IEnMin= 2 EnMin= -504.804414124341     IErMin= 1 ErrMin= 3.63D-05
 ErrMax= 5.44D-05 EMaxC= 1.00D-01 BMatC= 1.98D-06 BMatP= 1.85D-06
 IDIUse=1 WtCom= 1.00D+00 WtEn= 0.00D+00
 Coeff-Com:  0.512D+00 0.488D+00
 Coeff:      0.512D+00 0.488D+00
 Gap=     0.243 Goal=   None    Shift=    0.000
 Gap=     0.128 Goal=   None    Shift=    0.000
 RMSDP=2.16D-06 MaxDP=1.04D-04 DE=-4.23D-07 OVMax= 1.94D-04

 Cycle  11  Pass 1  IDiag  1:
 E= -504.804414516637     Delta-E=       -0.000000392296 Rises=F Damp=F
 DIIS: error= 2.32D-05 at cycle   3 NSaved=   3.
 NSaved= 3 IEnMin= 3 EnMin= -504.804414516637     IErMin= 3 ErrMin= 2.32D-05
 ErrMax= 2.32D-05 EMaxC= 1.00D-01 BMatC= 2.99D-07 BMatP= 1.85D-06
 IDIUse=1 WtCom= 1.00D+00 WtEn= 0.00D+00
 Coeff-Com: -0.752D-01 0.243D+00 0.832D+00
 Coeff:     -0.752D-01 0.243D+00 0.832D+00
 Gap=     0.243 Goal=   None    Shift=    0.000
 Gap=     0.127 Goal=   None    Shift=    0.000
 RMSDP=9.73D-07 MaxDP=7.38D-05 DE=-3.92D-07 OVMax= 1.51D-04

 Cycle  12  Pass 1  IDiag  1:
 E= -504.804414638440     Delta-E=       -0.000000121803 Rises=F Damp=F
 DIIS: error= 1.03D-05 at cycle   4 NSaved=   4.
 NSaved= 4 IEnMin= 4 EnMin= -504.804414638440     IErMin= 4 ErrMin= 1.03D-05
 ErrMax= 1.03D-05 EMaxC= 1.00D-01 BMatC= 3.78D-08 BMatP= 2.99D-07
 IDIUse=1 WtCom= 1.00D+00 WtEn= 0.00D+00
 Coeff-Com: -0.645D-01 0.809D-02 0.207D+00 0.849D+00
 Coeff:     -0.645D-01 0.809D-02 0.207D+00 0.849D+00
 Gap=     0.243 Goal=   None    Shift=    0.000
 Gap=     0.127 Goal=   None    Shift=    0.000
 RMSDP=5.11D-07 MaxDP=4.08D-05 DE=-1.22D-07 OVMax= 9.92D-05

 Cycle  13  Pass 1  IDiag  1:
 E= -504.804414662836     Delta-E=       -0.000000024397 Rises=F Damp=F
 DIIS: error= 9.01D-06 at cycle   5 NSaved=   5.
 NSaved= 5 IEnMin= 5 EnMin= -504.804414662836     IErMin= 5 ErrMin= 9.01D-06
 ErrMax= 9.01D-06 EMaxC= 1.00D-01 BMatC= 3.24D-08 BMatP= 3.78D-08
 IDIUse=1 WtCom= 1.00D+00 WtEn= 0.00D+00
 Coeff-Com: -0.146D-01-0.113D+00-0.240D+00 0.649D+00 0.718D+00
 Coeff:     -0.146D-01-0.113D+00-0.240D+00 0.649D+00 0.718D+00
 Gap=     0.243 Goal=   None    Shift=    0.000
 Gap=     0.127 Goal=   None    Shift=    0.000
 RMSDP=4.75D-07 MaxDP=3.81D-05 DE=-2.44D-08 OVMax= 9.18D-05

 Cycle  14  Pass 1  IDiag  1:
 E= -504.804414676261     Delta-E=       -0.000000013424 Rises=F Damp=F
 DIIS: error= 5.50D-06 at cycle   6 NSaved=   6.
 NSaved= 6 IEnMin= 6 EnMin= -504.804414676261     IErMin= 6 ErrMin= 5.50D-06
 ErrMax= 5.50D-06 EMaxC= 1.00D-01 BMatC= 1.82D-08 BMatP= 3.24D-08
 IDIUse=1 WtCom= 1.00D+00 WtEn= 0.00D+00
 Coeff-Com:  0.123D-01-0.100D+00-0.279D+00 0.227D+00 0.611D+00 0.528D+00
 Coeff:      0.123D-01-0.100D+00-0.279D+00 0.227D+00 0.611D+00 0.528D+00
 Gap=     0.243 Goal=   None    Shift=    0.000
 Gap=     0.127 Goal=   None    Shift=    0.000
 RMSDP=2.39D-07 MaxDP=1.78D-05 DE=-1.34D-08 OVMax= 4.81D-05

 Cycle  15  Pass 1  IDiag  1:
 E= -504.804414681268     Delta-E=       -0.000000005007 Rises=F Damp=F
 DIIS: error= 6.02D-07 at cycle   7 NSaved=   7.
 NSaved= 7 IEnMin= 7 EnMin= -504.804414681268     IErMin= 7 ErrMin= 6.02D-07
 ErrMax= 6.02D-07 EMaxC= 1.00D-01 BMatC= 5.48D-10 BMatP= 1.82D-08
 IDIUse=1 WtCom= 1.00D+00 WtEn= 0.00D+00
 Coeff-Com:  0.719D-02-0.390D-01-0.119D+00 0.571D-01 0.241D+00 0.251D+00
 Coeff-Com:  0.602D+00
 Coeff:      0.719D-02-0.390D-01-0.119D+00 0.571D-01 0.241D+00 0.251D+00
 Coeff:      0.602D+00
 Gap=     0.243 Goal=   None    Shift=    0.000
 Gap=     0.127 Goal=   None    Shift=    0.000
 RMSDP=4.47D-08 MaxDP=2.44D-06 DE=-5.01D-09 OVMax= 5.19D-06

 Cycle  16  Pass 1  IDiag  1:
 E= -504.804414681408     Delta-E=       -0.000000000140 Rises=F Damp=F
 DIIS: error= 1.63D-07 at cycle   8 NSaved=   8.
 NSaved= 8 IEnMin= 8 EnMin= -504.804414681408     IErMin= 8 ErrMin= 1.63D-07
 ErrMax= 1.63D-07 EMaxC= 1.00D-01 BMatC= 3.62D-11 BMatP= 5.48D-10
 IDIUse=1 WtCom= 1.00D+00 WtEn= 0.00D+00
 Coeff-Com:  0.130D-02-0.386D-02-0.159D-01 0.199D-03 0.276D-01 0.317D-01
 Coeff-Com:  0.222D+00 0.737D+00
 Coeff:      0.130D-02-0.386D-02-0.159D-01 0.199D-03 0.276D-01 0.317D-01
 Coeff:      0.222D+00 0.737D+00
 Gap=     0.243 Goal=   None    Shift=    0.000
 Gap=     0.127 Goal=   None    Shift=    0.000
 RMSDP=1.18D-08 MaxDP=3.64D-07 DE=-1.40D-10 OVMax= 1.04D-06

 Cycle  17  Pass 1  IDiag  1:
 E= -504.804414681412     Delta-E=       -0.000000000005 Rises=F Damp=F
 DIIS: error= 5.31D-08 at cycle   9 NSaved=   9.
 NSaved= 9 IEnMin= 9 EnMin= -504.804414681412     IErMin= 9 ErrMin= 5.31D-08
 ErrMax= 5.31D-08 EMaxC= 1.00D-01 BMatC= 3.58D-12 BMatP= 3.62D-11
 IDIUse=1 WtCom= 1.00D+00 WtEn= 0.00D+00
 Coeff-Com: -0.197D-03 0.234D-02 0.538D-02-0.532D-02-0.120D-01-0.141D-01
 Coeff-Com:  0.244D-01 0.260D+00 0.740D+00
 Coeff:     -0.197D-03 0.234D-02 0.538D-02-0.532D-02-0.120D-01-0.141D-01
 Coeff:      0.244D-01 0.260D+00 0.740D+00
 Gap=     0.243 Goal=   None    Shift=    0.000
 Gap=     0.127 Goal=   None    Shift=    0.000
 RMSDP=3.85D-09 MaxDP=1.39D-07 DE=-4.55D-12 OVMax= 4.56D-07

 SCF Done:  E(UB3LYP) =  -504.804414681     A.U. after   17 cycles
             Convg  =    0.3852D-08             -V/T =  2.0043
 <Sx>= 0.0000 <Sy>= 0.0000 <Sz>= 0.5000 <S**2>= 0.7582 S= 0.5041
 <L.S>= 0.000000000000E+00
 KE= 5.026575032814D+02 PE=-2.521322134489D+03 EE= 8.411256119086D+02
 Annihilation of the first spin contaminant:
 S**2 before annihilation     0.7582,   after     0.7500
 Leave Link  502 at Sun Feb 23 14:59:03 2014, MaxMem= 4026531840 cpu:    1878.2
 (Enter /usr/caen/gaussian-09revc/g09/l801.exe)
 Range of M.O.s used for correlation:     1   312
 NBasis=   312 NAE=    45 NBE=    44 NFC=     0 NFV=     0
 NROrb=    312 NOA=    45 NOB=    44 NVA=   267 NVB=   268
 Leave Link  801 at Sun Feb 23 14:59:04 2014, MaxMem= 4026531840 cpu:       0.3
 (Enter /usr/caen/gaussian-09revc/g09/l1101.exe)
 Using compressed storage, NAtomX=    30.
 Will process  31 centers per pass.
 Leave Link 1101 at Sun Feb 23 14:59:07 2014, MaxMem= 4026531840 cpu:      18.2
 (Enter /usr/caen/gaussian-09revc/g09/l1102.exe)
 Symmetrizing basis deriv contribution to polar:
 IMax=3 JMax=2 DiffMx= 0.00D+00
 Leave Link 1102 at Sun Feb 23 14:59:07 2014, MaxMem= 4026531840 cpu:       1.7
 (Enter /usr/caen/gaussian-09revc/g09/l1110.exe)
 Forming Gx(P) for the SCF density, NAtomX=    30.
 Integral derivatives from FoFDir/FoFCou, PRISM(SPDF).
 Do as many integral derivatives as possible in FoFDir.
 G2DrvN: MDV=    4026531496.
 G2DrvN: will do    31 centers at a time, making    1 passes doing MaxLOS=2.
 Calling FoFCou, ICntrl=  3107 FMM=F I1Cent=   0 AccDes= 0.00D+00.
 FoFCou: FMM=F IPFlag=           0 FMFlag=      100000 FMFlg1=           0
         NFxFlg=           0 DoJE=F BraDBF=F KetDBF=F FulRan=T
         Omega=  0.000000  0.000000  1.000000  0.000000  0.000000 ICntrl=    3107 IOpCl=  1
         NMat0=    1 NMatS0=    1 NMatT0=    0 NMatD0=    1 NMtDS0=    0 NMtDT0=    0
         I1Cent=           0 NGrid=           0.
 Symmetry not used in FoFCou.
 FoFDir/FoFCou used for L=0 through L=2.
 End of G2Drv Frequency-dependent properties file   721 does not exist.
 End of G2Drv Frequency-dependent properties file   722 does not exist.
 Leave Link 1110 at Sun Feb 23 15:02:52 2014, MaxMem= 4026531840 cpu:    1570.9
 (Enter /usr/caen/gaussian-09revc/g09/l1002.exe)
 Minotr:  UHF open shell wavefunction.
          IDoAtm=111111111111111111111111111111
          Direct CPHF calculation.
          Differentiating once with respect to nuclear coordinates.
          Requested convergence is 1.0D-06 RMS, and 1.0D-05 maximum.
          Secondary convergence is 1.0D-12 RMS, and 1.0D-12 maximum.
          NewPWx=T KeepS1=F KeepF1=F KeepIn=T MapXYZ=F SortEE=F KeepMc=T.
          MDV=    4026531536 using IRadAn=       2.
 Generate precomputed XC quadrature information.
          Keep R1 and R2 ints in memory in canonical form, NReq=2738891885.
 Symmetry not used in FoFDir.
 MinBra= 0 MaxBra= 2 Meth= 1.
 IRaf=       0 NMat=   1 IRICut=       1 DoRegI=T DoRafI=F ISym2E= 0 JSym2E=0.
          Solving linear equations simultaneously, MaxMat=       0.
          There are    93 degrees of freedom in the 1st order CPHF.  IDoFFX=5.
     87 vectors produced by pass  0 Test12= 2.56D-10 1.08D-07 XBig12= 2.38D-01 2.21D-01.
 AX will form    87 AO Fock derivatives at one time.
     87 vectors produced by pass  1 Test12= 2.56D-10 1.08D-07 XBig12= 1.61D-02 1.82D-02.
     87 vectors produced by pass  2 Test12= 2.56D-10 1.08D-07 XBig12= 1.03D-04 2.31D-03.
     87 vectors produced by pass  3 Test12= 2.56D-10 1.08D-07 XBig12= 5.10D-07 1.81D-04.
     64 vectors produced by pass  4 Test12= 2.56D-10 1.08D-07 XBig12= 3.00D-09 7.21D-06.
     14 vectors produced by pass  5 Test12= 2.56D-10 1.08D-07 XBig12= 1.99D-11 4.08D-07.
 Inverted reduced A of dimension   426 with in-core refinement.
 End of Minotr Frequency-dependent properties file   721 does not exist.
 End of Minotr Frequency-dependent properties file   722 does not exist.
 Leave Link 1002 at Sun Feb 23 15:08:00 2014, MaxMem= 4026531840 cpu:    2367.3
 (Enter /usr/caen/gaussian-09revc/g09/l601.exe)
 Copying SCF densities to generalized density rwf, IOpCl= 1 IROHF=0.

 **********************************************************************

            Population analysis using the SCF density.

 **********************************************************************

 Orbital symmetries:
 Alpha Orbitals:
       Occupied  (A) (A) (A) (A) (A) (A) (A) (A) (A) (A) (A) (A)
                 (A) (A) (A) (A) (A) (A) (A) (A) (A) (A) (A) (A)
                 (A) (A) (A) (A) (A) (A) (A) (A) (A) (A) (A) (A)
                 (A) (A) (A) (A) (A) (A) (A) (A) (A)
       Virtual   (A) (A) (A) (A) (A) (A) (A) (A) (A) (A) (A) (A)
                 (A) (A) (A) (A) (A) (A) (A) (A) (A) (A) (A) (A)
                 (A) (A) (A) (A) (A) (A) (A) (A) (A) (A) (A) (A)
                 (A) (A) (A) (A) (A) (A) (A) (A) (A) (A) (A) (A)
                 (A) (A) (A) (A) (A) (A) (A) (A) (A) (A) (A) (A)
                 (A) (A) (A) (A) (A) (A) (A) (A) (A) (A) (A) (A)
                 (A) (A) (A) (A) (A) (A) (A) (A) (A) (A) (A) (A)
                 (A) (A) (A) (A) (A) (A) (A) (A) (A) (A) (A) (A)
                 (A) (A) (A) (A) (A) (A) (A) (A) (A) (A) (A) (A)
                 (A) (A) (A) (A) (A) (A) (A) (A) (A) (A) (A) (A)
                 (A) (A) (A) (A) (A) (A) (A) (A) (A) (A) (A) (A)
                 (A) (A) (A) (A) (A) (A) (A) (A) (A) (A) (A) (A)
                 (A) (A) (A) (A) (A) (A) (A) (A) (A) (A) (A) (A)
                 (A) (A) (A) (A) (A) (A) (A) (A) (A) (A) (A) (A)
                 (A) (A) (A) (A) (A) (A) (A) (A) (A) (A) (A) (A)
                 (A) (A) (A) (A) (A) (A) (A) (A) (A) (A) (A) (A)
                 (A) (A) (A) (A) (A) (A) (A) (A) (A) (A) (A) (A)
                 (A) (A) (A) (A) (A) (A) (A) (A) (A) (A) (A) (A)
                 (A) (A) (A) (A) (A) (A) (A) (A) (A) (A) (A) (A)
                 (A) (A) (A) (A) (A) (A) (A) (A) (A) (A) (A) (A)
                 (A) (A) (A) (A) (A) (A) (A) (A) (A) (A) (A) (A)
                 (A) (A) (A) (A) (A) (A) (A) (A) (A) (A) (A) (A)
                 (A) (A) (A)
 Beta  Orbitals:
       Occupied  (A) (A) (A) (A) (A) (A) (A) (A) (A) (A) (A) (A)
                 (A) (A) (A) (A) (A) (A) (A) (A) (A) (A) (A) (A)
                 (A) (A) (A) (A) (A) (A) (A) (A) (A) (A) (A) (A)
                 (A) (A) (A) (A) (A) (A) (A) (A)
       Virtual   (A) (A) (A) (A) (A) (A) (A) (A) (A) (A) (A) (A)
                 (A) (A) (A) (A) (A) (A) (A) (A) (A) (A) (A) (A)
                 (A) (A) (A) (A) (A) (A) (A) (A) (A) (A) (A) (A)
                 (A) (A) (A) (A) (A) (A) (A) (A) (A) (A) (A) (A)
                 (A) (A) (A) (A) (A) (A) (A) (A) (A) (A) (A) (A)
                 (A) (A) (A) (A) (A) (A) (A) (A) (A) (A) (A) (A)
                 (A) (A) (A) (A) (A) (A) (A) (A) (A) (A) (A) (A)
                 (A) (A) (A) (A) (A) (A) (A) (A) (A) (A) (A) (A)
                 (A) (A) (A) (A) (A) (A) (A) (A) (A) (A) (A) (A)
                 (A) (A) (A) (A) (A) (A) (A) (A) (A) (A) (A) (A)
                 (A) (A) (A) (A) (A) (A) (A) (A) (A) (A) (A) (A)
                 (A) (A) (A) (A) (A) (A) (A) (A) (A) (A) (A) (A)
                 (A) (A) (A) (A) (A) (A) (A) (A) (A) (A) (A) (A)
                 (A) (A) (A) (A) (A) (A) (A) (A) (A) (A) (A) (A)
                 (A) (A) (A) (A) (A) (A) (A) (A) (A) (A) (A) (A)
                 (A) (A) (A) (A) (A) (A) (A) (A) (A) (A) (A) (A)
                 (A) (A) (A) (A) (A) (A) (A) (A) (A) (A) (A) (A)
                 (A) (A) (A) (A) (A) (A) (A) (A) (A) (A) (A) (A)
                 (A) (A) (A) (A) (A) (A) (A) (A) (A) (A) (A) (A)
                 (A) (A) (A) (A) (A) (A) (A) (A) (A) (A) (A) (A)
                 (A) (A) (A) (A) (A) (A) (A) (A) (A) (A) (A) (A)
                 (A) (A) (A) (A) (A) (A) (A) (A) (A) (A) (A) (A)
                 (A) (A) (A) (A)
 The electronic state is 2-A.
 Alpha  occ. eigenvalues --  -19.18501 -19.17568 -10.25943 -10.18550 -10.18549
 Alpha  occ. eigenvalues --  -10.18035 -10.18034 -10.16187 -10.16187 -10.16055
 Alpha  occ. eigenvalues --  -10.16055  -1.12307  -0.88958  -0.82317  -0.81368
 Alpha  occ. eigenvalues --   -0.75392  -0.69700  -0.68969  -0.68892  -0.61701
 Alpha  occ. eigenvalues --   -0.58132  -0.56561  -0.50751  -0.49177  -0.48096
 Alpha  occ. eigenvalues --   -0.45516  -0.45235  -0.44097  -0.43608  -0.41861
 Alpha  occ. eigenvalues --   -0.41573  -0.39578  -0.39184  -0.38557  -0.37443
 Alpha  occ. eigenvalues --   -0.37401  -0.36580  -0.35870  -0.34365  -0.33853
 Alpha  occ. eigenvalues --   -0.33411  -0.33319  -0.32172  -0.25287  -0.25239
 Alpha virt. eigenvalues --   -0.00892   0.03352   0.04556   0.05715   0.06190
 Alpha virt. eigenvalues --    0.07570   0.08255   0.08766   0.09615   0.10231
 Alpha virt. eigenvalues --    0.10459   0.11245   0.12831   0.12963   0.13286
 Alpha virt. eigenvalues --    0.14716   0.14940   0.15604   0.16430   0.16971
 Alpha virt. eigenvalues --    0.17161   0.18516   0.20292   0.20381   0.21654
 Alpha virt. eigenvalues --    0.22142   0.23819   0.24349   0.26488   0.29250
 Alpha virt. eigenvalues --    0.29545   0.29751   0.30477   0.33706   0.33781
 Alpha virt. eigenvalues --    0.35268   0.35591   0.37615   0.38751   0.40509
 Alpha virt. eigenvalues --    0.43121   0.43416   0.45809   0.46373   0.48074
 Alpha virt. eigenvalues --    0.48727   0.51134   0.51828   0.54188   0.55322
 Alpha virt. eigenvalues --    0.56249   0.56365   0.56544   0.56746   0.57453
 Alpha virt. eigenvalues --    0.57647   0.58105   0.58912   0.59101   0.59256
 Alpha virt. eigenvalues --    0.59431   0.59681   0.61126   0.61240   0.62272
 Alpha virt. eigenvalues --    0.62359   0.63475   0.63789   0.65150   0.65995
 Alpha virt. eigenvalues --    0.67205   0.68693   0.70045   0.71112   0.75455
 Alpha virt. eigenvalues --    0.76051   0.78847   0.80317   0.83845   0.87423
 Alpha virt. eigenvalues --    0.90069   0.92594   0.93240   0.94597   0.94809
 Alpha virt. eigenvalues --    0.97402   1.00557   1.02679   1.03702   1.05674
 Alpha virt. eigenvalues --    1.07659   1.09141   1.13194   1.16164   1.18053
 Alpha virt. eigenvalues --    1.19394   1.21209   1.21436   1.26321   1.26656
 Alpha virt. eigenvalues --    1.33334   1.33734   1.35544   1.37779   1.39586
 Alpha virt. eigenvalues --    1.40612   1.42771   1.44424   1.44611   1.45756
 Alpha virt. eigenvalues --    1.46139   1.46331   1.46657   1.47711   1.49461
 Alpha virt. eigenvalues --    1.50153   1.50375   1.52556   1.52849   1.54030
 Alpha virt. eigenvalues --    1.54189   1.54550   1.56510   1.57587   1.58842
 Alpha virt. eigenvalues --    1.59477   1.61790   1.61860   1.62059   1.63737
 Alpha virt. eigenvalues --    1.65795   1.67228   1.68293   1.69160   1.70188
 Alpha virt. eigenvalues --    1.71463   1.72966   1.73931   1.76063   1.76551
 Alpha virt. eigenvalues --    1.78818   1.79081   1.80024   1.80197   1.81937
 Alpha virt. eigenvalues --    1.85908   1.85998   1.89831   1.91431   1.92766
 Alpha virt. eigenvalues --    1.94693   1.95387   2.00288   2.01075   2.02107
 Alpha virt. eigenvalues --    2.04108   2.06060   2.07858   2.09685   2.10582
 Alpha virt. eigenvalues --    2.11931   2.12339   2.14455   2.18516   2.19008
 Alpha virt. eigenvalues --    2.21103   2.21997   2.25321   2.28753   2.30787
 Alpha virt. eigenvalues --    2.34139   2.34757   2.35649   2.35945   2.37398
 Alpha virt. eigenvalues --    2.38948   2.41764   2.42215   2.44216   2.45524
 Alpha virt. eigenvalues --    2.46658   2.47590   2.47845   2.49324   2.49638
 Alpha virt. eigenvalues --    2.50121   2.50529   2.51590   2.51593   2.52484
 Alpha virt. eigenvalues --    2.53685   2.54320   2.57088   2.57161   2.59397
 Alpha virt. eigenvalues --    2.60707   2.61803   2.63444   2.64356   2.65958
 Alpha virt. eigenvalues --    2.66760   2.68500   2.69985   2.71707   2.73799
 Alpha virt. eigenvalues --    2.75563   2.77148   2.81606   2.84165   2.84651
 Alpha virt. eigenvalues --    2.85177   2.85752   2.87453   2.87723   2.89860
 Alpha virt. eigenvalues --    2.90739   2.94621   2.94989   3.03767   3.06360
 Alpha virt. eigenvalues --    3.09741   3.10001   3.13871   3.17103   3.18769
 Alpha virt. eigenvalues --    3.24036   3.35790   3.43713   3.45455   3.48928
 Alpha virt. eigenvalues --    3.58795   3.70497   3.73818   3.77247   3.77272
 Alpha virt. eigenvalues --    3.78152   3.79717   3.80559   3.81108   3.81357
 Alpha virt. eigenvalues --    3.82712   3.84338   3.94652   3.95817   4.13165
 Alpha virt. eigenvalues --    4.16218   4.29406   4.29753   4.30051   4.40100
 Alpha virt. eigenvalues --    4.68388   4.85345   4.92701   4.94432   5.41028
 Alpha virt. eigenvalues --    5.45708  23.63370  23.80764  23.81502  23.87769
 Alpha virt. eigenvalues --   23.91398  23.92096  23.92712  23.93973  23.94235
 Alpha virt. eigenvalues --   49.74764  49.89580
  Beta  occ. eigenvalues --  -19.17703 -19.16808 -10.25118 -10.18538 -10.18537
  Beta  occ. eigenvalues --  -10.18016 -10.18016 -10.16188 -10.16188 -10.16055
  Beta  occ. eigenvalues --  -10.16055  -1.10762  -0.86290  -0.81909  -0.81306
  Beta  occ. eigenvalues --   -0.74816  -0.69555  -0.68943  -0.68887  -0.60405
  Beta  occ. eigenvalues --   -0.57306  -0.56503  -0.49081  -0.48966  -0.47428
  Beta  occ. eigenvalues --   -0.44974  -0.44953  -0.43572  -0.43203  -0.41812
  Beta  occ. eigenvalues --   -0.40710  -0.39488  -0.39164  -0.38443  -0.37263
  Beta  occ. eigenvalues --   -0.36036  -0.35999  -0.35649  -0.33736  -0.33629
  Beta  occ. eigenvalues --   -0.33369  -0.33270  -0.31899  -0.24593
  Beta virt. eigenvalues --   -0.11844   0.00158   0.03607   0.04586   0.06135
  Beta virt. eigenvalues --    0.06210   0.07742   0.08262   0.08781   0.09661
  Beta virt. eigenvalues --    0.10327   0.10514   0.11359   0.12912   0.12969
  Beta virt. eigenvalues --    0.13452   0.14720   0.14988   0.16182   0.16476
  Beta virt. eigenvalues --    0.17241   0.17625   0.18796   0.20346   0.20725
  Beta virt. eigenvalues --    0.21823   0.22495   0.23911   0.24665   0.26627
  Beta virt. eigenvalues --    0.29322   0.29624   0.29943   0.30642   0.33796
  Beta virt. eigenvalues --    0.33906   0.35404   0.35810   0.37747   0.38817
  Beta virt. eigenvalues --    0.40670   0.43218   0.43725   0.46258   0.46458
  Beta virt. eigenvalues --    0.48792   0.48992   0.51399   0.51963   0.54297
  Beta virt. eigenvalues --    0.55514   0.56451   0.56566   0.56594   0.56880
  Beta virt. eigenvalues --    0.57545   0.57670   0.58160   0.58980   0.59114
  Beta virt. eigenvalues --    0.59414   0.59653   0.59715   0.61216   0.61271
  Beta virt. eigenvalues --    0.62387   0.62389   0.63646   0.63847   0.65443
  Beta virt. eigenvalues --    0.66024   0.67316   0.68855   0.70109   0.71702
  Beta virt. eigenvalues --    0.75846   0.76655   0.79078   0.82797   0.83999
  Beta virt. eigenvalues --    0.87836   0.90321   0.92815   0.93421   0.94712
  Beta virt. eigenvalues --    0.95356   0.97696   1.00645   1.02886   1.03754
  Beta virt. eigenvalues --    1.06293   1.07793   1.09438   1.13276   1.16572
  Beta virt. eigenvalues --    1.18113   1.19541   1.21249   1.21999   1.26410
  Beta virt. eigenvalues --    1.26793   1.33698   1.34025   1.36114   1.37810
  Beta virt. eigenvalues --    1.40165   1.41030   1.42850   1.44471   1.44900
  Beta virt. eigenvalues --    1.45890   1.46398   1.46400   1.46725   1.47808
  Beta virt. eigenvalues --    1.49517   1.50251   1.50403   1.52779   1.52938
  Beta virt. eigenvalues --    1.54071   1.54359   1.55497   1.56651   1.57825
  Beta virt. eigenvalues --    1.59208   1.59598   1.61881   1.62105   1.62411
  Beta virt. eigenvalues --    1.64142   1.65853   1.67289   1.68574   1.69272
  Beta virt. eigenvalues --    1.70415   1.71673   1.73301   1.74059   1.76062
  Beta virt. eigenvalues --    1.76611   1.78872   1.79096   1.80219   1.80259
  Beta virt. eigenvalues --    1.82079   1.86225   1.86327   1.90251   1.91902
  Beta virt. eigenvalues --    1.92795   1.94852   1.95506   2.00364   2.01122
  Beta virt. eigenvalues --    2.02463   2.04590   2.06344   2.08257   2.09758
  Beta virt. eigenvalues --    2.10606   2.11979   2.12560   2.14515   2.18642
  Beta virt. eigenvalues --    2.19064   2.21353   2.22349   2.25507   2.29032
  Beta virt. eigenvalues --    2.30846   2.34242   2.34765   2.35705   2.36172
  Beta virt. eigenvalues --    2.37481   2.39206   2.41868   2.42285   2.44321
  Beta virt. eigenvalues --    2.45643   2.46923   2.47672   2.48007   2.49488
  Beta virt. eigenvalues --    2.49779   2.50182   2.50754   2.51641   2.51659
  Beta virt. eigenvalues --    2.52673   2.53789   2.54634   2.57144   2.57374
  Beta virt. eigenvalues --    2.59477   2.60873   2.61972   2.63537   2.64454
  Beta virt. eigenvalues --    2.66068   2.66971   2.68629   2.70061   2.71901
  Beta virt. eigenvalues --    2.74001   2.75727   2.77646   2.81667   2.84636
  Beta virt. eigenvalues --    2.85308   2.85485   2.86976   2.88004   2.88645
  Beta virt. eigenvalues --    2.91025   2.91530   2.95632   2.95684   3.04559
  Beta virt. eigenvalues --    3.06595   3.09797   3.10018   3.14784   3.17370
  Beta virt. eigenvalues --    3.19060   3.24101   3.36736   3.43760   3.47171
  Beta virt. eigenvalues --    3.49594   3.61389   3.71542   3.73973   3.77255
  Beta virt. eigenvalues --    3.77275   3.78210   3.79746   3.80633   3.81117
  Beta virt. eigenvalues --    3.81428   3.82745   3.84472   3.94824   3.95900
  Beta virt. eigenvalues --    4.13504   4.16434   4.29519   4.29837   4.30065
  Beta virt. eigenvalues --    4.40403   4.69188   4.86638   4.94388   4.98119
  Beta virt. eigenvalues --    5.41763   5.46404  23.64182  23.80781  23.81518
  Beta virt. eigenvalues --   23.87897  23.91415  23.92099  23.92715  23.93975
  Beta virt. eigenvalues --   23.94245  49.76275  49.89624
          Condensed to atoms (all electrons):
              1          2          3          4          5          6
     1  C    4.877006   0.403552   0.398180   0.403877   0.369067  -0.041653
     2  H    0.403552   0.580714  -0.031341  -0.026570  -0.034153  -0.005761
     3  H    0.398180  -0.031341   0.599958  -0.031026  -0.036401   0.008434
     4  H    0.403877  -0.026570  -0.031026   0.577906  -0.032981  -0.005731
     5  C    0.369067  -0.034153  -0.036401  -0.032981   5.058324   0.416107
     6  H   -0.041653  -0.005761   0.008434  -0.005731   0.416107   0.564739
     7  C   -0.064203  -0.006192  -0.006511   0.008466   0.348562  -0.049632
     8  H   -0.007418   0.004587  -0.000767   0.000353  -0.041769  -0.001979
     9  H   -0.004716  -0.000283   0.003965  -0.000407  -0.034163   0.008737
    10  C   -0.000210  -0.000029  -0.000004   0.000010   0.006778   0.001196
    11  H    0.000040  -0.000001  -0.000004   0.000001   0.000134  -0.000091
    12  H   -0.000003  -0.000007   0.000003   0.000000  -0.000403  -0.000002
    13  C    0.000002   0.000001   0.000000   0.000000  -0.000272  -0.000032
    14  H    0.000001   0.000000   0.000000   0.000000  -0.000032  -0.000038
    15  C    0.000000   0.000000   0.000000   0.000000   0.000002   0.000001
    16  H    0.000000   0.000000   0.000000   0.000000   0.000000   0.000000
    17  H    0.000000   0.000000   0.000000   0.000000   0.000000   0.000000
    18  H    0.000000   0.000000   0.000000   0.000000   0.000001   0.000000
    19  C   -0.065661   0.008077  -0.006022  -0.004785   0.357744  -0.038527
    20  H   -0.005587  -0.000157   0.005277  -0.000691  -0.040209   0.008613
    21  H   -0.005662   0.000053  -0.000595   0.003803  -0.031481  -0.005956
    22  H    0.008643  -0.000518  -0.000250   0.000050  -0.030455  -0.005862
    23  C    0.000000   0.000000   0.000000   0.000000   0.000038  -0.000003
    24  H    0.000000   0.000000   0.000000   0.000000  -0.000001   0.000000
    25  H    0.000000   0.000000   0.000000   0.000000  -0.000001   0.000000
    26  H   -0.000003   0.000000   0.000000   0.000000  -0.000067   0.000010
    27  C    0.007324   0.000009  -0.000028  -0.000422  -0.052405  -0.008119
    28  H   -0.000032  -0.000017  -0.000029   0.000004  -0.009807   0.000138
    29  O   -0.000746   0.000053  -0.000014  -0.000006  -0.006004   0.011604
    30  O    0.000202  -0.000003  -0.000003  -0.000002   0.009858   0.001859
              7          8          9         10         11         12
     1  C   -0.064203  -0.007418  -0.004716  -0.000210   0.000040  -0.000003
     2  H   -0.006192   0.004587  -0.000283  -0.000029  -0.000001  -0.000007
     3  H   -0.006511  -0.000767   0.003965  -0.000004  -0.000004   0.000003
     4  H    0.008466   0.000353  -0.000407   0.000010   0.000001   0.000000
     5  C    0.348562  -0.041769  -0.034163   0.006778   0.000134  -0.000403
     6  H   -0.049632  -0.001979   0.008737   0.001196  -0.000091  -0.000002
     7  C    5.010164   0.395061   0.395363  -0.063516   0.000970  -0.005357
     8  H    0.395061   0.579646  -0.028371  -0.005357  -0.000204   0.004370
     9  H    0.395363  -0.028371   0.589586   0.000972  -0.000438  -0.000204
    10  C   -0.063516  -0.005357   0.000972   5.010170   0.395361   0.395060
    11  H    0.000970  -0.000204  -0.000438   0.395361   0.589585  -0.028372
    12  H   -0.005357   0.004370  -0.000204   0.395060  -0.028372   0.579651
    13  C    0.006778  -0.000403   0.000134   0.348564  -0.034161  -0.041770
    14  H    0.001196  -0.000002  -0.000091  -0.049631   0.008738  -0.001980
    15  C   -0.000210  -0.000003   0.000040  -0.064204  -0.004715  -0.007418
    16  H   -0.000004   0.000003  -0.000004  -0.006511   0.003965  -0.000767
    17  H    0.000010   0.000000   0.000001   0.008466  -0.000407   0.000353
    18  H   -0.000029  -0.000007  -0.000001  -0.006192  -0.000283   0.004587
    19  C   -0.066700   0.008160  -0.006679  -0.000605  -0.000058   0.000004
    20  H   -0.007338  -0.000117   0.005201  -0.000036   0.000009   0.000007
    21  H    0.008096  -0.000408  -0.000050   0.000013  -0.000003   0.000001
    22  H   -0.005641  -0.000162  -0.000999  -0.000131   0.000258  -0.000005
    23  C   -0.000605   0.000004  -0.000058  -0.066701  -0.006679   0.008160
    24  H    0.000013   0.000001  -0.000003   0.008096  -0.000050  -0.000408
    25  H   -0.000036   0.000007   0.000009  -0.007339   0.005202  -0.000117
    26  H   -0.000131  -0.000005   0.000258  -0.005640  -0.000999  -0.000162
    27  C    0.303139  -0.035047  -0.041966   0.303136  -0.041963  -0.035048
    28  H   -0.018087   0.006071  -0.002701  -0.018088  -0.002701   0.006071
    29  O   -0.051832  -0.000196   0.004441  -0.051833   0.004441  -0.000196
    30  O   -0.006190  -0.001065  -0.000443  -0.006191  -0.000443  -0.001065
             13         14         15         16         17         18
     1  C    0.000002   0.000001   0.000000   0.000000   0.000000   0.000000
     2  H    0.000001   0.000000   0.000000   0.000000   0.000000   0.000000
     3  H    0.000000   0.000000   0.000000   0.000000   0.000000   0.000000
     4  H    0.000000   0.000000   0.000000   0.000000   0.000000   0.000000
     5  C   -0.000272  -0.000032   0.000002   0.000000   0.000000   0.000001
     6  H   -0.000032  -0.000038   0.000001   0.000000   0.000000   0.000000
     7  C    0.006778   0.001196  -0.000210  -0.000004   0.000010  -0.000029
     8  H   -0.000403  -0.000002  -0.000003   0.000003   0.000000  -0.000007
     9  H    0.000134  -0.000091   0.000040  -0.000004   0.000001  -0.000001
    10  C    0.348564  -0.049631  -0.064204  -0.006511   0.008466  -0.006192
    11  H   -0.034161   0.008738  -0.004715   0.003965  -0.000407  -0.000283
    12  H   -0.041770  -0.001980  -0.007418  -0.000767   0.000353   0.004587
    13  C    5.058320   0.416107   0.369069  -0.036401  -0.032981  -0.034153
    14  H    0.416107   0.564739  -0.041653   0.008434  -0.005731  -0.005761
    15  C    0.369069  -0.041653   4.877002   0.398180   0.403877   0.403551
    16  H   -0.036401   0.008434   0.398180   0.599959  -0.031026  -0.031341
    17  H   -0.032981  -0.005731   0.403877  -0.031026   0.577906  -0.026570
    18  H   -0.034153  -0.005761   0.403551  -0.031341  -0.026570   0.580717
    19  C    0.000038  -0.000003   0.000000   0.000000   0.000000   0.000000
    20  H   -0.000001   0.000000   0.000000   0.000000   0.000000   0.000000
    21  H   -0.000001   0.000000   0.000000   0.000000   0.000000   0.000000
    22  H   -0.000067   0.000010  -0.000003   0.000000   0.000000   0.000000
    23  C    0.357742  -0.038527  -0.065660  -0.006022  -0.004785   0.008077
    24  H   -0.031481  -0.005956  -0.005662  -0.000595   0.003803   0.000053
    25  H   -0.040210   0.008613  -0.005587   0.005276  -0.000691  -0.000157
    26  H   -0.030454  -0.005863   0.008643  -0.000250   0.000050  -0.000518
    27  C   -0.052408  -0.008120   0.007324  -0.000028  -0.000422   0.000009
    28  H   -0.009807   0.000139  -0.000032  -0.000029   0.000004  -0.000017
    29  O   -0.006006   0.011607  -0.000746  -0.000014  -0.000006   0.000053
    30  O    0.009859   0.001857   0.000202  -0.000003  -0.000002  -0.000003
             19         20         21         22         23         24
     1  C   -0.065661  -0.005587  -0.005662   0.008643   0.000000   0.000000
     2  H    0.008077  -0.000157   0.000053  -0.000518   0.000000   0.000000
     3  H   -0.006022   0.005277  -0.000595  -0.000250   0.000000   0.000000
     4  H   -0.004785  -0.000691   0.003803   0.000050   0.000000   0.000000
     5  C    0.357744  -0.040209  -0.031481  -0.030455   0.000038  -0.000001
     6  H   -0.038527   0.008613  -0.005956  -0.005862  -0.000003   0.000000
     7  C   -0.066700  -0.007338   0.008096  -0.005641  -0.000605   0.000013
     8  H    0.008160  -0.000117  -0.000408  -0.000162   0.000004   0.000001
     9  H   -0.006679   0.005201  -0.000050  -0.000999  -0.000058  -0.000003
    10  C   -0.000605  -0.000036   0.000013  -0.000131  -0.066701   0.008096
    11  H   -0.000058   0.000009  -0.000003   0.000258  -0.006679  -0.000050
    12  H    0.000004   0.000007   0.000001  -0.000005   0.008160  -0.000408
    13  C    0.000038  -0.000001  -0.000001  -0.000067   0.357742  -0.031481
    14  H   -0.000003   0.000000   0.000000   0.000010  -0.038527  -0.005956
    15  C    0.000000   0.000000   0.000000  -0.000003  -0.065660  -0.005662
[...]
 038286,0.00026811,-0.00017044,0.00149742,-0.00078738,-0.00018824,0.020
 41885,-0.01262987,0.00633492,-0.00029940,0.00099743,-0.00000463,0.0014
 2175,0.00064039,0.00099634,-0.00002559,-0.00008681,-0.00002459,-0.0009
 7392,-0.00021621,-0.00040513,-0.00023533,0.00047109,-0.00001641,0.0000
 3996,-0.00001530,-0.00001094,0.00000105,-0.00000514,0.00000635,0.00000
 432,0.00001927,0.00000881,-0.00000277,0.00000567,-0.00001608,0.1072097
 3,-0.10915671,0.02635302,-0.11938935,0.11869335,0.00001139,0.00001874,
 -0.00000270,-0.00000418,0.00000299,0.00000332,0.00000064,-0.00000305,0
 .00000165,0.00000887,-0.00000309,-0.00000022,-0.00001046,-0.00003004,0
 .00004150,-0.00000509,0.00000254,0.00000140,0.00011731,0.00006313,-0.0
 0008630,-0.00001435,0.00003471,0.00003117,0.00000969,-0.00002297,0.000
 01237,-0.00012289,-0.00310051,-0.00277846,0.00008113,-0.00026073,0.000
 29361,0.00108393,-0.00078834,0.00034287,0.01902791,-0.01110574,0.00424
 526,0.00023634,0.00079953,0.00074453,0.00060205,0.00064951,0.00056679,
 -0.00019008,0.00002670,-0.00004663,-0.00032109,-0.00001343,0.00019235,
 0.00017342,0.00025662,-0.00008461,0.00001716,-0.00000023,-0.00001562,0
 .00001197,-0.00000735,0.00001065,-0.00000200,0.00000881,0.00001330,-0.
 00000515,0.00000720,-0.00002110,-0.04637939,0.02729871,-0.05828671,0.0
 5039492,-0.02635747,0.06091066,-0.00000174,-0.00000115,-0.00000205,0.0
 0000127,-0.00000486,-0.00000302,-0.00000400,0.00000418,-0.00000224,0.0
 0000161,0.00000138,-0.00000007,-0.00000116,0.00000652,-0.00001042,0.00
 002022,0.00000136,-0.00001414,0.00002736,0.00006357,0.00010094,-0.0000
 2437,0.00001669,-0.00001738,-0.00003931,0.00003474,-0.00004316,0.00047
 441,-0.00068910,0.00128431,-0.00006699,0.00027661,-0.00023577,0.000063
 47,-0.00001704,-0.00022533,-0.00140303,-0.00122710,0.00406734,0.000498
 75,0.00065321,0.00058566,0.00011525,0.00024454,-0.00093529,0.00024498,
 -0.00016551,-0.00003311,0.00002097,0.00008790,-0.00010727,-0.00012135,
 0.00000617,0.00013911,0.00001328,-0.00000727,0.00000969,-0.00002511,0.
 00001605,-0.00001802,0.00001011,-0.00000105,-0.00001197,0.00000103,-0.
 00001011,0.00002978,-0.04833945,-0.00572173,0.01343806,0.00243326,0.00
 930925,-0.02650757,0.04708965,-0.00000445,-0.00001255,0.00000058,0.000
 00305,-0.00000179,-0.00000268,-0.00000075,0.00000569,-0.00000409,-0.00
 000826,-0.00000017,0.00000096,0.00002835,0.00001368,-0.00000597,0.0000
 0799,-0.00000930,-0.00000927,0.00001682,0.00005436,0.00006403,-0.00002
 132,0.00000835,-0.00002398,-0.00001006,0.00001432,-0.00000953,-0.00097
 646,0.00159184,-0.00083889,0.00008768,0.00006730,0.00063426,-0.0002713
 4,0.00019795,0.00017214,0.00159555,0.00825440,-0.02475357,0.00050502,-
 0.00355584,-0.00357209,0.00065030,0.00168725,-0.00045259,-0.00007939,-
 0.00019556,0.00054599,-0.00009400,-0.00010106,0.00009348,0.00017801,0.
 00017786,0.00028263,0.00000286,-0.00001276,0.00001227,-0.00001605,0.00
 001951,-0.00001567,-0.00000269,-0.00000514,-0.00000735,0.00000037,-0.0
 0000268,0.00002523,-0.00560629,-0.07846486,0.08377981,-0.00198840,-0.0
 0615393,0.01420508,0.00516679,0.08384097,0.00001024,0.00002169,-0.0000
 0276,-0.00000455,0.00000383,0.00000142,0.00000382,-0.00000749,0.000008
 83,0.00001250,-0.00000227,-0.00000090,-0.00001316,-0.00004080,0.000020
 61,-0.00002458,-0.00000081,0.00001535,0.00004490,-0.00000671,-0.000136
 00,0.00002506,-0.00001224,0.00002025,0.00003338,-0.00002814,0.00003940
 ,-0.00102855,0.00118079,0.00050836,0.00092355,-0.00075289,0.00070087,-
 0.00011886,-0.00008596,0.00042973,0.00141481,0.00762850,-0.02265768,0.
 00035586,-0.00433285,-0.00133531,0.00045799,0.00116116,0.00065375,-0.0
 0071189,-0.00093221,0.00047206,-0.00000709,-0.00003521,-0.00002927,0.0
 0001678,-0.00015872,0.00048557,-0.00000195,0.00001163,-0.00001848,0.00
 001802,-0.00001568,0.00002193,0.00000272,0.00000635,0.00001065,-0.0000
 0094,-0.00000395,-0.00002725,0.01347636,0.08314185,-0.26693819,0.00018
 427,0.00221434,-0.00587658,-0.01568858,-0.08951751,0.29449774,0.000013
 58,0.00002212,-0.00000294,-0.00000526,0.00000396,0.00000457,-0.0000045
 7,-0.00000099,-0.00000206,0.00001392,-0.00000160,-0.00000042,-0.000019
 99,-0.00002797,0.00002646,0.00000668,-0.00000237,-0.00000710,0.0000757
 0,0.00001952,-0.00009549,-0.00000693,0.00001216,0.00000484,-0.00001338
 ,0.00000016,-0.00001083,0.00030816,0.00000670,-0.00037247,-0.00000983,
 0.00000306,-0.00003862,0.00013582,-0.00016242,-0.00002821,0.00359042,0
 .00376723,-0.00106825,0.00022031,-0.00041443,-0.00044378,0.00051796,0.
 00051885,-0.00002055,-0.00007392,0.00005336,0.00008573,0.00044985,0.00
 011952,0.00022068,0.00034335,-0.00004885,0.00020792,0.00002629,0.00001
 811,-0.00000852,0.00000103,-0.00000036,0.00000094,0.00001430,0.0000027
 7,0.00000515,-0.00003050,-0.00002406,-0.00003275,-0.19796296,-0.129557
 87,0.01138834,-0.02070480,-0.01804973,0.00234551,-0.00056979,0.0006984
 6,0.00037593,0.21596776,0.00000490,-0.00001816,0.00000664,0.00000141,0
 .00001067,0.00000451,-0.00000035,0.00000612,-0.00000871,-0.00002031,-0
 .00000477,-0.00000009,0.00007054,-0.00000490,-0.00003241,0.00002376,0.
 00000007,-0.00000560,0.00021639,0.00020870,0.00010061,-0.00013183,0.00
 008018,-0.00000100,-0.00002590,-0.00001916,-0.00002650,-0.00082829,0.0
 0074803,0.00046568,0.00010714,-0.00014005,0.00007572,-0.00003030,0.000
 16060,-0.00005448,-0.01880744,-0.01488598,0.00327866,0.00016357,0.0009
 8323,0.00015689,0.00219511,-0.00310648,-0.00414075,0.00028924,0.000286
 23,0.00005725,-0.00011659,0.00024808,-0.00004077,-0.00140456,-0.000946
 83,-0.00015191,0.00001228,-0.00008068,0.00000523,0.00001010,-0.0000026
 8,-0.00000396,-0.00004716,0.00000567,0.00000720,0.00002406,0.00010367,
 0.00004626,-0.12911363,-0.15930829,0.00980093,0.01225926,0.01147922,-0
 .00143353,-0.00778912,-0.00738397,0.00045537,0.14200116,0.17186215,-0.
 00000649,-0.00002534,-0.00001817,0.00001017,-0.00000979,-0.00000361,-0
 .00000417,0.00001044,-0.00000622,-0.00001483,-0.00000056,0.00000250,0.
 00007774,0.00000389,0.00000119,0.00003387,-0.00000422,-0.00002565,0.00
 011283,0.00023272,0.00013025,-0.00007497,0.00002297,-0.00004166,-0.000
 04807,0.00005095,-0.00005812,-0.00021375,0.00087748,0.00065993,0.00020
 110,0.00003706,-0.00003863,-0.00007934,0.00010770,-0.00015627,-0.01807
 624,-0.01293847,0.00143899,-0.00048834,0.00061756,0.00067094,0.0013408
 2,-0.00316953,-0.00291451,-0.00007211,-0.00036629,0.00024513,0.0003278
 6,0.00019948,-0.00007076,-0.00093465,-0.00125352,0.00027409,-0.0000157
 2,-0.00002742,-0.00001204,-0.00002978,0.00002522,-0.00002724,0.0000028
 3,-0.00001609,-0.00002110,0.00003275,0.00004624,0.00012188,0.01300705,
 0.01120786,-0.04838399,-0.00563933,-0.00508805,-0.00025992,0.02389312,
 0.01910081,-0.00086830,-0.01438279,-0.00890573,0.04905016,-0.00287829,
 -0.00363914,0.00078371,0.00019355,-0.00002772,0.00010167,0.00013851,-0
 .00006681,-0.00016487,-0.00066303,0.00090245,-0.00014543,-0.02968233,0
 .01040716,-0.00313547,0.00059312,0.00061522,-0.00068488,-0.15294451,0.
 04618442,-0.01367487,-0.00894845,0.00812921,-0.00151492,0.00365074,-0.
 00103965,0.00222471,-0.15294430,-0.04618285,0.01367683,0.00365089,0.00
 103951,-0.00222477,-0.00894788,-0.00812915,0.00151523,-0.02968197,-0.0
 1040805,0.00313658,0.00059324,-0.00061507,0.00068485,-0.00287844,0.003
 63917,-0.00078405,0.00013851,0.00006682,0.00016488,-0.00066305,-0.0009
 0249,0.00014552,0.00019356,0.00002772,-0.00010168,0.00152489,0.0002003
 8,-0.00043889,-0.00025082,-0.00006619,-0.00000948,0.00038414,0.0006765
 2,0.00043668,-0.00042094,-0.00026661,-0.00026929,0.00152483,-0.0002002
 6,0.00043882,0.00038414,-0.00067655,-0.00043661,-0.00025081,0.00006621
 ,0.00000950,-0.00042093,0.00026667,0.00026929,0.45559996,-0.00322086,-
 0.00324982,0.00141684,0.00005069,0.00015313,0.00017591,0.00032629,-0.0
 0026876,-0.00004452,-0.00167512,0.00094952,0.00017988,-0.00582375,0.01
 437831,-0.01051780,-0.00107743,0.00014108,0.00172923,0.02819296,-0.084
 48135,0.01621644,0.02667143,-0.01869479,0.00709324,0.00487969,-0.00631
 549,0.00125390,-0.02819251,-0.08448034,0.01621713,-0.00487832,-0.00631
 503,0.00125388,-0.02667188,-0.01869546,0.00709473,0.00582332,0.0143772
 4,-0.01051830,0.00107729,0.00014110,0.00172919,0.00322079,-0.00324959,
 0.00141701,-0.00032629,-0.00026877,-0.00004448,0.00167506,0.00094954,0
 .00017982,-0.00005069,0.00015315,0.00017591,-0.00227080,0.00056699,0.0
 0143071,0.00046993,-0.00017295,0.00034374,-0.00019480,-0.00085924,-0.0
 0037034,-0.00014819,-0.00069656,-0.00123218,0.00227080,0.00056739,0.00
 143056,0.00019473,-0.00085929,-0.00037024,-0.00046994,-0.00017295,0.00
 034377,0.00014827,-0.00069680,-0.00123222,-0.00000145,0.31028270,0.002
 77195,0.00221670,-0.00124441,-0.00031084,0.00022944,0.00023828,-0.0001
 6194,0.00000842,0.00003257,0.00131024,-0.00036287,0.00035377,0.0018043
 2,-0.00883755,0.00197064,0.00182667,0.00090250,-0.00118365,-0.01937983
 ,0.02075370,-0.07222198,0.01296813,-0.00731300,0.00468210,-0.02548276,
 0.01469323,-0.00943943,0.01938156,0.02075491,-0.07222360,0.02548270,0.
 01469348,-0.00944019,-0.01296652,-0.00731201,0.00468228,-0.00180420,-0
 .00883796,0.00197176,-0.00182669,0.00090236,-0.00118385,-0.00277202,0.
 00221663,-0.00124469,0.00016194,0.00000844,0.00003259,-0.00131026,-0.0
 0036290,0.00035383,0.00031084,0.00022947,0.00023824,0.00027685,-0.0004
 7632,-0.00053008,-0.00014568,0.00002614,-0.00012713,0.00005523,0.00037
 344,0.00018105,-0.00057563,0.00019879,0.00025967,-0.00027701,-0.000476
 32,-0.00052999,-0.00005525,0.00037348,0.00018104,0.00014565,0.00002612
 ,-0.00012714,0.00057551,0.00019877,0.00025970,-0.00000180,-0.13606849,
 0.36164413,-0.00011026,-0.00011399,-0.00001404,0.00009436,-0.00016793,
 -0.00010649,0.00007449,-0.00002908,0.00006367,-0.00000235,-0.00001936,
 0.00000241,-0.00002476,0.00102867,0.00024282,-0.00017146,0.00003408,0.
 00023233,-0.00391743,0.01201005,0.00516818,-0.00173831,0.00127512,-0.0
 0047034,0.00078232,-0.00077341,0.00020941,-0.00391742,-0.01201004,-0.0
 0516793,0.00078234,0.00077344,-0.00020948,-0.00173827,-0.00127510,0.00
 047036,-0.00002455,-0.00102849,-0.00024281,-0.00017132,-0.00003414,-0.
 00023227,-0.00011026,0.00011397,0.00001408,0.00007447,0.00002907,-0.00
 006366,-0.00000235,0.00001936,-0.00000241,0.00009436,0.00016794,0.0001
 0647,-0.00119684,0.00100207,-0.00027274,0.00025978,-0.00019411,0.00014
 478,0.00046114,-0.00027733,0.00008220,-0.00089900,-0.00144328,-0.00102
 610,-0.00119673,-0.00100211,0.00027287,0.00046115,0.00027735,-0.000082
 23,0.00025972,0.00019410,-0.00014478,-0.00089917,0.00144348,0.00102583
 ,-0.01648820,-0.00000023,-0.00000010,0.03600021,-0.00015483,-0.0002170
 3,-0.00022691,0.00004553,-0.00006689,0.00000506,-0.00003413,0.00004822
 ,-0.00001838,-0.00003571,0.00005832,0.00003148,-0.00110288,0.00013711,
 0.00076606,0.00019132,-0.00005848,-0.00022705,0.00488755,-0.01250250,-
 0.00478446,0.00041978,0.00073618,0.00120720,-0.00053662,0.00079545,0.0
 0003292,-0.00488734,-0.01250262,-0.00478405,0.00053667,0.00079556,0.00
 003285,-0.00041982,0.00073641,0.00120709,0.00110271,0.00013721,0.00076
 600,-0.00019131,-0.00005858,-0.00022706,0.00015481,-0.00021704,-0.0002
 2687,0.00003413,0.00004822,-0.00001838,0.00003571,0.00005832,0.0000314
 8,-0.00004553,-0.00006689,0.00000506,-0.00088938,0.00107676,-0.0000645
 5,0.00014428,-0.00013239,-0.00002891,0.00023643,-0.00017401,-0.0000249
 6,-0.00031355,-0.00040640,-0.00009030,0.00088923,0.00107674,-0.0000647
 4,-0.00023643,-0.00017403,-0.00002496,-0.00014422,-0.00013234,-0.00002
 890,0.00031386,-0.00040649,-0.00009012,0.00000066,0.05558690,0.0217972
 1,0.00000035,-0.02019784,0.00014211,0.00004438,-0.00014261,0.00006663,
 0.00001999,-0.00000555,-0.00002513,0.00002083,0.00000598,-0.00001670,-
 0.00003569,-0.00002058,0.00102065,-0.00056756,-0.00011494,0.00014388,-
 0.00014749,-0.00007911,-0.00192140,0.00872420,0.00452302,-0.00082427,-
 0.00025252,-0.00089582,0.00049395,-0.00033607,0.00022252,0.00192152,0.
 00872484,0.00452287,-0.00049397,-0.00033613,0.00022263,0.00082437,-0.0
 0025262,-0.00089571,-0.00102054,-0.00056757,-0.00011493,-0.00014380,-0
 .00014754,-0.00007914,-0.00014211,0.00004436,-0.00014259,0.00002512,0.
 00002082,0.00000598,0.00001670,-0.00003570,-0.00002059,-0.00006663,0.0
 0001999,-0.00000555,-0.00020922,-0.00000757,-0.00005025,-0.00015531,0.
 00011812,-0.00005486,0.00001102,-0.00004809,0.00003301,-0.00067361,-0.
 00006376,0.00010358,0.00020914,-0.00000776,-0.00005020,-0.00001097,-0.
 00004804,0.00003299,0.00015531,0.00011811,-0.00005488,0.00067356,-0.00
 006370,0.00010356,-0.00000098,-0.10545789,-0.04274290,0.00000104,0.120
 40557,0.04953711,0.00049740,0.00033314,-0.00073918,-0.00001869,0.00005
 317,0.00009266,-0.00024179,0.00014100,0.00002361,0.00006470,-0.0001086
 5,0.00009209,0.00037915,-0.00119726,-0.00011430,-0.00021547,0.00105100
 ,-0.00153258,0.00322167,0.00575152,-0.02947217,0.00117541,-0.00031939,
 0.00079471,-0.00465483,0.00351853,-0.00160408,0.00322232,-0.00575110,0
 .02947133,-0.00465460,-0.00351858,0.00160420,0.00117517,0.00031921,-0.
 00079463,0.00037863,0.00119706,0.00011392,-0.00021550,-0.00105085,0.00
 153306,0.00049744,-0.00033312,0.00073943,-0.00024185,-0.00014106,-0.00
 002360,0.00006471,0.00010866,-0.00009211,-0.00001869,-0.00005320,-0.00
 009265,-0.00015343,0.00036469,-0.00067977,-0.00005996,-0.00013043,-0.0
 0023955,-0.00013069,-0.00005881,-0.00000887,0.00008656,-0.00001668,0.0
 0021397,-0.00015334,-0.00036465,0.00067964,-0.00013069,0.00005880,0.00
 000887,-0.00005992,0.00013042,0.00023956,0.00008664,0.00001673,-0.0002
 1394,-0.06623413,0.00000034,-0.00000155,0.00490724,-0.00000057,-0.0000
 0062,0.06610729,0.00011604,0.00018366,0.00007794,-0.00006666,0.0000582
 8,0.00001568,-0.00008150,0.00001806,-0.00006670,0.00017241,0.00000542,
 -0.00006645,-0.00132874,-0.00051842,-0.00032732,0.00010582,0.00038807,
 -0.00002983,0.00514996,-0.00357211,0.02537449,-0.00185416,0.00188389,0
 .00039982,0.00395449,-0.00116179,0.00132662,-0.00514913,-0.00357126,0.
 02537433,-0.00395439,-0.00116184,0.00132663,0.00185415,0.00188383,0.00
 039957,0.00132889,-0.00051818,-0.00032736,-0.00010593,0.00038805,-0.00
 002984,-0.00011602,0.00018366,0.00007790,0.00008150,0.00001806,-0.0000
 6671,-0.00017241,0.00000541,-0.00006646,0.00006666,0.00005828,0.000015
 67,0.00052647,-0.00083420,-0.00022066,-0.00018577,0.00011730,-0.000093
 99,-0.00009986,0.00028452,0.00002850,-0.00018642,0.00042752,0.00033383
 ,-0.00052644,-0.00083423,-0.00022051,0.00009987,0.00028452,0.00002848,
 0.00018572,0.00011729,-0.00009399,0.00018631,0.00042749,0.00033377,0.0
 0000005,-0.08266474,0.02088765,-0.00000036,-0.00008072,-0.03260147,0.0
 0000150,0.23644606,-0.00032641,-0.00018315,0.00054422,-0.00003146,0.00
 010129,-0.00001059,0.00024067,-0.00020934,0.00020401,-0.00019448,-0.00
 000411,0.00007144,0.00227237,0.00149207,-0.00074415,-0.00098915,-0.000
 63711,0.00091491,-0.00643271,0.00357032,-0.03055117,0.00168071,-0.0000
 8211,0.00213910,-0.00427582,0.00336842,0.00026423,0.00643225,0.0035698
 1,-0.03055133,0.00427582,0.00336875,0.00026406,-0.00168060,-0.00008190
 ,0.00213885,-0.00227260,0.00149198,-0.00074419,0.00098920,-0.00063703,
 0.00091492,0.00032638,-0.00018310,0.00054422,-0.00024066,-0.00020932,0
 .00020404,0.00019448,-0.00000411,0.00007144,0.00003145,0.00010128,-0.0
 0001061,-0.00036326,-0.00056129,-0.00010419,0.00012069,0.00004705,0.00
 025476,-0.00027744,0.00005320,-0.00003164,-0.00006950,0.00030275,-0.00
 016254,0.00036337,-0.00056126,-0.00010408,0.00027743,0.00005319,-0.000
 03166,-0.00012073,0.00004706,0.00025476,0.00006944,0.00030270,-0.00016
 264,-0.00000136,0.05547070,-0.18195125,-0.00000092,-0.06417008,-0.0327
 4121,0.00000394,0.02705331,0.34997421,0.00016789,0.00017804,-0.0003081
 7,0.00000162,0.00005723,0.00005776,-0.00011069,0.00009692,-0.00002834,
 -0.00000937,-0.00003749,-0.00000477,-0.00022704,-0.00025960,0.00061623
 ,-0.00021717,-0.00006983,-0.00065076,0.00076669,-0.00083890,-0.0018980
 5,0.00039428,-0.00045817,-0.00005738,-0.00054327,0.00011575,-0.0005638
 3,0.00076685,0.00083896,0.00189794,-0.00054327,-0.00011572,0.00056382,
 0.00039427,0.00045817,0.00005728,-0.00022668,0.00025988,-0.00061587,-0
 .00021702,0.00006986,0.00065034,0.00016789,-0.00017798,0.00030799,-0.0
 0011064,-0.00009687,0.00002834,-0.00000937,0.00003748,0.00000478,0.000
 00161,-0.00005724,-0.00005776,0.00031076,-0.00039978,-0.00059142,-0.00
 036825,0.00025248,-0.00013964,-0.00014072,0.00008697,0.00005005,-0.001
 04936,0.00079005,0.00004086,0.00031067,0.00040007,0.00059172,-0.000140
 79,-0.00008703,-0.00005002,-0.00036835,-0.00025255,0.00013968,-0.00104
 974,-0.00079033,-0.00004072,0.00572799,0.00000066,0.00000053,-0.011642
 91,-0.00000070,0.00000026,-0.00468072,-0.00000208,-0.00000112,0.012644
 84,0.00020389,0.00031021,-0.00028887,-0.00012083,0.00011975,0.00011967
 ,-0.00015556,0.00004216,-0.00003239,0.00018904,-0.00000588,0.00000964,
 -0.00076314,-0.00023757,0.00078518,0.00063809,-0.00013186,-0.00055330,
 -0.00335032,-0.00322423,-0.00326311,0.00141386,-0.00066301,-0.00012873
 ,0.00002213,0.00069660,-0.00004823,0.00335025,-0.00322436,-0.00326299,
 -0.00002211,0.00069657,-0.00004833,-0.00141398,-0.00066306,-0.00012881
 ,0.00076317,-0.00023746,0.00078530,-0.00063788,-0.00013191,-0.00055335
 ,-0.00020391,0.00031020,-0.00028892,0.00015556,0.00004217,-0.00003240,
 -0.00018903,-0.00000589,0.00000964,0.00012084,0.00011978,0.00011966,0.
 00076442,-0.00041729,-0.00032066,-0.00017356,0.00015412,-0.00011296,-0
 .00003894,0.00025350,0.00011892,-0.00039515,0.00039509,0.00025320,-0.0
 0076442,-0.00041737,-0.00032046,0.00003895,0.00025353,0.00011890,0.000
 17353,0.00015412,-0.00011296,0.00039509,0.00039514,0.00025320,-0.00000
 019,-0.08610512,0.04855657,-0.00000010,-0.01389716,0.00271597,-0.00000
 143,-0.14826189,-0.03287002,0.00000175,0.25368111,-0.00009631,-0.00014
 672,-0.00002794,0.00001597,-0.00002892,-0.00004581,0.00001950,0.000028
 41,0.00002001,-0.00008816,-0.00000704,0.00001119,-0.00031662,0.0001976
 0,0.00004015,-0.00012231,-0.00015854,-0.00008423,0.00187370,-0.0011349
 4,-0.00111089,-0.00127140,0.00128930,-0.00036515,-0.00041703,0.0003371
 1,-0.00006696,-0.00187371,-0.00113508,-0.00111089,0.00041710,0.0003371
 6,-0.00006707,0.00127133,0.00128936,-0.00036522,0.00031653,0.00019761,
 0.00004008,0.00012228,-0.00015856,-0.00008420,0.00009631,-0.00014670,-
 0.00002788,-0.00001951,0.00002840,0.00002000,0.00008817,-0.00000704,0.
 00001118,-0.00001597,-0.00002892,-0.00004581,-0.00022846,0.00018530,-0
 .00040910,-0.00012703,0.00010454,-0.00006854,0.00005675,-0.00016983,-0
 .00013494,-0.00053004,-0.00009343,0.00011043,0.00022849,0.00018513,-0.
 00040926,-0.00005669,-0.00016980,-0.00013495,0.00012712,0.00010462,-0.
 00006857,0.00053021,-0.00009328,0.00011053,0.00000107,0.15070385,0.017
 10864,-0.00000015,-0.07118728,0.01889817,-0.00000139,-0.06884292,-0.08
 085791,0.00000026,-0.01147938,0.04911493\\0.00000107,0.00000044,0.0000
 0168,-0.00000127,-0.00000084,0.00000268,0.00000002,0.00000133,0.000001
 99,-0.00000033,-0.00000054,0.00000101,-0.00000024,-0.00000223,-0.00000
 015,-0.00000042,-0.00000238,-0.00000109,-0.00000020,0.00000194,-0.0000
 0041,-0.00000060,-0.00000232,0.00000300,0.00000031,0.00000278,0.000000
 99,0.00000021,0.00000188,-0.00000041,-0.00000032,0.00000277,0.00000100
 ,0.00000058,-0.00000230,0.00000302,0.00000021,-0.00000228,-0.00000015,
 0.00000042,-0.00000237,-0.00000108,-0.00000107,0.00000043,0.00000168,-
 0.00000002,0.00000134,0.00000199,0.00000033,-0.00000054,0.00000100,0.0
 0000127,-0.00000084,0.00000269,-0.00000257,-0.00000282,-0.00000223,-0.
 00000031,0.00000287,-0.00000058,-0.00000050,0.00000283,-0.00000278,0.0
 0000620,0.00000265,-0.00000212,0.00000256,-0.00000276,-0.00000224,0.00
 000049,0.00000281,-0.00000278,0.00000031,0.00000287,-0.00000058,-0.000
 00617,0.00000263,-0.00000212,0.00000002,0.00000245,-0.00000045,-0.0000
 0003,-0.00000205,0.00000167,0.00000002,-0.00000312,0.00000102,0.000000
 02,-0.00000463,-0.00000626\\\@
 Job cpu time:  0 days 12 hours  3 minutes  7.7 seconds.
 File lengths (MBytes):  RWF=  74165 Int=      0 D2E=      0 Chk=     26 Scr=      1
 Normal termination of Gaussian 09 at Mon Feb 24 04:04:05 2014.
