 Entering Gaussian System, Link 0=g09
 Initial command:
 /usr/caen/gaussian-09revc/g09/l1.exe /scratch/avioli_flux/hetanjin/scratch/Gau-17254.inp -scrdir=/scratch/avioli_flux/hetanjin/scratch/
 Entering Link 1 = /usr/caen/gaussian-09revc/g09/l1.exe PID=     17255.
  
 Copyright (c) 1988,1990,1992,1993,1995,1998,2003,2009,2011,
            Gaussian, Inc.  All Rights Reserved.
  
 This is part of the Gaussian(R) 09 program.  It is based on
 the Gaussian(R) 03 system (copyright 2003, Gaussian, Inc.),
 the Gaussian(R) 98 system (copyright 1998, Gaussian, Inc.),
 the Gaussian(R) 94 system (copyright 1995, Gaussian, Inc.),
 the Gaussian 92(TM) system (copyright 1992, Gaussian, Inc.),
 the Gaussian 90(TM) system (copyright 1990, Gaussian, Inc.),
 the Gaussian 88(TM) system (copyright 1988, Gaussian, Inc.),
 the Gaussian 86(TM) system (copyright 1986, Carnegie Mellon
 University), and the Gaussian 82(TM) system (copyright 1983,
 Carnegie Mellon University). Gaussian is a federally registered
 trademark of Gaussian, Inc.
  
 This software contains proprietary and confidential information,
 including trade secrets, belonging to Gaussian, Inc.
  
 This software is provided under written license and may be
 used, copied, transmitted, or stored only in accord with that
 written license.
  
 The following legend is applicable only to US Government
 contracts under FAR:
  
                    RESTRICTED RIGHTS LEGEND
  
 Use, reproduction and disclosure by the US Government is
 subject to restrictions as set forth in subparagraphs (a)
 and (c) of the Commercial Computer Software - Restricted
 Rights clause in FAR 52.227-19.
  
 Gaussian, Inc.
 340 Quinnipiac St., Bldg. 40, Wallingford CT 06492
  
  
 ---------------------------------------------------------------
 Warning -- This program may not be used in any manner that
 competes with the business of Gaussian, Inc. or will provide
 assistance to any competitor of Gaussian, Inc.  The licensee
 of this program is prohibited from giving any competitor of
 Gaussian, Inc. access to this program.  By using this program,
 the user acknowledges that Gaussian, Inc. is engaged in the
 business of creating and licensing software in the field of
 computational chemistry and represents and warrants to the
 licensee that it is not a competitor of Gaussian, Inc. and that
 it will not use this program in any manner prohibited above.
 ---------------------------------------------------------------
  

 Cite this work as:
 Gaussian 09, Revision C.01,
 M. J. Frisch, G. W. Trucks, H. B. Schlegel, G. E. Scuseria, 
 M. A. Robb, J. R. Cheeseman, G. Scalmani, V. Barone, B. Mennucci, 
 G. A. Petersson, H. Nakatsuji, M. Caricato, X. Li, H. P. Hratchian, 
 A. F. Izmaylov, J. Bloino, G. Zheng, J. L. Sonnenberg, M. Hada, 
 M. Ehara, K. Toyota, R. Fukuda, J. Hasegawa, M. Ishida, T. Nakajima, 
 Y. Honda, O. Kitao, H. Nakai, T. Vreven, J. A. Montgomery, Jr., 
 J. E. Peralta, F. Ogliaro, M. Bearpark, J. J. Heyd, E. Brothers, 
 K. N. Kudin, V. N. Staroverov, T. Keith, R. Kobayashi, J. Normand, 
 K. Raghavachari, A. Rendell, J. C. Burant, S. S. Iyengar, J. Tomasi, 
 M. Cossi, N. Rega, J. M. Millam, M. Klene, J. E. Knox, J. B. Cross, 
 V. Bakken, C. Adamo, J. Jaramillo, R. Gomperts, R. E. Stratmann, 
 O. Yazyev, A. J. Austin, R. Cammi, C. Pomelli, J. W. Ochterski, 
 R. L. Martin, K. Morokuma, V. G. Zakrzewski, G. A. Voth, 
 P. Salvador, J. J. Dannenberg, S. Dapprich, A. D. Daniels, 
 O. Farkas, J. B. Foresman, J. V. Ortiz, J. Cioslowski, 
 and D. J. Fox, Gaussian, Inc., Wallingford CT, 2010.
 
 ******************************************
 Gaussian 09:  EM64L-G09RevC.01 23-Sep-2011
                20-Feb-2014 
 ******************************************
 %mem=30GB
 %nprocshared=8
 Will use up to    8 processors via shared memory.
 %chk=TS_4_4b.chk
 -------------------------------
 #p cbs-qb3 opt=(TS,calcfc) freq
 -------------------------------
 1/5=1,10=4,14=-1,18=20,26=3,38=1/1,3;
 2/9=110,12=2,17=6,18=5,40=1/2;
 3/5=4,6=6,7=700,11=2,16=1,25=1,30=1,71=2,74=-5/1,2,3;
 4//1;
 5/5=2,38=5/2;
 8/6=4,10=90,11=11/1;
 11/6=1,8=1,9=11,15=111,16=1/1,2,10;
 10/6=1,7=6,13=1/2;
 6/7=2,8=2,9=2,10=2,28=1/1;
 7/10=1,18=20,25=1/1,2,3,16;
 1/5=1,10=4,14=-1,18=20/3(2);
 2/9=110/2;
 99//99;
 2/9=110/2;
 3/5=4,6=6,7=700,11=2,16=1,25=1,30=1,71=1,74=-5/1,2,3;
 4/5=5,16=3/1;
 5/5=2,38=5/2;
 7//1,2,3,16;
 1/5=1,14=-1,18=20/3(-5);
 2/9=110/2;
 6/7=2,8=2,9=2,10=2,19=2,28=1/1;
 99/9=1/99;
 Leave Link    1 at Thu Feb 20 14:52:17 2014, MaxMem= 4026531840 cpu:       0.5
 (Enter /usr/caen/gaussian-09revc/g09/l101.exe)
 ------------------------------------
 TS_4_4b using cbs-qb3 to cal. energy
 ------------------------------------
 Charge =  0 Multiplicity = 2
 Symbolic Z-Matrix:
 C                     3.90987  -0.92475   0.08474 
 H                     3.75618  -1.90818  -0.36916 
 H                     4.09124  -1.07545   1.15516 
 H                     4.81847  -0.49578  -0.34729 
 C                     2.70196  -0.00618  -0.14621 
 H                     2.55412   0.09523  -1.22685 
 C                     1.43086  -0.65434   0.43641 
 H                     1.36123  -1.69136   0.08832 
 H                     1.51395  -0.69781   1.52987 
 C                    -1.11138  -0.61349   0.77355 
 H                    -1.03175  -0.44219   1.85574 
 H                    -1.04898  -1.69249   0.60408 
 C                    -2.43701  -0.07361   0.25135 
 H                    -1.97709   0.39951  -0.92598 
 C                    -3.48371  -1.11306  -0.08863 
 H                    -3.84624  -1.6077    0.82502 
 H                    -4.35052  -0.66459  -0.5812 
 H                    -3.07988  -1.88984  -0.74292 
 C                     2.96597   1.39062   0.43353 
 H                     3.09433   1.34579   1.52138 
 H                     3.87979   1.81788   0.01091 
 H                     2.15287   2.08834   0.21811 
 C                    -2.95876   1.16367   0.95468 
 H                    -3.78928   1.61752   0.40732 
 H                    -3.32903   0.90567   1.95754 
 H                    -2.18079   1.92181   1.0769 
 C                     0.11742   0.04193   0.09486 
 H                     0.15164   1.10801   0.34318 
 O                    -0.06177  -0.07123  -1.32366 
 O                    -1.13218   0.77134  -1.69706 
 
 NAtoms=     30 NQM=        0 NQMF=       0 NMMI=     30 NMMIF=      0
                NMic=       0 NMicF=      0.
                    Isotopes and Nuclear Properties:
 (Nuclear quadrupole moments (NQMom) in fm**2, nuclear magnetic moments (NMagM)
  in nuclear magnetons)

  Atom         1           2           3           4           5           6           7           8           9          10
 IAtWgt=          12           1           1           1          12           1          12           1           1          12
 AtmWgt=  12.0000000   1.0078250   1.0078250   1.0078250  12.0000000   1.0078250  12.0000000   1.0078250   1.0078250  12.0000000
 NucSpn=           0           1           1           1           0           1           0           1           1           0
 AtZEff=   0.0000000   0.0000000   0.0000000   0.0000000   0.0000000   0.0000000   0.0000000   0.0000000   0.0000000   0.0000000
 NQMom=    0.0000000   0.0000000   0.0000000   0.0000000   0.0000000   0.0000000   0.0000000   0.0000000   0.0000000   0.0000000
 NMagM=    0.0000000   2.7928460   2.7928460   2.7928460   0.0000000   2.7928460   0.0000000   2.7928460   2.7928460   0.0000000

  Atom        11          12          13          14          15          16          17          18          19          20
 IAtWgt=           1           1          12           1          12           1           1           1          12           1
 AtmWgt=   1.0078250   1.0078250  12.0000000   1.0078250  12.0000000   1.0078250   1.0078250   1.0078250  12.0000000   1.0078250
 NucSpn=           1           1           0           1           0           1           1           1           0           1
 AtZEff=   0.0000000   0.0000000   0.0000000   0.0000000   0.0000000   0.0000000   0.0000000   0.0000000   0.0000000   0.0000000
 NQMom=    0.0000000   0.0000000   0.0000000   0.0000000   0.0000000   0.0000000   0.0000000   0.0000000   0.0000000   0.0000000
 NMagM=    2.7928460   2.7928460   0.0000000   2.7928460   0.0000000   2.7928460   2.7928460   2.7928460   0.0000000   2.7928460

  Atom        21          22          23          24          25          26          27          28          29          30
 IAtWgt=           1           1          12           1           1           1          12           1          16          16
 AtmWgt=   1.0078250   1.0078250  12.0000000   1.0078250   1.0078250   1.0078250  12.0000000   1.0078250  15.9949146  15.9949146
 NucSpn=           1           1           0           1           1           1           0           1           0           0
 AtZEff=   0.0000000   0.0000000   0.0000000   0.0000000   0.0000000   0.0000000   0.0000000   0.0000000   0.0000000   0.0000000
 NQMom=    0.0000000   0.0000000   0.0000000   0.0000000   0.0000000   0.0000000   0.0000000   0.0000000   0.0000000   0.0000000
 NMagM=    2.7928460   2.7928460   0.0000000   2.7928460   2.7928460   2.7928460   0.0000000   2.7928460   0.0000000   0.0000000
 Leave Link  101 at Thu Feb 20 14:52:17 2014, MaxMem= 4026531840 cpu:       1.7
 (Enter /usr/caen/gaussian-09revc/g09/l103.exe)

 GradGradGradGradGradGradGradGradGradGradGradGradGradGradGradGradGradGrad
 Berny optimization.
 Initialization pass.
                           ----------------------------
                           !    Initial Parameters    !
                           ! (Angstroms and Degrees)  !
 --------------------------                            --------------------------
 ! Name  Definition              Value          Derivative Info.                !
 --------------------------------------------------------------------------------
 ! R1    R(1,2)                  1.094          calculate D2E/DX2 analytically  !
 ! R2    R(1,3)                  1.0961         calculate D2E/DX2 analytically  !
 ! R3    R(1,4)                  1.0937         calculate D2E/DX2 analytically  !
 ! R4    R(1,5)                  1.535          calculate D2E/DX2 analytically  !
 ! R5    R(5,6)                  1.0954         calculate D2E/DX2 analytically  !
 ! R6    R(5,7)                  1.5412         calculate D2E/DX2 analytically  !
 ! R7    R(5,19)                 1.5352         calculate D2E/DX2 analytically  !
 ! R8    R(7,8)                  1.0961         calculate D2E/DX2 analytically  !
 ! R9    R(7,9)                  1.0975         calculate D2E/DX2 analytically  !
 ! R10   R(7,27)                 1.5253         calculate D2E/DX2 analytically  !
 ! R11   R(10,11)                1.0986         calculate D2E/DX2 analytically  !
 ! R12   R(10,12)                1.094          calculate D2E/DX2 analytically  !
 ! R13   R(10,13)                1.5236         calculate D2E/DX2 analytically  !
 ! R14   R(10,27)                1.5492         calculate D2E/DX2 analytically  !
 ! R15   R(13,14)                1.3496         calculate D2E/DX2 analytically  !
 ! R16   R(13,15)                1.5138         calculate D2E/DX2 analytically  !
 ! R17   R(13,23)                1.5158         calculate D2E/DX2 analytically  !
 ! R18   R(14,30)                1.2028         calculate D2E/DX2 analytically  !
 ! R19   R(15,16)                1.1004         calculate D2E/DX2 analytically  !
 ! R20   R(15,17)                1.0932         calculate D2E/DX2 analytically  !
 ! R21   R(15,18)                1.093          calculate D2E/DX2 analytically  !
 ! R22   R(19,20)                1.0963         calculate D2E/DX2 analytically  !
 ! R23   R(19,21)                1.0937         calculate D2E/DX2 analytically  !
 ! R24   R(19,22)                1.0929         calculate D2E/DX2 analytically  !
 ! R25   R(23,24)                1.0933         calculate D2E/DX2 analytically  !
 ! R26   R(23,25)                1.0997         calculate D2E/DX2 analytically  !
 ! R27   R(23,26)                1.0931         calculate D2E/DX2 analytically  !
 ! R28   R(27,28)                1.0952         calculate D2E/DX2 analytically  !
 ! R29   R(27,29)                1.4343         calculate D2E/DX2 analytically  !
 ! R30   R(29,30)                1.4125         calculate D2E/DX2 analytically  !
 ! A1    A(2,1,3)              107.7487         calculate D2E/DX2 analytically  !
 ! A2    A(2,1,4)              107.7821         calculate D2E/DX2 analytically  !
 ! A3    A(2,1,5)              111.4058         calculate D2E/DX2 analytically  !
 ! A4    A(3,1,4)              107.5915         calculate D2E/DX2 analytically  !
 ! A5    A(3,1,5)              111.0648         calculate D2E/DX2 analytically  !
 ! A6    A(4,1,5)              111.0752         calculate D2E/DX2 analytically  !
 ! A7    A(1,5,6)              108.0616         calculate D2E/DX2 analytically  !
 ! A8    A(1,5,7)              109.9053         calculate D2E/DX2 analytically  !
 ! A9    A(1,5,19)             110.6299         calculate D2E/DX2 analytically  !
 ! A10   A(6,5,7)              107.4907         calculate D2E/DX2 analytically  !
 ! A11   A(6,5,19)             108.1508         calculate D2E/DX2 analytically  !
 ! A12   A(7,5,19)             112.4405         calculate D2E/DX2 analytically  !
 ! A13   A(5,7,8)              109.2828         calculate D2E/DX2 analytically  !
 ! A14   A(5,7,9)              109.3208         calculate D2E/DX2 analytically  !
 ! A15   A(5,7,27)             115.694          calculate D2E/DX2 analytically  !
 ! A16   A(8,7,9)              106.484          calculate D2E/DX2 analytically  !
 ! A17   A(8,7,27)             107.8228         calculate D2E/DX2 analytically  !
 ! A18   A(9,7,27)             107.8411         calculate D2E/DX2 analytically  !
 ! A19   A(11,10,12)           107.5931         calculate D2E/DX2 analytically  !
 ! A20   A(11,10,13)           110.2088         calculate D2E/DX2 analytically  !
 ! A21   A(11,10,27)           107.9444         calculate D2E/DX2 analytically  !
 ! A22   A(12,10,13)           110.243          calculate D2E/DX2 analytically  !
 ! A23   A(12,10,27)           107.7073         calculate D2E/DX2 analytically  !
 ! A24   A(13,10,27)           112.9573         calculate D2E/DX2 analytically  !
 ! A25   A(10,13,14)            97.2791         calculate D2E/DX2 analytically  !
 ! A26   A(10,13,15)           115.8014         calculate D2E/DX2 analytically  !
 ! A27   A(10,13,23)           115.4465         calculate D2E/DX2 analytically  !
 ! A28   A(14,13,15)           106.2852         calculate D2E/DX2 analytically  !
 ! A29   A(14,13,23)           103.6454         calculate D2E/DX2 analytically  !
 ! A30   A(15,13,23)           115.2566         calculate D2E/DX2 analytically  !
 ! A31   A(13,14,30)           155.093          calculate D2E/DX2 analytically  !
 ! A32   A(13,15,16)           110.4861         calculate D2E/DX2 analytically  !
 ! A33   A(13,15,17)           111.5763         calculate D2E/DX2 analytically  !
 ! A34   A(13,15,18)           111.529          calculate D2E/DX2 analytically  !
 ! A35   A(16,15,17)           107.2953         calculate D2E/DX2 analytically  !
 ! A36   A(16,15,18)           107.4162         calculate D2E/DX2 analytically  !
 ! A37   A(17,15,18)           108.3483         calculate D2E/DX2 analytically  !
 ! A38   A(5,19,20)            110.9555         calculate D2E/DX2 analytically  !
 ! A39   A(5,19,21)            110.6828         calculate D2E/DX2 analytically  !
 ! A40   A(5,19,22)            112.2403         calculate D2E/DX2 analytically  !
 ! A41   A(20,19,21)           107.5526         calculate D2E/DX2 analytically  !
 ! A42   A(20,19,22)           107.9877         calculate D2E/DX2 analytically  !
 ! A43   A(21,19,22)           107.2208         calculate D2E/DX2 analytically  !
 ! A44   A(13,23,24)           111.5929         calculate D2E/DX2 analytically  !
 ! A45   A(13,23,25)           110.3353         calculate D2E/DX2 analytically  !
 ! A46   A(13,23,26)           111.9013         calculate D2E/DX2 analytically  !
 ! A47   A(24,23,25)           107.3481         calculate D2E/DX2 analytically  !
 ! A48   A(24,23,26)           107.9807         calculate D2E/DX2 analytically  !
 ! A49   A(25,23,26)           107.4793         calculate D2E/DX2 analytically  !
 ! A50   A(7,27,10)            113.0651         calculate D2E/DX2 analytically  !
 ! A51   A(7,27,28)            111.5112         calculate D2E/DX2 analytically  !
 ! A52   A(7,27,29)            107.0397         calculate D2E/DX2 analytically  !
 ! A53   A(10,27,28)           109.7109         calculate D2E/DX2 analytically  !
 ! A54   A(10,27,29)           107.5053         calculate D2E/DX2 analytically  !
 ! A55   A(28,27,29)           107.7561         calculate D2E/DX2 analytically  !
 ! A56   A(27,29,30)           108.0037         calculate D2E/DX2 analytically  !
 ! A57   A(14,30,29)           100.2795         calculate D2E/DX2 analytically  !
 ! D1    D(2,1,5,6)            -58.8242         calculate D2E/DX2 analytically  !
 ! D2    D(2,1,5,7)             58.1957         calculate D2E/DX2 analytically  !
 ! D3    D(2,1,5,19)          -177.0461         calculate D2E/DX2 analytically  !
 ! D4    D(3,1,5,6)           -178.9476         calculate D2E/DX2 analytically  !
 ! D5    D(3,1,5,7)            -61.9277         calculate D2E/DX2 analytically  !
 ! D6    D(3,1,5,19)            62.8305         calculate D2E/DX2 analytically  !
 ! D7    D(4,1,5,6)             61.3486         calculate D2E/DX2 analytically  !
 ! D8    D(4,1,5,7)            178.3684         calculate D2E/DX2 analytically  !
 ! D9    D(4,1,5,19)           -56.8733         calculate D2E/DX2 analytically  !
 ! D10   D(1,5,7,8)            -49.121          calculate D2E/DX2 analytically  !
 ! D11   D(1,5,7,9)             67.0604         calculate D2E/DX2 analytically  !
 ! D12   D(1,5,7,27)          -171.0033         calculate D2E/DX2 analytically  !
 ! D13   D(6,5,7,8)             68.2551         calculate D2E/DX2 analytically  !
 ! D14   D(6,5,7,9)           -175.5635         calculate D2E/DX2 analytically  !
 ! D15   D(6,5,7,27)           -53.6273         calculate D2E/DX2 analytically  !
 ! D16   D(19,5,7,8)          -172.8291         calculate D2E/DX2 analytically  !
 ! D17   D(19,5,7,9)           -56.6477         calculate D2E/DX2 analytically  !
 ! D18   D(19,5,7,27)           65.2885         calculate D2E/DX2 analytically  !
 ! D19   D(1,5,19,20)          -63.3576         calculate D2E/DX2 analytically  !
 ! D20   D(1,5,19,21)           55.968          calculate D2E/DX2 analytically  !
 ! D21   D(1,5,19,22)          175.7208         calculate D2E/DX2 analytically  !
 ! D22   D(6,5,19,20)          178.4749         calculate D2E/DX2 analytically  !
 ! D23   D(6,5,19,21)          -62.1995         calculate D2E/DX2 analytically  !
 ! D24   D(6,5,19,22)           57.5533         calculate D2E/DX2 analytically  !
 ! D25   D(7,5,19,20)           59.9464         calculate D2E/DX2 analytically  !
 ! D26   D(7,5,19,21)          179.272          calculate D2E/DX2 analytically  !
 ! D27   D(7,5,19,22)          -60.9752         calculate D2E/DX2 analytically  !
 ! D28   D(5,7,27,10)         -176.85           calculate D2E/DX2 analytically  !
 ! D29   D(5,7,27,28)          -52.666          calculate D2E/DX2 analytically  !
 ! D30   D(5,7,27,29)           64.9567         calculate D2E/DX2 analytically  !
 ! D31   D(8,7,27,10)           60.4916         calculate D2E/DX2 analytically  !
 ! D32   D(8,7,27,28)         -175.3244         calculate D2E/DX2 analytically  !
 ! D33   D(8,7,27,29)          -57.7017         calculate D2E/DX2 analytically  !
 ! D34   D(9,7,27,10)          -54.1278         calculate D2E/DX2 analytically  !
 ! D35   D(9,7,27,28)           70.0563         calculate D2E/DX2 analytically  !
 ! D36   D(9,7,27,29)         -172.3211         calculate D2E/DX2 analytically  !
 ! D37   D(11,10,13,14)        142.2683         calculate D2E/DX2 analytically  !
 ! D38   D(11,10,13,15)       -105.6608         calculate D2E/DX2 analytically  !
 ! D39   D(11,10,13,23)         33.3536         calculate D2E/DX2 analytically  !
 ! D40   D(12,10,13,14)        -99.1093         calculate D2E/DX2 analytically  !
 ! D41   D(12,10,13,15)         12.9616         calculate D2E/DX2 analytically  !
 ! D42   D(12,10,13,23)        151.976          calculate D2E/DX2 analytically  !
 ! D43   D(27,10,13,14)         21.4398         calculate D2E/DX2 analytically  !
 ! D44   D(27,10,13,15)        133.5107         calculate D2E/DX2 analytically  !
 ! D45   D(27,10,13,23)        -87.4749         calculate D2E/DX2 analytically  !
 ! D46   D(11,10,27,7)          67.6726         calculate D2E/DX2 analytically  !
 ! D47   D(11,10,27,28)        -57.4903         calculate D2E/DX2 analytically  !
 ! D48   D(11,10,27,29)       -174.4058         calculate D2E/DX2 analytically  !
 ! D49   D(12,10,27,7)         -48.2342         calculate D2E/DX2 analytically  !
 ! D50   D(12,10,27,28)       -173.3971         calculate D2E/DX2 analytically  !
 ! D51   D(12,10,27,29)         69.6874         calculate D2E/DX2 analytically  !
 ! D52   D(13,10,27,7)        -170.2193         calculate D2E/DX2 analytically  !
 ! D53   D(13,10,27,28)         64.6177         calculate D2E/DX2 analytically  !
 ! D54   D(13,10,27,29)        -52.2977         calculate D2E/DX2 analytically  !
 ! D55   D(10,13,14,30)        -18.208          calculate D2E/DX2 analytically  !
 ! D56   D(15,13,14,30)       -137.8413         calculate D2E/DX2 analytically  !
 ! D57   D(23,13,14,30)        100.2653         calculate D2E/DX2 analytically  !
 ! D58   D(10,13,15,16)         68.4677         calculate D2E/DX2 analytically  !
 ! D59   D(10,13,15,17)       -172.2558         calculate D2E/DX2 analytically  !
 ! D60   D(10,13,15,18)        -50.9299         calculate D2E/DX2 analytically  !
 ! D61   D(14,13,15,16)        175.1971         calculate D2E/DX2 analytically  !
 ! D62   D(14,13,15,17)        -65.5264         calculate D2E/DX2 analytically  !
 ! D63   D(14,13,15,18)         55.7994         calculate D2E/DX2 analytically  !
 ! D64   D(23,13,15,16)        -70.6248         calculate D2E/DX2 analytically  !
 ! D65   D(23,13,15,17)         48.6518         calculate D2E/DX2 analytically  !
 ! D66   D(23,13,15,18)        169.9776         calculate D2E/DX2 analytically  !
 ! D67   D(10,13,23,24)        168.0651         calculate D2E/DX2 analytically  !
 ! D68   D(10,13,23,25)        -72.6811         calculate D2E/DX2 analytically  !
 ! D69   D(10,13,23,26)         46.9383         calculate D2E/DX2 analytically  !
 ! D70   D(14,13,23,24)         63.0006         calculate D2E/DX2 analytically  !
 ! D71   D(14,13,23,25)       -177.7456         calculate D2E/DX2 analytically  !
 ! D72   D(14,13,23,26)        -58.1262         calculate D2E/DX2 analytically  !
 ! D73   D(15,13,23,24)        -52.6953         calculate D2E/DX2 analytically  !
 ! D74   D(15,13,23,25)         66.5585         calculate D2E/DX2 analytically  !
 ! D75   D(15,13,23,26)       -173.8221         calculate D2E/DX2 analytically  !
 ! D76   D(13,14,30,29)         34.0513         calculate D2E/DX2 analytically  !
 ! D77   D(7,27,29,30)        -169.2988         calculate D2E/DX2 analytically  !
 ! D78   D(10,27,29,30)         68.9434         calculate D2E/DX2 analytically  !
 ! D79   D(28,27,29,30)        -49.2428         calculate D2E/DX2 analytically  !
 ! D80   D(27,29,30,14)        -51.9284         calculate D2E/DX2 analytically  !
 --------------------------------------------------------------------------------
 Trust Radius=3.00D-01 FncErr=1.00D-07 GrdErr=1.00D-06
 Number of steps in this run=    177 maximum allowed number of steps=    180.
 Search for a saddle point of order  1.
 GradGradGradGradGradGradGradGradGradGradGradGradGradGradGradGradGradGrad

 Leave Link  103 at Thu Feb 20 14:52:17 2014, MaxMem= 4026531840 cpu:       0.1
 (Enter /usr/caen/gaussian-09revc/g09/l202.exe)
                          Input orientation:                          
 ---------------------------------------------------------------------
 Center     Atomic      Atomic             Coordinates (Angstroms)
 Number     Number       Type             X           Y           Z
 ---------------------------------------------------------------------
      1          6           0        3.909873   -0.924746    0.084740
      2          1           0        3.756175   -1.908176   -0.369158
      3          1           0        4.091239   -1.075446    1.155158
      4          1           0        4.818470   -0.495783   -0.347292
      5          6           0        2.701964   -0.006177   -0.146210
      6          1           0        2.554118    0.095233   -1.226853
      7          6           0        1.430855   -0.654344    0.436407
      8          1           0        1.361234   -1.691360    0.088322
      9          1           0        1.513949   -0.697808    1.529868
     10          6           0       -1.111377   -0.613485    0.773547
     11          1           0       -1.031748   -0.442186    1.855740
     12          1           0       -1.048980   -1.692490    0.604079
     13          6           0       -2.437009   -0.073614    0.251349
     14          1           0       -1.977092    0.399505   -0.925983
     15          6           0       -3.483714   -1.113065   -0.088626
     16          1           0       -3.846236   -1.607698    0.825018
     17          1           0       -4.350516   -0.664587   -0.581196
     18          1           0       -3.079878   -1.889844   -0.742923
     19          6           0        2.965973    1.390619    0.433531
     20          1           0        3.094327    1.345785    1.521383
     21          1           0        3.879787    1.817879    0.010909
     22          1           0        2.152869    2.088345    0.218106
     23          6           0       -2.958764    1.163668    0.954676
     24          1           0       -3.789278    1.617519    0.407319
     25          1           0       -3.329025    0.905668    1.957536
     26          1           0       -2.180787    1.921809    1.076902
     27          6           0        0.117424    0.041930    0.094858
     28          1           0        0.151643    1.108011    0.343184
     29          8           0       -0.061772   -0.071227   -1.323655
     30          8           0       -1.132181    0.771341   -1.697064
 ---------------------------------------------------------------------
                    Distance matrix (angstroms):
                    1          2          3          4          5
     1  C    0.000000
     2  H    1.093975   0.000000
     3  H    1.096083   1.768968   0.000000
     4  H    1.093714   1.767428   1.766983   0.000000
     5  C    1.534976   2.186016   2.183341   2.181684   0.000000
     6  H    2.144459   2.488821   3.067117   2.500043   1.095414
     7  C    2.518396   2.761909   2.787754   3.480698   1.541195
     8  H    2.661441   2.447864   2.995065   3.683971   2.166196
     9  H    2.807196   3.177872   2.631623   3.805838   2.167711
    10  C    5.077823   5.164791   5.237008   6.035994   3.969426
    11  H    5.271520   5.479371   5.209302   6.251502   4.258933
    12  H    5.044737   4.907466   5.206369   6.063348   4.180450
    13  C    6.405864   6.488927   6.666225   7.292364   5.154769
    14  H    6.118134   6.205304   6.582649   6.878669   4.760902
    15  C    7.398017   7.288820   7.676479   8.329118   6.284197
    16  H    7.821231   7.701493   7.962148   8.814068   6.810806
    17  H    8.291271   8.204262   8.628265   9.173522   7.096491
    18  H    7.104439   6.846288   7.462632   8.030183   6.110153
    19  C    2.524583   3.485797   2.805075   2.756799   1.535200
    20  H    2.807912   3.821054   2.643920   3.139425   2.182342
    21  H    2.743784   3.747428   3.118549   2.522393   2.176955
    22  H    3.490497   4.345992   3.826868   3.755372   2.195735
    23  C    7.231627   7.501944   7.399755   8.058180   5.884244
    24  H    8.114437   8.364646   8.361452   8.895438   6.714090
    25  H    7.698014   7.970651   7.721978   8.582422   6.452134
    26  H    6.795837   7.211615   6.951832   7.540735   5.390212
    27  C    3.913724   4.154363   4.261921   4.752312   2.596204
    28  H    4.280559   4.753679   4.576811   4.982789   2.825785
    29  O    4.299539   4.343059   4.939683   4.995027   3.004804
    30  O    5.610156   5.730547   6.231365   6.231993   4.208367
                    6          7          8          9         10
     6  H    0.000000
     7  C    2.142433   0.000000
     8  H    2.518843   1.096090   0.000000
     9  H    3.051291   1.097475   1.757419   0.000000
    10  C    4.235532   2.564815   2.783011   2.733399   0.000000
    11  H    4.759163   2.850251   3.226541   2.579168   1.098556
    12  H    4.419342   2.693593   2.464780   2.900876   1.094013
    13  C    5.208161   3.915593   4.131626   4.199321   1.523631
    14  H    4.551370   3.818482   4.067549   4.407116   2.159633
    15  C    6.261866   4.963776   4.882546   5.269592   2.573112
    16  H    6.933591   5.376578   5.259987   5.482362   2.910423
    17  H    6.976258   5.870253   5.841798   6.232948   3.511404
    18  H    5.993048   4.823276   4.522592   5.262107   2.793523
    19  C    2.145816   2.557043   3.491841   2.769812   4.555966
    20  H    3.067329   2.818657   3.779090   2.583397   4.699568
    21  H    2.501392   3.505739   4.320169   3.772679   5.604004
    22  H    2.494274   2.844521   3.863897   3.145089   4.273605
    23  C    6.024325   4.779385   5.250156   4.878637   2.569809
    24  H    6.725068   5.693153   6.130107   5.894495   3.504662
    25  H    6.738584   5.234876   5.677768   5.119417   2.937281
    26  H    5.573418   4.482271   5.155404   4.551774   2.768281
    27  C    2.772587   1.525305   2.133401   2.134654   1.549238
    28  H    3.043456   2.179672   3.060154   2.554423   2.178068
    29  O    2.622968   2.380290   2.577490   3.319351   2.407067
    30  O    3.777171   3.626766   3.933143   4.424194   2.832330
                   11         12         13         14         15
    11  H    0.000000
    12  H    1.769241   0.000000
    13  C    2.164411   2.161435   0.000000
    14  H    3.056158   2.752985   1.349621   0.000000
    15  C    3.200434   2.596826   1.513814   2.293239   0.000000
    16  H    3.215921   2.807249   2.160655   3.254008   1.100377
    17  H    4.123389   3.655352   2.168845   2.623797   1.093208
    18  H    3.611592   2.444976   2.168075   2.547698   1.092966
    19  C    4.622080   5.065027   5.600838   5.221540   6.938267
    20  H    4.509227   5.219153   5.850073   5.710021   7.204769
    21  H    5.712659   6.080073   6.598293   6.098572   7.926001
    22  H    4.384885   4.969459   5.073672   4.606267   6.489544
    23  C    2.665347   3.453669   1.515838   2.254884   2.558821
    24  H    3.734204   4.301640   2.170919   2.558373   2.792028
    25  H    2.665437   3.712260   2.160037   3.224687   2.878540
    26  H    2.741414   3.816766   2.174604   2.523975   3.502361
    27  C    2.157700   2.151283   2.561829   2.357323   3.786275
    28  H    2.468066   3.058164   2.847067   2.577650   4.281992
    29  O    3.344700   2.705408   2.849981   2.012010   3.784232
    30  O    3.755682   3.372335   2.492557   1.202789   3.415811
                   16         17         18         19         20
    16  H    0.000000
    17  H    1.766690   0.000000
    18  H    1.767866   1.772549   0.000000
    19  C    7.453144   7.667109   6.978381   0.000000
    20  H    7.574919   7.993005   7.329201   1.096315   0.000000
    21  H    8.490511   8.616909   7.921642   1.093717   1.766735
    22  H    7.072364   7.107147   6.643132   1.092871   1.770952
    23  C    2.912883   2.763764   3.495776   5.951941   6.082289
    24  H    3.252651   2.549541   3.758710   6.759111   6.978467
    25  H    2.804837   3.155044   3.894797   6.494980   6.453168
    26  H    3.910829   3.761178   4.318429   5.213945   5.325053
    27  C    4.354883   4.573697   3.828364   3.169841   3.549220
    28  H    4.856982   4.926055   4.539768   2.829926   3.178691
    29  O    4.615161   4.392795   3.571216   3.793671   4.479188
    30  O    4.403047   3.696584   3.433047   4.660237   5.343384
                   21         22         23         24         25
    21  H    0.000000
    22  H    1.760207   0.000000
    23  C    6.934297   5.246556   0.000000
    24  H    7.681917   5.963773   1.093313   0.000000
    25  H    7.522530   5.871584   1.099721   1.766844   0.000000
    26  H    6.154486   4.421068   1.093145   1.768665   1.768194
    27  C    4.161300   2.888952   3.385338   4.224030   4.011686
    28  H    3.809643   2.231951   3.170434   3.974238   3.842151
    29  O    4.570084   3.456214   3.886942   4.443246   4.732386
    30  O    5.397429   4.024168   3.243771   3.493510   4.266177
                   26         27         28         29         30
    26  H    0.000000
    27  C    3.127320   0.000000
    28  H    2.576983   1.095155   0.000000
    29  O    3.771616   1.434258   2.052925   0.000000
    30  O    3.180886   2.303158   2.433960   1.412491   0.000000
 Stoichiometry    C9H19O2(2)
 Framework group  C1[X(C9H19O2)]
 Deg. of freedom    84
 Full point group                 C1      NOp   1
 Largest Abelian subgroup         C1      NOp   1
 Largest concise Abelian subgroup C1      NOp   1
                         Standard orientation:                         
 ---------------------------------------------------------------------
 Center     Atomic      Atomic             Coordinates (Angstroms)
 Number     Number       Type             X           Y           Z
 ---------------------------------------------------------------------
      1          6           0       -3.909873   -0.924746   -0.084740
      2          1           0       -3.756175   -1.908176    0.369158
      3          1           0       -4.091239   -1.075446   -1.155158
      4          1           0       -4.818470   -0.495783    0.347292
      5          6           0       -2.701964   -0.006177    0.146210
      6          1           0       -2.554118    0.095233    1.226853
      7          6           0       -1.430855   -0.654344   -0.436407
      8          1           0       -1.361234   -1.691360   -0.088322
      9          1           0       -1.513949   -0.697808   -1.529868
     10          6           0        1.111377   -0.613485   -0.773547
     11          1           0        1.031748   -0.442186   -1.855740
     12          1           0        1.048980   -1.692490   -0.604079
     13          6           0        2.437009   -0.073614   -0.251349
     14          1           0        1.977092    0.399505    0.925983
     15          6           0        3.483714   -1.113065    0.088626
     16          1           0        3.846236   -1.607698   -0.825018
     17          1           0        4.350516   -0.664587    0.581196
     18          1           0        3.079878   -1.889844    0.742923
     19          6           0       -2.965973    1.390619   -0.433531
     20          1           0       -3.094327    1.345785   -1.521383
     21          1           0       -3.879787    1.817879   -0.010909
     22          1           0       -2.152869    2.088345   -0.218106
     23          6           0        2.958764    1.163668   -0.954676
     24          1           0        3.789278    1.617519   -0.407319
     25          1           0        3.329025    0.905668   -1.957536
     26          1           0        2.180787    1.921809   -1.076902
     27          6           0       -0.117424    0.041930   -0.094858
     28          1           0       -0.151643    1.108011   -0.343184
     29          8           0        0.061772   -0.071227    1.323655
     30          8           0        1.132181    0.771341    1.697064
 ---------------------------------------------------------------------
 Rotational constants (GHZ):      2.1286210      0.4822058      0.4784017
 Leave Link  202 at Thu Feb 20 14:52:18 2014, MaxMem= 4026531840 cpu:       0.3
 (Enter /usr/caen/gaussian-09revc/g09/l301.exe)
 Standard basis: 6-311G(2d,d,p) (5D, 7F)
 Ernie: Thresh=  0.10000D-02 Tol=  0.10000D-05 Strict=F.
 There are   312 symmetry adapted basis functions of A   symmetry.
 Integral buffers will be    131072 words long.
 Raffenetti 2 integral format.
 Two-electron integral symmetry is turned on.
   312 basis functions,   504 primitive gaussians,   323 cartesian basis functions
    45 alpha electrons       44 beta electrons
       nuclear repulsion energy       675.0795222171 Hartrees.
 IExCor=  402 DFT=T Ex+Corr=B3LYP ExCW=0 ScaHFX=  0.200000
 ScaDFX=  0.800000  0.720000  1.000000  0.810000 ScalE2=  1.000000  1.000000
 IRadAn=      0 IRanWt=     -1 IRanGd=            0 ICorTp=0
 NAtoms=   30 NActive=   30 NUniq=   30 SFac= 1.00D+00 NAtFMM=   60 NAOKFM=F Big=F
 Leave Link  301 at Thu Feb 20 14:52:18 2014, MaxMem= 4026531840 cpu:       0.5
 (Enter /usr/caen/gaussian-09revc/g09/l302.exe)
 NPDir=0 NMtPBC=     1 NCelOv=     1 NCel=       1 NClECP=     1 NCelD=      1
         NCelK=      1 NCelE2=     1 NClLst=     1 CellRange=     0.0.
 One-electron integrals computed using PRISM.
 NBasis=   312 RedAO= T  NBF=   312
 NBsUse=   312 1.00D-06 NBFU=   312
 Precomputing XC quadrature grid using
 IXCGrd= 2 IRadAn=           0 IRanWt=          -1 IRanGd=           0 AccXCQ= 0.00D+00.
 NRdTot=    1912 NPtTot=      243406 NUsed=      257193 NTot=      257225
 NSgBfM=   323   323   323   323   323 NAtAll=    30    30.
 Leave Link  302 at Thu Feb 20 14:52:19 2014, MaxMem= 4026531840 cpu:       6.7
 (Enter /usr/caen/gaussian-09revc/g09/l303.exe)
 DipDrv:  MaxL=1.
 Leave Link  303 at Thu Feb 20 14:52:19 2014, MaxMem= 4026531840 cpu:       1.0
 (Enter /usr/caen/gaussian-09revc/g09/l401.exe)
 Harris functional with IExCor=  402 diagonalized for initial guess.
 ExpMin= 1.03D-01 ExpMax= 8.59D+03 ExpMxC= 1.30D+03 IAcc=1 IRadAn=         1 AccDes= 0.00D+00
 HarFok:  IExCor=  402 AccDes= 0.00D+00 IRadAn=         1 IDoV= 1
 ScaDFX=  1.000000  1.000000  1.000000  1.000000
 FoFCou: FMM=F IPFlag=           0 FMFlag=      100000 FMFlg1=           0
         NFxFlg=           0 DoJE=T BraDBF=F KetDBF=T FulRan=T
         Omega=  0.000000  0.000000  1.000000  0.000000  0.000000 ICntrl=     500 IOpCl=  0
         NMat0=    1 NMatS0=    1 NMatT0=    0 NMatD0=    1 NMtDS0=    0 NMtDT0=    0
         I1Cent=           4 NGrid=           0.
 Petite list used in FoFCou.
 Harris En= -504.907534131792    
 Initial guess orbital symmetries:
 Alpha Orbitals:
       Occupied  (A) (A) (A) (A) (A) (A) (A) (A) (A) (A) (A) (A)
                 (A) (A) (A) (A) (A) (A) (A) (A) (A) (A) (A) (A)
                 (A) (A) (A) (A) (A) (A) (A) (A) (A) (A) (A) (A)
                 (A) (A) (A) (A) (A) (A) (A) (A) (A)
       Virtual   (A) (A) (A) (A) (A) (A) (A) (A) (A) (A) (A) (A)
                 (A) (A) (A) (A) (A) (A) (A) (A) (A) (A) (A) (A)
                 (A) (A) (A) (A) (A) (A) (A) (A) (A) (A) (A) (A)
                 (A) (A) (A) (A) (A) (A) (A) (A) (A) (A) (A) (A)
                 (A) (A) (A) (A) (A) (A) (A) (A) (A) (A) (A) (A)
                 (A) (A) (A) (A) (A) (A) (A) (A) (A) (A) (A) (A)
                 (A) (A) (A) (A) (A) (A) (A) (A) (A) (A) (A) (A)
                 (A) (A) (A) (A) (A) (A) (A) (A) (A) (A) (A) (A)
                 (A) (A) (A) (A) (A) (A) (A) (A) (A) (A) (A) (A)
                 (A) (A) (A) (A) (A) (A) (A) (A) (A) (A) (A) (A)
                 (A) (A) (A) (A) (A) (A) (A) (A) (A) (A) (A) (A)
                 (A) (A) (A) (A) (A) (A) (A) (A) (A) (A) (A) (A)
                 (A) (A) (A) (A) (A) (A) (A) (A) (A) (A) (A) (A)
                 (A) (A) (A) (A) (A) (A) (A) (A) (A) (A) (A) (A)
                 (A) (A) (A) (A) (A) (A) (A) (A) (A) (A) (A) (A)
                 (A) (A) (A) (A) (A) (A) (A) (A) (A) (A) (A) (A)
                 (A) (A) (A) (A) (A) (A) (A) (A) (A) (A) (A) (A)
                 (A) (A) (A) (A) (A) (A) (A) (A) (A) (A) (A) (A)
                 (A) (A) (A) (A) (A) (A) (A) (A) (A) (A) (A) (A)
                 (A) (A) (A) (A) (A) (A) (A) (A) (A) (A) (A) (A)
                 (A) (A) (A) (A) (A) (A) (A) (A) (A) (A) (A) (A)
                 (A) (A) (A) (A) (A) (A) (A) (A) (A) (A) (A) (A)
                 (A) (A) (A)
 Beta  Orbitals:
       Occupied  (A) (A) (A) (A) (A) (A) (A) (A) (A) (A) (A) (A)
                 (A) (A) (A) (A) (A) (A) (A) (A) (A) (A) (A) (A)
                 (A) (A) (A) (A) (A) (A) (A) (A) (A) (A) (A) (A)
                 (A) (A) (A) (A) (A) (A) (A) (A)
       Virtual   (A) (A) (A) (A) (A) (A) (A) (A) (A) (A) (A) (A)
                 (A) (A) (A) (A) (A) (A) (A) (A) (A) (A) (A) (A)
                 (A) (A) (A) (A) (A) (A) (A) (A) (A) (A) (A) (A)
                 (A) (A) (A) (A) (A) (A) (A) (A) (A) (A) (A) (A)
                 (A) (A) (A) (A) (A) (A) (A) (A) (A) (A) (A) (A)
                 (A) (A) (A) (A) (A) (A) (A) (A) (A) (A) (A) (A)
                 (A) (A) (A) (A) (A) (A) (A) (A) (A) (A) (A) (A)
                 (A) (A) (A) (A) (A) (A) (A) (A) (A) (A) (A) (A)
                 (A) (A) (A) (A) (A) (A) (A) (A) (A) (A) (A) (A)
                 (A) (A) (A) (A) (A) (A) (A) (A) (A) (A) (A) (A)
                 (A) (A) (A) (A) (A) (A) (A) (A) (A) (A) (A) (A)
                 (A) (A) (A) (A) (A) (A) (A) (A) (A) (A) (A) (A)
                 (A) (A) (A) (A) (A) (A) (A) (A) (A) (A) (A) (A)
                 (A) (A) (A) (A) (A) (A) (A) (A) (A) (A) (A) (A)
                 (A) (A) (A) (A) (A) (A) (A) (A) (A) (A) (A) (A)
                 (A) (A) (A) (A) (A) (A) (A) (A) (A) (A) (A) (A)
                 (A) (A) (A) (A) (A) (A) (A) (A) (A) (A) (A) (A)
                 (A) (A) (A) (A) (A) (A) (A) (A) (A) (A) (A) (A)
                 (A) (A) (A) (A) (A) (A) (A) (A) (A) (A) (A) (A)
                 (A) (A) (A) (A) (A) (A) (A) (A) (A) (A) (A) (A)
                 (A) (A) (A) (A) (A) (A) (A) (A) (A) (A) (A) (A)
                 (A) (A) (A) (A) (A) (A) (A) (A) (A) (A) (A) (A)
                 (A) (A) (A) (A)
 The electronic state of the initial guess is 2-A.
 Initial guess <Sx>= 0.0000 <Sy>= 0.0000 <Sz>= 0.5000 <S**2>= 0.7500 S= 0.5000
 Leave Link  401 at Thu Feb 20 14:52:22 2014, MaxMem= 4026531840 cpu:      13.2
 (Enter /usr/caen/gaussian-09revc/g09/l502.exe)
 UHF open shell SCF:
 Requested convergence on RMS density matrix=1.00D-08 within 128 cycles.
 Requested convergence on MAX density matrix=1.00D-06.
 Requested convergence on             energy=1.00D-06.
 No special actions if energy rises.
 Using DIIS extrapolation, IDIIS=  1040.
 Integral symmetry usage will be decided dynamically.
       256910 words used for storage of precomputed grid.
 Keep R1 and R2 ints in memory in canonical form, NReq=2755661641.
 IEnd=      593068 IEndB=      593068 NGot=  4026531840 MDV=  1287997435
 LenX=  1287997435 LenY=  1287892665
 Symmetry not used in FoFDir.
 MinBra= 0 MaxBra= 2 Meth= 1.
 IRaf=       0 NMat=   1 IRICut=       1 DoRegI=T DoRafI=F ISym2E= 0 JSym2E=0.
 Integral accuracy reduced to 1.0D-05 until final iterations.

 Cycle   1  Pass 0  IDiag  1:
 E= -504.460516096233    
 DIIS: error= 4.28D-02 at cycle   1 NSaved=   1.
 NSaved= 1 IEnMin= 1 EnMin= -504.460516096233     IErMin= 1 ErrMin= 4.28D-02
 ErrMax= 4.28D-02 EMaxC= 1.00D-01 BMatC= 1.54D+00 BMatP= 1.54D+00
 IDIUse=3 WtCom= 5.72D-01 WtEn= 4.28D-01
 Coeff-Com:  0.100D+01
 Coeff-En:   0.100D+01
 Coeff:      0.100D+01
 Gap=     0.200 Goal=   None    Shift=    0.000
 Gap=     0.169 Goal=   None    Shift=    0.000
 GapD=    0.169 DampG=1.000 DampE=0.500 DampFc=0.5000 IDamp=-1.
 Damping current iteration by 5.00D-01
 RMSDP=3.26D-03 MaxDP=1.21D-01              OVMax= 2.36D-01

 Cycle   2  Pass 0  IDiag  1:
 E= -504.618624703198     Delta-E=       -0.158108606965 Rises=F Damp=T
 DIIS: error= 6.81D-03 at cycle   2 NSaved=   2.
 NSaved= 2 IEnMin= 2 EnMin= -504.618624703198     IErMin= 2 ErrMin= 6.81D-03
 ErrMax= 6.81D-03 EMaxC= 1.00D-01 BMatC= 1.04D-01 BMatP= 1.54D+00
 IDIUse=3 WtCom= 9.32D-01 WtEn= 6.81D-02
 Coeff-Com:  0.810D-01 0.919D+00
 Coeff-En:   0.171D+00 0.829D+00
 Coeff:      0.872D-01 0.913D+00
 Gap=     0.271 Goal=   None    Shift=    0.000
 Gap=     0.209 Goal=   None    Shift=    0.000
 RMSDP=8.72D-04 MaxDP=3.20D-02 DE=-1.58D-01 OVMax= 1.82D-01

 Cycle   3  Pass 0  IDiag  1:
 E= -504.821213565739     Delta-E=       -0.202588862541 Rises=F Damp=F
 DIIS: error= 9.60D-03 at cycle   3 NSaved=   3.
 NSaved= 3 IEnMin= 3 EnMin= -504.821213565739     IErMin= 2 ErrMin= 6.81D-03
 ErrMax= 9.60D-03 EMaxC= 1.00D-01 BMatC= 9.01D-02 BMatP= 1.04D-01
 IDIUse=3 WtCom= 9.04D-01 WtEn= 9.60D-02
 Coeff-Com: -0.795D-03 0.478D+00 0.523D+00
 Coeff-En:   0.000D+00 0.000D+00 0.100D+01
 Coeff:     -0.719D-03 0.432D+00 0.569D+00
 Gap=     0.255 Goal=   None    Shift=    0.000
 Gap=     0.146 Goal=   None    Shift=    0.000
 RMSDP=6.18D-04 MaxDP=2.60D-02 DE=-2.03D-01 OVMax= 1.30D-01

 Cycle   4  Pass 0  IDiag  1:
 E= -504.832452438205     Delta-E=       -0.011238872465 Rises=F Damp=F
 DIIS: error= 5.41D-03 at cycle   4 NSaved=   4.
 NSaved= 4 IEnMin= 4 EnMin= -504.832452438205     IErMin= 4 ErrMin= 5.41D-03
 ErrMax= 5.41D-03 EMaxC= 1.00D-01 BMatC= 4.24D-02 BMatP= 9.01D-02
 IDIUse=3 WtCom= 9.46D-01 WtEn= 5.41D-02
 Coeff-Com: -0.153D-01 0.107D+00 0.411D+00 0.497D+00
 Coeff-En:   0.000D+00 0.000D+00 0.334D+00 0.666D+00
 Coeff:     -0.144D-01 0.102D+00 0.407D+00 0.506D+00
 Gap=     0.246 Goal=   None    Shift=    0.000
 Gap=     0.138 Goal=   None    Shift=    0.000
 RMSDP=2.48D-04 MaxDP=1.13D-02 DE=-1.12D-02 OVMax= 3.19D-02

 Cycle   5  Pass 0  IDiag  1:
 E= -504.840681223824     Delta-E=       -0.008228785619 Rises=F Damp=F
 DIIS: error= 9.17D-04 at cycle   5 NSaved=   5.
 NSaved= 5 IEnMin= 5 EnMin= -504.840681223824     IErMin= 5 ErrMin= 9.17D-04
 ErrMax= 9.17D-04 EMaxC= 1.00D-01 BMatC= 1.37D-03 BMatP= 4.24D-02
 IDIUse=3 WtCom= 9.91D-01 WtEn= 9.17D-03
 Coeff-Com: -0.688D-02 0.256D-01 0.186D+00 0.250D+00 0.545D+00
 Coeff-En:   0.000D+00 0.000D+00 0.000D+00 0.000D+00 0.100D+01
 Coeff:     -0.682D-02 0.253D-01 0.185D+00 0.248D+00 0.549D+00
 Gap=     0.242 Goal=   None    Shift=    0.000
 Gap=     0.138 Goal=   None    Shift=    0.000
 RMSDP=6.31D-05 MaxDP=2.73D-03 DE=-8.23D-03 OVMax= 7.94D-03

 Cycle   6  Pass 0  IDiag  1:
 E= -504.840914786782     Delta-E=       -0.000233562958 Rises=F Damp=F
 DIIS: error= 8.30D-04 at cycle   6 NSaved=   6.
 NSaved= 6 IEnMin= 6 EnMin= -504.840914786782     IErMin= 6 ErrMin= 8.30D-04
 ErrMax= 8.30D-04 EMaxC= 1.00D-01 BMatC= 5.79D-04 BMatP= 1.37D-03
 IDIUse=3 WtCom= 9.92D-01 WtEn= 8.30D-03
 Coeff-Com: -0.504D-03-0.840D-02 0.361D-01 0.442D-01 0.385D+00 0.544D+00
 Coeff-En:   0.000D+00 0.000D+00 0.000D+00 0.000D+00 0.205D+00 0.795D+00
 Coeff:     -0.500D-03-0.833D-02 0.358D-01 0.438D-01 0.383D+00 0.546D+00
 Gap=     0.243 Goal=   None    Shift=    0.000
 Gap=     0.140 Goal=   None    Shift=    0.000
 RMSDP=3.30D-05 MaxDP=1.66D-03 DE=-2.34D-04 OVMax= 8.39D-03

 Cycle   7  Pass 0  IDiag  1:
 E= -504.841031226271     Delta-E=       -0.000116439489 Rises=F Damp=F
 DIIS: error= 1.78D-04 at cycle   7 NSaved=   7.
 NSaved= 7 IEnMin= 7 EnMin= -504.841031226271     IErMin= 7 ErrMin= 1.78D-04
 ErrMax= 1.78D-04 EMaxC= 1.00D-01 BMatC= 6.32D-05 BMatP= 5.79D-04
 IDIUse=3 WtCom= 9.98D-01 WtEn= 1.78D-03
 Coeff-Com:  0.126D-02-0.831D-02-0.132D-01-0.312D-01 0.907D-01 0.267D+00
 Coeff-Com:  0.694D+00
 Coeff-En:   0.000D+00 0.000D+00 0.000D+00 0.000D+00 0.000D+00 0.000D+00
 Coeff-En:   0.100D+01
 Coeff:      0.126D-02-0.830D-02-0.132D-01-0.312D-01 0.906D-01 0.266D+00
 Coeff:      0.695D+00
 Gap=     0.243 Goal=   None    Shift=    0.000
 Gap=     0.140 Goal=   None    Shift=    0.000
 RMSDP=1.90D-05 MaxDP=9.41D-04 DE=-1.16D-04 OVMax= 4.99D-03

 Cycle   8  Pass 0  IDiag  1:
 E= -504.841054990457     Delta-E=       -0.000023764187 Rises=F Damp=F
 DIIS: error= 1.07D-04 at cycle   8 NSaved=   8.
 NSaved= 8 IEnMin= 8 EnMin= -504.841054990457     IErMin= 8 ErrMin= 1.07D-04
 ErrMax= 1.07D-04 EMaxC= 1.00D-01 BMatC= 1.60D-05 BMatP= 6.32D-05
 IDIUse=3 WtCom= 9.99D-01 WtEn= 1.07D-03
 Coeff-Com:  0.943D-03-0.100D-02-0.176D-01-0.355D-01-0.888D-01-0.617D-01
 Coeff-Com:  0.362D+00 0.841D+00
 Coeff-En:   0.000D+00 0.000D+00 0.000D+00 0.000D+00 0.000D+00 0.000D+00
 Coeff-En:   0.000D+00 0.100D+01
 Coeff:      0.942D-03-0.100D-02-0.176D-01-0.355D-01-0.887D-01-0.616D-01
 Coeff:      0.362D+00 0.842D+00
 Gap=     0.243 Goal=   None    Shift=    0.000
 Gap=     0.141 Goal=   None    Shift=    0.000
 RMSDP=1.46D-05 MaxDP=6.25D-04 DE=-2.38D-05 OVMax= 5.13D-03

 Cycle   9  Pass 0  IDiag  1:
 E= -504.841064004177     Delta-E=       -0.000009013720 Rises=F Damp=F
 DIIS: error= 3.49D-05 at cycle   9 NSaved=   9.
 NSaved= 9 IEnMin= 9 EnMin= -504.841064004177     IErMin= 9 ErrMin= 3.49D-05
 ErrMax= 3.49D-05 EMaxC= 1.00D-01 BMatC= 9.81D-07 BMatP= 1.60D-05
 IDIUse=1 WtCom= 1.00D+00 WtEn= 0.00D+00
 Coeff-Com: -0.489D-04 0.831D-03-0.563D-03-0.277D-02-0.232D-01-0.366D-01
 Coeff-Com: -0.272D-01 0.139D+00 0.950D+00
 Coeff:     -0.489D-04 0.831D-03-0.563D-03-0.277D-02-0.232D-01-0.366D-01
 Coeff:     -0.272D-01 0.139D+00 0.950D+00
 Gap=     0.243 Goal=   None    Shift=    0.000
 Gap=     0.141 Goal=   None    Shift=    0.000
 RMSDP=5.27D-06 MaxDP=2.72D-04 DE=-9.01D-06 OVMax= 1.91D-03

 Initial convergence to 1.0D-05 achieved.  Increase integral accuracy.
 Cycle  10  Pass 1  IDiag  1:
 E= -504.841244346916     Delta-E=       -0.000180342739 Rises=F Damp=F
 DIIS: error= 1.70D-05 at cycle   1 NSaved=   1.
 NSaved= 1 IEnMin= 1 EnMin= -504.841244346916     IErMin= 1 ErrMin= 1.70D-05
 ErrMax= 1.70D-05 EMaxC= 1.00D-01 BMatC= 8.01D-07 BMatP= 8.01D-07
 IDIUse=1 WtCom= 1.00D+00 WtEn= 0.00D+00
 Coeff-Com:  0.100D+01
 Coeff:      0.100D+01
 Gap=     0.243 Goal=   None    Shift=    0.000
 Gap=     0.141 Goal=   None    Shift=    0.000
 RMSDP=5.27D-06 MaxDP=2.72D-04 DE=-1.80D-04 OVMax= 5.40D-04

 Cycle  11  Pass 1  IDiag  1:
 E= -504.841244670687     Delta-E=       -0.000000323771 Rises=F Damp=F
 DIIS: error= 1.27D-05 at cycle   2 NSaved=   2.
 NSaved= 2 IEnMin= 2 EnMin= -504.841244670687     IErMin= 2 ErrMin= 1.27D-05
 ErrMax= 1.27D-05 EMaxC= 1.00D-01 BMatC= 2.67D-07 BMatP= 8.01D-07
 IDIUse=1 WtCom= 1.00D+00 WtEn= 0.00D+00
 Coeff-Com:  0.295D+00 0.705D+00
 Coeff:      0.295D+00 0.705D+00
 Gap=     0.243 Goal=   None    Shift=    0.000
 Gap=     0.141 Goal=   None    Shift=    0.000
 RMSDP=1.36D-06 MaxDP=4.53D-05 DE=-3.24D-07 OVMax= 3.77D-04

 Cycle  12  Pass 1  IDiag  1:
 E= -504.841244737397     Delta-E=       -0.000000066710 Rises=F Damp=F
 DIIS: error= 9.45D-06 at cycle   3 NSaved=   3.
 NSaved= 3 IEnMin= 3 EnMin= -504.841244737397     IErMin= 3 ErrMin= 9.45D-06
 ErrMax= 9.45D-06 EMaxC= 1.00D-01 BMatC= 1.58D-07 BMatP= 2.67D-07
 IDIUse=1 WtCom= 1.00D+00 WtEn= 0.00D+00
 Coeff-Com: -0.405D-01 0.426D+00 0.615D+00
 Coeff:     -0.405D-01 0.426D+00 0.615D+00
 Gap=     0.243 Goal=   None    Shift=    0.000
 Gap=     0.141 Goal=   None    Shift=    0.000
 RMSDP=7.75D-07 MaxDP=3.03D-05 DE=-6.67D-08 OVMax= 1.60D-04

 Cycle  13  Pass 1  IDiag  1:
 E= -504.841244788240     Delta-E=       -0.000000050842 Rises=F Damp=F
 DIIS: error= 5.57D-06 at cycle   4 NSaved=   4.
 NSaved= 4 IEnMin= 4 EnMin= -504.841244788240     IErMin= 4 ErrMin= 5.57D-06
 ErrMax= 5.57D-06 EMaxC= 1.00D-01 BMatC= 1.96D-08 BMatP= 1.58D-07
 IDIUse=1 WtCom= 1.00D+00 WtEn= 0.00D+00
 Coeff-Com: -0.496D-01 0.157D+00 0.302D+00 0.591D+00
 Coeff:     -0.496D-01 0.157D+00 0.302D+00 0.591D+00
 Gap=     0.243 Goal=   None    Shift=    0.000
 Gap=     0.141 Goal=   None    Shift=    0.000
 RMSDP=4.01D-07 MaxDP=1.74D-05 DE=-5.08D-08 OVMax= 1.49D-04

 Cycle  14  Pass 1  IDiag  1:
 E= -504.841244797669     Delta-E=       -0.000000009429 Rises=F Damp=F
 DIIS: error= 3.53D-06 at cycle   5 NSaved=   5.
 NSaved= 5 IEnMin= 5 EnMin= -504.841244797669     IErMin= 5 ErrMin= 3.53D-06
 ErrMax= 3.53D-06 EMaxC= 1.00D-01 BMatC= 1.11D-08 BMatP= 1.96D-08
 IDIUse=1 WtCom= 1.00D+00 WtEn= 0.00D+00
 Coeff-Com: -0.115D-01-0.117D+00-0.153D+00 0.449D+00 0.832D+00
 Coeff:     -0.115D-01-0.117D+00-0.153D+00 0.449D+00 0.832D+00
 Gap=     0.243 Goal=   None    Shift=    0.000
 Gap=     0.141 Goal=   None    Shift=    0.000
 RMSDP=4.19D-07 MaxDP=2.05D-05 DE=-9.43D-09 OVMax= 1.51D-04

 Cycle  15  Pass 1  IDiag  1:
 E= -504.841244804294     Delta-E=       -0.000000006625 Rises=F Damp=F
 DIIS: error= 1.14D-06 at cycle   6 NSaved=   6.
 NSaved= 6 IEnMin= 6 EnMin= -504.841244804294     IErMin= 6 ErrMin= 1.14D-06
 ErrMax= 1.14D-06 EMaxC= 1.00D-01 BMatC= 2.40D-09 BMatP= 1.11D-08
 IDIUse=1 WtCom= 1.00D+00 WtEn= 0.00D+00
 Coeff-Com:  0.882D-02-0.129D+00-0.214D+00 0.143D+00 0.511D+00 0.681D+00
 Coeff:      0.882D-02-0.129D+00-0.214D+00 0.143D+00 0.511D+00 0.681D+00
 Gap=     0.243 Goal=   None    Shift=    0.000
 Gap=     0.141 Goal=   None    Shift=    0.000
 RMSDP=2.29D-07 MaxDP=1.33D-05 DE=-6.63D-09 OVMax= 7.81D-05

 Cycle  16  Pass 1  IDiag  1:
 E= -504.841244805568     Delta-E=       -0.000000001274 Rises=F Damp=F
 DIIS: error= 7.32D-07 at cycle   7 NSaved=   7.
 NSaved= 7 IEnMin= 7 EnMin= -504.841244805568     IErMin= 7 ErrMin= 7.32D-07
 ErrMax= 7.32D-07 EMaxC= 1.00D-01 BMatC= 6.26D-10 BMatP= 2.40D-09
 IDIUse=1 WtCom= 1.00D+00 WtEn= 0.00D+00
 Coeff-Com:  0.676D-02-0.688D-01-0.121D+00 0.511D-01 0.229D+00 0.449D+00
 Coeff-Com:  0.454D+00
 Coeff:      0.676D-02-0.688D-01-0.121D+00 0.511D-01 0.229D+00 0.449D+00
 Coeff:      0.454D+00
 Gap=     0.243 Goal=   None    Shift=    0.000
 Gap=     0.141 Goal=   None    Shift=    0.000
 RMSDP=4.34D-08 MaxDP=2.08D-06 DE=-1.27D-09 OVMax= 1.38D-05

 Cycle  17  Pass 1  IDiag  1:
 E= -504.841244805711     Delta-E=       -0.000000000143 Rises=F Damp=F
 DIIS: error= 1.54D-07 at cycle   8 NSaved=   8.
 NSaved= 8 IEnMin= 8 EnMin= -504.841244805711     IErMin= 8 ErrMin= 1.54D-07
 ErrMax= 1.54D-07 EMaxC= 1.00D-01 BMatC= 3.28D-11 BMatP= 6.26D-10
 IDIUse=1 WtCom= 1.00D+00 WtEn= 0.00D+00
 Coeff-Com:  0.181D-02-0.123D-01-0.257D-01 0.330D-02 0.225D-01 0.109D+00
 Coeff-Com:  0.202D+00 0.699D+00
 Coeff:      0.181D-02-0.123D-01-0.257D-01 0.330D-02 0.225D-01 0.109D+00
 Coeff:      0.202D+00 0.699D+00
 Gap=     0.243 Goal=   None    Shift=    0.000
 Gap=     0.141 Goal=   None    Shift=    0.000
 RMSDP=1.55D-08 MaxDP=9.29D-07 DE=-1.43D-10 OVMax= 4.75D-06

 Cycle  18  Pass 1  IDiag  1:
 E= -504.841244805722     Delta-E=       -0.000000000011 Rises=F Damp=F
 DIIS: error= 6.52D-08 at cycle   9 NSaved=   9.
 NSaved= 9 IEnMin= 9 EnMin= -504.841244805722     IErMin= 9 ErrMin= 6.52D-08
 ErrMax= 6.52D-08 EMaxC= 1.00D-01 BMatC= 6.60D-12 BMatP= 3.28D-11
 IDIUse=1 WtCom= 1.00D+00 WtEn= 0.00D+00
 Coeff-Com: -0.317D-03 0.607D-02 0.816D-02-0.493D-02-0.302D-01-0.250D-01
 Coeff-Com:  0.172D-01 0.338D+00 0.691D+00
 Coeff:     -0.317D-03 0.607D-02 0.816D-02-0.493D-02-0.302D-01-0.250D-01
 Coeff:      0.172D-01 0.338D+00 0.691D+00
 Gap=     0.243 Goal=   None    Shift=    0.000
 Gap=     0.141 Goal=   None    Shift=    0.000
 RMSDP=5.77D-09 MaxDP=2.02D-07 DE=-1.14D-11 OVMax= 1.57D-06

 SCF Done:  E(UB3LYP) =  -504.841244806     A.U. after   18 cycles
             Convg  =    0.5772D-08             -V/T =  2.0043
 <Sx>= 0.0000 <Sy>= 0.0000 <Sz>= 0.5000 <S**2>= 0.7564 S= 0.5032
 <L.S>= 0.000000000000E+00
 KE= 5.026942087553D+02 PE=-2.526204174115D+03 EE= 8.435891983367D+02
 Annihilation of the first spin contaminant:
 S**2 before annihilation     0.7564,   after     0.7500
 Leave Link  502 at Thu Feb 20 14:55:08 2014, MaxMem= 4026531840 cpu:    1302.0
 (Enter /usr/caen/gaussian-09revc/g09/l801.exe)
 Range of M.O.s used for correlation:     1   312
 NBasis=   312 NAE=    45 NBE=    44 NFC=     0 NFV=     0
 NROrb=    312 NOA=    45 NOB=    44 NVA=   267 NVB=   268
 Leave Link  801 at Thu Feb 20 14:55:09 2014, MaxMem= 4026531840 cpu:       0.3
 (Enter /usr/caen/gaussian-09revc/g09/l1101.exe)
 Using compressed storage, NAtomX=    30.
 Will process  31 centers per pass.
 Leave Link 1101 at Thu Feb 20 14:55:10 2014, MaxMem= 4026531840 cpu:       4.9
 (Enter /usr/caen/gaussian-09revc/g09/l1102.exe)
 Symmetrizing basis deriv contribution to polar:
 IMax=3 JMax=2 DiffMx= 0.00D+00
 Leave Link 1102 at Thu Feb 20 14:55:10 2014, MaxMem= 4026531840 cpu:       1.6
 (Enter /usr/caen/gaussian-09revc/g09/l1110.exe)
 Forming Gx(P) for the SCF density, NAtomX=    30.
 Integral derivatives from FoFDir/FoFCou, PRISM(SPDF).
 Do as many integral derivatives as possible in FoFDir.
 G2DrvN: MDV=    4026531496.
 G2DrvN: will do    31 centers at a time, making    1 passes doing MaxLOS=2.
 Calling FoFCou, ICntrl=  3107 FMM=F I1Cent=   0 AccDes= 0.00D+00.
 FoFCou: FMM=F IPFlag=           0 FMFlag=      100000 FMFlg1=           0
         NFxFlg=           0 DoJE=F BraDBF=F KetDBF=F FulRan=T
         Omega=  0.000000  0.000000  1.000000  0.000000  0.000000 ICntrl=    3107 IOpCl=  1
         NMat0=    1 NMatS0=    1 NMatT0=    0 NMatD0=    1 NMtDS0=    0 NMtDT0=    0
         I1Cent=           0 NGrid=           0.
 Symmetry not used in FoFCou.
 FoFDir/FoFCou used for L=0 through L=2.
 End of G2Drv Frequency-dependent properties file   721 does not exist.
 End of G2Drv Frequency-dependent properties file   722 does not exist.
 Leave Link 1110 at Thu Feb 20 14:58:29 2014, MaxMem= 4026531840 cpu:    1587.4
 (Enter /usr/caen/gaussian-09revc/g09/l1002.exe)
 Minotr:  UHF open shell wavefunction.
          IDoAtm=111111111111111111111111111111
          Direct CPHF calculation.
          Differentiating once with respect to nuclear coordinates.
          Requested convergence is 1.0D-06 RMS, and 1.0D-05 maximum.
          Secondary convergence is 1.0D-12 RMS, and 1.0D-12 maximum.
          NewPWx=T KeepS1=F KeepF1=F KeepIn=T MapXYZ=F SortEE=F KeepMc=T.
          MDV=    4026531536 using IRadAn=       2.
 Generate precomputed XC quadrature information.
          Keep R1 and R2 ints in memory in canonical form, NReq=2738891885.
 Symmetry not used in FoFDir.
 MinBra= 0 MaxBra= 2 Meth= 1.
 IRaf=       0 NMat=   1 IRICut=       1 DoRegI=T DoRafI=F ISym2E= 0 JSym2E=0.
          Solving linear equations simultaneously, MaxMat=       0.
          There are    93 degrees of freedom in the 1st order CPHF.  IDoFFX=5.
     87 vectors produced by pass  0 Test12= 2.56D-10 1.08D-07 XBig12= 2.47D-01 2.31D-01.
 AX will form    87 AO Fock derivatives at one time.
     87 vectors produced by pass  1 Test12= 2.56D-10 1.08D-07 XBig12= 1.84D-02 1.66D-02.
     87 vectors produced by pass  2 Test12= 2.56D-10 1.08D-07 XBig12= 2.19D-04 1.87D-03.
     87 vectors produced by pass  3 Test12= 2.56D-10 1.08D-07 XBig12= 1.68D-06 1.07D-04.
     72 vectors produced by pass  4 Test12= 2.56D-10 1.08D-07 XBig12= 6.44D-09 8.94D-06.
     11 vectors produced by pass  5 Test12= 2.56D-10 1.08D-07 XBig12= 3.19D-11 3.96D-07.
 Inverted reduced A of dimension   431 with in-core refinement.
 End of Minotr Frequency-dependent properties file   721 does not exist.
 End of Minotr Frequency-dependent properties file   722 does not exist.
 Leave Link 1002 at Thu Feb 20 15:03:11 2014, MaxMem= 4026531840 cpu:    2221.1
 (Enter /usr/caen/gaussian-09revc/g09/l601.exe)
 Copying SCF densities to generalized density rwf, IOpCl= 1 IROHF=0.

 **********************************************************************

            Population analysis using the SCF density.

 **********************************************************************

 Orbital symmetries:
 Alpha Orbitals:
       Occupied  (A) (A) (A) (A) (A) (A) (A) (A) (A) (A) (A) (A)
                 (A) (A) (A) (A) (A) (A) (A) (A) (A) (A) (A) (A)
                 (A) (A) (A) (A) (A) (A) (A) (A) (A) (A) (A) (A)
                 (A) (A) (A) (A) (A) (A) (A) (A) (A)
       Virtual   (A) (A) (A) (A) (A) (A) (A) (A) (A) (A) (A) (A)
                 (A) (A) (A) (A) (A) (A) (A) (A) (A) (A) (A) (A)
                 (A) (A) (A) (A) (A) (A) (A) (A) (A) (A) (A) (A)
                 (A) (A) (A) (A) (A) (A) (A) (A) (A) (A) (A) (A)
                 (A) (A) (A) (A) (A) (A) (A) (A) (A) (A) (A) (A)
                 (A) (A) (A) (A) (A) (A) (A) (A) (A) (A) (A) (A)
                 (A) (A) (A) (A) (A) (A) (A) (A) (A) (A) (A) (A)
                 (A) (A) (A) (A) (A) (A) (A) (A) (A) (A) (A) (A)
                 (A) (A) (A) (A) (A) (A) (A) (A) (A) (A) (A) (A)
                 (A) (A) (A) (A) (A) (A) (A) (A) (A) (A) (A) (A)
                 (A) (A) (A) (A) (A) (A) (A) (A) (A) (A) (A) (A)
                 (A) (A) (A) (A) (A) (A) (A) (A) (A) (A) (A) (A)
                 (A) (A) (A) (A) (A) (A) (A) (A) (A) (A) (A) (A)
                 (A) (A) (A) (A) (A) (A) (A) (A) (A) (A) (A) (A)
                 (A) (A) (A) (A) (A) (A) (A) (A) (A) (A) (A) (A)
                 (A) (A) (A) (A) (A) (A) (A) (A) (A) (A) (A) (A)
                 (A) (A) (A) (A) (A) (A) (A) (A) (A) (A) (A) (A)
                 (A) (A) (A) (A) (A) (A) (A) (A) (A) (A) (A) (A)
                 (A) (A) (A) (A) (A) (A) (A) (A) (A) (A) (A) (A)
                 (A) (A) (A) (A) (A) (A) (A) (A) (A) (A) (A) (A)
                 (A) (A) (A) (A) (A) (A) (A) (A) (A) (A) (A) (A)
                 (A) (A) (A) (A) (A) (A) (A) (A) (A) (A) (A) (A)
                 (A) (A) (A)
 Beta  Orbitals:
       Occupied  (A) (A) (A) (A) (A) (A) (A) (A) (A) (A) (A) (A)
                 (A) (A) (A) (A) (A) (A) (A) (A) (A) (A) (A) (A)
                 (A) (A) (A) (A) (A) (A) (A) (A) (A) (A) (A) (A)
                 (A) (A) (A) (A) (A) (A) (A) (A)
       Virtual   (A) (A) (A) (A) (A) (A) (A) (A) (A) (A) (A) (A)
                 (A) (A) (A) (A) (A) (A) (A) (A) (A) (A) (A) (A)
                 (A) (A) (A) (A) (A) (A) (A) (A) (A) (A) (A) (A)
                 (A) (A) (A) (A) (A) (A) (A) (A) (A) (A) (A) (A)
                 (A) (A) (A) (A) (A) (A) (A) (A) (A) (A) (A) (A)
                 (A) (A) (A) (A) (A) (A) (A) (A) (A) (A) (A) (A)
                 (A) (A) (A) (A) (A) (A) (A) (A) (A) (A) (A) (A)
                 (A) (A) (A) (A) (A) (A) (A) (A) (A) (A) (A) (A)
                 (A) (A) (A) (A) (A) (A) (A) (A) (A) (A) (A) (A)
                 (A) (A) (A) (A) (A) (A) (A) (A) (A) (A) (A) (A)
                 (A) (A) (A) (A) (A) (A) (A) (A) (A) (A) (A) (A)
                 (A) (A) (A) (A) (A) (A) (A) (A) (A) (A) (A) (A)
                 (A) (A) (A) (A) (A) (A) (A) (A) (A) (A) (A) (A)
                 (A) (A) (A) (A) (A) (A) (A) (A) (A) (A) (A) (A)
                 (A) (A) (A) (A) (A) (A) (A) (A) (A) (A) (A) (A)
                 (A) (A) (A) (A) (A) (A) (A) (A) (A) (A) (A) (A)
                 (A) (A) (A) (A) (A) (A) (A) (A) (A) (A) (A) (A)
                 (A) (A) (A) (A) (A) (A) (A) (A) (A) (A) (A) (A)
                 (A) (A) (A) (A) (A) (A) (A) (A) (A) (A) (A) (A)
                 (A) (A) (A) (A) (A) (A) (A) (A) (A) (A) (A) (A)
                 (A) (A) (A) (A) (A) (A) (A) (A) (A) (A) (A) (A)
                 (A) (A) (A) (A) (A) (A) (A) (A) (A) (A) (A) (A)
                 (A) (A) (A) (A)
 The electronic state is 2-A.
 Alpha  occ. eigenvalues --  -19.17731 -19.16135 -10.23043 -10.19895 -10.18190
 Alpha  occ. eigenvalues --  -10.17544 -10.17460 -10.17227 -10.17163 -10.15839
 Alpha  occ. eigenvalues --  -10.15837  -1.12338  -0.88836  -0.83137  -0.80739
 Alpha  occ. eigenvalues --   -0.74433  -0.70294  -0.69240  -0.68649  -0.60868
 Alpha  occ. eigenvalues --   -0.58535  -0.56027  -0.52605  -0.48925  -0.46724
 Alpha  occ. eigenvalues --   -0.45528  -0.44880  -0.44476  -0.43799  -0.42640
 Alpha  occ. eigenvalues --   -0.40891  -0.40422  -0.39654  -0.38749  -0.38216
 Alpha  occ. eigenvalues --   -0.37508  -0.36775  -0.36035  -0.35042  -0.33743
 Alpha  occ. eigenvalues --   -0.33087  -0.32307  -0.31367  -0.25833  -0.21258
 Alpha virt. eigenvalues --    0.03078   0.03693   0.05539   0.05759   0.07128
 Alpha virt. eigenvalues --    0.07979   0.08510   0.09012   0.09553   0.09993
 Alpha virt. eigenvalues --    0.10607   0.11794   0.12459   0.13087   0.13922
 Alpha virt. eigenvalues --    0.14345   0.14693   0.15580   0.15787   0.16474
 Alpha virt. eigenvalues --    0.17497   0.19464   0.20271   0.21641   0.22673
 Alpha virt. eigenvalues --    0.23656   0.24625   0.25003   0.26064   0.28832
 Alpha virt. eigenvalues --    0.29235   0.29791   0.31153   0.33609   0.33958
 Alpha virt. eigenvalues --    0.35232   0.35880   0.37616   0.40350   0.41411
 Alpha virt. eigenvalues --    0.42027   0.43619   0.44686   0.47063   0.48038
 Alpha virt. eigenvalues --    0.49183   0.50676   0.51354   0.52840   0.55020
 Alpha virt. eigenvalues --    0.55267   0.55936   0.56414   0.57024   0.57344
 Alpha virt. eigenvalues --    0.57753   0.58098   0.58401   0.58939   0.59322
 Alpha virt. eigenvalues --    0.59855   0.60042   0.60628   0.61580   0.61823
 Alpha virt. eigenvalues --    0.62999   0.63850   0.64566   0.64680   0.66001
 Alpha virt. eigenvalues --    0.66645   0.68312   0.69143   0.70950   0.72691
 Alpha virt. eigenvalues --    0.75961   0.79009   0.82871   0.85439   0.86702
 Alpha virt. eigenvalues --    0.90563   0.90941   0.92304   0.94874   0.97960
 Alpha virt. eigenvalues --    0.98818   1.01577   1.04017   1.04837   1.06760
 Alpha virt. eigenvalues --    1.10211   1.11204   1.14265   1.15754   1.17508
 Alpha virt. eigenvalues --    1.19804   1.23350   1.25735   1.29064   1.31584
 Alpha virt. eigenvalues --    1.33287   1.34900   1.37630   1.38575   1.39499
 Alpha virt. eigenvalues --    1.41694   1.42888   1.43746   1.44223   1.45075
 Alpha virt. eigenvalues --    1.45910   1.47138   1.48096   1.49139   1.49990
 Alpha virt. eigenvalues --    1.50284   1.50497   1.51006   1.52627   1.55190
 Alpha virt. eigenvalues --    1.55361   1.56336   1.56814   1.58639   1.59684
 Alpha virt. eigenvalues --    1.60129   1.60497   1.61518   1.62518   1.63184
 Alpha virt. eigenvalues --    1.66137   1.66394   1.67450   1.68106   1.69296
 Alpha virt. eigenvalues --    1.70195   1.71484   1.73717   1.74770   1.75252
 Alpha virt. eigenvalues --    1.77422   1.77675   1.78920   1.79555   1.83283
 Alpha virt. eigenvalues --    1.84983   1.87137   1.91189   1.92713   1.93541
 Alpha virt. eigenvalues --    1.94189   1.96465   1.97390   2.01723   2.02493
 Alpha virt. eigenvalues --    2.05295   2.07258   2.08384   2.08545   2.10370
 Alpha virt. eigenvalues --    2.10647   2.13115   2.14429   2.14671   2.18963
 Alpha virt. eigenvalues --    2.21697   2.22320   2.25240   2.28091   2.30085
 Alpha virt. eigenvalues --    2.32464   2.33606   2.34901   2.36529   2.37819
 Alpha virt. eigenvalues --    2.40214   2.41355   2.43330   2.44198   2.45540
 Alpha virt. eigenvalues --    2.46994   2.48211   2.48708   2.49164   2.50101
 Alpha virt. eigenvalues --    2.51067   2.51672   2.51999   2.52320   2.53019
 Alpha virt. eigenvalues --    2.53348   2.54576   2.54747   2.57638   2.58951
 Alpha virt. eigenvalues --    2.60129   2.63663   2.63884   2.64261   2.64590
 Alpha virt. eigenvalues --    2.65187   2.67316   2.68622   2.71851   2.72981
 Alpha virt. eigenvalues --    2.74806   2.76015   2.80294   2.82067   2.83924
 Alpha virt. eigenvalues --    2.85636   2.86656   2.89242   2.91147   2.91963
 Alpha virt. eigenvalues --    2.94199   2.96800   2.97968   3.03944   3.06315
 Alpha virt. eigenvalues --    3.10795   3.13303   3.17623   3.20515   3.22745
 Alpha virt. eigenvalues --    3.31411   3.34967   3.37806   3.46443   3.56685
 Alpha virt. eigenvalues --    3.72059   3.74286   3.75383   3.77418   3.77981
 Alpha virt. eigenvalues --    3.79059   3.80804   3.81156   3.81693   3.83068
 Alpha virt. eigenvalues --    3.84926   3.88962   3.91344   3.97108   4.10313
 Alpha virt. eigenvalues --    4.20276   4.29415   4.29950   4.31573   4.36787
 Alpha virt. eigenvalues --    4.76656   4.84027   4.93525   5.16930   5.29547
 Alpha virt. eigenvalues --    5.78780  23.73397  23.78088  23.82075  23.83923
 Alpha virt. eigenvalues --   23.88841  23.92174  23.93049  23.93397  23.94369
 Alpha virt. eigenvalues --   49.80442  49.86013
  Beta  occ. eigenvalues --  -19.17490 -19.14927 -10.22999 -10.19045 -10.18198
  Beta  occ. eigenvalues --  -10.17543 -10.17462 -10.17249 -10.17179 -10.15839
  Beta  occ. eigenvalues --  -10.15837  -1.11088  -0.87239  -0.82077  -0.80510
  Beta  occ. eigenvalues --   -0.73983  -0.70134  -0.69136  -0.68644  -0.60555
  Beta  occ. eigenvalues --   -0.57327  -0.55427  -0.51891  -0.48076  -0.46252
  Beta  occ. eigenvalues --   -0.45379  -0.44515  -0.43933  -0.43641  -0.41756
  Beta  occ. eigenvalues --   -0.40313  -0.39864  -0.39190  -0.38710  -0.37645
  Beta  occ. eigenvalues --   -0.36588  -0.36488  -0.35859  -0.34611  -0.33146
  Beta  occ. eigenvalues --   -0.33040  -0.32044  -0.30086  -0.24395
  Beta virt. eigenvalues --   -0.10325   0.03319   0.03895   0.05748   0.05844
  Beta virt. eigenvalues --    0.07379   0.08074   0.08584   0.09168   0.09601
  Beta virt. eigenvalues --    0.10107   0.10653   0.11928   0.12522   0.13193
  Beta virt. eigenvalues --    0.14017   0.14420   0.14812   0.15716   0.16089
  Beta virt. eigenvalues --    0.16702   0.17940   0.19630   0.20439   0.21808
  Beta virt. eigenvalues --    0.22752   0.23941   0.24910   0.25231   0.26411
  Beta virt. eigenvalues --    0.28998   0.29533   0.29928   0.31348   0.33933
  Beta virt. eigenvalues --    0.34331   0.35331   0.35999   0.37734   0.40574
  Beta virt. eigenvalues --    0.41492   0.42121   0.43839   0.44799   0.47303
  Beta virt. eigenvalues --    0.48242   0.50001   0.50922   0.51917   0.53792
  Beta virt. eigenvalues --    0.55180   0.55477   0.56081   0.56535   0.57064
  Beta virt. eigenvalues --    0.57476   0.57771   0.58189   0.58678   0.58976
  Beta virt. eigenvalues --    0.59426   0.59960   0.60348   0.60700   0.61659
  Beta virt. eigenvalues --    0.62062   0.63073   0.63998   0.64725   0.64878
  Beta virt. eigenvalues --    0.66145   0.66705   0.68431   0.69252   0.71067
  Beta virt. eigenvalues --    0.72890   0.76198   0.79979   0.83746   0.85656
  Beta virt. eigenvalues --    0.87036   0.90730   0.91300   0.92398   0.95147
  Beta virt. eigenvalues --    0.98074   0.99065   1.01939   1.04738   1.05199
  Beta virt. eigenvalues --    1.07069   1.10466   1.11343   1.14440   1.16010
  Beta virt. eigenvalues --    1.17569   1.19928   1.23492   1.25970   1.29314
  Beta virt. eigenvalues --    1.31718   1.33632   1.35284   1.37878   1.38708
  Beta virt. eigenvalues --    1.39662   1.41784   1.43087   1.44056   1.44568
  Beta virt. eigenvalues --    1.45252   1.46076   1.47311   1.48294   1.49489
  Beta virt. eigenvalues --    1.50209   1.50497   1.50731   1.51963   1.52726
  Beta virt. eigenvalues --    1.55334   1.55873   1.56438   1.56986   1.58754
  Beta virt. eigenvalues --    1.59889   1.60318   1.60536   1.61725   1.62813
  Beta virt. eigenvalues --    1.63407   1.66296   1.66572   1.67615   1.68242
  Beta virt. eigenvalues --    1.69531   1.70308   1.71650   1.73819   1.74938
  Beta virt. eigenvalues --    1.75396   1.77641   1.77872   1.78967   1.79698
  Beta virt. eigenvalues --    1.83857   1.85081   1.87417   1.91387   1.93109
  Beta virt. eigenvalues --    1.93666   1.94656   1.96577   1.97675   2.01831
  Beta virt. eigenvalues --    2.02872   2.05594   2.07442   2.08522   2.08730
  Beta virt. eigenvalues --    2.10414   2.11627   2.13303   2.14590   2.15038
  Beta virt. eigenvalues --    2.19043   2.21935   2.22467   2.25456   2.28375
  Beta virt. eigenvalues --    2.30359   2.32687   2.33839   2.34937   2.36598
  Beta virt. eigenvalues --    2.37911   2.40359   2.41727   2.43425   2.44445
  Beta virt. eigenvalues --    2.45764   2.47345   2.48334   2.48886   2.49377
  Beta virt. eigenvalues --    2.50157   2.51288   2.51843   2.52276   2.52450
  Beta virt. eigenvalues --    2.53336   2.53840   2.54663   2.55163   2.58053
  Beta virt. eigenvalues --    2.59049   2.60390   2.63948   2.64059   2.64419
  Beta virt. eigenvalues --    2.64777   2.65329   2.67721   2.68955   2.71996
  Beta virt. eigenvalues --    2.73246   2.75052   2.76073   2.80549   2.82291
  Beta virt. eigenvalues --    2.84166   2.85711   2.86789   2.89245   2.91394
  Beta virt. eigenvalues --    2.92290   2.94373   2.97022   2.99807   3.04407
  Beta virt. eigenvalues --    3.06995   3.10934   3.13662   3.17968   3.20960
  Beta virt. eigenvalues --    3.24476   3.32028   3.35471   3.39527   3.46587
  Beta virt. eigenvalues --    3.57730   3.72724   3.74424   3.75598   3.77423
  Beta virt. eigenvalues --    3.77997   3.79115   3.80906   3.81242   3.81751
  Beta virt. eigenvalues --    3.83329   3.85022   3.91178   3.91495   3.97335
  Beta virt. eigenvalues --    4.10619   4.20505   4.29461   4.30506   4.32168
  Beta virt. eigenvalues --    4.36938   4.77264   4.84864   4.94612   5.20717
  Beta virt. eigenvalues --    5.29995   5.79551  23.73702  23.78758  23.82088
  Beta virt. eigenvalues --   23.83919  23.88849  23.92165  23.93044  23.93387
  Beta virt. eigenvalues --   23.94370  49.81432  49.86464
          Condensed to atoms (all electrons):
              1          2          3          4          5          6
     1  C    4.866829   0.403027   0.400233   0.403447   0.376277  -0.039528
     2  H    0.403027   0.582801  -0.031421  -0.027157  -0.033012  -0.006048
     3  H    0.400233  -0.031421   0.600805  -0.031265  -0.038605   0.008672
     4  H    0.403447  -0.027157  -0.031265   0.581237  -0.032953  -0.005961
     5  C    0.376277  -0.033012  -0.038605  -0.032953   5.041793   0.414933
     6  H   -0.039528  -0.006048   0.008672  -0.005961   0.414933   0.577402
     7  C   -0.065665  -0.005987  -0.006594   0.008503   0.355460  -0.045894
     8  H   -0.007221   0.004433  -0.000600   0.000156  -0.039414  -0.004377
     9  H   -0.004683  -0.000556   0.004826  -0.000274  -0.037348   0.008918
    10  C   -0.000176  -0.000014  -0.000029   0.000011   0.008413   0.000818
    11  H   -0.000001   0.000002  -0.000002   0.000000  -0.000444  -0.000119
    12  H   -0.000061  -0.000017   0.000012   0.000001  -0.000235   0.000007
    13  C    0.000005   0.000000   0.000000   0.000000  -0.000267  -0.000024
    14  H   -0.000005   0.000000  -0.000001   0.000000  -0.000059   0.000159
    15  C    0.000000   0.000000   0.000000   0.000000   0.000005   0.000000
    16  H    0.000000   0.000000   0.000000   0.000000   0.000000   0.000000
    17  H    0.000000   0.000000   0.000000   0.000000   0.000000   0.000000
    18  H    0.000000   0.000000   0.000000   0.000000  -0.000001  -0.000001
    19  C   -0.067256   0.008337  -0.006190  -0.005242   0.358854  -0.041688
    20  H   -0.005129  -0.000197   0.005172  -0.000636  -0.041432   0.008796
    21  H   -0.006193   0.000057  -0.000573   0.003998  -0.031601  -0.005876
    22  H    0.007968  -0.000498  -0.000192   0.000027  -0.029989  -0.005572
    23  C    0.000000   0.000000   0.000000   0.000000   0.000005  -0.000002
    24  H    0.000000   0.000000   0.000000   0.000000  -0.000001   0.000000
    25  H    0.000000   0.000000   0.000000   0.000000   0.000000   0.000000
    26  H    0.000000   0.000000   0.000000   0.000000  -0.000002   0.000000
    27  C    0.007133   0.000140  -0.000098  -0.000417  -0.052016  -0.010996
    28  H   -0.000357  -0.000047   0.000021   0.000004  -0.013445  -0.000100
    29  O   -0.000105  -0.000029  -0.000012  -0.000006   0.000503   0.013237
    30  O    0.000005   0.000000   0.000000   0.000000  -0.000129  -0.000513
              7          8          9         10         11         12
     1  C   -0.065665  -0.007221  -0.004683  -0.000176  -0.000001  -0.000061
     2  H   -0.005987   0.004433  -0.000556  -0.000014   0.000002  -0.000017
     3  H   -0.006594  -0.000600   0.004826  -0.000029  -0.000002   0.000012
     4  H    0.008503   0.000156  -0.000274   0.000011   0.000000   0.000001
     5  C    0.355460  -0.039414  -0.037348   0.008413  -0.000444  -0.000235
     6  H   -0.045894  -0.004377   0.008918   0.000818  -0.000119   0.000007
     7  C    5.021848   0.400542   0.397438  -0.065424  -0.002513  -0.007239
     8  H    0.400542   0.576802  -0.028917  -0.011918   0.000344   0.006868
     9  H    0.397438  -0.028917   0.593529  -0.000716   0.001849  -0.000194
    10  C   -0.065424  -0.011918  -0.000716   5.021884   0.381627   0.407505
    11  H   -0.002513   0.000344   0.001849   0.381627   0.589831  -0.025299
    12  H   -0.007239   0.006868  -0.000194   0.407505  -0.025299   0.568931
    13  C    0.008391  -0.000108  -0.000022   0.323984  -0.036225  -0.043047
    14  H   -0.003244   0.000092   0.000252  -0.012631   0.003497   0.001144
    15  C   -0.000120  -0.000034  -0.000022  -0.058478  -0.000525  -0.006715
    16  H   -0.000004  -0.000010   0.000004  -0.005416   0.002326   0.000449
    17  H    0.000015   0.000000   0.000000   0.008001  -0.000554   0.000375
    18  H   -0.000088   0.000036  -0.000007  -0.005894  -0.000155   0.003536
    19  C   -0.068438   0.008260  -0.007734  -0.000383   0.000081   0.000010
    20  H   -0.005932  -0.000061   0.005684  -0.000132   0.000016   0.000010
    21  H    0.008337  -0.000369  -0.000135   0.000003   0.000000   0.000003
    22  H   -0.006452  -0.000350  -0.000218   0.000270   0.000015  -0.000042
    23  C   -0.000161   0.000000  -0.000014  -0.060778  -0.005326   0.006293
    24  H    0.000026   0.000001   0.000000   0.007477   0.000082  -0.000428
    25  H    0.000016   0.000005  -0.000006  -0.007575   0.005107  -0.000017
    26  H    0.000050   0.000011  -0.000021  -0.005221  -0.000758   0.000079
    27  C    0.330698  -0.035006  -0.039944   0.349924  -0.033621  -0.039347
    28  H   -0.028624   0.010204  -0.003113  -0.060653  -0.001591   0.009110
    29  O   -0.043342   0.003311   0.003656  -0.053233   0.004603   0.003258
    30  O    0.008052  -0.000226  -0.000286  -0.017923  -0.000758  -0.000482
             13         14         15         16         17         18
     1  C    0.000005  -0.000005   0.000000   0.000000   0.000000   0.000000
     2  H    0.000000   0.000000   0.000000   0.000000   0.000000   0.000000
     3  H    0.000000  -0.000001   0.000000   0.000000   0.000000   0.000000
     4  H    0.000000   0.000000   0.000000   0.000000   0.000000   0.000000
     5  C   -0.000267  -0.000059   0.000005   0.000000   0.000000  -0.000001
     6  H   -0.000024   0.000159   0.000000   0.000000   0.000000  -0.000001
     7  C    0.008391  -0.003244  -0.000120  -0.000004   0.000015  -0.000088
     8  H   -0.000108   0.000092  -0.000034  -0.000010   0.000000   0.000036
     9  H   -0.000022   0.000252  -0.000022   0.000004   0.000000  -0.000007
    10  C    0.323984  -0.012631  -0.058478  -0.005416   0.008001  -0.005894
    11  H   -0.036225   0.003497  -0.000525   0.002326  -0.000554  -0.000155
    12  H   -0.043047   0.001144  -0.006715   0.000449   0.000375   0.003536
    13  C    5.435012   0.231440   0.361557  -0.039327  -0.036677  -0.034656
    14  H    0.231440   0.480511  -0.020782   0.004476  -0.004209  -0.003855
    15  C    0.361557  -0.020782   4.824356   0.389559   0.407109   0.405135
    16  H   -0.039327   0.004476   0.389559   0.606461  -0.032250  -0.032144
    17  H   -0.036677  -0.004209   0.407109  -0.032250   0.570113  -0.024022
    18  H   -0.034656  -0.003855   0.405135  -0.032144  -0.024022   0.561211
    19  C    0.000003   0.000004   0.000000   0.000000   0.000000   0.000000
    20  H    0.000000  -0.000002   0.000000   0.000000   0.000000   0.000000
    21  H   -0.000001   0.000000   0.000000   0.000000   0.000000   0.000000
    22  H    0.000064   0.000008   0.000000   0.000000   0.000000   0.000000
    23  C    0.344222  -0.021966  -0.056094  -0.005266  -0.004743   0.007565
    24  H   -0.034869  -0.004654  -0.005425  -0.000928   0.003880   0.000128
    25  H   -0.038355   0.004205  -0.004885   0.005855  -0.000981  -0.000457
    26  H   -0.033989  -0.005007   0.007588  -0.000550   0.000179  -0.000377
    27  C   -0.051778  -0.009548   0.005745  -0.000352  -0.000324  -0.000103
    28  H   -0.005608  -0.000622  -0.000021  -0.000088   0.000011   0.000091
    29  O    0.003587  -0.038234  -0.000363  -0.000056  -0.000063   0.001522
[...]
 851,-0.00387271,-0.00283440,-0.00041061,0.00011241,-0.00015491,0.00139
 509,-0.00043973,0.00025106,0.02051282,-0.00975033,0.01388827,-0.000535
 01,-0.00011289,0.00079599,0.00071809,0.00086031,0.00113266,-0.00003021
 ,-0.00002299,-0.00007811,-0.00065928,-0.00038752,-0.00058143,-0.000184
 01,0.00046730,-0.00014439,0.00002841,-0.00001177,-0.00001903,0.0000036
 1,-0.00000426,0.00001010,0.00000912,0.00001824,0.00000416,-0.00000474,
 -0.00000053,-0.00001038,0.07689815,-0.08961695,0.05413419,-0.08847393,
 0.09624072,0.00000134,-0.00000273,-0.00000582,0.00000095,0.00000257,0.
 00000164,-0.00000094,0.00000119,-0.00000259,-0.00000455,-0.00000190,0.
 00000216,0.00002161,0.00000886,0.00002222,0.00001271,0.00000117,-0.000
 00884,0.00006327,0.00002719,-0.00007680,-0.00001507,0.00002846,0.00002
 263,-0.00001588,-0.00000086,-0.00000574,0.00041883,-0.00320203,-0.0011
 2949,0.00017559,-0.00002957,0.00027052,0.00083283,-0.00033494,0.000404
 71,0.01380871,-0.00665239,0.00758796,-0.00002796,-0.00045920,0.0010461
 8,0.00039051,0.00043995,0.00029036,-0.00011340,0.00008543,-0.00008053,
 -0.00011338,0.00005771,0.00015605,0.00019741,0.00014412,0.00006082,0.0
 0000567,-0.00000350,-0.00000702,0.00000523,-0.00000133,0.00000025,-0.0
 0000876,0.00000285,0.00000619,0.00000105,0.00001283,-0.00000401,-0.104
 22070,0.05536256,-0.11686032,0.11224978,-0.05783928,0.12590210,-0.0000
 0302,-0.00000905,0.00000339,0.00000205,-0.00000049,0.00000066,-0.00000
 621,0.00000423,-0.00000973,-0.00000809,0.00000028,0.00000095,0.0000089
 4,0.00001562,-0.00000119,0.00003059,0.00000190,-0.00002612,0.00010378,
 0.00004353,0.00003872,-0.00003272,0.00002129,0.00000666,-0.00005428,0.
 00001464,-0.00005052,0.00113333,-0.00045334,0.00067613,-0.00045859,0.0
 0016988,-0.00072435,0.00006907,0.00003907,-0.00033123,-0.00581456,0.00
 009920,0.01137176,-0.00009965,0.00109835,0.00037219,0.00010616,-0.0003
 2083,-0.00044686,0.00042781,0.00024399,-0.00006491,0.00008718,0.000082
 04,-0.00011464,-0.00008547,0.00006218,-0.00007342,0.00001869,-0.000014
 95,0.00001909,-0.00001299,0.00000534,-0.00001917,-0.00001013,-0.000000
 10,-0.00000441,0.00000179,0.00001864,0.00000671,-0.07300902,-0.0217124
 8,0.07577577,0.00897385,0.00556696,-0.02253172,0.07674180,-0.00000077,
 0.00001117,0.00002150,-0.00000375,0.00000078,-0.00000323,0.00000764,-0
 .00000570,0.00000739,0.00000695,0.00000016,-0.00000333,-0.00002516,-0.
 00000809,-0.00006268,-0.00004126,-0.00000492,0.00003922,-0.00004964,0.
 00006618,0.00016308,-0.00001861,0.00001964,-0.00003092,0.00006001,-0.0
 0002152,0.00004361,-0.00092183,0.00082772,-0.00044302,0.00002028,-0.00
 000973,0.00077041,-0.00023153,0.00002509,0.00022374,0.00999368,0.00260
 743,-0.02493118,0.00219880,-0.00106637,-0.00285372,0.00032382,0.001557
 62,0.00081199,-0.00029252,-0.00046387,0.00034178,-0.00003803,-0.000093
 75,-0.00003169,0.00010824,0.00018438,0.00039402,0.00001185,-0.00001647
 ,0.00001290,0.00000069,0.00000596,0.00000886,0.00000611,0.00000412,-0.
 00000265,-0.00000256,-0.00001209,-0.00000790,-0.01905975,-0.05730372,0
 .05036858,-0.00501099,-0.00367291,0.01133673,0.02043960,0.06295431,0.0
 0000800,0.00002476,-0.00000043,-0.00000597,-0.00000177,-0.00000221,0.0
 0000660,-0.00000668,0.00001503,0.00002069,-0.00000070,-0.00000431,-0.0
 0002680,-0.00003516,-0.00001351,-0.00003429,0.00000075,0.00003547,-0.0
 0004929,0.00004678,0.00006722,0.00000546,0.00000195,-0.00002301,0.0000
 6148,-0.00001746,0.00004751,-0.00089095,0.00006054,0.00030141,0.000590
 68,-0.00011643,0.00064590,0.00003205,-0.00009514,0.00019670,0.00694477
 ,-0.00202633,-0.01634599,0.00032676,-0.00220173,0.00026882,0.00022364,
 0.00072146,0.00107811,-0.00057659,-0.00091025,0.00005161,0.00003783,0.
 00004354,-0.00015375,-0.00007541,-0.00017601,0.00033206,-0.00000543,0.
 00000624,-0.00001603,0.00000717,-0.00000373,0.00002188,0.00001907,0.00
 000657,-0.00000109,-0.00000248,-0.00002817,-0.00000965,0.07510234,0.05
 687849,-0.24714476,0.00575129,0.00434841,-0.01549141,-0.08599561,-0.05
 684718,0.27279456,0.00001457,0.00002191,-0.00000911,-0.00000512,0.0000
 0319,0.00000245,-0.00000103,-0.00000306,0.00000388,0.00001730,-0.00000
 153,-0.00000197,-0.00000410,-0.00003867,0.00002302,-0.00000445,0.00000
 384,0.00000250,-0.00000248,-0.00000569,-0.00011027,0.00001455,-0.00000
 709,0.00000293,-0.00000674,0.00000372,0.00000402,0.00038595,-0.0000121
 6,-0.00049274,0.00008877,-0.00006868,-0.00000917,0.00015711,-0.0001949
 2,0.00005294,0.01006812,0.00781647,0.00087688,0.00040100,-0.00005019,-
 0.00037119,-0.00042570,0.00185465,0.00119993,-0.00007194,0.00003495,0.
 00000982,0.00025290,0.00007216,0.00030030,0.00057119,0.00037790,0.0003
 3266,0.00001305,0.00001043,-0.00001710,0.00000008,-0.00000349,0.000006
 87,0.00001899,0.00000224,0.00000014,-0.00001207,-0.00001773,0.00000411
 ,-0.18432937,-0.12825315,-0.02040903,-0.01669823,-0.01629923,-0.001041
 88,-0.00809253,-0.00646982,-0.00122899,0.19820120,-0.00000528,-0.00001
 381,0.00001797,0.00000201,0.00000819,-0.00000061,0.00000553,-0.0000017
 2,-0.00000098,-0.00001662,-0.00000221,0.00000146,0.00003385,0.00000609
 ,-0.00005001,-0.00001260,-0.00000331,0.00001977,0.00017642,0.00022981,
 0.00011792,-0.00012787,0.00007752,-0.00000760,0.00002897,-0.00002955,0
 .00001686,-0.00028574,0.00094191,-0.00007200,0.00009330,-0.00024531,0.
 00049976,-0.00019993,0.00026390,0.00014105,-0.02023682,-0.01786307,-0.
 00230568,-0.00047945,-0.00028213,-0.00000080,0.00376132,-0.00322050,-0
 .00284929,0.00019436,0.00027955,0.00023410,-0.00000655,0.00024945,-0.0
 0001463,-0.00116728,-0.00108354,-0.00039274,0.00000095,-0.00003587,0.0
 0001551,0.00001647,0.00000005,0.00000939,-0.00002996,0.00000564,0.0000
 0803,0.00000523,0.00004027,-0.00002596,-0.12748222,-0.16901591,-0.0177
 8119,0.00964637,0.01020089,0.00064315,-0.00526204,-0.00545749,-0.00033
 665,0.14054362,0.18456385,-0.00000117,-0.00000844,0.00000371,0.0000017
 2,0.00000116,-0.00000033,-0.00000401,0.00000419,-0.00000768,-0.0000077
 9,-0.00000102,0.00000147,0.00001962,0.00000572,-0.00001544,0.00002210,
 -0.00000580,-0.00001793,0.00012405,0.00010748,0.00005763,-0.00005303,0
 .00003022,-0.00000705,-0.00004409,0.00001675,-0.00004224,0.00003903,0.
 00062277,0.00024305,0.00003637,0.00028557,-0.00010473,-0.00008963,0.00
 005758,-0.00016927,-0.01226347,-0.01088935,-0.00388202,-0.00094407,-0.
 00077316,0.00047342,0.00182664,-0.00229297,-0.00098868,-0.00015191,-0.
 00039800,0.00014296,0.00039934,0.00024043,0.00017492,-0.00045562,-0.00
 098883,0.00015990,0.00002930,-0.00002940,0.00001991,-0.00001971,0.0000
 1487,-0.00002315,-0.00000868,-0.00000110,-0.00000652,0.00000658,0.0000
 2619,0.00001375,-0.01923042,-0.01652751,-0.04723966,-0.01188912,-0.012
 44326,-0.00213392,0.02178857,0.02046225,0.00343870,0.02017931,0.022206
 44,0.04964298,-0.00237978,-0.00277201,0.00204290,0.00012139,0.00014898
 ,0.00014574,0.00005513,-0.00014883,-0.00015448,-0.00045868,0.00096418,
 -0.00033705,-0.02790196,0.01001145,-0.00375016,0.00123368,0.00062730,-
 0.00068919,-0.15044169,0.04550517,-0.01095960,-0.00115724,0.00136444,-
 0.00054142,-0.00126498,0.00108079,0.00045528,-0.10924435,-0.03044553,0
 .01965223,0.00140284,-0.00044127,-0.00184587,-0.00251658,-0.00231510,0
 .00164713,-0.03486075,-0.00801859,0.00430258,-0.00196481,0.00240275,-0
 .00627701,-0.00183029,0.00249218,-0.00084228,0.00038209,0.00010583,0.0
 0039808,-0.00020522,-0.00060554,0.00006715,0.00015375,-0.00004396,0.00
 005812,0.00070212,-0.00056041,-0.00004660,-0.00023200,-0.00004791,-0.0
 0007243,0.00033106,0.00086430,0.00006383,-0.00121350,-0.00007583,-0.00
 035304,0.00090339,0.00096680,-0.00214399,0.00033450,-0.00021633,0.0000
 5456,0.00022464,-0.00090850,-0.00027428,-0.00002176,-0.00009159,0.0000
 9162,0.47187253,-0.00279620,-0.00211643,0.00152477,-0.00004903,0.00018
 927,0.00025176,0.00019791,-0.00017959,0.00001576,-0.00122690,0.0009638
 5,0.00020066,-0.00842497,0.01066774,-0.00739804,0.00022049,0.00033789,
 0.00050729,0.04047816,-0.10870404,0.00422003,0.02987065,-0.01945199,0.
 00828569,-0.00255858,-0.00087702,-0.00112918,-0.02006835,-0.10013219,0
 .01404376,0.00529592,0.00143227,-0.00415166,-0.02878303,-0.01769062,0.
 01509365,0.00075982,0.00797244,-0.00665279,0.00260453,0.00319826,-0.00
 228102,0.00157520,-0.00099149,0.00043425,0.00027496,0.00004698,-0.0001
 7701,0.00048194,0.00073504,0.00045469,0.00001144,0.00004139,0.00029844
 ,-0.00145815,0.00159105,-0.00012213,0.00009164,-0.00007386,0.00001748,
 0.00032637,-0.00075053,-0.00016452,-0.00052810,-0.00139741,0.00030467,
 0.00178090,0.00083384,0.00012368,-0.00013900,-0.00087240,0.00000401,-0
 .00021515,-0.00041253,0.00008223,0.00037547,-0.00102502,-0.00048664,-0
 .03231491,0.60307224,0.00263609,0.00186498,-0.00223822,-0.00024223,0.0
 0021268,0.00007573,-0.00000355,0.00007615,0.00019403,0.00133182,-0.000
 36037,0.00052490,0.00832628,-0.00976771,0.00458378,0.00136902,-0.00028
 986,-0.00128028,-0.01616511,0.00854169,-0.07869745,0.01100829,-0.00565
 770,0.00191564,-0.02840370,0.01701953,-0.00900019,0.01094242,0.0154368
 9,-0.06725634,0.02358461,0.01446392,-0.01526092,-0.00462341,-0.0028186
 5,0.00053764,-0.00167968,-0.01683721,0.02010026,0.00628343,0.00248668,
 -0.00565786,-0.00383621,0.00266164,-0.00614646,0.00140982,0.00090149,-
 0.00000978,-0.00141800,-0.00088962,-0.00053275,-0.00011329,-0.00040501
 ,0.00036662,0.00002322,0.00040621,-0.00033478,-0.00011602,-0.00005968,
 -0.00013110,0.00044650,-0.00002890,0.00000681,-0.00014316,-0.00033675,
 0.00057862,0.00053094,0.00182073,-0.00296060,-0.00064203,0.00031883,0.
 00022309,0.00051536,-0.00073603,-0.00048739,0.00040048,-0.00050092,0.0
 0028101,0.01311829,0.03484434,0.39965221,0.00002387,-0.00009562,-0.000
 07939,0.00014665,-0.00023014,-0.00009296,0.00006231,0.00002104,0.00001
 491,-0.00007564,-0.00013241,0.00001468,0.00135358,0.00031298,0.0002690
 6,-0.00005389,-0.00008710,0.00009200,0.00107130,0.02691639,0.00707196,
 -0.00444373,0.00276371,-0.00117414,0.00076902,-0.00070535,-0.00021672,
 -0.00387880,-0.02587995,-0.00279035,0.00134770,0.00088041,-0.00030107,
 -0.00384487,-0.00216569,0.00203204,0.00177791,-0.00085093,-0.00007666,
 -0.00085194,-0.00076757,0.00036648,-0.00013066,0.00007032,-0.00014165,
 0.00011015,0.00002734,-0.00008967,-0.00010949,0.00007823,-0.00007824,0
 .00003300,0.00006855,0.00010415,-0.00118656,0.00037682,-0.00019659,0.0
 0005572,-0.00005337,0.00000225,0.00032306,-0.00023604,0.00007134,-0.00
 122494,-0.00128210,0.00015782,-0.00059017,-0.00053621,0.00008922,0.000
 14899,0.00016784,-0.00001952,0.00015803,0.00016077,0.00005193,-0.00026
 642,0.00066700,0.00038463,-0.04973834,-0.00660629,-0.00172511,0.056581
 18,0.00013041,0.00004687,-0.00008754,-0.00003561,0.00018045,0.00006281
 ,-0.00004270,-0.00001441,0.00000092,0.00010625,0.00004085,-0.00002506,
 -0.00074070,-0.00049144,0.00014769,0.00004714,0.00003316,-0.00003670,0
 .00094585,-0.01258439,-0.00285897,0.00168154,-0.00006595,0.00097975,0.
 00026520,0.00010507,0.00040744,-0.00247154,-0.01358701,-0.00142798,0.0
 0001663,0.00039396,0.00049094,-0.00168920,0.00004117,0.00127991,0.0012
 2851,-0.00009424,-0.00071817,-0.00097861,-0.00081214,0.00058001,-0.000
 20582,0.00002288,0.00010975,0.00000366,-0.00004373,-0.00000606,-0.0000
 6117,0.00000883,-0.00006806,0.00002468,0.00009680,0.00006549,-0.000589
 24,-0.00061036,0.00027610,0.00011159,0.00002979,-0.00001328,-0.0003166
 6,0.00038897,0.00007960,-0.00120115,0.00059342,-0.00023528,-0.00032554
 ,-0.00043943,0.00013663,0.00009677,0.00021488,0.00005377,0.00002055,0.
 00019100,0.00005626,0.00009908,0.00063057,0.00002953,-0.00737239,-0.28
 954838,-0.05103447,0.00948313,0.31365804,0.00006764,0.00009565,-0.0000
 3939,0.00002529,-0.00001903,-0.00002862,0.00000074,0.00000777,-0.00000
 087,-0.00000448,-0.00006543,-0.00000367,0.00023100,-0.00066330,0.00003
 083,-0.00015665,-0.00005388,0.00001759,0.00099542,0.00832463,0.0034978
 4,-0.00178125,0.00097218,0.00013810,0.00056797,-0.00035604,0.00024835,
 0.00160656,0.01446036,0.00365081,-0.00074762,-0.00029487,0.00073046,0.
 00283487,0.00155325,-0.00051095,-0.00034551,0.00009245,-0.00105660,-0.
 00106993,-0.00058819,0.00079193,0.00009167,-0.00011345,0.00047924,-0.0
 0017847,-0.00011121,0.00000698,0.00008144,-0.00004183,0.00001486,-0.00
 001028,-0.00001840,-0.00010279,0.00003361,-0.00031889,0.00024302,-0.00
 015696,0.00005170,-0.00011907,-0.00008877,0.00004702,-0.00007901,-0.00
 005930,0.00022298,0.00030005,0.00011042,-0.00005561,0.00012484,-0.0000
 2116,-0.00006794,-0.00002752,-0.00001670,0.00007553,0.00003243,0.00016
 500,-0.00013222,0.00005890,-0.00248167,-0.04235164,-0.05324286,0.00084
 802,0.05791686,0.07372205,0.00030997,-0.00004973,-0.00085680,0.0000197
 7,0.00009194,0.00005589,-0.00018657,0.00016561,-0.00008078,-0.00002839
 ,-0.00007456,0.00014534,-0.00043127,-0.00041760,0.00082430,-0.00092100
 ,-0.00018464,-0.00167952,-0.00920689,0.00115421,-0.03453983,0.00119065
 ,-0.00077796,0.00031066,-0.00503116,0.00234280,-0.00163551,-0.00657780
 ,0.00249262,0.02237961,-0.00208724,-0.00147119,0.00291764,0.00204882,0
 .00089705,-0.00019908,0.00953734,0.01051874,-0.02336413,-0.05217404,0.
 00556849,0.02589335,-0.00034622,-0.00163333,0.00543090,-0.00153970,-0.
 00130345,-0.00044709,0.00027317,0.00024004,-0.00023076,-0.00004250,-0.
 00026349,-0.00040421,0.00014658,0.00020934,-0.00012743,-0.00002219,0.0
 0001221,-0.00019088,-0.00011893,-0.00004234,0.00008671,0.00017493,0.00
 023577,0.00027016,-0.00182313,-0.00376337,0.00562986,0.00019361,0.0000
 6448,-0.00043055,-0.00071268,0.00195862,0.00073736,0.00011065,0.000645
 31,-0.00005810,-0.05876701,0.01118356,-0.00209599,0.00019262,0.0009743
 0,-0.00620326,0.24423031,0.00003572,0.00005469,0.00007494,-0.00004370,
 0.00004173,-0.00000022,-0.00004533,-0.00000850,-0.00002476,0.00007631,
 0.00000850,-0.00008740,-0.00094652,0.00048371,-0.00009640,-0.00025818,
 0.00001964,0.00003933,0.00492694,0.00010415,0.02071908,-0.00086440,0.0
 0078817,0.00064634,0.00372812,-0.00158950,0.00177325,0.00511474,0.0054
 8493,0.01574537,-0.00481389,-0.00044178,0.00251134,0.00173234,0.002120
 44,-0.00013880,-0.00324419,-0.00335811,0.01794004,0.01949394,0.0108348
 2,-0.02133915,0.00084231,0.00155681,-0.00457035,0.00123177,0.00096858,
 0.00045735,-0.00025103,-0.00006911,0.00020288,0.00030672,0.00038230,0.
 00029385,0.00025001,-0.00037815,0.00023908,0.00007984,-0.00002293,0.00
 011755,-0.00008038,0.00022145,0.00003378,0.00003139,0.00026380,-0.0001
 4546,0.00021294,0.00147309,-0.00193571,-0.00008313,0.00011255,0.000168
 83,0.00028044,-0.00069989,-0.00068908,-0.00009515,-0.00015336,0.000196
 56,0.00864919,-0.08470135,-0.02420417,-0.00037090,-0.00161479,-0.03832
 529,-0.12692085,0.18352167,0.00031364,0.00022894,0.00008245,-0.0000046
 5,0.00003853,-0.00001848,0.00002689,-0.00002239,0.00006435,0.00001893,
 -0.00008735,-0.00000485,0.00125569,-0.00033961,0.00024916,-0.00020869,
 0.00017025,0.00037899,-0.01294769,0.00551702,-0.01488866,0.00061478,-0
 .00067946,0.00102607,0.00029384,-0.00034933,0.00115863,0.01308514,0.00
 145640,-0.04648590,0.00632469,0.00230088,-0.00227196,-0.00135963,-0.00
 051124,0.00267756,-0.00327750,0.00621078,-0.01761262,-0.00344808,-0.01
 215695,0.01420218,0.00021709,-0.00073010,0.00383885,-0.00098426,-0.000
 92528,0.00007126,0.00044388,0.00016650,0.00002207,0.00004812,0.0001010
 8,-0.00019815,-0.00030917,-0.00038950,0.00009048,0.00022099,-0.0000508
 1,0.00013248,-0.00026181,0.00012515,0.00006547,0.00005504,0.00024426,-
 0.00027395,0.00005605,-0.00155067,0.00097769,0.00032704,-0.00010214,0.
 00006308,-0.00033976,0.00047925,0.00075166,0.00001181,0.00052050,-0.00
 009204,0.02717369,-0.05003259,-0.16813499,-0.00454655,-0.00803424,-0.0
 3367279,0.02081185,0.01185756,0.32541529,-0.00017246,-0.00004495,0.000
 28522,-0.00000028,-0.00001860,-0.00003521,0.00013949,-0.00008861,0.000
 16918,-0.00003562,0.00002765,0.00001247,0.00061897,0.00022143,-0.00122
 978,-0.00037920,0.00014105,0.00060700,0.00212007,-0.00067624,-0.005568
 86,0.00005754,-0.00001076,-0.00012115,-0.00110243,0.00090301,0.0004064
 7,0.01100226,0.00242473,-0.00133773,-0.00441536,0.00030160,0.00124944,
 -0.00077303,0.00038943,-0.00104736,-0.04056098,-0.04088629,0.10677186,
 0.03619833,0.02383772,-0.06956023,0.00430203,0.00574837,-0.01016764,0.
 00158584,0.00126025,0.00106728,-0.00082807,-0.00026257,0.00017503,0.00
 012411,-0.00006817,0.00021768,-0.00025890,0.00010395,-0.00002105,0.000
 09121,-0.00002325,0.00018877,0.00005805,-0.00008302,-0.00002312,0.0000
 3601,-0.00032036,-0.00018309,0.00382782,0.00299767,-0.01056912,-0.0006
 2591,0.00051871,0.00030428,0.00031222,-0.00222234,-0.00076100,-0.00037
 350,-0.00041678,0.00027193,-0.03351818,0.00963967,-0.02071908,0.002240
 36,0.00079503,0.00566232,-0.11841169,0.09102494,-0.04361140,0.13874128
 ,0.00009543,0.00003223,-0.00027230,-0.00001961,0.00003750,0.00002390,-
 0.00012143,0.00007178,-0.00005003,0.00003908,-0.00002438,-0.00000107,-
 0.00027331,-0.00015785,0.00054418,0.00031343,-0.00006852,-0.00047153,-
 0.00191107,0.00211742,0.00151511,-0.00067831,0.00064803,-0.00027138,0.
 00065851,0.00020005,-0.00039971,-0.00161648,0.00025083,-0.00267320,0.0
 0152145,0.00016711,-0.00030116,0.00036121,-0.00023908,0.00030102,-0.01
 379666,-0.00688746,0.01842551,0.00352486,-0.03107689,0.00978622,0.0008
 9122,0.00014847,0.00333610,-0.00123357,-0.00111508,-0.00013718,-0.0000
 9175,0.00000808,-0.00022769,-0.00012834,-0.00016665,-0.00039372,0.0002
 3837,-0.00003609,-0.00007101,-0.00006698,0.00000259,-0.00011694,0.0000
 0321,0.00004859,-0.00001211,-0.00003872,0.00009701,0.00014482,0.000503
 43,-0.00133743,-0.00120938,-0.00037028,0.00029548,0.00014632,-0.000239
 28,0.00079351,0.00121448,0.00030095,0.00093509,0.00053780,0.01119533,-
 0.00215741,0.01287128,-0.00199485,0.00322956,-0.00024316,0.09814743,-0
 .11540357,0.04654453,-0.09521325,0.14958708,-0.00022285,-0.00020996,0.
 00029710,0.00001545,0.00004742,-0.00003309,0.00016171,-0.00005457,0.00
 007450,-0.00017254,0.00002945,0.00005215,0.00076090,0.00036226,-0.0007
 1175,-0.00045234,-0.00030702,0.00049768,0.00156212,-0.00008778,-0.0087
 5674,-0.00025296,0.00044690,-0.00024687,-0.00233037,0.00106263,-0.0001
 6424,-0.00342699,-0.00198005,0.00331735,0.00034208,0.00004425,0.000079
 83,0.00009116,0.00038933,-0.00055583,0.03432545,0.02911161,-0.06382375
 ,-0.02444221,0.00528352,0.00703068,-0.00198200,-0.00251306,0.00158685,
 0.00059514,0.00095119,-0.00053460,0.00065585,0.00015023,-0.00000584,0.
 00019145,0.00088804,0.00010274,-0.00003886,-0.00006801,0.00024221,0.00
 004402,0.00011182,0.00004540,-0.00010158,-0.00007953,-0.00000304,0.000
 05788,0.00007926,-0.00004111,-0.00243035,0.00032326,0.00493218,0.00068
 987,-0.00050565,-0.00022592,0.00017436,0.00039269,-0.00038552,0.000112
 40,0.00001938,0.00001835,-0.03850212,0.03424005,-0.01766834,-0.0000418
 6,0.00187236,0.00479587,-0.01294968,0.01853967,-0.06761331,0.04756687,
 -0.08853969,0.13769706\\-0.00000204,-0.00000214,0.00000057,-0.00000026
 ,-0.00000082,-0.00000132,-0.00000145,-0.00000611,0.00000073,-0.0000004
 5,-0.00000167,0.00000276,-0.00000419,0.00000239,0.00000154,-0.00000078
 ,-0.00000149,-0.00000043,-0.00000013,-0.00000395,0.00000488,-0.0000021
 0,0.00000145,-0.00000591,-0.00000071,-0.00000378,0.00000091,-0.0000068
 1,-0.00000483,0.00000655,-0.00000137,-0.00000185,0.00000056,-0.0000024
 3,0.00000088,-0.00000194,0.00002230,0.00001049,-0.00000974,0.00001371,
 -0.00001297,-0.00001574,-0.00000160,0.00000586,-0.00000488,0.00000031,
 0.00000361,-0.00000366,-0.00000010,0.00000426,-0.00000269,-0.00000028,
 0.00000328,-0.00000464,-0.00000282,-0.00000220,0.00000192,0.00000105,-
 0.00000505,0.00000513,0.00000165,-0.00000529,0.00000485,0.00000412,-0.
 00000078,0.00000323,-0.00000012,-0.00000500,-0.00000635,-0.00000022,0.
 00000431,0.00000179,0.00000055,0.00000171,0.00000219,0.00000215,0.0000
 0157,0.00000219,-0.00000692,0.00001324,-0.00000846,-0.00000027,0.00000
 167,0.00000289,-0.00002240,-0.00000565,-0.00001259,0.00001158,0.000008
 88,0.00003564\\\@
 Job cpu time:  0 days 11 hours 20 minutes 23.7 seconds.
 File lengths (MBytes):  RWF=  73894 Int=      0 D2E=      0 Chk=     26 Scr=      1
 Normal termination of Gaussian 09 at Fri Feb 21 06:46:38 2014.
