 Entering Gaussian System, Link 0=g09
 Initial command:
 /usr/caen/gaussian-09revc/g09/l1.exe /scratch/avioli_flux/hetanjin/scratch/Gau-50019.inp -scrdir=/scratch/avioli_flux/hetanjin/scratch/
 Entering Link 1 = /usr/caen/gaussian-09revc/g09/l1.exe PID=     50020.
  
 Copyright (c) 1988,1990,1992,1993,1995,1998,2003,2009,2011,
            Gaussian, Inc.  All Rights Reserved.
  
 This is part of the Gaussian(R) 09 program.  It is based on
 the Gaussian(R) 03 system (copyright 2003, Gaussian, Inc.),
 the Gaussian(R) 98 system (copyright 1998, Gaussian, Inc.),
 the Gaussian(R) 94 system (copyright 1995, Gaussian, Inc.),
 the Gaussian 92(TM) system (copyright 1992, Gaussian, Inc.),
 the Gaussian 90(TM) system (copyright 1990, Gaussian, Inc.),
 the Gaussian 88(TM) system (copyright 1988, Gaussian, Inc.),
 the Gaussian 86(TM) system (copyright 1986, Carnegie Mellon
 University), and the Gaussian 82(TM) system (copyright 1983,
 Carnegie Mellon University). Gaussian is a federally registered
 trademark of Gaussian, Inc.
  
 This software contains proprietary and confidential information,
 including trade secrets, belonging to Gaussian, Inc.
  
 This software is provided under written license and may be
 used, copied, transmitted, or stored only in accord with that
 written license.
  
 The following legend is applicable only to US Government
 contracts under FAR:
  
                    RESTRICTED RIGHTS LEGEND
  
 Use, reproduction and disclosure by the US Government is
 subject to restrictions as set forth in subparagraphs (a)
 and (c) of the Commercial Computer Software - Restricted
 Rights clause in FAR 52.227-19.
  
 Gaussian, Inc.
 340 Quinnipiac St., Bldg. 40, Wallingford CT 06492
  
  
 ---------------------------------------------------------------
 Warning -- This program may not be used in any manner that
 competes with the business of Gaussian, Inc. or will provide
 assistance to any competitor of Gaussian, Inc.  The licensee
 of this program is prohibited from giving any competitor of
 Gaussian, Inc. access to this program.  By using this program,
 the user acknowledges that Gaussian, Inc. is engaged in the
 business of creating and licensing software in the field of
 computational chemistry and represents and warrants to the
 licensee that it is not a competitor of Gaussian, Inc. and that
 it will not use this program in any manner prohibited above.
 ---------------------------------------------------------------
  

 Cite this work as:
 Gaussian 09, Revision C.01,
 M. J. Frisch, G. W. Trucks, H. B. Schlegel, G. E. Scuseria, 
 M. A. Robb, J. R. Cheeseman, G. Scalmani, V. Barone, B. Mennucci, 
 G. A. Petersson, H. Nakatsuji, M. Caricato, X. Li, H. P. Hratchian, 
 A. F. Izmaylov, J. Bloino, G. Zheng, J. L. Sonnenberg, M. Hada, 
 M. Ehara, K. Toyota, R. Fukuda, J. Hasegawa, M. Ishida, T. Nakajima, 
 Y. Honda, O. Kitao, H. Nakai, T. Vreven, J. A. Montgomery, Jr., 
 J. E. Peralta, F. Ogliaro, M. Bearpark, J. J. Heyd, E. Brothers, 
 K. N. Kudin, V. N. Staroverov, T. Keith, R. Kobayashi, J. Normand, 
 K. Raghavachari, A. Rendell, J. C. Burant, S. S. Iyengar, J. Tomasi, 
 M. Cossi, N. Rega, J. M. Millam, M. Klene, J. E. Knox, J. B. Cross, 
 V. Bakken, C. Adamo, J. Jaramillo, R. Gomperts, R. E. Stratmann, 
 O. Yazyev, A. J. Austin, R. Cammi, C. Pomelli, J. W. Ochterski, 
 R. L. Martin, K. Morokuma, V. G. Zakrzewski, G. A. Voth, 
 P. Salvador, J. J. Dannenberg, S. Dapprich, A. D. Daniels, 
 O. Farkas, J. B. Foresman, J. V. Ortiz, J. Cioslowski, 
 and D. J. Fox, Gaussian, Inc., Wallingford CT, 2010.
 
 ******************************************
 Gaussian 09:  EM64L-G09RevC.01 23-Sep-2011
                20-Feb-2014 
 ******************************************
 %mem=30GB
 %nprocshared=8
 Will use up to    8 processors via shared memory.
 %chk=TS_4_4a.chk
 -------------------------------
 #p cbs-qb3 opt=(TS,calcfc) freq
 -------------------------------
 1/5=1,10=4,14=-1,18=20,26=3,38=1/1,3;
 2/9=110,12=2,17=6,18=5,40=1/2;
 3/5=4,6=6,7=700,11=2,16=1,25=1,30=1,71=2,74=-5/1,2,3;
 4//1;
 5/5=2,38=5/2;
 8/6=4,10=90,11=11/1;
 11/6=1,8=1,9=11,15=111,16=1/1,2,10;
 10/6=1,7=6,13=1/2;
 6/7=2,8=2,9=2,10=2,28=1/1;
 7/10=1,18=20,25=1/1,2,3,16;
 1/5=1,10=4,14=-1,18=20/3(2);
 2/9=110/2;
 99//99;
 2/9=110/2;
 3/5=4,6=6,7=700,11=2,16=1,25=1,30=1,71=1,74=-5/1,2,3;
 4/5=5,16=3/1;
 5/5=2,38=5/2;
 7//1,2,3,16;
 1/5=1,14=-1,18=20/3(-5);
 2/9=110/2;
 6/7=2,8=2,9=2,10=2,19=2,28=1/1;
 99/9=1/99;
 Leave Link    1 at Thu Feb 20 01:58:09 2014, MaxMem= 4026531840 cpu:       0.5
 (Enter /usr/caen/gaussian-09revc/g09/l101.exe)
 ------------------------------------
 TS_4_4a using cbs-qb3 to cal. energy
 ------------------------------------
 Charge =  0 Multiplicity = 2
 Symbolic Z-Matrix:
 C                     3.73387  -0.40055   0.92859 
 H                     3.45301  -1.28867   1.50201 
 H                     3.9088    0.41498   1.63992 
 H                     4.68356  -0.61177   0.42831 
 C                     2.64486  -0.02428  -0.0857 
 H                     2.49625  -0.8797   -0.75431 
 C                     1.30941   0.23124   0.63706 
 H                     1.12774  -0.56849   1.36277 
 H                     1.37737   1.16499   1.21166 
 C                    -1.18641   0.76119   0.49166 
 H                    -1.12333   1.84891   0.60111 
 H                    -1.17931   0.3489    1.50698 
 C                    -2.52131   0.38741  -0.19594 
 H                    -2.3947    0.49926  -1.2782 
 C                    -2.90221  -1.04993   0.09487 
 H                    -3.15896  -1.26656   1.13339 
 H                    -3.54539  -1.5508   -0.62724 
 H                    -1.6868   -1.72837  -0.02098 
 C                     3.09005   1.17645  -0.93326 
 H                     3.24264   2.06212  -0.30559 
 H                     4.03515   0.96501  -1.44174 
 H                     2.35909   1.43403  -1.70449 
 C                    -3.65673   1.33271   0.25044 
 H                    -4.60821   1.05666  -0.21182 
 H                    -3.78853   1.29916   1.33646 
 H                    -3.43032   2.36546  -0.03228 
 C                     0.07813   0.31115  -0.26462 
 H                     0.2525    0.99864  -1.09918 
 O                    -0.13254  -0.92496  -0.99134 
 O                    -0.56229  -1.93955  -0.10684 
 
 NAtoms=     30 NQM=        0 NQMF=       0 NMMI=     30 NMMIF=      0
                NMic=       0 NMicF=      0.
                    Isotopes and Nuclear Properties:
 (Nuclear quadrupole moments (NQMom) in fm**2, nuclear magnetic moments (NMagM)
  in nuclear magnetons)

  Atom         1           2           3           4           5           6           7           8           9          10
 IAtWgt=          12           1           1           1          12           1          12           1           1          12
 AtmWgt=  12.0000000   1.0078250   1.0078250   1.0078250  12.0000000   1.0078250  12.0000000   1.0078250   1.0078250  12.0000000
 NucSpn=           0           1           1           1           0           1           0           1           1           0
 AtZEff=   0.0000000   0.0000000   0.0000000   0.0000000   0.0000000   0.0000000   0.0000000   0.0000000   0.0000000   0.0000000
 NQMom=    0.0000000   0.0000000   0.0000000   0.0000000   0.0000000   0.0000000   0.0000000   0.0000000   0.0000000   0.0000000
 NMagM=    0.0000000   2.7928460   2.7928460   2.7928460   0.0000000   2.7928460   0.0000000   2.7928460   2.7928460   0.0000000

  Atom        11          12          13          14          15          16          17          18          19          20
 IAtWgt=           1           1          12           1          12           1           1           1          12           1
 AtmWgt=   1.0078250   1.0078250  12.0000000   1.0078250  12.0000000   1.0078250   1.0078250   1.0078250  12.0000000   1.0078250
 NucSpn=           1           1           0           1           0           1           1           1           0           1
 AtZEff=   0.0000000   0.0000000   0.0000000   0.0000000   0.0000000   0.0000000   0.0000000   0.0000000   0.0000000   0.0000000
 NQMom=    0.0000000   0.0000000   0.0000000   0.0000000   0.0000000   0.0000000   0.0000000   0.0000000   0.0000000   0.0000000
 NMagM=    2.7928460   2.7928460   0.0000000   2.7928460   0.0000000   2.7928460   2.7928460   2.7928460   0.0000000   2.7928460

  Atom        21          22          23          24          25          26          27          28          29          30
 IAtWgt=           1           1          12           1           1           1          12           1          16          16
 AtmWgt=   1.0078250   1.0078250  12.0000000   1.0078250   1.0078250   1.0078250  12.0000000   1.0078250  15.9949146  15.9949146
 NucSpn=           1           1           0           1           1           1           0           1           0           0
 AtZEff=   0.0000000   0.0000000   0.0000000   0.0000000   0.0000000   0.0000000   0.0000000   0.0000000   0.0000000   0.0000000
 NQMom=    0.0000000   0.0000000   0.0000000   0.0000000   0.0000000   0.0000000   0.0000000   0.0000000   0.0000000   0.0000000
 NMagM=    2.7928460   2.7928460   0.0000000   2.7928460   2.7928460   2.7928460   0.0000000   2.7928460   0.0000000   0.0000000
 Leave Link  101 at Thu Feb 20 01:58:10 2014, MaxMem= 4026531840 cpu:       3.2
 (Enter /usr/caen/gaussian-09revc/g09/l103.exe)

 GradGradGradGradGradGradGradGradGradGradGradGradGradGradGradGradGradGrad
 Berny optimization.
 Initialization pass.
                           ----------------------------
                           !    Initial Parameters    !
                           ! (Angstroms and Degrees)  !
 --------------------------                            --------------------------
 ! Name  Definition              Value          Derivative Info.                !
 --------------------------------------------------------------------------------
 ! R1    R(1,2)                  1.0938         calculate D2E/DX2 analytically  !
 ! R2    R(1,3)                  1.0962         calculate D2E/DX2 analytically  !
 ! R3    R(1,4)                  1.094          calculate D2E/DX2 analytically  !
 ! R4    R(1,5)                  1.535          calculate D2E/DX2 analytically  !
 ! R5    R(5,6)                  1.0958         calculate D2E/DX2 analytically  !
 ! R6    R(5,7)                  1.5398         calculate D2E/DX2 analytically  !
 ! R7    R(5,19)                 1.5357         calculate D2E/DX2 analytically  !
 ! R8    R(7,8)                  1.0951         calculate D2E/DX2 analytically  !
 ! R9    R(7,9)                  1.0985         calculate D2E/DX2 analytically  !
 ! R10   R(7,27)                 1.5282         calculate D2E/DX2 analytically  !
 ! R11   R(10,11)                1.095          calculate D2E/DX2 analytically  !
 ! R12   R(10,12)                1.0959         calculate D2E/DX2 analytically  !
 ! R13   R(10,13)                1.5474         calculate D2E/DX2 analytically  !
 ! R14   R(10,27)                1.5406         calculate D2E/DX2 analytically  !
 ! R15   R(13,14)                1.0954         calculate D2E/DX2 analytically  !
 ! R16   R(13,15)                1.5151         calculate D2E/DX2 analytically  !
 ! R17   R(13,23)                1.5434         calculate D2E/DX2 analytically  !
 ! R18   R(15,16)                1.0915         calculate D2E/DX2 analytically  !
 ! R19   R(15,17)                1.089          calculate D2E/DX2 analytically  !
 ! R20   R(15,18)                1.3968         calculate D2E/DX2 analytically  !
 ! R21   R(18,30)                1.1474         calculate D2E/DX2 analytically  !
 ! R22   R(19,20)                1.0962         calculate D2E/DX2 analytically  !
 ! R23   R(19,21)                1.0938         calculate D2E/DX2 analytically  !
 ! R24   R(19,22)                1.0934         calculate D2E/DX2 analytically  !
 ! R25   R(23,24)                1.0933         calculate D2E/DX2 analytically  !
 ! R26   R(23,25)                1.0945         calculate D2E/DX2 analytically  !
 ! R27   R(23,26)                1.0944         calculate D2E/DX2 analytically  !
 ! R28   R(27,28)                1.0952         calculate D2E/DX2 analytically  !
 ! R29   R(27,29)                1.4493         calculate D2E/DX2 analytically  !
 ! R30   R(29,30)                1.4129         calculate D2E/DX2 analytically  !
 ! A1    A(2,1,3)              107.7488         calculate D2E/DX2 analytically  !
 ! A2    A(2,1,4)              107.81           calculate D2E/DX2 analytically  !
 ! A3    A(2,1,5)              111.3003         calculate D2E/DX2 analytically  !
 ! A4    A(3,1,4)              107.5696         calculate D2E/DX2 analytically  !
 ! A5    A(3,1,5)              111.0766         calculate D2E/DX2 analytically  !
 ! A6    A(4,1,5)              111.1632         calculate D2E/DX2 analytically  !
 ! A7    A(1,5,6)              107.9398         calculate D2E/DX2 analytically  !
 ! A8    A(1,5,7)              110.2313         calculate D2E/DX2 analytically  !
 ! A9    A(1,5,19)             110.5288         calculate D2E/DX2 analytically  !
 ! A10   A(6,5,7)              107.3553         calculate D2E/DX2 analytically  !
 ! A11   A(6,5,19)             108.2353         calculate D2E/DX2 analytically  !
 ! A12   A(7,5,19)             112.3788         calculate D2E/DX2 analytically  !
 ! A13   A(5,7,8)              109.4965         calculate D2E/DX2 analytically  !
 ! A14   A(5,7,9)              109.446          calculate D2E/DX2 analytically  !
 ! A15   A(5,7,27)             115.4991         calculate D2E/DX2 analytically  !
 ! A16   A(8,7,9)              106.5216         calculate D2E/DX2 analytically  !
 ! A17   A(8,7,27)             107.1891         calculate D2E/DX2 analytically  !
 ! A18   A(9,7,27)             108.3018         calculate D2E/DX2 analytically  !
 ! A19   A(11,10,12)           106.3041         calculate D2E/DX2 analytically  !
 ! A20   A(11,10,13)           109.5147         calculate D2E/DX2 analytically  !
 ! A21   A(11,10,27)           106.9745         calculate D2E/DX2 analytically  !
 ! A22   A(12,10,13)           109.0506         calculate D2E/DX2 analytically  !
 ! A23   A(12,10,27)           109.8525         calculate D2E/DX2 analytically  !
 ! A24   A(13,10,27)           114.7956         calculate D2E/DX2 analytically  !
 ! A25   A(10,13,14)           108.3404         calculate D2E/DX2 analytically  !
 ! A26   A(10,13,15)           111.1457         calculate D2E/DX2 analytically  !
 ! A27   A(10,13,23)           110.9881         calculate D2E/DX2 analytically  !
 ! A28   A(14,13,15)           108.3946         calculate D2E/DX2 analytically  !
 ! A29   A(14,13,23)           107.9539         calculate D2E/DX2 analytically  !
 ! A30   A(15,13,23)           109.9128         calculate D2E/DX2 analytically  !
 ! A31   A(13,15,16)           115.4695         calculate D2E/DX2 analytically  !
 ! A32   A(13,15,17)           117.2273         calculate D2E/DX2 analytically  !
 ! A33   A(13,15,18)           103.0683         calculate D2E/DX2 analytically  !
 ! A34   A(16,15,17)           113.6211         calculate D2E/DX2 analytically  !
 ! A35   A(16,15,18)           100.7893         calculate D2E/DX2 analytically  !
 ! A36   A(17,15,18)           103.6227         calculate D2E/DX2 analytically  !
 ! A37   A(15,18,30)           161.5185         calculate D2E/DX2 analytically  !
 ! A38   A(5,19,20)            110.8584         calculate D2E/DX2 analytically  !
 ! A39   A(5,19,21)            110.8482         calculate D2E/DX2 analytically  !
 ! A40   A(5,19,22)            112.3152         calculate D2E/DX2 analytically  !
 ! A41   A(20,19,21)           107.5826         calculate D2E/DX2 analytically  !
 ! A42   A(20,19,22)           107.8551         calculate D2E/DX2 analytically  !
 ! A43   A(21,19,22)           107.1738         calculate D2E/DX2 analytically  !
 ! A44   A(13,23,24)           111.304          calculate D2E/DX2 analytically  !
 ! A45   A(13,23,25)           110.9036         calculate D2E/DX2 analytically  !
 ! A46   A(13,23,26)           110.5529         calculate D2E/DX2 analytically  !
 ! A47   A(24,23,25)           107.8784         calculate D2E/DX2 analytically  !
 ! A48   A(24,23,26)           108.0044         calculate D2E/DX2 analytically  !
 ! A49   A(25,23,26)           108.0698         calculate D2E/DX2 analytically  !
 ! A50   A(7,27,10)            112.7649         calculate D2E/DX2 analytically  !
 ! A51   A(7,27,28)            110.7408         calculate D2E/DX2 analytically  !
 ! A52   A(7,27,29)            111.6148         calculate D2E/DX2 analytically  !
 ! A53   A(10,27,28)           108.7456         calculate D2E/DX2 analytically  !
 ! A54   A(10,27,29)           112.085          calculate D2E/DX2 analytically  !
 ! A55   A(28,27,29)           100.162          calculate D2E/DX2 analytically  !
 ! A56   A(27,29,30)           110.045          calculate D2E/DX2 analytically  !
 ! A57   A(18,30,29)           102.2844         calculate D2E/DX2 analytically  !
 ! D1    D(2,1,5,6)            -58.6872         calculate D2E/DX2 analytically  !
 ! D2    D(2,1,5,7)             58.2797         calculate D2E/DX2 analytically  !
 ! D3    D(2,1,5,19)          -176.8806         calculate D2E/DX2 analytically  !
 ! D4    D(3,1,5,6)           -178.7479         calculate D2E/DX2 analytically  !
 ! D5    D(3,1,5,7)            -61.781          calculate D2E/DX2 analytically  !
 ! D6    D(3,1,5,19)            63.0587         calculate D2E/DX2 analytically  !
 ! D7    D(4,1,5,6)             61.5094         calculate D2E/DX2 analytically  !
 ! D8    D(4,1,5,7)            178.4764         calculate D2E/DX2 analytically  !
 ! D9    D(4,1,5,19)           -56.684          calculate D2E/DX2 analytically  !
 ! D10   D(1,5,7,8)            -45.9833         calculate D2E/DX2 analytically  !
 ! D11   D(1,5,7,9)             70.4352         calculate D2E/DX2 analytically  !
 ! D12   D(1,5,7,27)          -167.0612         calculate D2E/DX2 analytically  !
 ! D13   D(6,5,7,8)             71.3463         calculate D2E/DX2 analytically  !
 ! D14   D(6,5,7,9)           -172.2352         calculate D2E/DX2 analytically  !
 ! D15   D(6,5,7,27)           -49.7316         calculate D2E/DX2 analytically  !
 ! D16   D(19,5,7,8)          -169.7574         calculate D2E/DX2 analytically  !
 ! D17   D(19,5,7,9)           -53.3389         calculate D2E/DX2 analytically  !
 ! D18   D(19,5,7,27)           69.1647         calculate D2E/DX2 analytically  !
 ! D19   D(1,5,19,20)          -62.5128         calculate D2E/DX2 analytically  !
 ! D20   D(1,5,19,21)           56.8949         calculate D2E/DX2 analytically  !
 ! D21   D(1,5,19,22)          176.7523         calculate D2E/DX2 analytically  !
 ! D22   D(6,5,19,20)          179.4745         calculate D2E/DX2 analytically  !
 ! D23   D(6,5,19,21)          -61.1178         calculate D2E/DX2 analytically  !
 ! D24   D(6,5,19,22)           58.7396         calculate D2E/DX2 analytically  !
 ! D25   D(7,5,19,20)           61.0955         calculate D2E/DX2 analytically  !
 ! D26   D(7,5,19,21)         -179.4968         calculate D2E/DX2 analytically  !
 ! D27   D(7,5,19,22)          -59.6394         calculate D2E/DX2 analytically  !
 ! D28   D(5,7,27,10)         -171.9831         calculate D2E/DX2 analytically  !
 ! D29   D(5,7,27,28)          -49.8709         calculate D2E/DX2 analytically  !
 ! D30   D(5,7,27,29)           60.7984         calculate D2E/DX2 analytically  !
 ! D31   D(8,7,27,10)           65.7001         calculate D2E/DX2 analytically  !
 ! D32   D(8,7,27,28)         -172.1877         calculate D2E/DX2 analytically  !
 ! D33   D(8,7,27,29)          -61.5184         calculate D2E/DX2 analytically  !
 ! D34   D(9,7,27,10)          -48.8727         calculate D2E/DX2 analytically  !
 ! D35   D(9,7,27,28)           73.2395         calculate D2E/DX2 analytically  !
 ! D36   D(9,7,27,29)         -176.0913         calculate D2E/DX2 analytically  !
 ! D37   D(11,10,13,14)         82.6507         calculate D2E/DX2 analytically  !
 ! D38   D(11,10,13,15)       -158.3586         calculate D2E/DX2 analytically  !
 ! D39   D(11,10,13,23)        -35.7084         calculate D2E/DX2 analytically  !
 ! D40   D(12,10,13,14)       -161.4057         calculate D2E/DX2 analytically  !
 ! D41   D(12,10,13,15)        -42.4151         calculate D2E/DX2 analytically  !
 ! D42   D(12,10,13,23)         80.2352         calculate D2E/DX2 analytically  !
 ! D43   D(27,10,13,14)        -37.6752         calculate D2E/DX2 analytically  !
 ! D44   D(27,10,13,15)         81.3154         calculate D2E/DX2 analytically  !
 ! D45   D(27,10,13,23)       -156.0343         calculate D2E/DX2 analytically  !
 ! D46   D(11,10,27,7)          79.1238         calculate D2E/DX2 analytically  !
 ! D47   D(11,10,27,28)        -44.1051         calculate D2E/DX2 analytically  !
 ! D48   D(11,10,27,29)       -153.907          calculate D2E/DX2 analytically  !
 ! D49   D(12,10,27,7)         -35.8548         calculate D2E/DX2 analytically  !
 ! D50   D(12,10,27,28)       -159.0837         calculate D2E/DX2 analytically  !
 ! D51   D(12,10,27,29)         91.1144         calculate D2E/DX2 analytically  !
 ! D52   D(13,10,27,7)        -159.1577         calculate D2E/DX2 analytically  !
 ! D53   D(13,10,27,28)         77.6134         calculate D2E/DX2 analytically  !
 ! D54   D(13,10,27,29)        -32.1885         calculate D2E/DX2 analytically  !
 ! D55   D(10,13,15,16)         67.1443         calculate D2E/DX2 analytically  !
 ! D56   D(10,13,15,17)       -154.7647         calculate D2E/DX2 analytically  !
 ! D57   D(10,13,15,18)        -41.7261         calculate D2E/DX2 analytically  !
 ! D58   D(14,13,15,16)       -173.8976         calculate D2E/DX2 analytically  !
 ! D59   D(14,13,15,17)        -35.8066         calculate D2E/DX2 analytically  !
 ! D60   D(14,13,15,18)         77.2321         calculate D2E/DX2 analytically  !
 ! D61   D(23,13,15,16)        -56.1244         calculate D2E/DX2 analytically  !
 ! D62   D(23,13,15,17)         81.9666         calculate D2E/DX2 analytically  !
 ! D63   D(23,13,15,18)       -164.9947         calculate D2E/DX2 analytically  !
 ! D64   D(10,13,23,24)       -178.4809         calculate D2E/DX2 analytically  !
 ! D65   D(10,13,23,25)        -58.3702         calculate D2E/DX2 analytically  !
 ! D66   D(10,13,23,26)         61.4844         calculate D2E/DX2 analytically  !
 ! D67   D(14,13,23,24)         62.9264         calculate D2E/DX2 analytically  !
 ! D68   D(14,13,23,25)       -176.9628         calculate D2E/DX2 analytically  !
 ! D69   D(14,13,23,26)        -57.1083         calculate D2E/DX2 analytically  !
 ! D70   D(15,13,23,24)        -55.1199         calculate D2E/DX2 analytically  !
 ! D71   D(15,13,23,25)         64.9909         calculate D2E/DX2 analytically  !
 ! D72   D(15,13,23,26)       -175.1546         calculate D2E/DX2 analytically  !
 ! D73   D(13,15,18,30)         13.2306         calculate D2E/DX2 analytically  !
 ! D74   D(16,15,18,30)       -106.3498         calculate D2E/DX2 analytically  !
 ! D75   D(17,15,18,30)        135.8826         calculate D2E/DX2 analytically  !
 ! D76   D(15,18,30,29)        -40.9357         calculate D2E/DX2 analytically  !
 ! D77   D(7,27,29,30)          70.7385         calculate D2E/DX2 analytically  !
 ! D78   D(10,27,29,30)        -56.8471         calculate D2E/DX2 analytically  !
 ! D79   D(28,27,29,30)       -172.0021         calculate D2E/DX2 analytically  !
 ! D80   D(27,29,30,18)         82.1754         calculate D2E/DX2 analytically  !
 --------------------------------------------------------------------------------
 Trust Radius=3.00D-01 FncErr=1.00D-07 GrdErr=1.00D-06
 Number of steps in this run=    177 maximum allowed number of steps=    180.
 Search for a saddle point of order  1.
 GradGradGradGradGradGradGradGradGradGradGradGradGradGradGradGradGradGrad

 Leave Link  103 at Thu Feb 20 01:58:10 2014, MaxMem= 4026531840 cpu:       0.3
 (Enter /usr/caen/gaussian-09revc/g09/l202.exe)
                          Input orientation:                          
 ---------------------------------------------------------------------
 Center     Atomic      Atomic             Coordinates (Angstroms)
 Number     Number       Type             X           Y           Z
 ---------------------------------------------------------------------
      1          6           0        3.733874   -0.400545    0.928587
      2          1           0        3.453014   -1.288673    1.502008
      3          1           0        3.908798    0.414982    1.639919
      4          1           0        4.683557   -0.611772    0.428305
      5          6           0        2.644864   -0.024276   -0.085696
      6          1           0        2.496253   -0.879702   -0.754311
      7          6           0        1.309414    0.231235    0.637056
      8          1           0        1.127740   -0.568493    1.362773
      9          1           0        1.377371    1.164991    1.211664
     10          6           0       -1.186407    0.761191    0.491660
     11          1           0       -1.123327    1.848906    0.601106
     12          1           0       -1.179313    0.348902    1.506983
     13          6           0       -2.521310    0.387410   -0.195935
     14          1           0       -2.394704    0.499257   -1.278198
     15          6           0       -2.902209   -1.049934    0.094865
     16          1           0       -3.158957   -1.266564    1.133387
     17          1           0       -3.545386   -1.550804   -0.627244
     18          1           0       -1.686801   -1.728370   -0.020981
     19          6           0        3.090050    1.176453   -0.933255
     20          1           0        3.242641    2.062119   -0.305589
     21          1           0        4.035152    0.965005   -1.441735
     22          1           0        2.359092    1.434033   -1.704494
     23          6           0       -3.656725    1.332714    0.250444
     24          1           0       -4.608206    1.056658   -0.211815
     25          1           0       -3.788533    1.299158    1.336460
     26          1           0       -3.430323    2.365463   -0.032282
     27          6           0        0.078128    0.311150   -0.264621
     28          1           0        0.252495    0.998637   -1.099180
     29          8           0       -0.132541   -0.924963   -0.991340
     30          8           0       -0.562288   -1.939551   -0.106836
 ---------------------------------------------------------------------
                    Distance matrix (angstroms):
                    1          2          3          4          5
     1  C    0.000000
     2  H    1.093831   0.000000
     3  H    1.096210   1.768954   0.000000
     4  H    1.093982   1.767843   1.767055   0.000000
     5  C    1.535022   2.184630   2.183626   2.183029   0.000000
     6  H    2.143232   2.484678   3.066566   2.500933   1.095849
     7  C    2.522329   2.766457   2.792185   3.484118   1.539832
     8  H    2.647387   2.438226   2.962822   3.676811   2.167002
     9  H    2.843263   3.226927   2.674703   3.834241   2.168879
    10  C    5.074416   5.171748   5.234451   6.028724   3.953345
    11  H    5.362805   5.621292   5.334562   6.309096   4.263774
    12  H    5.003561   4.913261   5.090276   6.038186   4.159353
    13  C    6.404120   6.433103   6.687108   7.300558   5.183724
    14  H    6.575638   6.717294   6.946700   7.365346   5.205131
    15  C    6.719702   6.513517   7.136034   7.605722   5.643988
    16  H    6.950040   6.622275   7.282673   7.901324   6.059190
    17  H    7.532020   7.319838   8.035496   8.349339   6.398653
    18  H    5.661141   5.378711   6.217980   6.483063   4.655260
    19  C    2.523467   3.484120   2.805603   2.755151   1.535675
    20  H    2.798073   3.813066   2.634735   3.124825   2.181452
    21  H    2.752076   3.752809   3.132903   2.530554   2.179546
    22  H    3.491249   4.346429   3.824285   3.759958   2.197462
    23  C    7.621353   7.680265   7.746613   8.565802   6.454799
    24  H    8.544838   8.568608   8.739567   9.462044   7.334259
    25  H    7.722821   7.691832   7.753887   8.732280   6.720313
    26  H    7.739495   7.942738   7.775817   8.655121   6.528522
    27  C    3.910848   4.131618   4.279262   4.747832   2.594737
    28  H    4.264921   4.716067   4.605634   4.955899   2.792298
    29  O    4.348597   4.382382   5.005137   5.030734   3.057026
    30  O    4.679492   4.374320   5.346549   5.437671   3.735579
                    6          7          8          9         10
     6  H    0.000000
     7  C    2.139783   0.000000
     8  H    2.540024   1.095096   0.000000
     9  H    3.049217   1.098496   1.757873   0.000000
    10  C    4.219829   2.555605   2.807521   2.693403   0.000000
    11  H    4.731154   2.921709   3.389876   2.663459   1.095026
    12  H    4.486948   2.639011   2.486947   2.699972   1.095862
    13  C    5.205122   3.923355   4.081530   4.217307   1.547406
    14  H    5.108566   4.178579   4.530169   4.568497   2.158932
    15  C    5.467492   4.435441   4.252042   4.946508   2.526182
    16  H    5.974485   4.738785   4.349217   5.147510   2.900786
    17  H    6.080125   5.323833   5.173317   5.915290   3.487413
    18  H    4.330814   3.640106   3.343910   4.390911   2.590581
    19  C    2.147647   2.555382   3.488157   2.744828   4.526689
    20  H    3.068022   2.824550   3.765150   2.566345   4.684494
    21  H    2.498741   3.505629   4.320871   3.760894   5.571735
    22  H    2.505001   2.833973   3.864514   3.088711   4.224497
    23  C    6.615395   5.101496   5.267159   5.127787   2.547017
    24  H    7.383572   6.034909   6.166159   6.153467   3.505836
    25  H    6.972610   5.255349   5.259140   5.169153   2.788217
    26  H    6.795346   5.240997   5.597340   5.109056   2.807733
    27  C    2.739572   1.528225   2.126939   2.143944   1.540632
    28  H    2.946446   2.172671   3.046828   2.575465   2.158145
    29  O    2.639846   2.463271   2.693924   3.391308   2.480532
    30  O    3.301087   2.961242   2.625975   3.890874   2.835794
                   11         12         13         14         15
    11  H    0.000000
    12  H    1.753214   0.000000
    13  C    2.173845   2.168495   0.000000
    14  H    2.640026   3.042534   1.095368   0.000000
    15  C    3.438601   2.630435   1.515126   2.131398   0.000000
    16  H    3.759424   2.582304   2.215699   3.085117   1.091502
    17  H    4.351234   3.709732   2.234151   2.439377   1.089031
    18  H    3.674425   2.628170   2.281127   2.654062   1.396751
    19  C    4.534204   4.986689   5.714332   5.537157   6.474643
    20  H    4.464217   5.076830   6.003316   5.930275   6.899596
    21  H    5.618219   6.022057   6.698718   6.448776   7.385668
    22  H    4.197041   4.900143   5.214355   4.863549   6.090080
    23  C    2.609123   2.946922   1.543380   2.150371   2.504099
    24  H    3.665089   3.900320   2.191639   2.519417   2.728041
    25  H    2.818917   2.782102   2.187550   3.069045   2.800957
    26  H    2.447497   3.391593   2.183067   2.471343   3.458324
    27  C    2.134870   2.172824   2.601463   2.679108   3.296087
    28  H    2.346661   3.043734   2.980511   2.699832   3.946460
    29  O    3.348416   2.993340   2.839227   2.688507   2.977670
    30  O    3.894657   2.867429   3.043099   3.267663   2.511440
                   16         17         18         19         20
    16  H    0.000000
    17  H    1.824813   0.000000
    18  H    1.926934   1.963014   0.000000
    19  C    7.020643   7.180570   5.664675   0.000000
    20  H    7.357394   7.696362   6.224806   1.096199   0.000000
    21  H    7.960299   8.028527   6.481787   1.093837   1.767077
    22  H    6.767249   6.703177   5.404096   1.093369   1.769770
    23  C    2.789912   3.016191   3.650275   6.851608   6.960061
    24  H    3.050779   2.846230   4.040718   7.732915   7.915526
    25  H    2.649629   3.469515   3.927575   7.244416   7.260568
    26  H    3.824140   3.962874   4.449659   6.688854   6.685444
    27  C    3.862943   4.090015   2.708132   3.204293   3.616865
    28  H    4.664064   4.598508   3.515672   2.847959   3.271354
    29  O    3.713536   3.488804   2.000696   3.847651   4.559031
    30  O    2.955293   3.053002   1.147387   4.871552   5.525428
                   21         22         23         24         25
    21  H    0.000000
    22  H    1.760172   0.000000
    23  C    7.884393   6.326302   0.000000
    24  H    8.730907   7.135387   1.093255   0.000000
    25  H    8.309036   6.859948   1.094500   1.768566   0.000000
    26  H    7.725358   6.097637   1.094423   1.769918   1.771659
    27  C    4.179852   2.921797   3.906151   4.745556   4.300080
    28  H    3.798285   2.234665   4.149108   4.941376   4.727850
    29  O    4.598315   3.504524   4.365662   4.956416   4.871514
    30  O    5.599541   4.740047   4.517843   5.035647   4.793850
                   26         27         28         29         30
    26  H    0.000000
    27  C    4.072274   0.000000
    28  H    4.070581   1.095231   0.000000
    29  O    4.756266   1.449302   1.964719   0.000000
    30  O    5.173425   2.345354   3.206488   1.412947   0.000000
 Stoichiometry    C9H19O2(2)
 Framework group  C1[X(C9H19O2)]
 Deg. of freedom    84
 Full point group                 C1      NOp   1
 Largest Abelian subgroup         C1      NOp   1
 Largest concise Abelian subgroup C1      NOp   1
                         Standard orientation:                         
 ---------------------------------------------------------------------
 Center     Atomic      Atomic             Coordinates (Angstroms)
 Number     Number       Type             X           Y           Z
 ---------------------------------------------------------------------
      1          6           0       -3.733874    0.400545    0.928587
      2          1           0       -3.453014    1.288673    1.502008
      3          1           0       -3.908798   -0.414982    1.639919
      4          1           0       -4.683557    0.611772    0.428305
      5          6           0       -2.644864    0.024276   -0.085696
      6          1           0       -2.496253    0.879702   -0.754311
      7          6           0       -1.309414   -0.231235    0.637056
      8          1           0       -1.127740    0.568493    1.362773
      9          1           0       -1.377371   -1.164991    1.211664
     10          6           0        1.186407   -0.761191    0.491660
     11          1           0        1.123327   -1.848906    0.601106
     12          1           0        1.179313   -0.348902    1.506983
     13          6           0        2.521310   -0.387410   -0.195935
     14          1           0        2.394704   -0.499257   -1.278198
     15          6           0        2.902209    1.049934    0.094865
     16          1           0        3.158957    1.266564    1.133387
     17          1           0        3.545386    1.550804   -0.627244
     18          1           0        1.686801    1.728370   -0.020981
     19          6           0       -3.090050   -1.176453   -0.933255
     20          1           0       -3.242641   -2.062119   -0.305589
     21          1           0       -4.035152   -0.965005   -1.441735
     22          1           0       -2.359092   -1.434033   -1.704494
     23          6           0        3.656725   -1.332714    0.250444
     24          1           0        4.608206   -1.056658   -0.211815
     25          1           0        3.788533   -1.299158    1.336460
     26          1           0        3.430323   -2.365463   -0.032282
     27          6           0       -0.078128   -0.311150   -0.264621
     28          1           0       -0.252495   -0.998637   -1.099180
     29          8           0        0.132541    0.924963   -0.991340
     30          8           0        0.562288    1.939551   -0.106836
 ---------------------------------------------------------------------
 Rotational constants (GHZ):      2.1102990      0.5106182      0.4638038
 Leave Link  202 at Thu Feb 20 01:58:10 2014, MaxMem= 4026531840 cpu:       0.3
 (Enter /usr/caen/gaussian-09revc/g09/l301.exe)
 Standard basis: 6-311G(2d,d,p) (5D, 7F)
 Ernie: Thresh=  0.10000D-02 Tol=  0.10000D-05 Strict=F.
 There are   312 symmetry adapted basis functions of A   symmetry.
 Integral buffers will be    131072 words long.
 Raffenetti 2 integral format.
 Two-electron integral symmetry is turned on.
   312 basis functions,   504 primitive gaussians,   323 cartesian basis functions
    45 alpha electrons       44 beta electrons
       nuclear repulsion energy       677.6182576424 Hartrees.
 IExCor=  402 DFT=T Ex+Corr=B3LYP ExCW=0 ScaHFX=  0.200000
 ScaDFX=  0.800000  0.720000  1.000000  0.810000 ScalE2=  1.000000  1.000000
 IRadAn=      0 IRanWt=     -1 IRanGd=            0 ICorTp=0
 NAtoms=   30 NActive=   30 NUniq=   30 SFac= 1.00D+00 NAtFMM=   60 NAOKFM=F Big=F
 Leave Link  301 at Thu Feb 20 01:58:10 2014, MaxMem= 4026531840 cpu:       0.6
 (Enter /usr/caen/gaussian-09revc/g09/l302.exe)
 NPDir=0 NMtPBC=     1 NCelOv=     1 NCel=       1 NClECP=     1 NCelD=      1
         NCelK=      1 NCelE2=     1 NClLst=     1 CellRange=     0.0.
 One-electron integrals computed using PRISM.
 NBasis=   312 RedAO= T  NBF=   312
 NBsUse=   312 1.00D-06 NBFU=   312
 Precomputing XC quadrature grid using
 IXCGrd= 2 IRadAn=           0 IRanWt=          -1 IRanGd=           0 AccXCQ= 0.00D+00.
 NRdTot=    1911 NPtTot=      243698 NUsed=      257478 NTot=      257510
 NSgBfM=   323   323   323   323   323 NAtAll=    30    30.
 Leave Link  302 at Thu Feb 20 01:58:11 2014, MaxMem= 4026531840 cpu:       5.4
 (Enter /usr/caen/gaussian-09revc/g09/l303.exe)
 DipDrv:  MaxL=1.
 Leave Link  303 at Thu Feb 20 01:58:12 2014, MaxMem= 4026531840 cpu:       1.4
 (Enter /usr/caen/gaussian-09revc/g09/l401.exe)
 Harris functional with IExCor=  402 diagonalized for initial guess.
 ExpMin= 1.03D-01 ExpMax= 8.59D+03 ExpMxC= 1.30D+03 IAcc=1 IRadAn=         1 AccDes= 0.00D+00
 HarFok:  IExCor=  402 AccDes= 0.00D+00 IRadAn=         1 IDoV= 1
 ScaDFX=  1.000000  1.000000  1.000000  1.000000
 FoFCou: FMM=F IPFlag=           0 FMFlag=      100000 FMFlg1=           0
         NFxFlg=           0 DoJE=T BraDBF=F KetDBF=T FulRan=T
         Omega=  0.000000  0.000000  1.000000  0.000000  0.000000 ICntrl=     500 IOpCl=  0
         NMat0=    1 NMatS0=    1 NMatT0=    0 NMatD0=    1 NMtDS0=    0 NMtDT0=    0
         I1Cent=           4 NGrid=           0.
 Petite list used in FoFCou.
 Harris En= -504.893053690420    
 Initial guess orbital symmetries:
 Alpha Orbitals:
       Occupied  (A) (A) (A) (A) (A) (A) (A) (A) (A) (A) (A) (A)
                 (A) (A) (A) (A) (A) (A) (A) (A) (A) (A) (A) (A)
                 (A) (A) (A) (A) (A) (A) (A) (A) (A) (A) (A) (A)
                 (A) (A) (A) (A) (A) (A) (A) (A) (A)
       Virtual   (A) (A) (A) (A) (A) (A) (A) (A) (A) (A) (A) (A)
                 (A) (A) (A) (A) (A) (A) (A) (A) (A) (A) (A) (A)
                 (A) (A) (A) (A) (A) (A) (A) (A) (A) (A) (A) (A)
                 (A) (A) (A) (A) (A) (A) (A) (A) (A) (A) (A) (A)
                 (A) (A) (A) (A) (A) (A) (A) (A) (A) (A) (A) (A)
                 (A) (A) (A) (A) (A) (A) (A) (A) (A) (A) (A) (A)
                 (A) (A) (A) (A) (A) (A) (A) (A) (A) (A) (A) (A)
                 (A) (A) (A) (A) (A) (A) (A) (A) (A) (A) (A) (A)
                 (A) (A) (A) (A) (A) (A) (A) (A) (A) (A) (A) (A)
                 (A) (A) (A) (A) (A) (A) (A) (A) (A) (A) (A) (A)
                 (A) (A) (A) (A) (A) (A) (A) (A) (A) (A) (A) (A)
                 (A) (A) (A) (A) (A) (A) (A) (A) (A) (A) (A) (A)
                 (A) (A) (A) (A) (A) (A) (A) (A) (A) (A) (A) (A)
                 (A) (A) (A) (A) (A) (A) (A) (A) (A) (A) (A) (A)
                 (A) (A) (A) (A) (A) (A) (A) (A) (A) (A) (A) (A)
                 (A) (A) (A) (A) (A) (A) (A) (A) (A) (A) (A) (A)
                 (A) (A) (A) (A) (A) (A) (A) (A) (A) (A) (A) (A)
                 (A) (A) (A) (A) (A) (A) (A) (A) (A) (A) (A) (A)
                 (A) (A) (A) (A) (A) (A) (A) (A) (A) (A) (A) (A)
                 (A) (A) (A) (A) (A) (A) (A) (A) (A) (A) (A) (A)
                 (A) (A) (A) (A) (A) (A) (A) (A) (A) (A) (A) (A)
                 (A) (A) (A) (A) (A) (A) (A) (A) (A) (A) (A) (A)
                 (A) (A) (A)
 Beta  Orbitals:
       Occupied  (A) (A) (A) (A) (A) (A) (A) (A) (A) (A) (A) (A)
                 (A) (A) (A) (A) (A) (A) (A) (A) (A) (A) (A) (A)
                 (A) (A) (A) (A) (A) (A) (A) (A) (A) (A) (A) (A)
                 (A) (A) (A) (A) (A) (A) (A) (A)
       Virtual   (A) (A) (A) (A) (A) (A) (A) (A) (A) (A) (A) (A)
                 (A) (A) (A) (A) (A) (A) (A) (A) (A) (A) (A) (A)
                 (A) (A) (A) (A) (A) (A) (A) (A) (A) (A) (A) (A)
                 (A) (A) (A) (A) (A) (A) (A) (A) (A) (A) (A) (A)
                 (A) (A) (A) (A) (A) (A) (A) (A) (A) (A) (A) (A)
                 (A) (A) (A) (A) (A) (A) (A) (A) (A) (A) (A) (A)
                 (A) (A) (A) (A) (A) (A) (A) (A) (A) (A) (A) (A)
                 (A) (A) (A) (A) (A) (A) (A) (A) (A) (A) (A) (A)
                 (A) (A) (A) (A) (A) (A) (A) (A) (A) (A) (A) (A)
                 (A) (A) (A) (A) (A) (A) (A) (A) (A) (A) (A) (A)
                 (A) (A) (A) (A) (A) (A) (A) (A) (A) (A) (A) (A)
                 (A) (A) (A) (A) (A) (A) (A) (A) (A) (A) (A) (A)
                 (A) (A) (A) (A) (A) (A) (A) (A) (A) (A) (A) (A)
                 (A) (A) (A) (A) (A) (A) (A) (A) (A) (A) (A) (A)
                 (A) (A) (A) (A) (A) (A) (A) (A) (A) (A) (A) (A)
                 (A) (A) (A) (A) (A) (A) (A) (A) (A) (A) (A) (A)
                 (A) (A) (A) (A) (A) (A) (A) (A) (A) (A) (A) (A)
                 (A) (A) (A) (A) (A) (A) (A) (A) (A) (A) (A) (A)
                 (A) (A) (A) (A) (A) (A) (A) (A) (A) (A) (A) (A)
                 (A) (A) (A) (A) (A) (A) (A) (A) (A) (A) (A) (A)
                 (A) (A) (A) (A) (A) (A) (A) (A) (A) (A) (A) (A)
                 (A) (A) (A) (A) (A) (A) (A) (A) (A) (A) (A) (A)
                 (A) (A) (A) (A)
 The electronic state of the initial guess is 2-A.
 Initial guess <Sx>= 0.0000 <Sy>= 0.0000 <Sz>= 0.5000 <S**2>= 0.7500 S= 0.5000
 Leave Link  401 at Thu Feb 20 01:58:13 2014, MaxMem= 4026531840 cpu:       5.7
 (Enter /usr/caen/gaussian-09revc/g09/l502.exe)
 UHF open shell SCF:
 Requested convergence on RMS density matrix=1.00D-08 within 128 cycles.
 Requested convergence on MAX density matrix=1.00D-06.
 Requested convergence on             energy=1.00D-06.
 No special actions if energy rises.
 Using DIIS extrapolation, IDIIS=  1040.
 Integral symmetry usage will be decided dynamically.
       257195 words used for storage of precomputed grid.
 Keep R1 and R2 ints in memory in canonical form, NReq=2755661926.
 IEnd=      593353 IEndB=      593353 NGot=  4026531840 MDV=  1287997150
 LenX=  1287997150 LenY=  1287892380
 Symmetry not used in FoFDir.
 MinBra= 0 MaxBra= 2 Meth= 1.
 IRaf=       0 NMat=   1 IRICut=       1 DoRegI=T DoRafI=F ISym2E= 0 JSym2E=0.
 Integral accuracy reduced to 1.0D-05 until final iterations.

 Cycle   1  Pass 0  IDiag  1:
 E= -504.452137082148    
 DIIS: error= 4.96D-02 at cycle   1 NSaved=   1.
 NSaved= 1 IEnMin= 1 EnMin= -504.452137082148     IErMin= 1 ErrMin= 4.96D-02
 ErrMax= 4.96D-02 EMaxC= 1.00D-01 BMatC= 1.52D+00 BMatP= 1.52D+00
 IDIUse=3 WtCom= 5.04D-01 WtEn= 4.96D-01
 Coeff-Com:  0.100D+01
 Coeff-En:   0.100D+01
 Coeff:      0.100D+01
 Gap=     0.194 Goal=   None    Shift=    0.000
 Gap=     0.202 Goal=   None    Shift=    0.000
 GapD=    0.194 DampG=1.000 DampE=0.500 DampFc=0.5000 IDamp=-1.
 Damping current iteration by 5.00D-01
 RMSDP=3.33D-03 MaxDP=1.22D-01              OVMax= 2.12D-01

 Cycle   2  Pass 0  IDiag  1:
 E= -504.605562263643     Delta-E=       -0.153425181495 Rises=F Damp=T
 DIIS: error= 7.41D-03 at cycle   2 NSaved=   2.
 NSaved= 2 IEnMin= 2 EnMin= -504.605562263643     IErMin= 2 ErrMin= 7.41D-03
 ErrMax= 7.41D-03 EMaxC= 1.00D-01 BMatC= 1.22D-01 BMatP= 1.52D+00
 IDIUse=3 WtCom= 9.26D-01 WtEn= 7.41D-02
 Coeff-Com:  0.977D-01 0.902D+00
 Coeff-En:   0.193D+00 0.807D+00
 Coeff:      0.105D+00 0.895D+00
 Gap=     0.308 Goal=   None    Shift=    0.000
 Gap=     0.190 Goal=   None    Shift=    0.000
 RMSDP=9.27D-04 MaxDP=2.80D-02 DE=-1.53D-01 OVMax= 2.26D-01

 Cycle   3  Pass 0  IDiag  1:
 E= -504.812874290162     Delta-E=       -0.207312026518 Rises=F Damp=F
 DIIS: error= 8.93D-03 at cycle   3 NSaved=   3.
 NSaved= 3 IEnMin= 3 EnMin= -504.812874290162     IErMin= 2 ErrMin= 7.41D-03
 ErrMax= 8.93D-03 EMaxC= 1.00D-01 BMatC= 9.21D-02 BMatP= 1.22D-01
 IDIUse=3 WtCom= 9.11D-01 WtEn= 8.93D-02
 Coeff-Com:  0.192D-02 0.459D+00 0.539D+00
 Coeff-En:   0.000D+00 0.000D+00 0.100D+01
 Coeff:      0.175D-02 0.418D+00 0.580D+00
 Gap=     0.279 Goal=   None    Shift=    0.000
 Gap=     0.154 Goal=   None    Shift=    0.000
 RMSDP=6.11D-04 MaxDP=2.87D-02 DE=-2.07D-01 OVMax= 1.31D-01

 Cycle   4  Pass 0  IDiag  1:
 E= -504.825009593492     Delta-E=       -0.012135303331 Rises=F Damp=F
 DIIS: error= 5.48D-03 at cycle   4 NSaved=   4.
 NSaved= 4 IEnMin= 4 EnMin= -504.825009593492     IErMin= 4 ErrMin= 5.48D-03
 ErrMax= 5.48D-03 EMaxC= 1.00D-01 BMatC= 3.91D-02 BMatP= 9.21D-02
 IDIUse=3 WtCom= 9.45D-01 WtEn= 5.48D-02
 Coeff-Com: -0.122D-01 0.111D+00 0.404D+00 0.497D+00
 Coeff-En:   0.000D+00 0.000D+00 0.310D+00 0.690D+00
 Coeff:     -0.115D-01 0.105D+00 0.399D+00 0.508D+00
 Gap=     0.274 Goal=   None    Shift=    0.000
 Gap=     0.144 Goal=   None    Shift=    0.000
 RMSDP=2.47D-04 MaxDP=1.17D-02 DE=-1.21D-02 OVMax= 3.29D-02

 Cycle   5  Pass 0  IDiag  1:
 E= -504.832495707086     Delta-E=       -0.007486113594 Rises=F Damp=F
 DIIS: error= 8.52D-04 at cycle   5 NSaved=   5.
 NSaved= 5 IEnMin= 5 EnMin= -504.832495707086     IErMin= 5 ErrMin= 8.52D-04
 ErrMax= 8.52D-04 EMaxC= 1.00D-01 BMatC= 1.52D-03 BMatP= 3.91D-02
 IDIUse=3 WtCom= 9.91D-01 WtEn= 8.52D-03
 Coeff-Com: -0.523D-02 0.187D-01 0.171D+00 0.246D+00 0.570D+00
 Coeff-En:   0.000D+00 0.000D+00 0.000D+00 0.000D+00 0.100D+01
 Coeff:     -0.518D-02 0.185D-01 0.169D+00 0.244D+00 0.574D+00
 Gap=     0.264 Goal=   None    Shift=    0.000
 Gap=     0.147 Goal=   None    Shift=    0.000
 RMSDP=6.63D-05 MaxDP=3.05D-03 DE=-7.49D-03 OVMax= 7.39D-03

 Cycle   6  Pass 0  IDiag  1:
 E= -504.832750686848     Delta-E=       -0.000254979762 Rises=F Damp=F
 DIIS: error= 7.36D-04 at cycle   6 NSaved=   6.
 NSaved= 6 IEnMin= 6 EnMin= -504.832750686848     IErMin= 6 ErrMin= 7.36D-04
 ErrMax= 7.36D-04 EMaxC= 1.00D-01 BMatC= 6.12D-04 BMatP= 1.52D-03
 IDIUse=3 WtCom= 9.93D-01 WtEn= 7.36D-03
 Coeff-Com: -0.141D-03-0.110D-01 0.337D-01 0.475D-01 0.386D+00 0.544D+00
 Coeff-En:   0.000D+00 0.000D+00 0.000D+00 0.000D+00 0.189D+00 0.811D+00
 Coeff:     -0.140D-03-0.109D-01 0.334D-01 0.472D-01 0.384D+00 0.546D+00
 Gap=     0.265 Goal=   None    Shift=    0.000
 Gap=     0.147 Goal=   None    Shift=    0.000
 RMSDP=3.45D-05 MaxDP=1.61D-03 DE=-2.55D-04 OVMax= 7.12D-03

 Cycle   7  Pass 0  IDiag  1:
 E= -504.832867093992     Delta-E=       -0.000116407145 Rises=F Damp=F
 DIIS: error= 2.63D-04 at cycle   7 NSaved=   7.
 NSaved= 7 IEnMin= 7 EnMin= -504.832867093992     IErMin= 7 ErrMin= 2.63D-04
 ErrMax= 2.63D-04 EMaxC= 1.00D-01 BMatC= 7.78D-05 BMatP= 6.12D-04
 IDIUse=3 WtCom= 9.97D-01 WtEn= 2.63D-03
 Coeff-Com:  0.141D-02-0.945D-02-0.170D-01-0.362D-01 0.697D-01 0.290D+00
 Coeff-Com:  0.701D+00
 Coeff-En:   0.000D+00 0.000D+00 0.000D+00 0.000D+00 0.000D+00 0.000D+00
 Coeff-En:   0.100D+01
 Coeff:      0.141D-02-0.942D-02-0.169D-01-0.361D-01 0.695D-01 0.290D+00
 Coeff:      0.702D+00
 Gap=     0.266 Goal=   None    Shift=    0.000
 Gap=     0.148 Goal=   None    Shift=    0.000
 RMSDP=1.76D-05 MaxDP=1.19D-03 DE=-1.16D-04 OVMax= 2.94D-03

 Cycle   8  Pass 0  IDiag  1:
 E= -504.832889623664     Delta-E=       -0.000022529672 Rises=F Damp=F
 DIIS: error= 8.27D-05 at cycle   8 NSaved=   8.
 NSaved= 8 IEnMin= 8 EnMin= -504.832889623664     IErMin= 8 ErrMin= 8.27D-05
 ErrMax= 8.27D-05 EMaxC= 1.00D-01 BMatC= 1.31D-05 BMatP= 7.78D-05
 IDIUse=1 WtCom= 1.00D+00 WtEn= 0.00D+00
 Coeff-Com:  0.826D-03-0.111D-02-0.153D-01-0.325D-01-0.697D-01 0.338D-02
 Coeff-Com:  0.354D+00 0.761D+00
 Coeff:      0.826D-03-0.111D-02-0.153D-01-0.325D-01-0.697D-01 0.338D-02
 Coeff:      0.354D+00 0.761D+00
 Gap=     0.266 Goal=   None    Shift=    0.000
 Gap=     0.148 Goal=   None    Shift=    0.000
 RMSDP=8.74D-06 MaxDP=3.66D-04 DE=-2.25D-05 OVMax= 2.58D-03

 Initial convergence to 1.0D-05 achieved.  Increase integral accuracy.
 Cycle   9  Pass 1  IDiag  1:
 E= -504.832927365052     Delta-E=       -0.000037741388 Rises=F Damp=F
 DIIS: error= 2.24D-05 at cycle   1 NSaved=   1.
 NSaved= 1 IEnMin= 1 EnMin= -504.832927365052     IErMin= 1 ErrMin= 2.24D-05
 ErrMax= 2.24D-05 EMaxC= 1.00D-01 BMatC= 1.27D-06 BMatP= 1.27D-06
 IDIUse=1 WtCom= 1.00D+00 WtEn= 0.00D+00
 Coeff-Com:  0.100D+01
 Coeff:      0.100D+01
 Gap=     0.266 Goal=   None    Shift=    0.000
 Gap=     0.148 Goal=   None    Shift=    0.000
 RMSDP=8.74D-06 MaxDP=3.66D-04 DE=-3.77D-05 OVMax= 4.59D-04

 Cycle  10  Pass 1  IDiag  1:
 E= -504.832927688675     Delta-E=       -0.000000323623 Rises=F Damp=F
 DIIS: error= 1.91D-05 at cycle   2 NSaved=   2.
 NSaved= 2 IEnMin= 2 EnMin= -504.832927688675     IErMin= 2 ErrMin= 1.91D-05
 ErrMax= 1.91D-05 EMaxC= 1.00D-01 BMatC= 8.66D-07 BMatP= 1.27D-06
 IDIUse=1 WtCom= 1.00D+00 WtEn= 0.00D+00
 Coeff-Com:  0.436D+00 0.564D+00
 Coeff:      0.436D+00 0.564D+00
 Gap=     0.266 Goal=   None    Shift=    0.000
 Gap=     0.148 Goal=   None    Shift=    0.000
 RMSDP=1.74D-06 MaxDP=6.62D-05 DE=-3.24D-07 OVMax= 2.97D-04

 Cycle  11  Pass 1  IDiag  1:
 E= -504.832927871219     Delta-E=       -0.000000182545 Rises=F Damp=F
 DIIS: error= 1.27D-05 at cycle   3 NSaved=   3.
 NSaved= 3 IEnMin= 3 EnMin= -504.832927871219     IErMin= 3 ErrMin= 1.27D-05
 ErrMax= 1.27D-05 EMaxC= 1.00D-01 BMatC= 2.32D-07 BMatP= 8.66D-07
 IDIUse=1 WtCom= 1.00D+00 WtEn= 0.00D+00
 Coeff-Com: -0.119D-01 0.318D+00 0.694D+00
 Coeff:     -0.119D-01 0.318D+00 0.694D+00
 Gap=     0.266 Goal=   None    Shift=    0.000
 Gap=     0.148 Goal=   None    Shift=    0.000
 RMSDP=9.46D-07 MaxDP=3.65D-05 DE=-1.83D-07 OVMax= 1.57D-04

 Cycle  12  Pass 1  IDiag  1:
 E= -504.832927931629     Delta-E=       -0.000000060410 Rises=F Damp=F
 DIIS: error= 5.08D-06 at cycle   4 NSaved=   4.
 NSaved= 4 IEnMin= 4 EnMin= -504.832927931629     IErMin= 4 ErrMin= 5.08D-06
 ErrMax= 5.08D-06 EMaxC= 1.00D-01 BMatC= 4.38D-08 BMatP= 2.32D-07
 IDIUse=1 WtCom= 1.00D+00 WtEn= 0.00D+00
 Coeff-Com: -0.712D-01 0.995D-01 0.377D+00 0.595D+00
 Coeff:     -0.712D-01 0.995D-01 0.377D+00 0.595D+00
 Gap=     0.266 Goal=   None    Shift=    0.000
 Gap=     0.148 Goal=   None    Shift=    0.000
 RMSDP=4.47D-07 MaxDP=1.68D-05 DE=-6.04D-08 OVMax= 1.32D-04

 Cycle  13  Pass 1  IDiag  1:
 E= -504.832927946908     Delta-E=       -0.000000015279 Rises=F Damp=F
 DIIS: error= 2.88D-06 at cycle   5 NSaved=   5.
 NSaved= 5 IEnMin= 5 EnMin= -504.832927946908     IErMin= 5 ErrMin= 2.88D-06
 ErrMax= 2.88D-06 EMaxC= 1.00D-01 BMatC= 1.16D-08 BMatP= 4.38D-08
 IDIUse=1 WtCom= 1.00D+00 WtEn= 0.00D+00
 Coeff-Com: -0.345D-01-0.367D-01-0.183D-01 0.326D+00 0.763D+00
 Coeff:     -0.345D-01-0.367D-01-0.183D-01 0.326D+00 0.763D+00
 Gap=     0.266 Goal=   None    Shift=    0.000
 Gap=     0.148 Goal=   None    Shift=    0.000
 RMSDP=2.92D-07 MaxDP=1.22D-05 DE=-1.53D-08 OVMax= 7.86D-05

 Cycle  14  Pass 1  IDiag  1:
 E= -504.832927951903     Delta-E=       -0.000000004995 Rises=F Damp=F
 DIIS: error= 2.20D-06 at cycle   6 NSaved=   6.
 NSaved= 6 IEnMin= 6 EnMin= -504.832927951903     IErMin= 6 ErrMin= 2.20D-06
 ErrMax= 2.20D-06 EMaxC= 1.00D-01 BMatC= 4.19D-09 BMatP= 1.16D-08
 IDIUse=1 WtCom= 1.00D+00 WtEn= 0.00D+00
 Coeff-Com:  0.156D-02-0.625D-01-0.156D+00 0.196D-01 0.515D+00 0.682D+00
 Coeff:      0.156D-02-0.625D-01-0.156D+00 0.196D-01 0.515D+00 0.682D+00
 Gap=     0.266 Goal=   None    Shift=    0.000
 Gap=     0.148 Goal=   None    Shift=    0.000
 RMSDP=1.78D-07 MaxDP=7.94D-06 DE=-5.00D-09 OVMax= 4.29D-05

 Cycle  15  Pass 1  IDiag  1:
 E= -504.832927953255     Delta-E=       -0.000000001352 Rises=F Damp=F
 DIIS: error= 9.57D-07 at cycle   7 NSaved=   7.
 NSaved= 7 IEnMin= 7 EnMin= -504.832927953255     IErMin= 7 ErrMin= 9.57D-07
 ErrMax= 9.57D-07 EMaxC= 1.00D-01 BMatC= 1.08D-09 BMatP= 4.19D-09
 IDIUse=1 WtCom= 1.00D+00 WtEn= 0.00D+00
 Coeff-Com:  0.593D-02-0.351D-01-0.975D-01-0.311D-01 0.239D+00 0.459D+00
 Coeff-Com:  0.460D+00
 Coeff:      0.593D-02-0.351D-01-0.975D-01-0.311D-01 0.239D+00 0.459D+00
 Coeff:      0.460D+00
 Gap=     0.266 Goal=   None    Shift=    0.000
 Gap=     0.148 Goal=   None    Shift=    0.000
 RMSDP=5.01D-08 MaxDP=1.95D-06 DE=-1.35D-09 OVMax= 1.38D-05

 Cycle  16  Pass 1  IDiag  1:
 E= -504.832927953500     Delta-E=       -0.000000000245 Rises=F Damp=F
 DIIS: error= 1.42D-07 at cycle   8 NSaved=   8.
 NSaved= 8 IEnMin= 8 EnMin= -504.832927953500     IErMin= 8 ErrMin= 1.42D-07
 ErrMax= 1.42D-07 EMaxC= 1.00D-01 BMatC= 2.92D-11 BMatP= 1.08D-09
 IDIUse=1 WtCom= 1.00D+00 WtEn= 0.00D+00
 Coeff-Com:  0.154D-02-0.346D-02-0.962D-02-0.149D-01 0.125D-01 0.477D-01
 Coeff-Com:  0.122D+00 0.844D+00
 Coeff:      0.154D-02-0.346D-02-0.962D-02-0.149D-01 0.125D-01 0.477D-01
 Coeff:      0.122D+00 0.844D+00
 Gap=     0.266 Goal=   None    Shift=    0.000
 Gap=     0.148 Goal=   None    Shift=    0.000
 RMSDP=1.69D-08 MaxDP=6.27D-07 DE=-2.45D-10 OVMax= 4.94D-06

 Cycle  17  Pass 1  IDiag  1:
 E= -504.832927953510     Delta-E=       -0.000000000010 Rises=F Damp=F
 DIIS: error= 9.50D-08 at cycle   9 NSaved=   9.
 NSaved= 9 IEnMin= 9 EnMin= -504.832927953510     IErMin= 9 ErrMin= 9.50D-08
 ErrMax= 9.50D-08 EMaxC= 1.00D-01 BMatC= 1.05D-11 BMatP= 2.92D-11
 IDIUse=1 WtCom= 1.00D+00 WtEn= 0.00D+00
 Coeff-Com: -0.719D-03 0.612D-02 0.181D-01-0.684D-03-0.452D-01-0.801D-01
 Coeff-Com: -0.601D-01 0.379D+00 0.783D+00
 Coeff:     -0.719D-03 0.612D-02 0.181D-01-0.684D-03-0.452D-01-0.801D-01
 Coeff:     -0.601D-01 0.379D+00 0.783D+00
 Gap=     0.266 Goal=   None    Shift=    0.000
 Gap=     0.148 Goal=   None    Shift=    0.000
 RMSDP=8.83D-09 MaxDP=4.09D-07 DE=-1.02D-11 OVMax= 1.97D-06

 SCF Done:  E(UB3LYP) =  -504.832927954     A.U. after   17 cycles
             Convg  =    0.8828D-08             -V/T =  2.0043
 <Sx>= 0.0000 <Sy>= 0.0000 <Sz>= 0.5000 <S**2>= 0.7567 S= 0.5034
 <L.S>= 0.000000000000E+00
 KE= 5.026796177029D+02 PE=-2.531431076057D+03 EE= 8.463002727584D+02
 Annihilation of the first spin contaminant:
 S**2 before annihilation     0.7567,   after     0.7500
 Leave Link  502 at Thu Feb 20 01:59:50 2014, MaxMem= 4026531840 cpu:     778.2
 (Enter /usr/caen/gaussian-09revc/g09/l801.exe)
 Range of M.O.s used for correlation:     1   312
 NBasis=   312 NAE=    45 NBE=    44 NFC=     0 NFV=     0
 NROrb=    312 NOA=    45 NOB=    44 NVA=   267 NVB=   268
 Leave Link  801 at Thu Feb 20 01:59:51 2014, MaxMem= 4026531840 cpu:       0.4
 (Enter /usr/caen/gaussian-09revc/g09/l1101.exe)
 Using compressed storage, NAtomX=    30.
 Will process  31 centers per pass.
 Leave Link 1101 at Thu Feb 20 01:59:53 2014, MaxMem= 4026531840 cpu:      11.5
 (Enter /usr/caen/gaussian-09revc/g09/l1102.exe)
 Symmetrizing basis deriv contribution to polar:
 IMax=3 JMax=2 DiffMx= 0.00D+00
 Leave Link 1102 at Thu Feb 20 01:59:53 2014, MaxMem= 4026531840 cpu:       0.7
 (Enter /usr/caen/gaussian-09revc/g09/l1110.exe)
 Forming Gx(P) for the SCF density, NAtomX=    30.
 Integral derivatives from FoFDir/FoFCou, PRISM(SPDF).
 Do as many integral derivatives as possible in FoFDir.
 G2DrvN: MDV=    4026531496.
 G2DrvN: will do    31 centers at a time, making    1 passes doing MaxLOS=2.
 Calling FoFCou, ICntrl=  3107 FMM=F I1Cent=   0 AccDes= 0.00D+00.
 FoFCou: FMM=F IPFlag=           0 FMFlag=      100000 FMFlg1=           0
         NFxFlg=           0 DoJE=F BraDBF=F KetDBF=F FulRan=T
         Omega=  0.000000  0.000000  1.000000  0.000000  0.000000 ICntrl=    3107 IOpCl=  1
         NMat0=    1 NMatS0=    1 NMatT0=    0 NMatD0=    1 NMtDS0=    0 NMtDT0=    0
         I1Cent=           0 NGrid=           0.
 Symmetry not used in FoFCou.
 FoFDir/FoFCou used for L=0 through L=2.
 End of G2Drv Frequency-dependent properties file   721 does not exist.
 End of G2Drv Frequency-dependent properties file   722 does not exist.
 Leave Link 1110 at Thu Feb 20 02:02:16 2014, MaxMem= 4026531840 cpu:    1141.2
 (Enter /usr/caen/gaussian-09revc/g09/l1002.exe)
 Minotr:  UHF open shell wavefunction.
          IDoAtm=111111111111111111111111111111
          Direct CPHF calculation.
          Differentiating once with respect to nuclear coordinates.
          Requested convergence is 1.0D-06 RMS, and 1.0D-05 maximum.
          Secondary convergence is 1.0D-12 RMS, and 1.0D-12 maximum.
          NewPWx=T KeepS1=F KeepF1=F KeepIn=T MapXYZ=F SortEE=F KeepMc=T.
          MDV=    4026531536 using IRadAn=       2.
 Generate precomputed XC quadrature information.
          Keep R1 and R2 ints in memory in canonical form, NReq=2738891878.
 Symmetry not used in FoFDir.
 MinBra= 0 MaxBra= 2 Meth= 1.
 IRaf=       0 NMat=   1 IRICut=       1 DoRegI=T DoRafI=F ISym2E= 0 JSym2E=0.
          Solving linear equations simultaneously, MaxMat=       0.
          There are    93 degrees of freedom in the 1st order CPHF.  IDoFFX=5.
     87 vectors produced by pass  0 Test12= 2.56D-10 1.08D-07 XBig12= 4.09D-01 3.33D-01.
 AX will form    87 AO Fock derivatives at one time.
     87 vectors produced by pass  1 Test12= 2.56D-10 1.08D-07 XBig12= 1.26D-02 1.87D-02.
     87 vectors produced by pass  2 Test12= 2.56D-10 1.08D-07 XBig12= 8.56D-05 1.32D-03.
     87 vectors produced by pass  3 Test12= 2.56D-10 1.08D-07 XBig12= 6.92D-07 1.04D-04.
     71 vectors produced by pass  4 Test12= 2.56D-10 1.08D-07 XBig12= 3.27D-09 4.44D-06.
      5 vectors produced by pass  5 Test12= 2.56D-10 1.08D-07 XBig12= 1.40D-11 2.67D-07.
 Inverted reduced A of dimension   424 with in-core refinement.
 End of Minotr Frequency-dependent properties file   721 does not exist.
 End of Minotr Frequency-dependent properties file   722 does not exist.
 Leave Link 1002 at Thu Feb 20 02:06:14 2014, MaxMem= 4026531840 cpu:    1744.1
 (Enter /usr/caen/gaussian-09revc/g09/l601.exe)
 Copying SCF densities to generalized density rwf, IOpCl= 1 IROHF=0.

 **********************************************************************

            Population analysis using the SCF density.

 **********************************************************************

 Orbital symmetries:
 Alpha Orbitals:
       Occupied  (A) (A) (A) (A) (A) (A) (A) (A) (A) (A) (A) (A)
                 (A) (A) (A) (A) (A) (A) (A) (A) (A) (A) (A) (A)
                 (A) (A) (A) (A) (A) (A) (A) (A) (A) (A) (A) (A)
                 (A) (A) (A) (A) (A) (A) (A) (A) (A)
       Virtual   (A) (A) (A) (A) (A) (A) (A) (A) (A) (A) (A) (A)
                 (A) (A) (A) (A) (A) (A) (A) (A) (A) (A) (A) (A)
                 (A) (A) (A) (A) (A) (A) (A) (A) (A) (A) (A) (A)
                 (A) (A) (A) (A) (A) (A) (A) (A) (A) (A) (A) (A)
                 (A) (A) (A) (A) (A) (A) (A) (A) (A) (A) (A) (A)
                 (A) (A) (A) (A) (A) (A) (A) (A) (A) (A) (A) (A)
                 (A) (A) (A) (A) (A) (A) (A) (A) (A) (A) (A) (A)
                 (A) (A) (A) (A) (A) (A) (A) (A) (A) (A) (A) (A)
                 (A) (A) (A) (A) (A) (A) (A) (A) (A) (A) (A) (A)
                 (A) (A) (A) (A) (A) (A) (A) (A) (A) (A) (A) (A)
                 (A) (A) (A) (A) (A) (A) (A) (A) (A) (A) (A) (A)
                 (A) (A) (A) (A) (A) (A) (A) (A) (A) (A) (A) (A)
                 (A) (A) (A) (A) (A) (A) (A) (A) (A) (A) (A) (A)
                 (A) (A) (A) (A) (A) (A) (A) (A) (A) (A) (A) (A)
                 (A) (A) (A) (A) (A) (A) (A) (A) (A) (A) (A) (A)
                 (A) (A) (A) (A) (A) (A) (A) (A) (A) (A) (A) (A)
                 (A) (A) (A) (A) (A) (A) (A) (A) (A) (A) (A) (A)
                 (A) (A) (A) (A) (A) (A) (A) (A) (A) (A) (A) (A)
                 (A) (A) (A) (A) (A) (A) (A) (A) (A) (A) (A) (A)
                 (A) (A) (A) (A) (A) (A) (A) (A) (A) (A) (A) (A)
                 (A) (A) (A) (A) (A) (A) (A) (A) (A) (A) (A) (A)
                 (A) (A) (A) (A) (A) (A) (A) (A) (A) (A) (A) (A)
                 (A) (A) (A)
 Beta  Orbitals:
       Occupied  (A) (A) (A) (A) (A) (A) (A) (A) (A) (A) (A) (A)
                 (A) (A) (A) (A) (A) (A) (A) (A) (A) (A) (A) (A)
                 (A) (A) (A) (A) (A) (A) (A) (A) (A) (A) (A) (A)
                 (A) (A) (A) (A) (A) (A) (A) (A)
       Virtual   (A) (A) (A) (A) (A) (A) (A) (A) (A) (A) (A) (A)
                 (A) (A) (A) (A) (A) (A) (A) (A) (A) (A) (A) (A)
                 (A) (A) (A) (A) (A) (A) (A) (A) (A) (A) (A) (A)
                 (A) (A) (A) (A) (A) (A) (A) (A) (A) (A) (A) (A)
                 (A) (A) (A) (A) (A) (A) (A) (A) (A) (A) (A) (A)
                 (A) (A) (A) (A) (A) (A) (A) (A) (A) (A) (A) (A)
                 (A) (A) (A) (A) (A) (A) (A) (A) (A) (A) (A) (A)
                 (A) (A) (A) (A) (A) (A) (A) (A) (A) (A) (A) (A)
                 (A) (A) (A) (A) (A) (A) (A) (A) (A) (A) (A) (A)
                 (A) (A) (A) (A) (A) (A) (A) (A) (A) (A) (A) (A)
                 (A) (A) (A) (A) (A) (A) (A) (A) (A) (A) (A) (A)
                 (A) (A) (A) (A) (A) (A) (A) (A) (A) (A) (A) (A)
                 (A) (A) (A) (A) (A) (A) (A) (A) (A) (A) (A) (A)
                 (A) (A) (A) (A) (A) (A) (A) (A) (A) (A) (A) (A)
                 (A) (A) (A) (A) (A) (A) (A) (A) (A) (A) (A) (A)
                 (A) (A) (A) (A) (A) (A) (A) (A) (A) (A) (A) (A)
                 (A) (A) (A) (A) (A) (A) (A) (A) (A) (A) (A) (A)
                 (A) (A) (A) (A) (A) (A) (A) (A) (A) (A) (A) (A)
                 (A) (A) (A) (A) (A) (A) (A) (A) (A) (A) (A) (A)
                 (A) (A) (A) (A) (A) (A) (A) (A) (A) (A) (A) (A)
                 (A) (A) (A) (A) (A) (A) (A) (A) (A) (A) (A) (A)
                 (A) (A) (A) (A) (A) (A) (A) (A) (A) (A) (A) (A)
                 (A) (A) (A) (A)
 The electronic state is 2-A.
 Alpha  occ. eigenvalues --  -19.17577 -19.16808 -10.22612 -10.19085 -10.18801
 Alpha  occ. eigenvalues --  -10.17720 -10.17192 -10.17016 -10.16414 -10.15605
 Alpha  occ. eigenvalues --  -10.15393  -1.12280  -0.89210  -0.82667  -0.80515
 Alpha  occ. eigenvalues --   -0.74342  -0.69802  -0.68562  -0.68263  -0.61135
 Alpha  occ. eigenvalues --   -0.57316  -0.56138  -0.51293  -0.50160  -0.48355
 Alpha  occ. eigenvalues --   -0.46177  -0.45004  -0.43584  -0.43166  -0.42650
 Alpha  occ. eigenvalues --   -0.40853  -0.40294  -0.39227  -0.38426  -0.37741
 Alpha  occ. eigenvalues --   -0.36888  -0.35998  -0.35425  -0.33967  -0.33090
 Alpha  occ. eigenvalues --   -0.32614  -0.32037  -0.29060  -0.27341  -0.23223
 Alpha virt. eigenvalues --    0.03348   0.04482   0.04729   0.06114   0.06673
 Alpha virt. eigenvalues --    0.08024   0.08125   0.08919   0.10190   0.10435
 Alpha virt. eigenvalues --    0.10693   0.11494   0.12146   0.13044   0.13897
 Alpha virt. eigenvalues --    0.14089   0.14897   0.15822   0.16161   0.17681
 Alpha virt. eigenvalues --    0.18491   0.20485   0.20823   0.21068   0.22786
 Alpha virt. eigenvalues --    0.23644   0.24580   0.25406   0.25880   0.29038
 Alpha virt. eigenvalues --    0.29661   0.30266   0.31098   0.33384   0.34484
 Alpha virt. eigenvalues --    0.35176   0.35726   0.37378   0.39293   0.41021
 Alpha virt. eigenvalues --    0.41521   0.45084   0.45806   0.46344   0.48401
 Alpha virt. eigenvalues --    0.49563   0.51144   0.52549   0.53062   0.54766
 Alpha virt. eigenvalues --    0.55906   0.56296   0.56686   0.56879   0.57422
 Alpha virt. eigenvalues --    0.58036   0.58332   0.58593   0.59219   0.59342
 Alpha virt. eigenvalues --    0.59729   0.60332   0.60928   0.61422   0.61636
 Alpha virt. eigenvalues --    0.62698   0.63082   0.63664   0.65347   0.65512
 Alpha virt. eigenvalues --    0.66465   0.67606   0.70047   0.71960   0.76516
 Alpha virt. eigenvalues --    0.77949   0.79700   0.82030   0.85318   0.88261
 Alpha virt. eigenvalues --    0.91257   0.91399   0.94366   0.95674   0.96678
 Alpha virt. eigenvalues --    0.98879   0.99971   1.02050   1.03847   1.05368
 Alpha virt. eigenvalues --    1.10209   1.11180   1.15740   1.16803   1.19435
 Alpha virt. eigenvalues --    1.21606   1.23548   1.24438   1.25941   1.27244
 Alpha virt. eigenvalues --    1.33286   1.36083   1.37480   1.38358   1.38970
 Alpha virt. eigenvalues --    1.40446   1.42808   1.43634   1.44268   1.45153
 Alpha virt. eigenvalues --    1.45795   1.46427   1.47921   1.48171   1.48866
 Alpha virt. eigenvalues --    1.50475   1.51094   1.51796   1.52266   1.53169
 Alpha virt. eigenvalues --    1.55617   1.56021   1.56969   1.57657   1.58318
 Alpha virt. eigenvalues --    1.59618   1.60643   1.61654   1.62011   1.64048
 Alpha virt. eigenvalues --    1.65946   1.67260   1.67835   1.69910   1.70793
 Alpha virt. eigenvalues --    1.71183   1.74707   1.75320   1.76440   1.77828
 Alpha virt. eigenvalues --    1.78394   1.79260   1.80267   1.80862   1.82197
 Alpha virt. eigenvalues --    1.87874   1.89305   1.91270   1.91833   1.94457
 Alpha virt. eigenvalues --    1.95975   1.97351   1.98603   2.02301   2.03932
 Alpha virt. eigenvalues --    2.05594   2.06217   2.08936   2.09710   2.10375
 Alpha virt. eigenvalues --    2.12909   2.14536   2.15764   2.16190   2.19110
 Alpha virt. eigenvalues --    2.19800   2.22522   2.24175   2.25004   2.27777
 Alpha virt. eigenvalues --    2.29691   2.31242   2.35122   2.36969   2.37927
 Alpha virt. eigenvalues --    2.40027   2.41575   2.43359   2.43478   2.45045
 Alpha virt. eigenvalues --    2.46501   2.47736   2.48174   2.48686   2.49576
 Alpha virt. eigenvalues --    2.50090   2.50416   2.51082   2.52661   2.54151
 Alpha virt. eigenvalues --    2.55380   2.55666   2.56460   2.57667   2.59541
 Alpha virt. eigenvalues --    2.60454   2.61767   2.64370   2.65928   2.66896
 Alpha virt. eigenvalues --    2.68266   2.69050   2.70416   2.71392   2.74313
 Alpha virt. eigenvalues --    2.75121   2.76387   2.76996   2.81248   2.83648
 Alpha virt. eigenvalues --    2.84891   2.86918   2.88322   2.90473   2.91802
 Alpha virt. eigenvalues --    2.95206   2.97724   3.00773   3.03525   3.07705
 Alpha virt. eigenvalues --    3.08626   3.11189   3.13513   3.15095   3.23640
 Alpha virt. eigenvalues --    3.25689   3.39426   3.40789   3.44297   3.50710
 Alpha virt. eigenvalues --    3.67812   3.74195   3.76472   3.77726   3.78287
 Alpha virt. eigenvalues --    3.78700   3.79888   3.80926   3.81275   3.84606
 Alpha virt. eigenvalues --    3.85603   3.92050   3.95695   3.99328   4.13708
 Alpha virt. eigenvalues --    4.21356   4.24313   4.30031   4.30261   4.38301
 Alpha virt. eigenvalues --    4.73869   4.89695   4.96921   5.22731   5.31465
 Alpha virt. eigenvalues --    5.78840  23.76228  23.79547  23.81555  23.82853
 Alpha virt. eigenvalues --   23.88337  23.90674  23.92492  23.93640  23.94610
 Alpha virt. eigenvalues --   49.78937  49.85956
  Beta  occ. eigenvalues --  -19.17407 -19.15660 -10.22620 -10.19112 -10.17830
  Beta  occ. eigenvalues --  -10.17684 -10.17105 -10.17016 -10.16413 -10.15605
  Beta  occ. eigenvalues --  -10.15393  -1.11051  -0.87656  -0.82060  -0.80398
  Beta  occ. eigenvalues --   -0.74042  -0.68754  -0.68280  -0.67815  -0.60771
  Beta  occ. eigenvalues --   -0.56900  -0.55997  -0.50231  -0.49354  -0.47868
  Beta  occ. eigenvalues --   -0.45916  -0.44276  -0.43326  -0.42909  -0.42224
  Beta  occ. eigenvalues --   -0.40505  -0.39189  -0.38673  -0.38221  -0.37578
  Beta  occ. eigenvalues --   -0.36518  -0.35863  -0.35079  -0.33798  -0.32718
  Beta  occ. eigenvalues --   -0.32519  -0.31849  -0.27762  -0.26161
  Beta virt. eigenvalues --   -0.11370   0.03478   0.04640   0.05127   0.06444
  Beta virt. eigenvalues --    0.06726   0.08126   0.08356   0.08975   0.10229
  Beta virt. eigenvalues --    0.10548   0.10760   0.11555   0.12252   0.13149
  Beta virt. eigenvalues --    0.13986   0.14199   0.14932   0.15943   0.16207
  Beta virt. eigenvalues --    0.17747   0.18797   0.20597   0.21188   0.21337
  Beta virt. eigenvalues --    0.22902   0.24000   0.24855   0.25521   0.26188
  Beta virt. eigenvalues --    0.29395   0.29755   0.30425   0.31312   0.33553
  Beta virt. eigenvalues --    0.34676   0.35306   0.35805   0.37704   0.39659
  Beta virt. eigenvalues --    0.41132   0.41713   0.45206   0.46045   0.46724
  Beta virt. eigenvalues --    0.48537   0.49742   0.51467   0.53126   0.53657
  Beta virt. eigenvalues --    0.55036   0.56240   0.56365   0.57086   0.57360
  Beta virt. eigenvalues --    0.57599   0.58245   0.58632   0.58755   0.59476
  Beta virt. eigenvalues --    0.59551   0.59858   0.60360   0.61099   0.61646
  Beta virt. eigenvalues --    0.61699   0.62780   0.63134   0.63936   0.65428
  Beta virt. eigenvalues --    0.65755   0.66716   0.67650   0.70226   0.72101
  Beta virt. eigenvalues --    0.76741   0.78176   0.79858   0.82694   0.85650
  Beta virt. eigenvalues --    0.88573   0.91638   0.92130   0.94834   0.96021
  Beta virt. eigenvalues --    0.96864   0.99044   1.00266   1.02268   1.04177
  Beta virt. eigenvalues --    1.05660   1.10601   1.11377   1.15930   1.17034
  Beta virt. eigenvalues --    1.19599   1.21816   1.23789   1.24624   1.26286
  Beta virt. eigenvalues --    1.27342   1.33562   1.36315   1.37930   1.38447
  Beta virt. eigenvalues --    1.39073   1.40561   1.43124   1.43689   1.44365
  Beta virt. eigenvalues --    1.45518   1.45927   1.46468   1.48127   1.48909
  Beta virt. eigenvalues --    1.49044   1.50552   1.51184   1.52304   1.52445
  Beta virt. eigenvalues --    1.53258   1.55816   1.56116   1.57020   1.57867
  Beta virt. eigenvalues --    1.58463   1.59818   1.60739   1.61696   1.62259
  Beta virt. eigenvalues --    1.64297   1.66367   1.67294   1.68008   1.70182
  Beta virt. eigenvalues --    1.70927   1.71341   1.74826   1.75403   1.76712
  Beta virt. eigenvalues --    1.77927   1.78616   1.79314   1.80353   1.81081
  Beta virt. eigenvalues --    1.82343   1.88057   1.89380   1.91401   1.91969
  Beta virt. eigenvalues --    1.94501   1.96424   1.97509   1.99075   2.02406
  Beta virt. eigenvalues --    2.04054   2.06050   2.06684   2.09168   2.10123
  Beta virt. eigenvalues --    2.10631   2.12919   2.14817   2.15878   2.16403
  Beta virt. eigenvalues --    2.19156   2.20686   2.23173   2.24222   2.25441
  Beta virt. eigenvalues --    2.28262   2.29999   2.31281   2.35146   2.37054
  Beta virt. eigenvalues --    2.37969   2.40189   2.41738   2.43624   2.43898
  Beta virt. eigenvalues --    2.45090   2.46667   2.47883   2.48315   2.48899
  Beta virt. eigenvalues --    2.49596   2.50239   2.50454   2.51109   2.52721
  Beta virt. eigenvalues --    2.54275   2.55439   2.55683   2.56658   2.57737
  Beta virt. eigenvalues --    2.59606   2.61074   2.62089   2.64386   2.65939
  Beta virt. eigenvalues --    2.67093   2.68437   2.69291   2.70684   2.71531
  Beta virt. eigenvalues --    2.74468   2.75296   2.76510   2.77268   2.81384
  Beta virt. eigenvalues --    2.83779   2.85053   2.86974   2.88374   2.90607
  Beta virt. eigenvalues --    2.91918   2.95252   2.99067   3.00960   3.03952
  Beta virt. eigenvalues --    3.08014   3.09312   3.11243   3.13903   3.15524
  Beta virt. eigenvalues --    3.25159   3.26533   3.41006   3.41519   3.44879
  Beta virt. eigenvalues --    3.50792   3.68358   3.75257   3.76765   3.77731
  Beta virt. eigenvalues --    3.78316   3.79025   3.79965   3.81138   3.81371
  Beta virt. eigenvalues --    3.84804   3.87440   3.92580   3.95802   3.99577
  Beta virt. eigenvalues --    4.13814   4.21470   4.25061   4.30052   4.30362
  Beta virt. eigenvalues --    4.38323   4.74408   4.90593   4.97765   5.24398
  Beta virt. eigenvalues --    5.33545   5.79600  23.76224  23.80170  23.81796
  Beta virt. eigenvalues --   23.82854  23.88427  23.90740  23.92655  23.93656
  Beta virt. eigenvalues --   23.94615  49.79906  49.86298
          Condensed to atoms (all electrons):
              1          2          3          4          5          6
     1  C    4.861373   0.403846   0.399858   0.403285   0.376957  -0.039796
     2  H    0.403846   0.579814  -0.031271  -0.027082  -0.033409  -0.006127
     3  H    0.399858  -0.031271   0.602900  -0.032025  -0.038297   0.008809
     4  H    0.403285  -0.027082  -0.032025   0.585682  -0.033784  -0.006052
     5  C    0.376957  -0.033409  -0.038297  -0.033784   5.044005   0.412494
     6  H   -0.039796  -0.006127   0.008809  -0.006052   0.412494   0.583313
     7  C   -0.064239  -0.005425  -0.006560   0.008532   0.349702  -0.047223
     8  H   -0.006470   0.004090  -0.000574   0.000201  -0.034224  -0.004071
     9  H   -0.003945  -0.000386   0.004437  -0.000348  -0.040068   0.009545
    10  C   -0.000233  -0.000026  -0.000019   0.000012   0.007885   0.001093
    11  H    0.000007   0.000001  -0.000003   0.000000  -0.000375  -0.000099
    12  H   -0.000037  -0.000006   0.000012   0.000003   0.000194  -0.000030
    13  C    0.000005   0.000000   0.000000   0.000000  -0.000335  -0.000013
    14  H    0.000001   0.000000   0.000000   0.000000  -0.000017  -0.000028
    15  C   -0.000001   0.000000   0.000000   0.000000   0.000002   0.000025
    16  H    0.000000   0.000000   0.000000   0.000000   0.000000  -0.000004
    17  H    0.000000   0.000000   0.000000   0.000000  -0.000001  -0.000001
    18  H   -0.000002   0.000001  -0.000001   0.000000  -0.000002   0.000246
    19  C   -0.065971   0.008351  -0.006330  -0.005070   0.360893  -0.043144
    20  H   -0.005349  -0.000193   0.005308  -0.000674  -0.040447   0.008849
    21  H   -0.006013   0.000039  -0.000580   0.003964  -0.031832  -0.005849
    22  H    0.008064  -0.000512  -0.000200   0.000035  -0.031839  -0.005389
    23  C    0.000000   0.000000   0.000000   0.000000   0.000004   0.000000
    24  H    0.000000   0.000000   0.000000   0.000000   0.000000   0.000000
    25  H    0.000000   0.000000   0.000000   0.000000   0.000000   0.000000
    26  H    0.000000   0.000000   0.000000   0.000000   0.000000   0.000000
    27  C    0.007355   0.000102  -0.000072  -0.000396  -0.048715  -0.011585
    28  H    0.000060  -0.000024   0.000017   0.000009  -0.006050  -0.000161
    29  O   -0.000037   0.000053  -0.000010   0.000003  -0.002265   0.014518
    30  O   -0.000079  -0.000085  -0.000001  -0.000001  -0.000245   0.000170
              7          8          9         10         11         12
     1  C   -0.064239  -0.006470  -0.003945  -0.000233   0.000007  -0.000037
     2  H   -0.005425   0.004090  -0.000386  -0.000026   0.000001  -0.000006
     3  H   -0.006560  -0.000574   0.004437  -0.000019  -0.000003   0.000012
     4  H    0.008532   0.000201  -0.000348   0.000012   0.000000   0.000003
     5  C    0.349702  -0.034224  -0.040068   0.007885  -0.000375   0.000194
     6  H   -0.047223  -0.004071   0.009545   0.001093  -0.000099  -0.000030
     7  C    5.035441   0.401807   0.391606  -0.079279  -0.001002  -0.003896
     8  H    0.401807   0.561114  -0.031525  -0.008901   0.000205   0.004525
     9  H    0.391606  -0.031525   0.611230   0.000789   0.001186  -0.000406
    10  C   -0.079279  -0.008901   0.000789   5.071631   0.395002   0.408965
    11  H   -0.001002   0.000205   0.001186   0.395002   0.580733  -0.029424
    12  H   -0.003896   0.004525  -0.000406   0.408965  -0.029424   0.572918
    13  C    0.009330  -0.000591   0.000136   0.320701  -0.034443  -0.046613
    14  H    0.001066   0.000016  -0.000085  -0.053094  -0.001494   0.007806
    15  C   -0.000854   0.000677   0.000024  -0.057811   0.007629  -0.005042
    16  H    0.000103  -0.000031  -0.000016  -0.005249  -0.000154   0.004337
    17  H    0.000015   0.000005  -0.000002   0.007362  -0.000431   0.000273
    18  H    0.000263  -0.000999   0.000016  -0.002837  -0.000162  -0.003504
    19  C   -0.067343   0.007545  -0.008388  -0.000463   0.000122  -0.000016
    20  H   -0.006123  -0.000050   0.005584  -0.000105   0.000021   0.000007
    21  H    0.008232  -0.000387  -0.000087   0.000010  -0.000004   0.000002
    22  H   -0.006221  -0.000271  -0.000003   0.000062   0.000004  -0.000017
    23  C   -0.000164   0.000016  -0.000056  -0.060611  -0.005791  -0.001805
    24  H    0.000013   0.000001   0.000001   0.008350   0.000455  -0.000494
    25  H    0.000005  -0.000023   0.000011  -0.006190  -0.000740   0.003526
    26  H   -0.000030  -0.000001  -0.000008  -0.005723   0.003942  -0.000335
    27  C    0.349731  -0.034679  -0.040850   0.334356  -0.028877  -0.040910
    28  H   -0.039388   0.008344  -0.002498  -0.031212  -0.006613   0.007693
    29  O   -0.049292  -0.008298   0.004581  -0.047988   0.003882  -0.000215
    30  O   -0.007680   0.018529  -0.000353   0.013679   0.000296   0.003705
             13         14         15         16         17         18
     1  C    0.000005   0.000001  -0.000001   0.000000   0.000000  -0.000002
     2  H    0.000000   0.000000   0.000000   0.000000   0.000000   0.000001
     3  H    0.000000   0.000000   0.000000   0.000000   0.000000  -0.000001
     4  H    0.000000   0.000000   0.000000   0.000000   0.000000   0.000000
     5  C   -0.000335  -0.000017   0.000002   0.000000  -0.000001  -0.000002
     6  H   -0.000013  -0.000028   0.000025  -0.000004  -0.000001   0.000246
     7  C    0.009330   0.001066  -0.000854   0.000103   0.000015   0.000263
     8  H   -0.000591   0.000016   0.000677  -0.000031   0.000005  -0.000999
     9  H    0.000136  -0.000085   0.000024  -0.000016  -0.000002   0.000016
    10  C    0.320701  -0.053094  -0.057811  -0.005249   0.007362  -0.002837
    11  H   -0.034443  -0.001494   0.007629  -0.000154  -0.000431  -0.000162
    12  H   -0.046613   0.007806  -0.005042   0.004337   0.000273  -0.003504
    13  C    5.085291   0.413658   0.334368  -0.039171  -0.031155  -0.006585
    14  H    0.413658   0.579940  -0.039180   0.008101  -0.007751  -0.003090
    15  C    0.334368  -0.039180   5.192150   0.389685   0.391988   0.208846
    16  H   -0.039171   0.008101   0.389685   0.558751  -0.028769  -0.012164
    17  H   -0.031155  -0.007751   0.391988  -0.028769   0.542872  -0.008752
    18  H   -0.006585  -0.003090   0.208846  -0.012164  -0.008752   0.450486
    19  C    0.000009  -0.000009   0.000000   0.000000   0.000000   0.000004
    20  H    0.000002   0.000001   0.000000   0.000000   0.000000  -0.000001
    21  H   -0.000001   0.000000   0.000000   0.000000   0.000000  -0.000001
    22  H    0.000016  -0.000015  -0.000002   0.000000   0.000000   0.000008
    23  C    0.359206  -0.040276  -0.067921  -0.005221  -0.000609   0.002607
    24  H   -0.035022  -0.005961  -0.002415  -0.000511   0.002629  -0.000109
    25  H   -0.033623   0.008615  -0.006539   0.004804  -0.000504  -0.000064
    26  H   -0.033593  -0.005737   0.008846   0.000018  -0.000208  -0.000187
    27  C   -0.044684  -0.002495  -0.010777   0.000051  -0.000206   0.005545
    28  H   -0.006481   0.001668   0.001163   0.000005   0.000088  -0.002074
    29  O    0.002854   0.006929   0.004680   0.000780   0.000093  -0.039901
    30  O   -0.013726  -0.000129  -0.065495   0.001479   0.001233   0.164629
             19         20         21         22         23         24
     1  C   -0.065971  -0.005349  -0.006013   0.008064   0.000000   0.000000
     2  H    0.008351  -0.000193   0.000039  -0.000512   0.000000   0.000000
     3  H   -0.006330   0.005308  -0.000580  -0.000200   0.000000   0.000000
     4  H   -0.005070  -0.000674   0.003964   0.000035   0.000000   0.000000
     5  C    0.360893  -0.040447  -0.031832  -0.031839   0.000004   0.000000
     6  H   -0.043144   0.008849  -0.005849  -0.005389   0.000000   0.000000
     7  C   -0.067343  -0.006123   0.008232  -0.006221  -0.000164   0.000013
     8  H    0.007545  -0.000050  -0.000387  -0.000271   0.000016   0.000001
[...]
 .00019450,0.00041196,-0.00007599,-0.00010662,0.00007928,0.00002796,0.0
 1740385,0.00432949,0.01012343,-0.00088636,0.00064802,0.00010910,0.0011
 3905,0.00088069,0.00058938,-0.00001133,-0.00005544,0.00006113,0.000035
 78,-0.00016895,-0.00023817,-0.00052950,0.00022725,0.00005540,-0.000001
 82,-0.00001507,0.00000142,0.00000288,0.00000066,0.00000390,0.00000121,
 0.00000491,-0.00000143,-0.00000275,-0.00000036,-0.00000203,-0.06236511
 ,-0.06670414,-0.03083496,0.06562382,0.07035178,0.00000763,-0.00000156,
 -0.00000663,0.00000057,-0.00000046,-0.00000120,0.00000149,0.00000124,0
 .00000034,0.00000141,-0.00000072,0.00000408,0.00003029,0.00000123,0.00
 002918,-0.00000260,-0.00000009,0.00000362,0.00011667,-0.00004716,-0.00
 008851,-0.00000749,-0.00000379,-0.00000836,-0.00000192,0.00000976,-0.0
 0000709,0.00096482,-0.00127887,0.00041110,0.00005808,-0.00003896,-0.00
 025761,0.00051446,-0.00017688,0.00022294,0.00903005,0.00353586,0.00388
 721,-0.00016587,0.00066135,0.00046883,0.00005411,0.00027133,0.00026806
 ,-0.00014554,-0.00006220,-0.00013098,-0.00006856,0.00003868,0.00008688
 ,-0.00004367,0.00010169,-0.00003932,0.00000156,-0.00000402,0.00000273,
 0.00000118,0.00000114,-0.00000047,-0.00000245,0.00000243,0.00000020,-0
 .00000047,0.00000280,-0.00000426,-0.09669604,-0.03053570,-0.09557028,0
 .10506501,0.03465372,0.09942919,0.00000741,0.00000041,-0.00000919,-0.0
 0000283,0.00000180,0.00000153,-0.00000406,-0.00000177,-0.00000078,0.00
 000790,-0.00000220,-0.00000020,-0.00000547,0.00000549,0.00001732,0.000
 00886,-0.00000920,-0.00000831,0.00002012,0.00003832,-0.00006729,-0.000
 02967,0.00001899,-0.00000726,-0.00002242,-0.00002105,-0.00000618,0.001
 80641,-0.00040594,0.00097698,-0.00014417,-0.00034554,0.00000748,-0.000
 18649,0.00034140,-0.00041155,-0.00446187,0.00018874,0.02543942,-0.0032
 8114,0.00352167,0.00117732,0.00016306,-0.00172425,-0.00008879,0.000290
 91,0.00035006,-0.00040380,0.00007833,0.00000078,-0.00010937,0.00014122
 ,-0.00017192,0.00003588,0.00001127,-0.00000599,0.00000370,-0.00000355,
 -0.00000176,-0.00000107,0.00000607,0.00000157,-0.00000409,-0.00000359,
 0.00000113,0.00000160,-0.04976813,-0.00169682,0.02741065,0.00425859,0.
 00146391,-0.02825680,0.05307391,0.00000056,0.00000401,0.00000145,0.000
 00036,-0.00000066,0.00000072,-0.00000182,-0.00000213,-0.00000149,-0.00
 000049,-0.00000016,-0.00000055,-0.00000356,-0.00000661,-0.00000795,0.0
 0000906,-0.00000237,-0.00000420,0.00000534,-0.00000140,0.00002019,0.00
 001194,0.00000538,0.00000731,-0.00001414,-0.00001357,-0.00000634,-0.00
 118493,0.00052101,-0.00007876,0.00000054,-0.00002444,0.00030733,0.0001
 3133,0.00007598,0.00035486,0.00258541,-0.00125981,-0.02057104,0.003171
 66,-0.00212348,-0.00119749,0.00023595,0.00163378,-0.00186123,-0.000085
 03,-0.00024002,0.00051354,0.00004099,-0.00003241,0.00012244,-0.0004707
 9,0.00021655,0.00002905,0.00000305,0.00000390,0.00000252,-0.00000128,-
 0.00000264,-0.00000041,-0.00000061,-0.00000058,-0.00000050,-0.00000051
 ,-0.00000082,-0.00000214,-0.00151964,-0.04723191,0.00725904,0.00133559
 ,-0.00061232,-0.00923174,-0.00171424,0.04893531,0.00000811,-0.00000246
 ,-0.00001587,-0.00000247,-0.00000376,0.00000070,0.00000236,0.00000650,
 0.00000447,0.00000996,-0.00000181,0.00000267,0.00000416,-0.00000084,0.
 00003105,-0.00000561,0.00000547,0.00000182,0.00003944,-0.00005782,-0.0
 0004299,0.00001112,-0.00001309,0.00000141,0.00000377,0.00001577,-0.000
 00380,-0.00097113,0.00002354,0.00090837,0.00027371,0.00015020,-0.00003
 446,0.00071229,-0.00000349,0.00038003,0.00220724,-0.00052989,-0.009836
 39,0.00132745,-0.00136232,0.00115984,-0.00034545,0.00098241,0.00063396
 ,-0.00008319,-0.00079905,0.00035585,-0.00009613,0.00008820,0.00010057,
 0.00013094,0.00001886,0.00007823,-0.00000632,-0.00000466,-0.00001238,0
 .00000061,0.00000503,0.00000475,0.00000750,-0.00000027,-0.00000137,0.0
 0000152,-0.00000537,0.00001102,0.02774585,0.00675301,-0.30136572,0.001
 50625,0.00079625,-0.01294309,-0.03276161,-0.00611105,0.32813287,0.0000
 1475,-0.00000410,-0.00001736,0.00000176,-0.00000237,0.00000695,-0.0000
 0576,-0.00000317,-0.00000404,0.00000635,-0.00000154,0.00000378,0.00002
 842,0.00001529,0.00005294,0.00002673,-0.00001464,-0.00001843,0.0000881
 3,-0.00006430,-0.00012313,0.00002451,0.00001350,0.00004036,-0.00005304
 ,-0.00003214,-0.00003974,0.00153530,0.00104521,-0.00021033,-0.00033808
 ,-0.00058632,-0.00022341,-0.00002550,-0.00006098,0.00008609,0.00216545
 ,0.02424355,-0.00694664,0.00106800,-0.00085267,-0.00028376,-0.00170513
 ,0.00147458,0.00128123,-0.00004367,-0.00000617,-0.00012861,0.00025617,
 0.00020908,-0.00002346,-0.00161308,0.00069058,0.00016485,0.00000009,-0
 .00000166,-0.00000911,-0.00000791,-0.00000756,-0.00000391,0.00000507,-
 0.00000331,0.00000003,-0.00000071,0.00000573,0.00000970,-0.05782997,-0
 .05370525,0.01515870,-0.00547174,-0.02572009,0.00909790,-0.00173133,-0
 .00282947,0.00038196,0.06258780,0.00000173,0.00000834,-0.00000512,-0.0
 0000835,0.00000712,-0.00001155,0.00000659,0.00000772,0.00001208,0.0000
 1388,-0.00000371,-0.00000260,-0.00004324,-0.00003386,-0.00000369,-0.00
 004635,0.00002428,0.00002237,-0.00003780,0.00007093,0.00007448,-0.0000
 2348,-0.00001523,-0.00005360,0.00007192,0.00004223,0.00005527,-0.00133
 567,0.00051774,-0.00022659,0.00062883,0.00087651,0.00050754,-0.0001495
 1,0.00019434,-0.00005853,-0.00366587,-0.01925376,0.00541724,-0.0002345
 0,0.00067645,-0.00049902,0.00312852,-0.00134053,-0.00180990,-0.0000397
 4,0.00027529,-0.00004197,-0.00019153,0.00003084,0.00003919,0.00109218,
 -0.00075795,-0.00008111,0.00001143,-0.00001038,0.00001049,0.00001048,0
 .00001651,0.00001198,0.00000942,0.00000629,-0.00000692,-0.00000903,-0.
 00001420,-0.00000584,-0.05311527,-0.27128177,0.06861583,-0.00177274,-0
 .00732230,0.00214774,0.00008868,0.00038651,0.00007882,0.05608306,0.296
 80956,-0.00000204,0.00000652,0.00000200,-0.00000297,0.00000031,-0.0000
 0235,-0.00000038,0.00000034,0.00000072,0.00000437,-0.00000113,-0.00000
 203,-0.00002276,-0.00001266,-0.00001533,-0.00000622,-0.00000036,0.0000
 0293,-0.00000701,0.00007337,0.00005801,-0.00001108,-0.00000779,-0.0000
 2656,0.00000394,-0.00000464,-0.00000057,-0.00024915,0.00070668,-0.0002
 2999,-0.00040735,0.00005038,0.00013535,-0.00002881,0.00000417,0.000076
 07,-0.00080844,-0.01062204,0.00172607,-0.00062607,-0.00002499,0.000430
 85,0.00101664,-0.00037293,0.00016536,-0.00015757,-0.00029100,0.0002647
 3,-0.00019936,0.00027130,0.00010547,0.00065356,-0.00019986,0.00006673,
 0.00001202,0.00000198,0.00001049,-0.00000382,0.00000036,-0.00000285,0.
 00000506,-0.00000125,-0.00000379,-0.00000384,-0.00000046,0.00000080,0.
 01494890,0.06826453,-0.06728668,-0.00256596,-0.01388497,0.00382086,0.0
 0725875,0.03042150,-0.00787567,-0.01836085,-0.07400509,0.06861550,-0.0
 0299736,0.00029263,0.00329901,0.00011084,0.00023597,-0.00003406,0.0000
 0253,-0.00024287,0.00000886,-0.00041790,0.00032077,-0.00113263,-0.0276
 2098,0.00336311,-0.01465376,0.00101817,-0.00053798,-0.00095186,-0.1397
 3033,0.01424788,-0.04419366,0.00190277,-0.00006481,0.00006769,-0.00026
 830,0.00092468,-0.00020434,-0.13951417,0.01360071,0.03730732,0.0016091
 2,-0.00225816,-0.00006911,-0.00255140,-0.00041975,0.00171205,-0.024917
 22,0.00860809,0.00935511,0.00080645,0.00070129,0.00105752,-0.00135188,
 0.00049312,-0.00015437,0.00040108,-0.00028434,-0.00026138,0.00007066,0
 .00046522,-0.00002383,0.00117204,-0.00448882,-0.00124055,0.00072637,-0
 .00038358,0.00012403,-0.00034593,-0.00003277,-0.00004685,0.00047722,0.
 00038976,-0.00050726,-0.00110454,-0.00020070,-0.00017067,-0.00343184,-
 0.00212897,-0.00167872,-0.00043412,0.00085317,0.00049793,0.00005969,-0
 .00016142,0.00007463,0.00018431,-0.00010618,-0.00024534,0.46000213,0.0
 0180757,-0.00083777,-0.00175909,-0.00025578,0.00033953,-0.00010889,-0.
 00004667,0.00007856,0.00006348,0.00093607,0.00031278,0.00033175,0.0040
 3115,-0.00152455,0.00553612,0.00134637,-0.00074042,-0.00065447,0.00969
 658,-0.07788071,0.01132326,0.02269718,-0.00219797,0.01777545,-0.022756
 43,0.00027901,-0.01833390,0.01234352,-0.07688998,-0.00866645,0.0246635
 9,-0.01047317,-0.01697826,-0.01218306,0.00379586,0.00776251,0.00114752
 ,0.00365315,0.00849782,0.00034737,0.00064446,-0.00085598,-0.00922277,0
 .00663851,-0.00008106,0.00188102,-0.00110094,0.00020264,0.00085423,-0.
 00165412,-0.00050589,0.01269602,-0.00300220,-0.00175862,-0.00084058,0.
 00017971,-0.00070388,0.00006713,-0.00014951,0.00012591,0.00033570,-0.0
 0016757,0.00015188,-0.00057227,-0.00007774,0.00076327,-0.00217967,-0.0
 0186535,-0.00049361,-0.00080521,0.00084257,-0.00019354,0.00021503,-0.0
 0012348,-0.00012894,0.00032450,-0.00047538,-0.00030350,0.00869066,0.45
 381382,0.00400531,-0.00087011,-0.00326101,-0.00011452,-0.00014753,-0.0
 0006010,-0.00018374,0.00019264,-0.00012531,0.00177381,-0.00070142,0.00
 097711,0.00688621,0.00071129,0.01704922,0.00036190,-0.00132873,-0.0003
 8241,-0.04069589,0.01753231,-0.11405398,-0.01900665,0.00238306,-0.0184
 0248,-0.00905217,0.00190651,-0.01003598,0.03737522,-0.00403004,-0.1040
 4876,0.00077075,0.00059319,-0.00236951,0.02591507,-0.00986413,-0.01578
 505,-0.00767665,0.00852284,0.01113390,-0.00131571,-0.00003947,-0.00030
 337,-0.00574160,0.00393093,-0.00076268,0.00109001,-0.00077258,0.000278
 06,0.00020144,-0.00123557,-0.00010700,0.00630675,0.00044606,-0.0002087
 1,0.00121882,-0.00113920,0.00127988,-0.00026317,-0.00002432,-0.0001596
 0,0.00016466,0.00054365,-0.00066703,0.00020617,0.00063790,-0.00094995,
 -0.00478681,-0.00296567,-0.00228341,-0.00198038,0.00097250,0.00031310,
 0.00018141,0.00000599,0.00009298,0.00053343,-0.00058420,-0.00008082,-0
 .02361251,-0.10128283,0.56080180,0.00005288,-0.00007713,0.00003902,0.0
 0011009,-0.00019164,0.00012421,0.00007976,0.00004129,0.00002474,-0.000
 07773,-0.00004716,0.00011782,0.00115560,0.00027183,0.00004985,-0.00006
 983,0.00007998,0.00023827,0.00385011,0.01733580,-0.02034436,-0.0039951
 6,0.00022795,-0.00347186,0.00072076,-0.00052451,0.00058936,-0.00639467
 ,-0.01418999,0.02209353,0.00136487,-0.00009572,-0.00053819,-0.00377048
 ,0.00118349,0.00197746,0.00120326,-0.00004901,0.00125534,-0.00023189,-
 0.00000489,-0.00076010,0.00018194,-0.00018999,-0.00002137,-0.00004961,
 0.00014052,-0.00012620,0.00000392,-0.00001043,-0.00006059,0.00001896,0
 .00019617,0.00011703,-0.00110290,-0.00001954,-0.00057285,0.00007656,0.
 00000622,0.00005069,0.00031660,-0.00005639,0.00027591,-0.00131156,-0.0
 0061235,0.00080588,0.00000783,0.00009348,-0.00012135,0.00000162,0.0000
 3897,-0.00005784,0.00010902,-0.00004064,-0.00011861,-0.00006574,0.0000
 8895,0.00003430,-0.05476667,-0.02411073,0.02869676,0.06318946,0.000106
 01,-0.00007631,-0.00012525,0.00001546,0.00004641,-0.00004892,-0.000035
 91,0.00000044,-0.00002298,0.00004404,-0.00002207,0.00001230,-0.0005004
 1,-0.00007971,0.00071429,-0.00001834,-0.00009802,-0.00002567,0.0012634
 0,0.00080231,0.00210521,-0.00033063,0.00089215,-0.00007452,0.00050829,
 0.00015979,0.00042365,0.00320564,0.00561564,-0.00870961,0.00008125,0.0
 0133928,-0.00039328,0.00225629,0.00048136,-0.00148276,-0.00083258,0.00
 015209,0.00006382,-0.00022263,-0.00007562,0.00005168,0.00099140,-0.000
 68692,-0.00012920,-0.00016728,0.00011203,-0.00000244,-0.00014202,0.000
 17555,0.00009866,-0.00011053,-0.00003680,-0.00008895,-0.00017779,-0.00
 007753,0.00028956,-0.00015319,-0.00005548,-0.00014702,-0.00008858,0.00
 007605,-0.00015304,-0.00060558,0.00042679,-0.00029895,0.00015082,0.000
 11358,-0.00024087,0.00000167,-0.00003362,0.00003139,-0.00000822,-0.000
 02712,0.00002585,-0.00005618,0.00010287,0.00004515,-0.02345961,-0.1384
 7748,0.11598974,0.02910415,0.16849101,-0.00009496,0.00006062,0.0000963
 4,0.00004550,-0.00017494,0.00011308,0.00008351,0.00000404,-0.00000016,
 -0.00013982,0.00000254,0.00006754,0.00112947,-0.00015761,-0.00006107,-
 0.00020434,0.00012501,0.00013431,0.00177486,0.01305026,-0.01439310,-0.
 00306805,-0.00049462,-0.00180421,0.00005372,-0.00041140,0.00015926,0.0
 0377170,0.00779677,-0.01290176,0.00019636,-0.00038727,0.00034844,0.002
 47770,-0.00082163,-0.00068581,-0.00038749,-0.00013781,-0.00005246,0.00
 045740,0.00012804,0.00043655,0.00029254,-0.00039871,-0.00002726,-0.000
 14019,-0.00007755,0.00003457,-0.00002529,0.00009483,0.00007008,0.00011
 707,-0.00025282,-0.00007977,0.00020120,0.00017606,-0.00026173,-0.00002
 159,-0.00000383,0.00000709,0.00017725,-0.00026193,0.00027294,0.0006329
 4,-0.00016046,0.00080096,0.00020919,0.00016570,0.00009796,0.00007472,-
 0.00005103,0.00002906,-0.00011339,0.00002784,0.00005441,-0.00002064,-0
 .00000035,-0.00000157,0.03148261,0.12518399,-0.20096787,-0.03401628,-0
 .12706109,0.21558050,0.00028954,-0.00066304,-0.00036140,0.00004864,0.0
 0006979,-0.00000945,-0.00015865,0.00009945,-0.00014298,-0.00004026,0.0
 0008650,0.00015073,0.00069569,-0.00017494,0.00072587,-0.00028508,-0.00
 109957,-0.00131293,-0.00365884,-0.02834673,-0.01650153,0.00154306,0.00
 039868,0.00137268,-0.00529100,-0.00017388,-0.00400384,0.00678764,0.022
 04206,0.01243424,-0.00329894,0.00164993,0.00337315,-0.00094338,0.00041
 290,0.00074442,0.00055039,-0.00100471,-0.00175636,-0.00040591,-0.00000
 621,0.00125900,0.00433540,-0.00305603,0.00325133,-0.00194660,0.0008862
 4,-0.00022470,-0.00040504,-0.00004316,0.00001940,-0.01721963,-0.020464
 45,0.02488201,-0.00030743,-0.00018962,-0.00065965,0.00001205,-0.000191
 14,0.00011925,-0.00010415,0.00000776,0.00011462,0.00009529,-0.00005372
 ,0.00012266,0.00019073,0.00063897,0.00114618,0.00009686,-0.00026205,-0
 .00006621,-0.00023679,0.00015701,-0.00005705,0.00010449,0.00017824,-0.
 00004013,-0.06221043,-0.01101624,-0.00602203,-0.00121442,-0.01024350,-
 0.00315987,0.12964115,-0.00021075,0.00014303,0.00040702,0.00006113,-0.
 00000482,-0.00003625,0.00011892,0.00003653,0.00007485,-0.00032696,0.00
 011500,0.00003351,0.00193514,0.00010269,-0.00116467,-0.00018572,0.0003
 6833,0.00053427,-0.00943352,-0.01400193,-0.01395404,-0.00009197,-0.000
 08710,0.00135794,-0.00270028,0.00059404,-0.00094383,0.00325176,-0.0293
 5389,-0.01306094,0.00497689,-0.00056337,-0.00390883,-0.00042539,0.0001
 3603,-0.00035226,-0.00780860,-0.00026049,0.00157293,0.00043868,0.00079
 627,-0.00068915,0.02300235,-0.01768965,-0.00188510,-0.00346628,0.00211
 568,-0.00048568,-0.00308876,0.00272099,0.00104025,-0.04835010,0.006553
 74,0.01026918,-0.00017066,0.00018073,0.00003068,0.00015566,0.00006287,
 -0.00001136,-0.00019883,-0.00001043,0.00013320,0.00010650,-0.00003605,
 -0.00005242,0.00222793,0.00260709,-0.00182418,0.00063036,-0.00033912,0
 .00015815,0.00006413,-0.00046902,0.00009626,-0.00085973,0.00138079,0.0
 0019423,-0.00320624,-0.10098098,-0.06145340,-0.00655009,-0.03210984,-0
 .00928851,0.07349727,0.29931549,-0.00016740,0.00029220,0.00025465,-0.0
 0002352,-0.00000561,-0.00006414,0.00029262,0.00009489,0.00025165,-0.00
 011769,0.00012475,0.00001330,0.00142839,-0.00057037,-0.00027598,-0.000
 90292,0.00073994,0.00078495,-0.00848100,-0.03120474,-0.01619468,0.0017
 9698,0.00025251,0.00064571,-0.00562318,0.00092536,-0.00350068,-0.00167
 640,-0.02515744,-0.01049560,0.00291758,-0.00081407,-0.00262275,0.00001
 897,-0.00013119,-0.00027369,0.00209084,-0.00049983,-0.00085976,0.00042
 798,-0.00051034,0.00137193,-0.01337417,0.01337657,0.00148513,0.0024441
 2,-0.00156068,0.00035884,0.00237262,-0.00143307,-0.00073484,0.03761571
 ,-0.00135418,-0.01162108,-0.00010414,0.00010292,-0.00045798,0.00013454
 ,0.00020720,0.00003948,0.00009268,-0.00006371,0.00017501,0.00010088,-0
 .00021846,0.00033287,-0.00151979,-0.00105099,0.00137190,0.00001226,0.0
 0031849,0.00006121,-0.00033003,0.00032217,0.00013425,0.00024488,-0.000
 65482,-0.00018541,0.00033995,-0.03852871,-0.13202634,0.00438982,0.0225
 7625,0.01039885,-0.04639613,0.00281760,0.29060267,0.00008106,0.0001433
 6,-0.00010212,-0.00004049,-0.00000951,-0.00002158,0.00005361,0.0000288
 0,0.00008222,0.00009063,-0.00004085,-0.00001878,-0.00036148,-0.0003974
 4,-0.00008994,-0.00081317,0.00004880,0.00036515,-0.00152170,0.00020740
 ,0.00059714,-0.00023863,-0.00099788,0.00042824,0.00108639,0.00044199,0
 .00107176,0.00234781,0.00532819,-0.00092562,-0.00140466,0.00029701,0.0
 0085473,0.00088458,0.00011819,0.00003416,0.00666620,-0.00599158,-0.002
 34864,-0.00002194,-0.00006702,0.00055125,-0.12074205,0.06898681,0.0082
 4305,0.00772314,-0.00461903,0.00119062,0.00535067,-0.00399689,-0.00219
 928,0.02649473,-0.00614476,-0.02737890,0.00001399,0.00011079,0.0003901
 2,0.00004914,0.00014749,-0.00002107,0.00001474,-0.00001382,-0.00003538
 ,-0.00004979,0.00002482,-0.00005597,-0.00208666,-0.00187658,0.00210754
 ,0.00016697,0.00026593,0.00007231,-0.00016126,0.00033978,-0.00000128,0
 .00079433,-0.00063465,-0.00018841,-0.00688032,-0.02009181,0.00476410,0
 .00060744,-0.00057545,-0.00178583,-0.04666437,-0.02339282,0.02199555,0
 .12856111,-0.00005844,0.00025839,0.00018118,-0.00001738,-0.00001106,-0
 .00009092,0.00011266,0.00003880,0.00011552,-0.00002393,-0.00003708,-0.
 00003579,-0.00008052,-0.00104374,-0.00038600,-0.00076974,0.00036078,0.
 00046955,0.00029139,0.00451002,0.00061631,-0.00087432,-0.00062500,-0.0
 0075370,0.00136303,0.00058150,0.00113982,0.00113340,0.00405032,0.00052
 607,-0.00147218,0.00074255,0.00152292,0.00039248,-0.00036221,0.0005958
 0,0.00623350,-0.00061927,-0.00303021,0.00011292,-0.00090716,0.00082021
 ,0.00437905,0.00676804,0.00049615,0.00151009,-0.00126845,-0.00007498,0
 .00288597,-0.00169214,-0.00031251,0.03527598,-0.03663150,0.01053060,-0
 .00011971,0.00005385,0.00069639,0.00007399,0.00016641,-0.00001177,-0.0
 0015093,0.00000368,-0.00009719,-0.00008528,0.00001575,-0.00034014,-0.0
 0238020,-0.00181594,0.00212233,-0.00022071,0.00026102,-0.00004281,-0.0
 0019320,0.00039253,-0.00002137,0.00070657,-0.00092525,-0.00030815,-0.0
 1521084,-0.05195862,0.03207059,-0.00203858,-0.00713080,-0.00667412,-0.
 02313580,-0.12132260,0.06160735,-0.00763927,0.20814718,0.00002569,-0.0
 0007108,0.00004687,0.00008042,-0.00003825,0.00005642,-0.00004704,-0.00
 003246,-0.00008315,-0.00013018,0.00001701,0.00003343,0.00042937,-0.000
 25699,0.00005562,0.00055227,-0.00007739,-0.00028345,-0.00124244,-0.001
 72890,-0.00048302,0.00031495,-0.00137207,0.00150461,-0.00064250,-0.000
 82989,0.00022728,-0.00041434,-0.00445647,-0.00073694,0.00125342,-0.000
 58689,-0.00009624,-0.00073698,-0.00010544,0.00116237,-0.00673595,0.001
 53304,0.00180521,0.00013331,0.00049115,-0.00049861,0.02676786,-0.02072
 225,0.00050240,-0.00354348,0.00212875,0.00052544,-0.00258932,0.0027658
 1,0.00152516,-0.04180843,0.02199447,-0.01459591,-0.00035342,0.00012892
 ,-0.00015791,0.00001139,-0.00009698,0.00002180,-0.00012953,-0.00006669
 ,0.00012875,0.00008829,-0.00002964,0.00004097,0.00238563,0.00177416,-0
 .00178765,0.00030535,-0.00035469,0.00001919,0.00006766,-0.00032104,0.0
 0004249,-0.00064937,0.00105788,0.00023168,0.00385420,0.01361953,0.0151
 1534,-0.00067041,-0.00342300,0.00253483,0.03099873,0.09039051,-0.12896
 947,-0.00757514,-0.10133112,0.12211252\\0.00000587,0.00000117,0.000007
 29,-0.00000101,0.00000103,-0.00000201,-0.00000394,0.00000082,-0.000003
 33,0.00000031,0.00000109,0.00000046,0.00000257,-0.00000114,0.00000194,
 0.00000118,0.00000169,-0.00000157,-0.00000047,-0.00000107,0.00000241,0
 .00000008,0.00000071,-0.00000041,-0.00000169,0.00000014,-0.00000013,0.
 00000150,-0.00000056,0.00000182,-0.00000140,-0.00000082,0.00000015,0.0
 0000001,-0.00000074,-0.00000091,-0.00000191,0.00000060,-0.00000221,0.0
 0000124,-0.00000099,-0.00000015,0.00000236,-0.00000245,0.00000518,0.00
 000175,-0.00000015,-0.00000134,-0.00000006,-0.00000089,-0.00000084,0.0
 0000002,-0.00000015,-0.00001567,-0.00000190,0.00000101,0.00000151,0.00
 000044,0.00000105,0.00000097,-0.00000003,0.00000143,0.00000086,-0.0000
 0068,0.00000288,0.00000024,-0.00000111,-0.00000131,-0.00000051,-0.0000
 0012,-0.00000096,-0.00000068,-0.00000067,-0.00000186,-0.00000062,-0.00
 000059,-0.00000075,0.00000046,0.00000103,0.00000158,0.00000157,0.00000
 070,0.00000126,0.00000005,-0.00000132,-0.00000113,0.00000020,-0.000002
 14,-0.00000146,0.00000523\\\@
 Job cpu time:  0 days  9 hours  2 minutes 20.0 seconds.
 File lengths (MBytes):  RWF=  73973 Int=      0 D2E=      0 Chk=     26 Scr=      1
 Normal termination of Gaussian 09 at Thu Feb 20 14:45:23 2014.
