 Entering Gaussian System, Link 0=g09
 Initial command:
 /usr/caen/gaussian-09revc/g09/l1.exe /scratch/avioli_flux/hetanjin/scratch/Gau-109022.inp -scrdir=/scratch/avioli_flux/hetanjin/scratch/
 Entering Link 1 = /usr/caen/gaussian-09revc/g09/l1.exe PID=    109023.
  
 Copyright (c) 1988,1990,1992,1993,1995,1998,2003,2009,2011,
            Gaussian, Inc.  All Rights Reserved.
  
 This is part of the Gaussian(R) 09 program.  It is based on
 the Gaussian(R) 03 system (copyright 2003, Gaussian, Inc.),
 the Gaussian(R) 98 system (copyright 1998, Gaussian, Inc.),
 the Gaussian(R) 94 system (copyright 1995, Gaussian, Inc.),
 the Gaussian 92(TM) system (copyright 1992, Gaussian, Inc.),
 the Gaussian 90(TM) system (copyright 1990, Gaussian, Inc.),
 the Gaussian 88(TM) system (copyright 1988, Gaussian, Inc.),
 the Gaussian 86(TM) system (copyright 1986, Carnegie Mellon
 University), and the Gaussian 82(TM) system (copyright 1983,
 Carnegie Mellon University). Gaussian is a federally registered
 trademark of Gaussian, Inc.
  
 This software contains proprietary and confidential information,
 including trade secrets, belonging to Gaussian, Inc.
  
 This software is provided under written license and may be
 used, copied, transmitted, or stored only in accord with that
 written license.
  
 The following legend is applicable only to US Government
 contracts under FAR:
  
                    RESTRICTED RIGHTS LEGEND
  
 Use, reproduction and disclosure by the US Government is
 subject to restrictions as set forth in subparagraphs (a)
 and (c) of the Commercial Computer Software - Restricted
 Rights clause in FAR 52.227-19.
  
 Gaussian, Inc.
 340 Quinnipiac St., Bldg. 40, Wallingford CT 06492
  
  
 ---------------------------------------------------------------
 Warning -- This program may not be used in any manner that
 competes with the business of Gaussian, Inc. or will provide
 assistance to any competitor of Gaussian, Inc.  The licensee
 of this program is prohibited from giving any competitor of
 Gaussian, Inc. access to this program.  By using this program,
 the user acknowledges that Gaussian, Inc. is engaged in the
 business of creating and licensing software in the field of
 computational chemistry and represents and warrants to the
 licensee that it is not a competitor of Gaussian, Inc. and that
 it will not use this program in any manner prohibited above.
 ---------------------------------------------------------------
  

 Cite this work as:
 Gaussian 09, Revision C.01,
 M. J. Frisch, G. W. Trucks, H. B. Schlegel, G. E. Scuseria, 
 M. A. Robb, J. R. Cheeseman, G. Scalmani, V. Barone, B. Mennucci, 
 G. A. Petersson, H. Nakatsuji, M. Caricato, X. Li, H. P. Hratchian, 
 A. F. Izmaylov, J. Bloino, G. Zheng, J. L. Sonnenberg, M. Hada, 
 M. Ehara, K. Toyota, R. Fukuda, J. Hasegawa, M. Ishida, T. Nakajima, 
 Y. Honda, O. Kitao, H. Nakai, T. Vreven, J. A. Montgomery, Jr., 
 J. E. Peralta, F. Ogliaro, M. Bearpark, J. J. Heyd, E. Brothers, 
 K. N. Kudin, V. N. Staroverov, T. Keith, R. Kobayashi, J. Normand, 
 K. Raghavachari, A. Rendell, J. C. Burant, S. S. Iyengar, J. Tomasi, 
 M. Cossi, N. Rega, J. M. Millam, M. Klene, J. E. Knox, J. B. Cross, 
 V. Bakken, C. Adamo, J. Jaramillo, R. Gomperts, R. E. Stratmann, 
 O. Yazyev, A. J. Austin, R. Cammi, C. Pomelli, J. W. Ochterski, 
 R. L. Martin, K. Morokuma, V. G. Zakrzewski, G. A. Voth, 
 P. Salvador, J. J. Dannenberg, S. Dapprich, A. D. Daniels, 
 O. Farkas, J. B. Foresman, J. V. Ortiz, J. Cioslowski, 
 and D. J. Fox, Gaussian, Inc., Wallingford CT, 2010.
 
 ******************************************
 Gaussian 09:  EM64L-G09RevC.01 23-Sep-2011
                20-Feb-2014 
 ******************************************
 %mem=30GB
 %nprocshared=8
 Will use up to    8 processors via shared memory.
 %chk=TS_4_C9H18_3.chk
 -------------------------------
 #p cbs-qb3 opt=(ts,calcfc) freq
 -------------------------------
 1/5=1,10=4,14=-1,18=20,26=3,38=1/1,3;
 2/9=110,12=2,17=6,18=5,40=1/2;
 3/5=4,6=6,7=700,11=2,16=1,25=1,30=1,71=2,74=-5/1,2,3;
 4//1;
 5/5=2,38=5/2;
 8/6=4,10=90,11=11/1;
 11/6=1,8=1,9=11,15=111,16=1/1,2,10;
 10/6=1,7=6,13=1/2;
 6/7=2,8=2,9=2,10=2,28=1/1;
 7/10=1,18=20,25=1/1,2,3,16;
 1/5=1,10=4,14=-1,18=20/3(2);
 2/9=110/2;
 99//99;
 2/9=110/2;
 3/5=4,6=6,7=700,11=2,16=1,25=1,30=1,71=1,74=-5/1,2,3;
 4/5=5,16=3/1;
 5/5=2,38=5/2;
 7//1,2,3,16;
 1/5=1,14=-1,18=20/3(-5);
 2/9=110/2;
 6/7=2,8=2,9=2,10=2,19=2,28=1/1;
 99/9=1/99;
 Leave Link    1 at Thu Feb 20 10:56:21 2014, MaxMem= 4026531840 cpu:       0.8
 (Enter /usr/caen/gaussian-09revc/g09/l101.exe)
 ----------------------------------------------------
 TS_4_C9H18_3 using B3LYP/6-311++g(d,p) to calc. freq
 ----------------------------------------------------
 Charge =  0 Multiplicity = 2
 Symbolic Z-Matrix:
 C                    -3.3992   -0.69422   0.55441 
 H                    -3.70214   0.34643   0.69627 
 H                    -3.23434  -1.13432   1.54411 
 H                    -4.23455  -1.22686   0.09156 
 C                    -2.13358  -0.8028   -0.30863 
 H                    -2.34221  -0.33014  -1.27677 
 C                    -0.96011  -0.04561   0.32617 
 H                    -1.45241   1.16033   0.54123 
 H                    -0.72197  -0.34756   1.35036 
 C                     1.48337   0.7038    0.09802 
 H                     1.44178   0.82485   1.18672 
 H                     1.8178    1.65931  -0.31811 
 C                     2.54713  -0.37152  -0.25455 
 H                     2.5001   -0.54046  -1.33852 
 C                     3.94953   0.15664   0.07742 
 H                     4.04544   0.36423   1.14869 
 H                     4.71676  -0.5763   -0.18807 
 H                     4.16723   1.08233  -0.46277 
 C                    -1.77711  -2.27601  -0.56653 
 H                    -1.53225  -2.78799   0.3703 
 H                    -2.61698  -2.80664  -1.02539 
 H                    -0.91543  -2.36722  -1.2333 
 C                     2.28626  -1.70863   0.45002 
 H                     3.041    -2.44876   0.16908 
 H                     2.32962  -1.58868   1.53827 
 H                     1.3064   -2.11982   0.19843 
 C                     0.1171    0.40367  -0.4358 
 H                     0.01949   0.41121  -1.51896 
 O                    -0.59296   2.58012  -0.47317 
 O                    -1.57125   2.44915   0.33364 
 
 NAtoms=     30 NQM=        0 NQMF=       0 NMMI=     30 NMMIF=      0
                NMic=       0 NMicF=      0.
                    Isotopes and Nuclear Properties:
 (Nuclear quadrupole moments (NQMom) in fm**2, nuclear magnetic moments (NMagM)
  in nuclear magnetons)

  Atom         1           2           3           4           5           6           7           8           9          10
 IAtWgt=          12           1           1           1          12           1          12           1           1          12
 AtmWgt=  12.0000000   1.0078250   1.0078250   1.0078250  12.0000000   1.0078250  12.0000000   1.0078250   1.0078250  12.0000000
 NucSpn=           0           1           1           1           0           1           0           1           1           0
 AtZEff=   0.0000000   0.0000000   0.0000000   0.0000000   0.0000000   0.0000000   0.0000000   0.0000000   0.0000000   0.0000000
 NQMom=    0.0000000   0.0000000   0.0000000   0.0000000   0.0000000   0.0000000   0.0000000   0.0000000   0.0000000   0.0000000
 NMagM=    0.0000000   2.7928460   2.7928460   2.7928460   0.0000000   2.7928460   0.0000000   2.7928460   2.7928460   0.0000000

  Atom        11          12          13          14          15          16          17          18          19          20
 IAtWgt=           1           1          12           1          12           1           1           1          12           1
 AtmWgt=   1.0078250   1.0078250  12.0000000   1.0078250  12.0000000   1.0078250   1.0078250   1.0078250  12.0000000   1.0078250
 NucSpn=           1           1           0           1           0           1           1           1           0           1
 AtZEff=   0.0000000   0.0000000   0.0000000   0.0000000   0.0000000   0.0000000   0.0000000   0.0000000   0.0000000   0.0000000
 NQMom=    0.0000000   0.0000000   0.0000000   0.0000000   0.0000000   0.0000000   0.0000000   0.0000000   0.0000000   0.0000000
 NMagM=    2.7928460   2.7928460   0.0000000   2.7928460   0.0000000   2.7928460   2.7928460   2.7928460   0.0000000   2.7928460

  Atom        21          22          23          24          25          26          27          28          29          30
 IAtWgt=           1           1          12           1           1           1          12           1          16          16
 AtmWgt=   1.0078250   1.0078250  12.0000000   1.0078250   1.0078250   1.0078250  12.0000000   1.0078250  15.9949146  15.9949146
 NucSpn=           1           1           0           1           1           1           0           1           0           0
 AtZEff=   0.0000000   0.0000000   0.0000000   0.0000000   0.0000000   0.0000000   0.0000000   0.0000000   0.0000000   0.0000000
 NQMom=    0.0000000   0.0000000   0.0000000   0.0000000   0.0000000   0.0000000   0.0000000   0.0000000   0.0000000   0.0000000
 NMagM=    2.7928460   2.7928460   0.0000000   2.7928460   2.7928460   2.7928460   0.0000000   2.7928460   0.0000000   0.0000000
 Leave Link  101 at Thu Feb 20 10:56:22 2014, MaxMem= 4026531840 cpu:       2.3
 (Enter /usr/caen/gaussian-09revc/g09/l103.exe)

 GradGradGradGradGradGradGradGradGradGradGradGradGradGradGradGradGradGrad
 Berny optimization.
 Initialization pass.
                           ----------------------------
                           !    Initial Parameters    !
                           ! (Angstroms and Degrees)  !
 --------------------------                            --------------------------
 ! Name  Definition              Value          Derivative Info.                !
 --------------------------------------------------------------------------------
 ! R1    R(1,2)                  1.0931         calculate D2E/DX2 analytically  !
 ! R2    R(1,3)                  1.0956         calculate D2E/DX2 analytically  !
 ! R3    R(1,4)                  1.0935         calculate D2E/DX2 analytically  !
 ! R4    R(1,5)                  1.5357         calculate D2E/DX2 analytically  !
 ! R5    R(5,6)                  1.0974         calculate D2E/DX2 analytically  !
 ! R6    R(5,7)                  1.5341         calculate D2E/DX2 analytically  !
 ! R7    R(5,19)                 1.5375         calculate D2E/DX2 analytically  !
 ! R8    R(7,8)                  1.3202         calculate D2E/DX2 analytically  !
 ! R9    R(7,9)                  1.094          calculate D2E/DX2 analytically  !
 ! R10   R(7,27)                 1.3939         calculate D2E/DX2 analytically  !
 ! R11   R(8,30)                 1.3108         calculate D2E/DX2 analytically  !
 ! R12   R(10,11)                1.0962         calculate D2E/DX2 analytically  !
 ! R13   R(10,12)                1.0945         calculate D2E/DX2 analytically  !
 ! R14   R(10,13)                1.5531         calculate D2E/DX2 analytically  !
 ! R15   R(10,27)                1.4972         calculate D2E/DX2 analytically  !
 ! R16   R(13,14)                1.0981         calculate D2E/DX2 analytically  !
 ! R17   R(13,15)                1.5349         calculate D2E/DX2 analytically  !
 ! R18   R(13,23)                1.5337         calculate D2E/DX2 analytically  !
 ! R19   R(15,16)                1.0954         calculate D2E/DX2 analytically  !
 ! R20   R(15,17)                1.0938         calculate D2E/DX2 analytically  !
 ! R21   R(15,18)                1.0937         calculate D2E/DX2 analytically  !
 ! R22   R(19,20)                1.0953         calculate D2E/DX2 analytically  !
 ! R23   R(19,21)                1.0943         calculate D2E/DX2 analytically  !
 ! R24   R(19,22)                1.0933         calculate D2E/DX2 analytically  !
 ! R25   R(23,24)                1.0938         calculate D2E/DX2 analytically  !
 ! R26   R(23,25)                1.0957         calculate D2E/DX2 analytically  !
 ! R27   R(23,26)                1.092          calculate D2E/DX2 analytically  !
 ! R28   R(27,28)                1.0876         calculate D2E/DX2 analytically  !
 ! R29   R(29,30)                1.2748         calculate D2E/DX2 analytically  !
 ! A1    A(2,1,3)              107.872          calculate D2E/DX2 analytically  !
 ! A2    A(2,1,4)              107.8746         calculate D2E/DX2 analytically  !
 ! A3    A(2,1,5)              111.6319         calculate D2E/DX2 analytically  !
 ! A4    A(3,1,4)              107.5565         calculate D2E/DX2 analytically  !
 ! A5    A(3,1,5)              110.8084         calculate D2E/DX2 analytically  !
 ! A6    A(4,1,5)              110.932          calculate D2E/DX2 analytically  !
 ! A7    A(1,5,6)              107.9786         calculate D2E/DX2 analytically  !
 ! A8    A(1,5,7)              111.2819         calculate D2E/DX2 analytically  !
 ! A9    A(1,5,19)             110.676          calculate D2E/DX2 analytically  !
 ! A10   A(6,5,7)              107.3319         calculate D2E/DX2 analytically  !
 ! A11   A(6,5,19)             107.9872         calculate D2E/DX2 analytically  !
 ! A12   A(7,5,19)             111.4079         calculate D2E/DX2 analytically  !
 ! A13   A(5,7,8)              103.4757         calculate D2E/DX2 analytically  !
 ! A14   A(5,7,9)              114.6881         calculate D2E/DX2 analytically  !
 ! A15   A(5,7,27)             121.6043         calculate D2E/DX2 analytically  !
 ! A16   A(8,7,9)              100.4155         calculate D2E/DX2 analytically  !
 ! A17   A(8,7,27)              94.7501         calculate D2E/DX2 analytically  !
 ! A18   A(9,7,27)             115.6272         calculate D2E/DX2 analytically  !
 ! A19   A(7,8,30)             154.9762         calculate D2E/DX2 analytically  !
 ! A20   A(11,10,12)           107.0253         calculate D2E/DX2 analytically  !
 ! A21   A(11,10,13)           109.141          calculate D2E/DX2 analytically  !
 ! A22   A(11,10,27)           109.9753         calculate D2E/DX2 analytically  !
 ! A23   A(12,10,13)           107.989          calculate D2E/DX2 analytically  !
 ! A24   A(12,10,27)           108.5576         calculate D2E/DX2 analytically  !
 ! A25   A(13,10,27)           113.9081         calculate D2E/DX2 analytically  !
 ! A26   A(10,13,14)           107.5348         calculate D2E/DX2 analytically  !
 ! A27   A(10,13,15)           109.7827         calculate D2E/DX2 analytically  !
 ! A28   A(10,13,23)           112.508          calculate D2E/DX2 analytically  !
 ! A29   A(14,13,15)           107.7934         calculate D2E/DX2 analytically  !
 ! A30   A(14,13,23)           108.184          calculate D2E/DX2 analytically  !
 ! A31   A(15,13,23)           110.8572         calculate D2E/DX2 analytically  !
 ! A32   A(13,15,16)           110.8994         calculate D2E/DX2 analytically  !
 ! A33   A(13,15,17)           110.9667         calculate D2E/DX2 analytically  !
 ! A34   A(13,15,18)           111.4875         calculate D2E/DX2 analytically  !
 ! A35   A(16,15,17)           107.6355         calculate D2E/DX2 analytically  !
 ! A36   A(16,15,18)           107.7707         calculate D2E/DX2 analytically  !
 ! A37   A(17,15,18)           107.9186         calculate D2E/DX2 analytically  !
 ! A38   A(5,19,20)            110.8692         calculate D2E/DX2 analytically  !
 ! A39   A(5,19,21)            110.9167         calculate D2E/DX2 analytically  !
 ! A40   A(5,19,22)            111.4046         calculate D2E/DX2 analytically  !
 ! A41   A(20,19,21)           107.672          calculate D2E/DX2 analytically  !
 ! A42   A(20,19,22)           107.8439         calculate D2E/DX2 analytically  !
 ! A43   A(21,19,22)           107.9813         calculate D2E/DX2 analytically  !
 ! A44   A(13,23,24)           110.7666         calculate D2E/DX2 analytically  !
 ! A45   A(13,23,25)           110.7378         calculate D2E/DX2 analytically  !
 ! A46   A(13,23,26)           112.0279         calculate D2E/DX2 analytically  !
 ! A47   A(24,23,25)           107.5698         calculate D2E/DX2 analytically  !
 ! A48   A(24,23,26)           107.7695         calculate D2E/DX2 analytically  !
 ! A49   A(25,23,26)           107.7916         calculate D2E/DX2 analytically  !
 ! A50   A(7,27,10)            125.0945         calculate D2E/DX2 analytically  !
 ! A51   A(7,27,28)            118.5106         calculate D2E/DX2 analytically  !
 ! A52   A(10,27,28)           115.8235         calculate D2E/DX2 analytically  !
 ! A53   A(8,30,29)             97.566          calculate D2E/DX2 analytically  !
 ! D1    D(2,1,5,6)            -58.4956         calculate D2E/DX2 analytically  !
 ! D2    D(2,1,5,7)             59.0544         calculate D2E/DX2 analytically  !
 ! D3    D(2,1,5,19)          -176.4957         calculate D2E/DX2 analytically  !
 ! D4    D(3,1,5,6)           -178.7533         calculate D2E/DX2 analytically  !
 ! D5    D(3,1,5,7)            -61.2033         calculate D2E/DX2 analytically  !
 ! D6    D(3,1,5,19)            63.2466         calculate D2E/DX2 analytically  !
 ! D7    D(4,1,5,6)             61.8497         calculate D2E/DX2 analytically  !
 ! D8    D(4,1,5,7)            179.3997         calculate D2E/DX2 analytically  !
 ! D9    D(4,1,5,19)           -56.1504         calculate D2E/DX2 analytically  !
 ! D10   D(1,5,7,8)            -52.7867         calculate D2E/DX2 analytically  !
 ! D11   D(1,5,7,9)             55.5599         calculate D2E/DX2 analytically  !
 ! D12   D(1,5,7,27)          -157.1121         calculate D2E/DX2 analytically  !
 ! D13   D(6,5,7,8)             65.1547         calculate D2E/DX2 analytically  !
 ! D14   D(6,5,7,9)            173.5012         calculate D2E/DX2 analytically  !
 ! D15   D(6,5,7,27)           -39.1708         calculate D2E/DX2 analytically  !
 ! D16   D(19,5,7,8)          -176.8229         calculate D2E/DX2 analytically  !
 ! D17   D(19,5,7,9)           -68.4763         calculate D2E/DX2 analytically  !
 ! D18   D(19,5,7,27)           78.8517         calculate D2E/DX2 analytically  !
 ! D19   D(1,5,19,20)          -63.5664         calculate D2E/DX2 analytically  !
 ! D20   D(1,5,19,21)           56.0053         calculate D2E/DX2 analytically  !
 ! D21   D(1,5,19,22)          176.3224         calculate D2E/DX2 analytically  !
 ! D22   D(6,5,19,20)          178.4387         calculate D2E/DX2 analytically  !
 ! D23   D(6,5,19,21)          -61.9895         calculate D2E/DX2 analytically  !
 ! D24   D(6,5,19,22)           58.3276         calculate D2E/DX2 analytically  !
 ! D25   D(7,5,19,20)           60.8116         calculate D2E/DX2 analytically  !
 ! D26   D(7,5,19,21)         -179.6167         calculate D2E/DX2 analytically  !
 ! D27   D(7,5,19,22)          -59.2996         calculate D2E/DX2 analytically  !
 ! D28   D(5,7,8,30)          -109.7876         calculate D2E/DX2 analytically  !
 ! D29   D(9,7,8,30)           131.4782         calculate D2E/DX2 analytically  !
 ! D30   D(27,7,8,30)           14.3135         calculate D2E/DX2 analytically  !
 ! D31   D(5,7,27,10)         -157.3732         calculate D2E/DX2 analytically  !
 ! D32   D(5,7,27,28)           13.5746         calculate D2E/DX2 analytically  !
 ! D33   D(8,7,27,10)           93.6197         calculate D2E/DX2 analytically  !
 ! D34   D(8,7,27,28)          -95.4326         calculate D2E/DX2 analytically  !
 ! D35   D(9,7,27,10)          -10.3295         calculate D2E/DX2 analytically  !
 ! D36   D(9,7,27,28)          160.6182         calculate D2E/DX2 analytically  !
 ! D37   D(7,8,30,29)           -8.4867         calculate D2E/DX2 analytically  !
 ! D38   D(11,10,13,14)        174.7145         calculate D2E/DX2 analytically  !
 ! D39   D(11,10,13,15)        -68.2705         calculate D2E/DX2 analytically  !
 ! D40   D(11,10,13,23)         55.6894         calculate D2E/DX2 analytically  !
 ! D41   D(12,10,13,14)        -69.2737         calculate D2E/DX2 analytically  !
 ! D42   D(12,10,13,15)         47.7413         calculate D2E/DX2 analytically  !
 ! D43   D(12,10,13,23)        171.7012         calculate D2E/DX2 analytically  !
 ! D44   D(27,10,13,14)         51.3879         calculate D2E/DX2 analytically  !
 ! D45   D(27,10,13,15)        168.4028         calculate D2E/DX2 analytically  !
 ! D46   D(27,10,13,23)        -67.6373         calculate D2E/DX2 analytically  !
 ! D47   D(11,10,27,7)         -17.5816         calculate D2E/DX2 analytically  !
 ! D48   D(11,10,27,28)        171.2535         calculate D2E/DX2 analytically  !
 ! D49   D(12,10,27,7)        -134.3669         calculate D2E/DX2 analytically  !
 ! D50   D(12,10,27,28)         54.4683         calculate D2E/DX2 analytically  !
 ! D51   D(13,10,27,7)         105.2903         calculate D2E/DX2 analytically  !
 ! D52   D(13,10,27,28)        -65.8746         calculate D2E/DX2 analytically  !
 ! D53   D(10,13,15,16)         61.9049         calculate D2E/DX2 analytically  !
 ! D54   D(10,13,15,17)       -178.5167         calculate D2E/DX2 analytically  !
 ! D55   D(10,13,15,18)        -58.1893         calculate D2E/DX2 analytically  !
 ! D56   D(14,13,15,16)        178.7578         calculate D2E/DX2 analytically  !
 ! D57   D(14,13,15,17)        -61.6637         calculate D2E/DX2 analytically  !
 ! D58   D(14,13,15,18)         58.6636         calculate D2E/DX2 analytically  !
 ! D59   D(23,13,15,16)        -63.0123         calculate D2E/DX2 analytically  !
 ! D60   D(23,13,15,17)         56.5662         calculate D2E/DX2 analytically  !
 ! D61   D(23,13,15,18)        176.8935         calculate D2E/DX2 analytically  !
 ! D62   D(10,13,23,24)        179.0475         calculate D2E/DX2 analytically  !
 ! D63   D(10,13,23,25)        -61.692          calculate D2E/DX2 analytically  !
 ! D64   D(10,13,23,26)         58.6819         calculate D2E/DX2 analytically  !
 ! D65   D(14,13,23,24)         60.4024         calculate D2E/DX2 analytically  !
 ! D66   D(14,13,23,25)        179.6628         calculate D2E/DX2 analytically  !
 ! D67   D(14,13,23,26)        -59.9633         calculate D2E/DX2 analytically  !
 ! D68   D(15,13,23,24)        -57.5901         calculate D2E/DX2 analytically  !
 ! D69   D(15,13,23,25)         61.6704         calculate D2E/DX2 analytically  !
 ! D70   D(15,13,23,26)       -177.9557         calculate D2E/DX2 analytically  !
 --------------------------------------------------------------------------------
 Trust Radius=3.00D-01 FncErr=1.00D-07 GrdErr=1.00D-06
 Number of steps in this run=    162 maximum allowed number of steps=    180.
 Search for a saddle point of order  1.
 GradGradGradGradGradGradGradGradGradGradGradGradGradGradGradGradGradGrad

 Leave Link  103 at Thu Feb 20 10:56:22 2014, MaxMem= 4026531840 cpu:       0.2
 (Enter /usr/caen/gaussian-09revc/g09/l202.exe)
                          Input orientation:                          
 ---------------------------------------------------------------------
 Center     Atomic      Atomic             Coordinates (Angstroms)
 Number     Number       Type             X           Y           Z
 ---------------------------------------------------------------------
      1          6           0       -3.399196   -0.694221    0.554410
      2          1           0       -3.702139    0.346426    0.696267
      3          1           0       -3.234335   -1.134318    1.544107
      4          1           0       -4.234552   -1.226856    0.091560
      5          6           0       -2.133578   -0.802799   -0.308634
      6          1           0       -2.342210   -0.330139   -1.276766
      7          6           0       -0.960112   -0.045608    0.326170
      8          1           0       -1.452410    1.160328    0.541228
      9          1           0       -0.721970   -0.347557    1.350362
     10          6           0        1.483371    0.703803    0.098024
     11          1           0        1.441782    0.824846    1.186720
     12          1           0        1.817799    1.659307   -0.318114
     13          6           0        2.547133   -0.371520   -0.254553
     14          1           0        2.500103   -0.540464   -1.338517
     15          6           0        3.949530    0.156636    0.077421
     16          1           0        4.045436    0.364228    1.148687
     17          1           0        4.716757   -0.576301   -0.188068
     18          1           0        4.167232    1.082329   -0.462767
     19          6           0       -1.777108   -2.276014   -0.566533
     20          1           0       -1.532247   -2.787992    0.370304
     21          1           0       -2.616978   -2.806636   -1.025393
     22          1           0       -0.915425   -2.367223   -1.233303
     23          6           0        2.286256   -1.708627    0.450019
     24          1           0        3.041004   -2.448763    0.169084
     25          1           0        2.329620   -1.588678    1.538270
     26          1           0        1.306402   -2.119819    0.198432
     27          6           0        0.117100    0.403666   -0.435804
     28          1           0        0.019491    0.411211   -1.518962
     29          8           0       -0.592964    2.580123   -0.473166
     30          8           0       -1.571253    2.449148    0.333637
 ---------------------------------------------------------------------
                    Distance matrix (angstroms):
                    1          2          3          4          5
     1  C    0.000000
     2  H    1.093089   0.000000
     3  H    1.095612   1.769259   0.000000
     4  H    1.093503   1.767583   1.766038   0.000000
     5  C    1.535716   2.188819   2.180417   2.180383   0.000000
     6  H    2.145456   2.489981   3.065928   2.501475   1.097367
     7  C    2.534151   2.794526   2.800134   3.488889   1.534059
     8  H    2.688773   2.397447   3.073503   3.693394   2.245022
     9  H    2.814472   3.129035   2.639793   3.833534   2.225343
    10  C    5.099237   5.232125   5.265605   6.035075   3.939231
    11  H    5.112969   5.189350   5.082531   6.134299   4.203393
    12  H    5.789424   5.763882   6.065993   6.717791   4.655689
    13  C    6.009774   6.361832   6.102656   6.844169   4.700849
    14  H    6.197463   6.587467   6.445616   6.918947   4.753996
    15  C    7.413181   7.678999   7.444840   8.300208   6.170394
    16  H    7.542945   7.760794   7.442920   8.497486   6.454917
    17  H    8.150698   8.515356   8.156695   8.979273   6.855139
    18  H    7.838470   7.988236   7.982748   8.730956   6.578577
    19  C    2.527796   3.489642   2.807451   2.751881   1.537513
    20  H    2.811276   3.826129   2.647556   3.133256   2.182555
    21  H    2.751352   3.752797   3.127316   2.521871   2.182380
    22  H    3.487689   4.341993   3.822487   3.751307   2.187769
    23  C    5.776182   6.335989   5.657189   6.548399   4.575042
    24  H    6.686035   7.318537   6.557311   7.377858   5.451028
    25  H    5.881102   6.390283   5.582479   6.731437   4.893751
    26  H    4.929676   5.604970   4.837390   5.613464   3.718215
    27  C    3.814475   3.983899   4.185398   4.676921   2.556811
    28  H    4.148285   4.331509   4.728471   4.834659   2.752166
    29  O    4.433078   4.002992   4.984306   5.298412   3.720850
    30  O    3.642923   3.015562   4.131865   4.545852   3.362124
                    6          7          8          9         10
     6  H    0.000000
     7  C    2.135546   0.000000
     8  H    2.513630   1.320185   0.000000
     9  H    3.086630   1.094008   1.860634   0.000000
    10  C    4.194539   2.565985   3.003940   2.745403   0.000000
    11  H    4.660617   2.695799   2.984218   2.466400   1.096193
    12  H    4.709839   3.322443   3.417852   3.641667   1.094532
    13  C    4.995228   3.569906   4.356165   3.641890   1.553132
    14  H    4.847272   3.871583   4.695582   4.201076   2.155364
    15  C    6.454205   4.920098   5.513934   4.868008   2.526214
    16  H    6.867823   5.089205   5.588300   4.824466   2.789871
    17  H    7.146669   5.724764   6.450300   5.656752   3.489312
    18  H    6.710477   5.308891   5.709156   5.407061   2.767829
    19  C    2.147138   2.537541   3.625053   2.916633   4.466729
    20  H    3.067559   2.801777   3.952824   2.751869   4.621766
    21  H    2.504341   3.492163   4.421236   3.909263   5.513448
    22  H    2.487432   2.797114   3.985088   3.285088   4.117992
    23  C    5.128812   3.649641   4.713475   3.422361   2.566777
    24  H    5.963057   4.669985   5.775361   4.468832   3.517093
    25  H    5.597709   3.830481   4.780678   3.299681   2.836532
    26  H    4.323371   3.075021   4.299758   2.929530   2.830943
    27  C    2.700721   1.393857   1.997621   2.111578   1.497248
    28  H    2.487145   2.138415   2.640464   3.059169   2.200727
    29  O    3.489306   2.769151   1.945112   3.451551   2.856222
    30  O    3.303363   2.568532   1.310830   3.094603   3.525971
                   11         12         13         14         15
    11  H    0.000000
    12  H    1.761317   0.000000
    13  C    2.174939   2.158756   0.000000
    14  H    3.059565   2.519078   1.098058   0.000000
    15  C    2.822384   2.637943   1.534885   2.142818   0.000000
    16  H    2.644358   2.964979   2.180670   3.064752   1.095401
    17  H    3.818209   3.663170   2.180281   2.497673   1.093763
    18  H    3.196120   2.423564   2.186721   2.485903   1.093666
    19  C    4.801092   5.335899   4.735345   4.680024   6.255146
    20  H    4.750156   5.610276   4.782376   4.922530   6.229486
    21  H    5.878319   6.333414   5.761252   5.605185   7.288087
    22  H    4.647821   4.951871   4.114619   3.874784   5.635215
    23  C    2.770262   3.486038   1.533732   2.146904   2.526760
    24  H    3.782805   4.313911   2.176767   2.491393   2.760784
    25  H    2.595562   3.775914   2.177843   3.066549   2.793619
    26  H    3.109034   3.848394   2.191155   2.506291   3.490418
    27  C    2.136530   2.117277   2.557113   2.717531   3.874525
    28  H    3.084594   2.496736   2.932639   2.663021   4.249524
    29  O    3.158546   2.585289   4.315113   4.478165   5.177904
    30  O    3.527675   3.540382   5.026255   5.320697   5.983335
                   16         17         18         19         20
    16  H    0.000000
    17  H    1.766969   0.000000
    18  H    1.768414   1.768754   0.000000
    19  C    6.619281   6.723284   6.828207   0.000000
    20  H    6.453907   6.652323   6.939557   1.095327   0.000000
    21  H    7.692123   7.710978   7.840032   1.094301   1.767755
    22  H    6.143683   6.001782   6.190843   1.093343   1.768918
    23  C    2.807059   2.756203   3.487217   4.226847   3.968923
    24  H    3.143473   2.538074   3.759819   4.877005   4.590228
    25  H    2.628620   3.115056   3.809888   4.665602   4.209099
    26  H    3.817824   3.763290   4.344570   3.180818   2.921288
    27  C    4.236035   4.709411   4.106687   3.284174   3.681961
    28  H    4.829782   4.981041   4.332401   3.369876   4.026427
    29  O    5.390302   6.183642   4.990287   4.999298   5.514558
    30  O    6.046354   6.997470   5.952534   4.814544   5.237414
                   21         22         23         24         25
    21  H    0.000000
    22  H    1.769631   0.000000
    23  C    5.236809   3.676695   0.000000
    24  H    5.793756   4.198413   1.093787   0.000000
    25  H    5.703036   4.337980   1.095700   1.766489   0.000000
    26  H    4.166818   2.654730   1.092011   1.765760   1.767555
    27  C    4.257797   3.062669   3.154632   4.129341   3.572345
    28  H    4.189167   2.945397   3.675435   4.489821   4.322374
    29  O    5.780896   5.015777   5.247433   6.237620   5.474146
    30  O    5.528451   5.107136   5.672831   6.729749   5.742124
                   26         27         28         29         30
    26  H    0.000000
    27  C    2.860886   0.000000
    28  H    3.318387   1.087573   0.000000
    29  O    5.113520   2.289662   2.484546   0.000000
    30  O    5.401355   2.761625   3.180531   1.274808   0.000000
 Stoichiometry    C9H19O2(2)
 Framework group  C1[X(C9H19O2)]
 Deg. of freedom    84
 Full point group                 C1      NOp   1
 Largest Abelian subgroup         C1      NOp   1
 Largest concise Abelian subgroup C1      NOp   1
                         Standard orientation:                         
 ---------------------------------------------------------------------
 Center     Atomic      Atomic             Coordinates (Angstroms)
 Number     Number       Type             X           Y           Z
 ---------------------------------------------------------------------
      1          6           0       -3.399196   -0.694221    0.554410
      2          1           0       -3.702139    0.346426    0.696267
      3          1           0       -3.234335   -1.134318    1.544107
      4          1           0       -4.234552   -1.226856    0.091560
      5          6           0       -2.133578   -0.802799   -0.308634
      6          1           0       -2.342210   -0.330139   -1.276766
      7          6           0       -0.960112   -0.045608    0.326170
      8          1           0       -1.452410    1.160328    0.541228
      9          1           0       -0.721970   -0.347557    1.350362
     10          6           0        1.483371    0.703803    0.098024
     11          1           0        1.441782    0.824846    1.186720
     12          1           0        1.817799    1.659307   -0.318114
     13          6           0        2.547133   -0.371520   -0.254553
     14          1           0        2.500103   -0.540464   -1.338517
     15          6           0        3.949530    0.156636    0.077421
     16          1           0        4.045436    0.364228    1.148687
     17          1           0        4.716757   -0.576301   -0.188068
     18          1           0        4.167232    1.082329   -0.462767
     19          6           0       -1.777108   -2.276014   -0.566533
     20          1           0       -1.532247   -2.787992    0.370304
     21          1           0       -2.616978   -2.806636   -1.025393
     22          1           0       -0.915425   -2.367223   -1.233303
     23          6           0        2.286256   -1.708627    0.450019
     24          1           0        3.041004   -2.448763    0.169084
     25          1           0        2.329620   -1.588678    1.538270
     26          1           0        1.306402   -2.119819    0.198432
     27          6           0        0.117100    0.403666   -0.435804
     28          1           0        0.019491    0.411211   -1.518962
     29          8           0       -0.592964    2.580123   -0.473166
     30          8           0       -1.571253    2.449148    0.333637
 ---------------------------------------------------------------------
 Rotational constants (GHZ):      1.2435530      0.6108290      0.4380810
 Leave Link  202 at Thu Feb 20 10:56:22 2014, MaxMem= 4026531840 cpu:       0.5
 (Enter /usr/caen/gaussian-09revc/g09/l301.exe)
 Standard basis: 6-311G(2d,d,p) (5D, 7F)
 Ernie: Thresh=  0.10000D-02 Tol=  0.10000D-05 Strict=F.
 There are   312 symmetry adapted basis functions of A   symmetry.
 Integral buffers will be    131072 words long.
 Raffenetti 2 integral format.
 Two-electron integral symmetry is turned on.
   312 basis functions,   504 primitive gaussians,   323 cartesian basis functions
    45 alpha electrons       44 beta electrons
       nuclear repulsion energy       656.6820010467 Hartrees.
 IExCor=  402 DFT=T Ex+Corr=B3LYP ExCW=0 ScaHFX=  0.200000
 ScaDFX=  0.800000  0.720000  1.000000  0.810000 ScalE2=  1.000000  1.000000
 IRadAn=      0 IRanWt=     -1 IRanGd=            0 ICorTp=0
 NAtoms=   30 NActive=   30 NUniq=   30 SFac= 1.00D+00 NAtFMM=   60 NAOKFM=F Big=F
 Leave Link  301 at Thu Feb 20 10:56:23 2014, MaxMem= 4026531840 cpu:       0.8
 (Enter /usr/caen/gaussian-09revc/g09/l302.exe)
 NPDir=0 NMtPBC=     1 NCelOv=     1 NCel=       1 NClECP=     1 NCelD=      1
         NCelK=      1 NCelE2=     1 NClLst=     1 CellRange=     0.0.
 One-electron integrals computed using PRISM.
 NBasis=   312 RedAO= T  NBF=   312
 NBsUse=   312 1.00D-06 NBFU=   312
 Precomputing XC quadrature grid using
 IXCGrd= 2 IRadAn=           0 IRanWt=          -1 IRanGd=           0 AccXCQ= 0.00D+00.
 NRdTot=    1912 NPtTot=      243114 NUsed=      256901 NTot=      256933
 NSgBfM=   323   323   323   323   323 NAtAll=    30    30.
 Leave Link  302 at Thu Feb 20 10:56:24 2014, MaxMem= 4026531840 cpu:       6.4
 (Enter /usr/caen/gaussian-09revc/g09/l303.exe)
 DipDrv:  MaxL=1.
 Leave Link  303 at Thu Feb 20 10:56:24 2014, MaxMem= 4026531840 cpu:       1.0
 (Enter /usr/caen/gaussian-09revc/g09/l401.exe)
 Harris functional with IExCor=  402 diagonalized for initial guess.
 ExpMin= 1.03D-01 ExpMax= 8.59D+03 ExpMxC= 1.30D+03 IAcc=1 IRadAn=         1 AccDes= 0.00D+00
 HarFok:  IExCor=  402 AccDes= 0.00D+00 IRadAn=         1 IDoV= 1
 ScaDFX=  1.000000  1.000000  1.000000  1.000000
 FoFCou: FMM=F IPFlag=           0 FMFlag=      100000 FMFlg1=           0
         NFxFlg=           0 DoJE=T BraDBF=F KetDBF=T FulRan=T
         Omega=  0.000000  0.000000  1.000000  0.000000  0.000000 ICntrl=     500 IOpCl=  0
         NMat0=    1 NMatS0=    1 NMatT0=    0 NMatD0=    1 NMtDS0=    0 NMtDT0=    0
         I1Cent=           4 NGrid=           0.
 Petite list used in FoFCou.
 Harris En= -504.902171217902    
 Initial guess orbital symmetries:
 Alpha Orbitals:
       Occupied  (A) (A) (A) (A) (A) (A) (A) (A) (A) (A) (A) (A)
                 (A) (A) (A) (A) (A) (A) (A) (A) (A) (A) (A) (A)
                 (A) (A) (A) (A) (A) (A) (A) (A) (A) (A) (A) (A)
                 (A) (A) (A) (A) (A) (A) (A) (A) (A)
       Virtual   (A) (A) (A) (A) (A) (A) (A) (A) (A) (A) (A) (A)
                 (A) (A) (A) (A) (A) (A) (A) (A) (A) (A) (A) (A)
                 (A) (A) (A) (A) (A) (A) (A) (A) (A) (A) (A) (A)
                 (A) (A) (A) (A) (A) (A) (A) (A) (A) (A) (A) (A)
                 (A) (A) (A) (A) (A) (A) (A) (A) (A) (A) (A) (A)
                 (A) (A) (A) (A) (A) (A) (A) (A) (A) (A) (A) (A)
                 (A) (A) (A) (A) (A) (A) (A) (A) (A) (A) (A) (A)
                 (A) (A) (A) (A) (A) (A) (A) (A) (A) (A) (A) (A)
                 (A) (A) (A) (A) (A) (A) (A) (A) (A) (A) (A) (A)
                 (A) (A) (A) (A) (A) (A) (A) (A) (A) (A) (A) (A)
                 (A) (A) (A) (A) (A) (A) (A) (A) (A) (A) (A) (A)
                 (A) (A) (A) (A) (A) (A) (A) (A) (A) (A) (A) (A)
                 (A) (A) (A) (A) (A) (A) (A) (A) (A) (A) (A) (A)
                 (A) (A) (A) (A) (A) (A) (A) (A) (A) (A) (A) (A)
                 (A) (A) (A) (A) (A) (A) (A) (A) (A) (A) (A) (A)
                 (A) (A) (A) (A) (A) (A) (A) (A) (A) (A) (A) (A)
                 (A) (A) (A) (A) (A) (A) (A) (A) (A) (A) (A) (A)
                 (A) (A) (A) (A) (A) (A) (A) (A) (A) (A) (A) (A)
                 (A) (A) (A) (A) (A) (A) (A) (A) (A) (A) (A) (A)
                 (A) (A) (A) (A) (A) (A) (A) (A) (A) (A) (A) (A)
                 (A) (A) (A) (A) (A) (A) (A) (A) (A) (A) (A) (A)
                 (A) (A) (A) (A) (A) (A) (A) (A) (A) (A) (A) (A)
                 (A) (A) (A)
 Beta  Orbitals:
       Occupied  (A) (A) (A) (A) (A) (A) (A) (A) (A) (A) (A) (A)
                 (A) (A) (A) (A) (A) (A) (A) (A) (A) (A) (A) (A)
                 (A) (A) (A) (A) (A) (A) (A) (A) (A) (A) (A) (A)
                 (A) (A) (A) (A) (A) (A) (A) (A)
       Virtual   (A) (A) (A) (A) (A) (A) (A) (A) (A) (A) (A) (A)
                 (A) (A) (A) (A) (A) (A) (A) (A) (A) (A) (A) (A)
                 (A) (A) (A) (A) (A) (A) (A) (A) (A) (A) (A) (A)
                 (A) (A) (A) (A) (A) (A) (A) (A) (A) (A) (A) (A)
                 (A) (A) (A) (A) (A) (A) (A) (A) (A) (A) (A) (A)
                 (A) (A) (A) (A) (A) (A) (A) (A) (A) (A) (A) (A)
                 (A) (A) (A) (A) (A) (A) (A) (A) (A) (A) (A) (A)
                 (A) (A) (A) (A) (A) (A) (A) (A) (A) (A) (A) (A)
                 (A) (A) (A) (A) (A) (A) (A) (A) (A) (A) (A) (A)
                 (A) (A) (A) (A) (A) (A) (A) (A) (A) (A) (A) (A)
                 (A) (A) (A) (A) (A) (A) (A) (A) (A) (A) (A) (A)
                 (A) (A) (A) (A) (A) (A) (A) (A) (A) (A) (A) (A)
                 (A) (A) (A) (A) (A) (A) (A) (A) (A) (A) (A) (A)
                 (A) (A) (A) (A) (A) (A) (A) (A) (A) (A) (A) (A)
                 (A) (A) (A) (A) (A) (A) (A) (A) (A) (A) (A) (A)
                 (A) (A) (A) (A) (A) (A) (A) (A) (A) (A) (A) (A)
                 (A) (A) (A) (A) (A) (A) (A) (A) (A) (A) (A) (A)
                 (A) (A) (A) (A) (A) (A) (A) (A) (A) (A) (A) (A)
                 (A) (A) (A) (A) (A) (A) (A) (A) (A) (A) (A) (A)
                 (A) (A) (A) (A) (A) (A) (A) (A) (A) (A) (A) (A)
                 (A) (A) (A) (A) (A) (A) (A) (A) (A) (A) (A) (A)
                 (A) (A) (A) (A) (A) (A) (A) (A) (A) (A) (A) (A)
                 (A) (A) (A) (A)
 The electronic state of the initial guess is 2-A.
 Initial guess <Sx>= 0.0000 <Sy>= 0.0000 <Sz>= 0.5000 <S**2>= 0.7500 S= 0.5000
 Leave Link  401 at Thu Feb 20 10:56:26 2014, MaxMem= 4026531840 cpu:       6.5
 (Enter /usr/caen/gaussian-09revc/g09/l502.exe)
 UHF open shell SCF:
 Requested convergence on RMS density matrix=1.00D-08 within 128 cycles.
 Requested convergence on MAX density matrix=1.00D-06.
 Requested convergence on             energy=1.00D-06.
 No special actions if energy rises.
 Using DIIS extrapolation, IDIIS=  1040.
 Integral symmetry usage will be decided dynamically.
       256618 words used for storage of precomputed grid.
 Keep R1 and R2 ints in memory in canonical form, NReq=2755661349.
 IEnd=      592776 IEndB=      592776 NGot=  4026531840 MDV=  1287997727
 LenX=  1287997727 LenY=  1287892957
 Symmetry not used in FoFDir.
 MinBra= 0 MaxBra= 2 Meth= 1.
 IRaf=       0 NMat=   1 IRICut=       1 DoRegI=T DoRafI=F ISym2E= 0 JSym2E=0.
 Integral accuracy reduced to 1.0D-05 until final iterations.

 Cycle   1  Pass 0  IDiag  1:
 E= -504.416378516097    
 DIIS: error= 4.02D-02 at cycle   1 NSaved=   1.
 NSaved= 1 IEnMin= 1 EnMin= -504.416378516097     IErMin= 1 ErrMin= 4.02D-02
 ErrMax= 4.02D-02 EMaxC= 1.00D-01 BMatC= 1.64D+00 BMatP= 1.64D+00
 IDIUse=3 WtCom= 5.98D-01 WtEn= 4.02D-01
 Coeff-Com:  0.100D+01
 Coeff-En:   0.100D+01
 Coeff:      0.100D+01
 Gap=     0.357 Goal=   None    Shift=    0.000
 Gap=     0.064 Goal=   None    Shift=    0.000
 GapD=    0.064 DampG=0.500 DampE=0.500 DampFc=0.2500 IDamp=-1.
 Damping current iteration by 2.50D-01
 RMSDP=3.87D-03 MaxDP=1.24D-01              OVMax= 6.27D-01

 Cycle   2  Pass 0  IDiag  1:
 E= -504.546309519488     Delta-E=       -0.129931003391 Rises=F Damp=T
 DIIS: error= 1.74D-02 at cycle   2 NSaved=   2.
 NSaved= 2 IEnMin= 2 EnMin= -504.546309519488     IErMin= 2 ErrMin= 1.74D-02
 ErrMax= 1.74D-02 EMaxC= 1.00D-01 BMatC= 3.78D-01 BMatP= 1.64D+00
 IDIUse=3 WtCom= 8.26D-01 WtEn= 1.74D-01
 Coeff-Com: -0.565D+00 0.156D+01
 Coeff-En:   0.000D+00 0.100D+01
 Coeff:     -0.466D+00 0.147D+01
 Gap=     0.249 Goal=   None    Shift=    0.000
 Gap=     0.056 Goal=   None    Shift=    0.000
 RMSDP=1.52D-03 MaxDP=7.59D-02 DE=-1.30D-01 OVMax= 5.84D-01

 Cycle   3  Pass 0  IDiag  1:
 E= -504.681035968483     Delta-E=       -0.134726448995 Rises=F Damp=F
 DIIS: error= 4.01D-02 at cycle   3 NSaved=   3.
 NSaved= 3 IEnMin= 3 EnMin= -504.681035968483     IErMin= 2 ErrMin= 1.74D-02
 ErrMax= 4.01D-02 EMaxC= 1.00D-01 BMatC= 5.88D-01 BMatP= 3.78D-01
 IDIUse=2 WtCom= 0.00D+00 WtEn= 1.00D+00
 Coeff-En:   0.000D+00 0.102D+00 0.898D+00
 Coeff:      0.000D+00 0.102D+00 0.898D+00
 Gap=     0.366 Goal=   None    Shift=    0.000
 Gap=     0.009 Goal=   None    Shift=    0.000
 RMSDP=3.08D-03 MaxDP=1.29D-01 DE=-1.35D-01 OVMax= 7.09D-01

 Cycle   4  Pass 0  IDiag  1:
 E= -503.847153120587     Delta-E=        0.833882847895 Rises=F Damp=F
 DIIS: error= 9.53D-02 at cycle   4 NSaved=   4.
 NSaved= 4 IEnMin= 3 EnMin= -504.681035968483     IErMin= 2 ErrMin= 1.74D-02
 ErrMax= 9.53D-02 EMaxC= 1.00D-01 BMatC= 3.35D+00 BMatP= 3.78D-01
 IDIUse=2 WtCom= 0.00D+00 WtEn= 1.00D+00
 Coeff-En:   0.000D+00 0.000D+00 0.810D+00 0.190D+00
 Coeff:      0.000D+00 0.000D+00 0.810D+00 0.190D+00
 Gap=     0.374 Goal=   None    Shift=    0.000
 Gap=     0.048 Goal=   None    Shift=    0.000
 RMSDP=2.07D-03 MaxDP=9.35D-02 DE= 8.34D-01 OVMax= 8.86D-01

 Cycle   5  Pass 0  IDiag  1:
 E= -504.771971661435     Delta-E=       -0.924818540848 Rises=F Damp=F
 DIIS: error= 2.77D-02 at cycle   5 NSaved=   5.
 NSaved= 5 IEnMin= 5 EnMin= -504.771971661435     IErMin= 2 ErrMin= 1.74D-02
 ErrMax= 2.77D-02 EMaxC= 1.00D-01 BMatC= 2.51D-01 BMatP= 3.78D-01
 IDIUse=3 WtCom= 7.23D-01 WtEn= 2.77D-01
 Coeff-Com: -0.166D+00 0.345D+00 0.367D+00-0.130D-01 0.467D+00
 Coeff-En:   0.000D+00 0.000D+00 0.329D+00 0.000D+00 0.671D+00
 Coeff:     -0.120D+00 0.249D+00 0.356D+00-0.939D-02 0.524D+00
 Gap=     0.197 Goal=   None    Shift=    0.000
 Gap=     0.148 Goal=   None    Shift=    0.000
 RMSDP=7.13D-04 MaxDP=3.41D-02 DE=-9.25D-01 OVMax= 1.66D-01

 Cycle   6  Pass 0  IDiag  1:
 E= -504.826283624306     Delta-E=       -0.054311962871 Rises=F Damp=F
 DIIS: error= 1.06D-02 at cycle   6 NSaved=   6.
 NSaved= 6 IEnMin= 6 EnMin= -504.826283624306     IErMin= 6 ErrMin= 1.06D-02
 ErrMax= 1.06D-02 EMaxC= 1.00D-01 BMatC= 1.97D-02 BMatP= 2.51D-01
 IDIUse=3 WtCom= 8.94D-01 WtEn= 1.06D-01
 Coeff-Com: -0.753D-01 0.126D+00 0.182D+00-0.303D-01 0.357D+00 0.440D+00
 Coeff-En:   0.000D+00 0.000D+00 0.000D+00 0.000D+00 0.000D+00 0.100D+01
 Coeff:     -0.673D-01 0.113D+00 0.163D+00-0.271D-01 0.319D+00 0.499D+00
 Gap=     0.204 Goal=   None    Shift=    0.000
 Gap=     0.143 Goal=   None    Shift=    0.000
 RMSDP=2.45D-04 MaxDP=1.11D-02 DE=-5.43D-02 OVMax= 4.46D-02

 Cycle   7  Pass 0  IDiag  1:
 E= -504.829015508111     Delta-E=       -0.002731883805 Rises=F Damp=F
 DIIS: error= 8.36D-03 at cycle   7 NSaved=   7.
 NSaved= 7 IEnMin= 7 EnMin= -504.829015508111     IErMin= 7 ErrMin= 8.36D-03
 ErrMax= 8.36D-03 EMaxC= 1.00D-01 BMatC= 9.42D-03 BMatP= 1.97D-02
 IDIUse=3 WtCom= 9.16D-01 WtEn= 8.36D-02
 Coeff-Com: -0.145D-01 0.197D-01 0.690D-01-0.117D-01 0.123D+00 0.375D+00
 Coeff-Com:  0.440D+00
 Coeff-En:   0.000D+00 0.000D+00 0.000D+00 0.000D+00 0.000D+00 0.330D+00
 Coeff-En:   0.670D+00
 Coeff:     -0.133D-01 0.180D-01 0.632D-01-0.107D-01 0.113D+00 0.371D+00
 Coeff:      0.459D+00
 Gap=     0.202 Goal=   None    Shift=    0.000
 Gap=     0.146 Goal=   None    Shift=    0.000
 RMSDP=1.06D-04 MaxDP=5.22D-03 DE=-2.73D-03 OVMax= 1.85D-02

 Cycle   8  Pass 0  IDiag  1:
 E= -504.830760708430     Delta-E=       -0.001745200319 Rises=F Damp=F
 DIIS: error= 2.91D-03 at cycle   8 NSaved=   8.
 NSaved= 8 IEnMin= 8 EnMin= -504.830760708430     IErMin= 8 ErrMin= 2.91D-03
 ErrMax= 2.91D-03 EMaxC= 1.00D-01 BMatC= 1.07D-03 BMatP= 9.42D-03
 IDIUse=3 WtCom= 9.71D-01 WtEn= 2.91D-02
 Coeff-Com:  0.762D-02-0.114D-01 0.502D-02 0.143D-02-0.209D-01 0.149D+00
 Coeff-Com:  0.329D+00 0.540D+00
 Coeff-En:   0.000D+00 0.000D+00 0.000D+00 0.000D+00 0.000D+00 0.000D+00
 Coeff-En:   0.000D+00 0.100D+01
 Coeff:      0.740D-02-0.110D-01 0.487D-02 0.139D-02-0.203D-01 0.145D+00
 Coeff:      0.319D+00 0.554D+00
 Gap=     0.202 Goal=   None    Shift=    0.000
 Gap=     0.147 Goal=   None    Shift=    0.000
 RMSDP=4.24D-05 MaxDP=1.95D-03 DE=-1.75D-03 OVMax= 1.02D-02

 Cycle   9  Pass 0  IDiag  1:
 E= -504.830981453386     Delta-E=       -0.000220744956 Rises=F Damp=F
 DIIS: error= 3.67D-04 at cycle   9 NSaved=   9.
 NSaved= 9 IEnMin= 9 EnMin= -504.830981453386     IErMin= 9 ErrMin= 3.67D-04
 ErrMax= 3.67D-04 EMaxC= 1.00D-01 BMatC= 6.51D-05 BMatP= 1.07D-03
 IDIUse=3 WtCom= 9.96D-01 WtEn= 3.67D-03
 Coeff-Com:  0.257D-02-0.481D-02-0.202D-02 0.974D-03-0.647D-02 0.362D-01
 Coeff-Com:  0.759D-01 0.224D+00 0.674D+00
 Coeff-En:   0.000D+00 0.000D+00 0.000D+00 0.000D+00 0.000D+00 0.000D+00
 Coeff-En:   0.000D+00 0.000D+00 0.100D+01
 Coeff:      0.256D-02-0.480D-02-0.201D-02 0.971D-03-0.644D-02 0.360D-01
 Coeff:      0.756D-01 0.223D+00 0.675D+00
 Gap=     0.203 Goal=   None    Shift=    0.000
 Gap=     0.147 Goal=   None    Shift=    0.000
 RMSDP=1.37D-05 MaxDP=7.23D-04 DE=-2.21D-04 OVMax= 3.59D-03

 Cycle  10  Pass 0  IDiag  1:
 E= -504.831002303493     Delta-E=       -0.000020850108 Rises=F Damp=F
 DIIS: error= 1.26D-04 at cycle  10 NSaved=  10.
 NSaved=10 IEnMin=10 EnMin= -504.831002303493     IErMin=10 ErrMin= 1.26D-04
 ErrMax= 1.26D-04 EMaxC= 1.00D-01 BMatC= 1.04D-05 BMatP= 6.51D-05
 IDIUse=3 WtCom= 9.99D-01 WtEn= 1.26D-03
 Coeff-Com: -0.150D-02 0.213D-02-0.329D-02 0.408D-04 0.104D-02-0.169D-01
 Coeff-Com: -0.411D-01-0.740D-02 0.312D+00 0.755D+00
 Coeff-En:   0.000D+00 0.000D+00 0.000D+00 0.000D+00 0.000D+00 0.000D+00
 Coeff-En:   0.000D+00 0.000D+00 0.000D+00 0.100D+01
 Coeff:     -0.150D-02 0.213D-02-0.329D-02 0.408D-04 0.104D-02-0.169D-01
 Coeff:     -0.410D-01-0.739D-02 0.312D+00 0.755D+00
 Gap=     0.203 Goal=   None    Shift=    0.000
 Gap=     0.147 Goal=   None    Shift=    0.000
 RMSDP=1.04D-05 MaxDP=4.76D-04 DE=-2.09D-05 OVMax= 3.07D-03

 Cycle  11  Pass 0  IDiag  1:
 E= -504.831010351673     Delta-E=       -0.000008048180 Rises=F Damp=F
 DIIS: error= 6.50D-05 at cycle  11 NSaved=  11.
 NSaved=11 IEnMin=11 EnMin= -504.831010351673     IErMin=11 ErrMin= 6.50D-05
 ErrMax= 6.50D-05 EMaxC= 1.00D-01 BMatC= 1.90D-06 BMatP= 1.04D-05
 IDIUse=1 WtCom= 1.00D+00 WtEn= 0.00D+00
 Coeff-Com: -0.564D-03 0.924D-03 0.641D-03-0.141D-03 0.193D-02-0.111D-01
 Coeff-Com: -0.256D-01-0.618D-01-0.242D+00-0.134D-01 0.135D+01
 Coeff:     -0.564D-03 0.924D-03 0.641D-03-0.141D-03 0.193D-02-0.111D-01
 Coeff:     -0.256D-01-0.618D-01-0.242D+00-0.134D-01 0.135D+01
 Gap=     0.203 Goal=   None    Shift=    0.000
 Gap=     0.147 Goal=   None    Shift=    0.000
 RMSDP=1.19D-05 MaxDP=5.91D-04 DE=-8.05D-06 OVMax= 3.88D-03

 Cycle  12  Pass 0  IDiag  1:
 E= -504.831014689517     Delta-E=       -0.000004337844 Rises=F Damp=F
 DIIS: error= 2.82D-05 at cycle  12 NSaved=  12.
 NSaved=12 IEnMin=12 EnMin= -504.831014689517     IErMin=12 ErrMin= 2.82D-05
 ErrMax= 2.82D-05 EMaxC= 1.00D-01 BMatC= 3.47D-07 BMatP= 1.90D-06
 IDIUse=1 WtCom= 1.00D+00 WtEn= 0.00D+00
 Coeff-Com:  0.247D-03-0.288D-03 0.753D-03 0.281D-05-0.233D-03 0.124D-02
 Coeff-Com:  0.327D-02-0.862D-02-0.101D+00-0.149D+00 0.268D+00 0.987D+00
 Coeff:      0.247D-03-0.288D-03 0.753D-03 0.281D-05-0.233D-03 0.124D-02
 Coeff:      0.327D-02-0.862D-02-0.101D+00-0.149D+00 0.268D+00 0.987D+00
 Gap=     0.203 Goal=   None    Shift=    0.000
 Gap=     0.147 Goal=   None    Shift=    0.000
 RMSDP=4.66D-06 MaxDP=2.82D-04 DE=-4.34D-06 OVMax= 1.59D-03

 Initial convergence to 1.0D-05 achieved.  Increase integral accuracy.
 Cycle  13  Pass 1  IDiag  1:
 E= -504.831061575999     Delta-E=       -0.000046886482 Rises=F Damp=F
 DIIS: error= 1.43D-05 at cycle   1 NSaved=   1.
 NSaved= 1 IEnMin= 1 EnMin= -504.831061575999     IErMin= 1 ErrMin= 1.43D-05
 ErrMax= 1.43D-05 EMaxC= 1.00D-01 BMatC= 5.01D-07 BMatP= 5.01D-07
 IDIUse=1 WtCom= 1.00D+00 WtEn= 0.00D+00
 Coeff-Com:  0.100D+01
 Coeff:      0.100D+01
 Gap=     0.203 Goal=   None    Shift=    0.000
 Gap=     0.147 Goal=   None    Shift=    0.000
 RMSDP=4.66D-06 MaxDP=2.82D-04 DE=-4.69D-05 OVMax= 3.86D-04

 Cycle  14  Pass 1  IDiag  1:
 E= -504.831061800524     Delta-E=       -0.000000224525 Rises=F Damp=F
 DIIS: error= 3.11D-05 at cycle   2 NSaved=   2.
 NSaved= 2 IEnMin= 2 EnMin= -504.831061800524     IErMin= 1 ErrMin= 1.43D-05
 ErrMax= 3.11D-05 EMaxC= 1.00D-01 BMatC= 1.74D-07 BMatP= 5.01D-07
 IDIUse=1 WtCom= 1.00D+00 WtEn= 0.00D+00
 Coeff-Com:  0.279D+00 0.721D+00
 Coeff:      0.279D+00 0.721D+00
 Gap=     0.203 Goal=   None    Shift=    0.000
 Gap=     0.147 Goal=   None    Shift=    0.000
 RMSDP=1.08D-06 MaxDP=7.34D-05 DE=-2.25D-07 OVMax= 3.05D-04

 Cycle  15  Pass 1  IDiag  1:
 E= -504.831061817050     Delta-E=       -0.000000016526 Rises=F Damp=F
 DIIS: error= 4.30D-05 at cycle   3 NSaved=   3.
 NSaved= 3 IEnMin= 3 EnMin= -504.831061817050     IErMin= 1 ErrMin= 1.43D-05
 ErrMax= 4.30D-05 EMaxC= 1.00D-01 BMatC= 3.03D-07 BMatP= 1.74D-07
 IDIUse=1 WtCom= 1.00D+00 WtEn= 0.00D+00
 Coeff-Com: -0.180D-01 0.585D+00 0.433D+00
 Coeff:     -0.180D-01 0.585D+00 0.433D+00
 Gap=     0.203 Goal=   None    Shift=    0.000
 Gap=     0.147 Goal=   None    Shift=    0.000
 RMSDP=7.30D-07 MaxDP=4.44D-05 DE=-1.65D-08 OVMax= 2.03D-04

 Cycle  16  Pass 1  IDiag  1:
 E= -504.831061887338     Delta-E=       -0.000000070288 Rises=F Damp=F
 DIIS: error= 1.67D-05 at cycle   4 NSaved=   4.
 NSaved= 4 IEnMin= 4 EnMin= -504.831061887338     IErMin= 1 ErrMin= 1.43D-05
 ErrMax= 1.67D-05 EMaxC= 1.00D-01 BMatC= 3.64D-08 BMatP= 1.74D-07
 IDIUse=1 WtCom= 1.00D+00 WtEn= 0.00D+00
 Coeff-Com: -0.576D-01 0.275D+00 0.279D+00 0.504D+00
 Coeff:     -0.576D-01 0.275D+00 0.279D+00 0.504D+00
 Gap=     0.203 Goal=   None    Shift=    0.000
 Gap=     0.147 Goal=   None    Shift=    0.000
 RMSDP=3.74D-07 MaxDP=2.29D-05 DE=-7.03D-08 OVMax= 1.01D-04

 Cycle  17  Pass 1  IDiag  1:
 E= -504.831061905110     Delta-E=       -0.000000017772 Rises=F Damp=F
 DIIS: error= 4.44D-06 at cycle   5 NSaved=   5.
 NSaved= 5 IEnMin= 5 EnMin= -504.831061905110     IErMin= 5 ErrMin= 4.44D-06
 ErrMax= 4.44D-06 EMaxC= 1.00D-01 BMatC= 8.47D-09 BMatP= 3.64D-08
 IDIUse=1 WtCom= 1.00D+00 WtEn= 0.00D+00
 Coeff-Com:  0.268D-02-0.304D+00-0.253D+00 0.112D+00 0.144D+01
 Coeff:      0.268D-02-0.304D+00-0.253D+00 0.112D+00 0.144D+01
 Gap=     0.204 Goal=   None    Shift=    0.000
 Gap=     0.147 Goal=   None    Shift=    0.000
 RMSDP=7.81D-07 MaxDP=5.06D-05 DE=-1.78D-08 OVMax= 2.52D-04

 Cycle  18  Pass 1  IDiag  1:
 E= -504.831061922685     Delta-E=       -0.000000017576 Rises=F Damp=F
 DIIS: error= 4.08D-06 at cycle   6 NSaved=   6.
 NSaved= 6 IEnMin= 6 EnMin= -504.831061922685     IErMin= 6 ErrMin= 4.08D-06
 ErrMax= 4.08D-06 EMaxC= 1.00D-01 BMatC= 7.84D-09 BMatP= 8.47D-09
 IDIUse=1 WtCom= 1.00D+00 WtEn= 0.00D+00
 Coeff-Com:  0.214D-01-0.340D+00-0.304D+00-0.751D-01 0.119D+01 0.505D+00
 Coeff:      0.214D-01-0.340D+00-0.304D+00-0.751D-01 0.119D+01 0.505D+00
 Gap=     0.204 Goal=   None    Shift=    0.000
 Gap=     0.147 Goal=   None    Shift=    0.000
 RMSDP=3.52D-07 MaxDP=2.32D-05 DE=-1.76D-08 OVMax= 1.13D-04

 Cycle  19  Pass 1  IDiag  1:
 E= -504.831061927162     Delta-E=       -0.000000004477 Rises=F Damp=F
 DIIS: error= 1.30D-06 at cycle   7 NSaved=   7.
 NSaved= 7 IEnMin= 7 EnMin= -504.831061927162     IErMin= 7 ErrMin= 1.30D-06
 ErrMax= 1.30D-06 EMaxC= 1.00D-01 BMatC= 6.77D-10 BMatP= 7.84D-09
 IDIUse=1 WtCom= 1.00D+00 WtEn= 0.00D+00
 Coeff-Com:  0.117D-01-0.131D+00-0.118D+00-0.736D-01 0.382D+00 0.270D+00
 Coeff-Com:  0.658D+00
 Coeff:      0.117D-01-0.131D+00-0.118D+00-0.736D-01 0.382D+00 0.270D+00
 Coeff:      0.658D+00
 Gap=     0.204 Goal=   None    Shift=    0.000
 Gap=     0.147 Goal=   None    Shift=    0.000
 RMSDP=1.20D-07 MaxDP=8.65D-06 DE=-4.48D-09 OVMax= 4.17D-05

 Cycle  20  Pass 1  IDiag  1:
 E= -504.831061927644     Delta-E=       -0.000000000481 Rises=F Damp=F
 DIIS: error= 4.94D-07 at cycle   8 NSaved=   8.
 NSaved= 8 IEnMin= 8 EnMin= -504.831061927644     IErMin= 8 ErrMin= 4.94D-07
 ErrMax= 4.94D-07 EMaxC= 1.00D-01 BMatC= 1.58D-10 BMatP= 6.77D-10
 IDIUse=1 WtCom= 1.00D+00 WtEn= 0.00D+00
 Coeff-Com:  0.300D-03 0.175D-01 0.186D-01-0.204D-01-0.892D-01-0.700D-02
 Coeff-Com:  0.316D+00 0.764D+00
 Coeff:      0.300D-03 0.175D-01 0.186D-01-0.204D-01-0.892D-01-0.700D-02
 Coeff:      0.316D+00 0.764D+00
 Gap=     0.204 Goal=   None    Shift=    0.000
 Gap=     0.147 Goal=   None    Shift=    0.000
 RMSDP=4.54D-08 MaxDP=2.72D-06 DE=-4.81D-10 OVMax= 1.33D-05

 Cycle  21  Pass 1  IDiag  1:
 E= -504.831061927736     Delta-E=       -0.000000000093 Rises=F Damp=F
 DIIS: error= 2.54D-07 at cycle   9 NSaved=   9.
 NSaved= 9 IEnMin= 9 EnMin= -504.831061927736     IErMin= 9 ErrMin= 2.54D-07
 ErrMax= 2.54D-07 EMaxC= 1.00D-01 BMatC= 4.03D-11 BMatP= 1.58D-10
 IDIUse=1 WtCom= 1.00D+00 WtEn= 0.00D+00
 Coeff-Com: -0.313D-02 0.456D-01 0.448D-01 0.641D-02-0.148D+00-0.907D-01
 Coeff-Com: -0.255D-01 0.374D+00 0.797D+00
 Coeff:     -0.313D-02 0.456D-01 0.448D-01 0.641D-02-0.148D+00-0.907D-01
 Coeff:     -0.255D-01 0.374D+00 0.797D+00
 Gap=     0.204 Goal=   None    Shift=    0.000
 Gap=     0.147 Goal=   None    Shift=    0.000
 RMSDP=2.50D-08 MaxDP=1.48D-06 DE=-9.28D-11 OVMax= 6.56D-06

 Cycle  22  Pass 1  IDiag  1:
 E= -504.831061927759     Delta-E=       -0.000000000022 Rises=F Damp=F
 DIIS: error= 8.24D-08 at cycle  10 NSaved=  10.
 NSaved=10 IEnMin=10 EnMin= -504.831061927759     IErMin=10 ErrMin= 8.24D-08
 ErrMax= 8.24D-08 EMaxC= 1.00D-01 BMatC= 6.30D-12 BMatP= 4.03D-11
 IDIUse=1 WtCom= 1.00D+00 WtEn= 0.00D+00
 Coeff-Com: -0.128D-02 0.147D-01 0.147D-01 0.496D-02-0.390D-01-0.382D-01
 Coeff-Com: -0.698D-01-0.337D-02 0.323D+00 0.794D+00
 Coeff:     -0.128D-02 0.147D-01 0.147D-01 0.496D-02-0.390D-01-0.382D-01
 Coeff:     -0.698D-01-0.337D-02 0.323D+00 0.794D+00
 Gap=     0.204 Goal=   None    Shift=    0.000
 Gap=     0.147 Goal=   None    Shift=    0.000
 RMSDP=9.62D-09 MaxDP=3.95D-07 DE=-2.23D-11 OVMax= 2.28D-06

 SCF Done:  E(UB3LYP) =  -504.831061928     A.U. after   22 cycles
             Convg  =    0.9620D-08             -V/T =  2.0043
 <Sx>= 0.0000 <Sy>= 0.0000 <Sz>= 0.5000 <S**2>= 0.7608 S= 0.5054
 <L.S>= 0.000000000000E+00
 KE= 5.026753124872D+02 PE=-2.489247024728D+03 EE= 8.250586492667D+02
 Annihilation of the first spin contaminant:
 S**2 before annihilation     0.7608,   after     0.7501
 Leave Link  502 at Thu Feb 20 10:58:46 2014, MaxMem= 4026531840 cpu:    1069.7
 (Enter /usr/caen/gaussian-09revc/g09/l801.exe)
 Range of M.O.s used for correlation:     1   312
 NBasis=   312 NAE=    45 NBE=    44 NFC=     0 NFV=     0
 NROrb=    312 NOA=    45 NOB=    44 NVA=   267 NVB=   268
 Leave Link  801 at Thu Feb 20 10:58:48 2014, MaxMem= 4026531840 cpu:       0.3
 (Enter /usr/caen/gaussian-09revc/g09/l1101.exe)
 Using compressed storage, NAtomX=    30.
 Will process  31 centers per pass.
 Leave Link 1101 at Thu Feb 20 10:58:51 2014, MaxMem= 4026531840 cpu:      15.5
 (Enter /usr/caen/gaussian-09revc/g09/l1102.exe)
 Symmetrizing basis deriv contribution to polar:
 IMax=3 JMax=2 DiffMx= 0.00D+00
 Leave Link 1102 at Thu Feb 20 10:58:51 2014, MaxMem= 4026531840 cpu:       1.6
 (Enter /usr/caen/gaussian-09revc/g09/l1110.exe)
 Forming Gx(P) for the SCF density, NAtomX=    30.
 Integral derivatives from FoFDir/FoFCou, PRISM(SPDF).
 Do as many integral derivatives as possible in FoFDir.
 G2DrvN: MDV=    4026531496.
 G2DrvN: will do    31 centers at a time, making    1 passes doing MaxLOS=2.
 Calling FoFCou, ICntrl=  3107 FMM=F I1Cent=   0 AccDes= 0.00D+00.
 FoFCou: FMM=F IPFlag=           0 FMFlag=      100000 FMFlg1=           0
         NFxFlg=           0 DoJE=F BraDBF=F KetDBF=F FulRan=T
         Omega=  0.000000  0.000000  1.000000  0.000000  0.000000 ICntrl=    3107 IOpCl=  1
         NMat0=    1 NMatS0=    1 NMatT0=    0 NMatD0=    1 NMtDS0=    0 NMtDT0=    0
         I1Cent=           0 NGrid=           0.
 Symmetry not used in FoFCou.
 FoFDir/FoFCou used for L=0 through L=2.
 End of G2Drv Frequency-dependent properties file   721 does not exist.
 End of G2Drv Frequency-dependent properties file   722 does not exist.
 Leave Link 1110 at Thu Feb 20 11:01:23 2014, MaxMem= 4026531840 cpu:    1170.8
 (Enter /usr/caen/gaussian-09revc/g09/l1002.exe)
 Minotr:  UHF open shell wavefunction.
          IDoAtm=111111111111111111111111111111
          Direct CPHF calculation.
          Differentiating once with respect to nuclear coordinates.
          Requested convergence is 1.0D-06 RMS, and 1.0D-05 maximum.
          Secondary convergence is 1.0D-12 RMS, and 1.0D-12 maximum.
          NewPWx=T KeepS1=F KeepF1=F KeepIn=T MapXYZ=F SortEE=F KeepMc=T.
          MDV=    4026531536 using IRadAn=       2.
 Generate precomputed XC quadrature information.
          Keep R1 and R2 ints in memory in canonical form, NReq=2738891871.
 Symmetry not used in FoFDir.
 MinBra= 0 MaxBra= 2 Meth= 1.
 IRaf=       0 NMat=   1 IRICut=       1 DoRegI=T DoRafI=F ISym2E= 0 JSym2E=0.
          Solving linear equations simultaneously, MaxMat=       0.
          There are    93 degrees of freedom in the 1st order CPHF.  IDoFFX=5.
     87 vectors produced by pass  0 Test12= 2.56D-10 1.08D-07 XBig12= 2.18D-01 2.09D-01.
 AX will form    87 AO Fock derivatives at one time.
     87 vectors produced by pass  1 Test12= 2.56D-10 1.08D-07 XBig12= 4.60D-02 6.52D-02.
     87 vectors produced by pass  2 Test12= 2.56D-10 1.08D-07 XBig12= 1.92D-04 3.24D-03.
     87 vectors produced by pass  3 Test12= 2.56D-10 1.08D-07 XBig12= 1.32D-06 4.09D-04.
     61 vectors produced by pass  4 Test12= 2.56D-10 1.08D-07 XBig12= 2.66D-09 4.96D-06.
      9 vectors produced by pass  5 Test12= 2.56D-10 1.08D-07 XBig12= 1.37D-11 3.19D-07.
 Inverted reduced A of dimension   418 with in-core refinement.
 End of Minotr Frequency-dependent properties file   721 does not exist.
 End of Minotr Frequency-dependent properties file   722 does not exist.
 Leave Link 1002 at Thu Feb 20 11:04:56 2014, MaxMem= 4026531840 cpu:    1690.9
 (Enter /usr/caen/gaussian-09revc/g09/l601.exe)
 Copying SCF densities to generalized density rwf, IOpCl= 1 IROHF=0.

 **********************************************************************

            Population analysis using the SCF density.

 **********************************************************************

 Orbital symmetries:
 Alpha Orbitals:
       Occupied  (A) (A) (A) (A) (A) (A) (A) (A) (A) (A) (A) (A)
                 (A) (A) (A) (A) (A) (A) (A) (A) (A) (A) (A) (A)
                 (A) (A) (A) (A) (A) (A) (A) (A) (A) (A) (A) (A)
                 (A) (A) (A) (A) (A) (A) (A) (A) (A)
       Virtual   (A) (A) (A) (A) (A) (A) (A) (A) (A) (A) (A) (A)
                 (A) (A) (A) (A) (A) (A) (A) (A) (A) (A) (A) (A)
                 (A) (A) (A) (A) (A) (A) (A) (A) (A) (A) (A) (A)
                 (A) (A) (A) (A) (A) (A) (A) (A) (A) (A) (A) (A)
                 (A) (A) (A) (A) (A) (A) (A) (A) (A) (A) (A) (A)
                 (A) (A) (A) (A) (A) (A) (A) (A) (A) (A) (A) (A)
                 (A) (A) (A) (A) (A) (A) (A) (A) (A) (A) (A) (A)
                 (A) (A) (A) (A) (A) (A) (A) (A) (A) (A) (A) (A)
                 (A) (A) (A) (A) (A) (A) (A) (A) (A) (A) (A) (A)
                 (A) (A) (A) (A) (A) (A) (A) (A) (A) (A) (A) (A)
                 (A) (A) (A) (A) (A) (A) (A) (A) (A) (A) (A) (A)
                 (A) (A) (A) (A) (A) (A) (A) (A) (A) (A) (A) (A)
                 (A) (A) (A) (A) (A) (A) (A) (A) (A) (A) (A) (A)
                 (A) (A) (A) (A) (A) (A) (A) (A) (A) (A) (A) (A)
                 (A) (A) (A) (A) (A) (A) (A) (A) (A) (A) (A) (A)
                 (A) (A) (A) (A) (A) (A) (A) (A) (A) (A) (A) (A)
                 (A) (A) (A) (A) (A) (A) (A) (A) (A) (A) (A) (A)
                 (A) (A) (A) (A) (A) (A) (A) (A) (A) (A) (A) (A)
                 (A) (A) (A) (A) (A) (A) (A) (A) (A) (A) (A) (A)
                 (A) (A) (A) (A) (A) (A) (A) (A) (A) (A) (A) (A)
                 (A) (A) (A) (A) (A) (A) (A) (A) (A) (A) (A) (A)
                 (A) (A) (A) (A) (A) (A) (A) (A) (A) (A) (A) (A)
                 (A) (A) (A)
 Beta  Orbitals:
       Occupied  (A) (A) (A) (A) (A) (A) (A) (A) (A) (A) (A) (A)
                 (A) (A) (A) (A) (A) (A) (A) (A) (A) (A) (A) (A)
                 (A) (A) (A) (A) (A) (A) (A) (A) (A) (A) (A) (A)
                 (A) (A) (A) (A) (A) (A) (A) (A)
       Virtual   (A) (A) (A) (A) (A) (A) (A) (A) (A) (A) (A) (A)
                 (A) (A) (A) (A) (A) (A) (A) (A) (A) (A) (A) (A)
                 (A) (A) (A) (A) (A) (A) (A) (A) (A) (A) (A) (A)
                 (A) (A) (A) (A) (A) (A) (A) (A) (A) (A) (A) (A)
                 (A) (A) (A) (A) (A) (A) (A) (A) (A) (A) (A) (A)
                 (A) (A) (A) (A) (A) (A) (A) (A) (A) (A) (A) (A)
                 (A) (A) (A) (A) (A) (A) (A) (A) (A) (A) (A) (A)
                 (A) (A) (A) (A) (A) (A) (A) (A) (A) (A) (A) (A)
                 (A) (A) (A) (A) (A) (A) (A) (A) (A) (A) (A) (A)
                 (A) (A) (A) (A) (A) (A) (A) (A) (A) (A) (A) (A)
                 (A) (A) (A) (A) (A) (A) (A) (A) (A) (A) (A) (A)
                 (A) (A) (A) (A) (A) (A) (A) (A) (A) (A) (A) (A)
                 (A) (A) (A) (A) (A) (A) (A) (A) (A) (A) (A) (A)
                 (A) (A) (A) (A) (A) (A) (A) (A) (A) (A) (A) (A)
                 (A) (A) (A) (A) (A) (A) (A) (A) (A) (A) (A) (A)
                 (A) (A) (A) (A) (A) (A) (A) (A) (A) (A) (A) (A)
                 (A) (A) (A) (A) (A) (A) (A) (A) (A) (A) (A) (A)
                 (A) (A) (A) (A) (A) (A) (A) (A) (A) (A) (A) (A)
                 (A) (A) (A) (A) (A) (A) (A) (A) (A) (A) (A) (A)
                 (A) (A) (A) (A) (A) (A) (A) (A) (A) (A) (A) (A)
                 (A) (A) (A) (A) (A) (A) (A) (A) (A) (A) (A) (A)
                 (A) (A) (A) (A) (A) (A) (A) (A) (A) (A) (A) (A)
                 (A) (A) (A) (A)
 The electronic state is 2-A.
 Alpha  occ. eigenvalues --  -19.20346 -19.19375 -10.21140 -10.18729 -10.18672
 Alpha  occ. eigenvalues --  -10.17910 -10.17173 -10.16443 -10.16439 -10.16362
 Alpha  occ. eigenvalues --  -10.16172  -1.19282  -0.83982  -0.81485  -0.79437
 Alpha  occ. eigenvalues --   -0.76564  -0.69499  -0.69155  -0.68968  -0.60143
 Alpha  occ. eigenvalues --   -0.57086  -0.56832  -0.52489  -0.48659  -0.48451
 Alpha  occ. eigenvalues --   -0.46722  -0.46479  -0.45510  -0.44341  -0.43623
 Alpha  occ. eigenvalues --   -0.42103  -0.40769  -0.39500  -0.39109  -0.38462
 Alpha  occ. eigenvalues --   -0.37162  -0.35888  -0.35357  -0.34607  -0.33893
 Alpha  occ. eigenvalues --   -0.33658  -0.32682  -0.29874  -0.26378  -0.24890
 Alpha virt. eigenvalues --   -0.04537   0.03517   0.04468   0.04563   0.07108
 Alpha virt. eigenvalues --    0.07695   0.08067   0.08836   0.09920   0.10072
 Alpha virt. eigenvalues --    0.11061   0.11241   0.12124   0.13427   0.13721
 Alpha virt. eigenvalues --    0.14271   0.14579   0.15202   0.15774   0.17424
 Alpha virt. eigenvalues --    0.19047   0.19336   0.20766   0.21668   0.22648
 Alpha virt. eigenvalues --    0.22997   0.23992   0.24591   0.27444   0.28079
 Alpha virt. eigenvalues --    0.29036   0.30122   0.32065   0.33367   0.34577
 Alpha virt. eigenvalues --    0.34757   0.35506   0.37886   0.39504   0.41019
 Alpha virt. eigenvalues --    0.41576   0.43482   0.44412   0.45410   0.48464
 Alpha virt. eigenvalues --    0.50008   0.51976   0.53628   0.54012   0.54920
 Alpha virt. eigenvalues --    0.55281   0.56154   0.56631   0.57053   0.57196
 Alpha virt. eigenvalues --    0.57909   0.58599   0.58707   0.59504   0.59606
 Alpha virt. eigenvalues --    0.59946   0.60631   0.61245   0.61685   0.63095
 Alpha virt. eigenvalues --    0.63102   0.63738   0.64493   0.64851   0.66099
 Alpha virt. eigenvalues --    0.67455   0.68557   0.71870   0.72925   0.74740
 Alpha virt. eigenvalues --    0.77083   0.78246   0.81639   0.82046   0.82865
 Alpha virt. eigenvalues --    0.86732   0.89853   0.91738   0.95567   0.96171
 Alpha virt. eigenvalues --    0.97734   0.98673   1.00481   1.03534   1.04308
 Alpha virt. eigenvalues --    1.06149   1.08227   1.12255   1.13324   1.15114
 Alpha virt. eigenvalues --    1.17694   1.18426   1.18582   1.21317   1.24899
 Alpha virt. eigenvalues --    1.31994   1.33444   1.36841   1.37105   1.38256
 Alpha virt. eigenvalues --    1.39385   1.42067   1.42461   1.43300   1.45142
 Alpha virt. eigenvalues --    1.45618   1.46319   1.46600   1.48592   1.49044
 Alpha virt. eigenvalues --    1.49445   1.50340   1.51426   1.52349   1.53344
 Alpha virt. eigenvalues --    1.54280   1.55123   1.56736   1.57158   1.57886
 Alpha virt. eigenvalues --    1.58596   1.59104   1.61526   1.63701   1.63998
 Alpha virt. eigenvalues --    1.64994   1.65848   1.67790   1.69040   1.69855
 Alpha virt. eigenvalues --    1.71594   1.75478   1.75822   1.77354   1.77644
 Alpha virt. eigenvalues --    1.78257   1.78853   1.80249   1.81804   1.84977
 Alpha virt. eigenvalues --    1.85792   1.87971   1.90842   1.92540   1.95196
 Alpha virt. eigenvalues --    1.98058   1.98673   1.99494   2.00841   2.03165
 Alpha virt. eigenvalues --    2.03955   2.07693   2.08847   2.09620   2.11055
 Alpha virt. eigenvalues --    2.11625   2.12257   2.15195   2.16916   2.20445
 Alpha virt. eigenvalues --    2.21425   2.22387   2.24504   2.26746   2.29889
 Alpha virt. eigenvalues --    2.32806   2.33519   2.33781   2.35030   2.36505
 Alpha virt. eigenvalues --    2.37788   2.38385   2.41512   2.42515   2.43619
 Alpha virt. eigenvalues --    2.44372   2.45754   2.46585   2.46912   2.48169
 Alpha virt. eigenvalues --    2.49842   2.50293   2.50981   2.51267   2.51857
 Alpha virt. eigenvalues --    2.53391   2.54563   2.55809   2.57882   2.59142
 Alpha virt. eigenvalues --    2.60746   2.61762   2.63274   2.64833   2.66778
 Alpha virt. eigenvalues --    2.68244   2.69455   2.70779   2.72251   2.74049
 Alpha virt. eigenvalues --    2.76960   2.77653   2.79401   2.79811   2.82437
 Alpha virt. eigenvalues --    2.83864   2.86732   2.88317   2.89562   2.91417
 Alpha virt. eigenvalues --    2.92481   2.93410   2.94049   2.98978   3.02386
 Alpha virt. eigenvalues --    3.06182   3.08097   3.12718   3.19204   3.23005
 Alpha virt. eigenvalues --    3.28206   3.36982   3.41508   3.43479   3.43965
 Alpha virt. eigenvalues --    3.54418   3.69394   3.76715   3.76928   3.77657
 Alpha virt. eigenvalues --    3.78777   3.80142   3.80952   3.81486   3.81824
 Alpha virt. eigenvalues --    3.84544   3.86792   3.88483   3.98367   4.05330
 Alpha virt. eigenvalues --    4.20732   4.26972   4.28444   4.29701   4.41536
 Alpha virt. eigenvalues --    4.63710   4.70046   4.83381   4.89089   5.10128
 Alpha virt. eigenvalues --    6.04222  23.74778  23.80017  23.81114  23.89215
 Alpha virt. eigenvalues --   23.91971  23.92150  23.93424  23.93950  24.07888
 Alpha virt. eigenvalues --   49.72849  49.75777
  Beta  occ. eigenvalues --  -19.18914 -19.17597 -10.21238 -10.18738 -10.18674
  Beta  occ. eigenvalues --  -10.17901 -10.17155 -10.16444 -10.16438 -10.16361
  Beta  occ. eigenvalues --  -10.16171  -1.16133  -0.84038  -0.81392  -0.76691
  Beta  occ. eigenvalues --   -0.75107  -0.69443  -0.69095  -0.68960  -0.60181
  Beta  occ. eigenvalues --   -0.57094  -0.56808  -0.51487  -0.48497  -0.46849
  Beta  occ. eigenvalues --   -0.45571  -0.44801  -0.44301  -0.43594  -0.42007
  Beta  occ. eigenvalues --   -0.40780  -0.39503  -0.39361  -0.39086  -0.38428
  Beta  occ. eigenvalues --   -0.37122  -0.35844  -0.35293  -0.34573  -0.33895
  Beta  occ. eigenvalues --   -0.33661  -0.32677  -0.29086  -0.23654
  Beta virt. eigenvalues --   -0.09000  -0.04340   0.03511   0.04473   0.04588
  Beta virt. eigenvalues --    0.07117   0.07709   0.08078   0.08862   0.09968
  Beta virt. eigenvalues --    0.10092   0.11073   0.11356   0.12175   0.13476
  Beta virt. eigenvalues --    0.13753   0.14278   0.14589   0.15218   0.15917
  Beta virt. eigenvalues --    0.17697   0.19096   0.19856   0.21009   0.21806
  Beta virt. eigenvalues --    0.22818   0.23463   0.23980   0.24693   0.27529
  Beta virt. eigenvalues --    0.28106   0.29047   0.30133   0.32060   0.33431
  Beta virt. eigenvalues --    0.34656   0.34780   0.35518   0.37895   0.39530
  Beta virt. eigenvalues --    0.41036   0.41644   0.43529   0.44415   0.45435
  Beta virt. eigenvalues --    0.48462   0.50034   0.52057   0.53754   0.54002
  Beta virt. eigenvalues --    0.54939   0.55320   0.56153   0.56666   0.57120
  Beta virt. eigenvalues --    0.57223   0.57915   0.58608   0.58723   0.59522
  Beta virt. eigenvalues --    0.59641   0.59993   0.60660   0.61292   0.61757
  Beta virt. eigenvalues --    0.63150   0.63156   0.63811   0.64507   0.64903
  Beta virt. eigenvalues --    0.66153   0.67495   0.68894   0.72041   0.73015
  Beta virt. eigenvalues --    0.74905   0.77775   0.79910   0.81994   0.82713
  Beta virt. eigenvalues --    0.84093   0.87302   0.90157   0.92653   0.95830
  Beta virt. eigenvalues --    0.97110   0.97792   0.99135   1.00605   1.03879
  Beta virt. eigenvalues --    1.04362   1.06406   1.08561   1.12259   1.13443
  Beta virt. eigenvalues --    1.15176   1.17719   1.18431   1.18594   1.21358
  Beta virt. eigenvalues --    1.24969   1.32228   1.33604   1.36995   1.37513
  Beta virt. eigenvalues --    1.38372   1.39622   1.42101   1.42632   1.43318
  Beta virt. eigenvalues --    1.45140   1.45658   1.46372   1.46626   1.48650
  Beta virt. eigenvalues --    1.49065   1.49523   1.50352   1.51451   1.52405
  Beta virt. eigenvalues --    1.53449   1.54316   1.55137   1.56761   1.57154
  Beta virt. eigenvalues --    1.57983   1.58609   1.59099   1.61517   1.63725
  Beta virt. eigenvalues --    1.64148   1.65107   1.65930   1.67774   1.69141
  Beta virt. eigenvalues --    1.69874   1.71591   1.75489   1.75821   1.77370
  Beta virt. eigenvalues --    1.77663   1.78263   1.78871   1.80289   1.81813
  Beta virt. eigenvalues --    1.85007   1.85823   1.87946   1.90879   1.92529
  Beta virt. eigenvalues --    1.95171   1.98075   1.98702   1.99600   2.00837
  Beta virt. eigenvalues --    2.03205   2.04018   2.07726   2.08858   2.09615
  Beta virt. eigenvalues --    2.11066   2.11653   2.12295   2.15177   2.16935
  Beta virt. eigenvalues --    2.20426   2.21526   2.22417   2.24505   2.26773
  Beta virt. eigenvalues --    2.30007   2.33004   2.33521   2.33983   2.36463
  Beta virt. eigenvalues --    2.37794   2.38376   2.38599   2.41619   2.42598
  Beta virt. eigenvalues --    2.43638   2.44718   2.45766   2.46618   2.46937
  Beta virt. eigenvalues --    2.48269   2.49862   2.50314   2.51003   2.51301
  Beta virt. eigenvalues --    2.51884   2.53472   2.54580   2.55817   2.57903
  Beta virt. eigenvalues --    2.59230   2.60777   2.61806   2.63396   2.64885
  Beta virt. eigenvalues --    2.67182   2.68450   2.69701   2.71380   2.73280
  Beta virt. eigenvalues --    2.74563   2.78425   2.78771   2.79750   2.80482
  Beta virt. eigenvalues --    2.83082   2.84965   2.87434   2.88429   2.89769
  Beta virt. eigenvalues --    2.91958   2.93404   2.93620   2.96164   2.99773
  Beta virt. eigenvalues --    3.02544   3.06885   3.08343   3.13198   3.19599
  Beta virt. eigenvalues --    3.23684   3.29214   3.41479   3.42061   3.43640
  Beta virt. eigenvalues --    3.44832   3.54814   3.70649   3.76718   3.76940
  Beta virt. eigenvalues --    3.77671   3.78853   3.80144   3.80954   3.81498
  Beta virt. eigenvalues --    3.81872   3.84614   3.86783   3.89505   3.98365
  Beta virt. eigenvalues --    4.05326   4.20712   4.26965   4.28441   4.29693
  Beta virt. eigenvalues --    4.41481   4.69928   4.71263   4.85161   4.95616
  Beta virt. eigenvalues --    5.11671   6.05896  23.74734  23.80010  23.81113
  Beta virt. eigenvalues --   23.89209  23.91969  23.92151  23.93425  23.93949
  Beta virt. eigenvalues --   24.07848  49.74507  49.77311
          Condensed to atoms (all electrons):
              1          2          3          4          5          6
     1  C    4.881864   0.402675   0.401719   0.402182   0.368954  -0.041790
     2  H    0.402675   0.567316  -0.029517  -0.026045  -0.031160  -0.005670
     3  H    0.401719  -0.029517   0.592804  -0.030966  -0.038734   0.009166
     4  H    0.402182  -0.026045  -0.030966   0.580648  -0.031744  -0.006749
     5  C    0.368954  -0.031160  -0.038734  -0.031744   5.016786   0.413075
     6  H   -0.041790  -0.005670   0.009166  -0.006749   0.413075   0.606209
     7  C   -0.065992  -0.004865  -0.007309   0.008586   0.354125  -0.049174
     8  H   -0.002610   0.001471  -0.000676   0.000350  -0.021812  -0.006229
     9  H   -0.003849  -0.000082   0.004491  -0.000354  -0.035119   0.007990
    10  C   -0.000263  -0.000020   0.000005   0.000012   0.005174   0.000326
    11  H   -0.000001  -0.000004  -0.000005   0.000001   0.000329   0.000009
    12  H    0.000023   0.000003   0.000001  -0.000001  -0.000235   0.000021
    13  C   -0.000003   0.000000   0.000001   0.000000  -0.000258  -0.000035
    14  H    0.000002   0.000000   0.000000   0.000000   0.000029  -0.000010
    15  C    0.000000   0.000000   0.000000   0.000000   0.000005   0.000001
    16  H    0.000000   0.000000   0.000000   0.000000   0.000000   0.000000
    17  H    0.000000   0.000000   0.000000   0.000000  -0.000001   0.000000
    18  H    0.000000   0.000000   0.000000   0.000000   0.000000   0.000000
    19  C   -0.069734   0.008123  -0.005738  -0.004818   0.358236  -0.042263
    20  H   -0.005431  -0.000174   0.005127  -0.000743  -0.036944   0.009412
    21  H   -0.005298   0.000053  -0.000704   0.003677  -0.033796  -0.006232
    22  H    0.008442  -0.000483  -0.000165   0.000018  -0.030684  -0.006625
    23  C   -0.000006   0.000001  -0.000005   0.000000  -0.000276  -0.000022
    24  H    0.000000   0.000000   0.000000   0.000000   0.000007   0.000001
    25  H    0.000002   0.000000   0.000000   0.000000   0.000025   0.000003
    26  H    0.000017  -0.000004  -0.000019   0.000002  -0.000873  -0.000016
    27  C    0.006800   0.000089   0.000226  -0.000420  -0.061510  -0.003388
    28  H    0.000240  -0.000013   0.000027  -0.000023  -0.006158   0.004246
    29  O   -0.000087  -0.000074  -0.000004  -0.000004   0.000980   0.001434
    30  O   -0.000935   0.003225  -0.000006  -0.000057   0.004050   0.001226
              7          8          9         10         11         12
     1  C   -0.065992  -0.002610  -0.003849  -0.000263  -0.000001   0.000023
     2  H   -0.004865   0.001471  -0.000082  -0.000020  -0.000004   0.000003
     3  H   -0.007309  -0.000676   0.004491   0.000005  -0.000005   0.000001
     4  H    0.008586   0.000350  -0.000354   0.000012   0.000001  -0.000001
     5  C    0.354125  -0.021812  -0.035119   0.005174   0.000329  -0.000235
     6  H   -0.049174  -0.006229   0.007990   0.000326   0.000009   0.000021
     7  C    5.190366   0.228936   0.403426  -0.062198  -0.002180   0.002265
     8  H    0.228936   0.486310  -0.015044  -0.002474   0.000071   0.000733
     9  H    0.403426  -0.015044   0.551815  -0.004942   0.004331   0.000183
    10  C   -0.062198  -0.002474  -0.004942   4.931213   0.406296   0.406580
    11  H   -0.002180   0.000071   0.004331   0.406296   0.580073  -0.029948
    12  H    0.002265   0.000733   0.000183   0.406580  -0.029948   0.561965
    13  C   -0.000666   0.000065  -0.000567   0.345530  -0.035994  -0.041423
    14  H    0.000472  -0.000030   0.000095  -0.050676   0.009041  -0.004559
    15  C   -0.000196   0.000000  -0.000039  -0.061667  -0.004059  -0.006611
    16  H    0.000016  -0.000003  -0.000014  -0.006691   0.004356  -0.000785
    17  H    0.000012   0.000000   0.000006   0.008201  -0.000307   0.000202
    18  H   -0.000011  -0.000004   0.000002  -0.005144  -0.000459   0.004610
    19  C   -0.072715   0.002889  -0.002963  -0.000391  -0.000048  -0.000046
    20  H   -0.006148  -0.000138   0.004010   0.000091  -0.000001   0.000004
    21  H    0.009050  -0.000149  -0.000270   0.000030   0.000001   0.000001
    22  H   -0.005922   0.000044  -0.000516  -0.000561   0.000031   0.000030
    23  C   -0.000866  -0.000034   0.000460  -0.065666  -0.007727   0.007958
    24  H    0.000031  -0.000001  -0.000001   0.007906  -0.000088  -0.000404
    25  H    0.000579  -0.000019   0.000461  -0.006149   0.004940  -0.000010
    26  H   -0.000190   0.000066  -0.000150  -0.005657  -0.000647   0.000012
    27  C    0.465051  -0.009135  -0.041318   0.349185  -0.044019  -0.035554
    28  H   -0.038925   0.001892   0.006607  -0.032880   0.006724  -0.004871
    29  O   -0.015855  -0.067127   0.002187  -0.010712  -0.000125   0.004477
    30  O   -0.069349   0.131851  -0.001058   0.003441   0.000847  -0.000062
             13         14         15         16         17         18
     1  C   -0.000003   0.000002   0.000000   0.000000   0.000000   0.000000
     2  H    0.000000   0.000000   0.000000   0.000000   0.000000   0.000000
     3  H    0.000001   0.000000   0.000000   0.000000   0.000000   0.000000
[...]
 428,-0.00028858,0.00039110,0.00006833,0.00134920,-0.00126906,-0.000146
 23,0.02032307,-0.01904503,-0.00916547,0.00005345,0.00114965,0.00027402
 ,0.00151279,0.00082894,-0.00073123,-0.00007359,-0.00006023,0.00003040,
 -0.00126010,0.00011291,0.00018396,-0.00011768,0.00050601,0.00019994,0.
 00006999,-0.00004306,0.00002040,0.00001620,0.00001997,-0.00003694,-0.0
 0002217,0.00005307,0.00000464,-0.00000211,-0.00000295,0.00004051,0.118
 95339,-0.15963739,-0.04694100,-0.13134640,0.17528202,-0.00000848,0.000
 00038,-0.00001384,0.00000507,-0.00000253,-0.00000212,-0.00000536,-0.00
 000524,0.00000417,-0.00000020,-0.00000094,0.00000622,0.00001961,-0.000
 05988,0.00006454,0.00001660,0.00001584,0.00001738,-0.00002743,0.000076
 66,-0.00017772,-0.00001318,-0.00000806,-0.00000125,-0.00005298,-0.0000
 2979,0.00007616,0.00087555,0.00245565,-0.00129037,-0.00010088,0.000276
 59,0.00035537,-0.00052141,0.00065883,0.00051530,-0.01153778,0.01083472
 ,0.00364958,-0.00053189,-0.00059891,0.00054048,-0.00040210,-0.00049556
 ,0.00017586,0.00015373,-0.00009838,-0.00003927,0.00008624,-0.00013525,
 0.00023410,-0.00021815,-0.00004993,-0.00012756,-0.00004098,-0.00000609
 ,-0.00002642,0.00000468,-0.00001038,-0.00000859,-0.00000772,-0.0000055
 8,0.00000612,0.00000045,0.00001171,0.00001908,0.04980641,-0.04784877,-
 0.06653732,-0.05537355,0.04968504,0.06885323,0.00000847,0.00007206,-0.
 00001579,-0.00001520,0.00000609,0.00001450,-0.00001167,-0.00001232,0.0
 0001434,0.00001785,-0.00000140,0.00000597,-0.00004188,-0.00019597,0.00
 006784,0.00003245,0.00001973,0.00002748,-0.00005817,0.00019018,-0.0001
 8438,-0.00000881,-0.00003481,0.00004505,-0.00011669,0.00004530,0.00016
 472,0.00013952,0.00000435,-0.00099461,0.00016214,0.00014431,-0.0000003
 5,-0.00006908,0.00002023,0.00010343,-0.00077815,0.00078483,0.00564104,
 0.00044386,-0.00106178,0.00054445,0.00042991,0.00050528,0.00111511,0.0
 0014469,-0.00026777,-0.00021447,-0.00001783,0.00002732,0.00010137,-0.0
 0001564,0.00011639,-0.00025251,0.00009090,0.00003769,-0.00028072,0.000
 00354,-0.00003534,0.00000843,-0.00006548,0.00002138,0.00005959,-0.0000
 2041,0.00000199,0.00019021,-0.04778565,-0.00123013,-0.01088522,0.00111
 909,0.00182769,0.02337621,0.04649381,-0.00000129,0.00002722,-0.0000184
 5,-0.00000452,0.00000376,0.00000926,0.00000032,-0.00000165,0.00000922,
 -0.00000240,-0.00000508,0.00000028,-0.00001276,-0.00004301,0.00003243,
 -0.00000323,-0.00000331,-0.00000042,-0.00000733,0.00008632,-0.00007942
 ,0.00002231,-0.00006418,0.00000114,0.00010404,-0.00000607,0.00001982,-
 0.00049903,0.00185109,0.00116610,0.00022188,-0.00013598,-0.00084171,-0
 .00021498,0.00025640,-0.00034722,0.00122788,0.00218462,0.03073318,-0.0
 0113697,-0.00507551,0.00300404,0.00108743,0.00147789,0.00049180,-0.000
 26408,-0.00002286,-0.00067979,-0.00009193,-0.00006873,-0.00014458,0.00
 028551,0.00013909,-0.00026920,0.00004771,0.00003332,-0.00013949,0.0000
 0601,-0.00000730,0.00000489,-0.00003756,0.00000363,0.00002214,-0.00000
 647,-0.00001571,0.00009764,-0.00126765,-0.04997516,-0.02937800,-0.0021
 8506,-0.00259019,-0.02121482,0.00216633,0.05405361,-0.00000054,0.00004
 227,-0.00002652,-0.00000488,0.00000530,0.00000716,-0.00000758,-0.00001
 259,0.00001728,0.00000286,-0.00000467,0.00000550,0.00000499,-0.0001601
 0,0.00009102,0.00003236,0.00001603,0.00003160,-0.00011616,0.00020823,-
 0.00019639,0.00003310,-0.00009236,-0.00002883,-0.00007360,-0.00004816,
 0.00013723,0.00024564,-0.00097015,0.00047287,-0.00063110,0.00072573,0.
 00061467,0.00002404,0.00002060,0.00038472,-0.00050565,-0.00117663,-0.0
 1714506,0.00060116,0.00329029,0.00011864,-0.00060577,-0.00075873,0.000
 65142,0.00077507,0.00049786,0.00054094,-0.00000691,0.00003022,-0.00005
 431,0.00000611,0.00008025,0.00043546,0.00004122,0.00002824,-0.00016548
 ,0.00000001,-0.00002128,0.00000944,-0.00003503,0.00000250,0.00002821,-
 0.00001778,0.00000303,0.00009255,-0.01047947,-0.02877737,-0.29680289,-
 0.00040455,-0.00112724,-0.00811556,0.01106133,0.02906327,0.32576551,0.
 00000977,0.00002409,0.00000709,-0.00000480,0.00001324,0.00000295,0.000
 00197,-0.00000458,-0.00000410,0.00000873,-0.00000732,-0.00000556,-0.00
 009373,-0.00000195,-0.00004117,-0.00000522,-0.00000148,-0.00000172,-0.
 00029721,0.00084746,0.00008601,0.00000533,-0.00029313,-0.00004902,-0.0
 0015700,0.00015363,-0.00014436,0.00020845,-0.00000224,0.00010267,-0.00
 000844,-0.00005630,0.00001072,0.00001920,-0.00009108,0.00002438,-0.003
 55045,-0.00056075,-0.00070232,0.00019223,-0.00012553,0.00044378,0.0006
 7402,-0.00128529,0.00130470,0.00007206,0.00012914,-0.00006198,0.000474
 31,0.00012310,-0.00010754,-0.00020013,-0.00025909,-0.00029101,-0.00030
 054,0.00005895,-0.00019772,-0.00003561,-0.00007131,-0.00005291,-0.0000
 5197,0.00002234,0.00002196,-0.00021912,-0.00020732,0.00001267,-0.25911
 773,-0.08711302,-0.05784803,-0.01944260,-0.00808562,-0.00586720,-0.000
 07839,0.00058524,-0.00015613,0.28218193,-0.00000383,-0.00003086,-0.000
 04557,0.00001757,0.00000767,-0.00000160,0.00001285,0.00000532,0.000009
 33,-0.00004209,-0.00001649,-0.00000066,0.00035556,0.00000347,0.0000780
 5,-0.00003793,-0.00003384,-0.00003881,0.00032367,0.00056924,0.00014454
 ,0.00021507,-0.00058577,-0.00012851,0.00025357,-0.00033102,-0.00025874
 ,-0.00040472,0.00116113,-0.00055259,0.00003383,-0.00015954,-0.00004211
 ,-0.00012284,0.00025603,0.00013666,-0.02643335,-0.00988366,-0.00914619
 ,0.00048971,0.00119040,0.00003288,0.00061938,-0.00509317,0.00366463,0.
 00033825,0.00010782,-0.00001571,-0.00013066,0.00024991,0.00016991,-0.0
 0187458,-0.00063197,-0.00022780,-0.00005696,-0.00009650,-0.00020356,-0
 .00007282,0.00003952,0.00004725,-0.00012653,-0.00003006,0.00000078,-0.
 00008724,0.00020887,0.00006885,-0.08528211,-0.08289805,-0.02297716,0.0
 1940773,0.00871672,0.00639171,-0.00300601,-0.00209111,-0.00107489,0.09
 574729,0.08931323,-0.00000528,-0.00008668,0.00001840,0.00001478,0.0000
 0295,-0.00001962,0.00001807,0.00000587,-0.00002576,-0.00001765,-0.0000
 0075,-0.00000555,0.00009645,0.00014988,-0.00010901,-0.00005257,0.00002
 628,-0.00003272,-0.00006288,0.00018734,0.00023080,0.00002914,-0.000169
 16,-0.00009221,0.00012110,-0.00016599,-0.00030453,-0.00023972,-0.00069
 684,0.00031254,-0.00011334,0.00000697,-0.00005058,0.00013540,-0.000094
 68,-0.00009772,0.01546417,0.00505179,0.00350607,0.00015412,-0.00079089
 ,0.00054832,0.00000109,0.00269223,-0.00121958,0.00023339,0.00033610,0.
 00033703,-0.00030190,-0.00001945,-0.00012919,0.00077525,0.00064049,0.0
 0058517,-0.00037972,-0.00013280,0.00055690,0.00015678,0.00012181,-0.00
 020069,0.00001977,0.00004400,-0.00015685,-0.00009940,-0.00011125,-0.00
 023866,-0.05791551,-0.02375764,-0.06330223,0.00874589,0.00424126,0.001
 65445,-0.02976957,-0.01143689,-0.00706825,0.06344345,0.02368322,0.0650
 2901,-0.00310913,-0.00335440,-0.00231132,-0.00010438,0.00017670,-0.000
 10370,-0.00019561,-0.00017851,0.00024885,-0.00099052,0.00022795,0.0009
 6187,-0.02913719,-0.00256245,0.01228157,0.00151688,0.00024251,0.002054
 66,-0.23108956,-0.11376762,0.09872723,-0.02020828,0.04631214,0.0047974
 5,0.00369262,0.00774875,-0.00266441,-0.17606826,-0.03635737,-0.0510582
 9,-0.00073086,0.00122404,-0.00047446,-0.01572473,-0.00383441,-0.002412
 53,-0.03101729,0.00523224,-0.00106750,0.00107820,-0.00125306,-0.001393
 59,-0.00180721,0.00137984,0.00001020,0.00003022,0.00012231,0.00006836,
 -0.00000726,-0.00019210,-0.00022118,0.00022641,0.00009616,0.00010948,0
 .00259783,0.00262129,0.00192636,-0.00001133,-0.00058314,-0.00003169,0.
 00034328,0.00122815,0.00039277,0.00029145,-0.00032823,-0.00014764,0.00
 181960,-0.00013812,-0.00082754,-0.00022318,-0.00129036,0.00046149,-0.0
 0001097,0.00011450,0.00017143,-0.00033486,-0.00010320,-0.00047505,0.56
 777323,-0.00069704,-0.00034100,-0.00066815,-0.00025855,0.00009951,-0.0
 0001879,-0.00004788,-0.00016580,-0.00003199,0.00006788,0.00050001,0.00
 021827,-0.01637207,-0.00284176,0.00661657,0.00102232,0.00063572,0.0008
 7846,-0.06475907,-0.10776687,0.04188998,0.00054883,0.03892876,-0.00967
 511,-0.00890602,0.00218726,0.00715207,-0.03056880,-0.07593738,-0.01012
 795,-0.00234661,-0.00101465,-0.00058508,-0.02736029,-0.00586278,-0.011
 14740,0.01638778,0.00801227,0.00967058,-0.00006785,0.00044352,-0.00001
 206,0.00238188,-0.00345513,-0.00126698,-0.00011730,-0.00010382,0.00008
 969,0.00138460,0.00065609,0.00008725,0.00010430,0.00025049,-0.00023965
 ,-0.00004002,0.00027288,0.00102442,0.00000817,-0.00027142,0.00000515,-
 0.00007885,0.00055765,0.00030123,-0.00019905,0.00025222,0.00007245,0.0
 0203210,-0.00008887,-0.00004160,-0.00017765,-0.00022567,0.00013871,-0.
 00004997,-0.00003658,0.00016598,0.00020316,-0.00047303,-0.00002488,0.1
 2726136,0.20065331,-0.00218829,-0.00210135,-0.00277587,0.00009124,0.00
 007541,-0.00001492,0.00014299,-0.00021198,0.00040307,-0.00151175,-0.00
 025390,0.00093512,-0.00422964,-0.00411197,0.01361283,-0.00186328,-0.00
 036302,-0.00008160,0.09483669,0.07498646,-0.18207303,0.01216359,-0.039
 33936,-0.00601830,0.02710431,0.00199235,-0.01939068,-0.04494236,-0.011
 47473,-0.11056847,-0.03375613,-0.00752346,-0.01390498,0.01330071,0.003
 00534,0.00534042,0.00538495,0.00656311,0.00335725,0.00196810,-0.000520
 77,-0.00004683,0.00202697,-0.00238073,-0.00122588,0.00001764,0.0000769
 9,0.00043839,0.00111211,-0.00004573,0.00069835,-0.00028002,-0.00018165
 ,0.00007530,-0.00428060,-0.00067439,-0.00124961,0.00034016,0.00002089,
 -0.00000719,-0.00016921,-0.00154761,-0.00027814,0.00039791,-0.00008411
 ,0.00014931,-0.00045931,-0.00033592,-0.00049742,0.00034922,-0.00015802
 ,0.00014884,-0.00005425,-0.00001918,0.00004563,0.00007692,0.00022365,0
 .00049764,-0.04748507,-0.03290798,0.65390294,-0.00021878,0.00003712,-0
 .00008377,0.00003640,-0.00001127,0.00000612,0.00004236,0.00006637,-0.0
 0022686,-0.00001055,-0.00001672,-0.00004627,0.00072158,0.00072105,0.00
 155310,-0.00022702,0.00024187,-0.00072330,0.00652426,-0.00393392,0.023
 24352,-0.00007623,0.00192663,-0.00009407,-0.00287079,-0.00183668,0.001
 98561,-0.00027553,-0.00098663,-0.02893093,-0.00499249,-0.00126493,-0.0
 0174704,0.00068536,-0.00025602,0.00054301,0.00186893,-0.00085858,-0.00
 086012,-0.00025396,0.00043216,0.00089965,-0.00012022,-0.00006408,0.000
 15396,0.00014823,0.00004886,0.00021903,-0.00004746,0.00004658,0.000098
 25,-0.00002001,-0.00003209,-0.00002478,0.00010243,-0.00011855,-0.00000
 831,0.00001656,0.00015042,-0.00007848,-0.00005457,0.00004376,0.0000201
 8,0.00002682,0.00001342,0.00002972,-0.00003689,0.00009289,0.00009917,0
 .00000266,0.00007912,-0.00001071,0.00001459,-0.00011034,0.00012360,0.0
 0001599,0.00007178,-0.00000065,-0.05698409,-0.00622396,-0.02473883,0.0
 5740463,0.00019507,0.00015369,-0.00011606,0.00004840,-0.00000486,0.000
 04748,0.00005063,0.00005071,-0.00008366,-0.00000537,-0.00001476,-0.000
 09183,0.00360879,-0.00265489,-0.00000927,-0.00008854,0.00022565,0.0000
 1210,-0.00341307,0.00760713,0.01123879,-0.00094174,-0.00376997,0.00135
 416,-0.00286035,0.00460805,0.00253118,-0.00118493,0.00253469,-0.005489
 54,-0.00138661,0.00122094,-0.00075056,0.00090319,0.00052182,-0.0000177
 3,-0.00060455,0.00059245,-0.00004365,0.00002509,0.00013570,-0.00001786
 ,-0.00002225,-0.00000660,0.00004278,0.00005984,-0.00001476,-0.00000001
 ,-0.00001108,-0.00000449,0.00004446,-0.00004097,-0.00003745,0.00000236
 ,-0.00090718,-0.00015507,-0.00004774,0.00004646,0.00005192,-0.00000446
 ,0.00022433,-0.00031183,-0.00017732,0.00010512,-0.00033002,-0.00009788
 ,0.00003002,-0.00002516,-0.00002586,-0.00001292,-0.00000560,0.00002973
 ,-0.00003808,-0.00002208,-0.00000620,-0.00000618,-0.00009350,0.0000640
 9,-0.00564910,-0.03538165,0.00263889,0.00886355,0.03060070,0.00010111,
 -0.00006322,0.00037205,-0.00000203,0.00003105,-0.00002107,-0.00022584,
 -0.00005595,0.00008588,0.00008949,-0.00000285,0.00000361,-0.00151815,-
 0.00128911,0.00038541,0.00083263,0.00023739,0.00089058,-0.00371898,0.0
 0252038,-0.01481863,-0.00016609,0.00041780,-0.00004768,0.00248198,0.00
 019784,-0.00081030,0.00073025,0.00025438,-0.00875346,-0.00162920,-0.00
 031635,0.00047780,-0.00022038,-0.00020242,0.00050376,0.00031338,-0.000
 28959,-0.00008088,-0.00050081,0.00044859,0.00050395,-0.00011992,0.0001
 9228,0.00035787,0.00020903,0.00001653,0.00004076,-0.00009887,0.0000067
 6,0.00001144,0.00001387,-0.00000393,-0.00002884,0.00036512,0.00008016,
 0.00006466,-0.00008111,-0.00011397,0.00006087,-0.00004329,0.00010733,0
 .00004582,-0.00008712,0.00020380,0.00006448,-0.00013458,0.00004804,0.0
 0007624,-0.00002229,0.00005126,0.00001222,0.00007711,-0.00007886,0.000
 09709,0.00001697,0.00005991,-0.00015189,-0.02293189,0.00394835,-0.3268
 7306,0.02629570,-0.00592862,0.34621395,-0.00017507,-0.00020677,-0.0001
 8679,0.00003817,-0.00003713,0.00016689,-0.00000908,0.00008713,0.000006
 08,-0.00014686,-0.00008776,0.00000414,-0.00005826,-0.00055169,0.001407
 45,0.00026453,-0.00020339,-0.00024774,-0.00516684,0.01509426,0.0032835
 6,-0.01076949,-0.02682860,0.02177614,-0.00115104,-0.00131599,0.0000437
 3,-0.00547891,0.00391872,-0.00062522,0.00094838,-0.00011372,0.00082752
 ,0.00087491,0.00201027,-0.00020529,0.00093678,0.00119755,0.00025163,-0
 .00032022,0.00012280,0.00019597,0.00025280,-0.00060249,-0.00004432,0.0
 0006839,0.00001582,0.00009990,0.00028677,0.00004853,0.00004397,-0.0000
 1500,0.00007916,-0.00006062,0.00044392,0.00021549,-0.00027710,-0.00005
 589,0.00002569,0.00007686,-0.00002684,0.00007353,0.00003260,-0.0001248
 8,0.00015768,0.00016623,-0.00025097,0.00033322,-0.00002445,0.00008073,
 -0.00003044,-0.00002972,0.00010214,0.00001094,0.00013334,-0.00001523,0
 .00033280,-0.00013392,-0.00361036,0.00226996,-0.01135763,0.00041289,-0
 .00084014,0.00034912,0.32726809,0.00037527,-0.00002315,-0.00047770,0.0
 0024302,-0.00015507,0.00012951,0.00010639,0.00009634,-0.00002334,-0.00
 021296,-0.00024960,-0.00004279,0.00437052,-0.00474694,0.00182358,-0.00
 034120,0.00014415,-0.00056171,-0.02842626,0.00711032,0.02435378,-0.018
 09972,-0.05283664,0.02847040,0.00082931,-0.00568787,-0.00209307,0.0033
 4630,-0.00497113,-0.00037021,-0.00051402,-0.00000196,-0.00011021,0.000
 05219,0.00112723,-0.00075249,-0.00037313,0.00158646,0.00029002,-0.0000
 4136,0.00002259,-0.00003470,-0.00000412,-0.00024774,-0.00008195,0.0000
 1248,-0.00001861,0.00002006,0.00004853,0.00005290,0.00004016,0.0000833
 9,0.00004485,-0.00005293,-0.00242171,-0.00015585,-0.00106511,-0.000008
 11,0.00030144,0.00010204,0.00023740,-0.00094187,-0.00043687,0.00021032
 ,-0.00013364,-0.00021759,-0.00015553,-0.00016052,0.00004419,0.00010275
 ,0.00004226,-0.00004486,-0.00011690,-0.00001145,-0.00008359,0.00001493
 ,0.00005158,0.00012799,-0.00840356,0.02415572,-0.00389832,0.00347056,-
 0.00712398,-0.00050235,0.05054831,0.08031748,-0.00000181,0.00021309,0.
 00033456,0.00002616,0.00012289,-0.00021015,-0.00002795,-0.00009009,0.0
 0004426,0.00017094,0.00010870,-0.00000669,-0.00111922,0.00199330,-0.00
 199414,0.00002101,0.00018228,0.00040940,0.01339224,-0.01379313,-0.0060
 6545,0.02088263,0.03681948,-0.01345214,0.00050505,0.00258569,0.0003936
 5,-0.00345587,0.00626038,0.00335870,-0.00025014,0.00002741,-0.00032376
 ,-0.00081282,-0.00032521,-0.00029315,-0.00069178,-0.00207671,-0.002064
 56,0.00014505,-0.00000915,0.00015449,-0.00032755,0.00111070,0.00037246
 ,-0.00001149,-0.00003353,-0.00011449,-0.00050517,-0.00010716,-0.000082
 97,0.00001899,-0.00011897,0.00003848,0.00050427,-0.00022915,0.00050987
 ,-0.00000704,-0.00011546,-0.00005180,-0.00005735,0.00021079,0.00007342
 ,-0.00001668,-0.00002443,-0.00009714,-0.00030180,-0.00009592,0.0002880
 7,-0.00005577,0.00027525,-0.00006225,-0.00003717,-0.00002033,-0.000112
 95,0.00008620,-0.00019293,0.00005985,-0.00385289,-0.01721610,-0.006091
 98,0.00144580,-0.00344294,0.00154064,-0.25990181,-0.05305087,0.2342067
 9,-0.00018389,0.00121555,0.00059413,0.00042875,-0.00064259,-0.00043256
 ,0.00005926,-0.00027286,0.00001254,0.00037900,-0.00016062,-0.00015828,
 -0.00079416,0.00118644,-0.00100270,-0.00015534,0.00039283,0.00045362,0
 .00152068,-0.00733609,0.00367379,-0.02024748,0.01318762,-0.00467724,0.
 00120817,0.00018147,-0.00026690,-0.00090996,0.00324062,0.00301301,-0.0
 0084937,-0.00008875,-0.00116416,-0.00136658,-0.00045253,-0.00050550,-0
 .00093650,-0.00193174,-0.00231718,0.00046855,-0.00022934,-0.00016823,-
 0.00034955,0.00120768,0.00022649,-0.00008497,-0.00004994,-0.00016563,-
 0.00057517,-0.00008726,-0.00008267,0.00006148,-0.00014119,0.00006003,0
 .00009837,0.00002307,0.00055362,-0.00000408,-0.00011604,-0.00008978,0.
 00018531,0.00017595,-0.00001254,0.00028343,-0.00039187,-0.00038114,-0.
 00025682,-0.00015259,0.00031630,-0.00013329,0.00029210,-0.00005631,-0.
 00010896,-0.00003450,-0.00021112,0.00004907,-0.00043419,0.00015830,-0.
 00800464,0.00459867,0.01800287,-0.00183507,0.00385257,-0.00037522,-0.3
 0460354,-0.00493310,0.23423597,0.33665730,-0.00064020,-0.00075045,-0.0
 0005723,-0.00130602,0.00042232,0.00007813,0.00004444,-0.00006292,-0.00
 004174,-0.00049034,0.00059763,0.00031406,-0.00006750,0.00681322,0.0011
 3781,-0.00035974,-0.00041013,-0.00049356,0.07168261,-0.08036303,-0.039
 70203,0.00479200,0.04639995,-0.01729748,-0.00170795,0.00578649,0.00257
 342,0.00147314,0.00071051,-0.00088500,0.00041865,-0.00000611,0.0003778
 7,0.00112183,-0.00000228,0.00075185,-0.00071636,0.00066860,0.00104910,
 -0.00010796,-0.00000825,-0.00007618,0.00005423,-0.00042123,-0.00020103
 ,0.00001775,0.00001392,0.00007689,0.00021643,0.00005157,0.00004377,0.0
 0001754,0.00010108,-0.00002227,0.00055534,-0.00057652,0.00011828,0.000
 11391,0.00013591,-0.00007601,-0.00085324,-0.00005397,0.00008364,-0.000
 40728,0.00065830,0.00058834,-0.00002909,-0.00030167,-0.00040267,0.0002
 7665,-0.00004591,0.00003939,0.00005931,0.00005902,0.00013418,0.0002496
 4,0.00056770,0.00010560,-0.01599230,-0.04363901,0.01855109,-0.00059236
 ,0.00165321,0.00002538,-0.04572374,-0.03758730,0.04103212,-0.01209938,
 0.09958935,0.00020581,-0.00038370,-0.00017974,-0.00000857,0.00007246,0
 .00002306,-0.00000916,-0.00001692,0.00001313,-0.00014450,-0.00001427,0
 .00004515,0.00006808,-0.00113243,0.00132088,0.00014955,-0.00008043,-0.
 00004452,-0.01400541,0.02467452,0.01200585,-0.00405061,-0.02754652,-0.
 01642633,0.00046175,-0.00272609,-0.00037782,0.00267916,-0.00518107,-0.
 00322679,0.00054002,-0.00002561,0.00076212,0.00083815,-0.00014016,0.00
 034100,0.00102591,0.00182700,0.00233686,-0.00031493,0.00016951,0.00003
 181,0.00034014,-0.00115890,-0.00030056,0.00005712,0.00003278,0.0001510
 1,0.00052438,0.00011282,0.00008568,-0.00004882,0.00011371,-0.00005240,
 0.00016198,0.00050527,-0.00029517,-0.00000373,0.00002086,0.00004191,0.
 00009350,0.00006066,-0.00001054,-0.00003132,0.00001103,0.00012613,0.00
 039023,0.00017318,-0.00031013,0.00001933,-0.00029920,0.00006916,0.0000
 7087,0.00001312,0.00016933,-0.00010970,0.00019545,-0.00013117,0.015247
 03,0.01170456,-0.00850711,0.00085770,-0.00165484,-0.00022327,0.2442295
 3,0.00849893,-0.21076103,-0.24923350,-0.00782574,0.22332352\\0.0000000
 8,0.00000443,-0.00000542,-0.00000099,0.00000272,-0.00000540,-0.0000021
 1,0.00000385,-0.00000181,-0.00000052,0.00000226,-0.00000353,0.00000135
 ,0.00000067,-0.00000042,0.00000224,-0.00000057,-0.00000318,-0.00000413
 ,-0.00000280,-0.00000131,0.00000491,-0.00000383,0.00000027,-0.00000104
 ,-0.00000042,-0.00000158,0.00000167,-0.00000183,-0.00000017,-0.0000005
 7,0.00000043,-0.00000026,0.00000143,-0.00000098,-0.00000068,0.00000100
 ,-0.00000074,0.00000312,0.00000139,-0.00000326,0.00000257,0.00000055,-
 0.00000212,0.00000330,-0.00000065,-0.00000071,0.00000326,-0.00000006,-
 0.00000309,0.00000520,0.00000101,-0.00000301,0.00000244,-0.00000194,0.
 00000095,0.00000133,-0.00000088,0.00000125,0.00000108,-0.00000028,-0.0
 0000006,0.00000007,0.00000017,-0.00000059,0.00000121,-0.00000168,-0.00
 000069,0.00000365,-0.00000122,-0.00000156,0.00000583,-0.00000237,0.000
 00073,0.00000396,-0.00000086,-0.00000100,0.00000396,0.00000053,0.00000
 084,-0.00000205,0.00000316,-0.00000497,-0.00000181,0.00000105,0.000007
 29,-0.00000496,-0.00000124,0.00000681,-0.00000870\\\@
 Job cpu time:  0 days 12 hours  5 minutes 48.4 seconds.
 File lengths (MBytes):  RWF=  74080 Int=      0 D2E=      0 Chk=     26 Scr=      1
 Normal termination of Gaussian 09 at Fri Feb 21 03:50:53 2014.
