 Entering Gaussian System, Link 0=g09
 Initial command:
 /usr/caen/gaussian-09revc/g09/l1.exe /scratch/avioli_flux/hetanjin/scratch/Gau-26809.inp -scrdir=/scratch/avioli_flux/hetanjin/scratch/
 Entering Link 1 = /usr/caen/gaussian-09revc/g09/l1.exe PID=     26810.
  
 Copyright (c) 1988,1990,1992,1993,1995,1998,2003,2009,2011,
            Gaussian, Inc.  All Rights Reserved.
  
 This is part of the Gaussian(R) 09 program.  It is based on
 the Gaussian(R) 03 system (copyright 2003, Gaussian, Inc.),
 the Gaussian(R) 98 system (copyright 1998, Gaussian, Inc.),
 the Gaussian(R) 94 system (copyright 1995, Gaussian, Inc.),
 the Gaussian 92(TM) system (copyright 1992, Gaussian, Inc.),
 the Gaussian 90(TM) system (copyright 1990, Gaussian, Inc.),
 the Gaussian 88(TM) system (copyright 1988, Gaussian, Inc.),
 the Gaussian 86(TM) system (copyright 1986, Carnegie Mellon
 University), and the Gaussian 82(TM) system (copyright 1983,
 Carnegie Mellon University). Gaussian is a federally registered
 trademark of Gaussian, Inc.
  
 This software contains proprietary and confidential information,
 including trade secrets, belonging to Gaussian, Inc.
  
 This software is provided under written license and may be
 used, copied, transmitted, or stored only in accord with that
 written license.
  
 The following legend is applicable only to US Government
 contracts under FAR:
  
                    RESTRICTED RIGHTS LEGEND
  
 Use, reproduction and disclosure by the US Government is
 subject to restrictions as set forth in subparagraphs (a)
 and (c) of the Commercial Computer Software - Restricted
 Rights clause in FAR 52.227-19.
  
 Gaussian, Inc.
 340 Quinnipiac St., Bldg. 40, Wallingford CT 06492
  
  
 ---------------------------------------------------------------
 Warning -- This program may not be used in any manner that
 competes with the business of Gaussian, Inc. or will provide
 assistance to any competitor of Gaussian, Inc.  The licensee
 of this program is prohibited from giving any competitor of
 Gaussian, Inc. access to this program.  By using this program,
 the user acknowledges that Gaussian, Inc. is engaged in the
 business of creating and licensing software in the field of
 computational chemistry and represents and warrants to the
 licensee that it is not a competitor of Gaussian, Inc. and that
 it will not use this program in any manner prohibited above.
 ---------------------------------------------------------------
  

 Cite this work as:
 Gaussian 09, Revision C.01,
 M. J. Frisch, G. W. Trucks, H. B. Schlegel, G. E. Scuseria, 
 M. A. Robb, J. R. Cheeseman, G. Scalmani, V. Barone, B. Mennucci, 
 G. A. Petersson, H. Nakatsuji, M. Caricato, X. Li, H. P. Hratchian, 
 A. F. Izmaylov, J. Bloino, G. Zheng, J. L. Sonnenberg, M. Hada, 
 M. Ehara, K. Toyota, R. Fukuda, J. Hasegawa, M. Ishida, T. Nakajima, 
 Y. Honda, O. Kitao, H. Nakai, T. Vreven, J. A. Montgomery, Jr., 
 J. E. Peralta, F. Ogliaro, M. Bearpark, J. J. Heyd, E. Brothers, 
 K. N. Kudin, V. N. Staroverov, T. Keith, R. Kobayashi, J. Normand, 
 K. Raghavachari, A. Rendell, J. C. Burant, S. S. Iyengar, J. Tomasi, 
 M. Cossi, N. Rega, J. M. Millam, M. Klene, J. E. Knox, J. B. Cross, 
 V. Bakken, C. Adamo, J. Jaramillo, R. Gomperts, R. E. Stratmann, 
 O. Yazyev, A. J. Austin, R. Cammi, C. Pomelli, J. W. Ochterski, 
 R. L. Martin, K. Morokuma, V. G. Zakrzewski, G. A. Voth, 
 P. Salvador, J. J. Dannenberg, S. Dapprich, A. D. Daniels, 
 O. Farkas, J. B. Foresman, J. V. Ortiz, J. Cioslowski, 
 and D. J. Fox, Gaussian, Inc., Wallingford CT, 2010.
 
 ******************************************
 Gaussian 09:  EM64L-G09RevC.01 23-Sep-2011
                17-Feb-2014 
 ******************************************
 %mem=30GB
 %nprocshared=8
 Will use up to    8 processors via shared memory.
 %chk=TS_4_4c.chk
 -------------------------------
 #p cbs-qb3 opt=(TS,calcfc) freq
 -------------------------------
 1/5=1,10=4,14=-1,18=20,26=3,38=1/1,3;
 2/9=110,12=2,17=6,18=5,40=1/2;
 3/5=4,6=6,7=700,11=2,16=1,25=1,30=1,71=2,74=-5/1,2,3;
 4//1;
 5/5=2,38=5/2;
 8/6=4,10=90,11=11/1;
 11/6=1,8=1,9=11,15=111,16=1/1,2,10;
 10/6=1,7=6,13=1/2;
 6/7=2,8=2,9=2,10=2,28=1/1;
 7/10=1,18=20,25=1/1,2,3,16;
 1/5=1,10=4,14=-1,18=20/3(2);
 2/9=110/2;
 99//99;
 2/9=110/2;
 3/5=4,6=6,7=700,11=2,16=1,25=1,30=1,71=1,74=-5/1,2,3;
 4/5=5,16=3/1;
 5/5=2,38=5/2;
 7//1,2,3,16;
 1/5=1,14=-1,18=20/3(-5);
 2/9=110/2;
 6/7=2,8=2,9=2,10=2,19=2,28=1/1;
 99/9=1/99;
 Leave Link    1 at Mon Feb 17 18:55:33 2014, MaxMem= 4026531840 cpu:       0.7
 (Enter /usr/caen/gaussian-09revc/g09/l101.exe)
 ------------------------------------
 TS_4_4c using cbs-qb3 to cal. energy
 ------------------------------------
 Charge =  0 Multiplicity = 2
 Symbolic Z-Matrix:
 C                     3.77707  -0.19212   0.94125 
 H                     3.66138  -1.15893   1.43952 
 H                     3.80232   0.5828    1.71589 
 H                     4.74853  -0.18894   0.43857 
 C                     2.63825   0.06176  -0.05619 
 H                     2.64762  -0.74742  -0.79522 
 C                     1.27979   0.00309   0.66659 
 H                     1.23655  -0.89962   1.28468 
 H                     1.19234   0.85861   1.34996 
 C                    -1.26864  -0.14436   0.51413 
 H                    -1.21301   0.03399   1.59039 
 H                    -1.14877  -1.47973   0.33084 
 C                    -2.54529   0.3389   -0.13437 
 H                    -2.50637   0.06292  -1.19484 
 C                    -3.77905  -0.32298   0.49737 
 H                    -3.84645  -0.08894   1.56523 
 H                    -4.69646   0.03239   0.02033 
 H                    -3.74371  -1.41009   0.3911 
 C                     2.85438   1.39031  -0.7957 
 H                     2.82574   2.23542  -0.09815 
 H                     3.82953   1.4038   -1.29068 
 H                     2.09952   1.56521  -1.56692 
 C                    -2.64614   1.87847  -0.04549 
 H                    -3.54528   2.22757  -0.5614 
 H                    -2.70762   2.20522   0.99742 
 H                    -1.78632   2.37241  -0.50529 
 C                     0.05826   0.0029   -0.25237 
 H                     0.05919   0.87502  -0.91389 
 O                     0.04057  -1.12189  -1.16438 
 O                    -0.43063  -2.2003   -0.36174 
 
 NAtoms=     30 NQM=        0 NQMF=       0 NMMI=     30 NMMIF=      0
                NMic=       0 NMicF=      0.
                    Isotopes and Nuclear Properties:
 (Nuclear quadrupole moments (NQMom) in fm**2, nuclear magnetic moments (NMagM)
  in nuclear magnetons)

  Atom         1           2           3           4           5           6           7           8           9          10
 IAtWgt=          12           1           1           1          12           1          12           1           1          12
 AtmWgt=  12.0000000   1.0078250   1.0078250   1.0078250  12.0000000   1.0078250  12.0000000   1.0078250   1.0078250  12.0000000
 NucSpn=           0           1           1           1           0           1           0           1           1           0
 AtZEff=   0.0000000   0.0000000   0.0000000   0.0000000   0.0000000   0.0000000   0.0000000   0.0000000   0.0000000   0.0000000
 NQMom=    0.0000000   0.0000000   0.0000000   0.0000000   0.0000000   0.0000000   0.0000000   0.0000000   0.0000000   0.0000000
 NMagM=    0.0000000   2.7928460   2.7928460   2.7928460   0.0000000   2.7928460   0.0000000   2.7928460   2.7928460   0.0000000

  Atom        11          12          13          14          15          16          17          18          19          20
 IAtWgt=           1           1          12           1          12           1           1           1          12           1
 AtmWgt=   1.0078250   1.0078250  12.0000000   1.0078250  12.0000000   1.0078250   1.0078250   1.0078250  12.0000000   1.0078250
 NucSpn=           1           1           0           1           0           1           1           1           0           1
 AtZEff=   0.0000000   0.0000000   0.0000000   0.0000000   0.0000000   0.0000000   0.0000000   0.0000000   0.0000000   0.0000000
 NQMom=    0.0000000   0.0000000   0.0000000   0.0000000   0.0000000   0.0000000   0.0000000   0.0000000   0.0000000   0.0000000
 NMagM=    2.7928460   2.7928460   0.0000000   2.7928460   0.0000000   2.7928460   2.7928460   2.7928460   0.0000000   2.7928460

  Atom        21          22          23          24          25          26          27          28          29          30
 IAtWgt=           1           1          12           1           1           1          12           1          16          16
 AtmWgt=   1.0078250   1.0078250  12.0000000   1.0078250   1.0078250   1.0078250  12.0000000   1.0078250  15.9949146  15.9949146
 NucSpn=           1           1           0           1           1           1           0           1           0           0
 AtZEff=   0.0000000   0.0000000   0.0000000   0.0000000   0.0000000   0.0000000   0.0000000   0.0000000   0.0000000   0.0000000
 NQMom=    0.0000000   0.0000000   0.0000000   0.0000000   0.0000000   0.0000000   0.0000000   0.0000000   0.0000000   0.0000000
 NMagM=    2.7928460   2.7928460   0.0000000   2.7928460   2.7928460   2.7928460   0.0000000   2.7928460   0.0000000   0.0000000
 Leave Link  101 at Mon Feb 17 18:55:33 2014, MaxMem= 4026531840 cpu:       1.4
 (Enter /usr/caen/gaussian-09revc/g09/l103.exe)

 GradGradGradGradGradGradGradGradGradGradGradGradGradGradGradGradGradGrad
 Berny optimization.
 Initialization pass.
                           ----------------------------
                           !    Initial Parameters    !
                           ! (Angstroms and Degrees)  !
 --------------------------                            --------------------------
 ! Name  Definition              Value          Derivative Info.                !
 --------------------------------------------------------------------------------
 ! R1    R(1,2)                  1.0938         calculate D2E/DX2 analytically  !
 ! R2    R(1,3)                  1.096          calculate D2E/DX2 analytically  !
 ! R3    R(1,4)                  1.0938         calculate D2E/DX2 analytically  !
 ! R4    R(1,5)                  1.535          calculate D2E/DX2 analytically  !
 ! R5    R(5,6)                  1.0959         calculate D2E/DX2 analytically  !
 ! R6    R(5,7)                  1.5399         calculate D2E/DX2 analytically  !
 ! R7    R(5,19)                 1.5358         calculate D2E/DX2 analytically  !
 ! R8    R(7,8)                  1.0949         calculate D2E/DX2 analytically  !
 ! R9    R(7,9)                  1.0984         calculate D2E/DX2 analytically  !
 ! R10   R(7,27)                 1.5286         calculate D2E/DX2 analytically  !
 ! R11   R(10,11)                1.0923         calculate D2E/DX2 analytically  !
 ! R12   R(10,12)                1.3532         calculate D2E/DX2 analytically  !
 ! R13   R(10,13)                1.5113         calculate D2E/DX2 analytically  !
 ! R14   R(10,27)                1.5394         calculate D2E/DX2 analytically  !
 ! R15   R(12,30)                1.2307         calculate D2E/DX2 analytically  !
 ! R16   R(13,14)                1.0965         calculate D2E/DX2 analytically  !
 ! R17   R(13,15)                1.536          calculate D2E/DX2 analytically  !
 ! R18   R(13,23)                1.5454         calculate D2E/DX2 analytically  !
 ! R19   R(15,16)                1.0953         calculate D2E/DX2 analytically  !
 ! R20   R(15,17)                1.0934         calculate D2E/DX2 analytically  !
 ! R21   R(15,18)                1.0929         calculate D2E/DX2 analytically  !
 ! R22   R(19,20)                1.0962         calculate D2E/DX2 analytically  !
 ! R23   R(19,21)                1.0937         calculate D2E/DX2 analytically  !
 ! R24   R(19,22)                1.0932         calculate D2E/DX2 analytically  !
 ! R25   R(23,24)                1.0938         calculate D2E/DX2 analytically  !
 ! R26   R(23,25)                1.0946         calculate D2E/DX2 analytically  !
 ! R27   R(23,26)                1.093          calculate D2E/DX2 analytically  !
 ! R28   R(27,28)                1.0946         calculate D2E/DX2 analytically  !
 ! R29   R(27,29)                1.4482         calculate D2E/DX2 analytically  !
 ! R30   R(29,30)                1.4245         calculate D2E/DX2 analytically  !
 ! A1    A(2,1,3)              107.7837         calculate D2E/DX2 analytically  !
 ! A2    A(2,1,4)              107.8097         calculate D2E/DX2 analytically  !
 ! A3    A(2,1,5)              111.3292         calculate D2E/DX2 analytically  !
 ! A4    A(3,1,4)              107.5959         calculate D2E/DX2 analytically  !
 ! A5    A(3,1,5)              111.065          calculate D2E/DX2 analytically  !
 ! A6    A(4,1,5)              111.0883         calculate D2E/DX2 analytically  !
 ! A7    A(1,5,6)              108.0427         calculate D2E/DX2 analytically  !
 ! A8    A(1,5,7)              110.0717         calculate D2E/DX2 analytically  !
 ! A9    A(1,5,19)             110.5826         calculate D2E/DX2 analytically  !
 ! A10   A(6,5,7)              107.2135         calculate D2E/DX2 analytically  !
 ! A11   A(6,5,19)             108.2286         calculate D2E/DX2 analytically  !
 ! A12   A(7,5,19)             112.5269         calculate D2E/DX2 analytically  !
 ! A13   A(5,7,8)              109.3431         calculate D2E/DX2 analytically  !
 ! A14   A(5,7,9)              109.4249         calculate D2E/DX2 analytically  !
 ! A15   A(5,7,27)             115.0114         calculate D2E/DX2 analytically  !
 ! A16   A(8,7,9)              106.7254         calculate D2E/DX2 analytically  !
 ! A17   A(8,7,27)             107.9218         calculate D2E/DX2 analytically  !
 ! A18   A(9,7,27)             108.0883         calculate D2E/DX2 analytically  !
 ! A19   A(11,10,12)           106.862          calculate D2E/DX2 analytically  !
 ! A20   A(11,10,13)           114.4309         calculate D2E/DX2 analytically  !
 ! A21   A(11,10,27)           115.5353         calculate D2E/DX2 analytically  !
 ! A22   A(12,10,13)           109.4059         calculate D2E/DX2 analytically  !
 ! A23   A(12,10,27)            87.1689         calculate D2E/DX2 analytically  !
 ! A24   A(13,10,27)           118.9386         calculate D2E/DX2 analytically  !
 ! A25   A(10,12,30)           134.8855         calculate D2E/DX2 analytically  !
 ! A26   A(10,13,14)           107.7311         calculate D2E/DX2 analytically  !
 ! A27   A(10,13,15)           111.3611         calculate D2E/DX2 analytically  !
 ! A28   A(10,13,23)           110.4266         calculate D2E/DX2 analytically  !
 ! A29   A(14,13,15)           108.5318         calculate D2E/DX2 analytically  !
 ! A30   A(14,13,23)           107.9799         calculate D2E/DX2 analytically  !
 ! A31   A(15,13,23)           110.683          calculate D2E/DX2 analytically  !
 ! A32   A(13,15,16)           110.998          calculate D2E/DX2 analytically  !
 ! A33   A(13,15,17)           110.7596         calculate D2E/DX2 analytically  !
 ! A34   A(13,15,18)           111.2641         calculate D2E/DX2 analytically  !
 ! A35   A(16,15,17)           107.7157         calculate D2E/DX2 analytically  !
 ! A36   A(16,15,18)           108.0208         calculate D2E/DX2 analytically  !
 ! A37   A(17,15,18)           107.9392         calculate D2E/DX2 analytically  !
 ! A38   A(5,19,20)            110.9063         calculate D2E/DX2 analytically  !
 ! A39   A(5,19,21)            110.7372         calculate D2E/DX2 analytically  !
 ! A40   A(5,19,22)            112.3902         calculate D2E/DX2 analytically  !
 ! A41   A(20,19,21)           107.5647         calculate D2E/DX2 analytically  !
 ! A42   A(20,19,22)           107.9104         calculate D2E/DX2 analytically  !
 ! A43   A(21,19,22)           107.1214         calculate D2E/DX2 analytically  !
 ! A44   A(13,23,24)           110.1487         calculate D2E/DX2 analytically  !
 ! A45   A(13,23,25)           110.8446         calculate D2E/DX2 analytically  !
 ! A46   A(13,23,26)           112.0034         calculate D2E/DX2 analytically  !
 ! A47   A(24,23,25)           107.9349         calculate D2E/DX2 analytically  !
 ! A48   A(24,23,26)           107.6973         calculate D2E/DX2 analytically  !
 ! A49   A(25,23,26)           108.0642         calculate D2E/DX2 analytically  !
 ! A50   A(7,27,10)            112.9212         calculate D2E/DX2 analytically  !
 ! A51   A(7,27,28)            111.2559         calculate D2E/DX2 analytically  !
 ! A52   A(7,27,29)            112.8581         calculate D2E/DX2 analytically  !
 ! A53   A(10,27,28)           112.201          calculate D2E/DX2 analytically  !
 ! A54   A(10,27,29)           103.223          calculate D2E/DX2 analytically  !
 ! A55   A(28,27,29)           103.7825         calculate D2E/DX2 analytically  !
 ! A56   A(27,29,30)           103.7207         calculate D2E/DX2 analytically  !
 ! A57   A(12,30,29)            93.8335         calculate D2E/DX2 analytically  !
 ! D1    D(2,1,5,6)            -58.9224         calculate D2E/DX2 analytically  !
 ! D2    D(2,1,5,7)             57.8461         calculate D2E/DX2 analytically  !
 ! D3    D(2,1,5,19)          -177.2            calculate D2E/DX2 analytically  !
 ! D4    D(3,1,5,6)           -179.0388         calculate D2E/DX2 analytically  !
 ! D5    D(3,1,5,7)            -62.2704         calculate D2E/DX2 analytically  !
 ! D6    D(3,1,5,19)            62.6835         calculate D2E/DX2 analytically  !
 ! D7    D(4,1,5,6)             61.2428         calculate D2E/DX2 analytically  !
 ! D8    D(4,1,5,7)            178.0112         calculate D2E/DX2 analytically  !
 ! D9    D(4,1,5,19)           -57.0349         calculate D2E/DX2 analytically  !
 ! D10   D(1,5,7,8)            -48.4726         calculate D2E/DX2 analytically  !
 ! D11   D(1,5,7,9)             68.0918         calculate D2E/DX2 analytically  !
 ! D12   D(1,5,7,27)          -170.0502         calculate D2E/DX2 analytically  !
 ! D13   D(6,5,7,8)             68.8124         calculate D2E/DX2 analytically  !
 ! D14   D(6,5,7,9)           -174.6232         calculate D2E/DX2 analytically  !
 ! D15   D(6,5,7,27)           -52.7652         calculate D2E/DX2 analytically  !
 ! D16   D(19,5,7,8)          -172.3044         calculate D2E/DX2 analytically  !
 ! D17   D(19,5,7,9)           -55.74           calculate D2E/DX2 analytically  !
 ! D18   D(19,5,7,27)           66.1179         calculate D2E/DX2 analytically  !
 ! D19   D(1,5,19,20)          -63.3653         calculate D2E/DX2 analytically  !
 ! D20   D(1,5,19,21)           55.9788         calculate D2E/DX2 analytically  !
 ! D21   D(1,5,19,22)          175.7432         calculate D2E/DX2 analytically  !
 ! D22   D(6,5,19,20)          178.4705         calculate D2E/DX2 analytically  !
 ! D23   D(6,5,19,21)          -62.1854         calculate D2E/DX2 analytically  !
 ! D24   D(6,5,19,22)           57.579          calculate D2E/DX2 analytically  !
 ! D25   D(7,5,19,20)           60.1826         calculate D2E/DX2 analytically  !
 ! D26   D(7,5,19,21)          179.5268         calculate D2E/DX2 analytically  !
 ! D27   D(7,5,19,22)          -60.7088         calculate D2E/DX2 analytically  !
 ! D28   D(5,7,27,10)          176.4478         calculate D2E/DX2 analytically  !
 ! D29   D(5,7,27,28)          -56.3461         calculate D2E/DX2 analytically  !
 ! D30   D(5,7,27,29)           59.847          calculate D2E/DX2 analytically  !
 ! D31   D(8,7,27,10)           54.1021         calculate D2E/DX2 analytically  !
 ! D32   D(8,7,27,28)         -178.6918         calculate D2E/DX2 analytically  !
 ! D33   D(8,7,27,29)          -62.4988         calculate D2E/DX2 analytically  !
 ! D34   D(9,7,27,10)          -60.9739         calculate D2E/DX2 analytically  !
 ! D35   D(9,7,27,28)           66.2322         calculate D2E/DX2 analytically  !
 ! D36   D(9,7,27,29)         -177.5748         calculate D2E/DX2 analytically  !
 ! D37   D(11,10,12,30)       -127.8066         calculate D2E/DX2 analytically  !
 ! D38   D(13,10,12,30)        107.7924         calculate D2E/DX2 analytically  !
 ! D39   D(27,10,12,30)        -11.9581         calculate D2E/DX2 analytically  !
 ! D40   D(11,10,13,14)       -177.2788         calculate D2E/DX2 analytically  !
 ! D41   D(11,10,13,15)        -58.3744         calculate D2E/DX2 analytically  !
 ! D42   D(11,10,13,23)         65.0172         calculate D2E/DX2 analytically  !
 ! D43   D(12,10,13,14)        -57.4236         calculate D2E/DX2 analytically  !
 ! D44   D(12,10,13,15)         61.4809         calculate D2E/DX2 analytically  !
 ! D45   D(12,10,13,23)       -175.1275         calculate D2E/DX2 analytically  !
 ! D46   D(27,10,13,14)         40.3313         calculate D2E/DX2 analytically  !
 ! D47   D(27,10,13,15)        159.2357         calculate D2E/DX2 analytically  !
 ! D48   D(27,10,13,23)        -77.3726         calculate D2E/DX2 analytically  !
 ! D49   D(11,10,27,7)          15.4827         calculate D2E/DX2 analytically  !
 ! D50   D(11,10,27,28)       -111.2228         calculate D2E/DX2 analytically  !
 ! D51   D(11,10,27,29)        137.6638         calculate D2E/DX2 analytically  !
 ! D52   D(12,10,27,7)         -91.869          calculate D2E/DX2 analytically  !
 ! D53   D(12,10,27,28)        141.4255         calculate D2E/DX2 analytically  !
 ! D54   D(12,10,27,29)         30.312          calculate D2E/DX2 analytically  !
 ! D55   D(13,10,27,7)         157.4733         calculate D2E/DX2 analytically  !
 ! D56   D(13,10,27,28)         30.7678         calculate D2E/DX2 analytically  !
 ! D57   D(13,10,27,29)        -80.3457         calculate D2E/DX2 analytically  !
 ! D58   D(10,12,30,29)        -13.0699         calculate D2E/DX2 analytically  !
 ! D59   D(10,13,15,16)         60.4668         calculate D2E/DX2 analytically  !
 ! D60   D(10,13,15,17)       -179.9253         calculate D2E/DX2 analytically  !
 ! D61   D(10,13,15,18)        -59.8609         calculate D2E/DX2 analytically  !
 ! D62   D(14,13,15,16)        178.8916         calculate D2E/DX2 analytically  !
 ! D63   D(14,13,15,17)        -61.5004         calculate D2E/DX2 analytically  !
 ! D64   D(14,13,15,18)         58.5639         calculate D2E/DX2 analytically  !
 ! D65   D(23,13,15,16)        -62.7786         calculate D2E/DX2 analytically  !
 ! D66   D(23,13,15,17)         56.8294         calculate D2E/DX2 analytically  !
 ! D67   D(23,13,15,18)        176.8938         calculate D2E/DX2 analytically  !
 ! D68   D(10,13,23,24)        177.0673         calculate D2E/DX2 analytically  !
 ! D69   D(10,13,23,25)        -63.5471         calculate D2E/DX2 analytically  !
 ! D70   D(10,13,23,26)         57.2319         calculate D2E/DX2 analytically  !
 ! D71   D(14,13,23,24)         59.5165         calculate D2E/DX2 analytically  !
 ! D72   D(14,13,23,25)        178.9021         calculate D2E/DX2 analytically  !
 ! D73   D(14,13,23,26)        -60.3189         calculate D2E/DX2 analytically  !
 ! D74   D(15,13,23,24)        -59.1486         calculate D2E/DX2 analytically  !
 ! D75   D(15,13,23,25)         60.237          calculate D2E/DX2 analytically  !
 ! D76   D(15,13,23,26)       -178.984          calculate D2E/DX2 analytically  !
 ! D77   D(7,27,29,30)          79.2845         calculate D2E/DX2 analytically  !
 ! D78   D(10,27,29,30)        -42.9388         calculate D2E/DX2 analytically  !
 ! D79   D(28,27,29,30)       -160.1514         calculate D2E/DX2 analytically  !
 ! D80   D(27,29,30,12)         32.4567         calculate D2E/DX2 analytically  !
 --------------------------------------------------------------------------------
 Trust Radius=3.00D-01 FncErr=1.00D-07 GrdErr=1.00D-06
 Number of steps in this run=    177 maximum allowed number of steps=    180.
 Search for a saddle point of order  1.
 GradGradGradGradGradGradGradGradGradGradGradGradGradGradGradGradGradGrad

 Leave Link  103 at Mon Feb 17 18:55:33 2014, MaxMem= 4026531840 cpu:       0.1
 (Enter /usr/caen/gaussian-09revc/g09/l202.exe)
                          Input orientation:                          
 ---------------------------------------------------------------------
 Center     Atomic      Atomic             Coordinates (Angstroms)
 Number     Number       Type             X           Y           Z
 ---------------------------------------------------------------------
      1          6           0        3.777069   -0.192117    0.941251
      2          1           0        3.661376   -1.158932    1.439521
      3          1           0        3.802324    0.582796    1.715891
      4          1           0        4.748528   -0.188944    0.438571
      5          6           0        2.638248    0.061760   -0.056187
      6          1           0        2.647622   -0.747416   -0.795216
      7          6           0        1.279791    0.003089    0.666585
      8          1           0        1.236550   -0.899615    1.284682
      9          1           0        1.192336    0.858613    1.349959
     10          6           0       -1.268635   -0.144361    0.514133
     11          1           0       -1.213010    0.033994    1.590386
     12          1           0       -1.148770   -1.479729    0.330841
     13          6           0       -2.545286    0.338898   -0.134371
     14          1           0       -2.506368    0.062920   -1.194836
     15          6           0       -3.779049   -0.322981    0.497374
     16          1           0       -3.846445   -0.088936    1.565230
     17          1           0       -4.696456    0.032387    0.020331
     18          1           0       -3.743710   -1.410090    0.391097
     19          6           0        2.854375    1.390307   -0.795699
     20          1           0        2.825742    2.235424   -0.098148
     21          1           0        3.829527    1.403799   -1.290684
     22          1           0        2.099522    1.565206   -1.566919
     23          6           0       -2.646142    1.878471   -0.045485
     24          1           0       -3.545280    2.227571   -0.561400
     25          1           0       -2.707622    2.205219    0.997422
     26          1           0       -1.786321    2.372414   -0.505286
     27          6           0        0.058256    0.002901   -0.252373
     28          1           0        0.059188    0.875016   -0.913892
     29          8           0        0.040570   -1.121889   -1.164377
     30          8           0       -0.430631   -2.200299   -0.361738
 ---------------------------------------------------------------------
                    Distance matrix (angstroms):
                    1          2          3          4          5
     1  C    0.000000
     2  H    1.093796   0.000000
     3  H    1.095990   1.769142   0.000000
     4  H    1.093814   1.767676   1.767040   0.000000
     5  C    1.535008   2.184954   2.183303   2.181953   0.000000
     6  H    2.144604   2.488191   3.067321   2.499585   1.095909
     7  C    2.519910   2.760375   2.792897   3.481523   1.539885
     8  H    2.659461   2.443563   2.994441   3.681704   2.164932
     9  H    2.819915   3.189775   2.649909   3.817657   2.168613
    10  C    5.063975   5.117686   5.261901   6.017803   3.953667
    11  H    5.037201   5.020505   5.046832   6.075880   4.188575
    12  H    5.127810   4.946674   5.539468   6.037868   4.107004
    13  C    6.435147   6.575963   6.616276   7.335298   5.191526
    14  H    6.641498   6.817171   6.967223   7.440764   5.269117
    15  C    7.570276   7.546282   7.731910   8.528833   6.452608
    16  H    7.649703   7.584726   7.679687   8.669079   6.686026
    17  H    8.526378   8.560765   8.683728   9.456830   7.335162
    18  H    7.638602   7.483153   7.916395   8.579718   6.564739
    19  C    2.524366   3.485122   2.803349   2.757766   1.535782
    20  H    2.806836   3.818948   2.641142   3.140499   2.182139
    21  H    2.744309   3.748318   3.116774   2.524226   2.178118
    22  H    3.491886   4.347298   3.826422   3.757162   2.198383
    23  C    6.820456   7.156525   6.809107   7.693482   5.587963
    24  H    7.856822   8.210236   7.866297   8.696363   6.571301
    25  H    6.913870   7.216446   6.747433   7.851019   5.855155
    26  H    6.294489   6.777174   6.274497   7.082067   5.011748
    27  C    3.910542   4.146666   4.269471   4.744772   2.588110
    28  H    4.289868   4.759334   4.583909   4.995105   2.837004
    29  O    4.388573   4.460033   5.035145   5.060108   3.062195
    30  O    4.841003   4.590588   5.475406   5.613353   3.824695
                    6          7          8          9         10
     6  H    0.000000
     7  C    2.138009   0.000000
     8  H    2.517988   1.094892   0.000000
     9  H    3.049420   1.098440   1.759995   0.000000
    10  C    4.173145   2.557236   2.727656   2.785846   0.000000
    11  H    4.605017   2.658650   2.639209   2.554113   1.092348
    12  H    4.027019   2.865202   2.633647   3.462257   1.353208
    13  C    5.346315   3.922437   4.224915   4.055016   1.511269
    14  H    5.232586   4.219416   4.591723   4.559553   2.120265
    15  C    6.569097   5.072161   5.109657   5.180515   2.516816
    16  H    6.941052   5.205221   5.154876   5.131618   2.784418
    17  H    7.430255   6.011159   6.137408   6.093310   3.467714
    18  H    6.534187   5.225756   5.085476   5.516428   2.782661
    19  C    2.147698   2.557726   3.491287   2.765668   4.590215
    20  H    3.068381   2.821011   3.777065   2.580821   4.775164
    21  H    2.504020   3.506286   4.319925   3.771604   5.625426
    22  H    2.498832   2.846174   3.866742   3.135353   4.312526
    23  C    5.956620   4.408747   4.956047   4.209666   2.510487
    24  H    6.874391   5.453217   6.004432   5.288889   3.459183
    25  H    6.372617   4.567088   5.027823   4.140930   2.797280
    26  H    5.429295   4.048213   4.800824   3.821770   2.764303
    27  C    2.749995   1.528604   2.136691   2.141459   1.539434
    28  H    3.057182   2.178999   3.060919   2.531662   2.200341
    29  O    2.659554   2.480658   2.734532   3.401594   2.342429
    30  O    3.431387   2.972862   2.679920   3.862754   2.386688
                   11         12         13         14         15
    11  H    0.000000
    12  H    1.970263   0.000000
    13  C    2.200616   2.339676   0.000000
    14  H    3.071005   2.559400   1.096478   0.000000
    15  C    2.811879   2.878223   1.536020   2.152257   0.000000
    16  H    2.636423   3.276503   2.182819   3.071943   1.095279
    17  H    3.820925   3.868978   2.178397   2.504805   1.093386
    18  H    3.150891   2.596574   2.184330   2.493182   1.092863
    19  C    4.906792   5.052857   5.540682   5.537042   6.972066
    20  H    4.899894   5.457393   5.696145   5.861220   7.107978
    21  H    5.966918   5.977250   6.565768   6.476937   8.004333
    22  H    4.825562   4.839889   5.013010   4.858964   6.510311
    23  C    2.851673   3.696113   1.545431   2.153316   2.534673
    24  H    3.857648   4.503713   2.179318   2.483202   2.771456
    25  H    2.701794   4.056253   2.188713   3.071798   2.791021
    26  H    3.191980   3.993067   2.201998   2.515494   3.498778
    27  C    2.238938   1.998810   2.627784   2.732972   3.923421
    28  H    2.932101   2.924611   2.770985   2.705644   4.261330
    29  O    3.239791   1.943774   3.143479   2.809198   4.241363
    30  O    3.068382   1.230695   3.312247   3.181964   3.933739
                   16         17         18         19         20
    16  H    0.000000
    17  H    1.767470   0.000000
    18  H    1.770478   1.768031   0.000000
    19  C    7.256937   7.715238   7.265358   0.000000
    20  H    7.258619   7.839061   7.529066   1.096184   0.000000
    21  H    8.324965   8.734524   8.252289   1.093670   1.766728
    22  H    6.921060   7.145223   6.843214   1.093240   1.770276
    23  C    2.811729   2.759736   3.494266   5.572864   5.483767
    24  H    3.159028   2.546066   3.765528   6.458443   6.387847
    25  H    2.623446   3.103444   3.809405   5.900439   5.640860
    26  H    3.819606   3.771059   4.352265   4.752361   4.632025
    27  C    4.307993   4.762617   4.106768   3.168340   3.559062
    28  H    4.725380   4.919242   4.624580   2.844743   3.189039
    29  O    4.860723   5.017500   4.101626   3.790059   4.490610
    30  O    4.454082   4.829920   3.488221   4.885902   5.509000
                   21         22         23         24         25
    21  H    0.000000
    22  H    1.759339   0.000000
    23  C    6.611363   4.993418   0.000000
    24  H    7.456422   5.771792   1.093841   0.000000
    25  H    6.972232   5.485808   1.094623   1.769773   0.000000
    26  H    5.752635   4.108336   1.093018   1.765804   1.770560
    27  C    4.154887   2.887143   3.297626   4.246190   3.749970
    28  H    3.825838   2.250726   3.013281   3.865986   3.616324
    29  O    4.555354   3.409077   4.180012   4.943762   4.826550
    30  O    5.656979   4.693950   4.652405   5.417281   5.142042
                   26         27         28         29         30
    26  H    0.000000
    27  C    3.013473   0.000000
    28  H    2.411444   1.094620   0.000000
    29  O    3.997760   1.448177   2.012640   0.000000
    30  O    4.771604   2.259438   3.162651   1.424510   0.000000
 Stoichiometry    C9H19O2(2)
 Framework group  C1[X(C9H19O2)]
 Deg. of freedom    84
 Full point group                 C1      NOp   1
 Largest Abelian subgroup         C1      NOp   1
 Largest concise Abelian subgroup C1      NOp   1
                         Standard orientation:                         
 ---------------------------------------------------------------------
 Center     Atomic      Atomic             Coordinates (Angstroms)
 Number     Number       Type             X           Y           Z
 ---------------------------------------------------------------------
      1          6           0        3.777069   -0.192117    0.941251
      2          1           0        3.661376   -1.158932    1.439521
      3          1           0        3.802324    0.582796    1.715891
      4          1           0        4.748528   -0.188944    0.438571
      5          6           0        2.638248    0.061760   -0.056187
      6          1           0        2.647622   -0.747416   -0.795216
      7          6           0        1.279791    0.003089    0.666585
      8          1           0        1.236550   -0.899615    1.284682
      9          1           0        1.192336    0.858613    1.349959
     10          6           0       -1.268635   -0.144361    0.514133
     11          1           0       -1.213010    0.033994    1.590386
     12          1           0       -1.148770   -1.479729    0.330841
     13          6           0       -2.545286    0.338898   -0.134371
     14          1           0       -2.506368    0.062920   -1.194836
     15          6           0       -3.779049   -0.322981    0.497374
     16          1           0       -3.846445   -0.088936    1.565230
     17          1           0       -4.696456    0.032387    0.020331
     18          1           0       -3.743710   -1.410090    0.391097
     19          6           0        2.854375    1.390307   -0.795699
     20          1           0        2.825742    2.235424   -0.098148
     21          1           0        3.829527    1.403799   -1.290684
     22          1           0        2.099522    1.565206   -1.566919
     23          6           0       -2.646142    1.878471   -0.045485
     24          1           0       -3.545280    2.227571   -0.561400
     25          1           0       -2.707622    2.205219    0.997422
     26          1           0       -1.786321    2.372414   -0.505286
     27          6           0        0.058256    0.002901   -0.252373
     28          1           0        0.059188    0.875016   -0.913892
     29          8           0        0.040570   -1.121889   -1.164377
     30          8           0       -0.430631   -2.200299   -0.361738
 ---------------------------------------------------------------------
 Rotational constants (GHZ):      1.8241189      0.5177115      0.4595492
 Leave Link  202 at Mon Feb 17 18:55:34 2014, MaxMem= 4026531840 cpu:       0.5
 (Enter /usr/caen/gaussian-09revc/g09/l301.exe)
 Standard basis: 6-311G(2d,d,p) (5D, 7F)
 Ernie: Thresh=  0.10000D-02 Tol=  0.10000D-05 Strict=F.
 There are   312 symmetry adapted basis functions of A   symmetry.
 Integral buffers will be    131072 words long.
 Raffenetti 2 integral format.
 Two-electron integral symmetry is turned on.
   312 basis functions,   504 primitive gaussians,   323 cartesian basis functions
    45 alpha electrons       44 beta electrons
       nuclear repulsion energy       670.9421489032 Hartrees.
 IExCor=  402 DFT=T Ex+Corr=B3LYP ExCW=0 ScaHFX=  0.200000
 ScaDFX=  0.800000  0.720000  1.000000  0.810000 ScalE2=  1.000000  1.000000
 IRadAn=      0 IRanWt=     -1 IRanGd=            0 ICorTp=0
 NAtoms=   30 NActive=   30 NUniq=   30 SFac= 1.00D+00 NAtFMM=   60 NAOKFM=F Big=F
 Leave Link  301 at Mon Feb 17 18:55:34 2014, MaxMem= 4026531840 cpu:       0.6
 (Enter /usr/caen/gaussian-09revc/g09/l302.exe)
 NPDir=0 NMtPBC=     1 NCelOv=     1 NCel=       1 NClECP=     1 NCelD=      1
         NCelK=      1 NCelE2=     1 NClLst=     1 CellRange=     0.0.
 One-electron integrals computed using PRISM.
 NBasis=   312 RedAO= T  NBF=   312
 NBsUse=   312 1.00D-06 NBFU=   312
 Precomputing XC quadrature grid using
 IXCGrd= 2 IRadAn=           0 IRanWt=          -1 IRanGd=           0 AccXCQ= 0.00D+00.
 NRdTot=    1911 NPtTot=      243698 NUsed=      257478 NTot=      257510
 NSgBfM=   323   323   323   323   323 NAtAll=    30    30.
 Leave Link  302 at Mon Feb 17 18:55:36 2014, MaxMem= 4026531840 cpu:       6.7
 (Enter /usr/caen/gaussian-09revc/g09/l303.exe)
 DipDrv:  MaxL=1.
 Leave Link  303 at Mon Feb 17 18:55:36 2014, MaxMem= 4026531840 cpu:       2.3
 (Enter /usr/caen/gaussian-09revc/g09/l401.exe)
 Harris functional with IExCor=  402 diagonalized for initial guess.
 ExpMin= 1.03D-01 ExpMax= 8.59D+03 ExpMxC= 1.30D+03 IAcc=1 IRadAn=         1 AccDes= 0.00D+00
 HarFok:  IExCor=  402 AccDes= 0.00D+00 IRadAn=         1 IDoV= 1
 ScaDFX=  1.000000  1.000000  1.000000  1.000000
 FoFCou: FMM=F IPFlag=           0 FMFlag=      100000 FMFlg1=           0
         NFxFlg=           0 DoJE=T BraDBF=F KetDBF=T FulRan=T
         Omega=  0.000000  0.000000  1.000000  0.000000  0.000000 ICntrl=     500 IOpCl=  0
         NMat0=    1 NMatS0=    1 NMatT0=    0 NMatD0=    1 NMtDS0=    0 NMtDT0=    0
         I1Cent=           4 NGrid=           0.
 Petite list used in FoFCou.
 Harris En= -504.884340545242    
 Initial guess orbital symmetries:
 Alpha Orbitals:
       Occupied  (A) (A) (A) (A) (A) (A) (A) (A) (A) (A) (A) (A)
                 (A) (A) (A) (A) (A) (A) (A) (A) (A) (A) (A) (A)
                 (A) (A) (A) (A) (A) (A) (A) (A) (A) (A) (A) (A)
                 (A) (A) (A) (A) (A) (A) (A) (A) (A)
       Virtual   (A) (A) (A) (A) (A) (A) (A) (A) (A) (A) (A) (A)
                 (A) (A) (A) (A) (A) (A) (A) (A) (A) (A) (A) (A)
                 (A) (A) (A) (A) (A) (A) (A) (A) (A) (A) (A) (A)
                 (A) (A) (A) (A) (A) (A) (A) (A) (A) (A) (A) (A)
                 (A) (A) (A) (A) (A) (A) (A) (A) (A) (A) (A) (A)
                 (A) (A) (A) (A) (A) (A) (A) (A) (A) (A) (A) (A)
                 (A) (A) (A) (A) (A) (A) (A) (A) (A) (A) (A) (A)
                 (A) (A) (A) (A) (A) (A) (A) (A) (A) (A) (A) (A)
                 (A) (A) (A) (A) (A) (A) (A) (A) (A) (A) (A) (A)
                 (A) (A) (A) (A) (A) (A) (A) (A) (A) (A) (A) (A)
                 (A) (A) (A) (A) (A) (A) (A) (A) (A) (A) (A) (A)
                 (A) (A) (A) (A) (A) (A) (A) (A) (A) (A) (A) (A)
                 (A) (A) (A) (A) (A) (A) (A) (A) (A) (A) (A) (A)
                 (A) (A) (A) (A) (A) (A) (A) (A) (A) (A) (A) (A)
                 (A) (A) (A) (A) (A) (A) (A) (A) (A) (A) (A) (A)
                 (A) (A) (A) (A) (A) (A) (A) (A) (A) (A) (A) (A)
                 (A) (A) (A) (A) (A) (A) (A) (A) (A) (A) (A) (A)
                 (A) (A) (A) (A) (A) (A) (A) (A) (A) (A) (A) (A)
                 (A) (A) (A) (A) (A) (A) (A) (A) (A) (A) (A) (A)
                 (A) (A) (A) (A) (A) (A) (A) (A) (A) (A) (A) (A)
                 (A) (A) (A) (A) (A) (A) (A) (A) (A) (A) (A) (A)
                 (A) (A) (A) (A) (A) (A) (A) (A) (A) (A) (A) (A)
                 (A) (A) (A)
 Beta  Orbitals:
       Occupied  (A) (A) (A) (A) (A) (A) (A) (A) (A) (A) (A) (A)
                 (A) (A) (A) (A) (A) (A) (A) (A) (A) (A) (A) (A)
                 (A) (A) (A) (A) (A) (A) (A) (A) (A) (A) (A) (A)
                 (A) (A) (A) (A) (A) (A) (A) (A)
       Virtual   (A) (A) (A) (A) (A) (A) (A) (A) (A) (A) (A) (A)
                 (A) (A) (A) (A) (A) (A) (A) (A) (A) (A) (A) (A)
                 (A) (A) (A) (A) (A) (A) (A) (A) (A) (A) (A) (A)
                 (A) (A) (A) (A) (A) (A) (A) (A) (A) (A) (A) (A)
                 (A) (A) (A) (A) (A) (A) (A) (A) (A) (A) (A) (A)
                 (A) (A) (A) (A) (A) (A) (A) (A) (A) (A) (A) (A)
                 (A) (A) (A) (A) (A) (A) (A) (A) (A) (A) (A) (A)
                 (A) (A) (A) (A) (A) (A) (A) (A) (A) (A) (A) (A)
                 (A) (A) (A) (A) (A) (A) (A) (A) (A) (A) (A) (A)
                 (A) (A) (A) (A) (A) (A) (A) (A) (A) (A) (A) (A)
                 (A) (A) (A) (A) (A) (A) (A) (A) (A) (A) (A) (A)
                 (A) (A) (A) (A) (A) (A) (A) (A) (A) (A) (A) (A)
                 (A) (A) (A) (A) (A) (A) (A) (A) (A) (A) (A) (A)
                 (A) (A) (A) (A) (A) (A) (A) (A) (A) (A) (A) (A)
                 (A) (A) (A) (A) (A) (A) (A) (A) (A) (A) (A) (A)
                 (A) (A) (A) (A) (A) (A) (A) (A) (A) (A) (A) (A)
                 (A) (A) (A) (A) (A) (A) (A) (A) (A) (A) (A) (A)
                 (A) (A) (A) (A) (A) (A) (A) (A) (A) (A) (A) (A)
                 (A) (A) (A) (A) (A) (A) (A) (A) (A) (A) (A) (A)
                 (A) (A) (A) (A) (A) (A) (A) (A) (A) (A) (A) (A)
                 (A) (A) (A) (A) (A) (A) (A) (A) (A) (A) (A) (A)
                 (A) (A) (A) (A) (A) (A) (A) (A) (A) (A) (A) (A)
                 (A) (A) (A) (A)
 The electronic state of the initial guess is 2-A.
 Initial guess <Sx>= 0.0000 <Sy>= 0.0000 <Sz>= 0.5000 <S**2>= 0.7500 S= 0.5000
 Leave Link  401 at Mon Feb 17 18:55:39 2014, MaxMem= 4026531840 cpu:      15.0
 (Enter /usr/caen/gaussian-09revc/g09/l502.exe)
 UHF open shell SCF:
 Requested convergence on RMS density matrix=1.00D-08 within 128 cycles.
 Requested convergence on MAX density matrix=1.00D-06.
 Requested convergence on             energy=1.00D-06.
 No special actions if energy rises.
 Using DIIS extrapolation, IDIIS=  1040.
 Integral symmetry usage will be decided dynamically.
       257195 words used for storage of precomputed grid.
 Keep R1 and R2 ints in memory in canonical form, NReq=2755661926.
 IEnd=      593353 IEndB=      593353 NGot=  4026531840 MDV=  1287997150
 LenX=  1287997150 LenY=  1287892380
 Symmetry not used in FoFDir.
 MinBra= 0 MaxBra= 2 Meth= 1.
 IRaf=       0 NMat=   1 IRICut=       1 DoRegI=T DoRafI=F ISym2E= 0 JSym2E=0.
 Integral accuracy reduced to 1.0D-05 until final iterations.

 Cycle   1  Pass 0  IDiag  1:
 E= -504.407269170092    
 DIIS: error= 3.18D-02 at cycle   1 NSaved=   1.
 NSaved= 1 IEnMin= 1 EnMin= -504.407269170092     IErMin= 1 ErrMin= 3.18D-02
 ErrMax= 3.18D-02 EMaxC= 1.00D-01 BMatC= 1.62D+00 BMatP= 1.62D+00
 IDIUse=3 WtCom= 6.82D-01 WtEn= 3.18D-01
 Coeff-Com:  0.100D+01
 Coeff-En:   0.100D+01
 Coeff:      0.100D+01
 Gap=     0.235 Goal=   None    Shift=    0.000
 Gap=     0.059 Goal=   None    Shift=    0.000
 GapD=    0.059 DampG=0.500 DampE=0.500 DampFc=0.2500 IDamp=-1.
 Damping current iteration by 2.50D-01
 RMSDP=3.61D-03 MaxDP=1.25D-01              OVMax= 3.93D-01

 Cycle   2  Pass 0  IDiag  1:
 E= -504.556639366252     Delta-E=       -0.149370196160 Rises=F Damp=T
 DIIS: error= 1.39D-02 at cycle   2 NSaved=   2.
 NSaved= 2 IEnMin= 2 EnMin= -504.556639366252     IErMin= 2 ErrMin= 1.39D-02
 ErrMax= 1.39D-02 EMaxC= 1.00D-01 BMatC= 3.81D-01 BMatP= 1.62D+00
 IDIUse=3 WtCom= 8.61D-01 WtEn= 1.39D-01
 Coeff-Com: -0.699D+00 0.170D+01
 Coeff-En:   0.000D+00 0.100D+01
 Coeff:     -0.601D+00 0.160D+01
 Gap=     0.309 Goal=   None    Shift=    0.000
 Gap=     0.163 Goal=   None    Shift=    0.000
 RMSDP=1.09D-03 MaxDP=3.82D-02 DE=-1.49D-01 OVMax= 4.44D-01

 Cycle   3  Pass 0  IDiag  1:
 E= -504.784584603422     Delta-E=       -0.227945237170 Rises=F Damp=F
 DIIS: error= 1.13D-02 at cycle   3 NSaved=   3.
 NSaved= 3 IEnMin= 3 EnMin= -504.784584603422     IErMin= 3 ErrMin= 1.13D-02
 ErrMax= 1.13D-02 EMaxC= 1.00D-01 BMatC= 1.36D-01 BMatP= 3.81D-01
 IDIUse=3 WtCom= 8.87D-01 WtEn= 1.13D-01
 Coeff-Com: -0.388D+00 0.892D+00 0.496D+00
 Coeff-En:   0.000D+00 0.000D+00 0.100D+01
 Coeff:     -0.344D+00 0.791D+00 0.553D+00
 Gap=     0.289 Goal=   None    Shift=    0.000
 Gap=     0.086 Goal=   None    Shift=    0.000
 RMSDP=8.69D-04 MaxDP=4.15D-02 DE=-2.28D-01 OVMax= 2.77D-01

 Cycle   4  Pass 0  IDiag  1:
 E= -504.802824667667     Delta-E=       -0.018240064245 Rises=F Damp=F
 DIIS: error= 6.13D-03 at cycle   4 NSaved=   4.
 NSaved= 4 IEnMin= 4 EnMin= -504.802824667667     IErMin= 4 ErrMin= 6.13D-03
 ErrMax= 6.13D-03 EMaxC= 1.00D-01 BMatC= 6.71D-02 BMatP= 1.36D-01
 IDIUse=3 WtCom= 9.39D-01 WtEn= 6.13D-02
 Coeff-Com: -0.596D-01 0.158D+00 0.404D+00 0.497D+00
 Coeff-En:   0.000D+00 0.000D+00 0.332D+00 0.668D+00
 Coeff:     -0.559D-01 0.148D+00 0.400D+00 0.508D+00
 Gap=     0.268 Goal=   None    Shift=    0.000
 Gap=     0.094 Goal=   None    Shift=    0.000
 RMSDP=2.95D-04 MaxDP=1.21D-02 DE=-1.82D-02 OVMax= 4.52D-02

 Cycle   5  Pass 0  IDiag  1:
 E= -504.816701979681     Delta-E=       -0.013877312014 Rises=F Damp=F
 DIIS: error= 9.61D-04 at cycle   5 NSaved=   5.
 NSaved= 5 IEnMin= 5 EnMin= -504.816701979681     IErMin= 5 ErrMin= 9.61D-04
 ErrMax= 9.61D-04 EMaxC= 1.00D-01 BMatC= 2.01D-03 BMatP= 6.71D-02
 IDIUse=3 WtCom= 9.90D-01 WtEn= 9.61D-03
 Coeff-Com:  0.792D-02 0.242D-03 0.161D+00 0.185D+00 0.645D+00
 Coeff-En:   0.000D+00 0.000D+00 0.000D+00 0.000D+00 0.100D+01
 Coeff:      0.784D-02 0.239D-03 0.160D+00 0.183D+00 0.649D+00
 Gap=     0.268 Goal=   None    Shift=    0.000
 Gap=     0.100 Goal=   None    Shift=    0.000
 RMSDP=1.16D-04 MaxDP=4.08D-03 DE=-1.39D-02 OVMax= 3.82D-02

 Cycle   6  Pass 0  IDiag  1:
 E= -504.817465896268     Delta-E=       -0.000763916587 Rises=F Damp=F
 DIIS: error= 1.10D-03 at cycle   6 NSaved=   6.
 NSaved= 6 IEnMin= 6 EnMin= -504.817465896268     IErMin= 5 ErrMin= 9.61D-04
 ErrMax= 1.10D-03 EMaxC= 1.00D-01 BMatC= 1.48D-03 BMatP= 2.01D-03
 IDIUse=3 WtCom= 9.90D-01 WtEn= 9.61D-03
 Coeff-Com:  0.229D-01-0.377D-01 0.200D-01-0.391D-01 0.409D+00 0.625D+00
 Coeff-En:   0.000D+00 0.000D+00 0.000D+00 0.000D+00 0.000D+00 0.100D+01
 Coeff:      0.227D-01-0.374D-01 0.198D-01-0.387D-01 0.406D+00 0.628D+00
 Gap=     0.271 Goal=   None    Shift=    0.000
 Gap=     0.103 Goal=   None    Shift=    0.000
 RMSDP=8.81D-05 MaxDP=3.63D-03 DE=-7.64D-04 OVMax= 3.20D-02

 Cycle   7  Pass 0  IDiag  1:
 E= -504.817990393835     Delta-E=       -0.000524497567 Rises=F Damp=F
 DIIS: error= 6.48D-04 at cycle   7 NSaved=   7.
 NSaved= 7 IEnMin= 7 EnMin= -504.817990393835     IErMin= 7 ErrMin= 6.48D-04
 ErrMax= 6.48D-04 EMaxC= 1.00D-01 BMatC= 5.71D-04 BMatP= 1.48D-03
 IDIUse=3 WtCom= 9.94D-01 WtEn= 6.48D-03
 Coeff-Com:  0.145D-01-0.243D-01-0.291D-01-0.112D+00 0.931D-01 0.445D+00
 Coeff-Com:  0.614D+00
 Coeff-En:   0.000D+00 0.000D+00 0.000D+00 0.000D+00 0.000D+00 0.000D+00
 Coeff-En:   0.100D+01
 Coeff:      0.144D-01-0.241D-01-0.289D-01-0.112D+00 0.925D-01 0.442D+00
 Coeff:      0.616D+00
 Gap=     0.273 Goal=   None    Shift=    0.000
 Gap=     0.105 Goal=   None    Shift=    0.000
 RMSDP=7.41D-05 MaxDP=3.05D-03 DE=-5.24D-04 OVMax= 2.75D-02

 Cycle   8  Pass 0  IDiag  1:
 E= -504.818316022954     Delta-E=       -0.000325629119 Rises=F Damp=F
 DIIS: error= 4.37D-04 at cycle   8 NSaved=   8.
 NSaved= 8 IEnMin= 8 EnMin= -504.818316022954     IErMin= 8 ErrMin= 4.37D-04
 ErrMax= 4.37D-04 EMaxC= 1.00D-01 BMatC= 2.01D-04 BMatP= 5.71D-04
 IDIUse=3 WtCom= 9.96D-01 WtEn= 4.37D-03
 Coeff-Com: -0.275D-02 0.790D-02-0.151D-01-0.578D-01-0.164D+00-0.150D+00
 Coeff-Com:  0.390D+00 0.992D+00
 Coeff-En:   0.000D+00 0.000D+00 0.000D+00 0.000D+00 0.000D+00 0.000D+00
 Coeff-En:   0.000D+00 0.100D+01
 Coeff:     -0.274D-02 0.786D-02-0.151D-01-0.575D-01-0.164D+00-0.149D+00
 Coeff:      0.389D+00 0.992D+00
 Gap=     0.275 Goal=   None    Shift=    0.000
 Gap=     0.106 Goal=   None    Shift=    0.000
 RMSDP=9.55D-05 MaxDP=4.27D-03 DE=-3.26D-04 OVMax= 3.92D-02

 Cycle   9  Pass 0  IDiag  1:
 E= -504.818554033801     Delta-E=       -0.000238010847 Rises=F Damp=F
 DIIS: error= 2.04D-04 at cycle   9 NSaved=   9.
 NSaved= 9 IEnMin= 9 EnMin= -504.818554033801     IErMin= 9 ErrMin= 2.04D-04
 ErrMax= 2.04D-04 EMaxC= 1.00D-01 BMatC= 3.47D-05 BMatP= 2.01D-04
 IDIUse=3 WtCom= 9.98D-01 WtEn= 2.04D-03
 Coeff-Com: -0.111D-02 0.307D-02 0.168D-01 0.267D-01 0.518D-02-0.107D+00
 Coeff-Com: -0.217D+00-0.470D-01 0.132D+01
 Coeff-En:   0.000D+00 0.000D+00 0.000D+00 0.000D+00 0.000D+00 0.000D+00
 Coeff-En:   0.000D+00 0.000D+00 0.100D+01
 Coeff:     -0.111D-02 0.306D-02 0.167D-01 0.267D-01 0.517D-02-0.107D+00
 Coeff:     -0.217D+00-0.469D-01 0.132D+01
 Gap=     0.273 Goal=   None    Shift=    0.000
 Gap=     0.106 Goal=   None    Shift=    0.000
 RMSDP=6.12D-05 MaxDP=3.14D-03 DE=-2.38D-04 OVMax= 2.55D-02

 Cycle  10  Pass 0  IDiag  1:
 E= -504.818625529545     Delta-E=       -0.000071495744 Rises=F Damp=F
 DIIS: error= 9.73D-05 at cycle  10 NSaved=  10.
 NSaved=10 IEnMin=10 EnMin= -504.818625529545     IErMin=10 ErrMin= 9.73D-05
 ErrMax= 9.73D-05 EMaxC= 1.00D-01 BMatC= 1.09D-05 BMatP= 3.47D-05
 IDIUse=1 WtCom= 1.00D+00 WtEn= 0.00D+00
 Coeff-Com:  0.120D-02-0.197D-02 0.120D-01 0.227D-01 0.505D-01 0.316D-02
 Coeff-Com: -0.221D+00-0.292D+00 0.515D+00 0.910D+00
 Coeff:      0.120D-02-0.197D-02 0.120D-01 0.227D-01 0.505D-01 0.316D-02
 Coeff:     -0.221D+00-0.292D+00 0.515D+00 0.910D+00
 Gap=     0.272 Goal=   None    Shift=    0.000
 Gap=     0.106 Goal=   None    Shift=    0.000
 RMSDP=3.16D-05 MaxDP=1.71D-03 DE=-7.15D-05 OVMax= 1.30D-02

 Cycle  11  Pass 0  IDiag  1:
 E= -504.818641376648     Delta-E=       -0.000015847103 Rises=F Damp=F
 DIIS: error= 3.61D-05 at cycle  11 NSaved=  11.
 NSaved=11 IEnMin=11 EnMin= -504.818641376648     IErMin=11 ErrMin= 3.61D-05
 ErrMax= 3.61D-05 EMaxC= 1.00D-01 BMatC= 1.91D-06 BMatP= 1.09D-05
 IDIUse=1 WtCom= 1.00D+00 WtEn= 0.00D+00
 Coeff-Com:  0.101D-02-0.169D-02 0.169D-02 0.177D-02 0.215D-01 0.285D-01
 Coeff-Com: -0.453D-01-0.986D-01-0.114D+00 0.375D+00 0.830D+00
 Coeff:      0.101D-02-0.169D-02 0.169D-02 0.177D-02 0.215D-01 0.285D-01
 Coeff:     -0.453D-01-0.986D-01-0.114D+00 0.375D+00 0.830D+00
 Gap=     0.271 Goal=   None    Shift=    0.000
 Gap=     0.106 Goal=   None    Shift=    0.000
 RMSDP=1.06D-05 MaxDP=6.13D-04 DE=-1.58D-05 OVMax= 4.33D-03

 Cycle  12  Pass 0  IDiag  1:
 E= -504.818643149402     Delta-E=       -0.000001772753 Rises=F Damp=F
 DIIS: error= 1.43D-05 at cycle  12 NSaved=  12.
 NSaved=12 IEnMin=12 EnMin= -504.818643149402     IErMin=12 ErrMin= 1.43D-05
 ErrMax= 1.43D-05 EMaxC= 1.00D-01 BMatC= 2.93D-07 BMatP= 1.91D-06
 IDIUse=1 WtCom= 1.00D+00 WtEn= 0.00D+00
 Coeff-Com:  0.255D-03-0.371D-03-0.101D-02-0.302D-02 0.139D-02 0.107D-01
 Coeff-Com:  0.110D-01 0.400D-02-0.132D+00 0.309D-01 0.374D+00 0.704D+00
 Coeff:      0.255D-03-0.371D-03-0.101D-02-0.302D-02 0.139D-02 0.107D-01
 Coeff:      0.110D-01 0.400D-02-0.132D+00 0.309D-01 0.374D+00 0.704D+00
 Gap=     0.271 Goal=   None    Shift=    0.000
 Gap=     0.106 Goal=   None    Shift=    0.000
 RMSDP=3.11D-06 MaxDP=1.71D-04 DE=-1.77D-06 OVMax= 1.18D-03

 Initial convergence to 1.0D-05 achieved.  Increase integral accuracy.
 Cycle  13  Pass 1  IDiag  1:
 E= -504.818646925680     Delta-E=       -0.000003776278 Rises=F Damp=F
 DIIS: error= 1.37D-05 at cycle   1 NSaved=   1.
 NSaved= 1 IEnMin= 1 EnMin= -504.818646925680     IErMin= 1 ErrMin= 1.37D-05
 ErrMax= 1.37D-05 EMaxC= 1.00D-01 BMatC= 5.95D-07 BMatP= 5.95D-07
 IDIUse=1 WtCom= 1.00D+00 WtEn= 0.00D+00
 Coeff-Com:  0.100D+01
 Coeff:      0.100D+01
 Gap=     0.271 Goal=   None    Shift=    0.000
 Gap=     0.106 Goal=   None    Shift=    0.000
 RMSDP=3.11D-06 MaxDP=1.71D-04 DE=-3.78D-06 OVMax= 1.58D-04

 Cycle  14  Pass 1  IDiag  1:
 E= -504.818647115469     Delta-E=       -0.000000189789 Rises=F Damp=F
 DIIS: error= 5.62D-06 at cycle   2 NSaved=   2.
 NSaved= 2 IEnMin= 2 EnMin= -504.818647115469     IErMin= 2 ErrMin= 5.62D-06
 ErrMax= 5.62D-06 EMaxC= 1.00D-01 BMatC= 4.56D-08 BMatP= 5.95D-07
 IDIUse=1 WtCom= 1.00D+00 WtEn= 0.00D+00
 Coeff-Com:  0.745D-01 0.926D+00
 Coeff:      0.745D-01 0.926D+00
 Gap=     0.271 Goal=   None    Shift=    0.000
 Gap=     0.106 Goal=   None    Shift=    0.000
 RMSDP=6.82D-07 MaxDP=2.05D-05 DE=-1.90D-07 OVMax= 6.69D-05

 Cycle  15  Pass 1  IDiag  1:
 E= -504.818647115532     Delta-E=       -0.000000000063 Rises=F Damp=F
 DIIS: error= 7.17D-06 at cycle   3 NSaved=   3.
 NSaved= 3 IEnMin= 3 EnMin= -504.818647115532     IErMin= 2 ErrMin= 5.62D-06
 ErrMax= 7.17D-06 EMaxC= 1.00D-01 BMatC= 5.83D-08 BMatP= 4.56D-08
 IDIUse=1 WtCom= 1.00D+00 WtEn= 0.00D+00
 Coeff-Com: -0.256D-01 0.541D+00 0.485D+00
 Coeff:     -0.256D-01 0.541D+00 0.485D+00
 Gap=     0.271 Goal=   None    Shift=    0.000
 Gap=     0.106 Goal=   None    Shift=    0.000
 RMSDP=3.59D-07 MaxDP=1.41D-05 DE=-6.30D-11 OVMax= 5.67D-05

 Cycle  16  Pass 1  IDiag  1:
 E= -504.818647130243     Delta-E=       -0.000000014711 Rises=F Damp=F
 DIIS: error= 1.48D-06 at cycle   4 NSaved=   4.
 NSaved= 4 IEnMin= 4 EnMin= -504.818647130243     IErMin= 4 ErrMin= 1.48D-06
 ErrMax= 1.48D-06 EMaxC= 1.00D-01 BMatC= 1.40D-09 BMatP= 4.56D-08
 IDIUse=1 WtCom= 1.00D+00 WtEn= 0.00D+00
 Coeff-Com: -0.123D-01 0.175D+00 0.190D+00 0.647D+00
 Coeff:     -0.123D-01 0.175D+00 0.190D+00 0.647D+00
 Gap=     0.271 Goal=   None    Shift=    0.000
 Gap=     0.106 Goal=   None    Shift=    0.000
 RMSDP=1.08D-07 MaxDP=6.86D-06 DE=-1.47D-08 OVMax= 3.63D-05

 Cycle  17  Pass 1  IDiag  1:
 E= -504.818647131032     Delta-E=       -0.000000000789 Rises=F Damp=F
 DIIS: error= 1.06D-06 at cycle   5 NSaved=   5.
 NSaved= 5 IEnMin= 5 EnMin= -504.818647131032     IErMin= 5 ErrMin= 1.06D-06
 ErrMax= 1.06D-06 EMaxC= 1.00D-01 BMatC= 7.42D-10 BMatP= 1.40D-09
 IDIUse=1 WtCom= 1.00D+00 WtEn= 0.00D+00
 Coeff-Com: -0.233D-02-0.839D-02 0.166D-01 0.390D+00 0.604D+00
 Coeff:     -0.233D-02-0.839D-02 0.166D-01 0.390D+00 0.604D+00
 Gap=     0.271 Goal=   None    Shift=    0.000
 Gap=     0.106 Goal=   None    Shift=    0.000
 RMSDP=9.64D-08 MaxDP=4.95D-06 DE=-7.89D-10 OVMax= 3.74D-05

 Cycle  18  Pass 1  IDiag  1:
 E= -504.818647131562     Delta-E=       -0.000000000530 Rises=F Damp=F
 DIIS: error= 8.28D-07 at cycle   6 NSaved=   6.
 NSaved= 6 IEnMin= 6 EnMin= -504.818647131562     IErMin= 6 ErrMin= 8.28D-07
 ErrMax= 8.28D-07 EMaxC= 1.00D-01 BMatC= 3.98D-10 BMatP= 7.42D-10
 IDIUse=1 WtCom= 1.00D+00 WtEn= 0.00D+00
 Coeff-Com:  0.582D-02-0.113D+00-0.102D+00-0.148D+00 0.508D+00 0.849D+00
 Coeff:      0.582D-02-0.113D+00-0.102D+00-0.148D+00 0.508D+00 0.849D+00
 Gap=     0.271 Goal=   None    Shift=    0.000
 Gap=     0.106 Goal=   None    Shift=    0.000
 RMSDP=1.32D-07 MaxDP=8.06D-06 DE=-5.30D-10 OVMax= 5.44D-05

 Cycle  19  Pass 1  IDiag  1:
 E= -504.818647132088     Delta-E=       -0.000000000526 Rises=F Damp=F
 DIIS: error= 3.37D-07 at cycle   7 NSaved=   7.
 NSaved= 7 IEnMin= 7 EnMin= -504.818647132088     IErMin= 7 ErrMin= 3.37D-07
 ErrMax= 3.37D-07 EMaxC= 1.00D-01 BMatC= 6.74D-11 BMatP= 3.98D-10
 IDIUse=1 WtCom= 1.00D+00 WtEn= 0.00D+00
 Coeff-Com:  0.277D-02-0.369D-01-0.385D-01-0.206D+00-0.344D-01 0.252D+00
 Coeff-Com:  0.106D+01
 Coeff:      0.277D-02-0.369D-01-0.385D-01-0.206D+00-0.344D-01 0.252D+00
 Coeff:      0.106D+01
 Gap=     0.271 Goal=   None    Shift=    0.000
 Gap=     0.106 Goal=   None    Shift=    0.000
 RMSDP=1.03D-07 MaxDP=5.63D-06 DE=-5.26D-10 OVMax= 4.27D-05

 Cycle  20  Pass 1  IDiag  1:
 E= -504.818647132280     Delta-E=       -0.000000000192 Rises=F Damp=F
 DIIS: error= 1.45D-07 at cycle   8 NSaved=   8.
 NSaved= 8 IEnMin= 8 EnMin= -504.818647132280     IErMin= 8 ErrMin= 1.45D-07
 ErrMax= 1.45D-07 EMaxC= 1.00D-01 BMatC= 2.16D-11 BMatP= 6.74D-11
 IDIUse=1 WtCom= 1.00D+00 WtEn= 0.00D+00
 Coeff-Com: -0.154D-03 0.113D-01 0.946D-02-0.567D-01-0.111D+00-0.111D+00
 Coeff-Com:  0.475D+00 0.784D+00
 Coeff:     -0.154D-03 0.113D-01 0.946D-02-0.567D-01-0.111D+00-0.111D+00
 Coeff:      0.475D+00 0.784D+00
 Gap=     0.271 Goal=   None    Shift=    0.000
 Gap=     0.106 Goal=   None    Shift=    0.000
 RMSDP=3.86D-08 MaxDP=2.07D-06 DE=-1.92D-10 OVMax= 1.67D-05

 Cycle  21  Pass 1  IDiag  1:
 E= -504.818647132319     Delta-E=       -0.000000000039 Rises=F Damp=F
 DIIS: error= 8.59D-08 at cycle   9 NSaved=   9.
 NSaved= 9 IEnMin= 9 EnMin= -504.818647132319     IErMin= 9 ErrMin= 8.59D-08
 ErrMax= 8.59D-08 EMaxC= 1.00D-01 BMatC= 7.87D-12 BMatP= 2.16D-11
 IDIUse=1 WtCom= 1.00D+00 WtEn= 0.00D+00
 Coeff-Com: -0.829D-03 0.153D-01 0.152D-01 0.262D-01-0.325D-01-0.140D+00
 Coeff-Com: -0.111D+00 0.336D+00 0.892D+00
 Coeff:     -0.829D-03 0.153D-01 0.152D-01 0.262D-01-0.325D-01-0.140D+00
 Coeff:     -0.111D+00 0.336D+00 0.892D+00
 Gap=     0.271 Goal=   None    Shift=    0.000
 Gap=     0.106 Goal=   None    Shift=    0.000
 RMSDP=2.60D-08 MaxDP=1.26D-06 DE=-3.89D-11 OVMax= 1.03D-05

 Cycle  22  Pass 1  IDiag  1:
 E= -504.818647132325     Delta-E=       -0.000000000007 Rises=F Damp=F
 DIIS: error= 6.41D-08 at cycle  10 NSaved=  10.
 NSaved=10 IEnMin=10 EnMin= -504.818647132325     IErMin=10 ErrMin= 6.41D-08
 ErrMax= 6.41D-08 EMaxC= 1.00D-01 BMatC= 3.60D-12 BMatP= 7.87D-12
 IDIUse=1 WtCom= 1.00D+00 WtEn= 0.00D+00
 Coeff-Com: -0.600D-03 0.757D-02 0.856D-02 0.422D-01 0.314D-01-0.528D-01
 Coeff-Com: -0.256D+00-0.488D-01 0.613D+00 0.655D+00
 Coeff:     -0.600D-03 0.757D-02 0.856D-02 0.422D-01 0.314D-01-0.528D-01
 Coeff:     -0.256D+00-0.488D-01 0.613D+00 0.655D+00
 Gap=     0.271 Goal=   None    Shift=    0.000
 Gap=     0.106 Goal=   None    Shift=    0.000
 RMSDP=7.37D-09 MaxDP=2.97D-07 DE=-6.59D-12 OVMax= 2.93D-06

 SCF Done:  E(UB3LYP) =  -504.818647132     A.U. after   22 cycles
             Convg  =    0.7371D-08             -V/T =  2.0043
 <Sx>= 0.0000 <Sy>= 0.0000 <Sz>= 0.5000 <S**2>= 0.7582 S= 0.5041
 <L.S>= 0.000000000000E+00
 KE= 5.026765155833D+02 PE=-2.517768232102D+03 EE= 8.393309204832D+02
 Annihilation of the first spin contaminant:
 S**2 before annihilation     0.7582,   after     0.7500
 Leave Link  502 at Mon Feb 17 18:59:06 2014, MaxMem= 4026531840 cpu:    1585.5
 (Enter /usr/caen/gaussian-09revc/g09/l801.exe)
 Range of M.O.s used for correlation:     1   312
 NBasis=   312 NAE=    45 NBE=    44 NFC=     0 NFV=     0
 NROrb=    312 NOA=    45 NOB=    44 NVA=   267 NVB=   268

 **** Warning!!: The largest beta MO coefficient is  0.10359931D+02

 Leave Link  801 at Mon Feb 17 18:59:07 2014, MaxMem= 4026531840 cpu:       1.1
 (Enter /usr/caen/gaussian-09revc/g09/l1101.exe)
 Using compressed storage, NAtomX=    30.
 Will process  31 centers per pass.
 Leave Link 1101 at Mon Feb 17 18:59:09 2014, MaxMem= 4026531840 cpu:      10.3
 (Enter /usr/caen/gaussian-09revc/g09/l1102.exe)
 Symmetrizing basis deriv contribution to polar:
 IMax=3 JMax=2 DiffMx= 0.00D+00
 Leave Link 1102 at Mon Feb 17 18:59:09 2014, MaxMem= 4026531840 cpu:       1.1
 (Enter /usr/caen/gaussian-09revc/g09/l1110.exe)
 Forming Gx(P) for the SCF density, NAtomX=    30.
 Integral derivatives from FoFDir/FoFCou, PRISM(SPDF).
 Do as many integral derivatives as possible in FoFDir.
 G2DrvN: MDV=    4026531496.
 G2DrvN: will do    31 centers at a time, making    1 passes doing MaxLOS=2.
 Calling FoFCou, ICntrl=  3107 FMM=F I1Cent=   0 AccDes= 0.00D+00.
 FoFCou: FMM=F IPFlag=           0 FMFlag=      100000 FMFlg1=           0
         NFxFlg=           0 DoJE=F BraDBF=F KetDBF=F FulRan=T
         Omega=  0.000000  0.000000  1.000000  0.000000  0.000000 ICntrl=    3107 IOpCl=  1
         NMat0=    1 NMatS0=    1 NMatT0=    0 NMatD0=    1 NMtDS0=    0 NMtDT0=    0
         I1Cent=           0 NGrid=           0.
 Symmetry not used in FoFCou.
 FoFDir/FoFCou used for L=0 through L=2.
 End of G2Drv Frequency-dependent properties file   721 does not exist.
 End of G2Drv Frequency-dependent properties file   722 does not exist.
 Leave Link 1110 at Mon Feb 17 19:02:33 2014, MaxMem= 4026531840 cpu:    1537.9
 (Enter /usr/caen/gaussian-09revc/g09/l1002.exe)
 Minotr:  UHF open shell wavefunction.
          IDoAtm=111111111111111111111111111111
          Direct CPHF calculation.
          Differentiating once with respect to nuclear coordinates.
          Requested convergence is 1.0D-06 RMS, and 1.0D-05 maximum.
          Secondary convergence is 1.0D-12 RMS, and 1.0D-12 maximum.
          NewPWx=T KeepS1=F KeepF1=F KeepIn=T MapXYZ=F SortEE=F KeepMc=T.
          MDV=    4026531536 using IRadAn=       2.
 Generate precomputed XC quadrature information.
          Keep R1 and R2 ints in memory in canonical form, NReq=2738891885.
 Symmetry not used in FoFDir.
 MinBra= 0 MaxBra= 2 Meth= 1.
 IRaf=       0 NMat=   1 IRICut=       1 DoRegI=T DoRafI=F ISym2E= 0 JSym2E=0.
          Solving linear equations simultaneously, MaxMat=       0.
          There are    93 degrees of freedom in the 1st order CPHF.  IDoFFX=5.
     87 vectors produced by pass  0 Test12= 2.56D-10 1.08D-07 XBig12= 3.15D-01 3.30D-01.
 AX will form    87 AO Fock derivatives at one time.
     87 vectors produced by pass  1 Test12= 2.56D-10 1.08D-07 XBig12= 2.73D-02 2.33D-02.
     87 vectors produced by pass  2 Test12= 2.56D-10 1.08D-07 XBig12= 1.65D-04 1.43D-03.
     87 vectors produced by pass  3 Test12= 2.56D-10 1.08D-07 XBig12= 1.68D-06 1.46D-04.
     69 vectors produced by pass  4 Test12= 2.56D-10 1.08D-07 XBig12= 9.49D-09 7.46D-06.
     12 vectors produced by pass  5 Test12= 2.56D-10 1.08D-07 XBig12= 4.70D-11 4.93D-07.
 Inverted reduced A of dimension   429 with in-core refinement.
 End of Minotr Frequency-dependent properties file   721 does not exist.
 End of Minotr Frequency-dependent properties file   722 does not exist.
 Leave Link 1002 at Mon Feb 17 19:07:24 2014, MaxMem= 4026531840 cpu:    2275.2
 (Enter /usr/caen/gaussian-09revc/g09/l601.exe)
 Copying SCF densities to generalized density rwf, IOpCl= 1 IROHF=0.

 **********************************************************************

            Population analysis using the SCF density.

 **********************************************************************

 Orbital symmetries:
 Alpha Orbitals:
       Occupied  (A) (A) (A) (A) (A) (A) (A) (A) (A) (A) (A) (A)
                 (A) (A) (A) (A) (A) (A) (A) (A) (A) (A) (A) (A)
                 (A) (A) (A) (A) (A) (A) (A) (A) (A) (A) (A) (A)
                 (A) (A) (A) (A) (A) (A) (A) (A) (A)
       Virtual   (A) (A) (A) (A) (A) (A) (A) (A) (A) (A) (A) (A)
                 (A) (A) (A) (A) (A) (A) (A) (A) (A) (A) (A) (A)
                 (A) (A) (A) (A) (A) (A) (A) (A) (A) (A) (A) (A)
                 (A) (A) (A) (A) (A) (A) (A) (A) (A) (A) (A) (A)
                 (A) (A) (A) (A) (A) (A) (A) (A) (A) (A) (A) (A)
                 (A) (A) (A) (A) (A) (A) (A) (A) (A) (A) (A) (A)
                 (A) (A) (A) (A) (A) (A) (A) (A) (A) (A) (A) (A)
                 (A) (A) (A) (A) (A) (A) (A) (A) (A) (A) (A) (A)
                 (A) (A) (A) (A) (A) (A) (A) (A) (A) (A) (A) (A)
                 (A) (A) (A) (A) (A) (A) (A) (A) (A) (A) (A) (A)
                 (A) (A) (A) (A) (A) (A) (A) (A) (A) (A) (A) (A)
                 (A) (A) (A) (A) (A) (A) (A) (A) (A) (A) (A) (A)
                 (A) (A) (A) (A) (A) (A) (A) (A) (A) (A) (A) (A)
                 (A) (A) (A) (A) (A) (A) (A) (A) (A) (A) (A) (A)
                 (A) (A) (A) (A) (A) (A) (A) (A) (A) (A) (A) (A)
                 (A) (A) (A) (A) (A) (A) (A) (A) (A) (A) (A) (A)
                 (A) (A) (A) (A) (A) (A) (A) (A) (A) (A) (A) (A)
                 (A) (A) (A) (A) (A) (A) (A) (A) (A) (A) (A) (A)
                 (A) (A) (A) (A) (A) (A) (A) (A) (A) (A) (A) (A)
                 (A) (A) (A) (A) (A) (A) (A) (A) (A) (A) (A) (A)
                 (A) (A) (A) (A) (A) (A) (A) (A) (A) (A) (A) (A)
                 (A) (A) (A) (A) (A) (A) (A) (A) (A) (A) (A) (A)
                 (A) (A) (A)
 Beta  Orbitals:
       Occupied  (A) (A) (A) (A) (A) (A) (A) (A) (A) (A) (A) (A)
                 (A) (A) (A) (A) (A) (A) (A) (A) (A) (A) (A) (A)
                 (A) (A) (A) (A) (A) (A) (A) (A) (A) (A) (A) (A)
                 (A) (A) (A) (A) (A) (A) (A) (A)
       Virtual   (A) (A) (A) (A) (A) (A) (A) (A) (A) (A) (A) (A)
                 (A) (A) (A) (A) (A) (A) (A) (A) (A) (A) (A) (A)
                 (A) (A) (A) (A) (A) (A) (A) (A) (A) (A) (A) (A)
                 (A) (A) (A) (A) (A) (A) (A) (A) (A) (A) (A) (A)
                 (A) (A) (A) (A) (A) (A) (A) (A) (A) (A) (A) (A)
                 (A) (A) (A) (A) (A) (A) (A) (A) (A) (A) (A) (A)
                 (A) (A) (A) (A) (A) (A) (A) (A) (A) (A) (A) (A)
                 (A) (A) (A) (A) (A) (A) (A) (A) (A) (A) (A) (A)
                 (A) (A) (A) (A) (A) (A) (A) (A) (A) (A) (A) (A)
                 (A) (A) (A) (A) (A) (A) (A) (A) (A) (A) (A) (A)
                 (A) (A) (A) (A) (A) (A) (A) (A) (A) (A) (A) (A)
                 (A) (A) (A) (A) (A) (A) (A) (A) (A) (A) (A) (A)
                 (A) (A) (A) (A) (A) (A) (A) (A) (A) (A) (A) (A)
                 (A) (A) (A) (A) (A) (A) (A) (A) (A) (A) (A) (A)
                 (A) (A) (A) (A) (A) (A) (A) (A) (A) (A) (A) (A)
                 (A) (A) (A) (A) (A) (A) (A) (A) (A) (A) (A) (A)
                 (A) (A) (A) (A) (A) (A) (A) (A) (A) (A) (A) (A)
                 (A) (A) (A) (A) (A) (A) (A) (A) (A) (A) (A) (A)
                 (A) (A) (A) (A) (A) (A) (A) (A) (A) (A) (A) (A)
                 (A) (A) (A) (A) (A) (A) (A) (A) (A) (A) (A) (A)
                 (A) (A) (A) (A) (A) (A) (A) (A) (A) (A) (A) (A)
                 (A) (A) (A) (A) (A) (A) (A) (A) (A) (A) (A) (A)
                 (A) (A) (A) (A)
 The electronic state is 2-A.
 Alpha  occ. eigenvalues --  -19.17637 -19.17288 -10.23670 -10.20186 -10.19146
 Alpha  occ. eigenvalues --  -10.17542 -10.17439 -10.17173 -10.16839 -10.16004
 Alpha  occ. eigenvalues --  -10.15804  -1.12632  -0.88198  -0.83071  -0.81025
 Alpha  occ. eigenvalues --   -0.75434  -0.69853  -0.69184  -0.68692  -0.61119
 Alpha  occ. eigenvalues --   -0.57448  -0.56637  -0.53016  -0.49056  -0.48932
 Alpha  occ. eigenvalues --   -0.45679  -0.44567  -0.43974  -0.43764  -0.43196
 Alpha  occ. eigenvalues --   -0.41219  -0.39875  -0.39047  -0.38344  -0.37976
 Alpha  occ. eigenvalues --   -0.36765  -0.36690  -0.35826  -0.34556  -0.34124
 Alpha  occ. eigenvalues --   -0.33101  -0.32843  -0.31935  -0.25559  -0.24449
 Alpha virt. eigenvalues --    0.02669   0.03679   0.04677   0.05413   0.06367
 Alpha virt. eigenvalues --    0.07973   0.08597   0.08863   0.09723   0.10351
 Alpha virt. eigenvalues --    0.10576   0.11360   0.12059   0.12743   0.13899
 Alpha virt. eigenvalues --    0.13960   0.14251   0.15040   0.15783   0.16936
 Alpha virt. eigenvalues --    0.18338   0.18942   0.20052   0.21303   0.21984
 Alpha virt. eigenvalues --    0.22499   0.23708   0.24432   0.25890   0.28785
 Alpha virt. eigenvalues --    0.29237   0.29691   0.30063   0.32936   0.33823
 Alpha virt. eigenvalues --    0.34532   0.35981   0.37986   0.40107   0.40436
 Alpha virt. eigenvalues --    0.41497   0.42500   0.43984   0.46527   0.48410
 Alpha virt. eigenvalues --    0.49758   0.50589   0.51741   0.52940   0.54950
 Alpha virt. eigenvalues --    0.55520   0.55895   0.56148   0.56624   0.57079
 Alpha virt. eigenvalues --    0.57925   0.58041   0.58277   0.58605   0.59461
 Alpha virt. eigenvalues --    0.59616   0.60065   0.60235   0.61426   0.62048
 Alpha virt. eigenvalues --    0.62331   0.63024   0.63771   0.64784   0.65284
 Alpha virt. eigenvalues --    0.66142   0.67095   0.69708   0.73680   0.74581
 Alpha virt. eigenvalues --    0.77800   0.78831   0.80056   0.83978   0.88336
 Alpha virt. eigenvalues --    0.90324   0.92198   0.93300   0.95086   0.97416
 Alpha virt. eigenvalues --    0.98231   1.00135   1.00957   1.03697   1.04791
 Alpha virt. eigenvalues --    1.07834   1.09719   1.12006   1.15231   1.15837
 Alpha virt. eigenvalues --    1.18039   1.19514   1.24801   1.26085   1.28490
 Alpha virt. eigenvalues --    1.33306   1.34518   1.36310   1.37767   1.38121
 Alpha virt. eigenvalues --    1.42303   1.42838   1.43036   1.44998   1.45150
 Alpha virt. eigenvalues --    1.45744   1.46627   1.47389   1.48443   1.48915
 Alpha virt. eigenvalues --    1.49889   1.50808   1.51446   1.53098   1.54200
 Alpha virt. eigenvalues --    1.54835   1.55747   1.56485   1.57254   1.57797
 Alpha virt. eigenvalues --    1.59408   1.59986   1.61252   1.62157   1.63304
 Alpha virt. eigenvalues --    1.64542   1.65244   1.66534   1.67355   1.69637
 Alpha virt. eigenvalues --    1.72011   1.72763   1.75136   1.75588   1.76173
 Alpha virt. eigenvalues --    1.77287   1.78496   1.79338   1.80076   1.80971
 Alpha virt. eigenvalues --    1.86005   1.89636   1.90487   1.92463   1.93557
 Alpha virt. eigenvalues --    1.95984   1.97212   1.98603   2.00330   2.00470
 Alpha virt. eigenvalues --    2.02195   2.06264   2.07833   2.09129   2.09696
 Alpha virt. eigenvalues --    2.10248   2.11463   2.13300   2.17479   2.18470
 Alpha virt. eigenvalues --    2.19185   2.21775   2.25254   2.27204   2.29417
 Alpha virt. eigenvalues --    2.30417   2.33190   2.34403   2.35133   2.36569
 Alpha virt. eigenvalues --    2.37746   2.40881   2.43011   2.43995   2.45025
 Alpha virt. eigenvalues --    2.45984   2.47636   2.48047   2.48653   2.48835
 Alpha virt. eigenvalues --    2.49804   2.50245   2.50845   2.51535   2.52408
 Alpha virt. eigenvalues --    2.53160   2.54985   2.55913   2.58151   2.59140
 Alpha virt. eigenvalues --    2.60782   2.61871   2.63133   2.64042   2.64479
 Alpha virt. eigenvalues --    2.66159   2.68250   2.69480   2.70826   2.74003
 Alpha virt. eigenvalues --    2.74566   2.75385   2.78727   2.81297   2.82030
 Alpha virt. eigenvalues --    2.83821   2.86025   2.88269   2.89070   2.91056
 Alpha virt. eigenvalues --    2.94811   2.95451   3.00636   3.03779   3.06462
 Alpha virt. eigenvalues --    3.07902   3.10756   3.13291   3.16835   3.20314
 Alpha virt. eigenvalues --    3.26187   3.31434   3.42786   3.46043   3.52558
 Alpha virt. eigenvalues --    3.62566   3.72571   3.76350   3.77117   3.77509
 Alpha virt. eigenvalues --    3.78070   3.79700   3.80379   3.80968   3.81723
 Alpha virt. eigenvalues --    3.84388   3.88460   3.95126   3.98318   4.07453
 Alpha virt. eigenvalues --    4.18195   4.26332   4.29421   4.31816   4.39174
 Alpha virt. eigenvalues --    4.72815   4.82010   4.93036   5.02603   5.30222
 Alpha virt. eigenvalues --    5.68221  23.75410  23.79122  23.81636  23.82869
 Alpha virt. eigenvalues --   23.88806  23.92082  23.92881  23.93205  23.94157
 Alpha virt. eigenvalues --   49.76377  49.85068
  Beta  occ. eigenvalues --  -19.17496 -19.15964 -10.23680 -10.19338 -10.19166
  Beta  occ. eigenvalues --  -10.17540 -10.17354 -10.17165 -10.16818 -10.16004
  Beta  occ. eigenvalues --  -10.15804  -1.11317  -0.86338  -0.82272  -0.80869
  Beta  occ. eigenvalues --   -0.74806  -0.69674  -0.68773  -0.68439  -0.60821
  Beta  occ. eigenvalues --   -0.56814  -0.56341  -0.51332  -0.48710  -0.48304
  Beta  occ. eigenvalues --   -0.45588  -0.44115  -0.43726  -0.43444  -0.42462
  Beta  occ. eigenvalues --   -0.40741  -0.39781  -0.38877  -0.37863  -0.37005
  Beta  occ. eigenvalues --   -0.36563  -0.36274  -0.35420  -0.34147  -0.33536
  Beta  occ. eigenvalues --   -0.32799  -0.32670  -0.31496  -0.23619
  Beta virt. eigenvalues --   -0.13060   0.02985   0.03943   0.04872   0.05622
  Beta virt. eigenvalues --    0.06426   0.08019   0.08635   0.09033   0.09766
  Beta virt. eigenvalues --    0.10408   0.10893   0.11440   0.12116   0.12890
  Beta virt. eigenvalues --    0.13936   0.14310   0.14454   0.15328   0.15884
  Beta virt. eigenvalues --    0.17083   0.18648   0.19493   0.20156   0.21542
  Beta virt. eigenvalues --    0.22325   0.22882   0.23890   0.24601   0.26075
  Beta virt. eigenvalues --    0.28875   0.29392   0.29758   0.30226   0.33178
  Beta virt. eigenvalues --    0.33970   0.34642   0.36153   0.38064   0.40319
  Beta virt. eigenvalues --    0.40724   0.41555   0.42844   0.44132   0.46654
  Beta virt. eigenvalues --    0.48640   0.50179   0.50991   0.51854   0.53641
  Beta virt. eigenvalues --    0.55334   0.55586   0.56098   0.56398   0.56699
  Beta virt. eigenvalues --    0.57154   0.58026   0.58141   0.58394   0.58693
  Beta virt. eigenvalues --    0.59592   0.59727   0.60127   0.60317   0.61553
  Beta virt. eigenvalues --    0.62213   0.62606   0.63140   0.63903   0.65012
  Beta virt. eigenvalues --    0.65397   0.66441   0.67161   0.69813   0.73960
  Beta virt. eigenvalues --    0.74884   0.79006   0.79394   0.80250   0.84310
  Beta virt. eigenvalues --    0.88904   0.90652   0.92507   0.93596   0.95796
  Beta virt. eigenvalues --    0.97732   0.98395   1.00297   1.01217   1.04099
  Beta virt. eigenvalues --    1.05040   1.08011   1.10121   1.12199   1.15318
  Beta virt. eigenvalues --    1.16163   1.18133   1.19566   1.25089   1.26392
  Beta virt. eigenvalues --    1.28763   1.33715   1.34695   1.36477   1.37895
  Beta virt. eigenvalues --    1.38442   1.42412   1.43104   1.43245   1.45039
  Beta virt. eigenvalues --    1.45192   1.45982   1.46720   1.47622   1.48543
  Beta virt. eigenvalues --    1.49166   1.49969   1.50861   1.51794   1.53275
  Beta virt. eigenvalues --    1.54532   1.54983   1.55993   1.56624   1.57603
  Beta virt. eigenvalues --    1.58213   1.59539   1.60381   1.61455   1.62372
  Beta virt. eigenvalues --    1.63406   1.64715   1.65566   1.66636   1.67612
  Beta virt. eigenvalues --    1.69746   1.72485   1.72889   1.75305   1.75643
  Beta virt. eigenvalues --    1.76237   1.77380   1.78627   1.79393   1.80199
  Beta virt. eigenvalues --    1.81121   1.85993   1.89727   1.90602   1.92578
  Beta virt. eigenvalues --    1.93652   1.96098   1.97515   1.98767   2.00485
  Beta virt. eigenvalues --    2.00662   2.02607   2.06794   2.07953   2.09404
  Beta virt. eigenvalues --    2.09955   2.10340   2.11662   2.13614   2.17683
  Beta virt. eigenvalues --    2.18598   2.19716   2.21929   2.25609   2.27628
  Beta virt. eigenvalues --    2.29608   2.30777   2.33452   2.34483   2.35164
  Beta virt. eigenvalues --    2.36655   2.38130   2.41005   2.43104   2.44118
  Beta virt. eigenvalues --    2.45199   2.46047   2.47736   2.48139   2.48701
  Beta virt. eigenvalues --    2.48960   2.49967   2.50375   2.50899   2.51872
  Beta virt. eigenvalues --    2.52450   2.53272   2.55202   2.56234   2.58303
  Beta virt. eigenvalues --    2.59248   2.61022   2.61962   2.63191   2.64308
  Beta virt. eigenvalues --    2.64625   2.66395   2.68401   2.69495   2.70894
  Beta virt. eigenvalues --    2.74144   2.74855   2.75620   2.79247   2.81384
  Beta virt. eigenvalues --    2.82163   2.84008   2.86235   2.88708   2.89206
  Beta virt. eigenvalues --    2.91288   2.94959   2.97596   3.00923   3.04142
  Beta virt. eigenvalues --    3.07065   3.08053   3.10889   3.13811   3.17617
  Beta virt. eigenvalues --    3.21263   3.26602   3.32417   3.43142   3.46314
  Beta virt. eigenvalues --    3.54427   3.64023   3.74136   3.76409   3.77187
  Beta virt. eigenvalues --    3.77534   3.78097   3.79739   3.80494   3.80984
  Beta virt. eigenvalues --    3.81980   3.84417   3.88863   3.95540   3.98477
  Beta virt. eigenvalues --    4.07668   4.18392   4.26527   4.29427   4.32068
  Beta virt. eigenvalues --    4.39566   4.73387   4.83136   4.93777   5.06940
  Beta virt. eigenvalues --    5.30707   5.68938  23.75515  23.79843  23.81644
  Beta virt. eigenvalues --   23.82882  23.88836  23.92211  23.92930  23.93215
  Beta virt. eigenvalues --   23.94160  49.77544  49.85365
          Condensed to atoms (all electrons):
              1          2          3          4          5          6
     1  C    4.858772   0.403559   0.400470   0.403523   0.378192  -0.038450
     2  H    0.403559   0.579821  -0.031227  -0.026881  -0.033194  -0.006116
     3  H    0.400470  -0.031227   0.601112  -0.031544  -0.038259   0.008722
     4  H    0.403523  -0.026881  -0.031544   0.582242  -0.033320  -0.005921
     5  C    0.378192  -0.033194  -0.038259  -0.033320   5.046123   0.411894
     6  H   -0.038450  -0.006116   0.008722  -0.005921   0.411894   0.582731
     7  C   -0.065725  -0.005513  -0.006851   0.008529   0.349518  -0.047849
     8  H   -0.006520   0.003819  -0.000472   0.000137  -0.037915  -0.004950
     9  H   -0.004291  -0.000463   0.004481  -0.000275  -0.035766   0.009942
    10  C   -0.000227  -0.000019  -0.000025   0.000013   0.007405   0.000726
    11  H   -0.000017   0.000005   0.000011   0.000002   0.000003  -0.000155
    12  H    0.000024  -0.000002  -0.000003  -0.000001  -0.000047   0.000619
    13  C    0.000003   0.000000   0.000000   0.000000  -0.000302  -0.000039
    14  H    0.000001   0.000000   0.000000   0.000000  -0.000020  -0.000047
    15  C    0.000000   0.000000   0.000000   0.000000   0.000005   0.000001
    16  H    0.000000   0.000000   0.000000   0.000000   0.000000   0.000000
    17  H    0.000000   0.000000   0.000000   0.000000   0.000000   0.000000
    18  H    0.000000   0.000000   0.000000   0.000000   0.000001   0.000000
    19  C   -0.065669   0.008348  -0.006300  -0.005274   0.357217  -0.043908
    20  H   -0.004943  -0.000205   0.005158  -0.000647  -0.041071   0.008792
    21  H   -0.006027   0.000058  -0.000595   0.003992  -0.031456  -0.005537
    22  H    0.007817  -0.000499  -0.000192   0.000039  -0.031951  -0.005358
    23  C    0.000000   0.000000   0.000000   0.000000   0.000019   0.000002
    24  H    0.000000   0.000000   0.000000   0.000000  -0.000001   0.000000
    25  H    0.000000   0.000000   0.000000   0.000000  -0.000001   0.000000
    26  H   -0.000001   0.000000   0.000000   0.000000   0.000033   0.000007
    27  C    0.007485   0.000284  -0.000111  -0.000406  -0.045740  -0.011692
    28  H    0.000029  -0.000026   0.000017   0.000004  -0.007055   0.000361
    29  O   -0.000020   0.000055  -0.000009  -0.000001  -0.001122   0.014581
    30  O   -0.000045  -0.000126   0.000001   0.000000  -0.001216  -0.000240
              7          8          9         10         11         12
     1  C   -0.065725  -0.006520  -0.004291  -0.000227  -0.000017   0.000024
     2  H   -0.005513   0.003819  -0.000463  -0.000019   0.000005  -0.000002
     3  H   -0.006851  -0.000472   0.004481  -0.000025   0.000011  -0.000003
     4  H    0.008529   0.000137  -0.000275   0.000013   0.000002  -0.000001
     5  C    0.349518  -0.037915  -0.035766   0.007405   0.000003  -0.000047
     6  H   -0.047849  -0.004950   0.009942   0.000726  -0.000155   0.000619
     7  C    5.072912   0.406246   0.384946  -0.070183   0.000868  -0.004119
     8  H    0.406246   0.567203  -0.031765  -0.005238   0.000889  -0.001287
     9  H    0.384946  -0.031765   0.607809  -0.002766   0.000702   0.000255
    10  C   -0.070183  -0.005238  -0.002766   5.374101   0.389899   0.256741
    11  H    0.000868   0.000889   0.000702   0.389899   0.552902  -0.015374
    12  H   -0.004119  -0.001287   0.000255   0.256741  -0.015374   0.499622
    13  C    0.006605   0.000879  -0.000656   0.310488  -0.033309  -0.021303
    14  H    0.001620   0.000034  -0.000175  -0.051068   0.008289  -0.005360
    15  C   -0.000407  -0.000004   0.000015  -0.065927  -0.005195  -0.001769
    16  H   -0.000015   0.000009  -0.000008  -0.007191   0.004520  -0.000529
    17  H    0.000012   0.000001   0.000001   0.008670  -0.000262   0.000067
    18  H   -0.000061  -0.000058   0.000007  -0.001230  -0.000188   0.003975
[...]
 0.00006582,0.00011405,0.00016546,0.00158609,-0.00242380,-0.00096754,0.
 02694337,-0.01334907,0.01683875,-0.00008620,0.00149689,-0.00030118,0.0
 0118653,0.00176383,0.00010895,-0.00012503,-0.00007123,-0.00001984,-0.0
 0098423,-0.00019065,-0.00003923,-0.00001995,0.00041063,-0.00044392,0.0
 0001892,-0.00003269,0.00001414,0.00001746,0.00003027,0.00002354,0.0000
 1475,0.00002396,-0.00001219,-0.00000862,-0.00002379,-0.00001308,0.0587
 1348,-0.06325667,0.03548914,-0.06491392,0.07205228,-0.00000437,-0.0000
 0707,0.00000391,0.00000270,0.00000010,-0.00000005,0.00000250,0.0000010
 0,-0.00000063,-0.00000640,0.00000095,0.00000212,0.00000790,0.00001602,
 0.00000120,-0.00000257,-0.00000148,0.00000322,-0.00002048,-0.00005355,
 -0.00000965,0.00001570,-0.00000334,0.00001566,0.00001776,0.00001244,0.
 00000358,-0.00007826,0.00036015,0.00067079,0.00029644,-0.00009094,0.00
 028808,0.00002306,-0.00021517,-0.00004923,0.00186555,-0.00166318,0.000
 45625,0.00042643,0.00035703,0.00048753,-0.00029482,0.00000423,-0.00028
 334,-0.00012066,0.00004296,-0.00005602,0.00031692,0.00033788,0.0002243
 4,0.00027659,-0.00009747,0.00003759,-0.00000615,0.00000025,-0.00001184
 ,0.00000123,0.00000010,-0.00000264,-0.00000093,-0.00000266,0.00000609,
 -0.00000044,0.00000223,0.00000769,-0.10587506,0.03548011,-0.11058810,0
 .11691061,-0.03857718,0.11588303,0.00000002,0.00001285,0.00000258,-0.0
 0000300,-0.00000065,-0.00000086,-0.00000555,-0.00000343,-0.00000334,0.
 00000479,-0.00000151,-0.00000315,-0.00002291,-0.00003817,-0.00002994,0
 .00001864,-0.00000413,-0.00000792,0.00003083,0.00018245,0.00002468,-0.
 00003213,0.00000182,-0.00004269,-0.00005340,-0.00003455,-0.00004341,0.
 00043843,0.00016798,0.00150717,0.00002090,0.00011647,-0.00027040,0.000
 05219,-0.00014671,-0.00010473,-0.00162551,0.00136136,0.00292012,0.0005
 6220,0.00060480,-0.00001325,0.00014382,-0.00037711,-0.00094283,0.00027
 266,-0.00014625,0.00008559,0.00000333,-0.00004110,-0.00014547,-0.00012
 581,0.00009086,0.00009493,0.00002952,0.00001234,0.00004155,-0.00001376
 ,-0.00000863,-0.00001132,0.00000052,-0.00000301,-0.00001231,-0.0000027
 2,0.00000373,-0.00001166,-0.04906567,0.00540794,0.01870475,0.00296493,
 -0.00895503,-0.02573905,0.04811252,0.00000419,0.00000367,-0.00000300,-
 0.00000010,-0.00000134,-0.00000155,0.00000087,0.00000106,-0.00000059,0
 .00000069,-0.00000076,0.00000204,0.00001394,0.00000747,0.00002153,-0.0
 0000513,-0.00000238,0.00000020,0.00005913,0.00001898,-0.00003731,-0.00
 000725,-0.00000689,-0.00000717,0.00002439,0.00000743,0.00000741,-0.001
 65447,0.00125469,-0.00163479,0.00052697,-0.00017306,0.00077555,-0.0001
 9092,0.00026572,0.00007088,0.00301341,-0.01233406,-0.03146346,0.000679
 41,-0.00641180,0.00031653,0.00087491,0.00190523,-0.00119892,-0.0004321
 6,-0.00006738,0.00091019,-0.00013369,-0.00009394,0.00010002,0.00017852
 ,0.00033812,0.00035707,0.00000668,0.00000344,0.00000726,-0.00000004,-0
 .00000024,-0.00000121,-0.00000260,0.00000007,-0.00000109,0.00000227,-0
 .00000341,-0.00000401,0.00525998,-0.06963517,-0.07361738,-0.00155086,0
 .00227314,0.00857923,-0.00706993,0.07840780,0.00000945,-0.00000784,-0.
 00002261,-0.00000199,-0.00000090,0.00000079,0.00000428,0.00000862,0.00
 001014,0.00001186,0.00000025,0.00000354,0.00000181,0.00002224,0.000053
 96,-0.00002378,0.00000893,0.00000731,-0.00000086,-0.00013941,-0.000073
 11,0.00001583,0.00000145,0.00002062,0.00003968,0.00004040,0.00004181,-
 0.00035360,0.00080740,0.00082149,0.00054118,-0.00031673,0.00034308,0.0
 0018120,-0.00030323,-0.00006572,0.00028843,-0.00134831,-0.00151353,0.0
 0002236,0.00002284,0.00158722,-0.00008844,0.00049405,0.00080959,-0.000
 44900,-0.00042772,0.00033571,0.00004373,-0.00002952,-0.00007563,-0.000
 08095,-0.00000164,0.00028114,-0.00002071,-0.00001741,-0.00004568,0.000
 01094,0.00001315,0.00001834,0.00001182,0.00000648,0.00000518,0.0000026
 6,-0.00001220,0.00001913,0.01863642,-0.07371210,-0.27927077,0.00190677
 ,-0.00427301,-0.01445639,-0.02071232,0.08240822,0.30317993,0.00001816,
 0.00000881,-0.00002100,-0.00000612,0.00000692,-0.00000490,-0.00000116,
 0.00000035,0.00000517,0.00001453,-0.00000254,0.00000242,-0.00000392,-0
 .00001054,0.00003854,-0.00000772,0.00000422,0.00000483,0.00005003,-0.0
 0001541,-0.00008402,-0.00001224,0.00000091,-0.00003313,-0.00000459,0.0
 0001004,0.00000821,0.00023115,0.00067736,-0.00035411,0.00000888,-0.000
 06618,0.00000114,0.00021740,-0.00050567,-0.00023658,0.00324964,0.00183
 766,-0.00272478,0.00023026,-0.00061625,-0.00019331,0.00049042,0.000333
 36,-0.00045914,-0.00004068,0.00011886,-0.00000123,0.00042711,0.0002294
 4,0.00009352,0.00032527,0.00006112,0.00018193,0.00002816,-0.00000770,0
 .00000102,-0.00000163,0.00000630,0.00000730,0.00001066,0.00000529,-0.0
 0000301,-0.00001304,-0.00000413,0.00000187,-0.20876911,-0.09209415,0.0
 8703367,-0.02049456,-0.01182164,0.01212311,-0.00146530,0.00017703,0.00
 021614,0.22593181,-0.00000735,0.00000635,0.00002415,0.00000199,0.00000
 463,-0.00000727,0.00000296,-0.00000472,-0.00000558,-0.00002079,-0.0000
 0189,0.00000137,0.00006946,-0.00001848,-0.00002694,-0.00000715,-0.0000
 0040,0.00001018,0.00020794,0.00028235,-0.00014298,-0.00012757,0.000042
 26,-0.00009929,0.00002409,-0.00000883,0.00003244,-0.00158730,0.0013295
 0,-0.00004749,0.00014196,-0.00014603,0.00004292,0.00003101,-0.00031060
 ,-0.00030633,-0.02448973,-0.01345261,0.01434064,-0.00001722,0.00131063
 ,-0.00043025,0.00211898,-0.00667385,-0.00104477,0.00016853,0.00010537,
 0.00014011,0.00014316,0.00021289,-0.00025068,-0.00172206,-0.00093755,0
 .00096231,0.00001328,-0.00000857,0.00007080,0.00000340,0.00000285,-0.0
 0001092,-0.00004090,0.00000684,-0.00000760,0.00001069,0.00002413,-0.00
 005760,-0.09158608,-0.09856905,0.04890030,0.00679381,0.00382781,-0.004
 64245,0.00873109,0.00448998,-0.00343891,0.10053649,0.10880699,-0.00000
 312,0.00000413,-0.00000166,-0.00000016,-0.00000754,0.00000519,-0.00000
 641,-0.00000057,-0.00000601,0.00000877,0.00000011,-0.00000305,-0.00003
 558,-0.00000838,-0.00002783,0.00002578,-0.00001665,-0.00001092,-0.0000
 4878,0.00010540,0.00009391,0.00001849,-0.00004126,0.00000086,-0.000057
 30,-0.00003122,-0.00009293,0.00058231,0.00015943,-0.00001812,0.0000586
 4,0.00006487,-0.00011002,-0.00008831,0.00018444,0.00006028,-0.00286751
 ,-0.00074609,-0.00045084,-0.00042472,0.00025092,0.00037596,-0.00019338
 ,-0.00005733,0.00055825,-0.00024909,-0.00028419,0.00043642,0.00030537,
 -0.00002769,-0.00003472,0.00016562,-0.00008576,0.00049004,0.00003445,0
 .00002949,0.00002603,-0.00004022,-0.00002203,-0.00003607,0.00002280,-0
 .00002150,-0.00001027,-0.00000717,0.00000942,0.00003927,0.08681738,0.0
 4921415,-0.09422934,-0.01278102,-0.00828561,0.00720743,0.02458454,0.01
 426800,-0.01214913,-0.09592447,-0.05426588,0.09766654,-0.00318021,-0.0
 0044226,0.00336994,0.00015506,0.00017809,0.00003996,0.00003969,-0.0002
 5797,-0.00001863,-0.00055509,0.00028132,-0.00108437,-0.02901575,0.0004
 6527,-0.01472154,0.00095503,-0.00025180,-0.00111285,-0.13974681,0.0096
 7133,-0.04539956,-0.00159488,0.00038384,-0.00185646,0.00241751,0.00081
 840,0.00260037,-0.13710986,-0.00562818,0.02757137,0.00540042,-0.004179
 00,-0.00452690,-0.00545333,-0.01531442,0.00496443,-0.02288323,-0.00594
 832,0.01027730,0.00059394,0.00019052,0.00066864,-0.00257233,0.00269735
 ,-0.00261780,-0.00005892,0.00003096,0.00019041,-0.00067877,-0.00051756
 ,0.00082162,0.00021609,-0.00009098,-0.00003936,0.00075449,-0.00035895,
 0.00048411,-0.00032065,-0.00009798,-0.00007268,0.00028809,0.00054511,-
 0.00057206,-0.00112412,-0.00031647,-0.00037162,0.00109339,0.00026559,0
 .00018840,0.00029647,-0.00058677,0.00010186,-0.00025342,-0.00007236,0.
 00003624,-0.00014029,-0.00004587,0.00007006,0.44579640,0.00029970,-0.0
 0060547,-0.00026084,-0.00029610,0.00040707,-0.00015349,0.00002981,0.00
 005489,0.00009744,0.00029562,0.00062921,-0.00009423,-0.00162520,-0.000
 90059,-0.00113400,0.00143724,-0.00024778,-0.00042123,0.00356623,-0.080
 93637,0.01484909,0.02588184,-0.00082474,0.01889236,-0.02084083,-0.0004
 7456,-0.01675866,-0.01555338,-0.03521966,0.01395244,0.00561581,0.00186
 237,-0.00356693,0.00272915,-0.04037056,-0.01504288,0.00685578,0.000610
 80,-0.00728682,-0.00043099,0.00034378,0.00041228,0.00011196,-0.0013222
 4,0.00202828,-0.00018163,-0.00008358,-0.00004902,0.00055980,0.00051433
 ,-0.00025963,-0.00018615,0.00007664,0.00005531,-0.00077549,0.00043437,
 -0.00101294,0.00003972,-0.00011334,0.00005752,0.00043203,-0.00015190,0
 .00020979,-0.00053018,-0.00023400,0.00090170,0.00159093,0.00103451,0.0
 0060146,-0.00007099,-0.00074593,0.00017042,-0.00020625,-0.00003098,0.0
 0015252,0.00029207,-0.00117247,0.00018171,0.02770517,0.49765738,0.0039
 6532,-0.00006196,-0.00319101,-0.00011231,-0.00010364,-0.00009334,-0.00
 019455,0.00018764,-0.00007098,0.00182972,-0.00040462,0.00086946,0.0064
 3882,-0.00101847,0.01613953,0.00080995,-0.00109257,-0.00041809,-0.0444
 8266,0.01662527,-0.11016524,-0.01640007,0.00085868,-0.01483304,-0.0120
 3265,0.00188690,-0.01135792,0.02309344,0.02433750,-0.09821135,0.019444
 17,0.00396877,-0.00800307,0.01251322,-0.00020892,-0.00768622,-0.008197
 82,-0.00491487,0.01329768,-0.00068054,-0.00068845,-0.00011712,-0.00353
 016,0.00124099,-0.00138108,-0.00004179,0.00015267,0.00009163,-0.001284
 78,-0.00059079,0.00038884,-0.00011651,-0.00006069,-0.00009313,0.001163
 50,-0.00080057,0.00108355,-0.00013215,0.00001049,-0.00005635,0.0000816
 1,0.00058348,-0.00050996,0.00012714,0.00056361,-0.00074138,-0.00045215
 ,-0.00053100,0.00052727,0.00005881,0.00020795,-0.00021493,0.00025127,0
 .00012098,-0.00025859,0.00015667,0.00086272,-0.00005112,0.01802005,-0.
 13859202,0.48074652,-0.00005785,-0.00008481,0.00012333,0.00013892,-0.0
 0018807,0.00011495,0.00007913,0.00005072,0.00002788,-0.00011532,-0.000
 06636,0.00008837,0.00139153,0.00051950,-0.00032226,-0.00015536,0.00009
 115,0.00026996,0.00018312,0.02050503,-0.01630656,-0.00387328,-0.000117
 58,-0.00347166,0.00088773,-0.00048768,0.00046375,-0.00102273,-0.014655
 79,0.01578505,-0.00131416,-0.00029803,0.00067659,0.00116803,-0.0057081
 4,-0.00227279,0.00118643,-0.00005225,0.00005595,-0.00020653,-0.0002209
 5,-0.00034398,0.00012813,-0.00020471,-0.00000318,0.00010035,-0.0000034
 3,-0.00011922,0.00004605,0.00008386,-0.00009348,0.00006567,0.00012105,
 0.00000787,-0.00099508,-0.00010478,-0.00054613,0.00005723,0.00001324,0
 .00004955,0.00032431,-0.00007260,0.00028277,-0.00111720,-0.00080275,0.
 00087345,-0.00067180,-0.00012767,0.00036528,0.00023947,0.00008660,-0.0
 0009473,0.00014199,-0.00000186,-0.00009768,-0.00009969,0.00069258,0.00
 005677,-0.04933948,-0.00247450,-0.00179985,0.05413550,0.00015537,-0.00
 001904,-0.00011165,0.00002389,0.00004265,-0.00003009,-0.00002996,-0.00
 000673,-0.00001136,0.00005019,-0.00003375,0.00002785,-0.00043754,-0.00
 021638,0.00065517,0.00005766,-0.00008264,-0.00004326,0.00077686,0.0023
 3221,0.00098147,-0.00100945,0.00101164,-0.00005146,0.00063908,0.000171
 25,0.00059824,-0.00194438,-0.00132119,0.00121151,-0.00017844,-0.000738
 80,-0.00007078,-0.00107386,0.00326515,0.00170272,0.00086329,0.00087059
 ,0.00093821,-0.00031752,-0.00019600,-0.00024908,-0.00002428,-0.0000158
 0,-0.00028746,0.00009358,0.00002684,-0.00001341,-0.00009371,0.00000937
 ,-0.00000417,0.00003308,0.00004704,0.00001847,-0.00034969,-0.00021277,
 0.00042082,-0.00007830,-0.00007200,-0.00011628,-0.00013115,0.00012218,
 -0.00018499,-0.00092347,0.00010234,-0.00019882,-0.00018756,-0.00011122
 ,-0.00047070,-0.00008127,0.00028319,-0.00002504,0.00012583,-0.00003174
 ,-0.00009620,0.00041127,0.00018962,-0.00020785,0.00257639,-0.19538295,
 0.11870700,0.00318824,0.22845784,-0.00011585,0.00004831,0.00008938,0.0
 0008698,-0.00017379,0.00010671,0.00004940,0.00000233,-0.00001841,-0.00
 013138,-0.00004337,0.00006105,0.00076521,0.00009599,-0.00006217,-0.000
 04536,0.00002399,0.00004870,-0.00055915,0.01646194,-0.01144496,-0.0034
 5547,-0.00057300,-0.00163059,0.00031853,-0.00055088,0.00027602,0.00164
 606,0.00865804,-0.00898890,0.00088213,0.00044543,-0.00048684,-0.000186
 38,0.00371262,0.00072050,-0.00082673,0.00055238,0.00070023,0.00021761,
 -0.00007186,0.00019839,0.00009288,0.00001919,-0.00002562,-0.00009814,0
 .00000450,0.00002474,0.00002455,-0.00000577,0.00005858,-0.00004160,-0.
 00010840,0.00001101,0.00022257,0.00018821,-0.00021610,-0.00011011,-0.0
 0006657,-0.00005571,0.00019805,-0.00025426,0.00020308,0.00072074,0.000
 04527,0.00065074,0.00011475,0.00031378,-0.00036353,-0.00022654,-0.0001
 1503,0.00010873,-0.00007649,-0.00005415,0.00004954,-0.00003434,-0.0005
 7551,0.00033942,-0.00069604,0.13140755,-0.15029235,0.00216427,-0.13127
 395,0.15877846,0.00044589,-0.00063776,-0.00048697,0.00004479,0.0000770
 4,0.00002063,-0.00024295,0.00006034,-0.00018729,-0.00001153,0.00006115
 ,0.00014296,0.00038051,-0.00002512,0.00084998,0.00033670,-0.00099750,-
 0.00166071,0.00274849,-0.02351331,-0.01682578,0.00116917,0.00062680,0.
 00136383,-0.00465170,-0.00095217,-0.00405756,-0.00851837,0.00091066,0.
 03603351,-0.00475364,0.00579203,0.00153953,-0.02063761,0.01434181,0.03
 502430,0.00188980,0.00279110,0.00142768,0.00022445,-0.00006799,-0.0000
 3839,0.00053030,0.00023420,0.00016540,-0.00003388,-0.00010091,0.000032
 96,-0.00020962,0.00016983,-0.00007393,0.00017305,0.00010340,0.00008696
 ,-0.00022747,-0.00013946,-0.00074977,0.00002872,-0.00025867,0.00009426
 ,-0.00007544,-0.00000501,0.00009252,0.00013030,-0.00004952,0.00013562,
 -0.00174468,-0.00036334,-0.00090343,-0.00013334,0.00076018,-0.00016103
 ,0.00009176,-0.00013277,0.00001564,0.00012240,0.00013272,-0.00012504,-
 0.05976268,-0.00648883,0.00399571,0.00085977,-0.00526809,-0.00299312,0
 .10870254,-0.00005014,0.00002308,0.00028948,0.00010112,-0.00001183,0.0
 0003178,0.00000340,-0.00000704,-0.00004758,-0.00029879,0.00003588,0.00
 008353,0.00191519,0.00124219,-0.00024781,0.00014711,-0.00031985,-0.000
 07474,-0.00562389,-0.00948271,-0.01531640,-0.00122699,-0.00008804,0.00
 136552,-0.00215491,-0.00056681,-0.00127970,0.00600920,-0.05630743,-0.0
 1930324,0.00367774,0.00387437,-0.00301404,-0.02925666,0.05159908,0.032
 18375,0.00370180,0.01307204,0.00331107,-0.00092511,-0.00005552,-0.0012
 5633,0.00113041,0.00051926,-0.00071802,0.00013867,-0.00012632,0.000108
 48,-0.00040440,0.00050367,0.00009849,0.00057502,0.00011140,0.00029181,
 -0.00006720,0.00006485,-0.00022268,0.00008082,-0.00010416,-0.00000910,
 -0.00015737,-0.00005537,0.00011507,0.00004955,0.00001888,0.00005791,-0
 .00552238,-0.00154033,-0.00395508,-0.00021380,0.00244845,-0.00015402,0
 .00029958,-0.00053506,0.00015873,0.00041197,0.00036095,-0.00021676,0.0
 0089761,-0.07735977,-0.03978260,0.00252645,-0.03361025,-0.02061219,0.0
 3107769,0.24430379,-0.00006210,0.00022182,0.00014140,-0.00001342,-0.00
 000775,-0.00008916,0.00028914,0.00016346,0.00028517,-0.00015457,0.0000
 8550,0.00011001,0.00231876,-0.00062456,0.00013960,-0.00111662,0.000601
 40,0.00103264,-0.00330328,-0.03087000,-0.02525978,0.00219070,0.0005991
 9,0.00063235,-0.00632796,0.00116293,-0.00379650,0.02530567,0.00029406,
 -0.03875376,0.00542397,-0.00571480,-0.00057875,0.02787745,-0.01678582,
 -0.03568642,-0.00343961,-0.00646102,-0.00364356,0.00095570,-0.00001297
 ,0.00153818,-0.00039225,0.00011811,0.00013281,-0.00028801,0.00003210,0
 .00025512,0.00016951,-0.00013059,0.00015807,-0.00011208,0.00001710,-0.
 00021274,-0.00029375,0.00007259,-0.00024365,0.00012339,0.00025342,0.00
 003983,0.00003369,-0.00009165,0.00016792,0.00012109,-0.00022053,0.0002
 2635,0.00273235,0.00056154,0.00159409,0.00005895,-0.00112837,0.0002678
 9,-0.00024412,0.00047223,0.00009514,-0.00025355,-0.00027931,0.00012744
 ,0.00026326,-0.01924811,-0.12833186,-0.00021367,0.01433117,0.01395885,
 -0.07164037,0.01985828,0.31144310,0.00009617,0.00012533,-0.00013965,-0
 .00003254,-0.00002607,-0.00005019,0.00007298,0.00005862,0.00011230,0.0
 0004414,-0.00005232,0.00001046,0.00010393,-0.00083735,-0.00013748,-0.0
 0090323,0.00009800,0.00059747,-0.00113526,-0.00029429,-0.00198724,0.00
 055572,-0.00127827,0.00015843,0.00040857,0.00120801,0.00109275,0.00169
 935,0.10307658,0.00545958,-0.00059916,-0.00671897,0.00273641,0.0178637
 7,-0.07911290,-0.04020550,-0.00199630,-0.01224622,-0.00295371,0.000698
 86,-0.00001334,0.00111919,-0.00101945,-0.00076927,0.00075214,-0.000146
 22,0.00028195,0.00003246,0.00033945,-0.00047216,-0.00001101,-0.0002329
 9,0.00001983,-0.00055883,-0.00018172,0.00012939,0.00054010,0.00006534,
 0.00022387,-0.00002241,-0.00004768,-0.00004515,-0.00000114,-0.00002869
 ,0.00001647,-0.00014415,0.00427907,0.00134455,0.00315274,0.00002850,-0
 .00181824,0.00001660,-0.00021984,0.00043176,-0.00016709,-0.00029584,-0
 .00017213,0.00010129,-0.00421676,-0.02778234,-0.00249141,-0.00216487,0
 .00313394,0.00209296,-0.01687572,-0.00684171,0.01999172,0.00384039,-0.
 00016101,0.00010720,0.00027831,-0.00000358,0.00001635,-0.00009248,0.00
 008412,0.00002543,0.00008232,-0.00008110,-0.00001197,-0.00005886,0.000
 28438,-0.00080473,-0.00071535,-0.00066933,0.00015912,0.00033175,-0.000
 60152,0.00285725,0.00077889,-0.00096887,-0.00047503,-0.00087960,0.0009
 7715,0.00078870,0.00079439,0.01247661,-0.06105345,-0.00885204,-0.00100
 152,0.00128574,0.00024660,-0.00677788,-0.00567369,0.01660273,-0.001584
 76,-0.00278644,-0.00225433,0.00067206,-0.00033338,0.00105654,-0.000253
 00,-0.00050350,0.00056793,-0.00013214,-0.00003026,0.00001446,0.0003642
 0,0.00025758,-0.00010171,0.00033881,0.00042218,-0.00010369,-0.00011561
 ,0.00001061,0.00059455,0.00007030,0.00013930,0.00000007,-0.00018157,-0
 .00000323,-0.00005841,-0.00001483,0.00004725,-0.00035518,0.00146940,0.
 00011723,0.00172028,0.00048816,-0.00090652,0.00016843,-0.00008263,0.00
 035144,-0.00002016,0.00001473,0.00030192,-0.00014576,-0.01259805,-0.06
 744844,0.01853653,-0.00220648,-0.00488062,-0.00750081,-0.01813849,-0.1
 3800741,0.04273059,0.02833244,0.27603137,0.00005473,-0.00004837,0.0000
 7447,0.00013947,-0.00006655,0.00013960,-0.00010876,-0.00012244,-0.0001
 9112,-0.00013535,0.00000201,0.00002643,0.00040163,0.00054969,0.0004632
 9,0.00095348,-0.00032240,-0.00087031,-0.00118526,0.00051378,0.00062994
 ,-0.00059157,-0.00155271,0.00202610,0.00001646,-0.00212052,-0.00007165
 ,0.00039722,-0.11415665,-0.00068902,0.00087724,0.00847376,-0.00304004,
 -0.03798342,0.09272317,0.02779960,0.00380422,0.01686283,0.00345120,-0.
 00077547,-0.00005659,-0.00098630,0.00165620,0.00042243,-0.00052900,0.0
 0008812,-0.00013930,0.00007726,-0.00033376,0.00061905,-0.00002650,0.00
 072705,0.00013490,0.00023140,-0.00022541,0.00006347,-0.00050750,-0.000
 05097,-0.00027426,0.00000011,-0.00004079,-0.00011741,0.00015763,0.0000
 8596,-0.00000975,0.00024812,-0.00592748,-0.00244199,-0.00401527,0.0000
 2010,0.00254948,-0.00000230,0.00019804,-0.00039270,0.00024750,0.000452
 04,0.00025182,-0.00019500,0.00342184,0.01991093,0.02293365,0.00427937,
 -0.00614609,-0.00279898,0.01888186,0.04825642,-0.09574981,0.01090322,-
 0.06336599,0.05116648\\0.00000301,0.00000490,0.00000226,0.00000162,0.0
 0000633,0.00000243,-0.00000140,0.00000774,-0.00000348,0.00000068,0.000
 00485,-0.00000031,0.00000056,0.00000039,-0.00000067,0.00000008,0.00000
 125,0.00000125,-0.00000022,0.00000200,0.00000065,0.00000241,0.00000395
 ,0.00000285,-0.00000151,0.00000375,-0.00000232,0.00000023,-0.00000006,
 0.00000207,0.00000039,0.00000237,0.00000064,0.00000282,-0.00000062,0.0
 0000485,-0.00000020,-0.00000308,0.00000016,-0.00000008,-0.00000524,0.0
 0000134,0.00000048,-0.00000279,0.00000241,0.00000081,-0.00000029,0.000
 00177,0.00000026,-0.00000458,0.00000212,0.00000167,-0.00000261,0.00000
 525,-0.00000018,0.00000067,-0.00000202,-0.00000321,0.00000266,-0.00000
 659,-0.00000109,0.00000047,-0.00000326,-0.00000191,-0.00000208,-0.0000
 0501,-0.00000141,-0.00000270,-0.00000253,-0.00000215,-0.00000503,-0.00
 000324,-0.00000151,-0.00000075,-0.00000374,-0.00000240,-0.00000319,-0.
 00000487,0.00000018,-0.00000151,-0.00000020,0.00000022,-0.00000283,-0.
 00000169,0.00000037,-0.00000296,0.00000402,0.00000147,-0.00000101,0.00
 000585\\\@
 Job cpu time:  0 days 13 hours 25 minutes 25.6 seconds.
 File lengths (MBytes):  RWF=  73912 Int=      0 D2E=      0 Chk=     26 Scr=      1
 Normal termination of Gaussian 09 at Tue Feb 18 11:44:53 2014.
