using ub3lyp/6-31G(d) to scan                                           
SP        RM062X                                                      def2TZVP            
Number of atoms                            I               12
Info1-9                                    I   N=           9
          25          21           0           0           0         110
           1          18        -502
Charge                                     I                0
Multiplicity                               I                1
Number of electrons                        I               34
Number of alpha electrons                  I               17
Number of beta electrons                   I               17
Number of basis functions                  I              172
Number of independent functions            I              172
Number of point charges in /Mol/           I                0
Number of translation vectors              I                0
Atomic numbers                             I   N=          12
           6           1           1           1           6           1
           1           6           1           1           8           1
Nuclear charges                            R   N=          12
  6.00000000E+00  1.00000000E+00  1.00000000E+00  1.00000000E+00  6.00000000E+00
  1.00000000E+00  1.00000000E+00  6.00000000E+00  1.00000000E+00  1.00000000E+00
  8.00000000E+00  1.00000000E+00
Current cartesian coordinates              R   N=          36
  3.59599576E+00 -2.36984885E-01  3.18059805E-02  3.88583251E+00 -1.53887769E+00
 -1.55459265E+00  3.84953087E+00 -1.31765123E+00  1.78266937E+00  5.09353569E+00
  1.18949945E+00 -4.66913533E-02  9.74922940E-01  9.87330882E-01 -8.36903012E-02
  7.67867537E-01  2.33712635E+00  1.48553261E+00  7.63489042E-01  2.08142940E+00
 -1.83216507E+00 -1.17337064E+00 -9.41612737E-01  4.98736521E-02 -1.01392311E+00
 -2.06308772E+00  1.80105073E+00 -1.03511261E+00 -2.26941180E+00 -1.53331434E+00
 -3.60997407E+00  1.76286882E-01 -1.67662172E-01 -3.81671389E+00  1.31829185E+00
  1.25088154E+00
Force Field                                I                0
Int Atom Types                             I   N=          12
           0           0           0           0           0           0
           0           0           0           0           0           0
MM charges                                 R   N=          12
  0.00000000E+00  0.00000000E+00  0.00000000E+00  0.00000000E+00  0.00000000E+00
  0.00000000E+00  0.00000000E+00  0.00000000E+00  0.00000000E+00  0.00000000E+00
  0.00000000E+00  0.00000000E+00
Integer atomic weights                     I   N=          12
          12           1           1           1          12           1
           1          12           1           1          16           1
Real atomic weights                        R   N=          12
  1.20000000E+01  1.00782504E+00  1.00782504E+00  1.00782504E+00  1.20000000E+01
  1.00782504E+00  1.00782504E+00  1.20000000E+01  1.00782504E+00  1.00782504E+00
  1.59949146E+01  1.00782504E+00
Atom fragment info                         I   N=          12
           0           0           0           0           0           0
           0           0           0           0           0           0
Atom residue num                           I   N=          12
           0           0           0           0           0           0
           0           0           0           0           0           0
Nuclear spins                              I   N=          12
           0           1           1           1           0           1
           1           0           1           1           0           1
Nuclear ZEff                               R   N=          12
 -3.60000000E+00 -1.00000000E+00 -1.00000000E+00 -1.00000000E+00 -3.60000000E+00
 -1.00000000E+00 -1.00000000E+00 -3.60000000E+00 -1.00000000E+00 -1.00000000E+00
 -5.60000000E+00 -1.00000000E+00
Nuclear ZNuc                               R   N=          12
  6.00000000E+00  1.00000000E+00  1.00000000E+00  1.00000000E+00  6.00000000E+00
  1.00000000E+00  1.00000000E+00  6.00000000E+00  1.00000000E+00  1.00000000E+00
  8.00000000E+00  1.00000000E+00
Nuclear QMom                               R   N=          12
  0.00000000E+00  0.00000000E+00  0.00000000E+00  0.00000000E+00  0.00000000E+00
  0.00000000E+00  0.00000000E+00  0.00000000E+00  0.00000000E+00  0.00000000E+00
  0.00000000E+00  0.00000000E+00
Nuclear GFac                               R   N=          12
  0.00000000E+00  2.79284600E+00  2.79284600E+00  2.79284600E+00  0.00000000E+00
  2.79284600E+00  2.79284600E+00  0.00000000E+00  2.79284600E+00  2.79284600E+00
  0.00000000E+00  2.79284600E+00
MicOpt                                     I   N=          12
          -1          -1          -1          -1          -1          -1
          -1          -1          -1          -1          -1          -1
Number of contracted shells                I               76
Number of primitive shells                 I              128
Pure/Cartesian d shells                    I                0
Pure/Cartesian f shells                    I                0
Highest angular momentum                   I                3
Largest degree of contraction              I                6
Shell types                                I   N=          76
           0           0           0           0           0           1
           1           1          -2          -2          -3           0
           0           0           1           0           0           0
           1           0           0           0           1           0
           0           0           0           0           1           1
           1          -2          -2          -3           0           0
           0           1           0           0           0           1
           0           0           0           0           0           1
           1           1          -2          -2          -3           0
           0           0           1           0           0           0
           1           0           0           0           0           0
           1           1           1          -2          -2          -3
           0           0           0           1
Number of primitives per shell             I   N=          76
           6           2           1           1           1           4
           1           1           1           1           1           3
           1           1           1           3           1           1
           1           3           1           1           1           6
           2           1           1           1           4           1
           1           1           1           1           3           1
           1           1           3           1           1           1
           6           2           1           1           1           4
           1           1           1           1           1           3
           1           1           1           3           1           1
           1           6           2           1           1           1
           4           1           1           1           1           1
           3           1           1           1
Shell to atom map                          I   N=          76
           1           1           1           1           1           1
           1           1           1           1           1           2
           2           2           2           3           3           3
           3           4           4           4           4           5
           5           5           5           5           5           5
           5           5           5           5           6           6
           6           6           7           7           7           7
           8           8           8           8           8           8
           8           8           8           8           8           9
           9           9           9          10          10          10
          10          11          11          11          11          11
          11          11          11          11          11          11
          12          12          12          12
Primitive exponents                        R   N=         128
  1.35753497E+04  2.03523337E+03  4.63225624E+02  1.31200196E+02  4.28530159E+01
  1.55841858E+01  6.20671385E+00  2.57648965E+00  5.76963394E-01  2.29728314E-01
  9.51644400E-02  3.46972322E+01  7.95826228E+00  2.37808269E+00  8.14332082E-01
  2.88875473E-01  1.00568237E-01  1.09700000E+00  3.18000000E-01  7.61000000E-01
  3.40613410E+01  5.12357460E+00  1.16466260E+00  3.27230410E-01  1.03072410E-01
  8.00000000E-01  3.40613410E+01  5.12357460E+00  1.16466260E+00  3.27230410E-01
  1.03072410E-01  8.00000000E-01  3.40613410E+01  5.12357460E+00  1.16466260E+00
  3.27230410E-01  1.03072410E-01  8.00000000E-01  1.35753497E+04  2.03523337E+03
  4.63225624E+02  1.31200196E+02  4.28530159E+01  1.55841858E+01  6.20671385E+00
  2.57648965E+00  5.76963394E-01  2.29728314E-01  9.51644400E-02  3.46972322E+01
  7.95826228E+00  2.37808269E+00  8.14332082E-01  2.88875473E-01  1.00568237E-01
  1.09700000E+00  3.18000000E-01  7.61000000E-01  3.40613410E+01  5.12357460E+00
  1.16466260E+00  3.27230410E-01  1.03072410E-01  8.00000000E-01  3.40613410E+01
  5.12357460E+00  1.16466260E+00  3.27230410E-01  1.03072410E-01  8.00000000E-01
  1.35753497E+04  2.03523337E+03  4.63225624E+02  1.31200196E+02  4.28530159E+01
  1.55841858E+01  6.20671385E+00  2.57648965E+00  5.76963394E-01  2.29728314E-01
  9.51644400E-02  3.46972322E+01  7.95826228E+00  2.37808269E+00  8.14332082E-01
  2.88875473E-01  1.00568237E-01  1.09700000E+00  3.18000000E-01  7.61000000E-01
  3.40613410E+01  5.12357460E+00  1.16466260E+00  3.27230410E-01  1.03072410E-01
  8.00000000E-01  3.40613410E+01  5.12357460E+00  1.16466260E+00  3.27230410E-01
  1.03072410E-01  8.00000000E-01  2.70323826E+04  4.05238714E+03  9.22327227E+02
  2.61240710E+02  8.53546414E+01  3.10350352E+01  1.22608607E+01  4.99870760E+00
  1.17031082E+00  4.64747410E-01  1.85045364E-01  6.32749548E+01  1.46270494E+01
  4.45012235E+00  1.52757996E+00  5.29351179E-01  1.74784213E-01  2.31400000E+00
  6.45000000E-01  1.42800000E+00  3.40613410E+01  5.12357460E+00  1.16466260E+00
  3.27230410E-01  1.03072410E-01  8.00000000E-01
Contraction coefficients                   R   N=         128
  6.06455036E-04  4.69790889E-03  2.43324776E-02  9.73999683E-02  3.01955843E-01
  6.62336091E-01  6.55953085E-01  3.75856333E-01  1.00000000E+00  1.00000000E+00
  1.00000000E+00  1.13272200E-02  7.61696592E-02  3.01922522E-01  7.27850273E-01
  1.00000000E+00  1.00000000E+00  1.00000000E+00  1.00000000E+00  1.00000000E+00
  2.54393072E-02  1.90085949E-01  8.52441130E-01  1.00000000E+00  1.00000000E+00
  1.00000000E+00  2.54393072E-02  1.90085949E-01  8.52441130E-01  1.00000000E+00
  1.00000000E+00  1.00000000E+00  2.54393072E-02  1.90085949E-01  8.52441130E-01
  1.00000000E+00  1.00000000E+00  1.00000000E+00  6.06455036E-04  4.69790889E-03
  2.43324776E-02  9.73999683E-02  3.01955843E-01  6.62336091E-01  6.55953085E-01
  3.75856333E-01  1.00000000E+00  1.00000000E+00  1.00000000E+00  1.13272200E-02
  7.61696592E-02  3.01922522E-01  7.27850273E-01  1.00000000E+00  1.00000000E+00
  1.00000000E+00  1.00000000E+00  1.00000000E+00  2.54393072E-02  1.90085949E-01
  8.52441130E-01  1.00000000E+00  1.00000000E+00  1.00000000E+00  2.54393072E-02
  1.90085949E-01  8.52441130E-01  1.00000000E+00  1.00000000E+00  1.00000000E+00
  6.06455036E-04  4.69790889E-03  2.43324776E-02  9.73999683E-02  3.01955843E-01
  6.62336091E-01  6.55953085E-01  3.75856333E-01  1.00000000E+00  1.00000000E+00
  1.00000000E+00  1.13272200E-02  7.61696592E-02  3.01922522E-01  7.27850273E-01
  1.00000000E+00  1.00000000E+00  1.00000000E+00  1.00000000E+00  1.00000000E+00
  2.54393072E-02  1.90085949E-01  8.52441130E-01  1.00000000E+00  1.00000000E+00
  1.00000000E+00  2.54393072E-02  1.90085949E-01  8.52441130E-01  1.00000000E+00
  1.00000000E+00  1.00000000E+00  5.72273352E-04  4.43532335E-03  2.30201077E-02
  9.28224907E-02  2.93785000E-01  6.74016045E-01  6.38399370E-01  3.95345871E-01
  1.00000000E+00  1.00000000E+00  1.00000000E+00  1.20183322E-02  8.30054218E-02
  3.19917439E-01  7.07155429E-01  1.00000000E+00  1.00000000E+00  1.00000000E+00
  1.00000000E+00  1.00000000E+00  2.54393072E-02  1.90085949E-01  8.52441130E-01
  1.00000000E+00  1.00000000E+00  1.00000000E+00
Coordinates of each shell                  R   N=         228
  3.59599571E+00 -2.36985295E-01  3.18057026E-02  3.59599571E+00 -2.36985295E-01
  3.18057026E-02  3.59599571E+00 -2.36985295E-01  3.18057026E-02  3.59599571E+00
 -2.36985295E-01  3.18057026E-02  3.59599571E+00 -2.36985295E-01  3.18057026E-02
  3.59599571E+00 -2.36985295E-01  3.18057026E-02  3.59599571E+00 -2.36985295E-01
  3.18057026E-02  3.59599571E+00 -2.36985295E-01  3.18057026E-02  3.59599571E+00
 -2.36985295E-01  3.18057026E-02  3.59599571E+00 -2.36985295E-01  3.18057026E-02
  3.59599571E+00 -2.36985295E-01  3.18057026E-02  3.88583244E+00 -1.53887810E+00
 -1.55459293E+00  3.88583244E+00 -1.53887810E+00 -1.55459293E+00  3.88583244E+00
 -1.53887810E+00 -1.55459293E+00  3.88583244E+00 -1.53887810E+00 -1.55459293E+00
  3.84953081E+00 -1.31765164E+00  1.78266909E+00  3.84953081E+00 -1.31765164E+00
  1.78266909E+00  3.84953081E+00 -1.31765164E+00  1.78266909E+00  3.84953081E+00
 -1.31765164E+00  1.78266909E+00  5.09353564E+00  1.18949903E+00 -4.66916312E-02
  5.09353564E+00  1.18949903E+00 -4.66916312E-02  5.09353564E+00  1.18949903E+00
 -4.66916312E-02  5.09353564E+00  1.18949903E+00 -4.66916312E-02  9.74922890E-01
  9.87330487E-01 -8.36905791E-02  9.74922890E-01  9.87330487E-01 -8.36905791E-02
  9.74922890E-01  9.87330487E-01 -8.36905791E-02  9.74922890E-01  9.87330487E-01
 -8.36905791E-02  9.74922890E-01  9.87330487E-01 -8.36905791E-02  9.74922890E-01
  9.87330487E-01 -8.36905791E-02  9.74922890E-01  9.87330487E-01 -8.36905791E-02
  9.74922890E-01  9.87330487E-01 -8.36905791E-02  9.74922890E-01  9.87330487E-01
 -8.36905791E-02  9.74922890E-01  9.87330487E-01 -8.36905791E-02  9.74922890E-01
  9.87330487E-01 -8.36905791E-02  7.67867495E-01  2.33712596E+00  1.48553233E+00
  7.67867495E-01  2.33712596E+00  1.48553233E+00  7.67867495E-01  2.33712596E+00
  1.48553233E+00  7.67867495E-01  2.33712596E+00  1.48553233E+00  7.63488998E-01
  2.08142901E+00 -1.83216535E+00  7.63488998E-01  2.08142901E+00 -1.83216535E+00
  7.63488998E-01  2.08142901E+00 -1.83216535E+00  7.63488998E-01  2.08142901E+00
 -1.83216535E+00 -1.17337070E+00 -9.41613120E-01  4.98733742E-02 -1.17337070E+00
 -9.41613120E-01  4.98733742E-02 -1.17337070E+00 -9.41613120E-01  4.98733742E-02
 -1.17337070E+00 -9.41613120E-01  4.98733742E-02 -1.17337070E+00 -9.41613120E-01
  4.98733742E-02 -1.17337070E+00 -9.41613120E-01  4.98733742E-02 -1.17337070E+00
 -9.41613120E-01  4.98733742E-02 -1.17337070E+00 -9.41613120E-01  4.98733742E-02
 -1.17337070E+00 -9.41613120E-01  4.98733742E-02 -1.17337070E+00 -9.41613120E-01
  4.98733742E-02 -1.17337070E+00 -9.41613120E-01  4.98733742E-02 -1.01392318E+00
 -2.06308810E+00  1.80105046E+00 -1.01392318E+00 -2.06308810E+00  1.80105046E+00
 -1.01392318E+00 -2.06308810E+00  1.80105046E+00 -1.01392318E+00 -2.06308810E+00
  1.80105046E+00 -1.03511268E+00 -2.26941218E+00 -1.53331461E+00 -1.03511268E+00
 -2.26941218E+00 -1.53331461E+00 -1.03511268E+00 -2.26941218E+00 -1.53331461E+00
 -1.03511268E+00 -2.26941218E+00 -1.53331461E+00 -3.60997412E+00  1.76286513E-01
 -1.67662450E-01 -3.60997412E+00  1.76286513E-01 -1.67662450E-01 -3.60997412E+00
  1.76286513E-01 -1.67662450E-01 -3.60997412E+00  1.76286513E-01 -1.67662450E-01
 -3.60997412E+00  1.76286513E-01 -1.67662450E-01 -3.60997412E+00  1.76286513E-01
 -1.67662450E-01 -3.60997412E+00  1.76286513E-01 -1.67662450E-01 -3.60997412E+00
  1.76286513E-01 -1.67662450E-01 -3.60997412E+00  1.76286513E-01 -1.67662450E-01
 -3.60997412E+00  1.76286513E-01 -1.67662450E-01 -3.60997412E+00  1.76286513E-01
 -1.67662450E-01 -3.81671393E+00  1.31829148E+00  1.25088126E+00 -3.81671393E+00
  1.31829148E+00  1.25088126E+00 -3.81671393E+00  1.31829148E+00  1.25088126E+00
 -3.81671393E+00  1.31829148E+00  1.25088126E+00
Constraint Structure                       R   N=          36
  3.59599571E+00 -2.36985295E-01  3.18057026E-02  3.88583244E+00 -1.53887810E+00
 -1.55459293E+00  3.84953081E+00 -1.31765164E+00  1.78266909E+00  5.09353564E+00
  1.18949903E+00 -4.66916312E-02  9.74922890E-01  9.87330487E-01 -8.36905791E-02
  7.67867495E-01  2.33712596E+00  1.48553233E+00  7.63488998E-01  2.08142901E+00
 -1.83216535E+00 -1.17337070E+00 -9.41613120E-01  4.98733742E-02 -1.01392318E+00
 -2.06308810E+00  1.80105046E+00 -1.03511268E+00 -2.26941218E+00 -1.53331461E+00
 -3.60997412E+00  1.76286513E-01 -1.67662450E-01 -3.81671393E+00  1.31829148E+00
  1.25088126E+00
Num ILSW                                   I              100
ILSW                                       I   N=         100
           0           0           0           0           2           0
           0           0           0           0        4336          -1
           0           0           0           0           0           0
           0           0           0           0           0           0
           1           0           0           0           0           0
           0           0      100000           0          -1           0
           0           0           0           0           0           0
           0           0           0           1           0           0
           0           0           1           0           0           0
           0           0           4          41           0           0
           0           0          55           0           0           0
           0           0           0          12           0           0
           0           0           0           0           0           0
           0           0           0           0           0           0
           0           0           0           0           0           0
           0           0           0           0           0           0
           0           0           0           0
Num RLSW                                   I               41
RLSW                                       R   N=          41
  1.00000000E+00  1.00000000E+00  1.00000000E+00  1.00000000E+00  5.40000000E-01
  0.00000000E+00  0.00000000E+00  1.00000000E+00  0.00000000E+00  0.00000000E+00
  0.00000000E+00  0.00000000E+00  1.00000000E+00  0.00000000E+00  0.00000000E+00
  0.00000000E+00  0.00000000E+00  1.00000000E+00  0.00000000E+00  0.00000000E+00
  0.00000000E+00  0.00000000E+00  1.00000000E+00  0.00000000E+00  0.00000000E+00
  0.00000000E+00  0.00000000E+00  1.00000000E+00  0.00000000E+00  0.00000000E+00
  0.00000000E+00  0.00000000E+00  1.00000000E+00  0.00000000E+00  0.00000000E+00
  0.00000000E+00  0.00000000E+00  0.00000000E+00  1.00000000E+00  1.00000000E+00
  0.00000000E+00
ECP-MxAtEC                                 I           250000
ECP-MaxLECP                                I               10
ECP-MaxAtL                                 I          2250000
ECP-MxTECP                                 I         11250000
ECP-LenNCZ                                 I                0
ECP-KFirst                                 I   N=         120
           0           0           0           0           0           0
           0           0           0           0           0           0
           0           0           0           0           0           0
           0           0           0           0           0           0
           0           0           0           0           0           0
           0           0           0           0           0           0
           0           0           0           0           0           0
           0           0           0           0           0           0
           0           0           0           0           0           0
           0           0           0           0           0           0
           0           0           0           0           0           0
           0           0           0           0           0           0
           0           0           0           0           0           0
           0           0           0           0           0           0
           0           0           0           0           0           0
           0           0           0           0           0           0
           0           0           0           0           0           0
           0           0           0           0           0           0
           0           0           0           0           0           0
           0           0           0           0           0           0
ECP-KLast                                  I   N=         120
           0           0           0           0           0           0
           0           0           0           0           0           0
           0           0           0           0           0           0
           0           0           0           0           0           0
           0           0           0           0           0           0
           0           0           0           0           0           0
           0           0           0           0           0           0
           0           0           0           0           0           0
           0           0           0           0           0           0
           0           0           0           0           0           0
           0           0           0           0           0           0
           0           0           0           0           0           0
           0           0           0           0           0           0
           0           0           0           0           0           0
           0           0           0           0           0           0
           0           0           0           0           0           0
           0           0           0           0           0           0
           0           0           0           0           0           0
           0           0           0           0           0           0
           0           0           0           0           0           0
ECP-LMax                                   I   N=          12
           0           0           0           0           0           0
           0           0           0           0           0           0
ECP-LPSkip                                 I   N=          12
           1           1           1           1           1           1
           1           1           1           1           1           1
ECP-RNFroz                                 R   N=          12
  0.00000000E+00  0.00000000E+00  0.00000000E+00  0.00000000E+00  0.00000000E+00
  0.00000000E+00  0.00000000E+00  0.00000000E+00  0.00000000E+00  0.00000000E+00
  0.00000000E+00  0.00000000E+00
ECP-NLP                                    I                0
ECP-CLP1                                   R      0.000000000000000E+00
ECP-CLP2                                   R      0.000000000000000E+00
ECP-ZLP                                    R      0.000000000000000E+00
MxBond                                     I                4
NBond                                      I   N=          12
           4           1           1           1           4           1
           1           4           1           1           2           1
IBond                                      I   N=          48
           2           3           4           5           1           0
           0           0           1           0           0           0
           1           0           0           0           1           6
           7           8           5           0           0           0
           5           0           0           0           5           9
          10          11           8           0           0           0
           8           0           0           0           8          12
           0           0          11           0           0           0
RBond                                      R   N=          48
  1.00000000E+00  1.00000000E+00  1.00000000E+00  1.00000000E+00  1.00000000E+00
  0.00000000E+00  0.00000000E+00  0.00000000E+00  1.00000000E+00  0.00000000E+00
  0.00000000E+00  0.00000000E+00  1.00000000E+00  0.00000000E+00  0.00000000E+00
  0.00000000E+00  1.00000000E+00  1.00000000E+00  1.00000000E+00  1.00000000E+00
  1.00000000E+00  0.00000000E+00  0.00000000E+00  0.00000000E+00  1.00000000E+00
  0.00000000E+00  0.00000000E+00  0.00000000E+00  1.00000000E+00  1.00000000E+00
  1.00000000E+00  1.00000000E+00  1.00000000E+00  0.00000000E+00  0.00000000E+00
  0.00000000E+00  1.00000000E+00  0.00000000E+00  0.00000000E+00  0.00000000E+00
  1.00000000E+00  1.00000000E+00  0.00000000E+00  0.00000000E+00  1.00000000E+00
  0.00000000E+00  0.00000000E+00  0.00000000E+00
Virial Ratio                               R      2.005453065605623E+00
SCF Energy                                 R     -1.943337005544983E+02
Total Energy                               R     -1.943337005544983E+02
RMS Density                                R      9.924545819594554E-09
External E-field                           R   N=          35
  0.00000000E+00  0.00000000E+00  0.00000000E+00  0.00000000E+00  0.00000000E+00
  0.00000000E+00  0.00000000E+00  0.00000000E+00  0.00000000E+00  0.00000000E+00
  0.00000000E+00  0.00000000E+00  0.00000000E+00  0.00000000E+00  0.00000000E+00
  0.00000000E+00  0.00000000E+00  0.00000000E+00  0.00000000E+00  0.00000000E+00
  0.00000000E+00  0.00000000E+00  0.00000000E+00  0.00000000E+00  0.00000000E+00
  0.00000000E+00  0.00000000E+00  0.00000000E+00  0.00000000E+00  0.00000000E+00
  0.00000000E+00  0.00000000E+00  0.00000000E+00  0.00000000E+00  0.00000000E+00
IOpCl                                      I                0
IROHF                                      I                0
Alpha Orbital Energies                     R   N=         172
 -1.96215793E+01 -1.05801852E+01 -1.05351325E+01 -1.05307121E+01 -1.13886928E+00
 -8.77745151E-01 -7.64657834E-01 -6.82898136E-01 -5.82640070E-01 -5.34471825E-01
 -4.97987367E-01 -4.89984276E-01 -4.53874812E-01 -4.17981570E-01 -4.11864370E-01
 -3.86679390E-01 -3.46187781E-01  6.04880554E-02  7.60594560E-02  1.10944747E-01
  1.18536750E-01  1.38673879E-01  1.50061064E-01  1.57312557E-01  1.81168257E-01
  1.86108010E-01  2.17657044E-01  2.27571214E-01  2.43036900E-01  2.66054634E-01
  2.80416490E-01  3.10712635E-01  3.37203152E-01  3.62727978E-01  3.67722542E-01
  4.01275118E-01  4.31270219E-01  4.36181373E-01  4.54282225E-01  4.64498093E-01
  4.76728483E-01  4.84601182E-01  5.11793378E-01  5.20378249E-01  5.50764403E-01
  5.57888427E-01  5.93927286E-01  6.19584303E-01  6.22802214E-01  6.45465588E-01
  6.52876660E-01  7.43680117E-01  7.93489355E-01  8.44580889E-01  8.58668547E-01
  8.78013972E-01  9.08360118E-01  9.55642810E-01  1.00680710E+00  1.04186666E+00
  1.05108102E+00  1.11577123E+00  1.13950305E+00  1.14892917E+00  1.17525007E+00
  1.21207206E+00  1.26441263E+00  1.39988237E+00  1.47399070E+00  1.48807087E+00
  1.55383197E+00  1.56942427E+00  1.57340654E+00  1.58871914E+00  1.61574956E+00
  1.61867526E+00  1.62967002E+00  1.66678176E+00  1.69702830E+00  1.73133997E+00
  1.80317795E+00  1.84808685E+00  1.86930630E+00  1.89053633E+00  1.90634260E+00
  1.92138133E+00  1.93643049E+00  1.95536330E+00  2.01029114E+00  2.09503215E+00
  2.10478723E+00  2.12346347E+00  2.21550510E+00  2.26319143E+00  2.29823403E+00
  2.31946769E+00  2.33809030E+00  2.35257258E+00  2.37190595E+00  2.39570284E+00
  2.40399715E+00  2.46955502E+00  2.49208428E+00  2.50615859E+00  2.54424743E+00
  2.58380641E+00  2.58724039E+00  2.63939895E+00  2.64632037E+00  2.68427862E+00
  2.69270528E+00  2.72207238E+00  2.73555809E+00  2.78367997E+00  2.83154127E+00
  2.85029476E+00  2.93476536E+00  2.96476020E+00  3.03845388E+00  3.07243009E+00
  3.09252986E+00  3.12386462E+00  3.16626729E+00  3.19788022E+00  3.21573608E+00
  3.22181292E+00  3.24515059E+00  3.25748782E+00  3.29992566E+00  3.34510471E+00
  3.36010100E+00  3.39239314E+00  3.47979831E+00  3.49281518E+00  3.53298402E+00
  3.57226659E+00  3.58494478E+00  3.60061433E+00  3.77564841E+00  3.78817054E+00
  3.85230940E+00  3.89142900E+00  3.94455529E+00  3.95650319E+00  4.01726312E+00
  4.10629008E+00  4.23196701E+00  4.26305963E+00  4.31178322E+00  4.39443274E+00
  4.49865907E+00  4.51912191E+00  4.54527152E+00  4.60536480E+00  4.74293057E+00
  4.80227720E+00  5.28372154E+00  5.36836663E+00  5.46983508E+00  5.72408764E+00
  5.76301728E+00  5.88602996E+00  6.24448304E+00  6.45344897E+00  6.66756437E+00
  6.76097512E+00  6.95490833E+00  7.11218849E+00  2.23959061E+01  2.24810342E+01
  2.25461291E+01  4.39001389E+01
Alpha MO coefficients                      R   N=       29584
  2.81662092E-06 -1.44080048E-05 -4.68507024E-05  1.33401258E-03 -2.49645604E-03
 -6.76169732E-05 -2.66276015E-05  2.01677924E-06 -5.95123193E-04  8.11117728E-04
 -8.39938985E-05  9.20081712E-04  5.01469511E-05 -1.31603005E-07 -1.73962118E-05
 -1.26989349E-06  2.71548518E-06  8.67768980E-05 -4.74033669E-06 -3.03056372E-04
  3.32263055E-05 -3.45224697E-05 -1.54159423E-04 -2.71206105E-04  6.53061062E-07
  3.90319182E-06  7.17094747E-06  1.92470717E-07  4.95686959E-06  2.36246986E-05
  3.92845288E-05 -2.31379684E-05  3.16676009E-04  9.21337995E-05 -1.90917383E-05
  4.28104823E-05  2.22082672E-05 -2.09270224E-05  3.66974238E-04  1.01258981E-04
 -2.84181485E-05  4.63121346E-05 -3.51364636E-05 -3.14841362E-05 -1.05634407E-04
  1.31002890E-04  7.88785677E-05 -1.15663174E-05 -4.09313276E-07  9.21332213E-06
 -4.18961204E-05  4.34172374E-04 -5.48810735E-04  4.54703429E-03 -2.68478828E-05