 Entering Gaussian System, Link 0=g09
 Initial command:
 /usr/caen/gaussian-09revc/g09/l1.exe /scratch/avioli_flux/hetanjin/scratch/Gau-982.inp -scrdir=/scratch/avioli_flux/hetanjin/scratch/
 Entering Link 1 = /usr/caen/gaussian-09revc/g09/l1.exe PID=       983.
  
 Copyright (c) 1988,1990,1992,1993,1995,1998,2003,2009,2011,
            Gaussian, Inc.  All Rights Reserved.
  
 This is part of the Gaussian(R) 09 program.  It is based on
 the Gaussian(R) 03 system (copyright 2003, Gaussian, Inc.),
 the Gaussian(R) 98 system (copyright 1998, Gaussian, Inc.),
 the Gaussian(R) 94 system (copyright 1995, Gaussian, Inc.),
 the Gaussian 92(TM) system (copyright 1992, Gaussian, Inc.),
 the Gaussian 90(TM) system (copyright 1990, Gaussian, Inc.),
 the Gaussian 88(TM) system (copyright 1988, Gaussian, Inc.),
 the Gaussian 86(TM) system (copyright 1986, Carnegie Mellon
 University), and the Gaussian 82(TM) system (copyright 1983,
 Carnegie Mellon University). Gaussian is a federally registered
 trademark of Gaussian, Inc.
  
 This software contains proprietary and confidential information,
 including trade secrets, belonging to Gaussian, Inc.
  
 This software is provided under written license and may be
 used, copied, transmitted, or stored only in accord with that
 written license.
  
 The following legend is applicable only to US Government
 contracts under FAR:
  
                    RESTRICTED RIGHTS LEGEND
  
 Use, reproduction and disclosure by the US Government is
 subject to restrictions as set forth in subparagraphs (a)
 and (c) of the Commercial Computer Software - Restricted
 Rights clause in FAR 52.227-19.
  
 Gaussian, Inc.
 340 Quinnipiac St., Bldg. 40, Wallingford CT 06492
  
  
 ---------------------------------------------------------------
 Warning -- This program may not be used in any manner that
 competes with the business of Gaussian, Inc. or will provide
 assistance to any competitor of Gaussian, Inc.  The licensee
 of this program is prohibited from giving any competitor of
 Gaussian, Inc. access to this program.  By using this program,
 the user acknowledges that Gaussian, Inc. is engaged in the
 business of creating and licensing software in the field of
 computational chemistry and represents and warrants to the
 licensee that it is not a competitor of Gaussian, Inc. and that
 it will not use this program in any manner prohibited above.
 ---------------------------------------------------------------
  

 Cite this work as:
 Gaussian 09, Revision C.01,
 M. J. Frisch, G. W. Trucks, H. B. Schlegel, G. E. Scuseria, 
 M. A. Robb, J. R. Cheeseman, G. Scalmani, V. Barone, B. Mennucci, 
 G. A. Petersson, H. Nakatsuji, M. Caricato, X. Li, H. P. Hratchian, 
 A. F. Izmaylov, J. Bloino, G. Zheng, J. L. Sonnenberg, M. Hada, 
 M. Ehara, K. Toyota, R. Fukuda, J. Hasegawa, M. Ishida, T. Nakajima, 
 Y. Honda, O. Kitao, H. Nakai, T. Vreven, J. A. Montgomery, Jr., 
 J. E. Peralta, F. Ogliaro, M. Bearpark, J. J. Heyd, E. Brothers, 
 K. N. Kudin, V. N. Staroverov, T. Keith, R. Kobayashi, J. Normand, 
 K. Raghavachari, A. Rendell, J. C. Burant, S. S. Iyengar, J. Tomasi, 
 M. Cossi, N. Rega, J. M. Millam, M. Klene, J. E. Knox, J. B. Cross, 
 V. Bakken, C. Adamo, J. Jaramillo, R. Gomperts, R. E. Stratmann, 
 O. Yazyev, A. J. Austin, R. Cammi, C. Pomelli, J. W. Ochterski, 
 R. L. Martin, K. Morokuma, V. G. Zakrzewski, G. A. Voth, 
 P. Salvador, J. J. Dannenberg, S. Dapprich, A. D. Daniels, 
 O. Farkas, J. B. Foresman, J. V. Ortiz, J. Cioslowski, 
 and D. J. Fox, Gaussian, Inc., Wallingford CT, 2010.
 
 ******************************************
 Gaussian 09:  EM64L-G09RevC.01 23-Sep-2011
                 7-Feb-2014 
 ******************************************
 %mem=30GB
 %nprocshared=8
 Will use up to    8 processors via shared memory.
 %chk=C9H18_1_26.chk
 -------------------------------------------------
 #p stable=(opt,xqc) b3lyp/6-311++g(d,p) guess=mix
 -------------------------------------------------
 1/38=1/1;
 2/12=2,17=6,18=5,40=1/2;
 3/5=4,6=6,7=1111,11=2,16=1,25=1,30=1,74=-5/1,2,3;
 4/13=-1/1;
 5/5=2,38=5/2;
 6/7=2,8=2,9=2,10=2,28=1/1;
 8/6=1,10=90,11=11/1;
 9/8=-3,42=1,46=1/14;
 5/5=2,8=3,13=1,17=40,38=5/2,8(-2);
 6/7=2,8=2,9=2,10=2,28=1/1;
 99/5=1,9=1/99;
 Leave Link    1 at Fri Feb  7 01:20:38 2014, MaxMem= 4026531840 cpu:       0.6
 (Enter /usr/caen/gaussian-09revc/g09/l101.exe)
 ------------------------------------------------------------
 C9H18_1_26 using B3LYP/6-311++g(d,p) to do opt and cal. freq
 ------------------------------------------------------------
 Charge =  0 Multiplicity = 1
 Symbolic Z-Matrix:
 C                    -3.17301  -1.66954  -0.19397 
 H                    -2.87617  -2.71161  -0.33638 
 H                    -3.39945  -1.24766  -1.17651 
 H                    -4.09526  -1.66148   0.39469 
 C                    -2.05413  -0.87986   0.50238 
 C                    -0.73961  -0.93993  -0.29882 
 H                    -0.55589  -1.99184  -0.54858 
 H                    -0.8744   -0.42299  -1.25598 
 C                     0.49652  -0.37953   0.41648 
 H                     0.59872  -0.86202   1.39833 
 H                     0.35867   0.68881   0.60351 
 C                     1.78599  -0.59801  -0.38576 
 H                     1.69941  -0.08941  -1.35556 
 H                     1.88007  -1.66787  -0.61185 
 C                     3.08034  -0.13145   0.30742 
 H                     3.12047  -0.61431   1.29398 
 C                     4.31064  -0.59099  -0.48791 
 H                     4.31678  -0.14434  -1.48839 
 H                     5.23878  -0.29712   0.0113 
 H                     4.3251   -1.67831  -0.60927 
 C                     3.11823   1.38842   0.52354 
 H                     4.04969   1.68942   1.01217 
 H                     3.05973   1.91767  -0.43412 
 H                     2.29233   1.73843   1.1474 
 C                    -2.50965   0.54486   0.83292 
 H                    -2.63249   0.9784    1.80341 
 H                    -2.87034   1.29134  -0.37199 
 
 NAtoms=     27 NQM=        0 NQMF=       0 NMMI=     27 NMMIF=      0
                NMic=       0 NMicF=      0.
                    Isotopes and Nuclear Properties:
 (Nuclear quadrupole moments (NQMom) in fm**2, nuclear magnetic moments (NMagM)
  in nuclear magnetons)

  Atom         1           2           3           4           5           6           7           8           9          10
 IAtWgt=          12           1           1           1          12          12           1           1          12           1
 AtmWgt=  12.0000000   1.0078250   1.0078250   1.0078250  12.0000000  12.0000000   1.0078250   1.0078250  12.0000000   1.0078250
 NucSpn=           0           1           1           1           0           0           1           1           0           1
 AtZEff=   0.0000000   0.0000000   0.0000000   0.0000000   0.0000000   0.0000000   0.0000000   0.0000000   0.0000000   0.0000000
 NQMom=    0.0000000   0.0000000   0.0000000   0.0000000   0.0000000   0.0000000   0.0000000   0.0000000   0.0000000   0.0000000
 NMagM=    0.0000000   2.7928460   2.7928460   2.7928460   0.0000000   0.0000000   2.7928460   2.7928460   0.0000000   2.7928460

  Atom        11          12          13          14          15          16          17          18          19          20
 IAtWgt=           1          12           1           1          12           1          12           1           1           1
 AtmWgt=   1.0078250  12.0000000   1.0078250   1.0078250  12.0000000   1.0078250  12.0000000   1.0078250   1.0078250   1.0078250
 NucSpn=           1           0           1           1           0           1           0           1           1           1
 AtZEff=   0.0000000   0.0000000   0.0000000   0.0000000   0.0000000   0.0000000   0.0000000   0.0000000   0.0000000   0.0000000
 NQMom=    0.0000000   0.0000000   0.0000000   0.0000000   0.0000000   0.0000000   0.0000000   0.0000000   0.0000000   0.0000000
 NMagM=    2.7928460   0.0000000   2.7928460   2.7928460   0.0000000   2.7928460   0.0000000   2.7928460   2.7928460   2.7928460

  Atom        21          22          23          24          25          26          27
 IAtWgt=          12           1           1           1          12           1           1
 AtmWgt=  12.0000000   1.0078250   1.0078250   1.0078250  12.0000000   1.0078250   1.0078250
 NucSpn=           0           1           1           1           0           1           1
 AtZEff=   0.0000000   0.0000000   0.0000000   0.0000000   0.0000000   0.0000000   0.0000000
 NQMom=    0.0000000   0.0000000   0.0000000   0.0000000   0.0000000   0.0000000   0.0000000
 NMagM=    0.0000000   2.7928460   2.7928460   2.7928460   0.0000000   2.7928460   2.7928460
 Leave Link  101 at Fri Feb  7 01:20:38 2014, MaxMem= 4026531840 cpu:       0.6
 (Enter /usr/caen/gaussian-09revc/g09/l202.exe)
                          Input orientation:                          
 ---------------------------------------------------------------------
 Center     Atomic      Atomic             Coordinates (Angstroms)
 Number     Number       Type             X           Y           Z
 ---------------------------------------------------------------------
      1          6           0       -3.173014   -1.669538   -0.193965
      2          1           0       -2.876169   -2.711612   -0.336378
      3          1           0       -3.399449   -1.247661   -1.176513
      4          1           0       -4.095257   -1.661481    0.394692
      5          6           0       -2.054134   -0.879861    0.502380
      6          6           0       -0.739611   -0.939929   -0.298821
      7          1           0       -0.555894   -1.991835   -0.548576
      8          1           0       -0.874402   -0.422986   -1.255980
      9          6           0        0.496519   -0.379528    0.416475
     10          1           0        0.598724   -0.862021    1.398330
     11          1           0        0.358666    0.688807    0.603514
     12          6           0        1.785988   -0.598005   -0.385763
     13          1           0        1.699407   -0.089406   -1.355555
     14          1           0        1.880069   -1.667866   -0.611848
     15          6           0        3.080336   -0.131454    0.307420
     16          1           0        3.120467   -0.614312    1.293978
     17          6           0        4.310638   -0.590989   -0.487909
     18          1           0        4.316782   -0.144337   -1.488392
     19          1           0        5.238775   -0.297116    0.011302
     20          1           0        4.325105   -1.678305   -0.609266
     21          6           0        3.118227    1.388421    0.523541
     22          1           0        4.049695    1.689416    1.012167
     23          1           0        3.059733    1.917672   -0.434118
     24          1           0        2.292328    1.738431    1.147402
     25          6           0       -2.509649    0.544864    0.832923
     26          1           0       -2.632488    0.978403    1.803415
     27          1           0       -2.870339    1.291342   -0.371991
 ---------------------------------------------------------------------
                    Distance matrix (angstroms):
                    1          2          3          4          5
     1  C    0.000000
     2  H    1.092848   0.000000
     3  H    1.093002   1.767145   0.000000
     4  H    1.094127   1.767318   1.767507   0.000000
     5  C    1.536352   2.175906   2.182620   2.188312   0.000000
     6  C    2.542592   2.775815   2.817762   3.501708   1.540617
     7  H    2.660628   2.438603   3.005645   3.677768   2.141429
     8  H    2.822301   3.176562   2.657492   3.825244   2.166179
     9  C    3.937288   4.168984   4.297654   4.767419   2.600681
    10  H    4.172948   4.301753   4.771155   4.866198   2.800125
    11  H    4.320941   4.786481   4.587138   5.040326   2.879679
    12  C    5.077073   5.119129   5.285461   6.027365   3.951554
    13  H    5.252294   5.371274   5.231820   6.254032   4.262137
    14  H    5.070333   4.877201   5.326230   6.059512   4.164182
    15  C    6.459216   6.523162   6.740593   7.337420   5.192389
    16  H    6.552509   6.558687   7.000983   7.346560   5.241530
    17  C    7.566685   7.494678   7.768580   8.519625   6.447825
    18  H    7.752343   7.723767   7.800950   8.752721   6.715113
    19  H    8.525484   8.473664   8.771166   9.441008   7.332617
    20  H    7.509617   7.280147   7.757316   8.480018   6.524413
    21  C    7.031759   7.313174   7.233202   7.832806   5.647908
    22  H    8.056355   8.315961   8.300993   8.828931   6.642123
    23  H    7.195338   7.528264   7.231287   8.043081   5.903800
    24  H    6.579018   6.979817   6.834739   7.275109   5.115001
    25  C    2.529452   3.479402   2.835969   2.752119   1.531860
    26  H    3.360549   4.272506   3.797836   3.330643   2.341011
    27  H    2.981630   4.003117   2.715465   3.287460   2.478878
                    6          7          8          9         10
     6  C    0.000000
     7  H    1.096647   0.000000
     8  H    1.096153   1.750187   0.000000
     9  C    1.534182   2.153702   2.162965   0.000000
    10  H    2.162760   2.529835   3.067281   1.098765   0.000000
    11  H    2.161759   3.057707   2.492841   1.093310   1.759099
    12  C    2.550122   2.730143   2.804565   1.534291   2.159233
    13  H    2.790857   3.058894   2.597245   2.161296   3.064689
    14  H    2.736896   2.458226   3.090589   2.152086   2.516356
    15  C    3.951349   4.173238   4.262530   2.597988   2.807528
    16  H    4.188465   4.336843   4.743192   2.776732   2.536028
    17  C    5.065820   5.064502   5.244311   3.925574   4.172489
    18  H    5.255012   5.295231   5.203850   4.275306   4.761532
    19  H    6.020837   6.063310   6.244420   4.760247   4.875760
    20  H    5.127663   4.891435   5.387851   4.170976   4.310763
    21  C    4.580437   5.106342   4.731699   3.163931   3.489648
    22  H    5.618683   6.099096   5.818373   4.154568   4.309078
    23  H    4.755965   5.326359   4.650974   3.545519   4.140184
    24  H    4.296257   4.990350   4.525058   2.871399   3.113456
    25  C    2.572642   3.487197   2.823877   3.172535   3.458467
    26  H    3.417949   4.320465   3.796664   3.682155   3.740586
    27  H    3.086086   4.020832   2.775630   3.840471   4.450327
                   11         12         13         14         15
    11  H    0.000000
    12  C    2.161435   0.000000
    13  H    2.498230   1.098483   0.000000
    14  H    3.057070   1.097528   1.754216   0.000000
    15  C    2.857969   1.540620   2.161994   2.155518   0.000000
    16  H    3.130879   2.145374   3.052042   2.506140   1.099117
    17  C    4.295016   2.526725   2.796949   2.661332   1.535371
    18  H    4.553777   2.797592   2.621319   3.004503   2.180345
    19  H    5.013803   3.488543   3.799811   3.680785   2.184946
    20  H    4.775635   2.768414   3.158455   2.445060   2.186895
    21  C    2.847987   2.558824   2.779932   3.487554   1.535631
    22  H    3.846025   3.508685   3.780763   4.314631   2.179884
    23  H    3.143653   2.820176   2.593819   3.778793   2.179271
    24  H    2.266401   2.840054   3.155525   3.855876   2.196132
    25  C    2.881073   4.609104   4.786218   5.123784   5.655218
    26  H    3.235835   5.176919   5.466683   5.761893   6.008839
    27  H    3.426533   5.025058   4.874058   5.601859   6.156012
                   16         17         18         19         20
    16  H    0.000000
    17  C    2.142935   0.000000
    18  H    3.064903   1.095674   0.000000
    19  H    2.496618   1.094080   1.767058   0.000000
    20  H    2.491098   1.094163   1.768047   1.768497   0.000000
    21  C    2.145814   2.522487   2.798885   2.756837   3.484912
    22  H    2.500009   2.742000   3.112359   2.522291   3.747858
    23  H    3.066096   2.803754   2.635061   3.138775   3.816136
    24  H    2.498539   3.489128   3.819770   3.757090   4.346510
    25  C    5.766669   7.039252   7.243180   7.837223   7.330501
    26  H    5.991057   7.477978   7.771029   8.172845   7.828616
    27  H    6.503593   7.424489   7.413652   8.272112   7.787780
                   21         22         23         24         25
    21  C    0.000000
    22  H    1.094069   0.000000
    23  H    1.095737   1.767446   0.000000
    24  H    1.092620   1.763244   1.766987   0.000000
    25  C    5.699149   6.660865   5.874352   4.958072   0.000000
    26  H    5.905668   6.766327   6.187904   5.026113   1.070000
    27  H    6.055933   7.068326   5.963380   5.400146   1.462581
                   26         27
    26  H    0.000000
    27  H    2.210632   0.000000
 Stoichiometry    C9H18
 Framework group  C1[X(C9H18)]
 Deg. of freedom    75
 Full point group                 C1      NOp   1
 Largest Abelian subgroup         C1      NOp   1
 Largest concise Abelian subgroup C1      NOp   1
                         Standard orientation:                         
 ---------------------------------------------------------------------
 Center     Atomic      Atomic             Coordinates (Angstroms)
 Number     Number       Type             X           Y           Z
 ---------------------------------------------------------------------
      1          6           0        3.866536   -0.865223    0.008362
      2          1           0        3.722290   -1.882807   -0.363167
      3          1           0        3.998472   -0.919010    1.092038
      4          1           0        4.794931   -0.479515   -0.423409
      5          6           0        2.665132    0.019026   -0.359210
      6          6           0        1.350145   -0.556116    0.200720
      7          1           0        1.315937   -1.618453   -0.069292
      8          1           0        1.378242   -0.525276    1.296079
      9          6           0        0.067179    0.121280   -0.298129
     10          1           0        0.066969    0.135936   -1.396796
     11          1           0        0.051725    1.163877    0.030625
     12          6           0       -1.199731   -0.590855    0.193655
     13          1           0       -1.218448   -0.578813    1.291913
     14          1           0       -1.141960   -1.647619   -0.097000
     15          6           0       -2.527094   -0.013060   -0.333383
     16          1           0       -2.465740    0.010706   -1.430529
     17          6           0       -3.699784   -0.927295    0.049153
     18          1           0       -3.801974   -0.994755    1.137963
     19          1           0       -4.645537   -0.547796   -0.349021
     20          1           0       -3.557561   -1.941957   -0.334809
     21          6           0       -2.781941    1.419822    0.156583
     22          1           0       -3.732356    1.800335   -0.229299
     23          1           0       -2.831100    1.452332    1.250734
     24          1           0       -1.998109    2.111457   -0.161330
     25          6           0        2.915563    1.478530    0.032872
     26          1           0        3.002527    2.320711   -0.621396
     27          1           0        3.125665    1.623992    1.472956
 ---------------------------------------------------------------------
 Rotational constants (GHZ):      3.8062294      0.5496899      0.4991838
 Leave Link  202 at Fri Feb  7 01:20:38 2014, MaxMem= 4026531840 cpu:       0.0
 (Enter /usr/caen/gaussian-09revc/g09/l301.exe)
 Standard basis: 6-311++G(d,p) (5D, 7F)
 Ernie: Thresh=  0.10000D-02 Tol=  0.10000D-05 Strict=F.
 There are   324 symmetry adapted basis functions of A   symmetry.
 Integral buffers will be    131072 words long.
 Raffenetti 2 integral format.
 Two-electron integral symmetry is turned on.
   324 basis functions,   486 primitive gaussians,   333 cartesian basis functions
    36 alpha electrons       36 beta electrons
       nuclear repulsion energy       442.5627999292 Hartrees.
 IExCor=  402 DFT=T Ex+Corr=B3LYP ExCW=0 ScaHFX=  0.200000
 ScaDFX=  0.800000  0.720000  1.000000  0.810000 ScalE2=  1.000000  1.000000
 IRadAn=      0 IRanWt=     -1 IRanGd=            0 ICorTp=0
 NAtoms=   27 NActive=   27 NUniq=   27 SFac= 1.00D+00 NAtFMM=   60 NAOKFM=F Big=F
 Leave Link  301 at Fri Feb  7 01:20:39 2014, MaxMem= 4026531840 cpu:       0.7
 (Enter /usr/caen/gaussian-09revc/g09/l302.exe)
 NPDir=0 NMtPBC=     1 NCelOv=     1 NCel=       1 NClECP=     1 NCelD=      1
         NCelK=      1 NCelE2=     1 NClLst=     1 CellRange=     0.0.
 One-electron integrals computed using PRISM.
 NBasis=   324 RedAO= T  NBF=   324
 NBsUse=   324 1.00D-06 NBFU=   324
 Precomputing XC quadrature grid using
 IXCGrd= 2 IRadAn=           0 IRanWt=          -1 IRanGd=           0 AccXCQ= 0.00D+00.
 NRdTot=    1763 NPtTot=      224694 NUsed=      237399 NTot=      237431
 NSgBfM=   333   333   333   333   333 NAtAll=    27    27.
 Leave Link  302 at Fri Feb  7 01:20:40 2014, MaxMem= 4026531840 cpu:       4.1
 (Enter /usr/caen/gaussian-09revc/g09/l303.exe)
 DipDrv:  MaxL=1.
 Leave Link  303 at Fri Feb  7 01:20:40 2014, MaxMem= 4026531840 cpu:       1.4
 (Enter /usr/caen/gaussian-09revc/g09/l401.exe)
 Harris functional with IExCor=  402 diagonalized for initial guess.
 ExpMin= 3.60D-02 ExpMax= 4.56D+03 ExpMxC= 6.82D+02 IAcc=3 IRadAn=         5 AccDes= 0.00D+00
 HarFok:  IExCor=  402 AccDes= 0.00D+00 IRadAn=         5 IDoV= 1
 ScaDFX=  1.000000  1.000000  1.000000  1.000000
 FoFCou: FMM=F IPFlag=           0 FMFlag=      100000 FMFlg1=           0
         NFxFlg=           0 DoJE=T BraDBF=F KetDBF=T FulRan=T
         Omega=  0.000000  0.000000  1.000000  0.000000  0.000000 ICntrl=     500 IOpCl=  0
         NMat0=    1 NMatS0=    1 NMatT0=    0 NMatD0=    1 NMtDS0=    0 NMtDT0=    0
         I1Cent=           4 NGrid=           0.
 Petite list used in FoFCou.
 Harris En= -353.771967139262    
 Mixing orbitals, IMix= 1 IMixAn=  0 NRI=1 NE=   36 Coef=  7.07106781D-01  7.07106781D-01
 Initial guess orbital symmetries:
       Occupied  (A) (A) (A) (A) (A) (A) (A) (A) (A) (A) (A) (A)
                 (A) (A) (A) (A) (A) (A) (A) (A) (A) (A) (A) (A)
                 (A) (A) (A) (A) (A) (A) (A) (A) (A) (A) (A) (A)
       Virtual   (A) (A) (A) (A) (A) (A) (A) (A) (A) (A) (A) (A)
                 (A) (A) (A) (A) (A) (A) (A) (A) (A) (A) (A) (A)
                 (A) (A) (A) (A) (A) (A) (A) (A) (A) (A) (A) (A)
                 (A) (A) (A) (A) (A) (A) (A) (A) (A) (A) (A) (A)
                 (A) (A) (A) (A) (A) (A) (A) (A) (A) (A) (A) (A)
                 (A) (A) (A) (A) (A) (A) (A) (A) (A) (A) (A) (A)
                 (A) (A) (A) (A) (A) (A) (A) (A) (A) (A) (A) (A)
                 (A) (A) (A) (A) (A) (A) (A) (A) (A) (A) (A) (A)
                 (A) (A) (A) (A) (A) (A) (A) (A) (A) (A) (A) (A)
                 (A) (A) (A) (A) (A) (A) (A) (A) (A) (A) (A) (A)
                 (A) (A) (A) (A) (A) (A) (A) (A) (A) (A) (A) (A)
                 (A) (A) (A) (A) (A) (A) (A) (A) (A) (A) (A) (A)
                 (A) (A) (A) (A) (A) (A) (A) (A) (A) (A) (A) (A)
                 (A) (A) (A) (A) (A) (A) (A) (A) (A) (A) (A) (A)
                 (A) (A) (A) (A) (A) (A) (A) (A) (A) (A) (A) (A)
                 (A) (A) (A) (A) (A) (A) (A) (A) (A) (A) (A) (A)
                 (A) (A) (A) (A) (A) (A) (A) (A) (A) (A) (A) (A)
                 (A) (A) (A) (A) (A) (A) (A) (A) (A) (A) (A) (A)
                 (A) (A) (A) (A) (A) (A) (A) (A) (A) (A) (A) (A)
                 (A) (A) (A) (A) (A) (A) (A) (A) (A) (A) (A) (A)
                 (A) (A) (A) (A) (A) (A) (A) (A) (A) (A) (A) (A)
                 (A) (A) (A) (A) (A) (A) (A) (A) (A) (A) (A) (A)
                 (A) (A) (A) (A) (A) (A) (A) (A) (A) (A) (A) (A)
                 (A) (A) (A) (A) (A) (A) (A) (A) (A) (A) (A) (A)
 The electronic state of the initial guess is 1-A.
 Leave Link  401 at Fri Feb  7 01:20:43 2014, MaxMem= 4026531840 cpu:      21.7
 (Enter /usr/caen/gaussian-09revc/g09/l502.exe)
 Closed shell SCF:
 Requested convergence on RMS density matrix=1.00D-08 within 128 cycles.
 Requested convergence on MAX density matrix=1.00D-06.
 Requested convergence on             energy=1.00D-06.
 No special actions if energy rises.
 Using DIIS extrapolation, IDIIS=  1040.
 Integral symmetry usage will be decided dynamically.
       237143 words used for storage of precomputed grid.
 Keep R1 ints in memory in canonical form, NReq=1565542305.
 IEnd=      593140 IEndB=      593140 NGot=  4026531840 MDV=  2479747069
 LenX=  2479747069 LenY=  2479635739
 Symmetry not used in FoFDir.
 MinBra= 0 MaxBra= 2 Meth= 1.
 IRaf=       0 NMat=   1 IRICut=       1 DoRegI=T DoRafI=F ISym2E= 0 JSym2E=0.

 Cycle   1  Pass 1  IDiag  1:
 E= -353.292299805895    
 DIIS: error= 3.77D-02 at cycle   1 NSaved=   1.
 NSaved= 1 IEnMin= 1 EnMin= -353.292299805895     IErMin= 1 ErrMin= 3.77D-02
 ErrMax= 3.77D-02 EMaxC= 1.00D-01 BMatC= 3.64D-01 BMatP= 3.64D-01
 IDIUse=3 WtCom= 6.23D-01 WtEn= 3.77D-01
 Coeff-Com:  0.100D+01
 Coeff-En:   0.100D+01
 Coeff:      0.100D+01
 Gap=    -0.033 Goal=   None    Shift=    0.000
 GapD=   -0.033 DampG=0.250 DampE=0.500 DampFc=0.2500 IDamp=-1.
 Damping current iteration by 2.50D-01
 RMSDP=1.44D-02 MaxDP=1.35D+00              OVMax= 5.17D-01

 Cycle   2  Pass 1  IDiag  1:
 E= -353.438023577458     Delta-E=       -0.145723771563 Rises=F Damp=T
 DIIS: error= 1.53D-02 at cycle   2 NSaved=   2.
 NSaved= 2 IEnMin= 2 EnMin= -353.438023577458     IErMin= 2 ErrMin= 1.53D-02
 ErrMax= 1.53D-02 EMaxC= 1.00D-01 BMatC= 8.08D-02 BMatP= 3.64D-01
 IDIUse=3 WtCom= 8.47D-01 WtEn= 1.53D-01
 Coeff-Com: -0.558D+00 0.156D+01
 Coeff-En:   0.000D+00 0.100D+01
 Coeff:     -0.473D+00 0.147D+01
 Gap=     0.160 Goal=   None    Shift=    0.000
 RMSDP=6.72D-03 MaxDP=5.95D-01 DE=-1.46D-01 OVMax= 8.87D-01

 Cycle   3  Pass 1  IDiag  1:
 E= -353.477878124605     Delta-E=       -0.039854547147 Rises=F Damp=F
 DIIS: error= 1.79D-02 at cycle   3 NSaved=   3.
 NSaved= 3 IEnMin= 3 EnMin= -353.477878124605     IErMin= 2 ErrMin= 1.53D-02
 ErrMax= 1.79D-02 EMaxC= 1.00D-01 BMatC= 1.58D-01 BMatP= 8.08D-02
 IDIUse=2 WtCom= 0.00D+00 WtEn= 1.00D+00
 Coeff-En:   0.000D+00 0.416D+00 0.584D+00
 Coeff:      0.000D+00 0.416D+00 0.584D+00
 Gap=    -0.115 Goal=   None    Shift=    0.000
 RMSDP=5.54D-03 MaxDP=3.90D-01 DE=-3.99D-02 OVMax= 8.03D-01

 Cycle   4  Pass 1  IDiag  1:
 E= -353.082554778605     Delta-E=        0.395323345999 Rises=F Damp=F
 DIIS: error= 3.46D-02 at cycle   4 NSaved=   4.
 NSaved= 4 IEnMin= 3 EnMin= -353.477878124605     IErMin= 2 ErrMin= 1.53D-02
 ErrMax= 3.46D-02 EMaxC= 1.00D-01 BMatC= 4.93D-01 BMatP= 8.08D-02
 IDIUse=2 WtCom= 0.00D+00 WtEn= 1.00D+00
 Coeff-En:   0.000D+00 0.000D+00 0.660D+00 0.340D+00
 Coeff:      0.000D+00 0.000D+00 0.660D+00 0.340D+00
 Gap=     0.093 Goal=   None    Shift=    0.000
 RMSDP=3.46D-03 MaxDP=1.91D-01 DE= 3.95D-01 OVMax= 2.85D-01

 Cycle   5  Pass 1  IDiag  1:
 E= -353.549988013620     Delta-E=       -0.467433235015 Rises=F Damp=F
 DIIS: error= 1.48D-02 at cycle   5 NSaved=   5.
 NSaved= 5 IEnMin= 5 EnMin= -353.549988013620     IErMin= 5 ErrMin= 1.48D-02
 ErrMax= 1.48D-02 EMaxC= 1.00D-01 BMatC= 9.62D-02 BMatP= 8.08D-02
 IDIUse=2 WtCom= 0.00D+00 WtEn= 1.00D+00
 Coeff-En:   0.000D+00 0.000D+00 0.436D+00 0.000D+00 0.564D+00
 Coeff:      0.000D+00 0.000D+00 0.436D+00 0.000D+00 0.564D+00
 Gap=     0.010 Goal=   None    Shift=    0.000
 RMSDP=2.55D-03 MaxDP=1.80D-01 DE=-4.67D-01 OVMax= 5.43D-01

 Cycle   6  Pass 1  IDiag  1:
 E= -353.679258184673     Delta-E=       -0.129270171053 Rises=F Damp=F
 DIIS: error= 3.62D-03 at cycle   6 NSaved=   6.
 NSaved= 6 IEnMin= 6 EnMin= -353.679258184673     IErMin= 6 ErrMin= 3.62D-03
 ErrMax= 3.62D-03 EMaxC= 1.00D-01 BMatC= 5.88D-03 BMatP= 8.08D-02
 IDIUse=3 WtCom= 9.64D-01 WtEn= 3.62D-02
 Coeff-Com: -0.597D-01 0.807D-01-0.340D-01-0.539D-01 0.238D+00 0.829D+00
 Coeff-En:   0.000D+00 0.000D+00 0.000D+00 0.000D+00 0.118D+00 0.882D+00
 Coeff:     -0.576D-01 0.778D-01-0.328D-01-0.520D-01 0.234D+00 0.831D+00
 Gap=     0.043 Goal=   None    Shift=    0.000
 RMSDP=6.33D-04 MaxDP=4.64D-02 DE=-1.29D-01 OVMax= 9.10D-02

 Cycle   7  Pass 1  IDiag  1:
 E= -353.686654070958     Delta-E=       -0.007395886284 Rises=F Damp=F
 DIIS: error= 5.76D-04 at cycle   7 NSaved=   7.
 NSaved= 7 IEnMin= 7 EnMin= -353.686654070958     IErMin= 7 ErrMin= 5.76D-04
 ErrMax= 5.76D-04 EMaxC= 1.00D-01 BMatC= 2.34D-04 BMatP= 5.88D-03
 IDIUse=3 WtCom= 9.94D-01 WtEn= 5.76D-03
 Coeff-Com: -0.374D-01 0.523D-01-0.220D-01-0.231D-01 0.944D-01 0.309D+00
 Coeff-Com:  0.627D+00
 Coeff-En:   0.000D+00 0.000D+00 0.000D+00 0.000D+00 0.000D+00 0.000D+00
 Coeff-En:   0.100D+01
 Coeff:     -0.372D-01 0.520D-01-0.218D-01-0.230D-01 0.939D-01 0.307D+00
 Coeff:      0.629D+00
 Gap=     0.046 Goal=   None    Shift=    0.000
 RMSDP=2.55D-04 MaxDP=9.52D-03 DE=-7.40D-03 OVMax= 3.05D-03

 Cycle   8  Pass 1  IDiag  1:
 E= -353.686802920584     Delta-E=       -0.000148849627 Rises=F Damp=F
 DIIS: error= 4.39D-04 at cycle   8 NSaved=   8.
 NSaved= 8 IEnMin= 8 EnMin= -353.686802920584     IErMin= 8 ErrMin= 4.39D-04
 ErrMax= 4.39D-04 EMaxC= 1.00D-01 BMatC= 9.79D-05 BMatP= 2.34D-04
 IDIUse=3 WtCom= 9.96D-01 WtEn= 4.39D-03
 Coeff-Com: -0.191D-01 0.272D-01-0.521D-02-0.594D-02 0.254D-01 0.768D-02
 Coeff-Com:  0.284D+00 0.686D+00
 Coeff-En:   0.000D+00 0.000D+00 0.000D+00 0.000D+00 0.000D+00 0.000D+00
 Coeff-En:   0.000D+00 0.100D+01
 Coeff:     -0.191D-01 0.271D-01-0.518D-02-0.591D-02 0.253D-01 0.765D-02
 Coeff:      0.283D+00 0.687D+00
 Gap=     0.047 Goal=   None    Shift=    0.000
 RMSDP=5.73D-05 MaxDP=3.98D-03 DE=-1.49D-04 OVMax= 3.41D-03

 Cycle   9  Pass 1  IDiag  1:
 E= -353.686882603221     Delta-E=       -0.000079682637 Rises=F Damp=F
 DIIS: error= 2.35D-04 at cycle   9 NSaved=   9.
 NSaved= 9 IEnMin= 9 EnMin= -353.686882603221     IErMin= 9 ErrMin= 2.35D-04
 ErrMax= 2.35D-04 EMaxC= 1.00D-01 BMatC= 2.41D-05 BMatP= 9.79D-05
 IDIUse=3 WtCom= 9.98D-01 WtEn= 2.35D-03
 Coeff-Com: -0.866D-02 0.122D-01-0.900D-03-0.136D-02 0.798D-02-0.363D-01
 Coeff-Com:  0.517D-01 0.239D+00 0.737D+00
 Coeff-En:   0.000D+00 0.000D+00 0.000D+00 0.000D+00 0.000D+00 0.000D+00
 Coeff-En:   0.000D+00 0.000D+00 0.100D+01
 Coeff:     -0.864D-02 0.122D-01-0.897D-03-0.136D-02 0.796D-02-0.362D-01
 Coeff:      0.515D-01 0.238D+00 0.737D+00
 Gap=     0.047 Goal=   None    Shift=    0.000
 RMSDP=2.41D-05 MaxDP=9.05D-04 DE=-7.97D-05 OVMax= 2.14D-03

 Cycle  10  Pass 1  IDiag  1:
 E= -353.686903190252     Delta-E=       -0.000020587031 Rises=F Damp=F
 DIIS: error= 1.27D-04 at cycle  10 NSaved=  10.
 NSaved=10 IEnMin=10 EnMin= -353.686903190252     IErMin=10 ErrMin= 1.27D-04
 ErrMax= 1.27D-04 EMaxC= 1.00D-01 BMatC= 6.73D-06 BMatP= 2.41D-05
 IDIUse=3 WtCom= 9.99D-01 WtEn= 1.27D-03
 Coeff-Com: -0.424D-02 0.585D-02-0.457D-03-0.683D-03 0.426D-02-0.221D-01
 Coeff-Com: -0.219D-02 0.423D-01 0.254D+00 0.724D+00
 Coeff-En:   0.000D+00 0.000D+00 0.000D+00 0.000D+00 0.000D+00 0.000D+00
 Coeff-En:   0.000D+00 0.000D+00 0.000D+00 0.100D+01
 Coeff:     -0.424D-02 0.584D-02-0.456D-03-0.682D-03 0.426D-02-0.221D-01
 Coeff:     -0.219D-02 0.422D-01 0.253D+00 0.724D+00
 Gap=     0.047 Goal=   None    Shift=    0.000
 RMSDP=1.05D-05 MaxDP=7.97D-04 DE=-2.06D-05 OVMax= 1.05D-03

 Cycle  11  Pass 1  IDiag  1:
 E= -353.686908785378     Delta-E=       -0.000005595125 Rises=F Damp=F
 DIIS: error= 6.67D-05 at cycle  11 NSaved=  11.
 NSaved=11 IEnMin=11 EnMin= -353.686908785378     IErMin=11 ErrMin= 6.67D-05
 ErrMax= 6.67D-05 EMaxC= 1.00D-01 BMatC= 2.01D-06 BMatP= 6.73D-06
 IDIUse=1 WtCom= 1.00D+00 WtEn= 0.00D+00
 Coeff-Com: -0.117D-02 0.166D-02-0.321D-03-0.320D-03 0.174D-02-0.375D-02
 Coeff-Com: -0.115D-01-0.381D-01-0.131D+00 0.303D+00 0.880D+00
 Coeff:     -0.117D-02 0.166D-02-0.321D-03-0.320D-03 0.174D-02-0.375D-02
 Coeff:     -0.115D-01-0.381D-01-0.131D+00 0.303D+00 0.880D+00
 Gap=     0.047 Goal=   None    Shift=    0.000
 RMSDP=8.21D-06 MaxDP=4.09D-04 DE=-5.60D-06 OVMax= 9.39D-04

 Cycle  12  Pass 1  IDiag  1:
 E= -353.686910969874     Delta-E=       -0.000002184496 Rises=F Damp=F
 DIIS: error= 1.99D-05 at cycle  12 NSaved=  12.
 NSaved=12 IEnMin=12 EnMin= -353.686910969874     IErMin=12 ErrMin= 1.99D-05
 ErrMax= 1.99D-05 EMaxC= 1.00D-01 BMatC= 1.60D-07 BMatP= 2.01D-06
 IDIUse=1 WtCom= 1.00D+00 WtEn= 0.00D+00
 Coeff-Com: -0.269D-03 0.397D-03-0.128D-03-0.125D-03 0.526D-03 0.334D-03
 Coeff-Com: -0.238D-02-0.143D-01-0.815D-01-0.515D-02 0.270D+00 0.833D+00
 Coeff:     -0.269D-03 0.397D-03-0.128D-03-0.125D-03 0.526D-03 0.334D-03
 Coeff:     -0.238D-02-0.143D-01-0.815D-01-0.515D-02 0.270D+00 0.833D+00
 Gap=     0.047 Goal=   None    Shift=    0.000
 RMSDP=2.50D-06 MaxDP=9.63D-05 DE=-2.18D-06 OVMax= 2.74D-04

 Cycle  13  Pass 1  IDiag  1:
 E= -353.686911148144     Delta-E=       -0.000000178270 Rises=F Damp=F
 DIIS: error= 3.99D-06 at cycle  13 NSaved=  13.
 NSaved=13 IEnMin=13 EnMin= -353.686911148144     IErMin=13 ErrMin= 3.99D-06
 ErrMax= 3.99D-06 EMaxC= 1.00D-01 BMatC= 7.99D-09 BMatP= 1.60D-07
 IDIUse=1 WtCom= 1.00D+00 WtEn= 0.00D+00
 Coeff-Com:  0.258D-04-0.265D-04-0.214D-04-0.195D-05 0.272D-05 0.612D-03
 Coeff-Com:  0.429D-03-0.127D-02-0.182D-01-0.430D-01-0.163D-01 0.301D+00
 Coeff-Com:  0.777D+00
 Coeff:      0.258D-04-0.265D-04-0.214D-04-0.195D-05 0.272D-05 0.612D-03
 Coeff:      0.429D-03-0.127D-02-0.182D-01-0.430D-01-0.163D-01 0.301D+00
 Coeff:      0.777D+00
 Gap=     0.047 Goal=   None    Shift=    0.000
 RMSDP=9.10D-07 MaxDP=7.40D-05 DE=-1.78D-07 OVMax= 1.05D-04

 Cycle  14  Pass 1  IDiag  1:
 E= -353.686911157335     Delta-E=       -0.000000009191 Rises=F Damp=F
 DIIS: error= 9.31D-07 at cycle  14 NSaved=  14.
 NSaved=14 IEnMin=14 EnMin= -353.686911157335     IErMin=14 ErrMin= 9.31D-07
 ErrMax= 9.31D-07 EMaxC= 1.00D-01 BMatC= 5.19D-10 BMatP= 7.99D-09
 IDIUse=1 WtCom= 1.00D+00 WtEn= 0.00D+00
 Coeff-Com: -0.211D-04 0.291D-04-0.179D-05-0.455D-05 0.165D-04-0.221D-04
 Coeff-Com:  0.458D-03 0.145D-02 0.221D-02-0.111D-01-0.269D-01 0.606D-01
 Coeff-Com:  0.392D+00 0.581D+00
 Coeff:     -0.211D-04 0.291D-04-0.179D-05-0.455D-05 0.165D-04-0.221D-04
 Coeff:      0.458D-03 0.145D-02 0.221D-02-0.111D-01-0.269D-01 0.606D-01
 Coeff:      0.392D+00 0.581D+00
 Gap=     0.047 Goal=   None    Shift=    0.000
 RMSDP=2.66D-07 MaxDP=1.67D-05 DE=-9.19D-09 OVMax= 2.40D-05

 Cycle  15  Pass 1  IDiag  1:
 E= -353.686911157956     Delta-E=       -0.000000000620 Rises=F Damp=F
 DIIS: error= 1.81D-07 at cycle  15 NSaved=  15.
 NSaved=15 IEnMin=15 EnMin= -353.686911157956     IErMin=15 ErrMin= 1.81D-07
 ErrMax= 1.81D-07 EMaxC= 1.00D-01 BMatC= 1.70D-11 BMatP= 5.19D-10
 IDIUse=1 WtCom= 1.00D+00 WtEn= 0.00D+00
 Coeff-Com: -0.200D-05 0.172D-05 0.106D-05 0.932D-06-0.294D-05-0.208D-04
 Coeff-Com:  0.167D-03 0.700D-03 0.221D-02-0.236D-02-0.124D-01-0.325D-05
 Coeff-Com:  0.946D-01 0.227D+00 0.690D+00
 Coeff:     -0.200D-05 0.172D-05 0.106D-05 0.932D-06-0.294D-05-0.208D-04
 Coeff:      0.167D-03 0.700D-03 0.221D-02-0.236D-02-0.124D-01-0.325D-05
 Coeff:      0.946D-01 0.227D+00 0.690D+00
 Gap=     0.047 Goal=   None    Shift=    0.000
 RMSDP=5.72D-08 MaxDP=4.15D-06 DE=-6.20D-10 OVMax= 2.63D-06

 Cycle  16  Pass 1  IDiag  1:
 E= -353.686911157977     Delta-E=       -0.000000000021 Rises=F Damp=F
 DIIS: error= 2.79D-08 at cycle  16 NSaved=  16.
 NSaved=16 IEnMin=16 EnMin= -353.686911157977     IErMin=16 ErrMin= 2.79D-08
 ErrMax= 2.79D-08 EMaxC= 1.00D-01 BMatC= 6.20D-13 BMatP= 1.70D-11
 IDIUse=1 WtCom= 1.00D+00 WtEn= 0.00D+00
 Coeff-Com:  0.939D-08-0.282D-06 0.195D-06 0.353D-06-0.885D-06-0.773D-05
 Coeff-Com:  0.205D-04 0.129D-03 0.576D-03 0.178D-03-0.220D-02-0.419D-02
 Coeff-Com:  0.159D-02 0.398D-01 0.229D+00 0.735D+00
 Coeff:      0.939D-08-0.282D-06 0.195D-06 0.353D-06-0.885D-06-0.773D-05
 Coeff:      0.205D-04 0.129D-03 0.576D-03 0.178D-03-0.220D-02-0.419D-02
 Coeff:      0.159D-02 0.398D-01 0.229D+00 0.735D+00
 Gap=     0.047 Goal=   None    Shift=    0.000
 RMSDP=1.29D-08 MaxDP=1.35D-06 DE=-2.10D-11 OVMax= 3.41D-07

 Cycle  17  Pass 1  IDiag  1:
 E= -353.686911157983     Delta-E=       -0.000000000006 Rises=F Damp=F
 DIIS: error= 2.48D-08 at cycle  17 NSaved=  17.
 NSaved=17 IEnMin=17 EnMin= -353.686911157983     IErMin=17 ErrMin= 2.48D-08
 ErrMax= 2.48D-08 EMaxC= 1.00D-01 BMatC= 3.34D-13 BMatP= 6.20D-13
 IDIUse=1 WtCom= 1.00D+00 WtEn= 0.00D+00
 Coeff-Com:  0.271D-06-0.387D-06 0.430D-08 0.112D-06-0.267D-06-0.820D-06
 Coeff-Com: -0.224D-05 0.820D-05 0.111D-03 0.188D-03-0.306D-03-0.187D-02
 Coeff-Com: -0.603D-02 0.369D-02 0.437D-01 0.340D+00 0.621D+00
 Coeff:      0.271D-06-0.387D-06 0.430D-08 0.112D-06-0.267D-06-0.820D-06
 Coeff:     -0.224D-05 0.820D-05 0.111D-03 0.188D-03-0.306D-03-0.187D-02
 Coeff:     -0.603D-02 0.369D-02 0.437D-01 0.340D+00 0.621D+00
 Gap=     0.047 Goal=   None    Shift=    0.000
 RMSDP=4.49D-09 MaxDP=3.15D-07 DE=-6.37D-12 OVMax= 3.33D-07

 SCF Done:  E(RB3LYP) =  -353.686911158     A.U. after   17 cycles
             Convg  =    0.4494D-08             -V/T =  2.0064
 KE= 3.514534910193D+02 PE=-1.702900555595D+03 EE= 5.551973534881D+02
 Leave Link  502 at Fri Feb  7 01:21:49 2014, MaxMem= 4026531840 cpu:     523.0
 (Enter /usr/caen/gaussian-09revc/g09/l601.exe)
 Copying SCF densities to generalized density rwf, IOpCl= 0 IROHF=0.

 **********************************************************************

            Population analysis using the SCF density.

 **********************************************************************

 Orbital symmetries:
       Occupied  (A) (A) (A) (A) (A) (A) (A) (A) (A) (A) (A) (A)
                 (A) (A) (A) (A) (A) (A) (A) (A) (A) (A) (A) (A)
                 (A) (A) (A) (A) (A) (A) (A) (A) (A) (A) (A) (A)
       Virtual   (A) (A) (A) (A) (A) (A) (A) (A) (A) (A) (A) (A)
                 (A) (A) (A) (A) (A) (A) (A) (A) (A) (A) (A) (A)
                 (A) (A) (A) (A) (A) (A) (A) (A) (A) (A) (A) (A)
                 (A) (A) (A) (A) (A) (A) (A) (A) (A) (A) (A) (A)
                 (A) (A) (A) (A) (A) (A) (A) (A) (A) (A) (A) (A)
                 (A) (A) (A) (A) (A) (A) (A) (A) (A) (A) (A) (A)
                 (A) (A) (A) (A) (A) (A) (A) (A) (A) (A) (A) (A)
                 (A) (A) (A) (A) (A) (A) (A) (A) (A) (A) (A) (A)
                 (A) (A) (A) (A) (A) (A) (A) (A) (A) (A) (A) (A)
                 (A) (A) (A) (A) (A) (A) (A) (A) (A) (A) (A) (A)
                 (A) (A) (A) (A) (A) (A) (A) (A) (A) (A) (A) (A)
                 (A) (A) (A) (A) (A) (A) (A) (A) (A) (A) (A) (A)
                 (A) (A) (A) (A) (A) (A) (A) (A) (A) (A) (A) (A)
                 (A) (A) (A) (A) (A) (A) (A) (A) (A) (A) (A) (A)
                 (A) (A) (A) (A) (A) (A) (A) (A) (A) (A) (A) (A)
                 (A) (A) (A) (A) (A) (A) (A) (A) (A) (A) (A) (A)
                 (A) (A) (A) (A) (A) (A) (A) (A) (A) (A) (A) (A)
                 (A) (A) (A) (A) (A) (A) (A) (A) (A) (A) (A) (A)
                 (A) (A) (A) (A) (A) (A) (A) (A) (A) (A) (A) (A)
                 (A) (A) (A) (A) (A) (A) (A) (A) (A) (A) (A) (A)
                 (A) (A) (A) (A) (A) (A) (A) (A) (A) (A) (A) (A)
                 (A) (A) (A) (A) (A) (A) (A) (A) (A) (A) (A) (A)
                 (A) (A) (A) (A) (A) (A) (A) (A) (A) (A) (A) (A)
                 (A) (A) (A) (A) (A) (A) (A) (A) (A) (A) (A) (A)
 The electronic state is 1-A.
 Alpha  occ. eigenvalues --  -10.22973 -10.20575 -10.18175 -10.17201 -10.16794
 Alpha  occ. eigenvalues --  -10.16171 -10.16117 -10.15515 -10.15454  -0.81932
 Alpha  occ. eigenvalues --   -0.79822  -0.74817  -0.68252  -0.68091  -0.66312
 Alpha  occ. eigenvalues --   -0.60207  -0.55850  -0.52949  -0.47783  -0.45847
 Alpha  occ. eigenvalues --   -0.44363  -0.43336  -0.42463  -0.42048  -0.39468
 Alpha  occ. eigenvalues --   -0.38559  -0.38287  -0.37363  -0.36487  -0.35630
 Alpha  occ. eigenvalues --   -0.34234  -0.33691  -0.32097  -0.31872  -0.31028
 Alpha  occ. eigenvalues --   -0.17628
 Alpha virt. eigenvalues --   -0.12918  -0.01028  -0.00295   0.00408   0.00769
 Alpha virt. eigenvalues --    0.01695   0.02000   0.02392   0.03592   0.04031
 Alpha virt. eigenvalues --    0.04104   0.04421   0.05018   0.05321   0.05869
 Alpha virt. eigenvalues --    0.06425   0.07150   0.07729   0.08032   0.08455
 Alpha virt. eigenvalues --    0.09455   0.09679   0.10116   0.10699   0.11318
 Alpha virt. eigenvalues --    0.11555   0.12137   0.12222   0.12522   0.12856
 Alpha virt. eigenvalues --    0.13284   0.13547   0.13695   0.14025   0.14302
 Alpha virt. eigenvalues --    0.14780   0.15001   0.15239   0.15673   0.16018
 Alpha virt. eigenvalues --    0.16121   0.16635   0.16965   0.17407   0.17651
 Alpha virt. eigenvalues --    0.17894   0.18375   0.18451   0.19553   0.19857
 Alpha virt. eigenvalues --    0.20697   0.21444   0.21704   0.21935   0.21994
 Alpha virt. eigenvalues --    0.22045   0.22566   0.23214   0.24000   0.24858
 Alpha virt. eigenvalues --    0.25207   0.26145   0.26209   0.26392   0.27066
 Alpha virt. eigenvalues --    0.27909   0.28809   0.29744   0.30217   0.31624
 Alpha virt. eigenvalues --    0.32018   0.32736   0.33189   0.33881   0.34144
 Alpha virt. eigenvalues --    0.34664   0.35234   0.35673   0.36159   0.37210
 Alpha virt. eigenvalues --    0.40435   0.43092   0.44210   0.46274   0.47074
 Alpha virt. eigenvalues --    0.48328   0.50207   0.50397   0.51885   0.52441
 Alpha virt. eigenvalues --    0.53520   0.54122   0.54623   0.55361   0.58241
 Alpha virt. eigenvalues --    0.58697   0.59916   0.61975   0.62404   0.62853
 Alpha virt. eigenvalues --    0.63954   0.64413   0.64810   0.66356   0.66579
 Alpha virt. eigenvalues --    0.67582   0.68051   0.68633   0.69110   0.69538
 Alpha virt. eigenvalues --    0.70231   0.71128   0.71480   0.72622   0.73305
 Alpha virt. eigenvalues --    0.73772   0.74435   0.75117   0.75989   0.76722
 Alpha virt. eigenvalues --    0.77811   0.78593   0.80124   0.80508   0.81566
 Alpha virt. eigenvalues --    0.84933   0.87791   0.92327   0.93115   0.95672
 Alpha virt. eigenvalues --    0.97774   0.98396   1.01178   1.01943   1.05951
 Alpha virt. eigenvalues --    1.10640   1.11714   1.13720   1.14797   1.16215
 Alpha virt. eigenvalues --    1.19704   1.20488   1.25102   1.26065   1.27402
 Alpha virt. eigenvalues --    1.30087   1.30807   1.33752   1.41266   1.45074
 Alpha virt. eigenvalues --    1.45878   1.46286   1.46456   1.47364   1.47800
 Alpha virt. eigenvalues --    1.49408   1.52300   1.54656   1.55915   1.56857
 Alpha virt. eigenvalues --    1.57406   1.57640   1.58826   1.60231   1.60770
 Alpha virt. eigenvalues --    1.60891   1.62400   1.63112   1.64094   1.65120
 Alpha virt. eigenvalues --    1.65553   1.66785   1.67801   1.68792   1.69788
 Alpha virt. eigenvalues --    1.70239   1.72429   1.73540   1.74468   1.75378
 Alpha virt. eigenvalues --    1.76335   1.77978   1.79300   1.81146   1.82331
 Alpha virt. eigenvalues --    1.85848   1.87864   1.90069   1.90697   1.92143
 Alpha virt. eigenvalues --    1.94689   1.98113   1.98265   2.01852   2.04996
 Alpha virt. eigenvalues --    2.05626   2.07958   2.08933   2.09950   2.13352
 Alpha virt. eigenvalues --    2.14749   2.15519   2.16830   2.20940   2.21636
 Alpha virt. eigenvalues --    2.26127   2.26906   2.28348   2.31940   2.34040
 Alpha virt. eigenvalues --    2.34782   2.38031   2.39579   2.41105   2.43114
 Alpha virt. eigenvalues --    2.46834   2.47198   2.47804   2.50272   2.51383
 Alpha virt. eigenvalues --    2.51622   2.51988   2.53207   2.54094   2.55691
 Alpha virt. eigenvalues --    2.57174   2.57800   2.59427   2.60218   2.61636
 Alpha virt. eigenvalues --    2.62758   2.64187   2.65062   2.66073   2.67829
 Alpha virt. eigenvalues --    2.69107   2.69964   2.73288   2.74902   2.76189
 Alpha virt. eigenvalues --    2.76831   2.78004   2.79427   2.82241   2.86440
 Alpha virt. eigenvalues --    2.88742   2.90508   2.91453   2.95215   2.95795
 Alpha virt. eigenvalues --    2.97537   2.99068   3.00556   3.02226   3.07147
 Alpha virt. eigenvalues --    3.08323   3.09516   3.17175   3.22014   3.35431
 Alpha virt. eigenvalues --    3.41763   3.51127   3.65483   3.76767   3.78759
 Alpha virt. eigenvalues --    3.79147   3.79596   3.80534   3.82560   3.84244
 Alpha virt. eigenvalues --    3.85358   3.88353   3.99430   4.07711   4.12314
 Alpha virt. eigenvalues --    4.18882   4.29536   4.30411   4.39090  23.68623
 Alpha virt. eigenvalues --   23.71642  23.83673  23.89544  23.91419  23.91976
 Alpha virt. eigenvalues --   23.95035  23.98143  23.98963
          Condensed to atoms (all electrons):
              1          2          3          4          5          6
     1  C    5.713482   0.362239   0.433670   0.353922  -0.162370   0.351266
     2  H    0.362239   0.612959  -0.083508  -0.006422  -0.076488   0.019821
     3  H    0.433670  -0.083508   0.600622  -0.033826   0.045227  -0.117015
     4  H    0.353922  -0.006422  -0.033826   0.531779  -0.045765   0.024668
     5  C   -0.162370  -0.076488   0.045227  -0.045765   7.487668  -1.155155
     6  C    0.351266   0.019821  -0.117015   0.024668  -1.155155   7.731545
     7  H    0.001552  -0.006694   0.012501  -0.001182  -0.106957   0.402241
     8  H    0.057077  -0.010093   0.023868  -0.004339  -0.111530   0.481999
     9  C   -0.223076   0.018986  -0.013613   0.007063   0.333961  -1.136978
    10  H    0.008342  -0.001944   0.001481   0.000465   0.073419  -0.107434
    11  H   -0.010862   0.001434  -0.001799   0.000294  -0.025314  -0.081238
    12  C   -0.027588  -0.004991   0.001911  -0.003541  -0.499342   0.512407
    13  H   -0.000544  -0.000207   0.000070   0.000052   0.004555  -0.026962
    14  H   -0.005185   0.001988  -0.001144  -0.000065  -0.024206  -0.006412
    15  C   -0.001712   0.002170  -0.000897  -0.000875  -0.123622  -0.264991
    16  H   -0.000083  -0.000058   0.000060  -0.000031   0.001763  -0.010587
    17  C   -0.001737   0.000070  -0.000001  -0.000054  -0.009918  -0.036197
    18  H    0.000087  -0.000008   0.000010  -0.000001   0.000170  -0.000519
    19  H   -0.000045   0.000017  -0.000006  -0.000005  -0.000909  -0.002377
    20  H    0.000015  -0.000033   0.000001   0.000011   0.001539  -0.001415
    21  C    0.003155  -0.000437   0.000273   0.000002  -0.008923   0.099608
    22  H    0.000172  -0.000011   0.000013  -0.000007  -0.001433   0.002422
    23  H   -0.000307   0.000029  -0.000028   0.000014   0.003494  -0.015291
    24  H    0.001137   0.000009   0.000004  -0.000023  -0.005642  -0.001633
    25  C   -0.190720   0.036424  -0.058340   0.004823  -0.266088   0.037561
    26  H   -0.005472   0.004250  -0.007350   0.000893  -0.026343   0.010791
    27  H    0.048201  -0.010551   0.034082  -0.003797  -0.051794  -0.044353
              7          8          9         10         11         12
     1  C    0.001552   0.057077  -0.223076   0.008342  -0.010862  -0.027588
     2  H   -0.006694  -0.010093   0.018986  -0.001944   0.001434  -0.004991
     3  H    0.012501   0.023868  -0.013613   0.001481  -0.001799   0.001911
     4  H   -0.001182  -0.004339   0.007063   0.000465   0.000294  -0.003541
     5  C   -0.106957  -0.111530   0.333961   0.073419  -0.025314  -0.499342
     6  C    0.402241   0.481999  -1.136978  -0.107434  -0.081238   0.512407
     7  H    0.640687  -0.060295  -0.042039  -0.018145   0.009333   0.028799
     8  H   -0.060295   0.659939  -0.198611   0.026683  -0.037770   0.015171
     9  C   -0.042039  -0.198611   7.076778   0.452627   0.523593  -0.953369
    10  H   -0.018145   0.026683   0.452627   0.630536  -0.090945  -0.092259
    11  H    0.009333  -0.037770   0.523593  -0.090945   0.643387  -0.091517
    12  C    0.028799   0.015171  -0.953369  -0.092259  -0.091517   7.604298
    13  H   -0.002074   0.005403  -0.083017   0.018620  -0.014531   0.449955
    14  H    0.003492  -0.006296  -0.086038  -0.030089   0.023728   0.431364
    15  C   -0.021554  -0.016190   0.264192   0.003234   0.015798  -1.085390
    16  H   -0.001752   0.000859  -0.000764   0.014813   0.004539  -0.126386
    17  C   -0.001272  -0.003856  -0.181315  -0.002857   0.001055   0.320204
    18  H   -0.000653   0.000833   0.004784   0.001057   0.001526  -0.085083
    19  H   -0.000106  -0.000098   0.000506  -0.000099  -0.000230   0.041384
    20  H    0.001126  -0.000365   0.000532   0.000036  -0.000537  -0.014428
    21  C    0.006437   0.005304   0.087124  -0.024404  -0.001020   0.078278
    22  H    0.000021   0.000392   0.001794  -0.000820  -0.001385   0.042697
    23  H   -0.000501  -0.000174   0.011222   0.003659   0.000429  -0.076864
    24  H    0.001129   0.000477   0.029331  -0.002224   0.004823  -0.051640
    25  C    0.038409   0.013289   0.150489  -0.017301  -0.003656   0.156432
    26  H   -0.000172  -0.012731   0.009071  -0.003781   0.007766  -0.003047
    27  H    0.003380   0.048818  -0.019581   0.004573  -0.015352  -0.006496
             13         14         15         16         17         18
     1  C   -0.000544  -0.005185  -0.001712  -0.000083  -0.001737   0.000087
     2  H   -0.000207   0.001988   0.002170  -0.000058   0.000070  -0.000008
     3  H    0.000070  -0.001144  -0.000897   0.000060  -0.000001   0.000010
     4  H    0.000052  -0.000065  -0.000875  -0.000031  -0.000054  -0.000001
     5  C    0.004555  -0.024206  -0.123622   0.001763  -0.009918   0.000170
     6  C   -0.026962  -0.006412  -0.264991  -0.010587  -0.036197  -0.000519
     7  H   -0.002074   0.003492  -0.021554  -0.001752  -0.001272  -0.000653
     8  H    0.005403  -0.006296  -0.016190   0.000859  -0.003856   0.000833
     9  C   -0.083017  -0.086038   0.264192  -0.000764  -0.181315   0.004784
    10  H    0.018620  -0.030089   0.003234   0.014813  -0.002857   0.001057
    11  H   -0.014531   0.023728   0.015798   0.004539   0.001055   0.001526
    12  C    0.449955   0.431364  -1.085390  -0.126386   0.320204  -0.085083
    13  H    0.608865  -0.079864   0.026407   0.022101   0.004590   0.004564
    14  H   -0.079864   0.673634  -0.039413  -0.015873   0.020684   0.002664
    15  C    0.026407  -0.039413   6.484936   0.554299  -0.114438   0.082638
    16  H    0.022101  -0.015873   0.554299   0.618905  -0.061200   0.015891
    17  C    0.004590   0.020684  -0.114438  -0.061200   5.669707   0.379049
    18  H    0.004564   0.002664   0.082638   0.015891   0.379049   0.562466
    19  H   -0.002795   0.001465  -0.086559  -0.012797   0.400791  -0.032819
    20  H    0.002865   0.000263  -0.049782  -0.012990   0.407950  -0.047235
    21  C   -0.077193   0.020109  -0.078428  -0.117121  -0.175598  -0.033719
    22  H   -0.004719  -0.001784  -0.099024  -0.007642  -0.001765   0.002489
    23  H    0.013539  -0.003212   0.067732   0.013641  -0.009408   0.011488
    24  H    0.000452   0.002184  -0.039803  -0.013074   0.009060  -0.005313
    25  C   -0.006326   0.005404  -0.006064   0.000951   0.002430   0.000071
    26  H    0.000127   0.000409   0.000259  -0.000209   0.000205  -0.000011
    27  H   -0.000644  -0.001379  -0.002465   0.000197  -0.000447   0.000025
             19         20         21         22         23         24
     1  C   -0.000045   0.000015   0.003155   0.000172  -0.000307   0.001137
     2  H    0.000017  -0.000033  -0.000437  -0.000011   0.000029   0.000009
     3  H   -0.000006   0.000001   0.000273   0.000013  -0.000028   0.000004
     4  H   -0.000005   0.000011   0.000002  -0.000007   0.000014  -0.000023
     5  C   -0.000909   0.001539  -0.008923  -0.001433   0.003494  -0.005642
     6  C   -0.002377  -0.001415   0.099608   0.002422  -0.015291  -0.001633
     7  H   -0.000106   0.001126   0.006437   0.000021  -0.000501   0.001129
     8  H   -0.000098  -0.000365   0.005304   0.000392  -0.000174   0.000477
     9  C    0.000506   0.000532   0.087124   0.001794   0.011222   0.029331
    10  H   -0.000099   0.000036  -0.024404  -0.000820   0.003659  -0.002224
    11  H   -0.000230  -0.000537  -0.001020  -0.001385   0.000429   0.004823
    12  C    0.041384  -0.014428   0.078278   0.042697  -0.076864  -0.051640
    13  H   -0.002795   0.002865  -0.077193  -0.004719   0.013539   0.000452
    14  H    0.001465   0.000263   0.020109  -0.001784  -0.003212   0.002184
    15  C   -0.086559  -0.049782  -0.078428  -0.099024   0.067732  -0.039803
    16  H   -0.012797  -0.012990  -0.117121  -0.007642   0.013641  -0.013074
    17  C    0.400791   0.407950  -0.175598  -0.001765  -0.009408   0.009060
    18  H   -0.032819  -0.047235  -0.033719   0.002489   0.011488  -0.005313
    19  H    0.564651  -0.019139  -0.006096   0.001313   0.000846   0.002357
    20  H   -0.019139   0.582551   0.022240   0.000861  -0.002337  -0.001935
    21  C   -0.006096   0.022240   5.663217   0.416024   0.352369   0.419478
    22  H    0.001313   0.000861   0.416024   0.572044  -0.033202  -0.025080
    23  H    0.000846  -0.002337   0.352369  -0.033202   0.563469  -0.040945
    24  H    0.002357  -0.001935   0.419478  -0.025080  -0.040945   0.574057
    25  C    0.000068  -0.000200   0.011402   0.000366  -0.000839   0.002029
    26  H    0.000002   0.000003  -0.000870  -0.000035  -0.000048  -0.000359
    27  H   -0.000014   0.000012   0.002110   0.000026   0.000063   0.000239
             25         26         27
     1  C   -0.190720  -0.005472   0.048201
     2  H    0.036424   0.004250  -0.010551
     3  H   -0.058340  -0.007350   0.034082
     4  H    0.004823   0.000893  -0.003797
     5  C   -0.266088  -0.026343  -0.051794
     6  C    0.037561   0.010791  -0.044353
     7  H    0.038409  -0.000172   0.003380
     8  H    0.013289  -0.012731   0.048818
     9  C    0.150489   0.009071  -0.019581
    10  H   -0.017301  -0.003781   0.004573
    11  H   -0.003656   0.007766  -0.015352
    12  C    0.156432  -0.003047  -0.006496
    13  H   -0.006326   0.000127  -0.000644
    14  H    0.005404   0.000409  -0.001379
    15  C   -0.006064   0.000259  -0.002465
    16  H    0.000951  -0.000209   0.000197
    17  C    0.002430   0.000205  -0.000447
    18  H    0.000071  -0.000011   0.000025
    19  H    0.000068   0.000002  -0.000014
    20  H   -0.000200   0.000003   0.000012
    21  C    0.011402  -0.000870   0.002110
    22  H    0.000366  -0.000035   0.000026
    23  H   -0.000839  -0.000048   0.000063
    24  H    0.002029  -0.000359   0.000239
    25  C    5.945686   0.381123   0.259877
    26  H    0.381123   0.508656  -0.057057
    27  H    0.259877  -0.057057   0.770730
 Mulliken atomic charges:
              1
     1  C   -0.704618
     2  H    0.141048
     3  H    0.163733
     4  H    0.175946
     5  C    0.750000
     6  C   -0.665772
     7  H    0.114289
     8  H    0.122240
     9  C   -0.033652
    10  H    0.152759
    11  H    0.138453
    12  C   -0.560960
    13  H    0.136711
    14  H    0.113573
    15  C    0.529541
    16  H    0.132548
    17  C   -0.615733
    18  H    0.135550
    19  H    0.150693
    20  H    0.130393
    21  C   -0.663319
    22  H    0.136276
    23  H    0.141164
    24  H    0.140908
    25  C   -0.497298
    26  H    0.193932
    27  H    0.041597
 Sum of Mulliken atomic charges =   0.00000
 Mulliken charges with hydrogens summed into heavy atoms:
              1
     1  C   -0.223890
     5  C    0.750000
     6  C   -0.429243
     9  C    0.257560
    12  C   -0.310677
    15  C    0.662089
    17  C   -0.199097
    21  C   -0.244972
    25  C   -0.261769
 Sum of Mulliken charges with hydrogens summed into heavy atoms =   0.00000
 Electronic spatial extent (au):  <R**2>=           2350.0002
 Charge=              0.0000 electrons
 Dipole moment (field-independent basis, Debye):
    X=              0.3770    Y=             -0.3285    Z=              0.2004  Tot=              0.5387
 Quadrupole moment (field-independent basis, Debye-Ang):
   XX=            -60.5873   YY=            -61.7867   ZZ=            -62.8800
   XY=             -0.5444   XZ=              1.7232   YZ=             -0.8497
 Traceless Quadrupole moment (field-independent basis, Debye-Ang):
   XX=              1.1640   YY=             -0.0354   ZZ=             -1.1286
   XY=             -0.5444   XZ=              1.7232   YZ=             -0.8497
 Octapole moment (field-independent basis, Debye-Ang**2):
  XXX=              3.8201  YYY=             -3.9358  ZZZ=              1.5343  XYY=              2.2970
  XXY=             -0.2976  XXZ=              1.8794  XZZ=             -4.3057  YZZ=             -1.1023
  YYZ=             -5.6997  XYZ=             -2.5927
 Hexadecapole moment (field-independent basis, Debye-Ang**3):
 XXXX=          -2786.4727 YYYY=           -450.5899 ZZZZ=           -165.7807 XXXY=            -30.3061
 XXXZ=             22.4419 YYYX=             -0.5231 YYYZ=             -9.5608 ZZZX=              3.6219
 ZZZY=             -3.6494 XXYY=           -544.4518 XXZZ=           -492.6303 YYZZ=           -105.3558
 XXYZ=             -8.8150 YYXZ=             -7.3092 ZZXY=             -1.1431
 N-N= 4.425627999292D+02 E-N=-1.702900555112D+03  KE= 3.514534910193D+02
 No NMR shielding tensors so no spin-rotation constants.
 Leave Link  601 at Fri Feb  7 01:21:50 2014, MaxMem= 4026531840 cpu:       2.6
 (Enter /usr/caen/gaussian-09revc/g09/l801.exe)
 Range of M.O.s used for correlation:     1   324
 NBasis=   324 NAE=    36 NBE=    36 NFC=     0 NFV=     0
 NROrb=    324 NOA=    36 NOB=    36 NVA=   288 NVB=   288

 **** Warning!!: The largest alpha MO coefficient is  0.15147092D+03


 **** Warning!!: The smallest alpha delta epsilon is  0.47101069D-01

 Leave Link  801 at Fri Feb  7 01:21:50 2014, MaxMem= 4026531840 cpu:       0.3
 (Enter /usr/caen/gaussian-09revc/g09/l914.exe)
 RHF ground state
 Doing stability rather than CIS.
 MDV=  4026531840 DFT=T DoStab=T Mixed=T DoRPA=F DoScal=F NonHer=F
 Keep R1 and R2 ints in memory in canonical form, NReq=3294295389.
 Symmetry not used in FoFDir.
 MinBra= 0 MaxBra= 2 Meth= 1.
 IRaf=       0 NMat=   1 IRICut=       1 DoRegI=T DoRafI=F ISym2E= 0 JSym2E=0.
 Making orbital integer symmetry assigments:
 Orbital symmetries:
       Occupied  (A) (A) (A) (A) (A) (A) (A) (A) (A) (A) (A) (A)
                 (A) (A) (A) (A) (A) (A) (A) (A) (A) (A) (A) (A)
                 (A) (A) (A) (A) (A) (A) (A) (A) (A) (A) (A) (A)
       Virtual   (A) (A) (A) (A) (A) (A) (A) (A) (A) (A) (A) (A)
                 (A) (A) (A) (A) (A) (A) (A) (A) (A) (A) (A) (A)
                 (A) (A) (A) (A) (A) (A) (A) (A) (A) (A) (A) (A)
                 (A) (A) (A) (A) (A) (A) (A) (A) (A) (A) (A) (A)
                 (A) (A) (A) (A) (A) (A) (A) (A) (A) (A) (A) (A)
                 (A) (A) (A) (A) (A) (A) (A) (A) (A) (A) (A) (A)
                 (A) (A) (A) (A) (A) (A) (A) (A) (A) (A) (A) (A)
                 (A) (A) (A) (A) (A) (A) (A) (A) (A) (A) (A) (A)
                 (A) (A) (A) (A) (A) (A) (A) (A) (A) (A) (A) (A)
                 (A) (A) (A) (A) (A) (A) (A) (A) (A) (A) (A) (A)
                 (A) (A) (A) (A) (A) (A) (A) (A) (A) (A) (A) (A)
                 (A) (A) (A) (A) (A) (A) (A) (A) (A) (A) (A) (A)
                 (A) (A) (A) (A) (A) (A) (A) (A) (A) (A) (A) (A)
                 (A) (A) (A) (A) (A) (A) (A) (A) (A) (A) (A) (A)
                 (A) (A) (A) (A) (A) (A) (A) (A) (A) (A) (A) (A)
                 (A) (A) (A) (A) (A) (A) (A) (A) (A) (A) (A) (A)
                 (A) (A) (A) (A) (A) (A) (A) (A) (A) (A) (A) (A)
                 (A) (A) (A) (A) (A) (A) (A) (A) (A) (A) (A) (A)
                 (A) (A) (A) (A) (A) (A) (A) (A) (A) (A) (A) (A)
                 (A) (A) (A) (A) (A) (A) (A) (A) (A) (A) (A) (A)
                 (A) (A) (A) (A) (A) (A) (A) (A) (A) (A) (A) (A)
                 (A) (A) (A) (A) (A) (A) (A) (A) (A) (A) (A) (A)
                 (A) (A) (A) (A) (A) (A) (A) (A) (A) (A) (A) (A)
                 (A) (A) (A) (A) (A) (A) (A) (A) (A) (A) (A) (A)
    24 initial guesses have been made.
 Convergence on wavefunction:    0.001000000000000
 Davidson Disk Diagonalization:  ConvIn= 1.00D-03 SkipCon=T Conv= 1.00D-03.
 Max sub-space:   200 roots to seek:    24 dimension of matrix:  20736
 Iteration     1 Dimension    24 NMult    24
 CISAX:  IP=  8 NPass=   1 NMax=    24.
 CISAX will form    24 AO SS matrices at one time.
 NMat=    24 NSing=    12.
 New state      1 was old state      2
 Excitation Energies [eV] at current iteration:
 Root      1 :    -2.232845031188184
 Root      2 :     3.131713119733066
 Root      3 :     3.507078710772935
 Root      4 :     3.968249226623532
 Root      5 :     4.060073147942973
 Root      6 :     4.162772030986658
 Root      7 :     4.219916468992478
 Root      8 :     4.241763309075393
 Root      9 :     4.274689798261855
 Root     10 :     4.310368386231154
 Root     11 :     4.378896869416876
 Root     12 :     4.441170656141061
 Root     13 :     4.528923566304115
 Root     14 :     4.534709494996725
 Root     15 :     4.592870502221634
 Root     16 :     4.673375717351248
 Root     17 :     4.734584917441359
 Root     18 :     4.765080141831588
 Root     19 :     4.836683926934256
 Root     20 :     4.891398542223286
 Root     21 :     4.897327846579509
 Root     22 :     5.001281368710568
 Root     23 :     5.090860296888390
 Root     24 :     7.792896815884266
 Iteration     2 Dimension    48 NMult    48
 CISAX:  IP=  8 NPass=   1 NMax=    24.
 CISAX will form    24 AO SS matrices at one time.
 NMat=    24 NSing=    12.
 Root      1 not converged, maximum delta is    0.033537751898275
 Excitation Energies [eV] at current iteration:
 Root      1 :    -2.667118967298579   Change is   -0.434273936110395
 Root      2 :     2.124636733146293   Change is   -1.382441977626642
 Root      3 :     2.359296298770877   Change is   -0.772416820962189
 Root      4 :     3.600473616231378   Change is   -0.367775610392155
 Root      5 :     3.875573983127647   Change is   -0.287198047859011
 Root      6 :     3.936157628675776
 Iteration     3 Dimension    54 NMult    54
 CISAX:  IP=  1 NPass=   1 NMax=     6.
 CISAX will form     6 AO SS matrices at one time.
 NMat=     6 NSing=     3.
 Root      1 not converged, maximum delta is    0.002151767740855
 Excitation Energies [eV] at current iteration:
 Root      1 :    -2.674371251169660   Change is   -0.007252283871081
 Root      2 :     2.060162928393606   Change is   -0.064473804752687
 Root      3 :     2.198483919755887   Change is   -0.160812379014990
 Root      4 :     3.482925943477360   Change is   -0.117547672754018
 Root      5 :     3.717283097931249   Change is   -0.158290885196398
 Root      6 :     3.896773958508280   Change is   -0.039383670167497
 Iteration     4 Dimension    60 NMult    60
 CISAX:  IP=  1 NPass=   1 NMax=     6.
 CISAX will form     6 AO SS matrices at one time.
 NMat=     6 NSing=     3.
 Root      1 has converged.
 Excitation Energies [eV] at current iteration:
 Root      1 :    -2.674441083201089   Change is   -0.000069832031429
 Root      2 :     2.052941745968445   Change is   -0.007221182425161
 Root      3 :     2.190544207262247   Change is   -0.007939712493640
 Root      4 :     3.376179417355742   Change is   -0.106746526121618
 Root      5 :     3.635623464570187   Change is   -0.081659633361062
 Root      6 :     3.891462887322580   Change is   -0.005311071185700
 Convergence achieved on expansion vectors.
 ***********************************************************************
 Stability analysis using <AA,BB:AA,BB> singles matrix:
 ***********************************************************************

 Eigenvectors of the stability matrix:
 
 Eigenvector   1:      Triplet-A    Eigenvalue=-0.0982839  <S**2>=2.000
      36 -> 37         0.68907
 SavETr:  write IOETrn=   770 NScale= 10 NData=  16 NLR=1 LETran=      28.
 The wavefunction has an RHF -> UHF instability.
 Leave Link  914 at Fri Feb  7 01:24:45 2014, MaxMem= 4026531840 cpu:    1389.0
 (Enter /usr/caen/gaussian-09revc/g09/l502.exe)
 UHF open shell SCF:
 Requested convergence on RMS density matrix=1.00D-08 within  64 cycles.
 Requested convergence on MAX density matrix=1.00D-06.
 Requested convergence on             energy=1.00D-06.
 Reduce DIIS space if new energy is above lowest so far.
 Dynamic level shift is off after energy rises.
 Using DIIS extrapolation, IDIIS=  1040.
 Two-electron integrals replicated using symmetry.
       237143 words used for storage of precomputed grid.
 Keep R1 and R2 ints in memory in canonical form, NReq=3111849170.
 IEnd=      580532 IEndB=      580532 NGot=  4026531840 MDV=   933427795
 LenX=   933427795 LenY=   933316465
 Symmetry not used in FoFDir.
 MinBra= 0 MaxBra= 2 Meth= 1.
 IRaf=       0 NMat=   1 IRICut=       1 DoRegI=T DoRafI=F ISym2E= 0 JSym2E=0.

 Cycle   1  Pass 1  IDiag  1:
 Recover instability eigenvector and rotate through   -0.63 radians.
 E= -353.715838033145    
 DIIS: error= 2.52D-03 at cycle   1 NSaved=   1.
 NSaved= 1 IEnMin= 1 EnMin= -353.715838033145     IErMin= 1 ErrMin= 2.52D-03
 ErrMax= 2.52D-03 EMaxC= 1.00D-01 BMatC= 3.53D-03 BMatP= 3.53D-03
 IDIUse=1 WtCom= 1.00D+00 WtEn= 0.00D+00
 Coeff-Com:  0.100D+01
 Coeff:      0.100D+01
 Gap=     0.024 Goal=   None    Shift=    0.000
 Gap=     0.036 Goal=   None    Shift=    0.000

 Cycle   2  Pass 1  IDiag  1:
 Recover instability eigenvector and rotate through    0.63 radians.
 E= -353.715838033146     Delta-E=       -0.000000000001 Rises=F Damp=F
 DIIS: error= 2.52D-03 at cycle   2 NSaved=   2.
 NSaved= 2 IEnMin= 2 EnMin= -353.715838033146     IErMin= 2 ErrMin= 2.52D-03
 ErrMax= 2.52D-03 EMaxC= 1.00D-01 BMatC= 3.53D-03 BMatP= 3.53D-03
 IDIUse=1 WtCom= 1.00D+00 WtEn= 0.00D+00
 Coeff-Com:  0.000D+00 0.100D+01
 Coeff:      0.000D+00 0.100D+01
 Gap=     0.036 Goal=   None    Shift=    0.000
 Gap=     0.024 Goal=   None    Shift=    0.000

 Cycle   3  Pass 1  IDiag  1:
 Recover instability eigenvector and rotate through   -0.94 radians.
 E= -353.730452513741     Delta-E=       -0.014614480595 Rises=F Damp=F
 DIIS: error= 1.99D-03 at cycle   3 NSaved=   3.
 NSaved= 3 IEnMin= 3 EnMin= -353.730452513741     IErMin= 3 ErrMin= 1.99D-03
 ErrMax= 1.99D-03 EMaxC= 1.00D-01 BMatC= 6.52D-03 BMatP= 3.53D-03
 IDIUse=1 WtCom= 1.00D+00 WtEn= 0.00D+00
 Coeff-Com:  0.000D+00 0.000D+00 0.100D+01
 Coeff:      0.000D+00 0.000D+00 0.100D+01
 Gap=     0.003 Goal=   None    Shift=    0.000
 Gap=     0.020 Goal=   None    Shift=    0.000

 Cycle   4  Pass 1  IDiag  1:
 Recover instability eigenvector and rotate through    0.94 radians.
 E= -353.730452513740     Delta-E=        0.000000000000 Rises=F Damp=F
 DIIS: error= 1.99D-03 at cycle   4 NSaved=   4.
 NSaved= 1 IEnMin= 1 EnMin= -353.730452513740     IErMin= 1 ErrMin= 1.99D-03
 ErrMax= 1.99D-03 EMaxC= 1.00D-01 BMatC= 6.52D-03 BMatP= 6.52D-03
 IDIUse=3 WtCom= 9.80D-01 WtEn= 1.99D-02
 Coeff-Com:  0.100D+01
 Coeff-En:   0.100D+01
 Coeff:      0.100D+01
 Gap=     0.003 Goal=   None    Shift=    0.000
 Gap=     0.020 Goal=   None    Shift=    0.000
 RMSDP=2.59D-03 MaxDP=1.27D-01 DE= 3.41D-13 OVMax= 6.93D-01

 Cycle   5  Pass 1  IDiag  1:
 E= -353.736642608743     Delta-E=       -0.006190095002 Rises=F Damp=F
 DIIS: error= 1.40D-03 at cycle   5 NSaved=   2.
 NSaved= 2 IEnMin= 2 EnMin= -353.736642608743     IErMin= 2 ErrMin= 1.40D-03
 ErrMax= 1.40D-03 EMaxC= 1.00D-01 BMatC= 2.63D-03 BMatP= 6.52D-03
 IDIUse=3 WtCom= 9.86D-01 WtEn= 1.40D-02
 Coeff-Com:  0.339D+00 0.661D+00
 Coeff-En:   0.000D+00 0.100D+01
 Coeff:      0.334D+00 0.666D+00
 Gap=     0.135 Goal=   None    Shift=    0.000
 Gap=     0.146 Goal=   None    Shift=    0.000
 RMSDP=4.30D-04 MaxDP=3.63D-02 DE=-6.19D-03 OVMax= 4.17D-02

 Cycle   6  Pass 1  IDiag  1:
 E= -353.737621614421     Delta-E=       -0.000979005678 Rises=F Damp=F
 DIIS: error= 8.52D-04 at cycle   6 NSaved=   3.
 NSaved= 3 IEnMin= 3 EnMin= -353.737621614421     IErMin= 3 ErrMin= 8.52D-04
 ErrMax= 8.52D-04 EMaxC= 1.00D-01 BMatC= 1.00D-03 BMatP= 2.63D-03
 IDIUse=3 WtCom= 9.91D-01 WtEn= 8.52D-03
 Coeff-Com: -0.737D-01 0.363D+00 0.711D+00
 Coeff-En:   0.000D+00 0.000D+00 0.100D+01
 Coeff:     -0.731D-01 0.359D+00 0.714D+00
 Gap=     0.133 Goal=   None    Shift=    0.000
 Gap=     0.153 Goal=   None    Shift=    0.000
 RMSDP=2.32D-04 MaxDP=1.89D-02 DE=-9.79D-04 OVMax= 2.94D-02

 Cycle   7  Pass 1  IDiag  1:
 E= -353.738105954424     Delta-E=       -0.000484340003 Rises=F Damp=F
 DIIS: error= 2.23D-04 at cycle   7 NSaved=   4.
 NSaved= 4 IEnMin= 4 EnMin= -353.738105954424     IErMin= 4 ErrMin= 2.23D-04
 ErrMax= 2.23D-04 EMaxC= 1.00D-01 BMatC= 3.19D-05 BMatP= 1.00D-03
 IDIUse=3 WtCom= 9.98D-01 WtEn= 2.23D-03
 Coeff-Com: -0.284D-01-0.224D-01 0.441D-01 0.101D+01
 Coeff-En:   0.000D+00 0.000D+00 0.000D+00 0.100D+01
 Coeff:     -0.283D-01-0.224D-01 0.440D-01 0.101D+01
 Gap=     0.134 Goal=   None    Shift=    0.000
 Gap=     0.153 Goal=   None    Shift=    0.000
 RMSDP=1.04D-04 MaxDP=1.37D-02 DE=-4.84D-04 OVMax= 1.52D-02

 Cycle   8  Pass 1  IDiag  1:
 E= -353.738155841577     Delta-E=       -0.000049887153 Rises=F Damp=F
 DIIS: error= 7.26D-05 at cycle   8 NSaved=   5.
 NSaved= 5 IEnMin= 5 EnMin= -353.738155841577     IErMin= 5 ErrMin= 7.26D-05
 ErrMax= 7.26D-05 EMaxC= 1.00D-01 BMatC= 1.25D-05 BMatP= 3.19D-05
 IDIUse=1 WtCom= 1.00D+00 WtEn= 0.00D+00
 Coeff-Com:  0.810D-02-0.937D-01-0.145D+00 0.462D+00 0.769D+00
 Coeff:      0.810D-02-0.937D-01-0.145D+00 0.462D+00 0.769D+00
 Gap=     0.134 Goal=   None    Shift=    0.000
 Gap=     0.153 Goal=   None    Shift=    0.000
 RMSDP=3.85D-05 MaxDP=2.55D-03 DE=-4.99D-05 OVMax= 6.82D-03

 Cycle   9  Pass 1  IDiag  1:
 E= -353.738164538025     Delta-E=       -0.000008696448 Rises=F Damp=F
 DIIS: error= 2.69D-05 at cycle   9 NSaved=   6.
 NSaved= 6 IEnMin= 6 EnMin= -353.738164538025     IErMin= 6 ErrMin= 2.69D-05
 ErrMax= 2.69D-05 EMaxC= 1.00D-01 BMatC= 1.42D-06 BMatP= 1.25D-05
 IDIUse=1 WtCom= 1.00D+00 WtEn= 0.00D+00
 Coeff-Com:  0.533D-02-0.323D-01-0.525D-01 0.843D-01 0.311D+00 0.684D+00
 Coeff:      0.533D-02-0.323D-01-0.525D-01 0.843D-01 0.311D+00 0.684D+00
 Gap=     0.134 Goal=   None    Shift=    0.000
 Gap=     0.153 Goal=   None    Shift=    0.000
 RMSDP=2.07D-05 MaxDP=2.09D-03 DE=-8.70D-06 OVMax= 1.01D-03

 Cycle  10  Pass 1  IDiag  1:
 E= -353.738165143523     Delta-E=       -0.000000605498 Rises=F Damp=F
 DIIS: error= 7.50D-06 at cycle  10 NSaved=   7.
 NSaved= 7 IEnMin= 7 EnMin= -353.738165143523     IErMin= 7 ErrMin= 7.50D-06
 ErrMax= 7.50D-06 EMaxC= 1.00D-01 BMatC= 1.01D-07 BMatP= 1.42D-06
 IDIUse=1 WtCom= 1.00D+00 WtEn= 0.00D+00
 Coeff-Com: -0.944D-03 0.108D-01 0.187D-01-0.627D-01-0.943D-01 0.636D-01
 Coeff-Com:  0.106D+01
 Coeff:     -0.944D-03 0.108D-01 0.187D-01-0.627D-01-0.943D-01 0.636D-01
 Coeff:      0.106D+01
 Gap=     0.134 Goal=   None    Shift=    0.000
 Gap=     0.153 Goal=   None    Shift=    0.000
 RMSDP=6.74D-06 MaxDP=4.11D-04 DE=-6.05D-07 OVMax= 4.61D-04

 Cycle  11  Pass 1  IDiag  1:
 E= -353.738165239705     Delta-E=       -0.000000096182 Rises=F Damp=F
 DIIS: error= 4.20D-06 at cycle  11 NSaved=   8.
 NSaved= 8 IEnMin= 8 EnMin= -353.738165239705     IErMin= 8 ErrMin= 4.20D-06
 ErrMax= 4.20D-06 EMaxC= 1.00D-01 BMatC= 2.56D-08 BMatP= 1.01D-07
 IDIUse=1 WtCom= 1.00D+00 WtEn= 0.00D+00
 Coeff-Com: -0.851D-03 0.739D-02 0.123D-01-0.343D-01-0.685D-01-0.290D-01
 Coeff-Com:  0.480D+00 0.633D+00
 Coeff:     -0.851D-03 0.739D-02 0.123D-01-0.343D-01-0.685D-01-0.290D-01
 Coeff:      0.480D+00 0.633D+00
 Gap=     0.134 Goal=   None    Shift=    0.000
 Gap=     0.153 Goal=   None    Shift=    0.000
 RMSDP=1.64D-06 MaxDP=1.81D-04 DE=-9.62D-08 OVMax= 1.07D-04

 Cycle  12  Pass 1  IDiag  1:
 E= -353.738165249922     Delta-E=       -0.000000010217 Rises=F Damp=F
 DIIS: error= 1.48D-06 at cycle  12 NSaved=   9.
 NSaved= 9 IEnMin= 9 EnMin= -353.738165249922     IErMin= 9 ErrMin= 1.48D-06
 ErrMax= 1.48D-06 EMaxC= 1.00D-01 BMatC= 3.49D-09 BMatP= 2.56D-08
 IDIUse=1 WtCom= 1.00D+00 WtEn= 0.00D+00
 Coeff-Com: -0.163D-03 0.108D-02 0.143D-02-0.242D-02-0.111D-01-0.237D-01
 Coeff-Com:  0.660D-02 0.261D+00 0.767D+00
 Coeff:     -0.163D-03 0.108D-02 0.143D-02-0.242D-02-0.111D-01-0.237D-01
 Coeff:      0.660D-02 0.261D+00 0.767D+00
 Gap=     0.134 Goal=   None    Shift=    0.000
 Gap=     0.153 Goal=   None    Shift=    0.000
 RMSDP=6.77D-07 MaxDP=6.26D-05 DE=-1.02D-08 OVMax= 5.61D-05

 Cycle  13  Pass 1  IDiag  1:
 E= -353.738165251622     Delta-E=       -0.000000001700 Rises=F Damp=F
 DIIS: error= 3.81D-07 at cycle  13 NSaved=  10.
 NSaved=10 IEnMin=10 EnMin= -353.738165251622     IErMin=10 ErrMin= 3.81D-07
 ErrMax= 3.81D-07 EMaxC= 1.00D-01 BMatC= 2.46D-10 BMatP= 3.49D-09
 IDIUse=1 WtCom= 1.00D+00 WtEn= 0.00D+00
 Coeff-Com:  0.817D-04-0.631D-03-0.117D-02 0.377D-02 0.592D-02-0.325D-02
 Coeff-Com: -0.605D-01-0.202D-01 0.183D+00 0.893D+00
 Coeff:      0.817D-04-0.631D-03-0.117D-02 0.377D-02 0.592D-02-0.325D-02
 Coeff:     -0.605D-01-0.202D-01 0.183D+00 0.893D+00
 Gap=     0.134 Goal=   None    Shift=    0.000
 Gap=     0.153 Goal=   None    Shift=    0.000
 RMSDP=1.71D-07 MaxDP=1.19D-05 DE=-1.70D-09 OVMax= 2.19D-05

 Cycle  14  Pass 1  IDiag  1:
 E= -353.738165251780     Delta-E=       -0.000000000158 Rises=F Damp=F
 DIIS: error= 2.13D-07 at cycle  14 NSaved=  11.
 NSaved=11 IEnMin=11 EnMin= -353.738165251780     IErMin=11 ErrMin= 2.13D-07
 ErrMax= 2.13D-07 EMaxC= 1.00D-01 BMatC= 4.53D-11 BMatP= 2.46D-10
 IDIUse=1 WtCom= 1.00D+00 WtEn= 0.00D+00
 Coeff-Com:  0.465D-04-0.329D-03-0.564D-03 0.162D-02 0.315D-02 0.281D-03
 Coeff-Com: -0.242D-01-0.267D-01 0.139D-01 0.351D+00 0.681D+00
 Coeff:      0.465D-04-0.329D-03-0.564D-03 0.162D-02 0.315D-02 0.281D-03
 Coeff:     -0.242D-01-0.267D-01 0.139D-01 0.351D+00 0.681D+00
 Gap=     0.134 Goal=   None    Shift=    0.000
 Gap=     0.153 Goal=   None    Shift=    0.000
 RMSDP=6.46D-08 MaxDP=7.64D-06 DE=-1.58D-10 OVMax= 2.96D-06

 Cycle  15  Pass 1  IDiag  1:
 E= -353.738165251799     Delta-E=       -0.000000000019 Rises=F Damp=F
 DIIS: error= 8.95D-08 at cycle  15 NSaved=  12.
 NSaved=12 IEnMin=12 EnMin= -353.738165251799     IErMin=12 ErrMin= 8.95D-08
 ErrMax= 8.95D-08 EMaxC= 1.00D-01 BMatC= 1.04D-11 BMatP= 4.53D-11
 IDIUse=1 WtCom= 1.00D+00 WtEn= 0.00D+00
 Coeff-Com: -0.287D-05 0.271D-04 0.695D-04-0.280D-03-0.242D-03 0.672D-03
 Coeff-Com:  0.468D-02-0.538D-02-0.353D-01-0.553D-01 0.307D+00 0.784D+00
 Coeff:     -0.287D-05 0.271D-04 0.695D-04-0.280D-03-0.242D-03 0.672D-03
 Coeff:      0.468D-02-0.538D-02-0.353D-01-0.553D-01 0.307D+00 0.784D+00
 Gap=     0.134 Goal=   None    Shift=    0.000
 Gap=     0.153 Goal=   None    Shift=    0.000
 RMSDP=2.14D-08 MaxDP=2.14D-06 DE=-1.90D-11 OVMax= 9.35D-07

 Cycle  16  Pass 1  IDiag  1:
 E= -353.738165251798     Delta-E=        0.000000000001 Rises=F Damp=F
 DIIS: error= 3.33D-08 at cycle  16 NSaved=  13.
 NSaved=13 IEnMin=12 EnMin= -353.738165251799     IErMin=13 ErrMin= 3.33D-08
 ErrMax= 3.33D-08 EMaxC= 1.00D-01 BMatC= 9.07D-13 BMatP= 1.04D-11
 IDIUse=1 WtCom= 1.00D+00 WtEn= 0.00D+00
 Coeff-Com: -0.617D-05 0.471D-04 0.823D-04-0.262D-03-0.454D-03 0.131D-03
 Coeff-Com:  0.414D-02 0.217D-02-0.981D-02-0.584D-01-0.133D-01 0.203D+00
 Coeff-Com:  0.873D+00
 Coeff:     -0.617D-05 0.471D-04 0.823D-04-0.262D-03-0.454D-03 0.131D-03
 Coeff:      0.414D-02 0.217D-02-0.981D-02-0.584D-01-0.133D-01 0.203D+00
 Coeff:      0.873D+00
 Gap=     0.134 Goal=   None    Shift=    0.000
 Gap=     0.153 Goal=   None    Shift=    0.000
 RMSDP=8.26D-09 MaxDP=5.62D-07 DE= 9.09D-13 OVMax= 4.33D-07

 SCF Done:  E(UB3LYP) =  -353.738165252     A.U. after   16 cycles
             Convg  =    0.8259D-08             -V/T =  2.0062
 <Sx>= 0.0000 <Sy>= 0.0000 <Sz>= 0.0000 <S**2>= 1.0175 S= 0.6258
 <L.S>= 0.000000000000E+00
 KE= 3.515479981756D+02 PE=-1.703129740950D+03 EE= 5.552807775932D+02
 Annihilation of the first spin contaminant:
 S**2 before annihilation     1.0175,   after     0.1477
 Leave Link  502 at Fri Feb  7 01:26:47 2014, MaxMem= 4026531840 cpu:     970.2
 (Enter /usr/caen/gaussian-09revc/g09/l508.exe)
 QCSCF skips out because SCF is already converged.
 Leave Link  508 at Fri Feb  7 01:26:48 2014, MaxMem= 4026531840 cpu:       0.0
 (Enter /usr/caen/gaussian-09revc/g09/l801.exe)
 Range of M.O.s used for correlation:     1   324
 NBasis=   324 NAE=    36 NBE=    36 NFC=     0 NFV=     0
 NROrb=    324 NOA=    36 NOB=    36 NVA=   288 NVB=   288

 **** Warning!!: The largest alpha MO coefficient is  0.16249877D+03


 **** Warning!!: The largest beta MO coefficient is  0.14461116D+03

 Leave Link  801 at Fri Feb  7 01:26:48 2014, MaxMem= 4026531840 cpu:       0.4
 (Enter /usr/caen/gaussian-09revc/g09/l914.exe)
 UHF ground state
 Doing stability rather than CIS.
 MDV=  4026531840 DFT=T DoStab=T Mixed=T DoRPA=F DoScal=F NonHer=F
 Keep R1 and R2 ints in memory in canonical form, NReq=3198071517.
 Symmetry not used in FoFDir.
 MinBra= 0 MaxBra= 2 Meth= 1.
 IRaf=       0 NMat=   1 IRICut=       1 DoRegI=T DoRafI=F ISym2E= 0 JSym2E=0.
 Making orbital integer symmetry assigments:
 Orbital symmetries:
 Alpha Orbitals:
       Occupied  (A) (A) (A) (A) (A) (A) (A) (A) (A) (A) (A) (A)
                 (A) (A) (A) (A) (A) (A) (A) (A) (A) (A) (A) (A)
                 (A) (A) (A) (A) (A) (A) (A) (A) (A) (A) (A) (A)
       Virtual   (A) (A) (A) (A) (A) (A) (A) (A) (A) (A) (A) (A)
                 (A) (A) (A) (A) (A) (A) (A) (A) (A) (A) (A) (A)
                 (A) (A) (A) (A) (A) (A) (A) (A) (A) (A) (A) (A)
                 (A) (A) (A) (A) (A) (A) (A) (A) (A) (A) (A) (A)
                 (A) (A) (A) (A) (A) (A) (A) (A) (A) (A) (A) (A)
                 (A) (A) (A) (A) (A) (A) (A) (A) (A) (A) (A) (A)
                 (A) (A) (A) (A) (A) (A) (A) (A) (A) (A) (A) (A)
                 (A) (A) (A) (A) (A) (A) (A) (A) (A) (A) (A) (A)
                 (A) (A) (A) (A) (A) (A) (A) (A) (A) (A) (A) (A)
                 (A) (A) (A) (A) (A) (A) (A) (A) (A) (A) (A) (A)
                 (A) (A) (A) (A) (A) (A) (A) (A) (A) (A) (A) (A)
                 (A) (A) (A) (A) (A) (A) (A) (A) (A) (A) (A) (A)
                 (A) (A) (A) (A) (A) (A) (A) (A) (A) (A) (A) (A)
                 (A) (A) (A) (A) (A) (A) (A) (A) (A) (A) (A) (A)
                 (A) (A) (A) (A) (A) (A) (A) (A) (A) (A) (A) (A)
                 (A) (A) (A) (A) (A) (A) (A) (A) (A) (A) (A) (A)
                 (A) (A) (A) (A) (A) (A) (A) (A) (A) (A) (A) (A)
                 (A) (A) (A) (A) (A) (A) (A) (A) (A) (A) (A) (A)
                 (A) (A) (A) (A) (A) (A) (A) (A) (A) (A) (A) (A)
                 (A) (A) (A) (A) (A) (A) (A) (A) (A) (A) (A) (A)
                 (A) (A) (A) (A) (A) (A) (A) (A) (A) (A) (A) (A)
                 (A) (A) (A) (A) (A) (A) (A) (A) (A) (A) (A) (A)
                 (A) (A) (A) (A) (A) (A) (A) (A) (A) (A) (A) (A)
                 (A) (A) (A) (A) (A) (A) (A) (A) (A) (A) (A) (A)
 Beta  Orbitals:
       Occupied  (A) (A) (A) (A) (A) (A) (A) (A) (A) (A) (A) (A)
                 (A) (A) (A) (A) (A) (A) (A) (A) (A) (A) (A) (A)
                 (A) (A) (A) (A) (A) (A) (A) (A) (A) (A) (A) (A)
       Virtual   (A) (A) (A) (A) (A) (A) (A) (A) (A) (A) (A) (A)
                 (A) (A) (A) (A) (A) (A) (A) (A) (A) (A) (A) (A)
                 (A) (A) (A) (A) (A) (A) (A) (A) (A) (A) (A) (A)
                 (A) (A) (A) (A) (A) (A) (A) (A) (A) (A) (A) (A)
                 (A) (A) (A) (A) (A) (A) (A) (A) (A) (A) (A) (A)
                 (A) (A) (A) (A) (A) (A) (A) (A) (A) (A) (A) (A)
                 (A) (A) (A) (A) (A) (A) (A) (A) (A) (A) (A) (A)
                 (A) (A) (A) (A) (A) (A) (A) (A) (A) (A) (A) (A)
                 (A) (A) (A) (A) (A) (A) (A) (A) (A) (A) (A) (A)
                 (A) (A) (A) (A) (A) (A) (A) (A) (A) (A) (A) (A)
                 (A) (A) (A) (A) (A) (A) (A) (A) (A) (A) (A) (A)
                 (A) (A) (A) (A) (A) (A) (A) (A) (A) (A) (A) (A)
                 (A) (A) (A) (A) (A) (A) (A) (A) (A) (A) (A) (A)
                 (A) (A) (A) (A) (A) (A) (A) (A) (A) (A) (A) (A)
                 (A) (A) (A) (A) (A) (A) (A) (A) (A) (A) (A) (A)
                 (A) (A) (A) (A) (A) (A) (A) (A) (A) (A) (A) (A)
                 (A) (A) (A) (A) (A) (A) (A) (A) (A) (A) (A) (A)
                 (A) (A) (A) (A) (A) (A) (A) (A) (A) (A) (A) (A)
                 (A) (A) (A) (A) (A) (A) (A) (A) (A) (A) (A) (A)
                 (A) (A) (A) (A) (A) (A) (A) (A) (A) (A) (A) (A)
                 (A) (A) (A) (A) (A) (A) (A) (A) (A) (A) (A) (A)
                 (A) (A) (A) (A) (A) (A) (A) (A) (A) (A) (A) (A)
                 (A) (A) (A) (A) (A) (A) (A) (A) (A) (A) (A) (A)
[...]
 06614,0.00050122,0.00091529,0.00030553,-0.00124405,-0.01201613,0.00131
 996,0.00003297,0.00053754,-0.00057210,-0.00007788,-0.30342714,0.016633
 03,-0.00026023,-0.00752892,0.00056389,-0.00022574,-0.01032651,0.000848
 23,-0.00061551,0.33120168,-0.00000005,-0.00000004,0.00000162,-0.000001
 29,-0.00000139,0.00000277,-0.00000159,0.00000236,-0.00000150,0.0000012
 8,-0.00000206,-0.00000152,-0.00001288,-0.00000668,-0.00000149,-0.00002
 013,0.00004745,-0.00000037,0.00000359,-0.00000404,0.00001892,-0.000007
 91,0.00000872,-0.00000877,-0.00011375,-0.00009333,-0.00008062,0.000029
 31,-0.00001301,-0.00005561,-0.00002527,0.00001752,-0.00002988,-0.00061
 218,0.00028440,0.00002172,0.00000194,0.00015517,0.00001352,-0.00011684
 ,0.00015202,0.00034102,-0.00059007,-0.01434311,-0.00003128,-0.00069288
 ,-0.00009271,0.00026326,-0.00026020,0.01697951,-0.04811318,0.00035311,
 0.03184103,-0.00105615,0.00074376,-0.01606603,0.00063165,-0.00175460,-
 0.01723947,0.04824801,-0.00004771,0.00001646,0.00004867,0.00001877,0.0
 0001813,0.00000268,0.00001985,0.00000174,0.00001232,-0.00002616,-0.000
 00359,0.00000115,0.00013410,0.00004445,-0.00012151,-0.00008949,-0.0001
 0635,0.00016120,-0.00001343,0.00025976,0.00000310,0.00006780,-0.000001
 91,0.00003505,0.00060012,-0.00087364,-0.00033629,-0.00006204,-0.000150
 05,0.00024482,-0.00078697,-0.00043241,-0.00026574,-0.00066707,-0.02927
 214,0.00034106,0.00098779,0.00056723,0.00087064,-0.00468500,-0.0026755
 0,-0.00239499,-0.07802273,-0.00400340,-0.00042716,-0.00016100,-0.00098
 703,-0.00003156,-0.00172142,0.03117576,-0.00026842,0.00096609,-0.00040
 952,-0.00057921,0.00071428,0.00087072,-0.00006358,-0.00484737,0.003303
 71,0.00246797,0.56909089,0.00005202,-0.00002631,-0.00003398,-0.0000057
 7,-0.00000367,-0.00000311,-0.00000499,-0.00000104,-0.00000502,0.000016
 00,0.00000830,0.00000879,0.00005218,0.00014245,0.00011852,0.00060136,-
 0.00047712,-0.00024269,-0.00015513,-0.00006235,-0.00007607,-0.00001188
 ,0.00001072,-0.00001824,-0.00042425,0.00109938,0.00012682,-0.00008414,
 -0.00005158,0.00011200,-0.00002860,-0.00070443,0.00012462,-0.00641749,
 -0.01714384,-0.00245835,0.00132819,0.00120181,0.00093405,-0.00105488,0
 .00083306,-0.00004092,-0.00057239,-0.17545456,0.00504376,-0.00002178,-
 0.01372090,0.00080211,0.00602939,-0.02086344,-0.00215752,-0.00138734,0
 .00119475,0.00070405,-0.00144922,0.00096015,0.00049791,0.00096590,0.00
 029085,-0.00069602,-0.00735017,0.45603533,-0.00002025,-0.00000326,0.00
 002967,0.00000414,-0.00000088,-0.00000570,-0.00000432,-0.00000399,-0.0
 0001677,-0.00002456,0.00000138,0.00000098,0.00006420,0.00006939,-0.000
 06743,0.00019227,-0.00041306,0.00026858,-0.00010949,-0.00001462,-0.000
 12206,-0.00000831,0.00000330,-0.00007263,-0.00041007,0.00056256,-0.000
 23508,-0.00012936,-0.00009471,0.00013192,0.00028257,-0.00063458,0.0004
 0312,-0.00114411,-0.01633573,-0.00030587,0.00017414,-0.00130397,0.0006
 1771,-0.00280774,-0.00206250,-0.00105430,0.00052547,0.00740775,-0.0789
 6835,0.00044129,0.03286699,-0.00078317,0.00115671,-0.01604275,0.000243
 65,-0.00014868,-0.00113198,0.00052591,-0.00080568,0.00067000,0.0002305
 5,0.00233711,-0.00216858,-0.00092022,-0.00083162,0.00919140,0.55772508
 ,-0.00003398,0.00001724,0.00002231,0.00000675,-0.00000328,-0.00000306,
 0.00000632,-0.00000015,-0.00000478,-0.00003123,-0.00000027,0.00000293,
 0.00009469,-0.00003616,-0.00006442,0.00011666,-0.00017663,0.00010711,-
 0.00011846,-0.00005497,-0.00005528,-0.00001510,0.00001076,-0.00001809,
 -0.00005242,0.00030871,-0.00027070,0.00000509,-0.00008143,0.00005841,0
 .00034676,-0.00034373,0.00003375,0.00082758,0.00013898,0.00090811,0.00
 003254,0.00014446,-0.00000061,-0.00000651,-0.00008384,-0.00011304,-0.0
 0119744,0.00034886,0.00022878,0.00006247,-0.00044859,0.00036112,0.0007
 2769,0.00093453,0.00038254,-0.00002924,-0.00003476,0.00001918,0.000517
 20,0.00003140,-0.00013835,0.00021277,-0.00008514,0.00015810,-0.2235869
 0,-0.07202313,-0.09649672,0.24240046,-0.00003298,0.00001163,0.00002889
 ,0.00000749,0.00000300,-0.00000163,0.00000593,-0.00000161,-0.00000087,
 -0.00002076,-0.00000323,-0.00000024,0.00003050,-0.00001517,-0.00008579
 ,-0.00022084,0.00015985,0.00011982,0.00006852,0.00010668,0.00002173,0.
 00001873,-0.00001603,-0.00000472,0.00075277,-0.00031863,-0.00020703,-0
 .00005602,0.00002259,0.00004067,-0.00019347,0.00033377,0.00002190,0.00
 185414,-0.00668069,0.00130116,0.00023321,0.00013782,-0.00005757,-0.001
 79502,-0.00099027,-0.00090055,-0.02800243,-0.01144696,-0.01644852,0.00
 003794,0.00122058,0.00055119,-0.00158103,0.00146228,-0.00022056,0.0001
 4877,-0.00004720,0.00000178,0.00106960,-0.00022491,0.00006372,0.000059
 66,0.00037937,0.00039688,-0.07058071,-0.07389633,-0.03827870,0.0787890
 4,0.08280990,-0.00000817,0.00000594,0.00000298,0.00000190,-0.00000200,
 0.00000031,0.00000411,0.00000141,0.00000155,-0.00000656,-0.00000075,0.
 00000148,0.00001052,-0.00001647,-0.00001096,-0.00008679,0.00012663,-0.
 00000698,0.00005161,0.00001610,0.00003069,0.00001595,0.00001248,0.0000
 2221,0.00021791,-0.00007516,0.00012278,-0.00004319,-0.00002959,0.00000
 601,-0.00010058,0.00015953,-0.00012389,0.00026910,-0.00014483,0.000519
 92,0.00027423,0.00021166,0.00049301,-0.00018766,-0.00016506,0.00035752
 ,0.00183789,0.00111331,-0.00028787,0.00038555,-0.00036277,0.00041150,-
 0.00036173,0.00000714,-0.00009717,-0.00013847,-0.00006761,-0.00009351,
 0.00033411,-0.00030486,0.00020965,0.00026864,0.00013715,0.00000046,-0.
 09612159,-0.03901520,-0.09922827,0.10630202,0.04284142,0.10373870,0.00
 000655,-0.00000718,-0.00000090,-0.00000268,0.00000186,-0.00000149,-0.0
 0000445,-0.00000346,-0.00000475,0.00000551,-0.00000027,-0.00000085,-0.
 00003353,0.00001164,-0.00000654,0.00001320,-0.00001068,-0.00001102,0.0
 0001233,-0.00000167,-0.00000113,-0.00002585,-0.00002578,-0.00004237,-0
 .00016284,-0.00004235,-0.00007757,0.00007877,0.00015778,-0.00009300,-0
 .00005913,0.00004575,0.00014257,0.00033692,-0.00023670,0.00119731,0.00
 016021,-0.00003584,-0.00018381,-0.00002295,0.00010655,-0.00012617,-0.0
 0112554,-0.00084303,0.00096160,0.00065939,-0.00029522,0.00002651,0.000
 13240,0.00023037,-0.00097924,0.00022125,0.00016992,0.00020041,-0.00000
 610,0.00003922,-0.00013020,-0.00008473,-0.00013599,0.00016161,-0.04738
 242,0.00013199,0.00115252,0.00072071,0.00927609,-0.02596218,0.04596974
 ,-0.00000273,0.00000054,0.00000572,-0.00000018,0.00000034,0.00000140,-
 0.00000124,0.00000151,-0.00000130,-0.00000022,-0.00000108,-0.00000194,
 -0.00001142,-0.00000952,-0.00001370,-0.00005321,0.00004096,0.00000970,
 0.00000639,0.00000473,0.00000950,-0.00003179,-0.00000983,-0.00002064,-
 0.00013450,-0.00003075,-0.00010273,0.00019377,0.00000214,-0.00012243,-
 0.00007207,0.00000333,0.00002156,0.00091762,0.00171585,0.00149286,-0.0
 0042590,0.00018096,-0.00104274,0.00027274,0.00041287,-0.00034993,-0.00
 041192,-0.01267282,0.03306322,-0.00006574,-0.00677923,-0.00012507,-0.0
 0090814,0.00152675,0.00111647,0.00050745,0.00002367,-0.00097258,0.0000
 7319,-0.00006601,-0.00010257,-0.00019043,0.00032339,-0.00038289,-0.000
 00101,-0.07135007,0.07519845,0.00101071,0.00296900,-0.01057685,0.00048
 000,0.08001506,0.00001441,0.00000293,-0.00001835,-0.00000014,-0.000000
 33,0.00000151,0.00000162,0.00000360,0.00001012,0.00001113,0.00000184,0
 .00000004,-0.00000191,0.00000889,0.00004355,-0.00000772,-0.00000708,-0
 .00005920,0.00000503,0.00000353,0.00001239,0.00002636,0.00002367,0.000
 04961,0.00013967,0.00016782,0.00009363,-0.00007607,-0.00011628,0.00007
 218,0.00005709,0.00005754,-0.00019046,-0.00023363,-0.00053744,0.000777
 80,0.00057163,0.00037977,0.00042065,0.00009502,0.00002450,0.00027886,0
 .00025965,0.00112512,-0.00222901,-0.00007250,0.00022030,0.00164785,0.0
 0001624,-0.00038816,0.00073805,-0.00050977,0.00031935,0.00034725,0.000
 04926,0.00002200,-0.00008004,-0.00009538,0.00006403,0.00029120,0.00101
 324,0.07533414,-0.27431758,0.00052406,0.00392560,-0.01336804,-0.001193
 07,-0.08476435,0.29925608,0.00002055,-0.00000792,-0.00001525,-0.000005
 67,-0.00000392,0.00000002,-0.00000444,0.00000091,-0.00000355,0.0000108
 6,0.00000300,0.00000016,0.00000752,0.00003522,0.00005312,0.00015791,-0
 .00020126,-0.00006663,-0.00006071,-0.00005866,-0.00003483,-0.00000636,
 -0.00000235,-0.00001340,-0.00094662,-0.00038271,-0.00025859,0.00003582
 ,0.00007234,0.00003781,-0.00097807,-0.00146938,-0.00025255,-0.00003978
 ,0.00038147,-0.00024256,-0.00002254,-0.00005285,-0.00004636,0.00011173
 ,0.00010981,0.00012527,0.00128728,-0.00097138,-0.00158308,0.00024325,0
 .00050988,-0.00031846,0.00063400,0.00056271,-0.00056971,-0.00000906,-0
 .00014237,-0.00000726,0.00045358,-0.00021243,0.00007776,0.00009844,0.0
 0000831,0.00028225,-0.21032030,0.08177015,0.09665000,-0.02095382,0.010
 20141,0.01306365,0.00055954,-0.00115353,-0.00059397,0.22968747,0.00002
 083,-0.00000781,-0.00001626,-0.00000212,0.00000637,0.00000296,-0.00000
 009,0.00000126,0.00001039,0.00002392,-0.00000050,-0.00000375,-0.000091
 53,0.00000848,0.00004906,-0.00033966,0.00033886,-0.00000515,0.00018734
 ,0.00012178,0.00007638,0.00006974,0.00000394,0.00007740,0.00015365,-0.
 00051619,0.00000458,-0.00006243,-0.00014074,0.00009911,-0.00115045,0.0
 0014924,-0.00026778,0.00081913,0.00131067,0.00000558,-0.00011463,-0.00
 008036,0.00000680,0.00005336,0.00011299,0.00019669,0.02668675,-0.01117
 118,-0.01621854,-0.00011055,0.00140168,0.00049254,-0.00187617,-0.00680
 358,0.00105636,-0.00021983,0.00009731,-0.00014210,-0.00006010,0.000160
 91,0.00027544,0.00181698,-0.00100300,-0.00093958,0.08057390,-0.0880158
 6,-0.04748206,-0.00836113,0.00401297,0.00613139,-0.00902624,0.00370243
 ,0.00414393,-0.08899190,0.09631623,0.00001059,-0.00001068,-0.00000586,
 -0.00000262,0.00000519,0.00000013,-0.00000093,-0.00000412,0.00000185,0
 .00001380,-0.00000228,-0.00000061,-0.00006381,0.00000798,0.00000238,-0
 .00020694,0.00032939,-0.00011182,0.00012986,0.00010906,0.00006908,0.00
 000070,-0.00004319,-0.00000730,0.00046130,-0.00074792,0.00036420,-0.00
 001232,0.00018618,-0.00015235,-0.00061004,0.00041798,0.00015664,0.0006
 3557,-0.00014010,-0.00009214,0.00005915,-0.00006605,-0.00001290,-0.000
 14033,0.00003739,0.00000544,-0.00260283,0.00105126,-0.00043459,-0.0004
 2520,-0.00035612,0.00050595,-0.00037007,0.00006918,0.00065592,-0.00028
 911,0.00024968,0.00042934,0.00031463,0.00004738,-0.00002081,0.00015837
 ,0.00008756,0.00047583,0.09617414,-0.04823329,-0.10409232,-0.01194908,
 0.00686179,0.00729615,0.02496650,-0.01233423,-0.01376782,-0.10627746,0
 .05245427,0.10871498,0.00464317,-0.01736722,-0.02122424,-0.00231878,-0
 .00260485,-0.00215672,-0.00236533,-0.00187162,-0.00275107,0.00133701,-
 0.00076568,-0.00117097,-0.12228532,0.04191991,0.06226120,-0.00491463,0
 .01924999,0.02600479,-0.00356086,0.00099781,0.00156042,-0.00363525,0.0
 0079313,0.00173535,0.00009427,0.00161340,0.00191548,-0.00042252,0.0002
 0152,-0.00007276,-0.00044960,-0.00022015,0.00024993,0.00005375,0.00001
 336,-0.00001793,-0.00000724,0.00006458,-0.00014742,0.00003989,-0.00022
 366,0.00001215,0.00013232,0.00005343,0.00009986,-0.00005589,-0.0000049
 8,-0.00007353,-0.00004406,-0.00008136,-0.00006695,0.00002062,0.0000096
 1,0.00000480,-0.00006969,-0.00000542,-0.00000435,0.00003338,-0.0000161
 3,0.00000390,-0.00017808,0.00004129,-0.00001759,-0.00003639,-0.0000618
 5,-0.00001616,0.00002615,0.00000184,-0.00000497,0.00003762,-0.00000843
 ,0.00000858,0.64127646,-0.00192750,-0.00815806,-0.02006126,-0.00057251
 ,-0.00003896,-0.00063379,-0.00100018,-0.00071890,-0.00015632,0.0013348
 9,0.00012638,0.00057829,0.03830042,-0.22625864,-0.22199822,0.00617371,
 0.00088731,-0.00989007,-0.00062286,0.00092983,0.00037268,0.00033530,0.
 00015426,0.00105307,-0.00040239,-0.00096271,0.00040300,0.00012735,0.00
 060045,-0.00040413,0.00014004,0.00027434,0.00057337,-0.00033489,0.0000
 1992,-0.00033499,0.00010083,-0.00007063,-0.00010006,-0.00001462,0.0000
 2278,-0.00001567,-0.00007444,-0.00003668,0.00007185,-0.00001567,0.0000
 2854,-0.00002647,-0.00000370,0.00003380,-0.00000117,0.00000506,-0.0000
 0865,-0.00001574,0.00002191,0.00000133,0.00000587,-0.00001245,0.000009
 46,0.00000109,0.00003160,0.00000066,0.00000279,0.00001300,0.00002159,-
 0.00000059,0.00002074,-0.00000021,-0.00004111,-0.00001046,-0.00004598,
 0.00003477,0.02080174,0.38344099,-0.00190447,-0.01779297,-0.01389527,-
 0.00085932,0.00022710,-0.00046571,-0.00039563,-0.00060672,0.00021926,0
 .00136266,0.00088803,0.00040768,0.05786305,-0.22274942,-0.34017471,0.0
 0963327,-0.01179021,-0.00805392,0.00060023,0.00111930,0.00023110,0.000
 04985,0.00002316,0.00106886,-0.00070242,0.00018655,-0.00107182,0.00025
 388,0.00059689,0.00032838,0.00043279,-0.00044220,0.00057001,-0.0003847
 3,-0.00045143,-0.00007148,-0.00001518,-0.00004743,0.00002136,0.0001178
 7,-0.00002405,-0.00011956,-0.00010241,0.00005817,-0.00005246,0.0000185
 4,0.00000651,0.00004983,0.00000567,0.00002079,0.00003050,-0.00000993,-
 0.00000614,0.00000060,0.00003721,0.00000949,0.00000404,-0.00000795,-0.
 00001178,-0.00001415,0.00000935,0.00001857,0.00006374,0.00005365,0.000
 01907,-0.00000283,-0.00000308,-0.00000784,-0.00000382,-0.00001523,-0.0
 0004786,-0.00003126,-0.05180050,0.34947899,0.54688356,0.00030774,-0.00
 008965,0.00167495,0.00010886,-0.00008508,-0.00031219,0.00038417,0.0000
 0893,0.00007771,0.00056188,0.00016974,0.00010727,0.00717065,0.00284256
 ,0.00288880,-0.00051229,0.00049545,-0.00034774,-0.00003668,-0.00011895
 ,-0.00007922,0.00013444,-0.00015008,-0.00020463,-0.00130695,0.00080244
 ,0.00132247,-0.00090814,0.00021934,0.00037308,-0.00050434,0.00029423,0
 .00033526,0.00000340,0.00031034,0.00027149,-0.00000491,0.00001371,-0.0
 0002355,-0.00004695,-0.00002172,0.00002653,0.00003877,-0.00005766,-0.0
 0006719,-0.00000814,0.00000592,-0.00000200,0.00002364,0.00002424,0.000
 01879,-0.00000075,-0.00000176,-0.00000305,0.00002322,-0.00000060,-0.00
 000054,-0.00000459,-0.00000071,-0.00000018,0.00000065,0.00001348,0.000
 01123,0.00002139,0.00000453,-0.00000091,0.00000555,-0.00000240,-0.0000
 0953,-0.00000598,-0.00003039,0.00000224,-0.20926757,-0.10034496,-0.100
 09606,0.21874743,0.00089436,0.00665957,-0.00773712,0.00074752,0.000611
 16,0.00089366,-0.00144491,-0.00157534,-0.00136732,0.00006385,0.0000209
 3,0.00025192,-0.01545557,-0.00537262,-0.00873736,-0.00052864,-0.004084
 57,0.00394120,0.00082117,-0.00009195,-0.00060760,-0.00077737,0.0004542
 9,0.00042981,-0.00027238,0.00046807,-0.00041837,0.00084123,-0.00041495
 ,0.00035022,-0.00010031,0.00032833,0.00007459,0.00028293,-0.00022780,0
 .00048140,-0.00019990,0.00004307,0.00011662,-0.00001571,0.00005333,-0.
 00000876,0.00007581,0.00008929,-0.00003857,0.00001492,-0.00001932,0.00
 001726,-0.00001157,-0.00003795,-0.00000497,-0.00000076,0.00000321,0.00
 001077,-0.00002279,0.00000154,-0.00000535,0.00000969,-0.00000447,-0.00
 000467,-0.00002690,0.00001285,0.00001468,-0.00001012,-0.00001156,-0.00
 000590,-0.00000059,-0.00000450,0.00001664,0.00000186,0.00002334,-0.000
 01067,-0.09714525,-0.10344246,-0.07478358,0.10799569,0.10272252,0.0029
 0404,-0.00757786,0.00282182,-0.00138882,-0.00109419,-0.00148997,0.0003
 7184,0.00051588,0.00041717,-0.00002331,0.00022964,0.00010356,-0.019865
 34,-0.01120393,-0.00803186,-0.00163388,0.00380004,-0.00223514,-0.00057
 823,0.00020812,0.00051621,0.00070139,-0.00034531,-0.00021200,-0.000015
 22,-0.00068796,0.00011026,0.00005937,-0.00015860,0.00024788,0.00078837
 ,0.00067465,-0.00036233,0.00025553,0.00050975,-0.00005582,-0.00004035,
 -0.00002059,0.00006712,-0.00021599,0.00008662,0.00008909,0.00007479,-0
 .00000865,0.00009951,0.00000458,0.00000814,-0.00001980,-0.00001927,-0.
 00001287,-0.00003307,0.00000606,-0.00000174,0.00000247,-0.00003062,-0.
 00000742,-0.00000179,0.00000516,0.00000879,0.00000464,0.00001543,-0.00
 003100,-0.00006056,-0.00004830,-0.00000314,0.00000302,0.00001125,0.000
 00233,-0.00000390,0.00001309,0.00003568,0.00005059,-0.09613225,-0.0744
 5830,-0.11186288,0.10707065,0.08487079,0.11362812,0.00081279,-0.000413
 20,-0.00180143,0.00020512,-0.00000284,-0.00000895,0.00013253,-0.000144
 64,-0.00018573,0.00087476,0.00018327,0.00015631,-0.00488679,-0.0004956
 1,0.00063016,0.00166988,-0.00092441,0.00036770,0.00006554,0.00015158,0
 .00011382,-0.00031466,0.00022810,0.00031337,0.00003682,0.00010360,0.00
 014185,0.00015547,-0.00016352,0.00013135,0.00010429,0.00020154,-0.0001
 4206,0.00012985,0.00002369,0.00003159,-0.00007069,0.00001790,0.0000485
 2,-0.00007376,0.00003893,0.00003838,0.00004932,0.00004088,0.00005812,0
 .00000631,-0.00000968,-0.00000756,-0.00001898,-0.00003203,-0.00002888,
 0.00000309,0.00000167,0.00000976,-0.00003848,-0.00000365,-0.00000289,0
 .00000846,0.00000692,0.00000299,-0.00000226,-0.00001080,-0.00003314,-0
 .00003756,-0.00001324,-0.00000321,0.00000201,0.00000276,0.00001425,0.0
 0000777,0.00004005,0.00001533,-0.29808345,0.03793002,0.08585890,-0.014
 92451,0.00426374,0.00771004,0.31418713,0.00198233,-0.00449624,0.004236
 02,-0.00042863,-0.00048961,-0.00084424,0.00018956,0.00071795,0.0007876
 9,-0.00060923,0.00010198,-0.00027919,0.01864590,-0.00011732,-0.0072160
 5,-0.00174337,0.00574373,-0.00779254,-0.00115976,0.00011499,0.00065901
 ,0.00216180,-0.00077276,-0.00090710,-0.00055761,-0.00012285,0.00001804
 ,0.00004141,-0.00009623,0.00018419,0.00012452,0.00025222,-0.00011507,0
 .00013355,0.00033198,0.00001639,-0.00003602,-0.00002777,0.00008721,-0.
 00009871,-0.00001834,0.00002462,0.00002583,-0.00004730,0.00001316,0.00
 002028,0.00000102,0.00001892,0.00000624,0.00001005,0.00000436,-0.00000
 311,-0.00000109,0.00000360,0.00000349,-0.00000199,-0.00000162,0.000000
 58,-0.00000338,-0.00000112,0.00001087,-0.00001882,-0.00001729,-0.00000
 437,0.00000156,0.00000347,-0.00000693,0.00000048,0.00000956,0.00000405
 ,0.00001675,-0.00000042,0.03461498,-0.04680978,-0.02389100,-0.01229665
 ,0.00379601,0.00466113,-0.04102101,0.04193475,0.00120775,0.00456864,-0
 .00256155,0.00008618,0.00055923,0.00070960,-0.00038921,-0.00058394,-0.
 00041634,-0.00087775,-0.00039598,0.00005283,0.02449941,-0.00441541,-0.
 00566886,-0.00065494,-0.00790219,0.00238186,0.00192182,-0.00041498,-0.
 00110611,-0.00073457,0.00026760,0.00017145,-0.00069664,-0.00009584,-0.
 00006229,0.00017096,-0.00014527,0.00021541,0.00001644,0.00024227,-0.00
 005924,0.00019705,0.00000042,0.00029147,-0.00008787,0.00001508,0.00001
 056,-0.00006065,0.00009613,0.00001331,0.00001501,0.00002080,-0.0000578
 7,0.00000287,-0.00000420,-0.00000020,0.00000803,0.00000895,0.00001370,
 -0.00000075,-0.00000061,-0.00000328,0.00000937,-0.00000071,-0.00000104
 ,-0.00000532,0.00000545,0.00000011,0.00004084,-0.00000533,0.00000941,0
 .00000038,0.00001370,0.00000159,-0.00000290,0.00000057,-0.00000255,-0.
 00000422,0.00000453,0.00000130,0.08180095,-0.02443789,-0.07405905,-0.0
 1303366,0.00226070,0.00620768,-0.09342858,0.03033825,0.07391811\\-0.00
 001832,-0.00001207,0.00001788,0.00000258,-0.00000685,0.00000380,0.0000
 0685,-0.00001118,-0.00000495,0.00000439,-0.00000580,-0.00000048,0.0000
 2246,-0.00000761,-0.00005471,-0.00000319,-0.00002003,0.00001098,0.0000
 0028,-0.00000208,0.00000790,0.00000214,-0.00000955,-0.00000234,-0.0000
 0173,-0.00000066,0.00000339,-0.00000368,0.00000901,0.00000141,-0.00000
 252,0.00000371,-0.00000719,0.00000203,-0.00000118,0.00000395,0.0000010
 6,-0.00000828,0.00000063,0.00000046,-0.00000253,0.00000985,0.00000051,
 0.00000445,0.00000125,-0.00000165,0.00001005,0.00000241,0.00000055,-0.
 00000025,0.00000558,0.00000123,-0.00000665,0.00000382,-0.00000016,0.00
 000387,0.00000391,0.00000106,0.00000037,0.00001269,-0.00000154,0.00000
 281,-0.00000963,-0.00000190,0.00000614,-0.00001023,-0.00000006,-0.0000
 0403,-0.00001128,-0.00000189,0.00000626,-0.00001267,-0.00003672,0.0000
 3837,0.00004421,-0.00000709,0.00001579,-0.00000751,0.00003485,-0.00000
 208,-0.00001267\\\@


 ... UNTIL SCIENCE IS MIXED WITH EMOTION AND APPEALS TO THE HEART AND
 IMAGINATION , IT IS LIKE DEAD INORGANIC MATTER; AND WHEN IT IS SO MIXED
 AND SO TRANSFORMED IT IS LITERATURE.

                                  -- JOHN BURROUGHS
 Job cpu time:  0 days  1 hours 23 minutes 32.4 seconds.
 File lengths (MBytes):  RWF=    466 Int=      0 D2E=      0 Chk=     15 Scr=      1
 Normal termination of Gaussian 09 at Fri Feb  7 02:24:23 2014.
