 Entering Gaussian System, Link 0=g09
 Initial command:
 /usr/caen/gaussian-09revc/g09/l1.exe /scratch/avioli_flux/hetanjin/scratch/Gau-120074.inp -scrdir=/scratch/avioli_flux/hetanjin/scratch/
 Entering Link 1 = /usr/caen/gaussian-09revc/g09/l1.exe PID=    120075.
  
 Copyright (c) 1988,1990,1992,1993,1995,1998,2003,2009,2011,
            Gaussian, Inc.  All Rights Reserved.
  
 This is part of the Gaussian(R) 09 program.  It is based on
 the Gaussian(R) 03 system (copyright 2003, Gaussian, Inc.),
 the Gaussian(R) 98 system (copyright 1998, Gaussian, Inc.),
 the Gaussian(R) 94 system (copyright 1995, Gaussian, Inc.),
 the Gaussian 92(TM) system (copyright 1992, Gaussian, Inc.),
 the Gaussian 90(TM) system (copyright 1990, Gaussian, Inc.),
 the Gaussian 88(TM) system (copyright 1988, Gaussian, Inc.),
 the Gaussian 86(TM) system (copyright 1986, Carnegie Mellon
 University), and the Gaussian 82(TM) system (copyright 1983,
 Carnegie Mellon University). Gaussian is a federally registered
 trademark of Gaussian, Inc.
  
 This software contains proprietary and confidential information,
 including trade secrets, belonging to Gaussian, Inc.
  
 This software is provided under written license and may be
 used, copied, transmitted, or stored only in accord with that
 written license.
  
 The following legend is applicable only to US Government
 contracts under FAR:
  
                    RESTRICTED RIGHTS LEGEND
  
 Use, reproduction and disclosure by the US Government is
 subject to restrictions as set forth in subparagraphs (a)
 and (c) of the Commercial Computer Software - Restricted
 Rights clause in FAR 52.227-19.
  
 Gaussian, Inc.
 340 Quinnipiac St., Bldg. 40, Wallingford CT 06492
  
  
 ---------------------------------------------------------------
 Warning -- This program may not be used in any manner that
 competes with the business of Gaussian, Inc. or will provide
 assistance to any competitor of Gaussian, Inc.  The licensee
 of this program is prohibited from giving any competitor of
 Gaussian, Inc. access to this program.  By using this program,
 the user acknowledges that Gaussian, Inc. is engaged in the
 business of creating and licensing software in the field of
 computational chemistry and represents and warrants to the
 licensee that it is not a competitor of Gaussian, Inc. and that
 it will not use this program in any manner prohibited above.
 ---------------------------------------------------------------
  

 Cite this work as:
 Gaussian 09, Revision C.01,
 M. J. Frisch, G. W. Trucks, H. B. Schlegel, G. E. Scuseria, 
 M. A. Robb, J. R. Cheeseman, G. Scalmani, V. Barone, B. Mennucci, 
 G. A. Petersson, H. Nakatsuji, M. Caricato, X. Li, H. P. Hratchian, 
 A. F. Izmaylov, J. Bloino, G. Zheng, J. L. Sonnenberg, M. Hada, 
 M. Ehara, K. Toyota, R. Fukuda, J. Hasegawa, M. Ishida, T. Nakajima, 
 Y. Honda, O. Kitao, H. Nakai, T. Vreven, J. A. Montgomery, Jr., 
 J. E. Peralta, F. Ogliaro, M. Bearpark, J. J. Heyd, E. Brothers, 
 K. N. Kudin, V. N. Staroverov, T. Keith, R. Kobayashi, J. Normand, 
 K. Raghavachari, A. Rendell, J. C. Burant, S. S. Iyengar, J. Tomasi, 
 M. Cossi, N. Rega, J. M. Millam, M. Klene, J. E. Knox, J. B. Cross, 
 V. Bakken, C. Adamo, J. Jaramillo, R. Gomperts, R. E. Stratmann, 
 O. Yazyev, A. J. Austin, R. Cammi, C. Pomelli, J. W. Ochterski, 
 R. L. Martin, K. Morokuma, V. G. Zakrzewski, G. A. Voth, 
 P. Salvador, J. J. Dannenberg, S. Dapprich, A. D. Daniels, 
 O. Farkas, J. B. Foresman, J. V. Ortiz, J. Cioslowski, 
 and D. J. Fox, Gaussian, Inc., Wallingford CT, 2010.
 
 ******************************************
 Gaussian 09:  EM64L-G09RevC.01 23-Sep-2011
                 6-Feb-2014 
 ******************************************
 %mem=30GB
 %nprocshared=8
 Will use up to    8 processors via shared memory.
 %chk=C9H18OOH_1_26_f.chk
 --------------------------------------------------
 #p stable=(opt,xqc) ub3lyp/6-311++g(d,p) guess=mix
 --------------------------------------------------
 1/38=1/1;
 2/12=2,17=6,18=5,40=1/2;
 3/5=4,6=6,7=1111,11=2,16=1,25=1,30=1,74=-5,116=2/1,2,3;
 4/13=-1/1;
 5/5=2,38=5/2;
 6/7=2,8=2,9=2,10=2,28=1/1;
 8/6=1,10=90,11=11/1;
 9/8=-3,42=1,46=1/14;
 5/5=2,8=3,13=1,17=40,38=5/2,8(-2);
 6/7=2,8=2,9=2,10=2,28=1/1;
 99/5=1,9=1/99;
 Leave Link    1 at Thu Feb  6 23:18:36 2014, MaxMem= 4026531840 cpu:       0.6
 (Enter /usr/caen/gaussian-09revc/g09/l101.exe)
 -----------------------------------------------------------------
 C9H18OOH_1_26_f using B3LYP/6-311++g(d,p) to do opt and cal. freq
 -----------------------------------------------------------------
 Charge =  0 Multiplicity = 2
 Symbolic Z-Matrix:
 C                    -3.17301  -1.66954  -0.19397 
 H                    -2.87617  -2.71161  -0.33638 
 H                    -3.39945  -1.24766  -1.17651 
 H                    -4.09526  -1.66148   0.39469 
 C                    -2.05413  -0.87986   0.50238 
 H                    -1.87109  -1.34161   1.4836 
 C                    -0.73961  -0.93993  -0.29882 
 H                    -0.55589  -1.99184  -0.54858 
 H                    -0.8744   -0.42299  -1.25598 
 C                     0.49652  -0.37953   0.41648 
 H                     0.59872  -0.86202   1.39833 
 H                     0.35867   0.68881   0.60351 
 C                     1.78599  -0.59801  -0.38576 
 H                     1.69941  -0.08941  -1.35556 
 C                     3.08034  -0.13145   0.30742 
 H                     3.12047  -0.61431   1.29398 
 C                     4.31064  -0.59099  -0.48791 
 H                     4.31678  -0.14434  -1.48839 
 H                     5.23878  -0.29712   0.0113 
 H                     4.3251   -1.67831  -0.60927 
 C                    -2.50965   0.54486   0.83292 
 H                    -3.43268   0.53048   1.41751 
 H                    -1.74913   1.12829   1.35099 
 C                     3.11823   1.38842   0.52354 
 H                     4.04969   1.68942   1.01217 
 H                     3.05973   1.91767  -0.43412 
 H                     2.29233   1.73843   1.1474 
 O                    -2.87034   1.29134  -0.37199 
 O                    -1.8763    2.03076  -0.82758 
 H                    -2.2286    2.82553  -1.2348 
 
 NAtoms=     30 NQM=        0 NQMF=       0 NMMI=     30 NMMIF=      0
                NMic=       0 NMicF=      0.
                    Isotopes and Nuclear Properties:
 (Nuclear quadrupole moments (NQMom) in fm**2, nuclear magnetic moments (NMagM)
  in nuclear magnetons)

  Atom         1           2           3           4           5           6           7           8           9          10
 IAtWgt=          12           1           1           1          12           1          12           1           1          12
 AtmWgt=  12.0000000   1.0078250   1.0078250   1.0078250  12.0000000   1.0078250  12.0000000   1.0078250   1.0078250  12.0000000
 NucSpn=           0           1           1           1           0           1           0           1           1           0
 AtZEff=   0.0000000   0.0000000   0.0000000   0.0000000   0.0000000   0.0000000   0.0000000   0.0000000   0.0000000   0.0000000
 NQMom=    0.0000000   0.0000000   0.0000000   0.0000000   0.0000000   0.0000000   0.0000000   0.0000000   0.0000000   0.0000000
 NMagM=    0.0000000   2.7928460   2.7928460   2.7928460   0.0000000   2.7928460   0.0000000   2.7928460   2.7928460   0.0000000

  Atom        11          12          13          14          15          16          17          18          19          20
 IAtWgt=           1           1          12           1          12           1          12           1           1           1
 AtmWgt=   1.0078250   1.0078250  12.0000000   1.0078250  12.0000000   1.0078250  12.0000000   1.0078250   1.0078250   1.0078250
 NucSpn=           1           1           0           1           0           1           0           1           1           1
 AtZEff=   0.0000000   0.0000000   0.0000000   0.0000000   0.0000000   0.0000000   0.0000000   0.0000000   0.0000000   0.0000000
 NQMom=    0.0000000   0.0000000   0.0000000   0.0000000   0.0000000   0.0000000   0.0000000   0.0000000   0.0000000   0.0000000
 NMagM=    2.7928460   2.7928460   0.0000000   2.7928460   0.0000000   2.7928460   0.0000000   2.7928460   2.7928460   2.7928460

  Atom        21          22          23          24          25          26          27          28          29          30
 IAtWgt=          12           1           1          12           1           1           1          16          16           1
 AtmWgt=  12.0000000   1.0078250   1.0078250  12.0000000   1.0078250   1.0078250   1.0078250  15.9949146  15.9949146   1.0078250
 NucSpn=           0           1           1           0           1           1           1           0           0           1
 AtZEff=   0.0000000   0.0000000   0.0000000   0.0000000   0.0000000   0.0000000   0.0000000   0.0000000   0.0000000   0.0000000
 NQMom=    0.0000000   0.0000000   0.0000000   0.0000000   0.0000000   0.0000000   0.0000000   0.0000000   0.0000000   0.0000000
 NMagM=    0.0000000   2.7928460   2.7928460   0.0000000   2.7928460   2.7928460   2.7928460   0.0000000   0.0000000   2.7928460
 Leave Link  101 at Thu Feb  6 23:18:37 2014, MaxMem= 4026531840 cpu:       0.6
 (Enter /usr/caen/gaussian-09revc/g09/l202.exe)
                          Input orientation:                          
 ---------------------------------------------------------------------
 Center     Atomic      Atomic             Coordinates (Angstroms)
 Number     Number       Type             X           Y           Z
 ---------------------------------------------------------------------
      1          6           0       -3.173014   -1.669538   -0.193965
      2          1           0       -2.876169   -2.711612   -0.336378
      3          1           0       -3.399449   -1.247661   -1.176513
      4          1           0       -4.095257   -1.661481    0.394692
      5          6           0       -2.054134   -0.879861    0.502380
      6          1           0       -1.871088   -1.341605    1.483598
      7          6           0       -0.739611   -0.939929   -0.298821
      8          1           0       -0.555894   -1.991835   -0.548576
      9          1           0       -0.874402   -0.422986   -1.255980
     10          6           0        0.496519   -0.379528    0.416475
     11          1           0        0.598724   -0.862021    1.398330
     12          1           0        0.358666    0.688807    0.603514
     13          6           0        1.785988   -0.598005   -0.385763
     14          1           0        1.699407   -0.089406   -1.355555
     15          6           0        3.080336   -0.131454    0.307420
     16          1           0        3.120467   -0.614312    1.293978
     17          6           0        4.310638   -0.590989   -0.487909
     18          1           0        4.316782   -0.144337   -1.488392
     19          1           0        5.238775   -0.297116    0.011302
     20          1           0        4.325105   -1.678305   -0.609266
     21          6           0       -2.509649    0.544864    0.832923
     22          1           0       -3.432676    0.530476    1.417505
     23          1           0       -1.749127    1.128289    1.350988
     24          6           0        3.118227    1.388421    0.523541
     25          1           0        4.049695    1.689416    1.012167
     26          1           0        3.059733    1.917672   -0.434118
     27          1           0        2.292328    1.738431    1.147402
     28          8           0       -2.870339    1.291342   -0.371991
     29          8           0       -1.876303    2.030758   -0.827575
     30          1           0       -2.228595    2.825530   -1.234795
 ---------------------------------------------------------------------
                    Distance matrix (angstroms):
                    1          2          3          4          5
     1  C    0.000000
     2  H    1.092848   0.000000
     3  H    1.093002   1.767145   0.000000
     4  H    1.094127   1.767318   1.767507   0.000000
     5  C    1.536352   2.175906   2.182620   2.188312   0.000000
     6  H    2.148667   2.489863   3.069349   2.496991   1.099774
     7  C    2.542592   2.775815   2.817762   3.501708   1.540617
     8  H    2.660628   2.438603   3.005645   3.677768   2.141429
     9  H    2.822301   3.176562   2.657492   3.825244   2.166179
    10  C    3.937288   4.168984   4.297654   4.767419   2.600681
    11  H    4.172948   4.301753   4.771155   4.866198   2.800125
    12  H    4.320941   4.786481   4.587138   5.040326   2.879679
    13  C    5.077073   5.119129   5.285461   6.027365   3.951554
    14  H    5.252294   5.371274   5.231820   6.254032   4.262137
    15  C    6.459216   6.523162   6.740593   7.337420   5.192389
    16  H    6.552509   6.558687   7.000983   7.346560   5.241530
    17  C    7.566685   7.494678   7.768580   8.519625   6.447825
    18  H    7.752343   7.723767   7.800950   8.752721   6.715113
    19  H    8.525484   8.473664   8.771166   9.441008   7.332617
    20  H    7.509617   7.280147   7.757316   8.480018   6.524413
    21  C    2.529452   3.479402   2.835969   2.752119   1.531860
    22  H    2.739402   3.727860   3.145124   2.507954   2.174139
    23  H    3.498881   4.343071   3.841479   3.768507   2.201325
    24  C    7.031759   7.313174   7.233202   7.832806   5.647908
    25  H    8.056355   8.315961   8.300993   8.828931   6.642123
    26  H    7.195338   7.528264   7.231287   8.043081   5.903800
    27  H    6.579018   6.979817   6.834739   7.275109   5.115001
    28  O    2.981630   4.003117   2.715465   3.287460   2.478878
    29  O    3.971790   4.871456   3.631771   4.477759   3.205013
    30  H    4.709660   5.646809   4.238535   5.125712   4.096113
                    6          7          8          9         10
     6  H    0.000000
     7  C    2.149093   0.000000
     8  H    2.506445   1.096647   0.000000
     9  H    3.056555   1.096153   1.750187   0.000000
    10  C    2.769460   1.534182   2.153702   2.162965   0.000000
    11  H    2.517388   2.162760   2.529835   3.067281   1.098765
    12  H    3.141484   2.161759   3.057707   2.492841   1.093310
    13  C    4.173926   2.550122   2.730143   2.804565   1.534291
    14  H    4.730457   2.790857   3.058894   2.597245   2.161296
    15  C    5.231105   3.951349   4.173238   4.262530   2.597988
    16  H    5.047824   4.188465   4.336843   4.743192   2.776732
    17  C    6.531769   5.065820   5.064502   5.244311   3.925574
    18  H    6.968207   5.255012   5.295231   5.203850   4.275306
    19  H    7.335446   6.020837   6.063310   6.244420   4.760247
    20  H    6.548760   5.127663   4.891435   5.387851   4.170976
    21  C    2.095210   2.572642   3.487197   2.823877   3.172535
    22  H    2.438773   3.515745   4.301558   3.821175   4.155568
    23  H    2.476456   2.831699   3.842827   3.157195   2.861774
    24  C    5.767843   4.580437   5.106342   4.731699   3.163931
    25  H    6.668209   5.618683   6.099096   5.818373   4.154568
    26  H    6.213978   4.755965   5.326359   4.650974   3.545519
    27  H    5.189767   4.296257   4.990350   4.525058   2.871399
    28  O    3.372554   3.086086   4.020832   2.775630   3.840471
    29  O    4.088323   3.224381   4.242945   2.684809   3.603807
    30  H    4.988235   4.155936   5.145467   3.519538   4.519440
                   11         12         13         14         15
    11  H    0.000000
    12  H    1.759099   0.000000
    13  C    2.159233   2.161435   0.000000
    14  H    3.064689   2.498230   1.098483   0.000000
    15  C    2.807528   2.857969   1.540620   2.161994   0.000000
    16  H    2.536028   3.130879   2.145374   3.052042   1.099117
    17  C    4.172489   4.295016   2.526725   2.796949   1.535371
    18  H    4.761532   4.553777   2.797592   2.621319   2.180345
    19  H    4.875760   5.013803   3.488543   3.799811   2.184946
    20  H    4.310763   4.775635   2.768414   3.158455   2.186895
    21  C    3.458467   2.881073   4.609104   4.786218   5.655218
    22  H    4.265161   3.880969   5.635574   5.866208   6.640012
    23  H    3.078308   2.279178   4.300399   4.549785   5.098990
    24  C    3.489648   2.847987   2.558824   2.779932   1.535631
    25  H    4.309078   3.846025   3.508685   3.780763   2.179884
    26  H    4.140184   3.143653   2.820176   2.593819   2.179271
    27  H    3.113456   2.266401   2.840054   3.155525   2.196132
    28  O    4.450327   3.426533   5.025058   4.874058   6.156012
    29  O    4.410055   2.973876   4.529677   4.190413   5.525545
    30  H    5.340891   3.826080   5.343999   4.892917   6.269524
                   16         17         18         19         20
    16  H    0.000000
    17  C    2.142935   0.000000
    18  H    3.064903   1.095674   0.000000
    19  H    2.496618   1.094080   1.767058   0.000000
    20  H    2.491098   1.094163   1.768047   1.768497   0.000000
    21  C    5.766669   7.039252   7.243180   7.837223   7.330501
    22  H    6.653532   8.052776   8.303837   8.823626   8.316831
    23  H    5.172316   6.561876   6.817397   7.256536   6.972507
    24  C    2.145814   2.522487   2.798885   2.756837   3.484912
    25  H    2.500009   2.742000   3.112359   2.522291   3.747858
    26  H    3.066096   2.803754   2.635061   3.138775   3.816136
    27  H    2.498539   3.489128   3.819770   3.757090   4.346510
    28  O    6.503593   7.424489   7.413652   8.272112   7.787780
    29  O    6.038634   6.728089   6.597123   7.533064   7.229265
    30  H    6.843952   7.415660   7.192106   8.189340   7.976641
                   21         22         23         24         25
    21  C    0.000000
    22  H    1.092667   0.000000
    23  H    1.089573   1.787776   0.000000
    24  C    5.699149   6.667051   4.944034   0.000000
    25  H    6.660865   7.582435   5.835752   1.094069   0.000000
    26  H    5.874352   6.892329   5.189881   1.095737   1.767446
    27  H    4.958072   5.857284   4.092320   1.092620   1.763244
    28  O    1.462581   2.024212   2.062125   6.055933   7.068326
    29  O    2.316519   3.116653   2.361517   5.213775   6.214388
    30  H    3.091260   3.708339   3.129983   5.809091   6.764357
                   26         27         28         29         30
    26  H    0.000000
    27  H    1.766987   0.000000
    28  O    5.963380   5.400146   0.000000
    29  O    4.952984   4.622064   1.320000   0.000000
    30  H    5.425099   5.224499   1.873499   0.960000   0.000000
 Stoichiometry    C9H19O2(2)
 Framework group  C1[X(C9H19O2)]
 Deg. of freedom    84
 Full point group                 C1      NOp   1
 Largest Abelian subgroup         C1      NOp   1
 Largest concise Abelian subgroup C1      NOp   1
                         Standard orientation:                         
 ---------------------------------------------------------------------
 Center     Atomic      Atomic             Coordinates (Angstroms)
 Number     Number       Type             X           Y           Z
 ---------------------------------------------------------------------
      1          6           0       -3.117855   -1.728381   -0.250464
      2          1           0       -2.815807   -2.760487   -0.444989
      3          1           0       -3.353183   -1.260899   -1.210013
      4          1           0       -4.036267   -1.754521    0.343632
      5          6           0       -1.999129   -0.966372    0.476291
      6          1           0       -1.806962   -1.473878    1.432853
      7          6           0       -0.689533   -0.979469   -0.335060
      8          1           0       -0.501251   -2.016907   -0.636569
      9          1           0       -0.833616   -0.417693   -1.265221
     10          6           0        0.547914   -0.446652    0.398797
     11          1           0        0.659370   -0.975415    1.355495
     12          1           0        0.404988    0.610513    0.638174
     13          6           0        1.833385   -0.618075   -0.421099
     14          1           0        1.737477   -0.063723   -1.364583
     15          6           0        3.129457   -0.177566    0.285766
     16          1           0        3.178874   -0.707306    1.247531
     17          6           0        4.357229   -0.590461   -0.538526
     18          1           0        4.354207   -0.095923   -1.516240
     19          1           0        5.286856   -0.315318   -0.031475
     20          1           0        4.377314   -1.670526   -0.712448
     21          6           0       -2.460869    0.437849    0.878229
     22          1           0       -3.379959    0.389483    1.467173
     23          1           0       -1.700435    1.000248    1.419169
     24          6           0        3.159795    1.330287    0.574946
     25          1           0        4.092642    1.613076    1.071749
     26          1           0        3.091931    1.904853   -0.355595
     27          1           0        2.335937    1.644588    1.220152
     28          8           0       -2.833813    1.239465   -0.286876
     29          8           0       -1.847150    2.006201   -0.712332
     30          1           0       -2.206773    2.817533   -1.078408
 ---------------------------------------------------------------------
 Rotational constants (GHZ):      1.7891432      0.4337286      0.3797705
 Leave Link  202 at Thu Feb  6 23:18:37 2014, MaxMem= 4026531840 cpu:       0.6
 (Enter /usr/caen/gaussian-09revc/g09/l301.exe)
 Standard basis: 6-311++G(d,p) (5D, 7F)
 Ernie: Thresh=  0.10000D-02 Tol=  0.10000D-05 Strict=F.
 There are   375 symmetry adapted basis functions of A   symmetry.
 Integral buffers will be    131072 words long.
 Raffenetti 2 integral format.
 Two-electron integral symmetry is turned on.
   375 basis functions,   567 primitive gaussians,   386 cartesian basis functions
    45 alpha electrons       44 beta electrons
       nuclear repulsion energy       648.2618941077 Hartrees.
 IExCor=  402 DFT=T Ex+Corr=B3LYP ExCW=0 ScaHFX=  0.200000
 ScaDFX=  0.800000  0.720000  1.000000  0.810000 ScalE2=  1.000000  1.000000
 IRadAn=      0 IRanWt=     -1 IRanGd=            0 ICorTp=0
 NAtoms=   30 NActive=   30 NUniq=   30 SFac= 1.00D+00 NAtFMM=   60 NAOKFM=F Big=F
 Leave Link  301 at Thu Feb  6 23:18:37 2014, MaxMem= 4026531840 cpu:       0.7
 (Enter /usr/caen/gaussian-09revc/g09/l302.exe)
 NPDir=0 NMtPBC=     1 NCelOv=     1 NCel=       1 NClECP=     1 NCelD=      1
         NCelK=      1 NCelE2=     1 NClLst=     1 CellRange=     0.0.
 One-electron integrals computed using PRISM.
 NBasis=   375 RedAO= T  NBF=   375
 NBsUse=   375 1.00D-06 NBFU=   375
 Precomputing XC quadrature grid using
 IXCGrd= 2 IRadAn=           0 IRanWt=          -1 IRanGd=           0 AccXCQ= 0.00D+00.
 NRdTot=    1961 NPtTot=      250122 NUsed=      264252 NTot=      264284
 NSgBfM=   386   386   386   386   386 NAtAll=    30    30.
 Leave Link  302 at Thu Feb  6 23:18:39 2014, MaxMem= 4026531840 cpu:       7.1
 (Enter /usr/caen/gaussian-09revc/g09/l303.exe)
 DipDrv:  MaxL=1.
 Leave Link  303 at Thu Feb  6 23:18:39 2014, MaxMem= 4026531840 cpu:       2.5
 (Enter /usr/caen/gaussian-09revc/g09/l401.exe)
 Harris functional with IExCor=  402 diagonalized for initial guess.
 ExpMin= 3.60D-02 ExpMax= 8.59D+03 ExpMxC= 1.30D+03 IAcc=3 IRadAn=         5 AccDes= 0.00D+00
 HarFok:  IExCor=  402 AccDes= 0.00D+00 IRadAn=         5 IDoV= 1
 ScaDFX=  1.000000  1.000000  1.000000  1.000000
 FoFCou: FMM=F IPFlag=           0 FMFlag=      100000 FMFlg1=           0
         NFxFlg=           0 DoJE=T BraDBF=F KetDBF=T FulRan=T
         Omega=  0.000000  0.000000  1.000000  0.000000  0.000000 ICntrl=     500 IOpCl=  0
         NMat0=    1 NMatS0=    1 NMatT0=    0 NMatD0=    1 NMtDS0=    0 NMtDT0=    0
         I1Cent=           4 NGrid=           0.
 Petite list used in FoFCou.
 Harris En= -504.872621029211    
 Mixing orbitals, IMix= 1 IMixAn=  0 NRI=1 NE=   45 Coef=  7.07106781D-01  7.07106781D-01
 Mixing orbitals, IMix= 1 IMixAn=  0 NRI=1 NE=   44 Coef= -7.07106781D-01  7.07106781D-01
 Initial guess orbital symmetries:
 Alpha Orbitals:
       Occupied  (A) (A) (A) (A) (A) (A) (A) (A) (A) (A) (A) (A)
                 (A) (A) (A) (A) (A) (A) (A) (A) (A) (A) (A) (A)
                 (A) (A) (A) (A) (A) (A) (A) (A) (A) (A) (A) (A)
                 (A) (A) (A) (A) (A) (A) (A) (A) (A)
       Virtual   (A) (A) (A) (A) (A) (A) (A) (A) (A) (A) (A) (A)
                 (A) (A) (A) (A) (A) (A) (A) (A) (A) (A) (A) (A)
                 (A) (A) (A) (A) (A) (A) (A) (A) (A) (A) (A) (A)
                 (A) (A) (A) (A) (A) (A) (A) (A) (A) (A) (A) (A)
                 (A) (A) (A) (A) (A) (A) (A) (A) (A) (A) (A) (A)
                 (A) (A) (A) (A) (A) (A) (A) (A) (A) (A) (A) (A)
                 (A) (A) (A) (A) (A) (A) (A) (A) (A) (A) (A) (A)
                 (A) (A) (A) (A) (A) (A) (A) (A) (A) (A) (A) (A)
                 (A) (A) (A) (A) (A) (A) (A) (A) (A) (A) (A) (A)
                 (A) (A) (A) (A) (A) (A) (A) (A) (A) (A) (A) (A)
                 (A) (A) (A) (A) (A) (A) (A) (A) (A) (A) (A) (A)
                 (A) (A) (A) (A) (A) (A) (A) (A) (A) (A) (A) (A)
                 (A) (A) (A) (A) (A) (A) (A) (A) (A) (A) (A) (A)
                 (A) (A) (A) (A) (A) (A) (A) (A) (A) (A) (A) (A)
                 (A) (A) (A) (A) (A) (A) (A) (A) (A) (A) (A) (A)
                 (A) (A) (A) (A) (A) (A) (A) (A) (A) (A) (A) (A)
                 (A) (A) (A) (A) (A) (A) (A) (A) (A) (A) (A) (A)
                 (A) (A) (A) (A) (A) (A) (A) (A) (A) (A) (A) (A)
                 (A) (A) (A) (A) (A) (A) (A) (A) (A) (A) (A) (A)
                 (A) (A) (A) (A) (A) (A) (A) (A) (A) (A) (A) (A)
                 (A) (A) (A) (A) (A) (A) (A) (A) (A) (A) (A) (A)
                 (A) (A) (A) (A) (A) (A) (A) (A) (A) (A) (A) (A)
                 (A) (A) (A) (A) (A) (A) (A) (A) (A) (A) (A) (A)
                 (A) (A) (A) (A) (A) (A) (A) (A) (A) (A) (A) (A)
                 (A) (A) (A) (A) (A) (A) (A) (A) (A) (A) (A) (A)
                 (A) (A) (A) (A) (A) (A) (A) (A) (A) (A) (A) (A)
                 (A) (A) (A) (A) (A) (A) (A) (A) (A) (A) (A) (A)
                 (A) (A) (A) (A) (A) (A)
 Beta  Orbitals:
       Occupied  (A) (A) (A) (A) (A) (A) (A) (A) (A) (A) (A) (A)
                 (A) (A) (A) (A) (A) (A) (A) (A) (A) (A) (A) (A)
                 (A) (A) (A) (A) (A) (A) (A) (A) (A) (A) (A) (A)
                 (A) (A) (A) (A) (A) (A) (A) (A)
       Virtual   (A) (A) (A) (A) (A) (A) (A) (A) (A) (A) (A) (A)
                 (A) (A) (A) (A) (A) (A) (A) (A) (A) (A) (A) (A)
                 (A) (A) (A) (A) (A) (A) (A) (A) (A) (A) (A) (A)
                 (A) (A) (A) (A) (A) (A) (A) (A) (A) (A) (A) (A)
                 (A) (A) (A) (A) (A) (A) (A) (A) (A) (A) (A) (A)
                 (A) (A) (A) (A) (A) (A) (A) (A) (A) (A) (A) (A)
                 (A) (A) (A) (A) (A) (A) (A) (A) (A) (A) (A) (A)
                 (A) (A) (A) (A) (A) (A) (A) (A) (A) (A) (A) (A)
                 (A) (A) (A) (A) (A) (A) (A) (A) (A) (A) (A) (A)
                 (A) (A) (A) (A) (A) (A) (A) (A) (A) (A) (A) (A)
                 (A) (A) (A) (A) (A) (A) (A) (A) (A) (A) (A) (A)
                 (A) (A) (A) (A) (A) (A) (A) (A) (A) (A) (A) (A)
                 (A) (A) (A) (A) (A) (A) (A) (A) (A) (A) (A) (A)
                 (A) (A) (A) (A) (A) (A) (A) (A) (A) (A) (A) (A)
                 (A) (A) (A) (A) (A) (A) (A) (A) (A) (A) (A) (A)
                 (A) (A) (A) (A) (A) (A) (A) (A) (A) (A) (A) (A)
                 (A) (A) (A) (A) (A) (A) (A) (A) (A) (A) (A) (A)
                 (A) (A) (A) (A) (A) (A) (A) (A) (A) (A) (A) (A)
                 (A) (A) (A) (A) (A) (A) (A) (A) (A) (A) (A) (A)
                 (A) (A) (A) (A) (A) (A) (A) (A) (A) (A) (A) (A)
                 (A) (A) (A) (A) (A) (A) (A) (A) (A) (A) (A) (A)
                 (A) (A) (A) (A) (A) (A) (A) (A) (A) (A) (A) (A)
                 (A) (A) (A) (A) (A) (A) (A) (A) (A) (A) (A) (A)
                 (A) (A) (A) (A) (A) (A) (A) (A) (A) (A) (A) (A)
                 (A) (A) (A) (A) (A) (A) (A) (A) (A) (A) (A) (A)
                 (A) (A) (A) (A) (A) (A) (A) (A) (A) (A) (A) (A)
                 (A) (A) (A) (A) (A) (A) (A) (A) (A) (A) (A) (A)
                 (A) (A) (A) (A) (A) (A) (A)
 The electronic state of the initial guess is 2-A.
 Initial guess <Sx>= 0.0000 <Sy>= 0.0000 <Sz>= 0.5000 <S**2>= 1.0000 S= 0.6180
 Leave Link  401 at Thu Feb  6 23:18:43 2014, MaxMem= 4026531840 cpu:      28.2
 (Enter /usr/caen/gaussian-09revc/g09/l502.exe)
 UHF open shell SCF:
 Requested convergence on RMS density matrix=1.00D-08 within 128 cycles.
 Requested convergence on MAX density matrix=1.00D-06.
 Requested convergence on             energy=1.00D-06.
 No special actions if energy rises.
 Using DIIS extrapolation, IDIIS=  1040.
 Integral symmetry usage will be decided dynamically.
       263969 words used for storage of precomputed grid.
 IEnd=      735103 IEndB=      735103 NGot=  4026531840 MDV=  4025962760
 LenX=  4025962760 LenY=  4025813323
 Fock matrices will be formed incrementally for  20 cycles.

 Cycle   1  Pass 1  IDiag  1:
 FoFCou: FMM=F IPFlag=           0 FMFlag=      100000 FMFlg1=           0
         NFxFlg=           0 DoJE=F BraDBF=F KetDBF=F FulRan=T
         Omega=  0.000000  0.000000  1.000000  0.000000  0.000000 ICntrl=       0 IOpCl=  1
         NMat0=    1 NMatS0=    1 NMatT0=    0 NMatD0=    1 NMtDS0=    0 NMtDT0=    0
         I1Cent=           0 NGrid=           0.
 Symmetry not used in FoFCou.
 E= -504.310865281752    
 DIIS: error= 2.42D-02 at cycle   1 NSaved=   1.
 NSaved= 1 IEnMin= 1 EnMin= -504.310865281752     IErMin= 1 ErrMin= 2.42D-02
 ErrMax= 2.42D-02 EMaxC= 1.00D-01 BMatC= 1.52D+00 BMatP= 1.52D+00
 IDIUse=3 WtCom= 7.58D-01 WtEn= 2.42D-01
 Coeff-Com:  0.100D+01
 Coeff-En:   0.100D+01
 Coeff:      0.100D+01
 Gap=     0.041 Goal=   None    Shift=    0.000
 Gap=     0.026 Goal=   None    Shift=    0.000
 GapD=    0.026 DampG=0.250 DampE=0.500 DampFc=0.2500 IDamp=-1.
 Damping current iteration by 2.50D-01
 RMSDP=2.48D-02 MaxDP=2.05D+00              OVMax= 8.76D-01

 Cycle   2  Pass 1  IDiag  1:
 RMSU=  5.47D-03    CP:  9.36D-01
 E= -504.450301910762     Delta-E=       -0.139436629010 Rises=F Damp=T
 DIIS: error= 1.11D-02 at cycle   2 NSaved=   2.
 NSaved= 2 IEnMin= 2 EnMin= -504.450301910762     IErMin= 2 ErrMin= 1.11D-02
 ErrMax= 1.11D-02 EMaxC= 1.00D-01 BMatC= 3.67D-01 BMatP= 1.52D+00
 IDIUse=3 WtCom= 8.89D-01 WtEn= 1.11D-01
 Coeff-Com: -0.630D+00 0.163D+01
 Coeff-En:   0.000D+00 0.100D+01
 Coeff:     -0.561D+00 0.156D+01
 Gap=    -0.145 Goal=   None    Shift=    0.000
 Gap=     0.364 Goal=   None    Shift=    0.000
 RMSDP=2.01D-02 MaxDP=2.97D+00 DE=-1.39D-01 OVMax= 9.77D-01

 Cycle   3  Pass 1  IDiag  1:
 RMSU=  9.87D-03    CP:  5.09D-01 -1.19D-01
 E= -504.279884927346     Delta-E=        0.170416983416 Rises=F Damp=F
 DIIS: error= 2.44D-02 at cycle   3 NSaved=   3.
 NSaved= 3 IEnMin= 2 EnMin= -504.450301910762     IErMin= 2 ErrMin= 1.11D-02
 ErrMax= 2.44D-02 EMaxC= 1.00D-01 BMatC= 1.20D+00 BMatP= 3.67D-01
 IDIUse=2 WtCom= 0.00D+00 WtEn= 1.00D+00
 Coeff-En:   0.000D+00 0.681D+00 0.319D+00
 Coeff:      0.000D+00 0.681D+00 0.319D+00
 Gap=     0.378 Goal=   None    Shift=    0.000
 Gap=    -0.256 Goal=   None    Shift=    0.000
 RMSDP=1.30D-02 MaxDP=1.16D+00 DE= 1.70D-01 OVMax= 9.94D-01

 Cycle   4  Pass 1  IDiag  1:
 RMSU=  9.37D-03    CP:  4.39D-01  9.93D-01  6.79D-01
 E= -504.109762063179     Delta-E=        0.170122864168 Rises=F Damp=F
 DIIS: error= 2.64D-02 at cycle   4 NSaved=   4.
 NSaved= 4 IEnMin= 2 EnMin= -504.450301910762     IErMin= 2 ErrMin= 1.11D-02
 ErrMax= 2.64D-02 EMaxC= 1.00D-01 BMatC= 1.58D+00 BMatP= 3.67D-01
 IDIUse=2 WtCom= 0.00D+00 WtEn= 1.00D+00
 Coeff-En:   0.000D+00 0.000D+00 0.549D+00 0.451D+00
 Coeff:      0.000D+00 0.000D+00 0.549D+00 0.451D+00
 Gap=    -0.043 Goal=   None    Shift=    0.000
 Gap=     0.322 Goal=   None    Shift=    0.000
 RMSDP=1.16D-02 MaxDP=8.96D-01 DE= 1.70D-01 OVMax= 9.95D-01

 Cycle   5  Pass 1  IDiag  1:
 RMSU=  4.57D-03    CP:  5.01D-01  3.72D-02  8.26D-01  2.21D-01
 E= -504.781632427699     Delta-E=       -0.671870364521 Rises=F Damp=F
 DIIS: error= 9.00D-03 at cycle   5 NSaved=   5.
 NSaved= 5 IEnMin= 5 EnMin= -504.781632427699     IErMin= 5 ErrMin= 9.00D-03
 ErrMax= 9.00D-03 EMaxC= 1.00D-01 BMatC= 1.55D-01 BMatP= 3.67D-01
 IDIUse=3 WtCom= 9.10D-01 WtEn= 9.00D-02
 Coeff-Com: -0.322D+00 0.482D+00 0.243D+00 0.140D-01 0.584D+00
 Coeff-En:   0.000D+00 0.000D+00 0.141D-01 0.000D+00 0.986D+00
 Coeff:     -0.293D+00 0.438D+00 0.222D+00 0.127D-01 0.620D+00
 Gap=     0.146 Goal=   None    Shift=    0.000
 Gap=     0.144 Goal=   None    Shift=    0.000
 RMSDP=3.54D-03 MaxDP=3.77D-01 DE=-6.72D-01 OVMax= 5.64D-02

 Cycle   6  Pass 1  IDiag  1:
 RMSU=  1.91D-03    CP:  4.66D-01  1.16D-01  8.08D-01  2.12D-01  6.57D-01
 E= -504.818944837046     Delta-E=       -0.037312409347 Rises=F Damp=F
 DIIS: error= 2.25D-03 at cycle   6 NSaved=   6.
 NSaved= 6 IEnMin= 6 EnMin= -504.818944837046     IErMin= 6 ErrMin= 2.25D-03
 ErrMax= 2.25D-03 EMaxC= 1.00D-01 BMatC= 1.23D-02 BMatP= 1.55D-01
 IDIUse=3 WtCom= 9.77D-01 WtEn= 2.25D-02
 Coeff-Com: -0.853D-01 0.147D+00 0.107D+00-0.429D-02 0.162D+00 0.674D+00
 Coeff-En:   0.000D+00 0.000D+00 0.000D+00 0.000D+00 0.000D+00 0.100D+01
 Coeff:     -0.834D-01 0.143D+00 0.105D+00-0.420D-02 0.158D+00 0.681D+00
 Gap=     0.176 Goal=   None    Shift=    0.000
 Gap=     0.160 Goal=   None    Shift=    0.000
 RMSDP=8.82D-04 MaxDP=9.31D-02 DE=-3.73D-02 OVMax= 2.82D-02

 Cycle   7  Pass 1  IDiag  1:
 RMSU=  5.60D-04    CP:  4.70D-01  1.22D-01  8.06D-01  2.14D-01  5.85D-01
                    CP:  1.08D+00
 E= -504.821485072410     Delta-E=       -0.002540235364 Rises=F Damp=F
 DIIS: error= 1.76D-03 at cycle   7 NSaved=   7.
 NSaved= 7 IEnMin= 7 EnMin= -504.821485072410     IErMin= 7 ErrMin= 1.76D-03
 ErrMax= 1.76D-03 EMaxC= 1.00D-01 BMatC= 6.90D-03 BMatP= 1.23D-02
 IDIUse=3 WtCom= 9.82D-01 WtEn= 1.76D-02
 Coeff-Com:  0.446D-01-0.399D-01 0.295D-01-0.298D-02-0.103D+00 0.355D+00
 Coeff-Com:  0.716D+00
 Coeff-En:   0.000D+00 0.000D+00 0.000D+00 0.000D+00 0.000D+00 0.000D+00
 Coeff-En:   0.100D+01
 Coeff:      0.438D-01-0.392D-01 0.290D-01-0.293D-02-0.101D+00 0.349D+00
 Coeff:      0.721D+00
 Gap=     0.195 Goal=   None    Shift=    0.000
 Gap=     0.167 Goal=   None    Shift=    0.000
 RMSDP=5.54D-04 MaxDP=5.78D-02 DE=-2.54D-03 OVMax= 1.63D-02

 Cycle   8  Pass 1  IDiag  1:
 RMSU=  2.39D-04    CP:  4.67D-01  1.09D-01  8.12D-01  1.97D-01  5.19D-01
                    CP:  1.12D+00  9.87D-01
 E= -504.823106229360     Delta-E=       -0.001621156949 Rises=F Damp=F
 DIIS: error= 8.44D-04 at cycle   8 NSaved=   8.
 NSaved= 8 IEnMin= 8 EnMin= -504.823106229360     IErMin= 8 ErrMin= 8.44D-04
 ErrMax= 8.44D-04 EMaxC= 1.00D-01 BMatC= 1.15D-03 BMatP= 6.90D-03
 IDIUse=3 WtCom= 9.92D-01 WtEn= 8.44D-03
 Coeff-Com:  0.124D-01-0.977D-02 0.642D-02-0.411D-02-0.667D-01-0.102D+00
 Coeff-Com:  0.287D+00 0.876D+00
 Coeff-En:   0.000D+00 0.000D+00 0.000D+00 0.000D+00 0.000D+00 0.000D+00
 Coeff-En:   0.000D+00 0.100D+01
 Coeff:      0.123D-01-0.968D-02 0.637D-02-0.407D-02-0.661D-01-0.101D+00
 Coeff:      0.285D+00 0.878D+00
 Gap=     0.202 Goal=   None    Shift=    0.000
 Gap=     0.167 Goal=   None    Shift=    0.000
 RMSDP=3.20D-04 MaxDP=4.72D-02 DE=-1.62D-03 OVMax= 8.85D-03

 Cycle   9  Pass 1  IDiag  1:
 RMSU=  1.43D-04    CP:  4.71D-01  1.03D-01  8.20D-01  1.88D-01  4.96D-01
                    CP:  1.12D+00  1.11D+00  1.31D+00
 E= -504.823381917366     Delta-E=       -0.000275688006 Rises=F Damp=F
 DIIS: error= 3.56D-04 at cycle   9 NSaved=   9.
 NSaved= 9 IEnMin= 9 EnMin= -504.823381917366     IErMin= 9 ErrMin= 3.56D-04
 ErrMax= 3.56D-04 EMaxC= 1.00D-01 BMatC= 2.56D-04 BMatP= 1.15D-03
 IDIUse=3 WtCom= 9.96D-01 WtEn= 3.56D-03
 Coeff-Com: -0.345D-02 0.713D-02 0.326D-02-0.351D-02-0.228D-01-0.116D+00
 Coeff-Com:  0.565D-01 0.516D+00 0.563D+00
 Coeff-En:   0.000D+00 0.000D+00 0.000D+00 0.000D+00 0.000D+00 0.000D+00
 Coeff-En:   0.000D+00 0.000D+00 0.100D+01
 Coeff:     -0.343D-02 0.710D-02 0.325D-02-0.349D-02-0.227D-01-0.116D+00
 Coeff:      0.563D-01 0.514D+00 0.565D+00
 Gap=     0.203 Goal=   None    Shift=    0.000
 Gap=     0.167 Goal=   None    Shift=    0.000
 RMSDP=1.13D-04 MaxDP=1.71D-02 DE=-2.76D-04 OVMax= 2.59D-03

 Cycle  10  Pass 1  IDiag  1:
 RMSU=  6.33D-05    CP:  4.70D-01  1.04D-01  8.19D-01  1.87D-01  4.88D-01
                    CP:  1.12D+00  1.16D+00  1.39D+00  8.59D-01
 E= -504.823440078426     Delta-E=       -0.000058161060 Rises=F Damp=F
 DIIS: error= 1.10D-04 at cycle  10 NSaved=  10.
 NSaved=10 IEnMin=10 EnMin= -504.823440078426     IErMin=10 ErrMin= 1.10D-04
 ErrMax= 1.10D-04 EMaxC= 1.00D-01 BMatC= 2.35D-05 BMatP= 2.56D-04
 IDIUse=3 WtCom= 9.99D-01 WtEn= 1.10D-03
 Coeff-Com: -0.129D-02 0.136D-02 0.119D-02-0.136D-02-0.987D-03-0.151D-01
 Coeff-Com: -0.211D-01 0.119D-01 0.127D+00 0.898D+00
 Coeff-En:   0.000D+00 0.000D+00 0.000D+00 0.000D+00 0.000D+00 0.000D+00
 Coeff-En:   0.000D+00 0.000D+00 0.000D+00 0.100D+01
 Coeff:     -0.129D-02 0.136D-02 0.119D-02-0.136D-02-0.986D-03-0.150D-01
 Coeff:     -0.211D-01 0.119D-01 0.127D+00 0.898D+00
 Gap=     0.204 Goal=   None    Shift=    0.000
 Gap=     0.166 Goal=   None    Shift=    0.000
 RMSDP=4.09D-05 MaxDP=5.67D-03 DE=-5.82D-05 OVMax= 7.69D-04

 Cycle  11  Pass 1  IDiag  1:
 RMSU=  1.11D-05    CP:  4.70D-01  1.04D-01  8.20D-01  1.86D-01  4.85D-01
                    CP:  1.12D+00  1.16D+00  1.44D+00  9.54D-01  1.11D+00
 E= -504.823446206966     Delta-E=       -0.000006128540 Rises=F Damp=F
 DIIS: error= 4.93D-05 at cycle  11 NSaved=  11.
 NSaved=11 IEnMin=11 EnMin= -504.823446206966     IErMin=11 ErrMin= 4.93D-05
 ErrMax= 4.93D-05 EMaxC= 1.00D-01 BMatC= 2.98D-06 BMatP= 2.35D-05
 IDIUse=1 WtCom= 1.00D+00 WtEn= 0.00D+00
 Coeff-Com: -0.229D-03 0.110D-03 0.538D-03-0.547D-03 0.141D-02 0.471D-02
 Coeff-Com: -0.123D-01-0.454D-01-0.113D-01 0.331D+00 0.732D+00
 Coeff:     -0.229D-03 0.110D-03 0.538D-03-0.547D-03 0.141D-02 0.471D-02
 Coeff:     -0.123D-01-0.454D-01-0.113D-01 0.331D+00 0.732D+00
 Gap=     0.204 Goal=   None    Shift=    0.000
 Gap=     0.166 Goal=   None    Shift=    0.000
 RMSDP=1.39D-05 MaxDP=2.46D-03 DE=-6.13D-06 OVMax= 1.61D-04

 Cycle  12  Pass 1  IDiag  1:
 RMSU=  3.98D-06    CP:  4.70D-01  1.03D-01  8.20D-01  1.85D-01  4.85D-01
                    CP:  1.12D+00  1.16D+00  1.46D+00  9.73D-01  1.17D+00
                    CP:  9.59D-01
 E= -504.823446968475     Delta-E=       -0.000000761508 Rises=F Damp=F
 DIIS: error= 1.64D-05 at cycle  12 NSaved=  12.
 NSaved=12 IEnMin=12 EnMin= -504.823446968475     IErMin=12 ErrMin= 1.64D-05
 ErrMax= 1.64D-05 EMaxC= 1.00D-01 BMatC= 6.50D-07 BMatP= 2.98D-06
 IDIUse=1 WtCom= 1.00D+00 WtEn= 0.00D+00
 Coeff-Com:  0.112D-03-0.108D-03 0.700D-04-0.223D-03 0.585D-03 0.457D-02
 Coeff-Com: -0.509D-03-0.238D-01-0.338D-01-0.360D-01 0.337D+00 0.752D+00
 Coeff:      0.112D-03-0.108D-03 0.700D-04-0.223D-03 0.585D-03 0.457D-02
 Coeff:     -0.509D-03-0.238D-01-0.338D-01-0.360D-01 0.337D+00 0.752D+00
 Gap=     0.204 Goal=   None    Shift=    0.000
 Gap=     0.166 Goal=   None    Shift=    0.000
 RMSDP=5.67D-06 MaxDP=8.55D-04 DE=-7.62D-07 OVMax= 9.21D-05

 Cycle  13  Pass 1  IDiag  1:
 RMSU=  1.48D-06    CP:  4.70D-01  1.03D-01  8.20D-01  1.85D-01  4.84D-01
                    CP:  1.11D+00  1.16D+00  1.47D+00  9.87D-01  1.17D+00
                    CP:  9.81D-01  9.83D-01
 E= -504.823447135732     Delta-E=       -0.000000167257 Rises=F Damp=F
 DIIS: error= 4.73D-06 at cycle  13 NSaved=  13.
 NSaved=13 IEnMin=13 EnMin= -504.823447135732     IErMin=13 ErrMin= 4.73D-06
 ErrMax= 4.73D-06 EMaxC= 1.00D-01 BMatC= 4.06D-08 BMatP= 6.50D-07
 IDIUse=1 WtCom= 1.00D+00 WtEn= 0.00D+00
 Coeff-Com: -0.279D-04 0.769D-04 0.349D-04-0.781D-04 0.711D-04 0.451D-03
 Coeff-Com:  0.131D-02-0.975D-03-0.767D-02-0.428D-01 0.225D-02 0.211D+00
 Coeff-Com:  0.836D+00
 Coeff:     -0.279D-04 0.769D-04 0.349D-04-0.781D-04 0.711D-04 0.451D-03
 Coeff:      0.131D-02-0.975D-03-0.767D-02-0.428D-01 0.225D-02 0.211D+00
 Coeff:      0.836D+00
 Gap=     0.204 Goal=   None    Shift=    0.000
 Gap=     0.166 Goal=   None    Shift=    0.000
 RMSDP=1.69D-06 MaxDP=1.37D-04 DE=-1.67D-07 OVMax= 3.20D-05

 Cycle  14  Pass 1  IDiag  1:
 RMSU=  8.87D-07    CP:  4.70D-01  1.03D-01  8.20D-01  1.85D-01  4.84D-01
                    CP:  1.11D+00  1.16D+00  1.47D+00  9.84D-01  1.17D+00
                    CP:  9.99D-01  9.74D-01  1.17D+00
 E= -504.823447148860     Delta-E=       -0.000000013128 Rises=F Damp=F
 DIIS: error= 1.93D-06 at cycle  14 NSaved=  14.
 NSaved=14 IEnMin=14 EnMin= -504.823447148860     IErMin=14 ErrMin= 1.93D-06
 ErrMax= 1.93D-06 EMaxC= 1.00D-01 BMatC= 6.25D-09 BMatP= 4.06D-08
 IDIUse=1 WtCom= 1.00D+00 WtEn= 0.00D+00
 Coeff-Com:  0.118D-04-0.226D-04 0.402D-05-0.232D-04-0.873D-04-0.258D-03
 Coeff-Com:  0.400D-03 0.178D-02 0.103D-02-0.506D-02-0.359D-01-0.261D-01
 Coeff-Com:  0.250D+00 0.815D+00
 Coeff:      0.118D-04-0.226D-04 0.402D-05-0.232D-04-0.873D-04-0.258D-03
 Coeff:      0.400D-03 0.178D-02 0.103D-02-0.506D-02-0.359D-01-0.261D-01
 Coeff:      0.250D+00 0.815D+00
 Gap=     0.204 Goal=   None    Shift=    0.000
 Gap=     0.166 Goal=   None    Shift=    0.000
 RMSDP=5.00D-07 MaxDP=5.30D-05 DE=-1.31D-08 OVMax= 9.66D-06

 Cycle  15  Pass 1  IDiag  1:
 RMSU=  2.44D-07    CP:  4.70D-01  1.03D-01  8.20D-01  1.85D-01  4.84D-01
                    CP:  1.11D+00  1.16D+00  1.47D+00  9.85D-01  1.16D+00
                    CP:  9.99D-01  1.00D+00  1.27D+00  9.90D-01
 E= -504.823447150268     Delta-E=       -0.000000001408 Rises=F Damp=F
 DIIS: error= 8.04D-07 at cycle  15 NSaved=  15.
 NSaved=15 IEnMin=15 EnMin= -504.823447150268     IErMin=15 ErrMin= 8.04D-07
 ErrMax= 8.04D-07 EMaxC= 1.00D-01 BMatC= 1.08D-09 BMatP= 6.25D-09
 IDIUse=1 WtCom= 1.00D+00 WtEn= 0.00D+00
 Coeff-Com: -0.804D-05 0.850D-05 0.100D-04-0.602D-05-0.537D-04-0.268D-03
 Coeff-Com:  0.863D-04 0.142D-02 0.194D-02 0.298D-02-0.215D-01-0.454D-01
 Coeff-Com:  0.173D-01 0.410D+00 0.634D+00
 Coeff:     -0.804D-05 0.850D-05 0.100D-04-0.602D-05-0.537D-04-0.268D-03
 Coeff:      0.863D-04 0.142D-02 0.194D-02 0.298D-02-0.215D-01-0.454D-01
 Coeff:      0.173D-01 0.410D+00 0.634D+00
 Gap=     0.204 Goal=   None    Shift=    0.000
 Gap=     0.166 Goal=   None    Shift=    0.000
 RMSDP=3.72D-07 MaxDP=4.77D-05 DE=-1.41D-09 OVMax= 4.08D-06

 Cycle  16  Pass 1  IDiag  1:
 RMSU=  7.72D-08    CP:  4.70D-01  1.03D-01  8.20D-01  1.85D-01  4.84D-01
                    CP:  1.11D+00  1.16D+00  1.47D+00  9.85D-01  1.16D+00
                    CP:  9.92D-01  1.00D+00  1.31D+00  1.05D+00  7.82D-01
 E= -504.823447150565     Delta-E=       -0.000000000297 Rises=F Damp=F
 DIIS: error= 3.17D-07 at cycle  16 NSaved=  16.
 NSaved=16 IEnMin=16 EnMin= -504.823447150565     IErMin=16 ErrMin= 3.17D-07
 ErrMax= 3.17D-07 EMaxC= 1.00D-01 BMatC= 1.90D-10 BMatP= 1.08D-09
 IDIUse=1 WtCom= 1.00D+00 WtEn= 0.00D+00
 Coeff-Com:  0.224D-06-0.274D-06 0.140D-05-0.211D-05-0.158D-04-0.443D-04
 Coeff-Com: -0.295D-04 0.936D-04 0.383D-03 0.195D-02-0.371D-03-0.103D-01
 Coeff-Com: -0.377D-01-0.700D-02 0.231D+00 0.822D+00
 Coeff:      0.224D-06-0.274D-06 0.140D-05-0.211D-05-0.158D-04-0.443D-04
 Coeff:     -0.295D-04 0.936D-04 0.383D-03 0.195D-02-0.371D-03-0.103D-01
 Coeff:     -0.377D-01-0.700D-02 0.231D+00 0.822D+00
 Gap=     0.204 Goal=   None    Shift=    0.000
 Gap=     0.166 Goal=   None    Shift=    0.000
 RMSDP=1.04D-07 MaxDP=1.49D-05 DE=-2.97D-10 OVMax= 1.67D-06

 Cycle  17  Pass 1  IDiag  1:
 RMSU=  2.92D-08    CP:  4.70D-01  1.03D-01  8.20D-01  1.85D-01  4.84D-01
                    CP:  1.11D+00  1.16D+00  1.47D+00  9.85D-01  1.16D+00
                    CP:  9.94D-01  1.00D+00  1.32D+00  1.07D+00  8.30D-01
                    CP:  7.46D-01
 E= -504.823447150611     Delta-E=       -0.000000000046 Rises=F Damp=F
 DIIS: error= 8.30D-08 at cycle  17 NSaved=  17.
 NSaved=17 IEnMin=17 EnMin= -504.823447150611     IErMin=17 ErrMin= 8.30D-08
 ErrMax= 8.30D-08 EMaxC= 1.00D-01 BMatC= 1.37D-11 BMatP= 1.90D-10
 IDIUse=1 WtCom= 1.00D+00 WtEn= 0.00D+00
 Coeff-Com: -0.459D-06 0.118D-05 0.790D-06-0.537D-06 0.759D-06 0.377D-05
 Coeff-Com: -0.191D-04-0.884D-04-0.387D-04 0.388D-03 0.214D-02 0.108D-02
 Coeff-Com: -0.162D-01-0.518D-01 0.936D-02 0.299D+00 0.756D+00
 Coeff:     -0.459D-06 0.118D-05 0.790D-06-0.537D-06 0.759D-06 0.377D-05
 Coeff:     -0.191D-04-0.884D-04-0.387D-04 0.388D-03 0.214D-02 0.108D-02
 Coeff:     -0.162D-01-0.518D-01 0.936D-02 0.299D+00 0.756D+00
 Gap=     0.204 Goal=   None    Shift=    0.000
 Gap=     0.166 Goal=   None    Shift=    0.000
 RMSDP=3.86D-08 MaxDP=6.50D-06 DE=-4.59D-11 OVMax= 5.91D-07

 Cycle  18  Pass 1  IDiag  1:
 RMSU=  1.15D-08    CP:  4.70D-01  1.03D-01  8.20D-01  1.85D-01  4.84D-01
                    CP:  1.11D+00  1.16D+00  1.47D+00  9.85D-01  1.16D+00
                    CP:  9.95D-01  1.00D+00  1.32D+00  1.07D+00  8.42D-01
                    CP:  8.41D-01  8.09D-01
 E= -504.823447150615     Delta-E=       -0.000000000005 Rises=F Damp=F
 DIIS: error= 2.80D-08 at cycle  18 NSaved=  18.
 NSaved=18 IEnMin=18 EnMin= -504.823447150615     IErMin=18 ErrMin= 2.80D-08
 ErrMax= 2.80D-08 EMaxC= 1.00D-01 BMatC= 2.18D-12 BMatP= 1.37D-11
 IDIUse=1 WtCom= 1.00D+00 WtEn= 0.00D+00
 Coeff-Com: -0.480D-07 0.148D-06 0.239D-06-0.245D-06 0.173D-05 0.621D-05
 Coeff-Com: -0.617D-05-0.498D-04-0.605D-04-0.244D-04 0.975D-03 0.159D-02
 Coeff-Com: -0.252D-02-0.200D-01-0.223D-01 0.244D-01 0.316D+00 0.702D+00
 Coeff:     -0.480D-07 0.148D-06 0.239D-06-0.245D-06 0.173D-05 0.621D-05
 Coeff:     -0.617D-05-0.498D-04-0.605D-04-0.244D-04 0.975D-03 0.159D-02
 Coeff:     -0.252D-02-0.200D-01-0.223D-01 0.244D-01 0.316D+00 0.702D+00
 Gap=     0.204 Goal=   None    Shift=    0.000
 Gap=     0.166 Goal=   None    Shift=    0.000
 RMSDP=1.30D-08 MaxDP=1.90D-06 DE=-4.55D-12 OVMax= 1.64D-07

 Cycle  19  Pass 1  IDiag  1:
 RMSU=  3.69D-09    CP:  4.70D-01  1.03D-01  8.20D-01  1.85D-01  4.84D-01
                    CP:  1.11D+00  1.16D+00  1.47D+00  9.85D-01  1.16D+00
                    CP:  9.95D-01  1.00D+00  1.32D+00  1.07D+00  8.42D-01
                    CP:  8.49D-01  8.56D-01  9.14D-01
 E= -504.823447150604     Delta-E=        0.000000000012 Rises=F Damp=F
 DIIS: error= 9.47D-09 at cycle  19 NSaved=  19.
 NSaved=19 IEnMin=18 EnMin= -504.823447150615     IErMin=19 ErrMin= 9.47D-09
 ErrMax= 9.47D-09 EMaxC= 1.00D-01 BMatC= 2.94D-13 BMatP= 2.18D-12
 IDIUse=1 WtCom= 1.00D+00 WtEn= 0.00D+00
 Coeff-Com: -0.937D-07 0.106D-06 0.114D-06-0.567D-07 0.570D-06 0.101D-05
 Coeff-Com:  0.547D-08-0.329D-05-0.139D-04-0.561D-04 0.754D-05 0.359D-03
 Coeff-Com:  0.158D-02 0.882D-03-0.102D-01-0.402D-01 0.215D-02 0.286D+00
 Coeff-Com:  0.760D+00
 Coeff:     -0.937D-07 0.106D-06 0.114D-06-0.567D-07 0.570D-06 0.101D-05
 Coeff:      0.547D-08-0.329D-05-0.139D-04-0.561D-04 0.754D-05 0.359D-03
 Coeff:      0.158D-02 0.882D-03-0.102D-01-0.402D-01 0.215D-02 0.286D+00
 Coeff:      0.760D+00
 Gap=     0.204 Goal=   None    Shift=    0.000
 Gap=     0.166 Goal=   None    Shift=    0.000
 RMSDP=4.43D-09 MaxDP=4.21D-07 DE= 1.16D-11 OVMax= 9.25D-08

 SCF Done:  E(UB3LYP) =  -504.823447151     A.U. after   19 cycles
             Convg  =    0.4428D-08             -V/T =  2.0041
 <Sx>= 0.0000 <Sy>= 0.0000 <Sz>= 0.5000 <S**2>= 0.7530 S= 0.5015
 <L.S>= 0.000000000000E+00
 KE= 5.027455432946D+02 PE=-2.472875074912D+03 EE= 8.170441903595D+02
 Annihilation of the first spin contaminant:
 S**2 before annihilation     0.7530,   after     0.7500
 Leave Link  502 at Thu Feb  6 23:23:29 2014, MaxMem= 4026531840 cpu:    2271.2
 (Enter /usr/caen/gaussian-09revc/g09/l601.exe)
 Copying SCF densities to generalized density rwf, IOpCl= 1 IROHF=0.

 **********************************************************************

            Population analysis using the SCF density.

 **********************************************************************

 Orbital symmetries:
 Alpha Orbitals:
       Occupied  (A) (A) (A) (A) (A) (A) (A) (A) (A) (A) (A) (A)
                 (A) (A) (A) (A) (A) (A) (A) (A) (A) (A) (A) (A)
                 (A) (A) (A) (A) (A) (A) (A) (A) (A) (A) (A) (A)
                 (A) (A) (A) (A) (A) (A) (A) (A) (A)
       Virtual   (A) (A) (A) (A) (A) (A) (A) (A) (A) (A) (A) (A)
                 (A) (A) (A) (A) (A) (A) (A) (A) (A) (A) (A) (A)
                 (A) (A) (A) (A) (A) (A) (A) (A) (A) (A) (A) (A)
                 (A) (A) (A) (A) (A) (A) (A) (A) (A) (A) (A) (A)
                 (A) (A) (A) (A) (A) (A) (A) (A) (A) (A) (A) (A)
                 (A) (A) (A) (A) (A) (A) (A) (A) (A) (A) (A) (A)
                 (A) (A) (A) (A) (A) (A) (A) (A) (A) (A) (A) (A)
                 (A) (A) (A) (A) (A) (A) (A) (A) (A) (A) (A) (A)
                 (A) (A) (A) (A) (A) (A) (A) (A) (A) (A) (A) (A)
                 (A) (A) (A) (A) (A) (A) (A) (A) (A) (A) (A) (A)
                 (A) (A) (A) (A) (A) (A) (A) (A) (A) (A) (A) (A)
                 (A) (A) (A) (A) (A) (A) (A) (A) (A) (A) (A) (A)
                 (A) (A) (A) (A) (A) (A) (A) (A) (A) (A) (A) (A)
                 (A) (A) (A) (A) (A) (A) (A) (A) (A) (A) (A) (A)
                 (A) (A) (A) (A) (A) (A) (A) (A) (A) (A) (A) (A)
                 (A) (A) (A) (A) (A) (A) (A) (A) (A) (A) (A) (A)
                 (A) (A) (A) (A) (A) (A) (A) (A) (A) (A) (A) (A)
                 (A) (A) (A) (A) (A) (A) (A) (A) (A) (A) (A) (A)
                 (A) (A) (A) (A) (A) (A) (A) (A) (A) (A) (A) (A)
                 (A) (A) (A) (A) (A) (A) (A) (A) (A) (A) (A) (A)
                 (A) (A) (A) (A) (A) (A) (A) (A) (A) (A) (A) (A)
                 (A) (A) (A) (A) (A) (A) (A) (A) (A) (A) (A) (A)
                 (A) (A) (A) (A) (A) (A) (A) (A) (A) (A) (A) (A)
                 (A) (A) (A) (A) (A) (A) (A) (A) (A) (A) (A) (A)
                 (A) (A) (A) (A) (A) (A) (A) (A) (A) (A) (A) (A)
                 (A) (A) (A) (A) (A) (A) (A) (A) (A) (A) (A) (A)
                 (A) (A) (A) (A) (A) (A) (A) (A) (A) (A) (A) (A)
                 (A) (A) (A) (A) (A) (A)
 Beta  Orbitals:
       Occupied  (A) (A) (A) (A) (A) (A) (A) (A) (A) (A) (A) (A)
                 (A) (A) (A) (A) (A) (A) (A) (A) (A) (A) (A) (A)
                 (A) (A) (A) (A) (A) (A) (A) (A) (A) (A) (A) (A)
                 (A) (A) (A) (A) (A) (A) (A) (A)
       Virtual   (A) (A) (A) (A) (A) (A) (A) (A) (A) (A) (A) (A)
                 (A) (A) (A) (A) (A) (A) (A) (A) (A) (A) (A) (A)
                 (A) (A) (A) (A) (A) (A) (A) (A) (A) (A) (A) (A)
                 (A) (A) (A) (A) (A) (A) (A) (A) (A) (A) (A) (A)
                 (A) (A) (A) (A) (A) (A) (A) (A) (A) (A) (A) (A)
                 (A) (A) (A) (A) (A) (A) (A) (A) (A) (A) (A) (A)
                 (A) (A) (A) (A) (A) (A) (A) (A) (A) (A) (A) (A)
                 (A) (A) (A) (A) (A) (A) (A) (A) (A) (A) (A) (A)
                 (A) (A) (A) (A) (A) (A) (A) (A) (A) (A) (A) (A)
                 (A) (A) (A) (A) (A) (A) (A) (A) (A) (A) (A) (A)
                 (A) (A) (A) (A) (A) (A) (A) (A) (A) (A) (A) (A)
                 (A) (A) (A) (A) (A) (A) (A) (A) (A) (A) (A) (A)
                 (A) (A) (A) (A) (A) (A) (A) (A) (A) (A) (A) (A)
                 (A) (A) (A) (A) (A) (A) (A) (A) (A) (A) (A) (A)
                 (A) (A) (A) (A) (A) (A) (A) (A) (A) (A) (A) (A)
                 (A) (A) (A) (A) (A) (A) (A) (A) (A) (A) (A) (A)
                 (A) (A) (A) (A) (A) (A) (A) (A) (A) (A) (A) (A)
                 (A) (A) (A) (A) (A) (A) (A) (A) (A) (A) (A) (A)
                 (A) (A) (A) (A) (A) (A) (A) (A) (A) (A) (A) (A)
                 (A) (A) (A) (A) (A) (A) (A) (A) (A) (A) (A) (A)
                 (A) (A) (A) (A) (A) (A) (A) (A) (A) (A) (A) (A)
                 (A) (A) (A) (A) (A) (A) (A) (A) (A) (A) (A) (A)
                 (A) (A) (A) (A) (A) (A) (A) (A) (A) (A) (A) (A)
                 (A) (A) (A) (A) (A) (A) (A) (A) (A) (A) (A) (A)
                 (A) (A) (A) (A) (A) (A) (A) (A) (A) (A) (A) (A)
                 (A) (A) (A) (A) (A) (A) (A) (A) (A) (A) (A) (A)
                 (A) (A) (A) (A) (A) (A) (A) (A) (A) (A) (A) (A)
                 (A) (A) (A) (A) (A) (A) (A)
 The electronic state is 2-A.
 Alpha  occ. eigenvalues --  -19.17507 -19.17013 -10.22218 -10.18090 -10.17718
 Alpha  occ. eigenvalues --  -10.17547 -10.16559 -10.16081 -10.15991 -10.15594
 Alpha  occ. eigenvalues --  -10.15415  -1.17793  -0.90278  -0.81802  -0.79852
 Alpha  occ. eigenvalues --   -0.74689  -0.68392  -0.68229  -0.66916  -0.60372
 Alpha  occ. eigenvalues --   -0.57597  -0.55258  -0.54659  -0.49905  -0.47518
 Alpha  occ. eigenvalues --   -0.46337  -0.44830  -0.43789  -0.42873  -0.42140
 Alpha  occ. eigenvalues --   -0.41308  -0.40233  -0.38617  -0.38163  -0.36333
 Alpha  occ. eigenvalues --   -0.35971  -0.35508  -0.34504  -0.33462  -0.33070
 Alpha  occ. eigenvalues --   -0.32136  -0.30823  -0.30691  -0.23331  -0.21663
 Alpha virt. eigenvalues --   -0.01233  -0.00234  -0.00040   0.00778   0.01733
 Alpha virt. eigenvalues --    0.02145   0.02349   0.03183   0.03783   0.04136
 Alpha virt. eigenvalues --    0.04508   0.04847   0.05293   0.05879   0.06068
 Alpha virt. eigenvalues --    0.06992   0.07258   0.08188   0.08297   0.08880
 Alpha virt. eigenvalues --    0.09046   0.09642   0.10540   0.10837   0.11272
 Alpha virt. eigenvalues --    0.11829   0.12159   0.12387   0.12424   0.13009
 Alpha virt. eigenvalues --    0.13392   0.13492   0.13941   0.14334   0.14498
 Alpha virt. eigenvalues --    0.14653   0.15016   0.15206   0.15387   0.15729
 Alpha virt. eigenvalues --    0.15935   0.16489   0.16864   0.17359   0.17741
 Alpha virt. eigenvalues --    0.17947   0.18288   0.18426   0.18770   0.18873
 Alpha virt. eigenvalues --    0.19342   0.19597   0.20279   0.20702   0.21174
 Alpha virt. eigenvalues --    0.21479   0.21827   0.22319   0.22605   0.23475
 Alpha virt. eigenvalues --    0.23595   0.24067   0.24354   0.25249   0.25489
 Alpha virt. eigenvalues --    0.26589   0.26795   0.27428   0.27656   0.28063
 Alpha virt. eigenvalues --    0.28628   0.29554   0.30327   0.30922   0.31625
 Alpha virt. eigenvalues --    0.32074   0.32668   0.33242   0.33658   0.34109
 Alpha virt. eigenvalues --    0.34533   0.34969   0.35522   0.35841   0.36101
 Alpha virt. eigenvalues --    0.37434   0.38844   0.39200   0.40029   0.40179
 Alpha virt. eigenvalues --    0.42494   0.44163   0.45295   0.46573   0.47533
 Alpha virt. eigenvalues --    0.48366   0.50851   0.52044   0.52420   0.54093
 Alpha virt. eigenvalues --    0.54363   0.54708   0.55994   0.56276   0.58204
 Alpha virt. eigenvalues --    0.58770   0.59291   0.60306   0.61782   0.62328
 Alpha virt. eigenvalues --    0.64027   0.65049   0.65439   0.65865   0.66788
 Alpha virt. eigenvalues --    0.67147   0.68361   0.69218   0.69525   0.70332
 Alpha virt. eigenvalues --    0.70936   0.71904   0.72167   0.72986   0.73947
 Alpha virt. eigenvalues --    0.74323   0.75197   0.75249   0.76624   0.77053
 Alpha virt. eigenvalues --    0.77677   0.78546   0.79135   0.79918   0.81053
 Alpha virt. eigenvalues --    0.81427   0.85807   0.86289   0.89220   0.91461
 Alpha virt. eigenvalues --    0.95369   0.96290   0.98225   0.99849   1.01319
 Alpha virt. eigenvalues --    1.03455   1.04416   1.05536   1.06454   1.09764
 Alpha virt. eigenvalues --    1.12118   1.12588   1.14348   1.14839   1.16036
 Alpha virt. eigenvalues --    1.18614   1.19931   1.21234   1.22930   1.27275
 Alpha virt. eigenvalues --    1.29371   1.31895   1.33660   1.36028   1.41737
 Alpha virt. eigenvalues --    1.41887   1.42802   1.45872   1.46958   1.47021
 Alpha virt. eigenvalues --    1.48077   1.48521   1.49745   1.50902   1.54091
 Alpha virt. eigenvalues --    1.55652   1.56031   1.57884   1.58349   1.58653
 Alpha virt. eigenvalues --    1.59573   1.59878   1.60379   1.61420   1.61735
 Alpha virt. eigenvalues --    1.63009   1.63818   1.64923   1.65393   1.66818
 Alpha virt. eigenvalues --    1.66881   1.68694   1.69110   1.69972   1.71299
 Alpha virt. eigenvalues --    1.72708   1.74239   1.74930   1.76891   1.77122
 Alpha virt. eigenvalues --    1.78600   1.79415   1.80444   1.81933   1.82936
 Alpha virt. eigenvalues --    1.83561   1.83892   1.86581   1.88884   1.91071
 Alpha virt. eigenvalues --    1.94322   1.95384   1.98767   2.00640   2.03199
 Alpha virt. eigenvalues --    2.03863   2.05384   2.05719   2.07646   2.10739
 Alpha virt. eigenvalues --    2.11926   2.13705   2.14559   2.15570   2.18404
 Alpha virt. eigenvalues --    2.21080   2.25139   2.25472   2.28070   2.28956
 Alpha virt. eigenvalues --    2.32604   2.33079   2.35978   2.37953   2.39410
 Alpha virt. eigenvalues --    2.41302   2.42130   2.46553   2.47489   2.47684
 Alpha virt. eigenvalues --    2.48805   2.49428   2.50486   2.50782   2.52375
 Alpha virt. eigenvalues --    2.53662   2.53818   2.54762   2.55952   2.58593
 Alpha virt. eigenvalues --    2.59390   2.60990   2.61835   2.62035   2.63261
 Alpha virt. eigenvalues --    2.64420   2.66703   2.67665   2.68759   2.69921
 Alpha virt. eigenvalues --    2.70315   2.71216   2.72802   2.75695   2.76788
 Alpha virt. eigenvalues --    2.77209   2.79126   2.79617   2.82357   2.84344
 Alpha virt. eigenvalues --    2.85257   2.85968   2.91273   2.92419   2.92991
 Alpha virt. eigenvalues --    2.93995   2.96487   2.99072   3.00175   3.02387
 Alpha virt. eigenvalues --    3.04030   3.05174   3.07886   3.11985   3.14563
 Alpha virt. eigenvalues --    3.16764   3.21093   3.26879   3.33021   3.40387
 Alpha virt. eigenvalues --    3.44405   3.49955   3.53321   3.78238   3.78622
 Alpha virt. eigenvalues --    3.79581   3.80567   3.81990   3.82597   3.83858
 Alpha virt. eigenvalues --    3.84379   3.86113   3.87480   3.92520   3.95656
 Alpha virt. eigenvalues --    3.98389   4.02230   4.08496   4.17886   4.29040
 Alpha virt. eigenvalues --    4.29682   4.30448   4.39052   4.90534   4.96183
 Alpha virt. eigenvalues --    5.10258   5.34199   5.55864   6.10969  23.77815
 Alpha virt. eigenvalues --   23.83471  23.83673  23.87717  23.90678  23.93873
 Alpha virt. eigenvalues --   23.98103  23.98286  23.98970  49.85588  49.90070
  Beta  occ. eigenvalues --  -19.17506 -19.17013 -10.22215 -10.17719 -10.17572
  Beta  occ. eigenvalues --  -10.16650 -10.16579 -10.15979 -10.15969 -10.15594
  Beta  occ. eigenvalues --  -10.15388  -1.17792  -0.90275  -0.81223  -0.79590
  Beta  occ. eigenvalues --   -0.74318  -0.68244  -0.68209  -0.65975  -0.59942
  Beta  occ. eigenvalues --   -0.57515  -0.54667  -0.54320  -0.49847  -0.47481
  Beta  occ. eigenvalues --   -0.45833  -0.44699  -0.43531  -0.42279  -0.41985
  Beta  occ. eigenvalues --   -0.41182  -0.40022  -0.38478  -0.37968  -0.36160
  Beta  occ. eigenvalues --   -0.35701  -0.35365  -0.34140  -0.33293  -0.32932
  Beta  occ. eigenvalues --   -0.31779  -0.30761  -0.30329  -0.23328
  Beta virt. eigenvalues --   -0.06729  -0.01212  -0.00219  -0.00031   0.00827
  Beta virt. eigenvalues --    0.01772   0.02145   0.02412   0.03298   0.03818
  Beta virt. eigenvalues --    0.04160   0.04522   0.04844   0.05307   0.05900
  Beta virt. eigenvalues --    0.06100   0.07026   0.07322   0.08230   0.08361
  Beta virt. eigenvalues --    0.08883   0.09044   0.09711   0.10591   0.10877
  Beta virt. eigenvalues --    0.11291   0.11893   0.12193   0.12399   0.12452
  Beta virt. eigenvalues --    0.13059   0.13428   0.13605   0.14032   0.14356
  Beta virt. eigenvalues --    0.14649   0.14686   0.15108   0.15242   0.15459
  Beta virt. eigenvalues --    0.15774   0.15963   0.16635   0.16961   0.17469
  Beta virt. eigenvalues --    0.17806   0.18032   0.18396   0.18466   0.18817
  Beta virt. eigenvalues --    0.18967   0.19416   0.19665   0.20328   0.20729
  Beta virt. eigenvalues --    0.21379   0.21574   0.21966   0.22399   0.22772
  Beta virt. eigenvalues --    0.23629   0.23678   0.24201   0.24434   0.25409
  Beta virt. eigenvalues --    0.25878   0.26740   0.26944   0.27598   0.27946
  Beta virt. eigenvalues --    0.28188   0.28824   0.29676   0.30543   0.31281
  Beta virt. eigenvalues --    0.31804   0.32124   0.33052   0.33314   0.33795
  Beta virt. eigenvalues --    0.34243   0.34747   0.35170   0.35583   0.36106
  Beta virt. eigenvalues --    0.36338   0.37522   0.38918   0.39276   0.40075
  Beta virt. eigenvalues --    0.40390   0.42537   0.44326   0.45321   0.46647
  Beta virt. eigenvalues --    0.47567   0.48559   0.51052   0.52221   0.52789
  Beta virt. eigenvalues --    0.54359   0.54451   0.54868   0.56175   0.56423
  Beta virt. eigenvalues --    0.58287   0.58962   0.59396   0.60388   0.61920
  Beta virt. eigenvalues --    0.62682   0.64334   0.65197   0.65605   0.66479
  Beta virt. eigenvalues --    0.67163   0.67805   0.68460   0.69315   0.69660
  Beta virt. eigenvalues --    0.70695   0.70981   0.72070   0.72470   0.73523
  Beta virt. eigenvalues --    0.74166   0.74533   0.75363   0.75682   0.77118
  Beta virt. eigenvalues --    0.77237   0.77996   0.78689   0.79748   0.80161
  Beta virt. eigenvalues --    0.81104   0.82148   0.86118   0.86394   0.89451
  Beta virt. eigenvalues --    0.91896   0.96050   0.96558   0.98489   1.00177
  Beta virt. eigenvalues --    1.01534   1.03706   1.04773   1.05783   1.06541
  Beta virt. eigenvalues --    1.09796   1.12240   1.12731   1.14424   1.15053
  Beta virt. eigenvalues --    1.16299   1.18670   1.20007   1.21318   1.23449
  Beta virt. eigenvalues --    1.27366   1.30223   1.32231   1.33819   1.36132
  Beta virt. eigenvalues --    1.41843   1.41973   1.43664   1.46155   1.47037
  Beta virt. eigenvalues --    1.47408   1.48237   1.48936   1.50526   1.51109
  Beta virt. eigenvalues --    1.54189   1.55887   1.56447   1.58104   1.58706
  Beta virt. eigenvalues --    1.58854   1.59690   1.59987   1.60579   1.61555
  Beta virt. eigenvalues --    1.61980   1.63361   1.64289   1.64999   1.65497
  Beta virt. eigenvalues --    1.66905   1.67410   1.69080   1.69190   1.70636
  Beta virt. eigenvalues --    1.71551   1.72865   1.74565   1.75105   1.76992
  Beta virt. eigenvalues --    1.77362   1.78857   1.79632   1.80697   1.82217
  Beta virt. eigenvalues --    1.83246   1.83649   1.84139   1.86889   1.88942
  Beta virt. eigenvalues --    1.91242   1.94450   1.96275   1.99039   2.01137
  Beta virt. eigenvalues --    2.03472   2.04137   2.05411   2.06719   2.07869
  Beta virt. eigenvalues --    2.11151   2.12154   2.13832   2.14870   2.15801
  Beta virt. eigenvalues --    2.18589   2.21778   2.25411   2.25801   2.28195
  Beta virt. eigenvalues --    2.29112   2.32827   2.33252   2.36159   2.38156
  Beta virt. eigenvalues --    2.39852   2.41703   2.42463   2.46632   2.47684
  Beta virt. eigenvalues --    2.47740   2.48894   2.49490   2.50685   2.50879
  Beta virt. eigenvalues --    2.52466   2.53730   2.53926   2.54888   2.56121
  Beta virt. eigenvalues --    2.58670   2.59755   2.61053   2.62000   2.62325
  Beta virt. eigenvalues --    2.63488   2.64573   2.66874   2.68128   2.68855
  Beta virt. eigenvalues --    2.70105   2.70460   2.71548   2.72976   2.75842
  Beta virt. eigenvalues --    2.76922   2.77508   2.79245   2.79744   2.82603
  Beta virt. eigenvalues --    2.84490   2.85345   2.86061   2.92101   2.92516
  Beta virt. eigenvalues --    2.93800   2.94152   2.97179   2.99232   3.00573
  Beta virt. eigenvalues --    3.02432   3.04190   3.06218   3.08425   3.12121
  Beta virt. eigenvalues --    3.15311   3.16865   3.21192   3.27720   3.33069
  Beta virt. eigenvalues --    3.40588   3.44438   3.50145   3.53873   3.78281
  Beta virt. eigenvalues --    3.78674   3.79644   3.80586   3.82102   3.82607
  Beta virt. eigenvalues --    3.83979   3.84493   3.86152   3.87543   3.92534
  Beta virt. eigenvalues --    3.96466   3.98402   4.02257   4.08932   4.18082
  Beta virt. eigenvalues --    4.29446   4.29735   4.30693   4.39419   4.90536
  Beta virt. eigenvalues --    4.96185   5.10259   5.34201   5.55865   6.10969
  Beta virt. eigenvalues --   23.79418  23.83474  23.83665  23.87751  23.90667
  Beta virt. eigenvalues --   23.93898  23.98147  23.98382  23.98972  49.85589
  Beta virt. eigenvalues --   49.90071
          Condensed to atoms (all electrons):
              1          2          3          4          5          6
     1  C    6.173272   0.403164   0.417165   0.386727  -0.807523  -0.098948
     2  H    0.403164   0.588219  -0.042169  -0.025560  -0.105333  -0.016381
     3  H    0.417165  -0.042169   0.518379  -0.032684   0.070639   0.015539
     4  H    0.386727  -0.025560  -0.032684   0.579720   0.003729  -0.011357
     5  C   -0.807523  -0.105333   0.070639   0.003729   9.516076   0.493291
     6  H   -0.098948  -0.016381   0.015539  -0.011357   0.493291   0.637180
     7  C    0.662903   0.031637  -0.104510   0.020634  -3.308936  -0.142287
     8  H    0.012074   0.007030  -0.000233  -0.000187  -0.169728  -0.015105
     9  H   -0.000292   0.001902   0.009451  -0.003092   0.011825   0.015678
    10  C   -0.203541   0.002392   0.009104  -0.004974   0.663416  -0.008415
    11  H    0.007457   0.000112   0.000360   0.000276  -0.074740  -0.005296
    12  H    0.024809   0.000322   0.003043   0.000465   0.093883   0.009120
    13  C   -0.118148   0.002621  -0.001511  -0.003582  -0.219898   0.028235
    14  H    0.004075  -0.000675   0.000278   0.000213   0.010173  -0.000984
    15  C    0.007114   0.002197   0.000673  -0.001023  -0.169527  -0.008118
    16  H    0.002368   0.000048   0.000079  -0.000027   0.004657  -0.000928
    17  C   -0.005066  -0.000069   0.000032  -0.000060   0.006213   0.001132
    18  H    0.000147   0.000025   0.000005  -0.000004  -0.000494  -0.000010
    19  H   -0.000127   0.000010  -0.000003  -0.000004  -0.000297  -0.000020
    20  H   -0.000217  -0.000002  -0.000013   0.000008   0.001079   0.000078
    21  C   -0.310859   0.019955  -0.044678  -0.047967  -0.342525  -0.050434
    22  H   -0.051866   0.004198  -0.001325  -0.001033  -0.125761   0.003493
    23  H    0.056064  -0.004088   0.002132   0.001434  -0.015470  -0.005445
    24  C   -0.000424  -0.000019  -0.000092  -0.000076  -0.030947   0.001271
    25  H    0.000130   0.000008   0.000004  -0.000010  -0.002230   0.000020
    26  H   -0.000013  -0.000014  -0.000004   0.000014   0.002674  -0.000367
    27  H   -0.003048   0.000037  -0.000183  -0.000020  -0.006238   0.001008
    28  O    0.079846   0.000247   0.010402  -0.002768  -0.190375   0.013096
    29  O   -0.020929   0.000457  -0.001301  -0.001187  -0.150415  -0.009453
    30  H   -0.009715  -0.000071  -0.001021   0.000460   0.050262   0.003171
              7          8          9         10         11         12
     1  C    0.662903   0.012074  -0.000292  -0.203541   0.007457   0.024809
     2  H    0.031637   0.007030   0.001902   0.002392   0.000112   0.000322
     3  H   -0.104510  -0.000233   0.009451   0.009104   0.000360   0.003043
     4  H    0.020634  -0.000187  -0.003092  -0.004974   0.000276   0.000465
     5  C   -3.308936  -0.169728   0.011825   0.663416  -0.074740   0.093883
     6  H   -0.142287  -0.015105   0.015678  -0.008415  -0.005296   0.009120
     7  C   10.948584   0.508508   0.419909  -2.147882   0.004153  -0.202523
     8  H    0.508508   0.608634  -0.058513  -0.118832  -0.024634   0.015968
     9  H    0.419909  -0.058513   0.518543  -0.001338   0.015434  -0.012586
    10  C   -2.147882  -0.118832  -0.001338   7.451902   0.586713   0.453453
    11  H    0.004153  -0.024634   0.015434   0.586713   0.679423  -0.137343
    12  H   -0.202523   0.015968  -0.012586   0.453453  -0.137343   0.770951
    13  C    0.510138   0.059588  -0.049809  -0.904855  -0.268766  -0.070153
    14  H   -0.042349  -0.006616   0.010315   0.071159   0.022517  -0.016316
    15  C   -0.468294  -0.008494   0.000922   0.375274   0.070223   0.052316
    16  H   -0.017316  -0.001322   0.000052   0.043948   0.013044   0.016532
    17  C   -0.096152  -0.001820   0.000347  -0.125394  -0.008087  -0.007489
    18  H    0.002704   0.000009   0.000055   0.014505   0.001224   0.003123
    19  H   -0.004791  -0.000056   0.000223   0.000628  -0.000109  -0.000012
    20  H   -0.004225  -0.000250  -0.000105  -0.013967  -0.001474  -0.000866
    21  C   -0.088270   0.036798  -0.044623   0.258493   0.009533  -0.100726
    22  H    0.079553   0.002604  -0.001971  -0.005136  -0.000972  -0.002984
    23  H   -0.031064   0.004935  -0.006587   0.012935  -0.002496   0.029081
    24  C    0.163112   0.006710  -0.005402  -0.084812  -0.028369  -0.006528
    25  H    0.006228   0.000384  -0.000190   0.004317  -0.000525  -0.001642
    26  H   -0.016263  -0.000708   0.000077   0.021611   0.003755   0.002962
    27  H   -0.002980   0.000184   0.000182   0.008568  -0.001870  -0.012408
    28  O    0.115257   0.009234  -0.006200  -0.062140  -0.000476   0.015634
    29  O    0.083233  -0.000735   0.002721   0.027032   0.002603   0.004358
    30  H   -0.026715  -0.000312  -0.000509  -0.005236  -0.001076  -0.002703
             13         14         15         16         17         18
     1  C   -0.118148   0.004075   0.007114   0.002368  -0.005066   0.000147
     2  H    0.002621  -0.000675   0.002197   0.000048  -0.000069   0.000025
     3  H   -0.001511   0.000278   0.000673   0.000079   0.000032   0.000005
     4  H   -0.003582   0.000213  -0.001023  -0.000027  -0.000060  -0.000004
     5  C   -0.219898   0.010173  -0.169527   0.004657   0.006213  -0.000494
     6  H    0.028235  -0.000984  -0.008118  -0.000928   0.001132  -0.000010
     7  C    0.510138  -0.042349  -0.468294  -0.017316  -0.096152   0.002704
     8  H    0.059588  -0.006616  -0.008494  -0.001322  -0.001820   0.000009
     9  H   -0.049809   0.010315   0.000922   0.000052   0.000347   0.000055
    10  C   -0.904855   0.071159   0.375274   0.043948  -0.125394   0.014505
    11  H   -0.268766   0.022517   0.070223   0.013044  -0.008087   0.001224
    12  H   -0.070153  -0.016316   0.052316   0.016532  -0.007489   0.003123
    13  C    8.222651   0.160069  -1.550049  -0.242796   0.252638  -0.115485
    14  H    0.160069   0.672918   0.105628   0.025808  -0.007770   0.006167
    15  C   -1.550049   0.105628   7.142027   0.627849  -0.125331   0.109700
    16  H   -0.242796   0.025808   0.627849   0.616662  -0.063697   0.014813
    17  C    0.252638  -0.007770  -0.125331  -0.063697   5.694192   0.361748
    18  H   -0.115485   0.006167   0.109700   0.014813   0.361748   0.563252
    19  H    0.053610  -0.003506  -0.095628  -0.013758   0.394609  -0.035924
    20  H    0.000600   0.000659  -0.053693  -0.010141   0.431913  -0.041121
    21  C    0.088300  -0.003015  -0.004055  -0.005025   0.005375  -0.000331
    22  H    0.012610  -0.001204  -0.000633  -0.000420   0.000195   0.000018
    23  H   -0.048618   0.002655   0.002677   0.001423  -0.001207  -0.000072
    24  C    0.375976  -0.093819  -0.310888  -0.139288  -0.147387  -0.030794
    25  H    0.026210  -0.006289  -0.091997  -0.004929  -0.005017   0.004046
    26  H   -0.097668   0.012910   0.080460   0.012797  -0.006569   0.010262
    27  H    0.019522  -0.000778  -0.071957  -0.019292   0.015922  -0.006792
    28  O   -0.009006   0.000078   0.002321   0.000377  -0.000504   0.000028
    29  O    0.002078   0.000664   0.007238   0.000314   0.000308  -0.000076
    30  H    0.003292  -0.000353  -0.002052  -0.000075   0.000030   0.000011
             19         20         21         22         23         24
     1  C   -0.000127  -0.000217  -0.310859  -0.051866   0.056064  -0.000424
     2  H    0.000010  -0.000002   0.019955   0.004198  -0.004088  -0.000019
     3  H   -0.000003  -0.000013  -0.044678  -0.001325   0.002132  -0.000092
     4  H   -0.000004   0.000008  -0.047967  -0.001033   0.001434  -0.000076
     5  C   -0.000297   0.001079  -0.342525  -0.125761  -0.015470  -0.030947
     6  H   -0.000020   0.000078  -0.050434   0.003493  -0.005445   0.001271
     7  C   -0.004791  -0.004225  -0.088270   0.079553  -0.031064   0.163112
     8  H   -0.000056  -0.000250   0.036798   0.002604   0.004935   0.006710
     9  H    0.000223  -0.000105  -0.044623  -0.001971  -0.006587  -0.005402
    10  C    0.000628  -0.013967   0.258493  -0.005136   0.012935  -0.084812
    11  H   -0.000109  -0.001474   0.009533  -0.000972  -0.002496  -0.028369
    12  H   -0.000012  -0.000866  -0.100726  -0.002984   0.029081  -0.006528
    13  C    0.053610   0.000600   0.088300   0.012610  -0.048618   0.375976
    14  H   -0.003506   0.000659  -0.003015  -0.001204   0.002655  -0.093819
    15  C   -0.095628  -0.053693  -0.004055  -0.000633   0.002677  -0.310888
    16  H   -0.013758  -0.010141  -0.005025  -0.000420   0.001423  -0.139288
    17  C    0.394609   0.431913   0.005375   0.000195  -0.001207  -0.147387
    18  H   -0.035924  -0.041121  -0.000331   0.000018  -0.000072  -0.030794
    19  H    0.575770  -0.019320   0.000223   0.000012  -0.000074  -0.001092
    20  H   -0.019320   0.554337   0.000082  -0.000005  -0.000015   0.018017
    21  C    0.000223   0.000082   6.337751   0.419951   0.287017   0.013882
    22  H    0.000012  -0.000005   0.419951   0.552464  -0.030240   0.001336
    23  H   -0.000074  -0.000015   0.287017  -0.030240   0.590273  -0.000994
    24  C   -0.001092   0.018017   0.013882   0.001336  -0.000994   5.775527
    25  H   -0.000756   0.000628   0.000047   0.000041   0.000056   0.419637
    26  H    0.001519  -0.002515   0.000360  -0.000114   0.000373   0.342837
    27  H    0.002562  -0.001181   0.012783   0.000883  -0.007919   0.412105
    28  O   -0.000022  -0.000017   0.098868  -0.081919  -0.009847  -0.000521
    29  O    0.000032  -0.000013   0.050079   0.025989   0.022119   0.001484
    30  H   -0.000011   0.000009   0.010802  -0.003463  -0.008310  -0.000185
             25         26         27         28         29         30
     1  C    0.000130  -0.000013  -0.003048   0.079846  -0.020929  -0.009715
     2  H    0.000008  -0.000014   0.000037   0.000247   0.000457  -0.000071
     3  H    0.000004  -0.000004  -0.000183   0.010402  -0.001301  -0.001021
     4  H   -0.000010   0.000014  -0.000020  -0.002768  -0.001187   0.000460
     5  C   -0.002230   0.002674  -0.006238  -0.190375  -0.150415   0.050262
     6  H    0.000020  -0.000367   0.001008   0.013096  -0.009453   0.003171
     7  C    0.006228  -0.016263  -0.002980   0.115257   0.083233  -0.026715
     8  H    0.000384  -0.000708   0.000184   0.009234  -0.000735  -0.000312
     9  H   -0.000190   0.000077   0.000182  -0.006200   0.002721  -0.000509
    10  C    0.004317   0.021611   0.008568  -0.062140   0.027032  -0.005236
    11  H   -0.000525   0.003755  -0.001870  -0.000476   0.002603  -0.001076
    12  H   -0.001642   0.002962  -0.012408   0.015634   0.004358  -0.002703
    13  C    0.026210  -0.097668   0.019522  -0.009006   0.002078   0.003292
    14  H   -0.006289   0.012910  -0.000778   0.000078   0.000664  -0.000353
    15  C   -0.091997   0.080460  -0.071957   0.002321   0.007238  -0.002052
    16  H   -0.004929   0.012797  -0.019292   0.000377   0.000314  -0.000075
    17  C   -0.005017  -0.006569   0.015922  -0.000504   0.000308   0.000030
    18  H    0.004046   0.010262  -0.006792   0.000028  -0.000076   0.000011
    19  H   -0.000756   0.001519   0.002562  -0.000022   0.000032  -0.000011
    20  H    0.000628  -0.002515  -0.001181  -0.000017  -0.000013   0.000009
    21  C    0.000047   0.000360   0.012783   0.098868   0.050079   0.010802
    22  H    0.000041  -0.000114   0.000883  -0.081919   0.025989  -0.003463
    23  H    0.000056   0.000373  -0.007919  -0.009847   0.022119  -0.008310
    24  C    0.419637   0.342837   0.412105  -0.000521   0.001484  -0.000185
    25  H    0.572926  -0.033682  -0.030011  -0.000009   0.000032   0.000029
    26  H   -0.033682   0.561488  -0.041672  -0.000067   0.000570  -0.000308
    27  H   -0.030011  -0.041672   0.593372  -0.001461  -0.004446   0.001018
    28  O   -0.000009  -0.000067  -0.001461   8.189460  -0.079253  -0.014264
    29  O    0.000032   0.000570  -0.004446  -0.079253   8.126332   0.141177
    30  H    0.000029  -0.000308   0.001018  -0.014264   0.141177   0.581728
 Mulliken atomic charges:
              1
     1  C   -0.606597
     2  H    0.129798
     3  H    0.172442
     4  H    0.141935
     5  C    0.792521
     6  H    0.151234
     7  C   -0.851995
     8  H    0.134885
     9  H    0.183580
    10  C   -0.318932
    11  H    0.139406
    12  H    0.078259
    13  C   -0.117795
    14  H    0.077386
    15  C    0.375120
    16  H    0.138242
    17  C   -0.563037
    18  H    0.139260
    19  H    0.146314
    20  H    0.141730
    21  C   -0.607790
    22  H    0.205697
    23  H    0.159270
    24  C   -0.650259
    25  H    0.142545
    26  H    0.145293
    27  H    0.144111
    28  O   -0.075997
    29  O   -0.231014
    30  H    0.284391
 Sum of Mulliken atomic charges =   0.00000
 Mulliken charges with hydrogens summed into heavy atoms:
              1
     1  C   -0.162423
     5  C    0.943755
     7  C   -0.533530
    10  C   -0.101267
    13  C   -0.040409
    15  C    0.513362
    17  C   -0.135733
    21  C   -0.242823
    24  C   -0.218311
    28  O   -0.075997
    29  O    0.053377
 Sum of Mulliken charges with hydrogens summed into heavy atoms =   0.00000
          Atomic-Atomic Spin Densities.
              1          2          3          4          5          6
     1  C    0.000702  -0.000681   0.000175   0.000229   0.004126   0.000643
     2  H   -0.000681   0.000160  -0.000016  -0.000103  -0.000632  -0.000223
     3  H    0.000175  -0.000016   0.000028  -0.000091  -0.000598  -0.000090
     4  H    0.000229  -0.000103  -0.000091   0.000436   0.001182   0.000357
     5  C    0.004126  -0.000632  -0.000598   0.001182   0.015202   0.003982
     6  H    0.000643  -0.000223  -0.000090   0.000357   0.003982   0.000559
     7  C   -0.001851   0.002254   0.000106  -0.002226  -0.011458  -0.001245
     8  H    0.002244  -0.000218  -0.000044   0.000423   0.006486   0.000601
     9  H   -0.000952   0.000015   0.000042  -0.000223  -0.006346  -0.000453
    10  C    0.001289  -0.000877   0.000093  -0.000019   0.011691  -0.001991
    11  H   -0.002280   0.000157   0.000118  -0.000424  -0.018154  -0.001585
    12  H    0.002673  -0.000105  -0.000155   0.000408   0.022007   0.001408
    13  C   -0.003511   0.000476   0.000111  -0.000349  -0.015053  -0.000991
    14  H   -0.000852  -0.000016   0.000079  -0.000076  -0.010359  -0.000391
    15  C   -0.001833   0.000016   0.000103  -0.000138  -0.016063  -0.001159
    16  H   -0.000201   0.000003   0.000009  -0.000016  -0.002037  -0.000188
    17  C   -0.000168   0.000010   0.000011  -0.000009  -0.001170  -0.000121
    18  H   -0.000007   0.000000   0.000000   0.000000   0.000045   0.000002
    19  H    0.000000  -0.000001   0.000000   0.000000  -0.000008  -0.000002
    20  H    0.000018   0.000000  -0.000001   0.000001   0.000163   0.000014
    21  C    0.000063  -0.000095   0.000100   0.000320   0.002935   0.000134
    22  H    0.000385  -0.000053  -0.000074   0.000505   0.003452   0.000490
    23  H    0.000697  -0.000126   0.000024   0.000162   0.001606   0.000034
    24  C    0.000976  -0.000035  -0.000045   0.000070   0.010106   0.000676
    25  H   -0.000020   0.000001   0.000000  -0.000001  -0.000164  -0.000001
    26  H   -0.000036   0.000006   0.000001  -0.000004  -0.000332  -0.000013
    27  H    0.000007  -0.000005  -0.000001   0.000003   0.000060  -0.000030
    28  O    0.000478  -0.000022   0.000005  -0.000047  -0.000159  -0.000101
    29  O   -0.000567   0.000018   0.000039  -0.000074  -0.002310  -0.000102
    30  H   -0.000077   0.000004  -0.000006  -0.000003   0.000252   0.000007
              7          8          9         10         11         12
     1  C   -0.001851   0.002244  -0.000952   0.001289  -0.002280   0.002673
     2  H    0.002254  -0.000218   0.000015  -0.000877   0.000157  -0.000105
     3  H    0.000106  -0.000044   0.000042   0.000093   0.000118  -0.000155
     4  H   -0.002226   0.000423  -0.000223  -0.000019  -0.000424   0.000408
     5  C   -0.011458   0.006486  -0.006346   0.011691  -0.018154   0.022007
     6  H   -0.001245   0.000601  -0.000453  -0.001991  -0.001585   0.001408
[...]
 94,-0.00174175,-0.14730134,-0.00114749,-0.00290145,-0.01966084,-0.0013
 8190,0.00167119,-0.02257760,-0.00497060,-0.00127832,0.00150386,0.00092
 579,-0.00142074,0.00070650,0.00077007,0.00122357,-0.00037390,-0.001204
 13,0.00000409,0.00011747,-0.00000479,0.00002805,-0.00001960,0.00000279
 ,-0.00000715,0.00000344,0.00000483,-0.02903059,0.43361357,0.00000041,-
 0.00000887,0.00001921,0.00000283,-0.00000366,-0.00000846,-0.00000128,0
 .00000159,-0.00000617,-0.00002001,-0.00000190,0.00000209,-0.00003071,0
 .00006709,-0.00003772,0.00000021,0.00000283,0.00000302,0.00010437,-0.0
 0024959,0.00011718,-0.00007611,-0.00001629,-0.00006448,0.00001393,0.00
 002180,-0.00000767,0.00022651,0.00037718,-0.00016386,-0.00024170,-0.00
 009644,0.00018785,0.00018475,-0.00018539,0.00019739,-0.00750792,-0.014
 46201,-0.00367921,-0.00039920,0.00077838,-0.00022760,0.00197295,-0.007
 73710,-0.07309746,0.00552295,0.02987744,0.00284638,-0.00039686,-0.0207
 4793,-0.00279854,-0.00061702,-0.00094914,0.00052962,-0.00096920,0.0008
 2167,0.00050758,0.00234987,-0.00223002,-0.00171141,0.00007262,0.000009
 45,0.00011458,-0.00003559,0.00000828,-0.00001070,0.00001175,-0.0000309
 3,-0.00004355,-0.00729781,-0.01267525,0.55763051,-0.00002736,0.0000147
 3,0.00003726,0.00001083,-0.00000027,-0.00000375,0.00000409,0.00000095,
 -0.00000659,-0.00003908,-0.00001014,0.00000359,0.00002023,0.00001766,-
 0.00008857,0.00000429,-0.00000033,0.00001208,0.00005101,-0.00005642,0.
 00012626,-0.00004404,-0.00001302,-0.00002364,-0.00000061,0.00000454,-0
 .00000919,0.00028037,0.00027442,-0.00027445,-0.00005623,-0.00007283,0.
 00002777,0.00021795,0.00007165,0.00003144,0.00016416,-0.00264759,0.000
 15683,-0.00006978,0.00002979,-0.00007825,-0.00519708,0.00038579,-0.002
 22821,0.00004719,-0.00032866,0.00042262,0.00056993,0.00082964,0.000430
 15,-0.00000580,-0.00001234,0.00005021,0.00067549,-0.00009254,-0.000128
 08,0.00021070,-0.00008852,0.00016027,0.00003354,-0.00002746,0.00004683
 ,-0.00003991,0.00000506,-0.00000033,0.00002282,-0.00002903,-0.00003404
 ,-0.24059974,-0.02884964,-0.10507973,0.26140452,-0.00003118,0.00001653
 ,0.00003529,0.00000798,0.00000412,-0.00000130,0.00000219,-0.00000225,-
 0.00000710,-0.00003083,-0.00001174,0.00000056,-0.00002532,0.00000603,-
 0.00006864,0.00000032,0.00000354,0.00000513,-0.00015155,0.00013424,0.0
 0021482,0.00006386,0.00004539,0.00002043,0.00002414,-0.00000857,-0.000
 00828,0.00023540,0.00029267,-0.00025462,-0.00009127,-0.00007777,0.0000
 4992,-0.00049677,0.00014890,0.00019197,0.00010465,-0.00546457,-0.00088
 858,-0.00045021,0.00012579,-0.00024551,-0.02833685,-0.00706027,-0.0159
 7536,0.00035442,0.00149714,0.00055369,-0.00102892,0.00169154,0.0002443
 0,0.00013437,-0.00008491,-0.00001665,0.00089959,-0.00019698,-0.0001057
 8,0.00004853,0.00034065,0.00046027,0.00001175,-0.00008251,0.00004363,-
 0.00003286,0.00001621,-0.00000490,0.00000827,-0.00001674,-0.00001570,-
 0.02875361,-0.04909303,-0.01562884,0.03276715,0.05482119,-0.00001696,0
 .00001110,0.00001612,0.00000483,-0.00000044,-0.00000025,0.00000218,0.0
 0000075,-0.00000293,-0.00001708,-0.00000547,0.00000184,-0.00000485,-0.
 00000229,-0.00003816,0.00000053,-0.00000055,0.00000385,-0.00013282,0.0
 0010176,0.00008915,0.00005453,0.00002246,0.00002359,0.00001461,0.00000
 344,0.00000445,0.00027896,-0.00013516,-0.00014934,-0.00003881,-0.00001
 948,0.00001657,-0.00021917,0.00022825,0.00004495,-0.00047391,-0.001892
 61,0.00090903,0.00021234,0.00035789,0.00010917,-0.00207527,0.00038300,
 -0.00196729,0.00044143,-0.00021484,0.00040027,-0.00051835,0.00028768,-
 0.00017391,-0.00010900,-0.00004504,-0.00005341,0.00047747,-0.00040328,
 0.00012511,0.00028989,0.00014693,0.00009069,-0.00000390,-0.00002648,0.
 00000175,-0.00001395,0.00000382,0.00000297,0.00000477,-0.00000861,-0.0
 0000553,-0.10489210,-0.01566075,-0.10453543,0.11649285,0.01804962,0.10
 905527,-0.00000418,-0.00000193,0.00000058,-0.00000130,0.00000432,0.000
 00147,-0.00000225,-0.00000260,-0.00000271,0.00000274,-0.00000079,-0.00
 000102,-0.00001183,-0.00000207,-0.00000747,0.00000510,0.00000898,-0.00
 001000,0.00003248,-0.00002253,0.00001624,-0.00000848,-0.00000551,-0.00
 000601,-0.00003000,-0.00001460,-0.00003074,-0.00029243,-0.00006221,-0.
 00000675,0.00006139,0.00012007,-0.00007241,-0.00000081,-0.00012487,0.0
 0003898,0.00043757,0.00035704,0.00113591,0.00008741,-0.00018961,-0.000
 14787,-0.00139014,-0.00323032,0.00541480,0.00043546,-0.00130714,-0.000
 20435,0.00006837,0.00060835,-0.00070180,0.00029611,0.00014729,0.000003
 73,0.00000495,0.00003613,-0.00015596,-0.00013267,-0.00007079,0.0000846
 2,0.00002918,-0.00003295,0.00003582,0.00000071,0.00000917,-0.00000826,
 -0.00000734,-0.00000023,0.00000619,-0.04767963,-0.00438474,0.00982005,
 0.00215255,0.01324069,-0.02548487,0.04676511,-0.00000692,0.00000261,0.
 00000592,0.00000154,0.00000105,0.00000264,-0.00000179,0.00000027,-0.00
 000262,-0.00000368,-0.00000275,-0.00000096,-0.00000028,-0.00001378,-0.
 00001237,0.00000584,0.00000358,-0.00000727,-0.00001635,0.00003748,0.00
 001819,-0.00000080,-0.00000245,0.00001063,-0.00002890,-0.00000665,-0.0
 0001746,-0.00020565,-0.00004513,-0.00002251,0.00013070,0.00000522,-0.0
 0015466,0.00000185,-0.00002745,-0.00002424,0.00179560,0.00198530,0.000
 86720,-0.00035065,-0.00033955,-0.00042167,-0.00219777,-0.01696756,0.02
 860180,-0.00132560,-0.00634130,-0.00115446,-0.00066779,0.00174103,0.00
 146472,0.00047182,-0.00005284,-0.00102636,0.00010010,-0.00009909,-0.00
 008921,-0.00013662,0.00043603,-0.00034058,0.00000515,-0.00001916,0.000
 00237,-0.00000111,0.00000305,-0.00000069,0.00000017,0.00000066,-0.0000
 0121,-0.00435999,-0.09613341,0.10233278,0.00082451,0.00149726,-0.00431
 559,0.00637285,0.10785645,0.00001379,-0.00000618,-0.00001572,-0.000002
 81,-0.00000376,-0.00000038,0.00000112,0.00000182,0.00000792,0.00001357
 ,0.00000563,-0.00000082,-0.00000097,0.00000907,0.00002202,-0.00000318,
 -0.00001331,0.00000823,-0.00004805,-0.00000094,-0.00004396,0.00001421,
 0.00000840,0.00001189,0.00001970,0.00001503,0.00002577,0.00012564,0.00
 000265,0.00003812,-0.00003404,-0.00005450,0.00002136,0.00001119,0.0001
 0372,-0.00012710,-0.00005418,-0.00039321,0.00107460,0.00036886,0.00016
 571,0.00014746,-0.00000049,-0.00145401,0.00303385,-0.00005846,-0.00114
 055,0.00139651,-0.00019306,-0.00025908,0.00099646,-0.00034755,0.000380
 43,0.00028943,0.00005340,0.00001467,-0.00007792,-0.00009437,0.00004287
 ,0.00022364,-0.00005215,0.00005889,-0.00006631,0.00001475,-0.00001277,
 0.00000819,0.00000094,0.00001494,0.00000660,0.01003573,0.10241599,-0.2
 5275530,0.00126782,0.00584461,-0.01292085,-0.01095879,-0.11288020,0.27
 372575,0.00002227,-0.00000825,-0.00001877,-0.00000501,-0.00000602,-0.0
 0000014,-0.00000351,0.00000205,0.00000195,0.00001764,0.00000583,-0.000
 00019,0.00000296,0.00001587,0.00004969,-0.00000032,0.00000185,-0.00000
 652,0.00001208,-0.00004394,-0.00011996,-0.00001271,0.00000111,0.000002
 11,-0.00000356,0.00000175,0.00000395,0.00009635,-0.00023685,0.00000787
 ,0.00000018,0.00004861,-0.00001006,-0.00022539,-0.00018894,-0.00001331
 ,0.00045669,-0.00014085,-0.00048502,0.00001694,-0.00005640,0.00001114,
 0.00450315,-0.00317706,-0.00450511,0.00029083,0.00072120,-0.00020331,0
 .00023695,-0.00072862,-0.00048197,-0.00006979,-0.00009752,-0.00001336,
 0.00042964,-0.00025029,0.00006568,0.00046377,-0.00019177,0.00007947,-0
 .00000038,0.00004221,-0.00000956,0.00001803,-0.00000326,0.00000268,-0.
 00001305,-0.00000039,0.00001396,-0.18474491,0.08116488,0.10244453,-0.0
 1971687,0.01156225,0.01575288,-0.00082416,-0.00041163,-0.00012407,0.19
 902337,0.00001206,-0.00000995,-0.00001539,-0.00000469,0.00000328,0.000
 00153,0.00000092,-0.00000100,0.00000640,0.00001805,0.00000381,-0.00000
 206,-0.00004435,-0.00000319,0.00002672,-0.00000715,-0.00001295,0.00000
 239,-0.00032425,0.00014887,0.00005580,0.00012653,0.00009202,0.00006187
 ,0.00005261,0.00000684,0.00004669,0.00008103,-0.00045221,-0.00012472,-
 0.00005346,-0.00017702,0.00008532,-0.00055457,0.00040694,0.00003716,0.
 00161128,0.00127461,0.00031095,-0.00008735,-0.00005404,0.00006106,0.02
 250441,-0.01286407,-0.01753184,0.00027702,0.00127682,0.00062635,-0.002
 57984,-0.00659927,0.00005291,-0.00016002,0.00011980,-0.00015604,-0.000
 16248,0.00018283,0.00030635,0.00156683,-0.00095266,-0.00128090,-0.0000
 6741,0.00000339,-0.00007176,0.00002287,-0.00000162,0.00000711,-0.00000
 944,0.00003532,0.00002294,0.08023840,-0.09275792,-0.05929076,-0.003021
 61,0.00137327,0.00311727,-0.01150293,0.00646454,0.00720998,-0.08799453
 ,0.10252321,-0.00000016,0.00000260,-0.00000871,-0.00000261,0.00000809,
 0.00000344,-0.00000115,-0.00000422,-0.00000071,0.00000945,-0.00000113,
 -0.00000106,-0.00002375,-0.00001436,0.00002830,-0.00000203,0.00000751,
 -0.00000811,-0.00017195,0.00021080,-0.00000422,0.00009381,0.00007118,0
 .00005044,0.00000406,-0.00002890,-0.00001291,0.00011693,-0.00044827,0.
 00010451,-0.00001196,0.00011343,-0.00005084,-0.00046320,0.00032260,0.0
 0027759,0.00081916,0.00007031,-0.00026644,-0.00002351,-0.00007920,0.00
 003929,0.00093296,-0.00055664,-0.00262054,-0.00041202,-0.00015676,0.00
 056113,-0.00065933,-0.00112483,0.00062358,-0.00022810,0.00025788,0.000
 47375,0.00027144,0.00005989,-0.00000023,0.00044178,-0.00016015,0.00026
 255,-0.00000954,-0.00006774,-0.00000095,0.00001018,0.00001131,-0.00000
 491,-0.00001325,0.00001114,0.00002926,0.10174453,-0.05967536,-0.122923
 23,-0.01126641,0.00755113,0.00895798,0.02127449,-0.01282389,-0.0150913
 0,-0.11245520,0.06637038,0.12958751,-0.00005525,-0.00154144,0.00007416
 ,0.00022362,0.00000195,0.00036738,0.00033990,-0.00011832,0.00076259,0.
 00014499,0.00017281,-0.00014618,-0.00456169,0.01217543,-0.01870822,-0.
 00066067,0.00434814,0.00099684,0.00150763,-0.00068414,-0.00175061,0.00
 018607,-0.00022740,0.00049234,-0.00044518,-0.00001202,0.00083926,-0.00
 057587,-0.00000813,0.00025625,0.00026864,-0.00020443,0.00014014,-0.000
 17443,0.00017587,-0.00013761,0.00013567,0.00008366,-0.00005637,-0.0000
 7725,-0.00001157,0.00006226,0.00003814,-0.00001852,0.00006594,0.000004
 11,-0.00000756,0.00000779,-0.00002204,-0.00002126,-0.00004427,0.000003
 81,-0.00000547,0.00001897,-0.00004051,0.00000273,-0.00000102,0.0000115
 2,0.00000440,-0.00000075,-0.11548327,0.01137378,-0.03542692,0.00699519
 ,-0.01540109,0.02229412,-0.01120161,0.01613077,-0.02658078,-0.00002895
 ,0.00001532,-0.00002618,-0.00004223,-0.00001647,-0.00001744,0.00000321
 ,-0.00000245,0.00002009,0.00000621,0.00003460,0.00001545,0.28762600,0.
 00042883,0.00184495,-0.00014064,0.00024234,0.00029001,0.00052637,-0.00
 001735,-0.00067560,0.00032406,-0.00046822,-0.00038180,0.00033707,0.013
 75710,-0.02008396,0.03578484,0.00328199,-0.00767914,-0.00181794,-0.001
 87407,0.00147061,0.00094910,-0.00020252,0.00027616,-0.00035074,0.00010
 255,0.00058860,-0.00073570,-0.00006523,-0.00063996,-0.00004964,-0.0000
 4601,0.00001706,-0.00009689,0.00002891,0.00032833,0.00010303,0.0000027
 0,0.00032282,0.00017618,-0.00000104,-0.00003690,-0.00000027,-0.0000159
 6,-0.00007163,-0.00007929,0.00000155,0.00000671,-0.00000536,0.00003709
 ,0.00004182,0.00004105,-0.00000834,-0.00000250,-0.00001629,0.00004879,
 -0.00000733,0.00000135,-0.00002044,0.00001549,0.00000396,0.04127923,-0
 .09175685,0.04745763,-0.00063274,-0.00606522,0.01326995,-0.00330514,0.
 00885011,-0.00242514,0.00005945,-0.00004673,-0.00000521,0.00003124,0.0
 0003706,0.00001982,0.00000567,0.00000432,-0.00002848,-0.00002509,-0.00
 001552,0.00002120,0.02693545,0.20184077,-0.00105004,-0.00137345,-0.000
 18538,0.00038877,-0.00022731,0.00070798,0.00072746,0.00027908,0.001325
 61,0.00019819,0.00004060,0.00005933,-0.00268331,0.01085927,-0.00228320
 ,-0.00018038,0.00016143,0.00155041,0.00020348,0.00026234,0.00003418,-0
 .00031732,0.00011386,0.00024588,-0.00046137,0.00003814,0.00046823,-0.0
 0037665,-0.00018733,0.00007641,0.00021888,-0.00015637,0.00011448,-0.00
 003659,0.00033010,-0.00026053,0.00017727,-0.00003108,-0.00003949,-0.00
 010841,0.00003531,0.00009810,-0.00000223,0.00001299,0.00005984,0.00002
 063,-0.00001830,0.00002775,-0.00001563,-0.00001057,-0.00003637,-0.0000
 0463,-0.00000617,0.00002160,-0.00002623,0.00000274,0.00000252,0.000005
 11,0.00000301,-0.00000134,-0.07283962,0.04711896,-0.12405177,-0.002428
 71,0.01223995,-0.02164225,-0.01050110,0.01731114,-0.03044607,0.0000156
 4,0.00000494,-0.00005569,-0.00002514,-0.00001609,-0.00000151,-0.000018
 60,-0.00000630,0.00003727,0.00000029,0.00003868,0.00000546,0.01733000,
 -0.14961582,0.23341167,-0.00006486,-0.00008388,0.00000154,0.00013172,-
 0.00010405,0.00003461,-0.00016548,0.00000670,0.00009431,0.00011941,0.0
 0020016,-0.00014377,0.00159690,0.00084105,-0.00137109,-0.00022203,0.00
 018006,0.00006298,-0.00063215,-0.00027413,0.00040027,0.00029755,0.0000
 9440,-0.00032189,-0.00030036,0.00076794,-0.00066517,-0.00008516,-0.000
 40648,-0.00080060,-0.00014588,0.00038356,-0.00003111,0.00008215,0.0005
 9007,0.00048890,0.00013339,0.00013311,0.00008711,-0.00000415,-0.000063
 57,-0.00002471,0.00004985,-0.00008233,0.00001828,-0.00000535,0.0000187
 1,-0.00001991,0.00000178,0.00000038,-0.00000938,0.00000602,-0.00000480
 ,-0.00000167,-0.00001939,-0.00000413,-0.00000567,-0.00000039,0.0000228
 7,0.00000577,0.00650745,0.00214004,0.00918635,0.00391409,-0.00038977,-
 0.00174999,0.00287598,0.00084150,-0.00056839,0.00000102,-0.00003004,-0
 .00003619,-0.00005282,0.00001861,-0.00001346,0.00004563,0.00000629,-0.
 00003251,0.00000637,0.00001998,0.00008192,-0.16160856,-0.03508706,0.05
 824006,0.23259991,0.00005825,-0.00005118,0.00016198,0.00013623,-0.0000
 8545,-0.00003404,-0.00018675,-0.00013555,0.00003655,0.00014057,0.00020
 841,-0.00014556,-0.00054510,0.00007399,0.00042009,0.00028994,0.0000780
 6,-0.00026742,0.00128894,-0.00190469,-0.00135888,0.00030652,-0.0005234
 6,0.00058809,0.00103122,-0.00198722,0.00114147,0.00020821,-0.00033381,
 -0.00025649,0.00001773,0.00001787,0.00005461,-0.00019030,-0.00042849,-
 0.00002116,-0.00011078,0.00007577,0.00012142,0.00006140,-0.00008872,-0
 .00007734,-0.00001828,-0.00004273,-0.00010225,-0.00000650,0.00002606,-
 0.00002291,0.00004306,0.00003810,0.00005473,0.00000199,-0.00000287,-0.
 00002374,0.00003952,-0.00000853,-0.00000609,-0.00001851,0.00002178,0.0
 0000570,-0.02921987,-0.01019235,0.01389033,0.00290639,-0.00313097,0.00
 218315,0.00206850,0.00157530,-0.00176329,0.00004389,-0.00006752,0.0000
 3971,0.00000844,0.00006383,0.00000141,0.00005469,0.00001111,-0.0000698
 5,-0.00002170,-0.00003165,0.00006073,-0.05516629,-0.07873417,0.0600133
 2,-0.10421030,0.55257278,-0.00021590,0.00029418,-0.00056609,0.00002087
 ,0.00011474,0.00021580,0.00003256,-0.00003332,0.00021306,-0.00010961,-
 0.00012749,-0.00002932,-0.00142224,-0.00138310,0.00246752,0.00024729,-
 0.00062861,0.00009026,-0.00011705,0.00128824,-0.00010861,-0.00031192,0
 .00017735,0.00022031,0.00011768,-0.00046309,0.00014402,-0.00012842,-0.
 00051628,-0.00023019,-0.00006036,0.00021509,0.00001045,0.00010775,0.00
 058025,0.00015306,0.00002045,0.00013641,-0.00012576,-0.00009006,0.0000
 2386,0.00009428,0.00001605,-0.00004570,0.00011844,0.00000625,-0.000005
 84,0.00001790,-0.00003657,-0.00001576,-0.00006676,-0.00000133,-0.00001
 050,0.00002845,-0.00003875,0.00000152,0.00000630,0.00000779,0.00000755
 ,0.00000026,0.03695129,0.01302812,-0.02491306,-0.00376422,0.00630654,-
 0.00477023,0.00224279,-0.00147915,0.00462251,0.00000400,0.00002208,-0.
 00010608,-0.00004791,-0.00002845,-0.00000167,-0.00001596,-0.00000799,0
 .00003982,0.00000152,0.00004290,0.00003231,0.04338752,0.03449791,-0.05
 409733,-0.08806604,-0.05856955,0.08512196,0.00011861,-0.00003941,0.000
 02468,-0.00000232,-0.00004536,-0.00001270,-0.00003833,0.00001432,0.000
 01842,0.00004045,0.00005089,-0.00001006,-0.00040937,-0.00041848,0.0006
 3484,0.00017147,-0.00010471,-0.00012556,-0.00000243,0.00008998,0.00045
 547,-0.00007340,0.00016684,-0.00028142,0.00015344,-0.00015164,-0.00052
 993,0.00011652,0.00033569,0.00009293,-0.00008371,-0.00002740,-0.000047
 08,0.00012521,-0.00000616,0.00004622,0.00004201,-0.00010378,-0.0000468
 0,0.00001702,0.00003890,-0.00000009,0.00001495,0.00005933,0.00002071,-
 0.00000450,-0.00001920,0.00000699,-0.00002190,-0.00002697,-0.00000987,
 0.00000057,0.00000790,0.00000501,-0.00000686,0.00000681,0.00000349,0.0
 0000848,-0.00002200,-0.00000451,-0.00551896,-0.00114093,-0.00083833,0.
 00051452,-0.00058655,0.00070332,0.00052579,0.00070189,-0.00030914,-0.0
 0003922,0.00003737,0.00000778,0.00002187,-0.00003835,0.00000464,-0.000
 04273,0.00000159,0.00004386,0.00001625,0.00000748,-0.00007197,-0.00251
 724,-0.04447370,0.01355018,-0.08506265,0.18098890,0.01126252,0.0919364
 7,-0.00009658,0.00000829,0.00006757,-0.00000776,0.00008803,-0.00000182
 ,0.00001569,-0.00007464,-0.00003602,-0.00001937,-0.00003544,-0.0000106
 0,-0.00023524,0.00005220,-0.00030010,-0.00008221,0.00018810,0.00001760
 ,0.00023870,0.00005539,-0.00071044,-0.00004923,-0.00001130,0.00020980,
 0.00019113,-0.00035875,0.00042009,-0.00013959,-0.00002779,-0.00000843,
 0.00001068,0.00002112,0.00001539,0.00006864,0.00007348,0.00002446,0.00
 003180,-0.00000085,-0.00004325,-0.00002392,0.00001083,0.00001804,0.000
 01867,0.00000576,0.00003587,0.00000055,-0.00000795,0.00000324,-0.00001
 082,-0.00001385,-0.00001742,0.00000204,0.00000199,0.00000749,-0.000018
 38,0.00000296,0.00000044,0.00000721,-0.00000721,-0.00000071,-0.0008027
 9,-0.00192043,0.00122680,0.00004282,0.00022166,-0.00034359,-0.00027567
 ,-0.00011555,-0.00016430,-0.00002077,0.00001096,-0.00001889,-0.0000151
 5,-0.00001603,-0.00000459,-0.00000945,0.00000115,0.00002240,0.00001549
 ,0.00001752,-0.00000874,0.00199164,-0.00973754,0.00278292,0.13447511,-
 0.45701373,0.00657809,-0.13530324,0.46858161,0.00008956,-0.00012378,0.
 00002945,-0.00002283,-0.00003751,-0.00004603,0.00002979,0.00002739,-0.
 00002400,-0.00003544,-0.00001419,0.00002228,-0.00003858,-0.00000856,-0
 .00054235,-0.00011133,0.00005975,0.00009783,0.00012315,-0.00040272,-0.
 00017290,0.00008852,-0.00014008,0.00011030,-0.00027533,0.00029174,0.00
 027395,-0.00009188,0.00021936,0.00006691,0.00004219,-0.00001617,0.0000
 2702,0.00000032,-0.00003448,-0.00002053,-0.00004311,-0.00002077,0.0000
 5774,0.00002061,-0.00000436,-0.00003028,0.00000377,0.00002423,-0.00004
 239,-0.00000234,0.00000423,-0.00000809,0.00000520,-0.00000554,0.000031
 78,0.00000147,0.00000690,-0.00001602,0.00001508,0.00000138,-0.00000201
 ,0.00000057,-0.00001001,-0.00000404,0.00441735,0.00336356,-0.00113366,
 -0.00017629,0.00065521,-0.00086803,-0.00037415,0.00013724,-0.00046624,
 -0.00003520,0.00000215,0.00007718,0.00002829,0.00000042,-0.00000248,0.
 00000068,0.00000401,-0.00001522,0.00000881,-0.00001729,-0.00004294,-0.
 00423475,0.02185391,-0.00514581,0.02515947,-0.01605472,-0.00858160,-0.
 02459359,-0.00976130,0.01637014\\0.00000057,-0.00000039,0.00000013,0.0
 0000060,-0.00000088,0.00000159,0.00000098,-0.00000208,-0.00000152,-0.0
 0000038,0.00000039,-0.00000131,0.00000086,0.00000149,0.00000227,-0.000
 00104,0.00000185,0.00000068,-0.00000053,-0.00000244,0.00000031,0.00000
 063,-0.00000064,0.00000148,0.00000163,-0.00000132,-0.00000098,0.000000
 06,0.00000084,-0.00000018,-0.00000132,0.00000300,0.00000037,-0.0000010
 9,-0.00000118,-0.00000295,0.00000050,-0.00000159,0.00000763,0.00000020
 ,-0.00000128,0.00000130,0.00000152,0.00000055,0.00000003,-0.00000163,0
 .00000350,0.00000352,0.00000035,-0.00000179,0.00000608,0.00000162,-0.0
 0000360,0.00000432,0.00000012,-0.00000012,0.00000605,0.00000051,-0.000
 00087,0.00000656,-0.00000303,-0.00000002,-0.00000693,-0.00000048,0.000
 00326,-0.00000602,-0.00000208,0.00000160,-0.00000331,-0.00000155,0.000
 00132,0.00000083,-0.00000097,0.00000076,0.00000072,0.00000181,0.000000
 15,-0.00000044,-0.00000058,0.00000172,-0.00000079,0.00000083,0.0000017
 9,-0.00000562,0.00000175,-0.00000272,-0.00000618,0.00000014,-0.0000012
 8,-0.00000762\\\@


 LAW OF COMPENSATION:
      NO CALCULATION IS EVER A COMPLETE FAILURE; IT 
      CAN ALWAYS SERVE AS A BAD EXAMPLE.

                                           -- ANON
 Job cpu time:  0 days  4 hours 45 minutes 40.6 seconds.
 File lengths (MBytes):  RWF=    713 Int=      0 D2E=      0 Chk=     20 Scr=      1
 Normal termination of Gaussian 09 at Fri Feb  7 01:52:24 2014.
