 Entering Gaussian System, Link 0=g09
 Initial command:
 /usr/caen/gaussian-09revc/g09/l1.exe /scratch/avioli_flux/hetanjin/scratch/Gau-26248.inp -scrdir=/scratch/avioli_flux/hetanjin/scratch/
 Entering Link 1 = /usr/caen/gaussian-09revc/g09/l1.exe PID=     26249.
  
 Copyright (c) 1988,1990,1992,1993,1995,1998,2003,2009,2011,
            Gaussian, Inc.  All Rights Reserved.
  
 This is part of the Gaussian(R) 09 program.  It is based on
 the Gaussian(R) 03 system (copyright 2003, Gaussian, Inc.),
 the Gaussian(R) 98 system (copyright 1998, Gaussian, Inc.),
 the Gaussian(R) 94 system (copyright 1995, Gaussian, Inc.),
 the Gaussian 92(TM) system (copyright 1992, Gaussian, Inc.),
 the Gaussian 90(TM) system (copyright 1990, Gaussian, Inc.),
 the Gaussian 88(TM) system (copyright 1988, Gaussian, Inc.),
 the Gaussian 86(TM) system (copyright 1986, Carnegie Mellon
 University), and the Gaussian 82(TM) system (copyright 1983,
 Carnegie Mellon University). Gaussian is a federally registered
 trademark of Gaussian, Inc.
  
 This software contains proprietary and confidential information,
 including trade secrets, belonging to Gaussian, Inc.
  
 This software is provided under written license and may be
 used, copied, transmitted, or stored only in accord with that
 written license.
  
 The following legend is applicable only to US Government
 contracts under FAR:
  
                    RESTRICTED RIGHTS LEGEND
  
 Use, reproduction and disclosure by the US Government is
 subject to restrictions as set forth in subparagraphs (a)
 and (c) of the Commercial Computer Software - Restricted
 Rights clause in FAR 52.227-19.
  
 Gaussian, Inc.
 340 Quinnipiac St., Bldg. 40, Wallingford CT 06492
  
  
 ---------------------------------------------------------------
 Warning -- This program may not be used in any manner that
 competes with the business of Gaussian, Inc. or will provide
 assistance to any competitor of Gaussian, Inc.  The licensee
 of this program is prohibited from giving any competitor of
 Gaussian, Inc. access to this program.  By using this program,
 the user acknowledges that Gaussian, Inc. is engaged in the
 business of creating and licensing software in the field of
 computational chemistry and represents and warrants to the
 licensee that it is not a competitor of Gaussian, Inc. and that
 it will not use this program in any manner prohibited above.
 ---------------------------------------------------------------
  

 Cite this work as:
 Gaussian 09, Revision C.01,
 M. J. Frisch, G. W. Trucks, H. B. Schlegel, G. E. Scuseria, 
 M. A. Robb, J. R. Cheeseman, G. Scalmani, V. Barone, B. Mennucci, 
 G. A. Petersson, H. Nakatsuji, M. Caricato, X. Li, H. P. Hratchian, 
 A. F. Izmaylov, J. Bloino, G. Zheng, J. L. Sonnenberg, M. Hada, 
 M. Ehara, K. Toyota, R. Fukuda, J. Hasegawa, M. Ishida, T. Nakajima, 
 Y. Honda, O. Kitao, H. Nakai, T. Vreven, J. A. Montgomery, Jr., 
 J. E. Peralta, F. Ogliaro, M. Bearpark, J. J. Heyd, E. Brothers, 
 K. N. Kudin, V. N. Staroverov, T. Keith, R. Kobayashi, J. Normand, 
 K. Raghavachari, A. Rendell, J. C. Burant, S. S. Iyengar, J. Tomasi, 
 M. Cossi, N. Rega, J. M. Millam, M. Klene, J. E. Knox, J. B. Cross, 
 V. Bakken, C. Adamo, J. Jaramillo, R. Gomperts, R. E. Stratmann, 
 O. Yazyev, A. J. Austin, R. Cammi, C. Pomelli, J. W. Ochterski, 
 R. L. Martin, K. Morokuma, V. G. Zakrzewski, G. A. Voth, 
 P. Salvador, J. J. Dannenberg, S. Dapprich, A. D. Daniels, 
 O. Farkas, J. B. Foresman, J. V. Ortiz, J. Cioslowski, 
 and D. J. Fox, Gaussian, Inc., Wallingford CT, 2010.
 
 ******************************************
 Gaussian 09:  EM64L-G09RevC.01 23-Sep-2011
                 6-Feb-2014 
 ******************************************
 %mem=30GB
 %nprocshared=8
 Will use up to    8 processors via shared memory.
 %chk=C9H18OOH_1_26_g.chk
 --------------------------------------------------
 #p stable=(opt,xqc) ub3lyp/6-311++g(d,p) guess=mix
 --------------------------------------------------
 1/38=1/1;
 2/12=2,17=6,18=5,40=1/2;
 3/5=4,6=6,7=1111,11=2,16=1,25=1,30=1,74=-5,116=2/1,2,3;
 4/13=-1/1;
 5/5=2,38=5/2;
 6/7=2,8=2,9=2,10=2,28=1/1;
 8/6=1,10=90,11=11/1;
 9/8=-3,42=1,46=1/14;
 5/5=2,8=3,13=1,17=40,38=5/2,8(-2);
 6/7=2,8=2,9=2,10=2,28=1/1;
 99/5=1,9=1/99;
 Leave Link    1 at Thu Feb  6 23:41:53 2014, MaxMem= 4026531840 cpu:       0.7
 (Enter /usr/caen/gaussian-09revc/g09/l101.exe)
 -----------------------------------------------------------------
 C9H18OOH_1_26_g using B3LYP/6-311++g(d,p) to do opt and cal. freq
 -----------------------------------------------------------------
 Charge =  0 Multiplicity = 2
 Symbolic Z-Matrix:
 C                    -3.17301  -1.66954  -0.19397 
 H                    -2.87617  -2.71161  -0.33638 
 H                    -3.39945  -1.24766  -1.17651 
 H                    -4.09526  -1.66148   0.39469 
 C                    -2.05413  -0.87986   0.50238 
 H                    -1.87109  -1.34161   1.4836 
 C                    -0.73961  -0.93993  -0.29882 
 H                    -0.55589  -1.99184  -0.54858 
 H                    -0.8744   -0.42299  -1.25598 
 C                     0.49652  -0.37953   0.41648 
 H                     0.59872  -0.86202   1.39833 
 H                     0.35867   0.68881   0.60351 
 C                     1.78599  -0.59801  -0.38576 
 H                     1.69941  -0.08941  -1.35556 
 H                     1.88007  -1.66787  -0.61185 
 C                     3.08034  -0.13145   0.30742 
 C                     4.31064  -0.59099  -0.48791 
 H                     4.31678  -0.14434  -1.48839 
 H                     5.23878  -0.29712   0.0113 
 H                     4.3251   -1.67831  -0.60927 
 C                    -2.50965   0.54486   0.83292 
 H                    -3.43268   0.53048   1.41751 
 H                    -1.74913   1.12829   1.35099 
 C                     3.11823   1.38842   0.52354 
 H                     4.04969   1.68942   1.01217 
 H                     3.05973   1.91767  -0.43412 
 H                     2.29233   1.73843   1.1474 
 O                    -2.87034   1.29134  -0.37199 
 O                    -1.8763    2.03076  -0.82758 
 H                    -2.2286    2.82553  -1.2348 
 
 NAtoms=     30 NQM=        0 NQMF=       0 NMMI=     30 NMMIF=      0
                NMic=       0 NMicF=      0.
                    Isotopes and Nuclear Properties:
 (Nuclear quadrupole moments (NQMom) in fm**2, nuclear magnetic moments (NMagM)
  in nuclear magnetons)

  Atom         1           2           3           4           5           6           7           8           9          10
 IAtWgt=          12           1           1           1          12           1          12           1           1          12
 AtmWgt=  12.0000000   1.0078250   1.0078250   1.0078250  12.0000000   1.0078250  12.0000000   1.0078250   1.0078250  12.0000000
 NucSpn=           0           1           1           1           0           1           0           1           1           0
 AtZEff=   0.0000000   0.0000000   0.0000000   0.0000000   0.0000000   0.0000000   0.0000000   0.0000000   0.0000000   0.0000000
 NQMom=    0.0000000   0.0000000   0.0000000   0.0000000   0.0000000   0.0000000   0.0000000   0.0000000   0.0000000   0.0000000
 NMagM=    0.0000000   2.7928460   2.7928460   2.7928460   0.0000000   2.7928460   0.0000000   2.7928460   2.7928460   0.0000000

  Atom        11          12          13          14          15          16          17          18          19          20
 IAtWgt=           1           1          12           1           1          12          12           1           1           1
 AtmWgt=   1.0078250   1.0078250  12.0000000   1.0078250   1.0078250  12.0000000  12.0000000   1.0078250   1.0078250   1.0078250
 NucSpn=           1           1           0           1           1           0           0           1           1           1
 AtZEff=   0.0000000   0.0000000   0.0000000   0.0000000   0.0000000   0.0000000   0.0000000   0.0000000   0.0000000   0.0000000
 NQMom=    0.0000000   0.0000000   0.0000000   0.0000000   0.0000000   0.0000000   0.0000000   0.0000000   0.0000000   0.0000000
 NMagM=    2.7928460   2.7928460   0.0000000   2.7928460   2.7928460   0.0000000   0.0000000   2.7928460   2.7928460   2.7928460

  Atom        21          22          23          24          25          26          27          28          29          30
 IAtWgt=          12           1           1          12           1           1           1          16          16           1
 AtmWgt=  12.0000000   1.0078250   1.0078250  12.0000000   1.0078250   1.0078250   1.0078250  15.9949146  15.9949146   1.0078250
 NucSpn=           0           1           1           0           1           1           1           0           0           1
 AtZEff=   0.0000000   0.0000000   0.0000000   0.0000000   0.0000000   0.0000000   0.0000000   0.0000000   0.0000000   0.0000000
 NQMom=    0.0000000   0.0000000   0.0000000   0.0000000   0.0000000   0.0000000   0.0000000   0.0000000   0.0000000   0.0000000
 NMagM=    0.0000000   2.7928460   2.7928460   0.0000000   2.7928460   2.7928460   2.7928460   0.0000000   0.0000000   2.7928460
 Leave Link  101 at Thu Feb  6 23:41:53 2014, MaxMem= 4026531840 cpu:       0.4
 (Enter /usr/caen/gaussian-09revc/g09/l202.exe)
                          Input orientation:                          
 ---------------------------------------------------------------------
 Center     Atomic      Atomic             Coordinates (Angstroms)
 Number     Number       Type             X           Y           Z
 ---------------------------------------------------------------------
      1          6           0       -3.173014   -1.669538   -0.193965
      2          1           0       -2.876169   -2.711612   -0.336378
      3          1           0       -3.399449   -1.247661   -1.176513
      4          1           0       -4.095257   -1.661481    0.394692
      5          6           0       -2.054134   -0.879861    0.502380
      6          1           0       -1.871088   -1.341605    1.483598
      7          6           0       -0.739611   -0.939929   -0.298821
      8          1           0       -0.555894   -1.991835   -0.548576
      9          1           0       -0.874402   -0.422986   -1.255980
     10          6           0        0.496519   -0.379528    0.416475
     11          1           0        0.598724   -0.862021    1.398330
     12          1           0        0.358666    0.688807    0.603514
     13          6           0        1.785988   -0.598005   -0.385763
     14          1           0        1.699407   -0.089406   -1.355555
     15          1           0        1.880069   -1.667866   -0.611848
     16          6           0        3.080336   -0.131454    0.307420
     17          6           0        4.310638   -0.590989   -0.487909
     18          1           0        4.316782   -0.144337   -1.488392
     19          1           0        5.238775   -0.297116    0.011302
     20          1           0        4.325105   -1.678305   -0.609266
     21          6           0       -2.509649    0.544864    0.832923
     22          1           0       -3.432676    0.530476    1.417505
     23          1           0       -1.749127    1.128289    1.350988
     24          6           0        3.118227    1.388421    0.523541
     25          1           0        4.049695    1.689416    1.012167
     26          1           0        3.059733    1.917672   -0.434118
     27          1           0        2.292328    1.738431    1.147402
     28          8           0       -2.870339    1.291342   -0.371991
     29          8           0       -1.876303    2.030758   -0.827575
     30          1           0       -2.228595    2.825530   -1.234795
 ---------------------------------------------------------------------
                    Distance matrix (angstroms):
                    1          2          3          4          5
     1  C    0.000000
     2  H    1.092848   0.000000
     3  H    1.093002   1.767145   0.000000
     4  H    1.094127   1.767318   1.767507   0.000000
     5  C    1.536352   2.175906   2.182620   2.188312   0.000000
     6  H    2.148667   2.489863   3.069349   2.496991   1.099774
     7  C    2.542592   2.775815   2.817762   3.501708   1.540617
     8  H    2.660628   2.438603   3.005645   3.677768   2.141429
     9  H    2.822301   3.176562   2.657492   3.825244   2.166179
    10  C    3.937288   4.168984   4.297654   4.767419   2.600681
    11  H    4.172948   4.301753   4.771155   4.866198   2.800125
    12  H    4.320941   4.786481   4.587138   5.040326   2.879679
    13  C    5.077073   5.119129   5.285461   6.027365   3.951554
    14  H    5.252294   5.371274   5.231820   6.254032   4.262137
    15  H    5.070333   4.877201   5.326230   6.059512   4.164182
    16  C    6.459216   6.523162   6.740593   7.337420   5.192389
    17  C    7.566685   7.494678   7.768580   8.519625   6.447825
    18  H    7.752343   7.723767   7.800950   8.752721   6.715113
    19  H    8.525484   8.473664   8.771166   9.441008   7.332617
    20  H    7.509617   7.280147   7.757316   8.480018   6.524413
    21  C    2.529452   3.479402   2.835969   2.752119   1.531860
    22  H    2.739402   3.727860   3.145124   2.507954   2.174139
    23  H    3.498881   4.343071   3.841479   3.768507   2.201325
    24  C    7.031759   7.313174   7.233202   7.832806   5.647908
    25  H    8.056355   8.315961   8.300993   8.828931   6.642123
    26  H    7.195338   7.528264   7.231287   8.043081   5.903800
    27  H    6.579018   6.979817   6.834739   7.275109   5.115001
    28  O    2.981630   4.003117   2.715465   3.287460   2.478878
    29  O    3.971790   4.871456   3.631771   4.477759   3.205013
    30  H    4.709660   5.646809   4.238535   5.125712   4.096113
                    6          7          8          9         10
     6  H    0.000000
     7  C    2.149093   0.000000
     8  H    2.506445   1.096647   0.000000
     9  H    3.056555   1.096153   1.750187   0.000000
    10  C    2.769460   1.534182   2.153702   2.162965   0.000000
    11  H    2.517388   2.162760   2.529835   3.067281   1.098765
    12  H    3.141484   2.161759   3.057707   2.492841   1.093310
    13  C    4.173926   2.550122   2.730143   2.804565   1.534291
    14  H    4.730457   2.790857   3.058894   2.597245   2.161296
    15  H    4.309120   2.736896   2.458226   3.090589   2.152086
    16  C    5.231105   3.951349   4.173238   4.262530   2.597988
    17  C    6.531769   5.065820   5.064502   5.244311   3.925574
    18  H    6.968207   5.255012   5.295231   5.203850   4.275306
    19  H    7.335446   6.020837   6.063310   6.244420   4.760247
    20  H    6.548760   5.127663   4.891435   5.387851   4.170976
    21  C    2.095210   2.572642   3.487197   2.823877   3.172535
    22  H    2.438773   3.515745   4.301558   3.821175   4.155568
    23  H    2.476456   2.831699   3.842827   3.157195   2.861774
    24  C    5.767843   4.580437   5.106342   4.731699   3.163931
    25  H    6.668209   5.618683   6.099096   5.818373   4.154568
    26  H    6.213978   4.755965   5.326359   4.650974   3.545519
    27  H    5.189767   4.296257   4.990350   4.525058   2.871399
    28  O    3.372554   3.086086   4.020832   2.775630   3.840471
    29  O    4.088323   3.224381   4.242945   2.684809   3.603807
    30  H    4.988235   4.155936   5.145467   3.519538   4.519440
                   11         12         13         14         15
    11  H    0.000000
    12  H    1.759099   0.000000
    13  C    2.159233   2.161435   0.000000
    14  H    3.064689   2.498230   1.098483   0.000000
    15  H    2.516356   3.057070   1.097528   1.754216   0.000000
    16  C    2.807528   2.857969   1.540620   2.161994   2.155518
    17  C    4.172489   4.295016   2.526725   2.796949   2.661332
    18  H    4.761532   4.553777   2.797592   2.621319   3.004503
    19  H    4.875760   5.013803   3.488543   3.799811   3.680785
    20  H    4.310763   4.775635   2.768414   3.158455   2.445060
    21  C    3.458467   2.881073   4.609104   4.786218   5.123784
    22  H    4.265161   3.880969   5.635574   5.866208   6.097232
    23  H    3.078308   2.279178   4.300399   4.549785   4.984202
    24  C    3.489648   2.847987   2.558824   2.779932   3.487554
    25  H    4.309078   3.846025   3.508685   3.780763   4.314631
    26  H    4.140184   3.143653   2.820176   2.593819   3.778793
    27  H    3.113456   2.266401   2.840054   3.155525   3.855876
    28  O    4.450327   3.426533   5.025058   4.874058   5.601859
    29  O    4.410055   2.973876   4.529677   4.190413   5.276049
    30  H    5.340891   3.826080   5.343999   4.892917   6.120441
                   16         17         18         19         20
    16  C    0.000000
    17  C    1.535371   0.000000
    18  H    2.180345   1.095674   0.000000
    19  H    2.184946   1.094080   1.767058   0.000000
    20  H    2.186895   1.094163   1.768047   1.768497   0.000000
    21  C    5.655218   7.039252   7.243180   7.837223   7.330501
    22  H    6.640012   8.052776   8.303837   8.823626   8.316831
    23  H    5.098990   6.561876   6.817397   7.256536   6.972507
    24  C    1.535631   2.522487   2.798885   2.756837   3.484912
    25  H    2.179884   2.742000   3.112359   2.522291   3.747858
    26  H    2.179271   2.803754   2.635061   3.138775   3.816136
    27  H    2.196132   3.489128   3.819770   3.757090   4.346510
    28  O    6.156012   7.424489   7.413652   8.272112   7.787780
    29  O    5.525545   6.728089   6.597123   7.533064   7.229265
    30  H    6.269524   7.415660   7.192106   8.189340   7.976641
                   21         22         23         24         25
    21  C    0.000000
    22  H    1.092667   0.000000
    23  H    1.089573   1.787776   0.000000
    24  C    5.699149   6.667051   4.944034   0.000000
    25  H    6.660865   7.582435   5.835752   1.094069   0.000000
    26  H    5.874352   6.892329   5.189881   1.095737   1.767446
    27  H    4.958072   5.857284   4.092320   1.092620   1.763244
    28  O    1.462581   2.024212   2.062125   6.055933   7.068326
    29  O    2.316519   3.116653   2.361517   5.213775   6.214388
    30  H    3.091260   3.708339   3.129983   5.809091   6.764357
                   26         27         28         29         30
    26  H    0.000000
    27  H    1.766987   0.000000
    28  O    5.963380   5.400146   0.000000
    29  O    4.952984   4.622064   1.320000   0.000000
    30  H    5.425099   5.224499   1.873499   0.960000   0.000000
 Stoichiometry    C9H19O2(2)
 Framework group  C1[X(C9H19O2)]
 Deg. of freedom    84
 Full point group                 C1      NOp   1
 Largest Abelian subgroup         C1      NOp   1
 Largest concise Abelian subgroup C1      NOp   1
                         Standard orientation:                         
 ---------------------------------------------------------------------
 Center     Atomic      Atomic             Coordinates (Angstroms)
 Number     Number       Type             X           Y           Z
 ---------------------------------------------------------------------
      1          6           0       -3.098123   -1.728906   -0.220169
      2          1           0       -2.792211   -2.764203   -0.390150
      3          1           0       -3.325739   -1.282287   -1.191444
      4          1           0       -4.021806   -1.744577    0.366073
      5          6           0       -1.987572   -0.949235    0.500364
      6          1           0       -1.803006   -1.436030    1.469110
      7          6           0       -0.670680   -0.976495   -0.298732
      8          1           0       -0.477552   -2.019634   -0.576579
      9          1           0       -0.807513   -0.434779   -1.241798
     10          6           0        0.558994   -0.425549    0.434804
     11          1           0        0.662894   -0.933774    1.403409
     12          1           0        0.411741    0.636104    0.650526
     13          6           0        1.852164   -0.611334   -0.369712
     14          1           0        1.763639   -0.077213   -1.325507
     15          1           0        1.955753   -1.673811   -0.624621
     16          6           0        3.140894   -0.153112    0.339314
     17          6           0        4.376903   -0.580537   -0.465019
     18          1           0        4.381693   -0.106730   -1.452939
     19          1           0        5.301347   -0.292679    0.044443
     20          1           0        4.400777   -1.663981   -0.615924
     21          6           0       -2.455806    0.462107    0.868417
     22          1           0       -3.380075    0.424105    1.449972
     23          1           0       -1.701443    1.037491    1.404178
     24          6           0        3.165522    1.360566    0.596873
     25          1           0        4.093263    1.655859    1.095956
     26          1           0        3.104881    1.915233   -0.346158
     27          1           0        2.335228    1.686550    1.227876
     28          8           0       -2.819862    1.238143   -0.316646
     29          8           0       -1.830976    1.997951   -0.749307
     30          1           0       -2.188945    2.800576   -1.135638
 ---------------------------------------------------------------------
 Rotational constants (GHZ):      1.7816965      0.4365782      0.3809933
 Leave Link  202 at Thu Feb  6 23:41:53 2014, MaxMem= 4026531840 cpu:       0.1
 (Enter /usr/caen/gaussian-09revc/g09/l301.exe)
 Standard basis: 6-311++G(d,p) (5D, 7F)
 Ernie: Thresh=  0.10000D-02 Tol=  0.10000D-05 Strict=F.
 There are   375 symmetry adapted basis functions of A   symmetry.
 Integral buffers will be    131072 words long.
 Raffenetti 2 integral format.
 Two-electron integral symmetry is turned on.
   375 basis functions,   567 primitive gaussians,   386 cartesian basis functions
    45 alpha electrons       44 beta electrons
       nuclear repulsion energy       648.8439000058 Hartrees.
 IExCor=  402 DFT=T Ex+Corr=B3LYP ExCW=0 ScaHFX=  0.200000
 ScaDFX=  0.800000  0.720000  1.000000  0.810000 ScalE2=  1.000000  1.000000
 IRadAn=      0 IRanWt=     -1 IRanGd=            0 ICorTp=0
 NAtoms=   30 NActive=   30 NUniq=   30 SFac= 1.00D+00 NAtFMM=   60 NAOKFM=F Big=F
 Leave Link  301 at Thu Feb  6 23:41:53 2014, MaxMem= 4026531840 cpu:       0.4
 (Enter /usr/caen/gaussian-09revc/g09/l302.exe)
 NPDir=0 NMtPBC=     1 NCelOv=     1 NCel=       1 NClECP=     1 NCelD=      1
         NCelK=      1 NCelE2=     1 NClLst=     1 CellRange=     0.0.
 One-electron integrals computed using PRISM.
 NBasis=   375 RedAO= T  NBF=   375
 NBsUse=   375 1.00D-06 NBFU=   375
 Precomputing XC quadrature grid using
 IXCGrd= 2 IRadAn=           0 IRanWt=          -1 IRanGd=           0 AccXCQ= 0.00D+00.
 NRdTot=    1960 NPtTot=      250122 NUsed=      264245 NTot=      264277
 NSgBfM=   386   386   386   386   386 NAtAll=    30    30.
 Leave Link  302 at Thu Feb  6 23:41:54 2014, MaxMem= 4026531840 cpu:       5.3
 (Enter /usr/caen/gaussian-09revc/g09/l303.exe)
 DipDrv:  MaxL=1.
 Leave Link  303 at Thu Feb  6 23:41:54 2014, MaxMem= 4026531840 cpu:       0.4
 (Enter /usr/caen/gaussian-09revc/g09/l401.exe)
 Harris functional with IExCor=  402 diagonalized for initial guess.
 ExpMin= 3.60D-02 ExpMax= 8.59D+03 ExpMxC= 1.30D+03 IAcc=3 IRadAn=         5 AccDes= 0.00D+00
 HarFok:  IExCor=  402 AccDes= 0.00D+00 IRadAn=         5 IDoV= 1
 ScaDFX=  1.000000  1.000000  1.000000  1.000000
 FoFCou: FMM=F IPFlag=           0 FMFlag=      100000 FMFlg1=           0
         NFxFlg=           0 DoJE=T BraDBF=F KetDBF=T FulRan=T
         Omega=  0.000000  0.000000  1.000000  0.000000  0.000000 ICntrl=     500 IOpCl=  0
         NMat0=    1 NMatS0=    1 NMatT0=    0 NMatD0=    1 NMtDS0=    0 NMtDT0=    0
         I1Cent=           4 NGrid=           0.
 Petite list used in FoFCou.
 Harris En= -504.881682404274    
 Mixing orbitals, IMix= 1 IMixAn=  0 NRI=1 NE=   45 Coef=  7.07106781D-01  7.07106781D-01
 Mixing orbitals, IMix= 1 IMixAn=  0 NRI=1 NE=   44 Coef= -7.07106781D-01  7.07106781D-01
 Initial guess orbital symmetries:
 Alpha Orbitals:
       Occupied  (A) (A) (A) (A) (A) (A) (A) (A) (A) (A) (A) (A)
                 (A) (A) (A) (A) (A) (A) (A) (A) (A) (A) (A) (A)
                 (A) (A) (A) (A) (A) (A) (A) (A) (A) (A) (A) (A)
                 (A) (A) (A) (A) (A) (A) (A) (A) (A)
       Virtual   (A) (A) (A) (A) (A) (A) (A) (A) (A) (A) (A) (A)
                 (A) (A) (A) (A) (A) (A) (A) (A) (A) (A) (A) (A)
                 (A) (A) (A) (A) (A) (A) (A) (A) (A) (A) (A) (A)
                 (A) (A) (A) (A) (A) (A) (A) (A) (A) (A) (A) (A)
                 (A) (A) (A) (A) (A) (A) (A) (A) (A) (A) (A) (A)
                 (A) (A) (A) (A) (A) (A) (A) (A) (A) (A) (A) (A)
                 (A) (A) (A) (A) (A) (A) (A) (A) (A) (A) (A) (A)
                 (A) (A) (A) (A) (A) (A) (A) (A) (A) (A) (A) (A)
                 (A) (A) (A) (A) (A) (A) (A) (A) (A) (A) (A) (A)
                 (A) (A) (A) (A) (A) (A) (A) (A) (A) (A) (A) (A)
                 (A) (A) (A) (A) (A) (A) (A) (A) (A) (A) (A) (A)
                 (A) (A) (A) (A) (A) (A) (A) (A) (A) (A) (A) (A)
                 (A) (A) (A) (A) (A) (A) (A) (A) (A) (A) (A) (A)
                 (A) (A) (A) (A) (A) (A) (A) (A) (A) (A) (A) (A)
                 (A) (A) (A) (A) (A) (A) (A) (A) (A) (A) (A) (A)
                 (A) (A) (A) (A) (A) (A) (A) (A) (A) (A) (A) (A)
                 (A) (A) (A) (A) (A) (A) (A) (A) (A) (A) (A) (A)
                 (A) (A) (A) (A) (A) (A) (A) (A) (A) (A) (A) (A)
                 (A) (A) (A) (A) (A) (A) (A) (A) (A) (A) (A) (A)
                 (A) (A) (A) (A) (A) (A) (A) (A) (A) (A) (A) (A)
                 (A) (A) (A) (A) (A) (A) (A) (A) (A) (A) (A) (A)
                 (A) (A) (A) (A) (A) (A) (A) (A) (A) (A) (A) (A)
                 (A) (A) (A) (A) (A) (A) (A) (A) (A) (A) (A) (A)
                 (A) (A) (A) (A) (A) (A) (A) (A) (A) (A) (A) (A)
                 (A) (A) (A) (A) (A) (A) (A) (A) (A) (A) (A) (A)
                 (A) (A) (A) (A) (A) (A) (A) (A) (A) (A) (A) (A)
                 (A) (A) (A) (A) (A) (A) (A) (A) (A) (A) (A) (A)
                 (A) (A) (A) (A) (A) (A)
 Beta  Orbitals:
       Occupied  (A) (A) (A) (A) (A) (A) (A) (A) (A) (A) (A) (A)
                 (A) (A) (A) (A) (A) (A) (A) (A) (A) (A) (A) (A)
                 (A) (A) (A) (A) (A) (A) (A) (A) (A) (A) (A) (A)
                 (A) (A) (A) (A) (A) (A) (A) (A)
       Virtual   (A) (A) (A) (A) (A) (A) (A) (A) (A) (A) (A) (A)
                 (A) (A) (A) (A) (A) (A) (A) (A) (A) (A) (A) (A)
                 (A) (A) (A) (A) (A) (A) (A) (A) (A) (A) (A) (A)
                 (A) (A) (A) (A) (A) (A) (A) (A) (A) (A) (A) (A)
                 (A) (A) (A) (A) (A) (A) (A) (A) (A) (A) (A) (A)
                 (A) (A) (A) (A) (A) (A) (A) (A) (A) (A) (A) (A)
                 (A) (A) (A) (A) (A) (A) (A) (A) (A) (A) (A) (A)
                 (A) (A) (A) (A) (A) (A) (A) (A) (A) (A) (A) (A)
                 (A) (A) (A) (A) (A) (A) (A) (A) (A) (A) (A) (A)
                 (A) (A) (A) (A) (A) (A) (A) (A) (A) (A) (A) (A)
                 (A) (A) (A) (A) (A) (A) (A) (A) (A) (A) (A) (A)
                 (A) (A) (A) (A) (A) (A) (A) (A) (A) (A) (A) (A)
                 (A) (A) (A) (A) (A) (A) (A) (A) (A) (A) (A) (A)
                 (A) (A) (A) (A) (A) (A) (A) (A) (A) (A) (A) (A)
                 (A) (A) (A) (A) (A) (A) (A) (A) (A) (A) (A) (A)
                 (A) (A) (A) (A) (A) (A) (A) (A) (A) (A) (A) (A)
                 (A) (A) (A) (A) (A) (A) (A) (A) (A) (A) (A) (A)
                 (A) (A) (A) (A) (A) (A) (A) (A) (A) (A) (A) (A)
                 (A) (A) (A) (A) (A) (A) (A) (A) (A) (A) (A) (A)
                 (A) (A) (A) (A) (A) (A) (A) (A) (A) (A) (A) (A)
                 (A) (A) (A) (A) (A) (A) (A) (A) (A) (A) (A) (A)
                 (A) (A) (A) (A) (A) (A) (A) (A) (A) (A) (A) (A)
                 (A) (A) (A) (A) (A) (A) (A) (A) (A) (A) (A) (A)
                 (A) (A) (A) (A) (A) (A) (A) (A) (A) (A) (A) (A)
                 (A) (A) (A) (A) (A) (A) (A) (A) (A) (A) (A) (A)
                 (A) (A) (A) (A) (A) (A) (A) (A) (A) (A) (A) (A)
                 (A) (A) (A) (A) (A) (A) (A) (A) (A) (A) (A) (A)
                 (A) (A) (A) (A) (A) (A) (A)
 The electronic state of the initial guess is 2-A.
 Initial guess <Sx>= 0.0000 <Sy>= 0.0000 <Sz>= 0.5000 <S**2>= 1.0000 S= 0.6180
 Leave Link  401 at Thu Feb  6 23:42:00 2014, MaxMem= 4026531840 cpu:      33.1
 (Enter /usr/caen/gaussian-09revc/g09/l502.exe)
 UHF open shell SCF:
 Requested convergence on RMS density matrix=1.00D-08 within 128 cycles.
 Requested convergence on MAX density matrix=1.00D-06.
 Requested convergence on             energy=1.00D-06.
 No special actions if energy rises.
 Using DIIS extrapolation, IDIIS=  1040.
 Integral symmetry usage will be decided dynamically.
       263962 words used for storage of precomputed grid.
 IEnd=      735096 IEndB=      735096 NGot=  4026531840 MDV=  4025962767
 LenX=  4025962767 LenY=  4025813330
 Fock matrices will be formed incrementally for  20 cycles.

 Cycle   1  Pass 1  IDiag  1:
 FoFCou: FMM=F IPFlag=           0 FMFlag=      100000 FMFlg1=           0
         NFxFlg=           0 DoJE=F BraDBF=F KetDBF=F FulRan=T
         Omega=  0.000000  0.000000  1.000000  0.000000  0.000000 ICntrl=       0 IOpCl=  1
         NMat0=    1 NMatS0=    1 NMatT0=    0 NMatD0=    1 NMtDS0=    0 NMtDT0=    0
         I1Cent=           0 NGrid=           0.
 Symmetry not used in FoFCou.
 E= -504.308658597257    
 DIIS: error= 2.91D-02 at cycle   1 NSaved=   1.
 NSaved= 1 IEnMin= 1 EnMin= -504.308658597257     IErMin= 1 ErrMin= 2.91D-02
 ErrMax= 2.91D-02 EMaxC= 1.00D-01 BMatC= 1.56D+00 BMatP= 1.56D+00
 IDIUse=3 WtCom= 7.09D-01 WtEn= 2.91D-01
 Coeff-Com:  0.100D+01
 Coeff-En:   0.100D+01
 Coeff:      0.100D+01
 Gap=     0.048 Goal=   None    Shift=    0.000
 Gap=     0.018 Goal=   None    Shift=    0.000
 GapD=    0.018 DampG=0.250 DampE=0.500 DampFc=0.2500 IDamp=-1.
 Damping current iteration by 2.50D-01
 RMSDP=2.41D-02 MaxDP=2.55D+00              OVMax= 8.10D-01

 Cycle   2  Pass 1  IDiag  1:
 RMSU=  4.71D-03    CP:  9.12D-01
 E= -504.455305046202     Delta-E=       -0.146646448945 Rises=F Damp=T
 DIIS: error= 1.23D-02 at cycle   2 NSaved=   2.
 NSaved= 2 IEnMin= 2 EnMin= -504.455305046202     IErMin= 2 ErrMin= 1.23D-02
 ErrMax= 1.23D-02 EMaxC= 1.00D-01 BMatC= 3.85D-01 BMatP= 1.56D+00
 IDIUse=3 WtCom= 8.77D-01 WtEn= 1.23D-01
 Coeff-Com: -0.663D+00 0.166D+01
 Coeff-En:   0.000D+00 0.100D+01
 Coeff:     -0.582D+00 0.158D+01
 Gap=    -0.101 Goal=   None    Shift=    0.000
 Gap=     0.337 Goal=   None    Shift=    0.000
 RMSDP=2.09D-02 MaxDP=2.56D+00 DE=-1.47D-01 OVMax= 9.83D-01

 Cycle   3  Pass 1  IDiag  1:
 RMSU=  1.04D-02    CP:  4.87D-01  5.20D-02
 E= -504.263487003936     Delta-E=        0.191818042265 Rises=F Damp=F
 DIIS: error= 2.39D-02 at cycle   3 NSaved=   3.
 NSaved= 3 IEnMin= 2 EnMin= -504.455305046202     IErMin= 2 ErrMin= 1.23D-02
 ErrMax= 2.39D-02 EMaxC= 1.00D-01 BMatC= 1.25D+00 BMatP= 3.85D-01
 IDIUse=2 WtCom= 0.00D+00 WtEn= 1.00D+00
 Coeff-En:   0.000D+00 0.693D+00 0.307D+00
 Coeff:      0.000D+00 0.693D+00 0.307D+00
 Gap=     0.380 Goal=   None    Shift=    0.000
 Gap=    -0.264 Goal=   None    Shift=    0.000
 RMSDP=1.27D-02 MaxDP=1.25D+00 DE= 1.92D-01 OVMax= 9.90D-01

 Cycle   4  Pass 1  IDiag  1:
 RMSU=  9.56D-03    CP:  4.17D-01  1.22D+00  7.01D-01
 E= -504.128712241238     Delta-E=        0.134774762698 Rises=F Damp=F
 DIIS: error= 2.43D-02 at cycle   4 NSaved=   4.
 NSaved= 4 IEnMin= 2 EnMin= -504.455305046202     IErMin= 2 ErrMin= 1.23D-02
 ErrMax= 2.43D-02 EMaxC= 1.00D-01 BMatC= 1.56D+00 BMatP= 3.85D-01
 IDIUse=2 WtCom= 0.00D+00 WtEn= 1.00D+00
 Coeff-En:   0.000D+00 0.000D+00 0.538D+00 0.462D+00
 Coeff:      0.000D+00 0.000D+00 0.538D+00 0.462D+00
 Gap=    -0.035 Goal=   None    Shift=    0.000
 Gap=     0.331 Goal=   None    Shift=    0.000
 RMSDP=1.18D-02 MaxDP=8.56D-01 DE= 1.35D-01 OVMax= 9.89D-01

 Cycle   5  Pass 1  IDiag  1:
 RMSU=  4.20D-03    CP:  4.73D-01  1.75D-01  9.04D-01  1.59D-01
 E= -504.784713431443     Delta-E=       -0.656001190205 Rises=F Damp=F
 DIIS: error= 7.43D-03 at cycle   5 NSaved=   5.
 NSaved= 5 IEnMin= 5 EnMin= -504.784713431443     IErMin= 5 ErrMin= 7.43D-03
 ErrMax= 7.43D-03 EMaxC= 1.00D-01 BMatC= 1.61D-01 BMatP= 3.85D-01
 IDIUse=3 WtCom= 9.26D-01 WtEn= 7.43D-02
 Coeff-Com: -0.339D+00 0.499D+00 0.233D+00 0.163D-01 0.590D+00
 Coeff-En:   0.000D+00 0.000D+00 0.761D-02 0.000D+00 0.992D+00
 Coeff:     -0.314D+00 0.462D+00 0.216D+00 0.151D-01 0.620D+00
 Gap=     0.136 Goal=   None    Shift=    0.000
 Gap=     0.151 Goal=   None    Shift=    0.000
 RMSDP=3.56D-03 MaxDP=3.81D-01 DE=-6.56D-01 OVMax= 5.73D-02

 Cycle   6  Pass 1  IDiag  1:
 RMSU=  1.84D-03    CP:  4.45D-01  2.62D-01  8.60D-01  1.52D-01  5.89D-01
 E= -504.823493400699     Delta-E=       -0.038779969256 Rises=F Damp=F
 DIIS: error= 2.42D-03 at cycle   6 NSaved=   6.
 NSaved= 6 IEnMin= 6 EnMin= -504.823493400699     IErMin= 6 ErrMin= 2.42D-03
 ErrMax= 2.42D-03 EMaxC= 1.00D-01 BMatC= 1.25D-02 BMatP= 1.61D-01
 IDIUse=3 WtCom= 9.76D-01 WtEn= 2.42D-02
 Coeff-Com: -0.872D-01 0.144D+00 0.104D+00-0.518D-02 0.172D+00 0.673D+00
 Coeff-En:   0.000D+00 0.000D+00 0.000D+00 0.000D+00 0.000D+00 0.100D+01
 Coeff:     -0.850D-01 0.140D+00 0.101D+00-0.505D-02 0.168D+00 0.681D+00
 Gap=     0.168 Goal=   None    Shift=    0.000
 Gap=     0.165 Goal=   None    Shift=    0.000
 RMSDP=8.43D-04 MaxDP=8.71D-02 DE=-3.88D-02 OVMax= 3.18D-02

 Cycle   7  Pass 1  IDiag  1:
 RMSU=  4.56D-04    CP:  4.54D-01  2.45D-01  8.67D-01  1.50D-01  5.13D-01
                    CP:  1.06D+00
 E= -504.826158816095     Delta-E=       -0.002665415396 Rises=F Damp=F
 DIIS: error= 1.63D-03 at cycle   7 NSaved=   7.
 NSaved= 7 IEnMin= 7 EnMin= -504.826158816095     IErMin= 7 ErrMin= 1.63D-03
 ErrMax= 1.63D-03 EMaxC= 1.00D-01 BMatC= 7.14D-03 BMatP= 1.25D-02
 IDIUse=3 WtCom= 9.84D-01 WtEn= 1.63D-02
 Coeff-Com:  0.523D-01-0.514D-01 0.306D-01-0.318D-02-0.896D-01 0.398D+00
 Coeff-Com:  0.664D+00
 Coeff-En:   0.000D+00 0.000D+00 0.000D+00 0.000D+00 0.000D+00 0.000D+00
 Coeff-En:   0.100D+01
 Coeff:      0.515D-01-0.506D-01 0.301D-01-0.313D-02-0.882D-01 0.391D+00
 Coeff:      0.669D+00
 Gap=     0.186 Goal=   None    Shift=    0.000
 Gap=     0.169 Goal=   None    Shift=    0.000
 RMSDP=4.91D-04 MaxDP=4.87D-02 DE=-2.67D-03 OVMax= 1.80D-02

 Cycle   8  Pass 1  IDiag  1:
 RMSU=  2.13D-04    CP:  4.51D-01  2.32D-01  8.64D-01  1.42D-01  4.50D-01
                    CP:  1.10D+00  1.03D+00
 E= -504.827756384166     Delta-E=       -0.001597568071 Rises=F Damp=F
 DIIS: error= 7.27D-04 at cycle   8 NSaved=   8.
 NSaved= 8 IEnMin= 8 EnMin= -504.827756384166     IErMin= 8 ErrMin= 7.27D-04
 ErrMax= 7.27D-04 EMaxC= 1.00D-01 BMatC= 1.09D-03 BMatP= 7.14D-03
 IDIUse=3 WtCom= 9.93D-01 WtEn= 7.27D-03
 Coeff-Com:  0.911D-02-0.659D-02 0.530D-02-0.436D-02-0.547D-01-0.146D+00
 Coeff-Com:  0.186D+00 0.101D+01
 Coeff-En:   0.000D+00 0.000D+00 0.000D+00 0.000D+00 0.000D+00 0.000D+00
 Coeff-En:   0.000D+00 0.100D+01
 Coeff:      0.904D-02-0.654D-02 0.527D-02-0.433D-02-0.543D-01-0.144D+00
 Coeff:      0.185D+00 0.101D+01
 Gap=     0.194 Goal=   None    Shift=    0.000
 Gap=     0.169 Goal=   None    Shift=    0.000
 RMSDP=2.58D-04 MaxDP=3.21D-02 DE=-1.60D-03 OVMax= 1.15D-02

 Cycle   9  Pass 1  IDiag  1:
 RMSU=  1.36D-04    CP:  4.54D-01  2.25D-01  8.69D-01  1.38D-01  4.31D-01
                    CP:  1.10D+00  1.19D+00  1.13D+00
 E= -504.828062836603     Delta-E=       -0.000306452437 Rises=F Damp=F
 DIIS: error= 2.76D-04 at cycle   9 NSaved=   9.
 NSaved= 9 IEnMin= 9 EnMin= -504.828062836603     IErMin= 9 ErrMin= 2.76D-04
 ErrMax= 2.76D-04 EMaxC= 1.00D-01 BMatC= 1.46D-04 BMatP= 1.09D-03
 IDIUse=3 WtCom= 9.97D-01 WtEn= 2.76D-03
 Coeff-Com: -0.452D-02 0.818D-02 0.360D-02-0.331D-02-0.162D-01-0.108D+00
 Coeff-Com:  0.209D-01 0.485D+00 0.614D+00
 Coeff-En:   0.000D+00 0.000D+00 0.000D+00 0.000D+00 0.000D+00 0.000D+00
 Coeff-En:   0.000D+00 0.000D+00 0.100D+01
 Coeff:     -0.450D-02 0.815D-02 0.359D-02-0.330D-02-0.161D-01-0.107D+00
 Coeff:      0.208D-01 0.483D+00 0.615D+00
 Gap=     0.195 Goal=   None    Shift=    0.000
 Gap=     0.169 Goal=   None    Shift=    0.000
 RMSDP=7.03D-05 MaxDP=9.38D-03 DE=-3.06D-04 OVMax= 2.20D-03

 Cycle  10  Pass 1  IDiag  1:
 RMSU=  2.90D-05    CP:  4.54D-01  2.22D-01  8.70D-01  1.36D-01  4.25D-01
                    CP:  1.09D+00  1.20D+00  1.20D+00  9.78D-01
 E= -504.828097993552     Delta-E=       -0.000035156949 Rises=F Damp=F
 DIIS: error= 1.07D-04 at cycle  10 NSaved=  10.
 NSaved=10 IEnMin=10 EnMin= -504.828097993552     IErMin=10 ErrMin= 1.07D-04
 ErrMax= 1.07D-04 EMaxC= 1.00D-01 BMatC= 2.50D-05 BMatP= 1.46D-04
 IDIUse=3 WtCom= 9.99D-01 WtEn= 1.07D-03
 Coeff-Com: -0.106D-02 0.105D-02 0.101D-02-0.141D-02-0.129D-02-0.149D-01
 Coeff-Com: -0.225D-01 0.733D-02 0.218D+00 0.814D+00
 Coeff-En:   0.000D+00 0.000D+00 0.000D+00 0.000D+00 0.000D+00 0.000D+00
 Coeff-En:   0.000D+00 0.000D+00 0.000D+00 0.100D+01
 Coeff:     -0.106D-02 0.105D-02 0.100D-02-0.141D-02-0.129D-02-0.149D-01
 Coeff:     -0.225D-01 0.732D-02 0.218D+00 0.814D+00
 Gap=     0.196 Goal=   None    Shift=    0.000
 Gap=     0.168 Goal=   None    Shift=    0.000
 RMSDP=2.95D-05 MaxDP=3.93D-03 DE=-3.52D-05 OVMax= 8.22D-04

 Cycle  11  Pass 1  IDiag  1:
 RMSU=  1.53D-05    CP:  4.54D-01  2.22D-01  8.70D-01  1.35D-01  4.24D-01
                    CP:  1.09D+00  1.20D+00  1.22D+00  1.08D+00  8.58D-01
 E= -504.828104293324     Delta-E=       -0.000006299772 Rises=F Damp=F
 DIIS: error= 4.33D-05 at cycle  11 NSaved=  11.
 NSaved=11 IEnMin=11 EnMin= -504.828104293324     IErMin=11 ErrMin= 4.33D-05
 ErrMax= 4.33D-05 EMaxC= 1.00D-01 BMatC= 2.65D-06 BMatP= 2.50D-05
 IDIUse=1 WtCom= 1.00D+00 WtEn= 0.00D+00
 Coeff-Com: -0.339D-03 0.320D-03 0.575D-03-0.516D-03 0.159D-02 0.614D-02
 Coeff-Com: -0.986D-02-0.517D-01 0.359D-02 0.284D+00 0.766D+00
 Coeff:     -0.339D-03 0.320D-03 0.575D-03-0.516D-03 0.159D-02 0.614D-02
 Coeff:     -0.986D-02-0.517D-01 0.359D-02 0.284D+00 0.766D+00
 Gap=     0.196 Goal=   None    Shift=    0.000
 Gap=     0.168 Goal=   None    Shift=    0.000
 RMSDP=1.68D-05 MaxDP=3.43D-03 DE=-6.30D-06 OVMax= 1.89D-04

 Cycle  12  Pass 1  IDiag  1:
 RMSU=  4.30D-06    CP:  4.54D-01  2.21D-01  8.71D-01  1.35D-01  4.23D-01
                    CP:  1.09D+00  1.20D+00  1.23D+00  1.11D+00  9.51D-01
                    CP:  7.09D-01
 E= -504.828104987363     Delta-E=       -0.000000694039 Rises=F Damp=F
 DIIS: error= 1.90D-05 at cycle  12 NSaved=  12.
 NSaved=12 IEnMin=12 EnMin= -504.828104987363     IErMin=12 ErrMin= 1.90D-05
 ErrMax= 1.90D-05 EMaxC= 1.00D-01 BMatC= 5.58D-07 BMatP= 2.65D-06
 IDIUse=1 WtCom= 1.00D+00 WtEn= 0.00D+00
 Coeff-Com:  0.151D-03-0.187D-03 0.341D-04-0.233D-03 0.420D-03 0.470D-02
 Coeff-Com:  0.916D-04-0.244D-01-0.382D-01-0.142D-01 0.291D+00 0.780D+00
 Coeff:      0.151D-03-0.187D-03 0.341D-04-0.233D-03 0.420D-03 0.470D-02
 Coeff:      0.916D-04-0.244D-01-0.382D-01-0.142D-01 0.291D+00 0.780D+00
 Gap=     0.196 Goal=   None    Shift=    0.000
 Gap=     0.168 Goal=   None    Shift=    0.000
 RMSDP=4.44D-06 MaxDP=4.70D-04 DE=-6.94D-07 OVMax= 1.13D-04

 Cycle  13  Pass 1  IDiag  1:
 RMSU=  1.75D-06    CP:  4.54D-01  2.21D-01  8.71D-01  1.35D-01  4.23D-01
                    CP:  1.09D+00  1.20D+00  1.23D+00  1.13D+00  9.60D-01
                    CP:  8.07D-01  9.19D-01
 E= -504.828105122207     Delta-E=       -0.000000134844 Rises=F Damp=F
 DIIS: error= 6.22D-06 at cycle  13 NSaved=  13.
 NSaved=13 IEnMin=13 EnMin= -504.828105122207     IErMin=13 ErrMin= 6.22D-06
 ErrMax= 6.22D-06 EMaxC= 1.00D-01 BMatC= 6.22D-08 BMatP= 5.58D-07
 IDIUse=1 WtCom= 1.00D+00 WtEn= 0.00D+00
 Coeff-Com: -0.285D-04 0.920D-04 0.372D-04-0.918D-04 0.109D-03 0.994D-03
 Coeff-Com:  0.136D-02-0.315D-02-0.171D-01-0.437D-01 0.185D-01 0.385D+00
 Coeff-Com:  0.658D+00
 Coeff:     -0.285D-04 0.920D-04 0.372D-04-0.918D-04 0.109D-03 0.994D-03
 Coeff:      0.136D-02-0.315D-02-0.171D-01-0.437D-01 0.185D-01 0.385D+00
 Coeff:      0.658D+00
 Gap=     0.196 Goal=   None    Shift=    0.000
 Gap=     0.168 Goal=   None    Shift=    0.000
 RMSDP=1.70D-06 MaxDP=1.24D-04 DE=-1.35D-07 OVMax= 3.95D-05

 Cycle  14  Pass 1  IDiag  1:
 RMSU=  7.25D-07    CP:  4.54D-01  2.21D-01  8.71D-01  1.35D-01  4.23D-01
                    CP:  1.09D+00  1.20D+00  1.23D+00  1.12D+00  9.64D-01
                    CP:  8.26D-01  9.02D-01  1.12D+00
 E= -504.828105139981     Delta-E=       -0.000000017774 Rises=F Damp=F
 DIIS: error= 2.08D-06 at cycle  14 NSaved=  14.
 NSaved=14 IEnMin=14 EnMin= -504.828105139981     IErMin=14 ErrMin= 2.08D-06
 ErrMax= 2.08D-06 EMaxC= 1.00D-01 BMatC= 7.69D-09 BMatP= 6.22D-08
 IDIUse=1 WtCom= 1.00D+00 WtEn= 0.00D+00
 Coeff-Com:  0.876D-05-0.197D-04 0.987D-05-0.205D-04-0.796D-04-0.316D-03
 Coeff-Com:  0.298D-03 0.223D-02 0.144D-02-0.565D-02-0.418D-01-0.207D-01
 Coeff-Com:  0.179D+00 0.886D+00
 Coeff:      0.876D-05-0.197D-04 0.987D-05-0.205D-04-0.796D-04-0.316D-03
 Coeff:      0.298D-03 0.223D-02 0.144D-02-0.565D-02-0.418D-01-0.207D-01
 Coeff:      0.179D+00 0.886D+00
 Gap=     0.196 Goal=   None    Shift=    0.000
 Gap=     0.168 Goal=   None    Shift=    0.000
 RMSDP=6.45D-07 MaxDP=1.26D-04 DE=-1.78D-08 OVMax= 1.10D-05

 Cycle  15  Pass 1  IDiag  1:
 RMSU=  2.67D-07    CP:  4.54D-01  2.21D-01  8.71D-01  1.35D-01  4.23D-01
                    CP:  1.09D+00  1.20D+00  1.23D+00  1.12D+00  9.64D-01
                    CP:  8.18D-01  9.33D-01  1.20D+00  9.95D-01
 E= -504.828105141848     Delta-E=       -0.000000001867 Rises=F Damp=F
 DIIS: error= 7.33D-07 at cycle  15 NSaved=  15.
 NSaved=15 IEnMin=15 EnMin= -504.828105141848     IErMin=15 ErrMin= 7.33D-07
 ErrMax= 7.33D-07 EMaxC= 1.00D-01 BMatC= 9.11D-10 BMatP= 7.69D-09
 IDIUse=1 WtCom= 1.00D+00 WtEn= 0.00D+00
 Coeff-Com: -0.685D-05 0.613D-05 0.977D-05-0.531D-05-0.476D-04-0.283D-03
 Coeff-Com:  0.169D-04 0.148D-02 0.250D-02 0.177D-02-0.207D-01-0.475D-01
 Coeff-Com:  0.571D-02 0.353D+00 0.704D+00
 Coeff:     -0.685D-05 0.613D-05 0.977D-05-0.531D-05-0.476D-04-0.283D-03
 Coeff:      0.169D-04 0.148D-02 0.250D-02 0.177D-02-0.207D-01-0.475D-01
 Coeff:      0.571D-02 0.353D+00 0.704D+00
 Gap=     0.196 Goal=   None    Shift=    0.000
 Gap=     0.168 Goal=   None    Shift=    0.000
 RMSDP=2.95D-07 MaxDP=3.86D-05 DE=-1.87D-09 OVMax= 4.12D-06

 Cycle  16  Pass 1  IDiag  1:
 RMSU=  7.91D-08    CP:  4.54D-01  2.21D-01  8.71D-01  1.35D-01  4.23D-01
                    CP:  1.09D+00  1.20D+00  1.23D+00  1.12D+00  9.65D-01
                    CP:  8.16D-01  9.31D-01  1.25D+00  1.08D+00  8.79D-01
 E= -504.828105142092     Delta-E=       -0.000000000244 Rises=F Damp=F
 DIIS: error= 3.15D-07 at cycle  16 NSaved=  16.
 NSaved=16 IEnMin=16 EnMin= -504.828105142092     IErMin=16 ErrMin= 3.15D-07
 ErrMax= 3.15D-07 EMaxC= 1.00D-01 BMatC= 2.02D-10 BMatP= 9.11D-10
 IDIUse=1 WtCom= 1.00D+00 WtEn= 0.00D+00
 Coeff-Com: -0.762D-06 0.121D-05 0.186D-05-0.178D-05-0.164D-04-0.646D-04
 Coeff-Com: -0.404D-04 0.185D-03 0.760D-03 0.178D-02-0.989D-03-0.165D-01
 Coeff-Com: -0.306D-01-0.870D-02 0.313D+00 0.741D+00
 Coeff:     -0.762D-06 0.121D-05 0.186D-05-0.178D-05-0.164D-04-0.646D-04
 Coeff:     -0.404D-04 0.185D-03 0.760D-03 0.178D-02-0.989D-03-0.165D-01
 Coeff:     -0.306D-01-0.870D-02 0.313D+00 0.741D+00
 Gap=     0.196 Goal=   None    Shift=    0.000
 Gap=     0.168 Goal=   None    Shift=    0.000
 RMSDP=9.39D-08 MaxDP=1.14D-05 DE=-2.44D-10 OVMax= 1.51D-06

 Cycle  17  Pass 1  IDiag  1:
 RMSU=  3.62D-08    CP:  4.54D-01  2.21D-01  8.71D-01  1.35D-01  4.23D-01
                    CP:  1.09D+00  1.20D+00  1.23D+00  1.12D+00  9.65D-01
                    CP:  8.17D-01  9.30D-01  1.25D+00  1.08D+00  9.24D-01
                    CP:  8.48D-01
 E= -504.828105142143     Delta-E=       -0.000000000051 Rises=F Damp=F
 DIIS: error= 7.66D-08 at cycle  17 NSaved=  17.
 NSaved=17 IEnMin=17 EnMin= -504.828105142143     IErMin=17 ErrMin= 7.66D-08
 ErrMax= 7.66D-08 EMaxC= 1.00D-01 BMatC= 1.47D-11 BMatP= 2.02D-10
 IDIUse=1 WtCom= 1.00D+00 WtEn= 0.00D+00
 Coeff-Com: -0.122D-06 0.719D-06 0.499D-06-0.503D-06 0.374D-06 0.589D-05
 Coeff-Com: -0.153D-04-0.994D-04-0.333D-04 0.352D-03 0.244D-02 0.370D-03
 Coeff-Com: -0.120D-01-0.526D-01 0.171D-01 0.271D+00 0.773D+00
 Coeff:     -0.122D-06 0.719D-06 0.499D-06-0.503D-06 0.374D-06 0.589D-05
 Coeff:     -0.153D-04-0.994D-04-0.333D-04 0.352D-03 0.244D-02 0.370D-03
 Coeff:     -0.120D-01-0.526D-01 0.171D-01 0.271D+00 0.773D+00
 Gap=     0.196 Goal=   None    Shift=    0.000
 Gap=     0.168 Goal=   None    Shift=    0.000
 RMSDP=3.38D-08 MaxDP=4.23D-06 DE=-5.07D-11 OVMax= 5.59D-07

 Cycle  18  Pass 1  IDiag  1:
 RMSU=  1.09D-08    CP:  4.54D-01  2.21D-01  8.71D-01  1.35D-01  4.23D-01
                    CP:  1.09D+00  1.20D+00  1.23D+00  1.12D+00  9.65D-01
                    CP:  8.17D-01  9.32D-01  1.25D+00  1.08D+00  9.58D-01
                    CP:  9.15D-01  8.14D-01
 E= -504.828105142151     Delta-E=       -0.000000000008 Rises=F Damp=F
 DIIS: error= 2.27D-08 at cycle  18 NSaved=  18.
 NSaved=18 IEnMin=18 EnMin= -504.828105142151     IErMin=18 ErrMin= 2.27D-08
 ErrMax= 2.27D-08 EMaxC= 1.00D-01 BMatC= 1.13D-12 BMatP= 1.47D-11
 IDIUse=1 WtCom= 1.00D+00 WtEn= 0.00D+00
 Coeff-Com: -0.263D-06 0.403D-06 0.311D-06-0.148D-06 0.163D-05 0.447D-05
 Coeff-Com: -0.290D-05-0.343D-04-0.528D-04-0.330D-04 0.694D-03 0.128D-02
 Coeff-Com: -0.529D-03-0.124D-01-0.216D-01 0.229D-02 0.213D+00 0.817D+00
 Coeff:     -0.263D-06 0.403D-06 0.311D-06-0.148D-06 0.163D-05 0.447D-05
 Coeff:     -0.290D-05-0.343D-04-0.528D-04-0.330D-04 0.694D-03 0.128D-02
 Coeff:     -0.529D-03-0.124D-01-0.216D-01 0.229D-02 0.213D+00 0.817D+00
 Gap=     0.196 Goal=   None    Shift=    0.000
 Gap=     0.168 Goal=   None    Shift=    0.000
 RMSDP=8.58D-09 MaxDP=1.02D-06 DE=-8.41D-12 OVMax= 1.31D-07

 Cycle  19  Pass 1  IDiag  1:
 RMSU=  3.50D-09    CP:  4.54D-01  2.21D-01  8.71D-01  1.35D-01  4.23D-01
                    CP:  1.09D+00  1.20D+00  1.23D+00  1.12D+00  9.65D-01
                    CP:  8.17D-01  9.32D-01  1.25D+00  1.08D+00  9.53D-01
                    CP:  9.24D-01  8.53D-01  8.97D-01
 E= -504.828105142154     Delta-E=       -0.000000000003 Rises=F Damp=F
 DIIS: error= 9.39D-09 at cycle  19 NSaved=  19.
 NSaved=19 IEnMin=19 EnMin= -504.828105142154     IErMin=19 ErrMin= 9.39D-09
 ErrMax= 9.39D-09 EMaxC= 1.00D-01 BMatC= 2.20D-13 BMatP= 1.13D-12
 IDIUse=1 WtCom= 1.00D+00 WtEn= 0.00D+00
 Coeff-Com: -0.116D-07-0.184D-07 0.609D-07-0.973D-07 0.298D-06 0.124D-05
 Coeff-Com:  0.253D-06-0.312D-05-0.147D-04-0.382D-04-0.422D-04 0.390D-03
 Coeff-Com:  0.128D-02 0.263D-02-0.986D-02-0.337D-01-0.199D-01 0.299D+00
 Coeff-Com:  0.760D+00
 Coeff:     -0.116D-07-0.184D-07 0.609D-07-0.973D-07 0.298D-06 0.124D-05
 Coeff:      0.253D-06-0.312D-05-0.147D-04-0.382D-04-0.422D-04 0.390D-03
 Coeff:      0.128D-02 0.263D-02-0.986D-02-0.337D-01-0.199D-01 0.299D+00
 Coeff:      0.760D+00
 Gap=     0.196 Goal=   None    Shift=    0.000
 Gap=     0.168 Goal=   None    Shift=    0.000
 RMSDP=2.94D-09 MaxDP=2.51D-07 DE=-2.96D-12 OVMax= 6.46D-08

 SCF Done:  E(UB3LYP) =  -504.828105142     A.U. after   19 cycles
             Convg  =    0.2936D-08             -V/T =  2.0042
 <Sx>= 0.0000 <Sy>= 0.0000 <Sz>= 0.5000 <S**2>= 0.7532 S= 0.5016
 <L.S>= 0.000000000000E+00
 KE= 5.027260770998D+02 PE=-2.474066956828D+03 EE= 8.176688745806D+02
 Annihilation of the first spin contaminant:
 S**2 before annihilation     0.7532,   after     0.7500
 Leave Link  502 at Thu Feb  6 23:46:00 2014, MaxMem= 4026531840 cpu:    1912.5
 (Enter /usr/caen/gaussian-09revc/g09/l601.exe)
 Copying SCF densities to generalized density rwf, IOpCl= 1 IROHF=0.

 **********************************************************************

            Population analysis using the SCF density.

 **********************************************************************

 Orbital symmetries:
 Alpha Orbitals:
       Occupied  (A) (A) (A) (A) (A) (A) (A) (A) (A) (A) (A) (A)
                 (A) (A) (A) (A) (A) (A) (A) (A) (A) (A) (A) (A)
                 (A) (A) (A) (A) (A) (A) (A) (A) (A) (A) (A) (A)
                 (A) (A) (A) (A) (A) (A) (A) (A) (A)
       Virtual   (A) (A) (A) (A) (A) (A) (A) (A) (A) (A) (A) (A)
                 (A) (A) (A) (A) (A) (A) (A) (A) (A) (A) (A) (A)
                 (A) (A) (A) (A) (A) (A) (A) (A) (A) (A) (A) (A)
                 (A) (A) (A) (A) (A) (A) (A) (A) (A) (A) (A) (A)
                 (A) (A) (A) (A) (A) (A) (A) (A) (A) (A) (A) (A)
                 (A) (A) (A) (A) (A) (A) (A) (A) (A) (A) (A) (A)
                 (A) (A) (A) (A) (A) (A) (A) (A) (A) (A) (A) (A)
                 (A) (A) (A) (A) (A) (A) (A) (A) (A) (A) (A) (A)
                 (A) (A) (A) (A) (A) (A) (A) (A) (A) (A) (A) (A)
                 (A) (A) (A) (A) (A) (A) (A) (A) (A) (A) (A) (A)
                 (A) (A) (A) (A) (A) (A) (A) (A) (A) (A) (A) (A)
                 (A) (A) (A) (A) (A) (A) (A) (A) (A) (A) (A) (A)
                 (A) (A) (A) (A) (A) (A) (A) (A) (A) (A) (A) (A)
                 (A) (A) (A) (A) (A) (A) (A) (A) (A) (A) (A) (A)
                 (A) (A) (A) (A) (A) (A) (A) (A) (A) (A) (A) (A)
                 (A) (A) (A) (A) (A) (A) (A) (A) (A) (A) (A) (A)
                 (A) (A) (A) (A) (A) (A) (A) (A) (A) (A) (A) (A)
                 (A) (A) (A) (A) (A) (A) (A) (A) (A) (A) (A) (A)
                 (A) (A) (A) (A) (A) (A) (A) (A) (A) (A) (A) (A)
                 (A) (A) (A) (A) (A) (A) (A) (A) (A) (A) (A) (A)
                 (A) (A) (A) (A) (A) (A) (A) (A) (A) (A) (A) (A)
                 (A) (A) (A) (A) (A) (A) (A) (A) (A) (A) (A) (A)
                 (A) (A) (A) (A) (A) (A) (A) (A) (A) (A) (A) (A)
                 (A) (A) (A) (A) (A) (A) (A) (A) (A) (A) (A) (A)
                 (A) (A) (A) (A) (A) (A) (A) (A) (A) (A) (A) (A)
                 (A) (A) (A) (A) (A) (A) (A) (A) (A) (A) (A) (A)
                 (A) (A) (A) (A) (A) (A) (A) (A) (A) (A) (A) (A)
                 (A) (A) (A) (A) (A) (A)
 Beta  Orbitals:
       Occupied  (A) (A) (A) (A) (A) (A) (A) (A) (A) (A) (A) (A)
                 (A) (A) (A) (A) (A) (A) (A) (A) (A) (A) (A) (A)
                 (A) (A) (A) (A) (A) (A) (A) (A) (A) (A) (A) (A)
                 (A) (A) (A) (A) (A) (A) (A) (A)
       Virtual   (A) (A) (A) (A) (A) (A) (A) (A) (A) (A) (A) (A)
                 (A) (A) (A) (A) (A) (A) (A) (A) (A) (A) (A) (A)
                 (A) (A) (A) (A) (A) (A) (A) (A) (A) (A) (A) (A)
                 (A) (A) (A) (A) (A) (A) (A) (A) (A) (A) (A) (A)
                 (A) (A) (A) (A) (A) (A) (A) (A) (A) (A) (A) (A)
                 (A) (A) (A) (A) (A) (A) (A) (A) (A) (A) (A) (A)
                 (A) (A) (A) (A) (A) (A) (A) (A) (A) (A) (A) (A)
                 (A) (A) (A) (A) (A) (A) (A) (A) (A) (A) (A) (A)
                 (A) (A) (A) (A) (A) (A) (A) (A) (A) (A) (A) (A)
                 (A) (A) (A) (A) (A) (A) (A) (A) (A) (A) (A) (A)
                 (A) (A) (A) (A) (A) (A) (A) (A) (A) (A) (A) (A)
                 (A) (A) (A) (A) (A) (A) (A) (A) (A) (A) (A) (A)
                 (A) (A) (A) (A) (A) (A) (A) (A) (A) (A) (A) (A)
                 (A) (A) (A) (A) (A) (A) (A) (A) (A) (A) (A) (A)
                 (A) (A) (A) (A) (A) (A) (A) (A) (A) (A) (A) (A)
                 (A) (A) (A) (A) (A) (A) (A) (A) (A) (A) (A) (A)
                 (A) (A) (A) (A) (A) (A) (A) (A) (A) (A) (A) (A)
                 (A) (A) (A) (A) (A) (A) (A) (A) (A) (A) (A) (A)
                 (A) (A) (A) (A) (A) (A) (A) (A) (A) (A) (A) (A)
                 (A) (A) (A) (A) (A) (A) (A) (A) (A) (A) (A) (A)
                 (A) (A) (A) (A) (A) (A) (A) (A) (A) (A) (A) (A)
                 (A) (A) (A) (A) (A) (A) (A) (A) (A) (A) (A) (A)
                 (A) (A) (A) (A) (A) (A) (A) (A) (A) (A) (A) (A)
                 (A) (A) (A) (A) (A) (A) (A) (A) (A) (A) (A) (A)
                 (A) (A) (A) (A) (A) (A) (A) (A) (A) (A) (A) (A)
                 (A) (A) (A) (A) (A) (A) (A) (A) (A) (A) (A) (A)
                 (A) (A) (A) (A) (A) (A) (A) (A) (A) (A) (A) (A)
                 (A) (A) (A) (A) (A) (A) (A)
 The electronic state is 2-A.
 Alpha  occ. eigenvalues --  -19.17421 -19.16932 -10.22114 -10.19060 -10.17675
 Alpha  occ. eigenvalues --  -10.16424 -10.15968 -10.15961 -10.15940 -10.15940
 Alpha  occ. eigenvalues --  -10.15579  -1.17710  -0.90194  -0.81677  -0.79652
 Alpha  occ. eigenvalues --   -0.74622  -0.68604  -0.68165  -0.67414  -0.60453
 Alpha  occ. eigenvalues --   -0.57568  -0.54608  -0.53391  -0.49872  -0.47601
 Alpha  occ. eigenvalues --   -0.46372  -0.44708  -0.43770  -0.43324  -0.42063
 Alpha  occ. eigenvalues --   -0.41331  -0.40225  -0.38899  -0.38241  -0.36681
 Alpha  occ. eigenvalues --   -0.36172  -0.35464  -0.35084  -0.33674  -0.32695
 Alpha  occ. eigenvalues --   -0.31870  -0.30751  -0.30542  -0.23254  -0.20819
 Alpha virt. eigenvalues --   -0.01197  -0.00110  -0.00057   0.00716   0.01823
 Alpha virt. eigenvalues --    0.02104   0.02648   0.03137   0.03880   0.04206
 Alpha virt. eigenvalues --    0.04333   0.04844   0.05668   0.05824   0.06096
 Alpha virt. eigenvalues --    0.07029   0.07306   0.08127   0.08444   0.08903
 Alpha virt. eigenvalues --    0.09239   0.09619   0.10692   0.11121   0.11450
 Alpha virt. eigenvalues --    0.11601   0.12192   0.12336   0.12478   0.13031
 Alpha virt. eigenvalues --    0.13320   0.13499   0.13716   0.14280   0.14321
 Alpha virt. eigenvalues --    0.14637   0.14998   0.15271   0.15706   0.15736
 Alpha virt. eigenvalues --    0.16002   0.16738   0.16945   0.17239   0.17416
 Alpha virt. eigenvalues --    0.17873   0.18175   0.18444   0.18751   0.19057
 Alpha virt. eigenvalues --    0.19448   0.20035   0.20266   0.20896   0.21309
 Alpha virt. eigenvalues --    0.21644   0.21825   0.22143   0.22864   0.23003
 Alpha virt. eigenvalues --    0.23603   0.24175   0.24571   0.25422   0.26335
 Alpha virt. eigenvalues --    0.26566   0.26824   0.27260   0.27981   0.28276
 Alpha virt. eigenvalues --    0.28731   0.29173   0.29968   0.30489   0.31425
 Alpha virt. eigenvalues --    0.31997   0.32695   0.32898   0.33572   0.34060
 Alpha virt. eigenvalues --    0.34300   0.35354   0.35469   0.35689   0.36642
 Alpha virt. eigenvalues --    0.37282   0.38159   0.38972   0.39326   0.40583
 Alpha virt. eigenvalues --    0.42676   0.43603   0.44701   0.47012   0.47488
 Alpha virt. eigenvalues --    0.48062   0.50515   0.51666   0.52531   0.54052
 Alpha virt. eigenvalues --    0.54608   0.55648   0.55728   0.56498   0.57932
 Alpha virt. eigenvalues --    0.58743   0.60323   0.60629   0.61545   0.62440
 Alpha virt. eigenvalues --    0.63644   0.64712   0.65645   0.65928   0.66610
 Alpha virt. eigenvalues --    0.66981   0.68539   0.69250   0.69670   0.70147
 Alpha virt. eigenvalues --    0.71201   0.71526   0.71892   0.72827   0.73667
 Alpha virt. eigenvalues --    0.74284   0.74614   0.75547   0.76613   0.77508
 Alpha virt. eigenvalues --    0.77744   0.78911   0.79441   0.80634   0.81654
 Alpha virt. eigenvalues --    0.82545   0.84245   0.86537   0.88520   0.91909
 Alpha virt. eigenvalues --    0.94356   0.96481   0.97786   0.99439   1.01222
 Alpha virt. eigenvalues --    1.03326   1.04080   1.05386   1.06617   1.09362
 Alpha virt. eigenvalues --    1.10846   1.13260   1.14192   1.14645   1.18147
 Alpha virt. eigenvalues --    1.18701   1.21273   1.22190   1.25044   1.27271
 Alpha virt. eigenvalues --    1.28461   1.32588   1.34267   1.36283   1.38434
 Alpha virt. eigenvalues --    1.42020   1.43169   1.45089   1.45796   1.46092
 Alpha virt. eigenvalues --    1.47549   1.48489   1.49813   1.51251   1.54307
 Alpha virt. eigenvalues --    1.55302   1.56835   1.58010   1.58236   1.58532
 Alpha virt. eigenvalues --    1.59795   1.60139   1.60322   1.61622   1.61801
 Alpha virt. eigenvalues --    1.62796   1.63561   1.65034   1.65494   1.65877
 Alpha virt. eigenvalues --    1.67748   1.68296   1.68368   1.70226   1.71061
 Alpha virt. eigenvalues --    1.72046   1.73685   1.74372   1.76117   1.76832
 Alpha virt. eigenvalues --    1.77848   1.79158   1.79775   1.81056   1.82678
 Alpha virt. eigenvalues --    1.84017   1.87574   1.88884   1.89604   1.92326
 Alpha virt. eigenvalues --    1.94442   1.96379   1.97271   1.99544   2.02271
 Alpha virt. eigenvalues --    2.03261   2.05373   2.07774   2.09135   2.10458
 Alpha virt. eigenvalues --    2.12208   2.13315   2.14707   2.17636   2.18706
 Alpha virt. eigenvalues --    2.21704   2.24123   2.27496   2.28356   2.30264
 Alpha virt. eigenvalues --    2.32539   2.33299   2.35338   2.37551   2.40904
 Alpha virt. eigenvalues --    2.41901   2.42352   2.46489   2.47365   2.48212
 Alpha virt. eigenvalues --    2.48862   2.49390   2.50301   2.51109   2.52288
 Alpha virt. eigenvalues --    2.53635   2.53977   2.54147   2.55250   2.56274
 Alpha virt. eigenvalues --    2.58016   2.60120   2.61004   2.62563   2.63870
 Alpha virt. eigenvalues --    2.64402   2.65406   2.67426   2.68166   2.69516
 Alpha virt. eigenvalues --    2.70019   2.71271   2.72383   2.74967   2.75952
 Alpha virt. eigenvalues --    2.76728   2.78814   2.80441   2.82051   2.84074
 Alpha virt. eigenvalues --    2.86288   2.89060   2.92387   2.92973   2.94495
 Alpha virt. eigenvalues --    2.95681   2.99005   3.00159   3.00814   3.02923
 Alpha virt. eigenvalues --    3.03748   3.05497   3.08017   3.11701   3.13832
 Alpha virt. eigenvalues --    3.16528   3.20771   3.26052   3.33052   3.41893
 Alpha virt. eigenvalues --    3.44906   3.51212   3.66346   3.76795   3.77823
 Alpha virt. eigenvalues --    3.79210   3.80222   3.80666   3.82227   3.82628
 Alpha virt. eigenvalues --    3.84653   3.85711   3.86532   3.89031   3.92627
 Alpha virt. eigenvalues --    3.98478   4.02209   4.10233   4.19033   4.24664
 Alpha virt. eigenvalues --    4.29635   4.30373   4.39841   4.90571   4.96283
 Alpha virt. eigenvalues --    5.10317   5.34350   5.55972   6.11061  23.71906
 Alpha virt. eigenvalues --   23.83624  23.87216  23.89804  23.91991  23.93923
 Alpha virt. eigenvalues --   23.96492  23.98042  23.99001  49.85681  49.90139
  Beta  occ. eigenvalues --  -19.17421 -19.16932 -10.22114 -10.17676 -10.17629
  Beta  occ. eigenvalues --  -10.16447 -10.15996 -10.15962 -10.15955 -10.15926
  Beta  occ. eigenvalues --  -10.15579  -1.17710  -0.90194  -0.81248  -0.78876
  Beta  occ. eigenvalues --   -0.74318  -0.68384  -0.68162  -0.67296  -0.60229
  Beta  occ. eigenvalues --   -0.57554  -0.54596  -0.51683  -0.49838  -0.47546
  Beta  occ. eigenvalues --   -0.45917  -0.44395  -0.43560  -0.42608  -0.41732
  Beta  occ. eigenvalues --   -0.41244  -0.40002  -0.38439  -0.38077  -0.36596
  Beta  occ. eigenvalues --   -0.36104  -0.35282  -0.34942  -0.33443  -0.32556
  Beta  occ. eigenvalues --   -0.31658  -0.30662  -0.30284  -0.23254
  Beta virt. eigenvalues --   -0.06484  -0.01122  -0.00106   0.00145   0.00713
  Beta virt. eigenvalues --    0.01821   0.02119   0.02745   0.03146   0.03886
  Beta virt. eigenvalues --    0.04264   0.04390   0.04883   0.05771   0.05861
  Beta virt. eigenvalues --    0.06180   0.07029   0.07402   0.08145   0.08477
  Beta virt. eigenvalues --    0.08915   0.09251   0.09638   0.10758   0.11140
  Beta virt. eigenvalues --    0.11507   0.11640   0.12197   0.12352   0.12490
  Beta virt. eigenvalues --    0.13035   0.13359   0.13594   0.13764   0.14331
  Beta virt. eigenvalues --    0.14357   0.14771   0.15067   0.15302   0.15751
  Beta virt. eigenvalues --    0.15824   0.16180   0.16785   0.17012   0.17342
  Beta virt. eigenvalues --    0.17546   0.17988   0.18322   0.18522   0.18792
  Beta virt. eigenvalues --    0.19159   0.19485   0.20064   0.20392   0.21018
  Beta virt. eigenvalues --    0.21368   0.21687   0.21885   0.22194   0.22927
  Beta virt. eigenvalues --    0.23150   0.23677   0.24228   0.24796   0.25617
  Beta virt. eigenvalues --    0.26434   0.26738   0.27135   0.27604   0.28289
  Beta virt. eigenvalues --    0.28480   0.28907   0.29316   0.30342   0.30816
  Beta virt. eigenvalues --    0.31722   0.32150   0.32927   0.33185   0.33717
  Beta virt. eigenvalues --    0.34248   0.34496   0.35460   0.35692   0.35946
  Beta virt. eigenvalues --    0.36810   0.37357   0.38282   0.39075   0.39322
  Beta virt. eigenvalues --    0.40626   0.42805   0.43709   0.44819   0.47163
  Beta virt. eigenvalues --    0.47555   0.48167   0.50688   0.51862   0.52601
  Beta virt. eigenvalues --    0.54171   0.54743   0.55773   0.55995   0.56560
  Beta virt. eigenvalues --    0.58063   0.58848   0.60556   0.60874   0.62057
  Beta virt. eigenvalues --    0.63402   0.64321   0.64814   0.65985   0.66265
  Beta virt. eigenvalues --    0.67079   0.67200   0.68808   0.69371   0.70135
  Beta virt. eigenvalues --    0.70306   0.71356   0.71771   0.72160   0.73019
  Beta virt. eigenvalues --    0.73852   0.74441   0.74703   0.75843   0.76693
  Beta virt. eigenvalues --    0.77586   0.77780   0.79072   0.79512   0.80744
  Beta virt. eigenvalues --    0.81777   0.83083   0.84375   0.86844   0.88650
  Beta virt. eigenvalues --    0.92210   0.95503   0.96651   0.98164   1.00096
  Beta virt. eigenvalues --    1.01309   1.03561   1.04308   1.05441   1.06866
  Beta virt. eigenvalues --    1.09430   1.10894   1.13349   1.14222   1.14658
  Beta virt. eigenvalues --    1.18239   1.18937   1.21384   1.22314   1.25409
  Beta virt. eigenvalues --    1.27409   1.28869   1.32730   1.34458   1.36344
  Beta virt. eigenvalues --    1.39209   1.42037   1.43859   1.45748   1.46268
  Beta virt. eigenvalues --    1.46426   1.47837   1.48545   1.50336   1.51642
  Beta virt. eigenvalues --    1.54442   1.56009   1.57156   1.58239   1.58722
  Beta virt. eigenvalues --    1.59260   1.59930   1.60483   1.61082   1.61898
  Beta virt. eigenvalues --    1.62497   1.63089   1.63809   1.65138   1.65659
  Beta virt. eigenvalues --    1.65960   1.67822   1.68516   1.68765   1.70399
  Beta virt. eigenvalues --    1.71227   1.72142   1.73819   1.74659   1.76292
  Beta virt. eigenvalues --    1.76919   1.78066   1.79281   1.79926   1.81128
  Beta virt. eigenvalues --    1.82853   1.84046   1.88042   1.89067   1.90005
  Beta virt. eigenvalues --    1.92866   1.94710   1.97071   1.97782   2.00100
  Beta virt. eigenvalues --    2.02477   2.03455   2.05430   2.07990   2.09352
  Beta virt. eigenvalues --    2.10893   2.12397   2.13540   2.14893   2.17748
  Beta virt. eigenvalues --    2.19073   2.21897   2.24387   2.27824   2.28475
  Beta virt. eigenvalues --    2.30434   2.32802   2.34119   2.36095   2.38221
  Beta virt. eigenvalues --    2.41698   2.42023   2.42513   2.46887   2.47421
  Beta virt. eigenvalues --    2.48297   2.48956   2.49538   2.50591   2.51446
  Beta virt. eigenvalues --    2.52465   2.53748   2.54047   2.54296   2.55435
  Beta virt. eigenvalues --    2.56437   2.58362   2.60272   2.61069   2.62755
  Beta virt. eigenvalues --    2.64033   2.64725   2.65585   2.67497   2.68328
  Beta virt. eigenvalues --    2.69564   2.70362   2.71587   2.72669   2.75262
  Beta virt. eigenvalues --    2.76159   2.76903   2.78929   2.80546   2.82133
  Beta virt. eigenvalues --    2.84106   2.86360   2.89333   2.92461   2.93068
  Beta virt. eigenvalues --    2.94791   2.96158   2.99231   3.00220   3.01267
  Beta virt. eigenvalues --    3.03008   3.04330   3.06062   3.10976   3.11927
  Beta virt. eigenvalues --    3.13965   3.16954   3.20802   3.26210   3.33062
  Beta virt. eigenvalues --    3.41990   3.44946   3.51244   3.67213   3.76894
  Beta virt. eigenvalues --    3.78102   3.79227   3.80352   3.80675   3.82326
  Beta virt. eigenvalues --    3.82639   3.84687   3.86038   3.86601   3.89158
  Beta virt. eigenvalues --    3.92628   3.98480   4.02213   4.10422   4.19374
  Beta virt. eigenvalues --    4.25720   4.29682   4.30778   4.40011   4.90571
  Beta virt. eigenvalues --    4.96283   5.10317   5.34350   5.55972   6.11061
  Beta virt. eigenvalues --   23.73516  23.83624  23.87214  23.89799  23.91999
  Beta virt. eigenvalues --   23.93929  23.96497  23.98024  23.99001  49.85681
  Beta virt. eigenvalues --   49.90139
          Condensed to atoms (all electrons):
              1          2          3          4          5          6
     1  C    6.135121   0.408753   0.416792   0.384912  -0.783877  -0.093559
     2  H    0.408753   0.594034  -0.043391  -0.026077  -0.116722  -0.017395
     3  H    0.416792  -0.043391   0.518802  -0.031917   0.074371   0.015577
     4  H    0.384912  -0.026077  -0.031917   0.578743   0.004411  -0.010504
     5  C   -0.783877  -0.116722   0.074371   0.004411   9.472357   0.503751
     6  H   -0.093559  -0.017395   0.015577  -0.010504   0.503751   0.630274
     7  C    0.678529   0.038536  -0.106723   0.019882  -3.107005  -0.125700
     8  H    0.005913   0.000488   0.000775   0.001186  -0.111675  -0.010391
     9  H    0.004397   0.003330   0.008713  -0.003559  -0.015129   0.013240
    10  C   -0.207003   0.003368   0.011085  -0.005654   0.528145  -0.018631
    11  H    0.011995   0.000376   0.000594  -0.000010  -0.108489  -0.004716
    12  H    0.014113   0.000513   0.003074   0.000102   0.082789   0.008004
    13  C   -0.113277   0.002865  -0.004285  -0.003841  -0.215224   0.013559
    14  H    0.003949  -0.000953   0.000435   0.000256  -0.000808  -0.001072
    15  H   -0.001280   0.001753  -0.000491  -0.000273  -0.015009  -0.000896
    16  C   -0.002771   0.003011   0.000632  -0.001304  -0.245512  -0.012543
    17  C   -0.005286  -0.000010  -0.000040  -0.000066   0.001616   0.000269
    18  H    0.000237   0.000039   0.000002  -0.000005  -0.000551   0.000002
    19  H   -0.000160   0.000019  -0.000004  -0.000007  -0.000898  -0.000065
    20  H   -0.000073  -0.000097   0.000011   0.000017   0.002287   0.000126
    21  C   -0.304412   0.021350  -0.046149  -0.046081  -0.340643  -0.047831
    22  H   -0.044099   0.004315  -0.001379  -0.000947  -0.131906   0.002482
    23  H    0.046859  -0.004595   0.002500   0.001440  -0.015807  -0.004513
    24  C    0.001650  -0.000108   0.000072  -0.000012  -0.004108   0.003176
    25  H    0.000113   0.000002   0.000011  -0.000007  -0.001712   0.000126
    26  H    0.000086  -0.000009  -0.000006   0.000020   0.002897  -0.000345
    27  H   -0.001795   0.000047  -0.000166  -0.000027  -0.004422   0.000465
    28  O    0.077675  -0.000445   0.011215  -0.002534  -0.185335   0.012077
    29  O   -0.021759   0.000721  -0.001591  -0.001327  -0.154807  -0.009315
    30  H   -0.008845  -0.000110  -0.001064   0.000564   0.052948   0.003198
              7          8          9         10         11         12
     1  C    0.678529   0.005913   0.004397  -0.207003   0.011995   0.014113
     2  H    0.038536   0.000488   0.003330   0.003368   0.000376   0.000513
     3  H   -0.106723   0.000775   0.008713   0.011085   0.000594   0.003074
     4  H    0.019882   0.001186  -0.003559  -0.005654  -0.000010   0.000102
     5  C   -3.107005  -0.111675  -0.015129   0.528145  -0.108489   0.082789
     6  H   -0.125700  -0.010391   0.013240  -0.018631  -0.004716   0.008004
     7  C   10.872214   0.456239   0.445380  -2.134350  -0.026220  -0.169430
     8  H    0.456239   0.655033  -0.069895  -0.109928  -0.029310   0.016869
     9  H    0.445380  -0.069895   0.524185  -0.029127   0.017499  -0.011216
    10  C   -2.134350  -0.109928  -0.029127   8.216071   0.536347   0.465490
    11  H   -0.026220  -0.029310   0.017499   0.536347   0.670807  -0.114316
    12  H   -0.169430   0.016869  -0.011216   0.465490  -0.114316   0.728087
    13  C    0.439225   0.010229  -0.000789  -1.819812  -0.170121  -0.054884
    14  H    0.011696  -0.001959   0.007227  -0.082366   0.025586  -0.017649
    15  H   -0.019601   0.004023  -0.000919  -0.019842  -0.027220   0.011740
    16  C   -0.525252  -0.018789  -0.003778   0.538111   0.114044   0.014906
    17  C   -0.127745  -0.005262   0.002976  -0.273749  -0.001820  -0.004962
    18  H    0.003932  -0.000465   0.000236   0.011161   0.000627   0.004141
    19  H   -0.006877  -0.000188   0.000235   0.000817   0.000304  -0.000054
    20  H    0.001939   0.001325  -0.000499   0.003242  -0.000583  -0.002075
    21  C   -0.157671   0.041121  -0.046487   0.290151  -0.005299  -0.070683
    22  H    0.084332   0.002630  -0.001827  -0.009602  -0.002027  -0.001874
    23  H   -0.034814   0.006389  -0.007232   0.024527   0.000709   0.018565
    24  C    0.165576   0.010123  -0.007894   0.139345  -0.045280   0.014068
    25  H    0.005558   0.000349  -0.000181   0.008113  -0.001217  -0.001569
    26  H   -0.012241  -0.000540  -0.000454   0.034424   0.003956   0.001514
    27  H   -0.009654  -0.000197   0.000403   0.020003  -0.000488  -0.010037
    28  O    0.114368   0.009900  -0.008691  -0.055766   0.001112   0.011569
    29  O    0.079057  -0.001659   0.005641   0.027793   0.003145   0.001559
    30  H   -0.024313  -0.000060  -0.001367  -0.008099  -0.001403  -0.001459
             13         14         15         16         17         18
     1  C   -0.113277   0.003949  -0.001280  -0.002771  -0.005286   0.000237
     2  H    0.002865  -0.000953   0.001753   0.003011  -0.000010   0.000039
     3  H   -0.004285   0.000435  -0.000491   0.000632  -0.000040   0.000002
     4  H   -0.003841   0.000256  -0.000273  -0.001304  -0.000066  -0.000005
     5  C   -0.215224  -0.000808  -0.015009  -0.245512   0.001616  -0.000551
     6  H    0.013559  -0.001072  -0.000896  -0.012543   0.000269   0.000002
     7  C    0.439225   0.011696  -0.019601  -0.525252  -0.127745   0.003932
     8  H    0.010229  -0.001959   0.004023  -0.018789  -0.005262  -0.000465
     9  H   -0.000789   0.007227  -0.000919  -0.003778   0.002976   0.000236
    10  C   -1.819812  -0.082366  -0.019842   0.538111  -0.273749   0.011161
    11  H   -0.170121   0.025586  -0.027220   0.114044  -0.001820   0.000627
    12  H   -0.054884  -0.017649   0.011740   0.014906  -0.004962   0.004141
    13  C    9.324320   0.416295   0.418037  -1.981552   0.513104  -0.122243
    14  H    0.416295   0.630310  -0.086390  -0.010765  -0.005453   0.013762
    15  H    0.418037  -0.086390   0.663085  -0.085941   0.004400   0.001337
    16  C   -1.981552  -0.010765  -0.085941   8.138754  -0.240312   0.131524
    17  C    0.513104  -0.005453   0.004400  -0.240312   5.892132   0.339035
    18  H   -0.122243   0.013762   0.001337   0.131524   0.339035   0.580972
    19  H    0.034837  -0.004635   0.001358  -0.086807   0.397506  -0.037632
    20  H    0.018373   0.002856   0.000252  -0.104121   0.404320  -0.053157
    21  C    0.085038  -0.001658   0.003402   0.020970   0.005741  -0.000393
    22  H    0.013486  -0.000997   0.000175   0.000218   0.000211   0.000014
    23  H   -0.048107   0.002446  -0.000288  -0.005488  -0.000788  -0.000044
    24  C    0.011229  -0.077577   0.039464  -0.203951  -0.280542  -0.034362
    25  H    0.035202  -0.005953  -0.001162  -0.113208  -0.003541  -0.000403
    26  H   -0.131859   0.030861  -0.004616   0.094756  -0.018362   0.021585
    27  H    0.012889  -0.002415   0.003554  -0.107522   0.017584  -0.007362
    28  O   -0.017322   0.000246   0.000103   0.000124  -0.000489   0.000030
    29  O    0.012487   0.000595  -0.000039   0.006989   0.000508  -0.000058
    30  H    0.000653  -0.000275  -0.000009  -0.002335  -0.000065   0.000010
             19         20         21         22         23         24
     1  C   -0.000160  -0.000073  -0.304412  -0.044099   0.046859   0.001650
     2  H    0.000019  -0.000097   0.021350   0.004315  -0.004595  -0.000108
     3  H   -0.000004   0.000011  -0.046149  -0.001379   0.002500   0.000072
     4  H   -0.000007   0.000017  -0.046081  -0.000947   0.001440  -0.000012
     5  C   -0.000898   0.002287  -0.340643  -0.131906  -0.015807  -0.004108
     6  H   -0.000065   0.000126  -0.047831   0.002482  -0.004513   0.003176
     7  C   -0.006877   0.001939  -0.157671   0.084332  -0.034814   0.165576
     8  H   -0.000188   0.001325   0.041121   0.002630   0.006389   0.010123
     9  H    0.000235  -0.000499  -0.046487  -0.001827  -0.007232  -0.007894
    10  C    0.000817   0.003242   0.290151  -0.009602   0.024527   0.139345
    11  H    0.000304  -0.000583  -0.005299  -0.002027   0.000709  -0.045280
    12  H   -0.000054  -0.002075  -0.070683  -0.001874   0.018565   0.014068
    13  C    0.034837   0.018373   0.085038   0.013486  -0.048107   0.011229
    14  H   -0.004635   0.002856  -0.001658  -0.000997   0.002446  -0.077577
    15  H    0.001358   0.000252   0.003402   0.000175  -0.000288   0.039464
    16  C   -0.086807  -0.104121   0.020970   0.000218  -0.005488  -0.203951
    17  C    0.397506   0.404320   0.005741   0.000211  -0.000788  -0.280542
    18  H   -0.037632  -0.053157  -0.000393   0.000014  -0.000044  -0.034362
    19  H    0.556610  -0.014740   0.000258   0.000014  -0.000143  -0.002163
    20  H   -0.014740   0.576973  -0.000064  -0.000017   0.000149   0.030371
    21  C    0.000258  -0.000064   6.323436   0.417302   0.295627   0.006195
    22  H    0.000014  -0.000017   0.417302   0.551467  -0.027580   0.000816
    23  H   -0.000143   0.000149   0.295627  -0.027580   0.585007   0.001733
    24  C   -0.002163   0.030371   0.006195   0.000816   0.001733   5.761451
    25  H    0.001781   0.000808  -0.000210   0.000019   0.000237   0.424512
    26  H   -0.001744  -0.003060   0.000407  -0.000117   0.000488   0.338112
    27  H    0.001854  -0.000591   0.009400   0.000597  -0.005829   0.420468
    28  O   -0.000025  -0.000002   0.105375  -0.081153  -0.009511   0.000478
    29  O    0.000037  -0.000022   0.049775   0.026035   0.021139   0.001304
    30  H   -0.000012   0.000008   0.009970  -0.003767  -0.007712   0.000135
             25         26         27         28         29         30
     1  C    0.000113   0.000086  -0.001795   0.077675  -0.021759  -0.008845
     2  H    0.000002  -0.000009   0.000047  -0.000445   0.000721  -0.000110
     3  H    0.000011  -0.000006  -0.000166   0.011215  -0.001591  -0.001064
     4  H   -0.000007   0.000020  -0.000027  -0.002534  -0.001327   0.000564
     5  C   -0.001712   0.002897  -0.004422  -0.185335  -0.154807   0.052948
     6  H    0.000126  -0.000345   0.000465   0.012077  -0.009315   0.003198
     7  C    0.005558  -0.012241  -0.009654   0.114368   0.079057  -0.024313
     8  H    0.000349  -0.000540  -0.000197   0.009900  -0.001659  -0.000060
     9  H   -0.000181  -0.000454   0.000403  -0.008691   0.005641  -0.001367
    10  C    0.008113   0.034424   0.020003  -0.055766   0.027793  -0.008099
    11  H   -0.001217   0.003956  -0.000488   0.001112   0.003145  -0.001403
    12  H   -0.001569   0.001514  -0.010037   0.011569   0.001559  -0.001459
    13  C    0.035202  -0.131859   0.012889  -0.017322   0.012487   0.000653
    14  H   -0.005953   0.030861  -0.002415   0.000246   0.000595  -0.000275
    15  H   -0.001162  -0.004616   0.003554   0.000103  -0.000039  -0.000009
    16  C   -0.113208   0.094756  -0.107522   0.000124   0.006989  -0.002335
    17  C   -0.003541  -0.018362   0.017584  -0.000489   0.000508  -0.000065
    18  H   -0.000403   0.021585  -0.007362   0.000030  -0.000058   0.000010
    19  H    0.001781  -0.001744   0.001854  -0.000025   0.000037  -0.000012
    20  H    0.000808  -0.003060  -0.000591  -0.000002  -0.000022   0.000008
    21  C   -0.000210   0.000407   0.009400   0.105375   0.049775   0.009970
    22  H    0.000019  -0.000117   0.000597  -0.081153   0.026035  -0.003767
    23  H    0.000237   0.000488  -0.005829  -0.009511   0.021139  -0.007712
    24  C    0.424512   0.338112   0.420468   0.000478   0.001304   0.000135
    25  H    0.561249  -0.039395  -0.020585   0.000026   0.000062   0.000028
    26  H   -0.039395   0.595716  -0.054797  -0.000178   0.000325  -0.000224
    27  H   -0.020585  -0.054797   0.593469  -0.000981  -0.003402   0.000701
    28  O    0.000026  -0.000178  -0.000981   8.190396  -0.080271  -0.014989
    29  O    0.000062   0.000325  -0.003402  -0.080271   8.132005   0.138618
    30  H    0.000028  -0.000224   0.000701  -0.014989   0.138618   0.584279
 Mulliken atomic charges:
              1
     1  C   -0.602898
     2  H    0.126392
     3  H    0.172546
     4  H    0.142618
     5  C    0.834067
     6  H    0.151151
     7  C   -0.828866
     8  H    0.137725
     9  H    0.175583
    10  C   -0.084266
    11  H    0.151416
    12  H    0.063105
    13  C   -0.678513
    14  H    0.154404
    15  H    0.111296
    16  C    0.687912
    17  C   -0.610910
    18  H    0.148029
    19  H    0.160525
    20  H    0.136044
    21  C   -0.617937
    22  H    0.203180
    23  H    0.164637
    24  C   -0.714278
    25  H    0.150948
    26  H    0.142798
    27  H    0.148840
    28  O   -0.077003
    29  O   -0.233544
    30  H    0.284997
 Sum of Mulliken atomic charges =   0.00000
 Mulliken charges with hydrogens summed into heavy atoms:
              1
     1  C   -0.161341
     5  C    0.985218
     7  C   -0.515559
    10  C    0.130254
    13  C   -0.412813
    16  C    0.687912
    17  C   -0.166313
    21  C   -0.250120
    24  C   -0.271691
    28  O   -0.077003
    29  O    0.051453
 Sum of Mulliken charges with hydrogens summed into heavy atoms =   0.00000
          Atomic-Atomic Spin Densities.
              1          2          3          4          5          6
     1  C    0.007679   0.000854  -0.000030   0.000595  -0.004312  -0.002625
     2  H    0.000854  -0.000068  -0.000002   0.000079  -0.000044   0.000024
     3  H   -0.000030  -0.000002  -0.000016  -0.000011   0.000033  -0.000018
     4  H    0.000595   0.000079  -0.000011   0.000002  -0.000136  -0.000129
     5  C   -0.004312  -0.000044   0.000033  -0.000136   0.002495  -0.000864
     6  H   -0.002625   0.000024  -0.000018  -0.000129  -0.000864   0.000495
     7  C    0.000825   0.000886  -0.000249  -0.000208  -0.000871  -0.004672
     8  H   -0.000252   0.000087   0.000047  -0.000064  -0.001965  -0.000219
     9  H   -0.000727   0.000027  -0.000004  -0.000052  -0.001101   0.000135
    10  C   -0.009200  -0.001271  -0.000141  -0.000088   0.019243   0.004915
    11  H    0.001471   0.000028   0.000018   0.000014   0.002371  -0.000205
    12  H    0.000724  -0.000038   0.000063   0.000025   0.001081   0.000038
    13  C   -0.002875  -0.000019   0.000320  -0.000469  -0.033038   0.001837
    14  H    0.002932   0.000025   0.000055   0.000057   0.006230  -0.000342
    15  H   -0.000875  -0.000056  -0.000028   0.000000  -0.001031   0.000243
    16  C    0.000227  -0.000256   0.000062  -0.000010   0.009558   0.001049
    17  C   -0.000180  -0.000017   0.000012  -0.000013  -0.001863   0.000211
    18  H    0.000173   0.000002   0.000002   0.000003   0.000697  -0.000023
    19  H   -0.000027  -0.000001   0.000000  -0.000001  -0.000172   0.000009
    20  H   -0.000080   0.000000  -0.000001  -0.000001  -0.000241   0.000003
    21  C    0.004945  -0.000246  -0.000049   0.000315   0.006932   0.000607
    22  H    0.000379  -0.000005  -0.000008  -0.000005   0.000373   0.000028
    23  H    0.000925   0.000039  -0.000016   0.000024  -0.000103  -0.000370
    24  C   -0.000390   0.000013  -0.000034   0.000016  -0.000622  -0.000225
    25  H   -0.000024  -0.000001   0.000000  -0.000001  -0.000191   0.000018
    26  H    0.000395   0.000002   0.000005   0.000009   0.002185  -0.000068
    27  H   -0.000418   0.000000  -0.000006  -0.000011  -0.002206   0.000101
    28  O   -0.000262  -0.000009  -0.000029  -0.000002   0.000316   0.000058
    29  O    0.000067   0.000002   0.000025  -0.000010  -0.000584  -0.000037
    30  H    0.000022   0.000000  -0.000003   0.000002   0.000044   0.000000
              7          8          9         10         11         12
     1  C    0.000825  -0.000252  -0.000727  -0.009200   0.001471   0.000724
     2  H    0.000886   0.000087   0.000027  -0.001271   0.000028  -0.000038
     3  H   -0.000249   0.000047  -0.000004  -0.000141   0.000018   0.000063
     4  H   -0.000208  -0.000064  -0.000052  -0.000088   0.000014   0.000025
     5  C   -0.000871  -0.001965  -0.001101   0.019243   0.002371   0.001081
     6  H   -0.004672  -0.000219   0.000135   0.004915  -0.000205   0.000038
[...]
 .01191977,-0.00230983,0.00121835,0.00064060,0.00082740,-0.00074957,0.0
 0088198,0.00034695,-0.01476346,-0.20826522,-0.00529241,-0.00108510,-0.
 02081942,0.00278346,-0.00139805,0.00110332,-0.00020336,-0.00149479,0.0
 0119725,-0.00057426,0.00202566,-0.00053691,-0.00050239,-0.00002845,0.0
 0015176,-0.00001877,0.00002055,-0.00002730,0.00000319,0.00000717,0.000
 00546,-0.00001160,-0.02648396,0.46847099,-0.00000157,0.00000549,0.0000
 2034,0.00000469,-0.00000197,-0.00000100,-0.00000155,0.00000318,-0.0000
 0197,-0.00001191,-0.00000304,-0.00000028,-0.00000622,0.00007425,-0.000
 03148,0.00000325,-0.00000440,0.00000115,-0.00017252,0.00000556,0.00011
 175,0.00010820,0.00010310,0.00006360,0.00001084,0.00003049,0.00001461,
 0.00029397,-0.00077281,-0.00028743,-0.00000640,0.00003125,0.00001299,-
 0.00000063,0.00046375,0.00005171,-0.00530256,-0.01472634,0.00021154,0.
 00144881,-0.00060707,0.00233321,-0.00275992,-0.00249173,0.00023137,-0.
 01020322,-0.00294500,-0.05407416,-0.00024405,0.00130429,0.00267681,-0.
 00047101,0.00058474,0.00028436,0.00029947,0.00117894,0.00013722,-0.000
 92401,0.00135124,0.00015975,-0.00002450,-0.00001971,0.00000728,-0.0000
 0983,0.00000803,0.00001067,0.00000336,-0.00000953,-0.00000272,0.031408
 48,0.01895059,0.49211773,-0.00001614,0.00000866,0.00002380,0.00000740,
 0.00000398,-0.00000029,0.00000505,0.00000094,-0.00000140,-0.00002238,-
 0.00000570,0.00000437,0.00003264,0.00001318,-0.00003907,-0.00000170,-0
 .00001032,0.00001394,-0.00002993,-0.00005025,0.00001977,-0.00002393,0.
 00001842,0.00000504,0.00002499,0.00001497,0.00001862,0.00026261,0.0001
 0419,-0.00017530,-0.00001013,-0.00015245,0.00005358,0.00012172,0.00009
 701,-0.00016135,0.00151974,-0.00151532,-0.00062184,0.00013066,0.000349
 94,0.00019597,-0.00041630,-0.00046577,-0.00004117,-0.00507367,-0.00458
 315,-0.00245726,0.00014240,0.00064234,0.00105319,0.00005927,0.00019574
 ,-0.00009969,0.00055411,-0.00014721,-0.00004770,0.00005661,0.00006087,
 0.00018833,-0.00003009,-0.00002587,-0.00002852,-0.00001939,-0.00000052
 ,0.00000821,0.00001924,-0.00000409,-0.00001790,-0.13170227,-0.03552235
 ,-0.11422007,0.14104694,-0.00002571,0.00000930,0.00004147,0.00000757,0
 .00000585,-0.00000113,0.00000176,-0.00000122,-0.00000538,-0.00002638,-
 0.00000937,0.00000023,-0.00002588,0.00002392,-0.00008702,0.00000266,-0
 .00000086,0.00000791,-0.00010330,0.00003679,0.00022021,0.00005186,0.00
 006285,0.00002131,-0.00000312,-0.00001305,-0.00001322,0.00015813,-0.00
 020263,-0.00044156,-0.00002144,-0.00001266,0.00004818,-0.00011742,0.00
 008501,0.00012029,0.00126687,-0.00515850,-0.00039409,0.00023566,0.0001
 5386,-0.00002021,-0.00148228,-0.00085395,-0.00048389,-0.02168799,-0.01
 019276,-0.02182492,-0.00131708,0.00139690,-0.00082534,0.00025052,0.000
 00550,0.00011511,0.00098852,-0.00012525,0.00063923,-0.00003256,0.00043
 006,0.00024683,0.00000852,-0.00008525,0.00002178,-0.00002155,0.0000186
 5,0.00000205,0.00000383,-0.00000168,-0.00000633,-0.03687581,-0.0637829
 4,-0.05486257,0.04512691,0.07149729,-0.00001594,0.00000963,0.00002057,
 0.00000598,0.00000148,-0.00000184,0.00000311,-0.00000058,-0.00000437,-
 0.00001994,-0.00000574,0.00000406,0.00001144,-0.00000416,-0.00004368,0
 .00000138,0.00000130,0.00000701,-0.00002218,0.00002463,0.00006497,0.00
 000105,-0.00000325,-0.00000546,0.00000470,-0.00001041,-0.00000423,0.00
 008539,-0.00010889,-0.00012340,-0.00002673,0.00002678,0.00003465,0.000
 00536,-0.00000670,0.00002238,0.00110790,0.00048556,0.00012377,0.000222
 54,0.00016231,0.00004638,-0.00005439,-0.00007055,0.00007771,0.00010900
 ,0.00010363,0.00247050,-0.00003465,0.00038814,0.00021580,0.00008774,-0
 .00007927,-0.00031783,0.00035473,-0.00041111,0.00026402,0.00026792,0.0
 0011706,0.00025699,0.00000863,-0.00003374,0.00000451,-0.00001526,0.000
 00430,0.00000434,0.00000994,-0.00000845,-0.00001167,-0.11475269,-0.053
 92778,-0.19305792,0.12616521,0.05764287,0.21058285,-0.00001260,-0.0000
 0113,0.00002483,0.00000385,-0.00000059,-0.00000029,-0.00000331,0.00000
 307,-0.00000592,-0.00001821,-0.00000539,0.00000070,-0.00000689,0.00000
 868,-0.00005570,0.00000744,0.00000690,-0.00000544,0.00011402,-0.000071
 45,0.00007978,-0.00005368,-0.00003441,-0.00003132,-0.00003993,0.000009
 37,-0.00001929,-0.00011192,0.00040426,0.00006935,0.00002403,-0.0001160
 4,-0.00009811,0.00019001,-0.00015453,-0.00009344,0.00084568,-0.0001829
 7,0.00041863,-0.00050056,0.00001457,-0.00053094,-0.00009083,0.00000070
 ,-0.00024708,-0.00189277,-0.00690363,0.00196598,-0.00023769,-0.0000300
 8,0.00004095,0.00040097,-0.00029828,0.00011855,0.00019252,0.00002653,-
 0.00001580,0.00006093,-0.00021367,0.00006938,0.00006909,-0.00003072,0.
 00005351,-0.00002111,0.00000883,-0.00000427,0.00000436,-0.00001580,-0.
 00002491,-0.08923164,-0.02660516,0.08746623,0.00836931,0.00588124,-0.0
 1597399,0.09549489,-0.00003198,0.00001261,0.00004043,0.00000758,0.0000
 0337,0.00000148,0.00000160,0.00000048,-0.00000534,-0.00002763,-0.00001
 266,0.00000023,-0.00002244,-0.00001734,-0.00008478,0.00000334,0.000002
 16,0.00000385,-0.00020259,0.00017373,0.00012190,0.00002575,0.00001769,
 0.00002121,-0.00002958,-0.00001978,-0.00002050,0.00003674,-0.00011232,
 -0.00048242,0.00011304,0.00004342,-0.00009765,-0.00009316,0.00017076,0
 .00009749,0.00204562,-0.00022592,0.00117356,-0.00080509,0.00024130,-0.
 00104240,-0.00014027,0.00004422,-0.00040006,-0.01573131,-0.02000055,0.
 02466016,-0.00050109,0.00159825,-0.00118282,0.00125541,-0.00070878,-0.
 00049959,0.00009168,-0.00022328,0.00016331,0.00017113,-0.00008555,-0.0
 0031357,0.00000441,-0.00007971,-0.00000083,-0.00001535,0.00001227,0.00
 000220,0.00000500,-0.00000660,-0.00000327,-0.03288189,-0.06088278,0.06
 390892,0.00394341,0.00268708,-0.00637937,0.03646432,0.07259684,0.00002
 192,-0.00000644,-0.00003637,-0.00000630,0.00000135,0.00000208,0.000000
 65,-0.00000274,0.00000864,0.00002730,0.00000993,-0.00000227,0.00001810
 ,0.00000503,0.00007438,-0.00000372,-0.00000808,0.00000192,0.00003720,-
 0.00007201,-0.00013760,-0.00000621,0.00001652,0.00000802,0.00001971,0.
 00000227,0.00001420,0.00023881,0.00003295,0.00012524,-0.00007732,-0.00
 000394,0.00001700,0.00002191,-0.00001229,-0.00005618,0.00027927,0.0000
 0052,-0.00057849,0.00037626,0.00031800,-0.00011755,0.00005273,0.000094
 08,-0.00004757,-0.00113027,0.00712578,0.00499613,0.00009569,0.00015456
 ,0.00069932,-0.00046813,0.00057118,-0.00027794,0.00002757,-0.00010466,
 -0.00036306,-0.00015730,0.00027869,0.00003525,-0.00005881,0.00005370,-
 0.00004386,0.00002233,-0.00001025,-0.00000128,-0.00000408,0.00001771,0
 .00002073,0.08592946,0.05164574,-0.20445110,0.01143078,0.00672145,-0.0
 2339996,-0.09817744,-0.06668498,0.22621721,0.00002391,-0.00000807,-0.0
 0002420,-0.00000384,-0.00000830,-0.00000347,-0.00000140,0.00000278,0.0
 0000472,0.00001540,0.00000680,0.00000064,0.00001976,0.00001703,0.00004
 309,-0.00000025,-0.00000462,-0.00000059,0.00012104,0.00002695,-0.00012
 030,-0.00003735,-0.00001307,-0.00002032,-0.00000873,0.00000777,0.00000
 456,0.00021362,-0.00026543,0.00029905,-0.00003387,-0.00006562,-0.00001
 870,-0.00011744,-0.00038412,0.00001183,-0.00014978,-0.00029483,-0.0007
 4040,0.00019720,-0.00006690,0.00024619,0.00011359,0.00011253,0.0001514
 1,0.00590973,-0.00139683,-0.00076253,0.00055359,-0.00103435,0.00036215
 ,-0.00004579,-0.00006599,0.00008908,0.00023097,-0.00008732,0.00027031,
 0.00021573,-0.00008776,0.00019474,-0.00000873,0.00007498,-0.00000766,0
 .00001206,-0.00000915,0.00000330,-0.00000095,0.00000017,0.00000125,-0.
 24255294,0.10851511,0.01335131,-0.01495237,0.00777007,0.00249485,-0.01
 349906,0.00633847,0.00143531,0.26373382,0.00000995,-0.00000428,-0.0000
 1954,-0.00000591,0.00000337,0.00000490,-0.00000230,-0.00000196,0.00000
 512,0.00002462,0.00000248,-0.00000694,-0.00005536,-0.00002114,0.000044
 66,-0.00000207,-0.00000152,-0.00001041,-0.00030335,0.00031793,0.000064
 08,0.00015688,0.00008836,0.00007399,-0.00000910,-0.00004355,-0.0000090
 9,-0.00005267,-0.00082426,-0.00026000,0.00006948,0.00024189,-0.0000571
 8,-0.00077235,0.00022279,0.00038618,0.00064450,0.00141477,0.00062592,-
 0.00042615,-0.00008927,-0.00061526,0.00020798,0.00044449,0.00005325,0.
 02938133,-0.01677328,0.00080558,-0.00262467,-0.00519920,-0.00087705,0.
 00030091,-0.00010231,-0.00026462,-0.00021862,0.00025624,0.00009015,0.0
 0126376,-0.00106181,0.00013280,-0.00006225,-0.00001131,-0.00005102,0.0
 0003078,0.00000191,-0.00000131,-0.00001860,0.00002827,0.00004751,0.107
 65374,-0.10609359,-0.01154573,-0.00809410,0.00394809,0.00205826,-0.008
 20222,0.00470135,-0.00009319,-0.11901154,0.11855643,-0.00000056,-0.000
 00744,0.00000208,-0.00000167,0.00000034,-0.00000115,-0.00000475,-0.000
 00065,-0.00000534,-0.00000097,0.00000089,-0.00000034,-0.00001831,0.000
 00912,-0.00001641,0.00000511,0.00001419,-0.00001175,0.00010420,-0.0001
 4116,0.00000116,-0.00004134,-0.00002230,-0.00003530,-0.00005224,-0.000
 00765,-0.00003518,-0.00023809,0.00024291,0.00011667,0.00004660,0.00007
 826,-0.00004917,0.00028754,-0.00004263,0.00013163,0.00051037,-0.000307
 53,0.00024250,-0.00012333,-0.00019544,-0.00044962,-0.00005363,0.000135
 18,-0.00019959,-0.00064789,0.00166140,-0.00085698,-0.00058706,0.000384
 73,0.00054946,-0.00020996,0.00038106,0.00004521,0.00040298,-0.00003477
 ,0.00028359,0.00009574,0.00022342,0.00037917,0.00009087,-0.00002405,0.
 00008675,-0.00000968,0.00001112,-0.00001190,-0.00001262,-0.00000280,-0
 .00001377,0.01401116,-0.01195811,-0.04654391,-0.02129064,0.01313791,0.
 00277412,0.02502705,-0.01298258,-0.00275122,-0.01728769,0.00938531,0.0
 4644540,-0.00022756,-0.00160496,-0.00016081,0.00032200,-0.00007864,0.0
 0042701,0.00064779,-0.00014242,0.00092144,0.00012872,0.00019376,-0.000
 12170,-0.00554204,0.01466925,-0.01468220,-0.00023563,0.00381787,0.0016
 5331,0.00118518,-0.00039205,-0.00187249,0.00019364,-0.00027219,0.00045
 124,-0.00039068,-0.00008794,0.00095987,-0.00051185,-0.00012228,0.00019
 883,0.00028797,-0.00023108,0.00011230,-0.00020424,0.00027295,-0.000121
 16,0.00005882,0.00003563,-0.00000532,-0.00003269,-0.00004371,0.0000689
 4,-0.00004705,0.00004869,0.00003051,0.00006250,0.00003053,0.00007089,0
 .00001275,-0.00003551,-0.00001874,-0.00002871,0.00000992,0.00003132,-0
 .00001898,0.,-0.00001997,0.00001238,-0.00001006,-0.00000295,-0.1242206
 0,0.02140538,-0.03042596,0.00818907,-0.01707748,0.01735886,-0.01460222
 ,0.02257472,-0.02545700,0.00002089,0.00000361,-0.00002975,-0.00002308,
 -0.00000495,-0.00001733,-0.00003811,-0.00001348,0.00004089,0.00001717,
 0.00004982,0.00000196,0.29096514,0.00064568,0.00204050,0.00009782,0.00
 023824,0.00025681,0.00042853,-0.00015330,-0.00066618,0.00004373,-0.000
 46712,-0.00040630,0.00033703,0.01698215,-0.02706801,0.03116989,0.00269
 478,-0.00748034,-0.00341803,-0.00173421,0.00136205,0.00130556,-0.00019
 798,0.00032431,-0.00032698,0.00009912,0.00069980,-0.00065135,-0.000115
 45,-0.00062087,-0.00006484,-0.00008626,0.00005114,-0.00009776,0.000096
 58,0.00025748,0.00010623,0.00017098,0.00028844,0.00011487,0.00000589,-
 0.00001579,-0.00002609,-0.00007470,0.00003227,0.00005043,-0.00006534,-
 0.00011193,-0.00007923,0.00001676,0.00006878,0.00003252,0.00002179,-0.
 00001062,-0.00002579,0.00004370,-0.00000224,0.00002841,-0.00002644,0.0
 0002791,-0.00000718,0.05606861,-0.10672435,0.04532649,0.00084340,-0.00
 941354,0.01449241,-0.00101734,0.00545434,0.00343129,0.00009059,-0.0000
 5765,0.00000868,0.00003202,0.00003209,0.00002614,0.00001741,0.00003954
 ,-0.00003148,-0.00004225,-0.00002408,-0.00000526,0.00740342,0.24293281
 ,-0.00106161,-0.00087346,-0.00024351,0.00045933,-0.00029953,0.00064988
 ,0.00091776,0.00016266,0.00135748,0.00012816,-0.00007927,0.00010507,0.
 00050115,0.00593950,0.00553280,0.00039114,-0.00149561,0.00092993,-0.00
 013623,0.00048458,0.00040977,-0.00034528,0.00017686,0.00020093,-0.0002
 1082,0.00001962,0.00018042,-0.00033549,-0.00031605,0.00002345,0.000172
 39,-0.00014117,0.00006627,-0.00002504,0.00033225,-0.00016861,0.0000572
 5,0.00009865,-0.00007842,-0.00005357,-0.00002890,0.00012189,-0.0000317
 7,0.00002500,0.00006925,0.00003827,0.00001101,0.00006738,0.00001171,-0
 .00001772,-0.00001720,-0.00001453,0.00000340,0.00001856,0.00000037,0.0
 0000370,-0.00000841,0.00000746,-0.00001060,-0.00000538,-0.06326877,0.0
 4932475,-0.09990943,-0.00503678,0.01597682,-0.01959650,-0.01154453,0.0
 2033382,-0.02367011,-0.00000322,0.00002045,-0.00000008,0.00001941,-0.0
 0001152,-0.00000161,-0.00003735,-0.00000506,0.00003312,0.00000507,0.00
 002017,-0.00005684,0.00595735,-0.15116571,0.18899925,-0.00008498,-0.00
 003969,-0.00006533,0.00014412,-0.00011319,0.00003102,-0.00015665,-0.00
 001368,0.00014170,0.00010372,0.00021119,-0.00013475,0.00129843,0.00075
 420,-0.00110065,-0.00017152,0.00011334,0.00009619,-0.00054944,-0.00021
 743,0.00042240,0.00024236,0.00013220,-0.00030102,-0.00010466,0.0007772
 9,-0.00016899,-0.00031271,-0.00052843,-0.00086765,-0.00013703,0.000408
 83,0.00003918,-0.00001865,0.00058957,0.00041284,0.00012226,0.00014788,
 0.00007548,0.00000869,-0.00003944,-0.00006698,-0.00010094,0.00007835,0
 .00007384,0.00004327,-0.00005137,-0.00001437,0.00003986,0.00000962,0.0
 0000570,-0.00002747,0.00000917,0.00002249,-0.00001176,-0.00000955,-0.0
 0000972,-0.00000084,0.00002759,-0.00000556,0.00982719,0.00199407,0.006
 62174,0.00335621,0.00032054,-0.00251755,0.00315879,0.00059523,-0.00028
 827,0.00014821,-0.00007642,-0.00003999,-0.00004896,0.00002152,-0.00001
 265,-0.00002641,0.00001166,0.00001627,-0.00001305,0.00007322,0.0000252
 8,-0.15305559,-0.03784017,0.06579513,0.20727814,0.00012816,-0.00011738
 ,0.00019825,0.00011708,-0.00009943,-0.00008778,-0.00019509,-0.00011864
 ,0.00002157,0.00014751,0.00023534,-0.00012158,-0.00037444,0.00020791,0
 .00026338,0.00023969,0.00016916,-0.00029919,0.00112876,-0.00172827,-0.
 00169191,0.00037046,-0.00061174,0.00040303,0.00093847,-0.00199161,0.00
 046377,0.00019139,-0.00012278,-0.00018721,0.00003822,-0.00002726,0.000
 01862,-0.00013401,-0.00050215,-0.00005892,0.00004813,-0.00020725,0.000
 18672,0.00001048,0.00001465,-0.00012841,0.00004673,0.00005069,-0.00008
 280,-0.00010876,-0.00010024,-0.00010419,0.00002728,0.00007877,0.000032
 56,0.00001113,-0.00000850,-0.00001841,0.00002708,-0.00000903,0.0000216
 3,-0.00002331,0.00003941,-0.00000630,-0.03251996,-0.01318048,0.0185723
 4,0.00339704,-0.00442091,0.00184806,0.00139463,0.00205528,-0.00226046,
 0.00015651,-0.00010864,-0.00002105,-0.00002731,0.00005546,0.00000862,0
 .00004364,0.00003740,-0.00004192,-0.00005316,-0.00000658,0.00008476,-0
 .05297148,-0.08904177,0.06010572,-0.08408168,0.56302167,-0.00024753,0.
 00038396,-0.00045829,0.00005631,0.00008496,0.00021673,0.00004263,-0.00
 008627,0.00018865,-0.00011220,-0.00011994,-0.00003655,-0.00140931,-0.0
 0172610,0.00253249,0.00027789,-0.00062874,-0.00006155,0.00010768,0.000
 93786,-0.00013753,-0.00026184,0.00009439,0.00034763,0.00035549,-0.0008
 6498,0.00023505,-0.00018377,-0.00054813,-0.00018294,-0.00002857,0.0001
 5219,0.00007029,0.00033916,0.00036109,0.00013165,-0.00003482,0.0002823
 0,-0.00016720,-0.00003193,-0.00006248,0.00010734,-0.00008974,0.0000068
 1,0.00009344,0.00004420,-0.00001018,0.00008188,0.00001410,-0.00002020,
 -0.00001802,-0.00002193,0.00000684,0.00002685,-0.00000696,0.00000119,-
 0.00001035,0.00000715,-0.00000608,-0.00000284,0.02971188,0.01349117,-0
 .02531614,-0.00394015,0.00649940,-0.00297471,0.00261062,-0.00202072,0.
 00368914,0.00004304,0.00001075,-0.00000428,0.00001270,-0.00001730,0.00
 000342,-0.00006874,-0.00000277,0.00004766,0.00001638,0.00004372,-0.000
 07506,0.04808207,0.03321481,-0.05248594,-0.11519805,0.01668770,0.10076
 230,0.00012744,-0.00006122,0.00001127,-0.00001115,-0.00004257,-0.00002
 405,-0.00003112,0.00001409,0.00002157,0.00003537,0.00004574,-0.0000058
 0,-0.00037079,-0.00048702,0.00054765,0.00014053,-0.00008121,-0.0001422
 9,0.00004859,-0.00003428,0.00035884,-0.00007955,0.00017394,-0.00020922
 ,0.00006524,-0.00005295,-0.00050241,0.00014343,0.00030284,0.00008644,-
 0.00008316,-0.00000850,-0.00003890,0.00012896,0.00000117,0.00009120,-0
 .00001749,-0.00001951,-0.00002967,0.00003459,0.00002634,-0.00000235,0.
 00000821,-0.00004640,-0.00000761,0.00006238,0.00009199,0.00001687,-0.0
 0004263,-0.00004907,-0.00001397,0.00001410,-0.00000031,-0.00001055,-0.
 00001271,0.00000853,-0.00000404,0.00001258,-0.00002904,0.00000727,-0.0
 0517832,-0.00062430,-0.00045638,0.00053544,-0.00059987,0.00046850,0.00
 045707,0.00077062,-0.00032577,-0.00017127,0.00006677,0.00003110,0.0000
 1764,-0.00003015,-0.00000112,0.00000761,-0.00002330,-0.00000259,0.0000
 4799,-0.00000570,-0.00002842,-0.00292498,-0.04365055,0.00764303,-0.070
 95061,0.16202679,0.03991426,0.07798664,-0.00010163,0.00002005,0.000079
 94,-0.00000161,0.00009248,0.00001796,0.00000315,-0.00007374,-0.0000456
 7,-0.00001883,-0.00003204,-0.00001680,-0.00023386,0.00010139,-0.000206
 90,-0.00005769,0.00017849,0.00003747,0.00013246,0.00018554,-0.00066883
 ,-0.00003696,-0.00001599,0.00020233,0.00023518,-0.00042314,0.00028443,
 -0.00011964,-0.00009127,-0.00003285,0.00000646,0.00002169,0.00002201,0
 .00008195,0.00007240,0.00001469,-0.00000768,0.00004193,-0.00004496,-0.
 00000520,-0.00000532,0.00002458,-0.00002246,-0.00000138,0.00002025,0.0
 0003931,0.00002863,0.00003315,-0.00000238,-0.00002580,-0.00001019,-0.0
 0000802,0.00000481,0.00001003,-0.00001172,0.00000170,-0.00001039,0.000
 00755,-0.00001029,0.00000220,-0.00123731,-0.00247789,0.00118686,0.0000
 3519,0.00016795,-0.00021945,-0.00027862,-0.00009644,-0.00009734,-0.000
 01807,0.00000495,-0.00000154,-0.00000817,-0.00000861,-0.00001068,-0.00
 002345,-0.00000719,0.00002252,0.00002665,0.00002975,-0.00001825,0.0025
 7270,-0.01222463,0.00140565,0.11673560,-0.45356308,-0.06614523,-0.1176
 8287,0.46810503,0.00006352,-0.00012760,0.00001488,-0.00003292,-0.00001
 150,-0.00004424,0.00003112,0.00001869,-0.00003119,-0.00004009,-0.00002
 201,0.00002140,-0.00008127,0.00015165,-0.00062873,-0.00012041,0.000082
 88,0.00013820,0.00010031,-0.00035566,-0.00041099,0.00010486,-0.0002017
 9,0.00014646,-0.00020362,0.00020670,0.00043055,-0.00009834,0.00018977,
 0.00007963,0.00005306,-0.00001363,0.00002418,-0.00002455,-0.00000707,0
 .00001925,-0.00001213,-0.00004631,0.00007203,-0.00000584,0.00001861,-0
 .00002981,0.00001880,-0.00001501,-0.00003046,-0.00000579,0.00001349,-0
 .00003696,-0.00001355,0.00000745,0.00001083,0.00001644,-0.00000469,-0.
 00001756,0.00000140,-0.00000005,0.00000459,-0.00000253,-0.00000159,0.0
 0000294,0.00479998,0.00314885,-0.00098043,-0.00028277,0.00087143,-0.00
 082469,-0.00043875,0.00007373,-0.00035308,-0.00005992,0.00000976,0.000
 01026,-0.00001070,0.00000767,-0.00000608,0.00005510,-0.00000674,-0.000
 03646,0.00000062,-0.00003027,0.00005579,-0.00343142,0.02568485,-0.0025
 2337,0.04701226,-0.09380663,-0.02660312,-0.04739287,0.06416500,0.03152
 620\\-0.00000104,0.00000362,-0.00000164,-0.00000199,0.00000211,0.00000
 018,0.00000049,0.00000181,-0.00000361,-0.00000255,0.00000525,-0.000003
 12,0.00000001,0.00000374,-0.00000015,-0.00000308,0.00000388,-0.0000000
 3,-0.00000282,-0.00000168,0.00000136,-0.00000042,-0.00000043,0.0000016
 4,0.00000146,0.00000022,-0.00000195,0.00000113,0.00000157,0.00000137,-
 0.00000309,0.00000111,0.00000274,0.00000207,0.00000248,-0.00000070,0.0
 0000108,-0.00000593,0.00000686,0.00000654,-0.00000405,0.00000177,0.000
 00003,-0.00000576,0.00000264,-0.00000740,0.00000003,-0.00001156,-0.000
 00315,-0.00000358,0.00000776,0.00000090,-0.00000748,0.00000823,-0.0000
 0097,-0.00000396,0.00000828,-0.00000191,-0.00000325,0.00000759,-0.0000
 0321,0.00000547,-0.00000996,-0.00000174,0.00000727,-0.00000632,-0.0000
 0154,0.00000480,-0.00000352,0.00000762,-0.00000326,0.00001033,0.000001
 01,-0.00000073,0.00000134,0.00000388,-0.00000647,0.00000039,-0.0000006
 4,-0.00000265,-0.00000110,0.00000559,0.00000605,-0.00000644,0.00000068
 ,-0.00000209,-0.00000410,0.00000308,0.00000190,-0.00000826\\\@


 A MAN BEGINS CUTTING HIS WISDOM TEETH THE 1ST
 TIME HE BITES OFF MORE THAN HE CAN CHEW.
 Job cpu time:  0 days  3 hours 42 minutes 19.3 seconds.
 File lengths (MBytes):  RWF=    713 Int=      0 D2E=      0 Chk=     20 Scr=      1
 Normal termination of Gaussian 09 at Fri Feb  7 01:50:56 2014.
