 Entering Gaussian System, Link 0=g09
 Initial command:
 /usr/caen/gaussian-09revc/g09/l1.exe /scratch/avioli_flux/hetanjin/scratch/Gau-8819.inp -scrdir=/scratch/avioli_flux/hetanjin/scratch/
 Entering Link 1 = /usr/caen/gaussian-09revc/g09/l1.exe PID=      8820.
  
 Copyright (c) 1988,1990,1992,1993,1995,1998,2003,2009,2011,
            Gaussian, Inc.  All Rights Reserved.
  
 This is part of the Gaussian(R) 09 program.  It is based on
 the Gaussian(R) 03 system (copyright 2003, Gaussian, Inc.),
 the Gaussian(R) 98 system (copyright 1998, Gaussian, Inc.),
 the Gaussian(R) 94 system (copyright 1995, Gaussian, Inc.),
 the Gaussian 92(TM) system (copyright 1992, Gaussian, Inc.),
 the Gaussian 90(TM) system (copyright 1990, Gaussian, Inc.),
 the Gaussian 88(TM) system (copyright 1988, Gaussian, Inc.),
 the Gaussian 86(TM) system (copyright 1986, Carnegie Mellon
 University), and the Gaussian 82(TM) system (copyright 1983,
 Carnegie Mellon University). Gaussian is a federally registered
 trademark of Gaussian, Inc.
  
 This software contains proprietary and confidential information,
 including trade secrets, belonging to Gaussian, Inc.
  
 This software is provided under written license and may be
 used, copied, transmitted, or stored only in accord with that
 written license.
  
 The following legend is applicable only to US Government
 contracts under FAR:
  
                    RESTRICTED RIGHTS LEGEND
  
 Use, reproduction and disclosure by the US Government is
 subject to restrictions as set forth in subparagraphs (a)
 and (c) of the Commercial Computer Software - Restricted
 Rights clause in FAR 52.227-19.
  
 Gaussian, Inc.
 340 Quinnipiac St., Bldg. 40, Wallingford CT 06492
  
  
 ---------------------------------------------------------------
 Warning -- This program may not be used in any manner that
 competes with the business of Gaussian, Inc. or will provide
 assistance to any competitor of Gaussian, Inc.  The licensee
 of this program is prohibited from giving any competitor of
 Gaussian, Inc. access to this program.  By using this program,
 the user acknowledges that Gaussian, Inc. is engaged in the
 business of creating and licensing software in the field of
 computational chemistry and represents and warrants to the
 licensee that it is not a competitor of Gaussian, Inc. and that
 it will not use this program in any manner prohibited above.
 ---------------------------------------------------------------
  

 Cite this work as:
 Gaussian 09, Revision C.01,
 M. J. Frisch, G. W. Trucks, H. B. Schlegel, G. E. Scuseria, 
 M. A. Robb, J. R. Cheeseman, G. Scalmani, V. Barone, B. Mennucci, 
 G. A. Petersson, H. Nakatsuji, M. Caricato, X. Li, H. P. Hratchian, 
 A. F. Izmaylov, J. Bloino, G. Zheng, J. L. Sonnenberg, M. Hada, 
 M. Ehara, K. Toyota, R. Fukuda, J. Hasegawa, M. Ishida, T. Nakajima, 
 Y. Honda, O. Kitao, H. Nakai, T. Vreven, J. A. Montgomery, Jr., 
 J. E. Peralta, F. Ogliaro, M. Bearpark, J. J. Heyd, E. Brothers, 
 K. N. Kudin, V. N. Staroverov, T. Keith, R. Kobayashi, J. Normand, 
 K. Raghavachari, A. Rendell, J. C. Burant, S. S. Iyengar, J. Tomasi, 
 M. Cossi, N. Rega, J. M. Millam, M. Klene, J. E. Knox, J. B. Cross, 
 V. Bakken, C. Adamo, J. Jaramillo, R. Gomperts, R. E. Stratmann, 
 O. Yazyev, A. J. Austin, R. Cammi, C. Pomelli, J. W. Ochterski, 
 R. L. Martin, K. Morokuma, V. G. Zakrzewski, G. A. Voth, 
 P. Salvador, J. J. Dannenberg, S. Dapprich, A. D. Daniels, 
 O. Farkas, J. B. Foresman, J. V. Ortiz, J. Cioslowski, 
 and D. J. Fox, Gaussian, Inc., Wallingford CT, 2010.
 
 ******************************************
 Gaussian 09:  EM64L-G09RevC.01 23-Sep-2011
                 3-Feb-2014 
 ******************************************
 %Mem=36GB
 %nprocshared=12
 Will use up to   12 processors via shared memory.
 %chk=C9H19O2_1_26.chk
 --------------------
 # opt am1 scrf=check
 --------------------
 1/14=-1,18=20,19=15,26=1,38=1,40=1/1,3;
 2/9=110,12=2,17=6,18=5,40=1/2;
 3/5=2,16=1,25=1,41=700000,70=2,71=1/1,2,3;
 4/35=1/1;
 5/5=2,35=1,38=5/2;
 6/7=2,8=2,9=2,10=2,28=1/1;
 7//1,2,3,16;
 1/14=-1,18=20,19=15/3(2);
 2/9=110/2;
 99//99;
 2/9=110/2;
 3/5=2,16=1,25=1,41=700000,70=5,71=1,135=20/1,2,3;
 4/5=5,16=3,35=1/1;
 5/5=2,35=1,38=5/2;
 7//1,2,3,16;
 1/14=-1,18=20,19=15/3(-5);
 2/9=110/2;
 6/7=2,8=2,9=2,10=2,19=2,28=1/1;
 99/9=1/99;
 ----------------------------------------------------------------------
 C9H19O2_1_26 using B3LYP/6-311++g(d,p) to do opt and cal. freq CBS-QB3
  to cal. energy
 ----------------------------------------------------------------------
 Charge =  0 Multiplicity = 2
 Symbolic Z-Matrix:
 C                    -3.23391  -0.06705  -0.16444 
 H                    -2.87726  -1.07586  -0.16444 
 H                    -2.87724   0.43734  -1.03809 
 H                    -4.30391  -0.06704  -0.16444 
 C                    -2.72057   0.6589    1.09297 
 H                    -3.07724   0.1545    1.96662 
 C                    -1.18057   0.65888   1.09297 
 H                    -0.82392  -0.34993   1.09299 
 H                    -0.8239    1.16326   0.21931 
 C                    -0.66723   1.38486   2.35036 
 H                    -1.0239    0.88048   3.22402 
 H                    -1.02388   2.39367   2.35034 
 C                     0.87277   1.38485   2.35036 
 H                     1.22944   1.88923   1.4767 
 H                     1.22943   0.37604   2.35038 
 C                     1.38611   2.11083   3.60775 
 H                     1.02944   1.60644   4.48141 
 C                     2.92611   2.11081   3.60775 
 H                     3.28278   2.61519   2.73409 
 H                     3.28279   2.61522   4.48139 
 H                     3.28277   1.102     3.60776 
 C                    -3.23389   2.11083   1.09297 
 H                    -4.23998   2.13344   0.72943 
 H                    -3.206     2.499     2.08969 
 C                     0.8728    3.56276   3.60772 
 H                     1.50902   4.16598   4.22111 
 H                     0.87718   3.94262   2.60743 
 H                    -0.12446   3.58848   3.99465 
 O                    -3.71054   3.45906   1.09297 
 O                    -4.15052   4.70357   1.09297 
 

 GradGradGradGradGradGradGradGradGradGradGradGradGradGradGradGradGradGrad
 Berny optimization.
 Initialization pass.
                           ----------------------------
                           !    Initial Parameters    !
                           ! (Angstroms and Degrees)  !
 --------------------------                            --------------------------
 ! Name  Definition              Value          Derivative Info.                !
 --------------------------------------------------------------------------------
 ! R1    R(1,2)                  1.07           estimate D2E/DX2                !
 ! R2    R(1,3)                  1.07           estimate D2E/DX2                !
 ! R3    R(1,4)                  1.07           estimate D2E/DX2                !
 ! R4    R(1,5)                  1.54           estimate D2E/DX2                !
 ! R5    R(5,6)                  1.07           estimate D2E/DX2                !
 ! R6    R(5,7)                  1.54           estimate D2E/DX2                !
 ! R7    R(5,22)                 1.54           estimate D2E/DX2                !
 ! R8    R(7,8)                  1.07           estimate D2E/DX2                !
 ! R9    R(7,9)                  1.07           estimate D2E/DX2                !
 ! R10   R(7,10)                 1.54           estimate D2E/DX2                !
 ! R11   R(10,11)                1.07           estimate D2E/DX2                !
 ! R12   R(10,12)                1.07           estimate D2E/DX2                !
 ! R13   R(10,13)                1.54           estimate D2E/DX2                !
 ! R14   R(13,14)                1.07           estimate D2E/DX2                !
 ! R15   R(13,15)                1.07           estimate D2E/DX2                !
 ! R16   R(13,16)                1.54           estimate D2E/DX2                !
 ! R17   R(16,17)                1.07           estimate D2E/DX2                !
 ! R18   R(16,18)                1.54           estimate D2E/DX2                !
 ! R19   R(16,25)                1.54           estimate D2E/DX2                !
 ! R20   R(18,19)                1.07           estimate D2E/DX2                !
 ! R21   R(18,20)                1.07           estimate D2E/DX2                !
 ! R22   R(18,21)                1.07           estimate D2E/DX2                !
 ! R23   R(22,23)                1.07           estimate D2E/DX2                !
 ! R24   R(22,24)                1.07           estimate D2E/DX2                !
 ! R25   R(22,29)                1.43           estimate D2E/DX2                !
 ! R26   R(25,26)                1.07           estimate D2E/DX2                !
 ! R27   R(25,27)                1.07           estimate D2E/DX2                !
 ! R28   R(25,28)                1.07           estimate D2E/DX2                !
 ! R29   R(29,30)                1.32           estimate D2E/DX2                !
 ! A1    A(2,1,3)              109.4712         estimate D2E/DX2                !
 ! A2    A(2,1,4)              109.4712         estimate D2E/DX2                !
 ! A3    A(2,1,5)              109.4712         estimate D2E/DX2                !
 ! A4    A(3,1,4)              109.4712         estimate D2E/DX2                !
 ! A5    A(3,1,5)              109.4713         estimate D2E/DX2                !
 ! A6    A(4,1,5)              109.4712         estimate D2E/DX2                !
 ! A7    A(1,5,6)              109.4712         estimate D2E/DX2                !
 ! A8    A(1,5,7)              109.4712         estimate D2E/DX2                !
 ! A9    A(1,5,22)             109.4712         estimate D2E/DX2                !
 ! A10   A(6,5,7)              109.4712         estimate D2E/DX2                !
 ! A11   A(6,5,22)             109.4712         estimate D2E/DX2                !
 ! A12   A(7,5,22)             109.4713         estimate D2E/DX2                !
 ! A13   A(5,7,8)              109.4712         estimate D2E/DX2                !
 ! A14   A(5,7,9)              109.4712         estimate D2E/DX2                !
 ! A15   A(5,7,10)             109.4712         estimate D2E/DX2                !
 ! A16   A(8,7,9)              109.4712         estimate D2E/DX2                !
 ! A17   A(8,7,10)             109.4713         estimate D2E/DX2                !
 ! A18   A(9,7,10)             109.4712         estimate D2E/DX2                !
 ! A19   A(7,10,11)            109.4712         estimate D2E/DX2                !
 ! A20   A(7,10,12)            109.4712         estimate D2E/DX2                !
 ! A21   A(7,10,13)            109.4712         estimate D2E/DX2                !
 ! A22   A(11,10,12)           109.4712         estimate D2E/DX2                !
 ! A23   A(11,10,13)           109.4713         estimate D2E/DX2                !
 ! A24   A(12,10,13)           109.4712         estimate D2E/DX2                !
 ! A25   A(10,13,14)           109.4712         estimate D2E/DX2                !
 ! A26   A(10,13,15)           109.4712         estimate D2E/DX2                !
 ! A27   A(10,13,16)           109.4712         estimate D2E/DX2                !
 ! A28   A(14,13,15)           109.4712         estimate D2E/DX2                !
 ! A29   A(14,13,16)           109.4713         estimate D2E/DX2                !
 ! A30   A(15,13,16)           109.4712         estimate D2E/DX2                !
 ! A31   A(13,16,17)           109.4712         estimate D2E/DX2                !
 ! A32   A(13,16,18)           109.4712         estimate D2E/DX2                !
 ! A33   A(13,16,25)           109.4712         estimate D2E/DX2                !
 ! A34   A(17,16,18)           109.4713         estimate D2E/DX2                !
 ! A35   A(17,16,25)           109.4712         estimate D2E/DX2                !
 ! A36   A(18,16,25)           109.4712         estimate D2E/DX2                !
 ! A37   A(16,18,19)           109.4712         estimate D2E/DX2                !
 ! A38   A(16,18,20)           109.4712         estimate D2E/DX2                !
 ! A39   A(16,18,21)           109.4712         estimate D2E/DX2                !
 ! A40   A(19,18,20)           109.4713         estimate D2E/DX2                !
 ! A41   A(19,18,21)           109.4712         estimate D2E/DX2                !
 ! A42   A(20,18,21)           109.4712         estimate D2E/DX2                !
 ! A43   A(5,22,23)            109.4712         estimate D2E/DX2                !
 ! A44   A(5,22,24)            109.4712         estimate D2E/DX2                !
 ! A45   A(23,22,24)           109.4712         estimate D2E/DX2                !
 ! A46   A(23,22,29)            70.5288         estimate D2E/DX2                !
 ! A47   A(24,22,29)            70.5288         estimate D2E/DX2                !
 ! A48   A(16,25,26)           109.47           estimate D2E/DX2                !
 ! A49   A(16,25,27)           109.473          estimate D2E/DX2                !
 ! A50   A(16,25,28)           109.4706         estimate D2E/DX2                !
 ! A51   A(26,25,27)           109.4713         estimate D2E/DX2                !
 ! A52   A(26,25,28)           109.4712         estimate D2E/DX2                !
 ! A53   A(27,25,28)           109.4712         estimate D2E/DX2                !
 ! A54   L(5,22,29,23,-1)      180.0            estimate D2E/DX2                !
 ! A55   L(22,29,30,25,-1)     180.0            estimate D2E/DX2                !
 ! A56   L(5,22,29,23,-2)      180.0            estimate D2E/DX2                !
 ! A57   L(22,29,30,25,-2)     180.0            estimate D2E/DX2                !
 ! D1    D(2,1,5,6)            -60.0            estimate D2E/DX2                !
 ! D2    D(2,1,5,7)             60.0            estimate D2E/DX2                !
 ! D3    D(2,1,5,22)          -180.0            estimate D2E/DX2                !
 ! D4    D(3,1,5,6)           -180.0            estimate D2E/DX2                !
 ! D5    D(3,1,5,7)            -60.0            estimate D2E/DX2                !
 ! D6    D(3,1,5,22)            60.0            estimate D2E/DX2                !
 ! D7    D(4,1,5,6)             60.0            estimate D2E/DX2                !
 ! D8    D(4,1,5,7)           -180.0            estimate D2E/DX2                !
 ! D9    D(4,1,5,22)           -60.0            estimate D2E/DX2                !
 ! D10   D(1,5,7,8)            -60.0011         estimate D2E/DX2                !
 ! D11   D(1,5,7,9)             59.9989         estimate D2E/DX2                !
 ! D12   D(1,5,7,10)           179.9989         estimate D2E/DX2                !
 ! D13   D(6,5,7,8)             59.9989         estimate D2E/DX2                !
 ! D14   D(6,5,7,9)            179.9989         estimate D2E/DX2                !
 ! D15   D(6,5,7,10)           -60.0011         estimate D2E/DX2                !
 ! D16   D(22,5,7,8)           179.9989         estimate D2E/DX2                !
 ! D17   D(22,5,7,9)           -60.0011         estimate D2E/DX2                !
 ! D18   D(22,5,7,10)           59.9989         estimate D2E/DX2                !
 ! D19   D(1,5,22,23)           38.8773         estimate D2E/DX2                !
 ! D20   D(1,5,22,24)          158.8773         estimate D2E/DX2                !
 ! D21   D(6,5,22,23)          -81.1227         estimate D2E/DX2                !
 ! D22   D(6,5,22,24)           38.8773         estimate D2E/DX2                !
 ! D23   D(7,5,22,23)          158.8773         estimate D2E/DX2                !
 ! D24   D(7,5,22,24)          -81.1227         estimate D2E/DX2                !
 ! D25   D(5,7,10,11)           60.0            estimate D2E/DX2                !
 ! D26   D(5,7,10,12)          -60.0            estimate D2E/DX2                !
 ! D27   D(5,7,10,13)         -180.0            estimate D2E/DX2                !
 ! D28   D(8,7,10,11)          -60.0            estimate D2E/DX2                !
 ! D29   D(8,7,10,12)         -180.0            estimate D2E/DX2                !
 ! D30   D(8,7,10,13)           60.0            estimate D2E/DX2                !
 ! D31   D(9,7,10,11)         -180.0            estimate D2E/DX2                !
 ! D32   D(9,7,10,12)           60.0            estimate D2E/DX2                !
 ! D33   D(9,7,10,13)          -60.0            estimate D2E/DX2                !
 ! D34   D(7,10,13,14)          60.0            estimate D2E/DX2                !
 ! D35   D(7,10,13,15)         -60.0            estimate D2E/DX2                !
 ! D36   D(7,10,13,16)         180.0            estimate D2E/DX2                !
 ! D37   D(11,10,13,14)        180.0            estimate D2E/DX2                !
 ! D38   D(11,10,13,15)         60.0            estimate D2E/DX2                !
 ! D39   D(11,10,13,16)        -60.0            estimate D2E/DX2                !
 ! D40   D(12,10,13,14)        -60.0            estimate D2E/DX2                !
 ! D41   D(12,10,13,15)        180.0            estimate D2E/DX2                !
 ! D42   D(12,10,13,16)         60.0            estimate D2E/DX2                !
 ! D43   D(10,13,16,17)         60.0001         estimate D2E/DX2                !
 ! D44   D(10,13,16,18)       -179.9999         estimate D2E/DX2                !
 ! D45   D(10,13,16,25)        -59.9999         estimate D2E/DX2                !
 ! D46   D(14,13,16,17)       -179.9999         estimate D2E/DX2                !
 ! D47   D(14,13,16,18)        -59.9999         estimate D2E/DX2                !
 ! D48   D(14,13,16,25)         60.0001         estimate D2E/DX2                !
 ! D49   D(15,13,16,17)        -59.9999         estimate D2E/DX2                !
 ! D50   D(15,13,16,18)         60.0001         estimate D2E/DX2                !
 ! D51   D(15,13,16,25)       -179.9999         estimate D2E/DX2                !
 ! D52   D(13,16,18,19)         60.0001         estimate D2E/DX2                !
 ! D53   D(13,16,18,20)       -179.9999         estimate D2E/DX2                !
 ! D54   D(13,16,18,21)        -59.9999         estimate D2E/DX2                !
 ! D55   D(17,16,18,19)       -179.9999         estimate D2E/DX2                !
 ! D56   D(17,16,18,20)        -59.9999         estimate D2E/DX2                !
 ! D57   D(17,16,18,21)         60.0001         estimate D2E/DX2                !
 ! D58   D(25,16,18,19)        -59.9999         estimate D2E/DX2                !
 ! D59   D(25,16,18,20)         60.0001         estimate D2E/DX2                !
 ! D60   D(25,16,18,21)       -179.9999         estimate D2E/DX2                !
 ! D61   D(13,16,25,26)       -157.4477         estimate D2E/DX2                !
 ! D62   D(13,16,25,27)        -37.4473         estimate D2E/DX2                !
 ! D63   D(13,16,25,28)         82.5534         estimate D2E/DX2                !
 ! D64   D(17,16,25,26)         82.5523         estimate D2E/DX2                !
 ! D65   D(17,16,25,27)       -157.4473         estimate D2E/DX2                !
 ! D66   D(17,16,25,28)        -37.4466         estimate D2E/DX2                !
 ! D67   D(18,16,25,26)        -37.4477         estimate D2E/DX2                !
 ! D68   D(18,16,25,27)         82.5527         estimate D2E/DX2                !
 ! D69   D(18,16,25,28)       -157.4466         estimate D2E/DX2                !
 --------------------------------------------------------------------------------
 Trust Radius=3.00D-01 FncErr=1.00D-07 GrdErr=1.00D-07
 Number of steps in this run=    165 maximum allowed number of steps=    180.
 GradGradGradGradGradGradGradGradGradGradGradGradGradGradGradGradGradGrad

                          Input orientation:                          
 ---------------------------------------------------------------------
 Center     Atomic      Atomic             Coordinates (Angstroms)
 Number     Number       Type             X           Y           Z
 ---------------------------------------------------------------------
      1          6           0       -3.233913   -0.067054   -0.164436
      2          1           0       -2.877258   -1.075864   -0.164436
      3          1           0       -2.877240    0.437344   -1.038088
      4          1           0       -4.303913   -0.067041   -0.164436
      5          6           0       -2.720570    0.658902    1.092969
      6          1           0       -3.077243    0.154504    1.966620
      7          6           0       -1.180570    0.658883    1.092968
      8          1           0       -0.823917   -0.349927    1.092988
      9          1           0       -0.823897    1.163265    0.219307
     10          6           0       -0.667228    1.384865    2.350359
     11          1           0       -1.023901    0.880483    3.224020
     12          1           0       -1.023882    2.393675    2.350339
     13          6           0        0.872772    1.384846    2.350358
     14          1           0        1.229444    1.889227    1.476697
     15          1           0        1.229426    0.376036    2.350378
     16          6           0        1.386114    2.110827    3.607749
     17          1           0        1.029443    1.606445    4.481410
     18          6           0        2.926114    2.110810    3.607747
     19          1           0        3.282785    2.615194    2.734086
     20          1           0        3.282787    2.615225    4.481389
     21          1           0        3.282770    1.102001    3.607764
     22          6           0       -3.233886    2.110834    1.092969
     23          1           0       -4.239982    2.133440    0.729429
     24          1           0       -3.205996    2.498996    2.089690
     25          6           0        0.872797    3.562759    3.607722
     26          1           0        1.509023    4.165980    4.221106
     27          1           0        0.877177    3.942623    2.607430
     28          1           0       -0.124464    3.588483    3.994645
     29          8           0       -3.710537    3.459057    1.092969
     30          8           0       -4.150522    4.703570    1.092969
 ---------------------------------------------------------------------
                    Distance matrix (angstroms):
                    1          2          3          4          5
     1  C    0.000000
     2  H    1.070000   0.000000
     3  H    1.070000   1.747302   0.000000
     4  H    1.070000   1.747303   1.747303   0.000000
     5  C    1.540000   2.148263   2.148263   2.148263   0.000000
     6  H    2.148263   2.468846   3.024611   2.468846   1.070000
     7  C    2.514809   2.732977   2.732978   3.444314   1.540000
     8  H    2.732986   2.514818   3.062257   3.710999   2.148263
     9  H    2.732968   3.062229   2.514800   3.710986   2.148263
    10  C    3.875581   4.154950   4.154939   4.653783   2.514809
    11  H    4.154950   4.329418   4.668704   4.810188   2.732977
    12  H    4.154938   4.668704   4.329388   4.810178   2.732977
    13  C    5.029618   5.142179   5.142170   5.935506   3.875581
    14  H    5.142169   5.324480   5.029608   6.094123   4.154944
    15  H    5.142180   5.029628   5.324487   6.094132   4.154945
    16  C    6.349582   6.523858   6.523843   7.165814   5.029618
    17  H    6.523855   6.636337   6.862493   7.268364   5.142175
    18  C    7.544428   7.619934   7.619920   8.440716   6.349582
    19  H    7.619923   7.744125   7.544417   8.552999   6.523850
    20  H    8.440716   8.553010   8.552995   9.291730   7.165814
    21  H    7.619930   7.544438   7.744122   8.553006   6.523851
    22  C    2.514809   3.444314   2.732978   2.732977   1.540000
    23  H    2.579407   3.599394   2.803198   2.375962   2.148262
    24  H    3.415622   4.238959   3.760516   3.587624   2.148263
    25  C    6.653554   7.057542   6.739031   7.362264   5.260100
    26  H    7.723146   8.120922   7.797509   8.422687   6.322523
    27  H    6.376661   6.853045   6.298605   7.113672   5.101000
    28  H    6.350557   6.828760   6.544910   6.937478   4.872570
    29  O    3.773817   4.779219   3.790321   3.790320   2.970000
    30  O    5.017977   6.050135   4.935923   4.935922   4.290000
                    6          7          8          9         10
     6  H    0.000000
     7  C    2.148263   0.000000
     8  H    2.468839   1.070000   0.000000
     9  H    3.024610   1.070000   1.747303   0.000000
    10  C    2.732986   1.540000   2.148263   2.148263   0.000000
    11  H    2.514819   2.148263   2.468846   3.024610   1.070000
    12  H    3.062257   2.148263   3.024611   2.468846   1.070000
    13  C    4.154951   2.514809   2.732978   2.732977   1.540000
    14  H    4.668709   2.732977   3.062243   2.514808   2.148263
    15  H    4.329405   2.732977   2.514810   3.062243   2.148263
    16  C    5.142185   3.875581   4.154945   4.154944   2.514809
    17  H    5.029629   4.154945   4.329403   4.668704   2.732978
    18  C    6.523859   5.029618   5.142176   5.142174   3.875581
    19  H    6.862504   5.142175   5.324485   5.029618   4.154944
    20  H    7.268369   5.935506   6.094128   6.094127   4.653783
    21  H    6.636330   5.142174   5.029619   5.324482   4.154945
    22  C    2.148263   2.514810   3.444314   2.732987   2.948864
    23  H    2.607449   3.415622   4.238960   3.587631   3.994039
    24  H    2.351248   2.912356   3.845007   3.310122   2.784705
    25  C    5.469207   4.355777   4.950942   4.485275   2.948874
    26  H    6.496806   5.414691   5.968345   5.520255   3.996294
    27  H    5.513431   4.160633   4.859345   4.040002   2.998900
    28  H    4.962258   4.256482   4.941652   4.541373   2.802535
    29  O    3.476262   3.773818   4.779219   3.790335   3.891662
    30  O    4.754913   5.017978   6.050135   4.935938   4.972743
                   11         12         13         14         15
    11  H    0.000000
    12  H    1.747303   0.000000
    13  C    2.148263   2.148263   0.000000
    14  H    3.024610   2.468846   1.070000   0.000000
    15  H    2.468846   3.024610   1.070000   1.747303   0.000000
    16  C    2.732978   2.732977   1.540000   2.148263   2.148263
    17  H    2.514810   3.062244   2.148263   3.024610   2.468845
    18  C    4.154946   4.154944   2.514809   2.732977   2.732978
    19  H    4.668705   4.329401   2.732978   2.514809   3.062245
    20  H    4.810184   4.810183   3.444314   3.710993   3.710992
    21  H    4.329405   4.668704   2.732977   3.062241   2.514809
    22  C    3.307443   2.558339   4.355770   4.485273   4.950936
    23  H    4.258645   3.610868   5.415538   5.525637   5.969118
    24  H    2.944117   2.200148   4.236228   4.518928   4.924215
    25  C    3.307460   2.558351   2.514810   2.732979   3.444314
    26  H    4.266659   3.613370   3.411630   3.576807   4.235738
    27  H    3.656635   2.465636   2.570667   2.370461   3.593146
    28  H    2.955691   2.222670   2.924752   3.325748   3.854406
    29  O    4.290505   3.151846   5.185566   5.197598   5.957293
    30  O    5.378953   4.085642   6.150483   6.083733   7.018011
                   16         17         18         19         20
    16  C    0.000000
    17  H    1.070000   0.000000
    18  C    1.540000   2.148263   0.000000
    19  H    2.148263   3.024610   1.070000   0.000000
    20  H    2.148263   2.468846   1.070000   1.747303   0.000000
    21  H    2.148263   2.468847   1.070000   1.747303   1.747303
    22  C    5.260088   5.469179   6.653549   6.739039   7.362257
    23  H    6.319667   6.490140   7.722574   7.800177   8.420295
    24  H    4.852077   4.945292   6.329136   6.521735   6.916505
    25  C    1.540000   2.148263   2.514809   2.732977   2.732978
    26  H    2.148248   2.617055   2.570619   2.786108   2.370407
    27  H    2.148285   2.998785   2.924776   2.750465   3.325759
    28  H    2.148255   2.344550   3.411632   3.761070   3.576802
    29  O    5.841035   6.114009   7.224058   7.232698   7.816650
    30  O    6.610656   6.921398   7.945143   7.893582   8.431884
                   21         22         23         24         25
    21  H    0.000000
    22  C    7.057531   0.000000
    23  H    8.120374   1.070000   0.000000
    24  H    6.808835   1.070000   1.747303   0.000000
    25  C    3.444314   5.029603   6.038876   4.480241   0.000000
    26  H    3.593096   6.041858   7.026669   5.436283   1.070000
    27  H    3.854436   4.748672   5.743287   4.361699   1.070000
    28  H    4.235742   4.502408   5.451263   3.783078   1.070000
    29  O    7.796554   1.430000   1.473002   1.473001   5.228927
    30  O    8.634195   2.750000   2.597256   2.597255   5.732291
                   26         27         28         29         30
    26  H    0.000000
    27  H    1.747303   0.000000
    28  H    1.747303   1.747303   0.000000
    29  O    6.126074   4.855362   4.614802   0.000000
    30  O    6.488813   5.305694   5.086481   1.320000   0.000000
 Stoichiometry    C9H19O2(2)
 Framework group  C1[X(C9H19O2)]
 Deg. of freedom    84
 Full point group                 C1      NOp   1
 Largest Abelian subgroup         C1      NOp   1
 Largest concise Abelian subgroup C1      NOp   1
                         Standard orientation:                         
 ---------------------------------------------------------------------
 Center     Atomic      Atomic             Coordinates (Angstroms)
 Number     Number       Type             X           Y           Z
 ---------------------------------------------------------------------
      1          6           0       -2.824469   -2.226829   -0.215039
      2          1           0       -2.517942   -3.237582   -0.043814
      3          1           0       -2.890494   -2.047631   -1.267858
      4          1           0       -3.781169   -2.063099    0.235313
      5          6           0       -1.793679   -1.265660    0.405627
      6          1           0       -1.727654   -1.444858    1.458446
      7          6           0       -0.416746   -1.501308   -0.242544
      8          1           0       -0.110211   -2.512056   -0.071301
      9          1           0       -0.482776   -1.322129   -1.295366
     10          6           0        0.614037   -0.540119    0.378102
     11          1           0        0.680067   -0.719299    1.430924
     12          1           0        0.307501    0.470629    0.206860
     13          6           0        1.990970   -0.775767   -0.270069
     14          1           0        1.924940   -0.596588   -1.322891
     15          1           0        2.297507   -1.786516   -0.098827
     16          6           0        3.021754    0.185422    0.350577
     17          1           0        3.087784    0.006241    1.403399
     18          6           0        4.398686   -0.050225   -0.297596
     19          1           0        4.332655    0.128957   -1.350418
     20          1           0        5.114880    0.617613    0.133633
     21          1           0        4.705222   -1.060974   -0.126357
     22          6           0       -2.234850    0.189070    0.159191
     23          1           0       -3.296883    0.262772    0.266680
     24          1           0       -1.758950    0.831444    0.870369
     25          6           0        2.580570    1.640143    0.104118
     26          1           0        3.431416    2.286080    0.165163
     27          1           0        2.141336    1.719792   -0.868317
     28          1           0        1.862438    1.925314    0.844296
     29          8           0       -2.644508    1.539890   -0.069643
     30          8           0       -3.022654    2.786801   -0.280874
 ---------------------------------------------------------------------
 Rotational constants (GHZ):      1.3170841      0.4563921      0.3510356
 Standard basis: VSTO-6G (5D, 7F)
 There are    63 symmetry adapted basis functions of A   symmetry.
 Integral buffers will be    131072 words long.
 Regular integral format.
 Two-electron integral symmetry is turned off.
    63 basis functions,   378 primitive gaussians,    63 cartesian basis functions
    34 alpha electrons       33 beta electrons
       nuclear repulsion energy       401.9853597599 Hartrees.
 Do NDO integrals.
 One-electron integrals computed using PRISM.
 NBasis=    63 RedAO= F  NBF=    63
 NBsUse=    63 1.00D-04 NBFU=    63
 Simple Huckel Guess.
 Initial guess orbital symmetries:
 Alpha Orbitals:
       Occupied  (A) (A) (A) (A) (A) (A) (A) (A) (A) (A) (A) (A)
                 (A) (A) (A) (A) (A) (A) (A) (A) (A) (A) (A) (A)
                 (A) (A) (A) (A) (A) (A) (A) (A) (A) (A)
       Virtual   (A) (A) (A) (A) (A) (A) (A) (A) (A) (A) (A) (A)
                 (A) (A) (A) (A) (A) (A) (A) (A) (A) (A) (A) (A)
                 (A) (A) (A) (A) (A)
 Beta  Orbitals:
       Occupied  (A) (A) (A) (A) (A) (A) (A) (A) (A) (A) (A) (A)
                 (A) (A) (A) (A) (A) (A) (A) (A) (A) (A) (A) (A)
                 (A) (A) (A) (A) (A) (A) (A) (A) (A)
       Virtual   (A) (A) (A) (A) (A) (A) (A) (A) (A) (A) (A) (A)
                 (A) (A) (A) (A) (A) (A) (A) (A) (A) (A) (A) (A)
                 (A) (A) (A) (A) (A) (A)
 The electronic state of the initial guess is 2-A.
 Initial guess <Sx>= 0.0000 <Sy>= 0.0000 <Sz>= 0.5000 <S**2>= 0.7500 S= 0.5000
 Requested convergence on RMS density matrix=1.00D-08 within 128 cycles.
 Requested convergence on MAX density matrix=1.00D-06.
 Requested convergence on             energy=1.00D-06.
 No special actions if energy rises.
 Overlap will be assumed to be unity.
 Keep J ints in memory in canonical form, NReq=898537.
 Rare condition: small coef for last iteration:  0.000D+00
 Rare condition: small coef for last iteration:  0.000D+00
 Rare condition: small coef for last iteration:  0.000D+00
 Rare condition: small coef for last iteration:  0.000D+00
 Rare condition: small coef for last iteration:  0.000D+00
 Rare condition: small coef for last iteration:  0.000D+00
 Rare condition: small coef for last iteration:  0.000D+00
 Rare condition: small coef for last iteration:  0.000D+00
 Rare condition: small coef for last iteration:  0.000D+00
 Rare condition: small coef for last iteration:  0.000D+00
 Rare condition: small coef for last iteration:  0.000D+00
 Rare condition: small coef for last iteration:  0.000D+00
 Rare condition: small coef for last iteration:  0.000D+00
 Rare condition: small coef for last iteration:  0.000D+00
 Matrix for removal 12 Erem= 0.261382672085915     Crem= 0.000D+00
 Rare condition: small coef for last iteration:  0.000D+00
 Matrix for removal 19 Erem= 0.261385704988754     Crem= 0.000D+00
 SCF Done:  E(UAM1) =  0.261435291581     A.U. after   59 cycles
             Convg  =    0.9185D-08             -V/T =  1.0058
 <Sx>= 0.0000 <Sy>= 0.0000 <Sz>= 0.5000 <S**2>= 0.8626 S= 0.5548
 <L.S>= 0.000000000000E+00
 Annihilation of the first spin contaminant:
 S**2 before annihilation     0.8626,   after     0.7518

 **********************************************************************

            Population analysis using the SCF density.

 **********************************************************************

 Orbital symmetries:
 Alpha Orbitals:
       Occupied  (A) (A) (A) (A) (A) (A) (A) (A) (A) (A) (A) (A)
                 (A) (A) (A) (A) (A) (A) (A) (A) (A) (A) (A) (A)
                 (A) (A) (A) (A) (A) (A) (A) (A) (A) (A)
       Virtual   (A) (A) (A) (A) (A) (A) (A) (A) (A) (A) (A) (A)
                 (A) (A) (A) (A) (A) (A) (A) (A) (A) (A) (A) (A)
                 (A) (A) (A) (A) (A)
 Beta  Orbitals:
       Occupied  (A) (A) (A) (A) (A) (A) (A) (A) (A) (A) (A) (A)
                 (A) (A) (A) (A) (A) (A) (A) (A) (A) (A) (A) (A)
                 (A) (A) (A) (A) (A) (A) (A) (A) (A)
       Virtual   (A) (A) (A) (A) (A) (A) (A) (A) (A) (A) (A) (A)
                 (A) (A) (A) (A) (A) (A) (A) (A) (A) (A) (A) (A)
                 (A) (A) (A) (A) (A) (A)
 The electronic state is 2-A.
 Alpha  occ. eigenvalues --   -1.44534  -1.39609  -1.35177  -1.25409  -1.19049
 Alpha  occ. eigenvalues --   -1.04479  -1.02575  -0.98600  -0.86633  -0.81364
 Alpha  occ. eigenvalues --   -0.77619  -0.67306  -0.65232  -0.61715  -0.59557
 Alpha  occ. eigenvalues --   -0.56975  -0.56408  -0.54588  -0.54382  -0.52490
 Alpha  occ. eigenvalues --   -0.50620  -0.49365  -0.48645  -0.47821  -0.47454
 Alpha  occ. eigenvalues --   -0.46311  -0.45853  -0.44640  -0.43178  -0.42829
 Alpha  occ. eigenvalues --   -0.42469  -0.41685  -0.38081  -0.34426
 Alpha virt. eigenvalues --   -0.02098   0.08570   0.11886   0.12134   0.13554
 Alpha virt. eigenvalues --    0.13878   0.14226   0.14578   0.14677   0.14818
 Alpha virt. eigenvalues --    0.15148   0.15769   0.16081   0.16379   0.16781
 Alpha virt. eigenvalues --    0.17000   0.17172   0.17374   0.17579   0.17896
 Alpha virt. eigenvalues --    0.18156   0.18187   0.18346   0.18852   0.19039
 Alpha virt. eigenvalues --    0.19458   0.19948   0.20193   0.25996
  Beta  occ. eigenvalues --   -1.44539  -1.39814  -1.34452  -1.20440  -1.16611
  Beta  occ. eigenvalues --   -1.04478  -1.02409  -0.96669  -0.86345  -0.80217
  Beta  occ. eigenvalues --   -0.77529  -0.66415  -0.65032  -0.61304  -0.59017
  Beta  occ. eigenvalues --   -0.56325  -0.55832  -0.54383  -0.53626  -0.52088
  Beta  occ. eigenvalues --   -0.50483  -0.49323  -0.48495  -0.47698  -0.46954
  Beta  occ. eigenvalues --   -0.46035  -0.44641  -0.44574  -0.43010  -0.42801
  Beta  occ. eigenvalues --   -0.42012  -0.39067  -0.33786
  Beta virt. eigenvalues --   -0.03071   0.03861   0.10172   0.12006   0.12212
  Beta virt. eigenvalues --    0.13674   0.13923   0.14257   0.14613   0.14864
  Beta virt. eigenvalues --    0.15079   0.15212   0.15920   0.16092   0.16407
  Beta virt. eigenvalues --    0.16802   0.17013   0.17200   0.17377   0.17579
  Beta virt. eigenvalues --    0.17902   0.18164   0.18193   0.18351   0.18855
  Beta virt. eigenvalues --    0.19041   0.19459   0.19948   0.20193   0.28250
          Condensed to atoms (all electrons):
              1          2          3          4          5          6
     1  C    4.209872   0.000000   0.000000   0.000000   0.000000   0.000000
     2  H    0.000000   0.919415   0.000000   0.000000   0.000000   0.000000
     3  H    0.000000   0.000000   0.916533   0.000000   0.000000   0.000000
     4  H    0.000000   0.000000   0.000000   0.922946   0.000000   0.000000
     5  C    0.000000   0.000000   0.000000   0.000000   4.151902   0.000000
     6  H    0.000000   0.000000   0.000000   0.000000   0.000000   0.877842
     7  C    0.000000   0.000000   0.000000   0.000000   0.000000   0.000000
     8  H    0.000000   0.000000   0.000000   0.000000   0.000000   0.000000
     9  H    0.000000   0.000000   0.000000   0.000000   0.000000   0.000000
    10  C    0.000000   0.000000   0.000000   0.000000   0.000000   0.000000
    11  H    0.000000   0.000000   0.000000   0.000000   0.000000   0.000000
    12  H    0.000000   0.000000   0.000000   0.000000   0.000000   0.000000
    13  C    0.000000   0.000000   0.000000   0.000000   0.000000   0.000000
    14  H    0.000000   0.000000   0.000000   0.000000   0.000000   0.000000
    15  H    0.000000   0.000000   0.000000   0.000000   0.000000   0.000000
    16  C    0.000000   0.000000   0.000000   0.000000   0.000000   0.000000
    17  H    0.000000   0.000000   0.000000   0.000000   0.000000   0.000000
    18  C    0.000000   0.000000   0.000000   0.000000   0.000000   0.000000
    19  H    0.000000   0.000000   0.000000   0.000000   0.000000   0.000000
    20  H    0.000000   0.000000   0.000000   0.000000   0.000000   0.000000
    21  H    0.000000   0.000000   0.000000   0.000000   0.000000   0.000000
    22  C    0.000000   0.000000   0.000000   0.000000   0.000000   0.000000
    23  H    0.000000   0.000000   0.000000   0.000000   0.000000   0.000000
    24  H    0.000000   0.000000   0.000000   0.000000   0.000000   0.000000
    25  C    0.000000   0.000000   0.000000   0.000000   0.000000   0.000000
    26  H    0.000000   0.000000   0.000000   0.000000   0.000000   0.000000
    27  H    0.000000   0.000000   0.000000   0.000000   0.000000   0.000000
    28  H    0.000000   0.000000   0.000000   0.000000   0.000000   0.000000
    29  O    0.000000   0.000000   0.000000   0.000000   0.000000   0.000000
    30  O    0.000000   0.000000   0.000000   0.000000   0.000000   0.000000
              7          8          9         10         11         12
     1  C    0.000000   0.000000   0.000000   0.000000   0.000000   0.000000
     2  H    0.000000   0.000000   0.000000   0.000000   0.000000   0.000000
     3  H    0.000000   0.000000   0.000000   0.000000   0.000000   0.000000
     4  H    0.000000   0.000000   0.000000   0.000000   0.000000   0.000000
     5  C    0.000000   0.000000   0.000000   0.000000   0.000000   0.000000
     6  H    0.000000   0.000000   0.000000   0.000000   0.000000   0.000000
     7  C    4.155103   0.000000   0.000000   0.000000   0.000000   0.000000
     8  H    0.000000   0.913798   0.000000   0.000000   0.000000   0.000000
     9  H    0.000000   0.000000   0.910123   0.000000   0.000000   0.000000
    10  C    0.000000   0.000000   0.000000   4.167577   0.000000   0.000000
    11  H    0.000000   0.000000   0.000000   0.000000   0.920582   0.000000
    12  H    0.000000   0.000000   0.000000   0.000000   0.000000   0.909428
    13  C    0.000000   0.000000   0.000000   0.000000   0.000000   0.000000
    14  H    0.000000   0.000000   0.000000   0.000000   0.000000   0.000000
    15  H    0.000000   0.000000   0.000000   0.000000   0.000000   0.000000
    16  C    0.000000   0.000000   0.000000   0.000000   0.000000   0.000000
    17  H    0.000000   0.000000   0.000000   0.000000   0.000000   0.000000
    18  C    0.000000   0.000000   0.000000   0.000000   0.000000   0.000000
    19  H    0.000000   0.000000   0.000000   0.000000   0.000000   0.000000
    20  H    0.000000   0.000000   0.000000   0.000000   0.000000   0.000000
    21  H    0.000000   0.000000   0.000000   0.000000   0.000000   0.000000
    22  C    0.000000   0.000000   0.000000   0.000000   0.000000   0.000000
    23  H    0.000000   0.000000   0.000000   0.000000   0.000000   0.000000
    24  H    0.000000   0.000000   0.000000   0.000000   0.000000   0.000000
    25  C    0.000000   0.000000   0.000000   0.000000   0.000000   0.000000
    26  H    0.000000   0.000000   0.000000   0.000000   0.000000   0.000000
    27  H    0.000000   0.000000   0.000000   0.000000   0.000000   0.000000
    28  H    0.000000   0.000000   0.000000   0.000000   0.000000   0.000000
    29  O    0.000000   0.000000   0.000000   0.000000   0.000000   0.000000
    30  O    0.000000   0.000000   0.000000   0.000000   0.000000   0.000000
             13         14         15         16         17         18
     1  C    0.000000   0.000000   0.000000   0.000000   0.000000   0.000000
     2  H    0.000000   0.000000   0.000000   0.000000   0.000000   0.000000
     3  H    0.000000   0.000000   0.000000   0.000000   0.000000   0.000000
     4  H    0.000000   0.000000   0.000000   0.000000   0.000000   0.000000
     5  C    0.000000   0.000000   0.000000   0.000000   0.000000   0.000000
     6  H    0.000000   0.000000   0.000000   0.000000   0.000000   0.000000
     7  C    0.000000   0.000000   0.000000   0.000000   0.000000   0.000000
     8  H    0.000000   0.000000   0.000000   0.000000   0.000000   0.000000
     9  H    0.000000   0.000000   0.000000   0.000000   0.000000   0.000000
    10  C    0.000000   0.000000   0.000000   0.000000   0.000000   0.000000
    11  H    0.000000   0.000000   0.000000   0.000000   0.000000   0.000000
    12  H    0.000000   0.000000   0.000000   0.000000   0.000000   0.000000
    13  C    4.152554   0.000000   0.000000   0.000000   0.000000   0.000000
    14  H    0.000000   0.916451   0.000000   0.000000   0.000000   0.000000
    15  H    0.000000   0.000000   0.920751   0.000000   0.000000   0.000000
    16  C    0.000000   0.000000   0.000000   4.117458   0.000000   0.000000
    17  H    0.000000   0.000000   0.000000   0.000000   0.912770   0.000000
    18  C    0.000000   0.000000   0.000000   0.000000   0.000000   4.203322
    19  H    0.000000   0.000000   0.000000   0.000000   0.000000   0.000000
    20  H    0.000000   0.000000   0.000000   0.000000   0.000000   0.000000
    21  H    0.000000   0.000000   0.000000   0.000000   0.000000   0.000000
    22  C    0.000000   0.000000   0.000000   0.000000   0.000000   0.000000
    23  H    0.000000   0.000000   0.000000   0.000000   0.000000   0.000000
    24  H    0.000000   0.000000   0.000000   0.000000   0.000000   0.000000
    25  C    0.000000   0.000000   0.000000   0.000000   0.000000   0.000000
    26  H    0.000000   0.000000   0.000000   0.000000   0.000000   0.000000
    27  H    0.000000   0.000000   0.000000   0.000000   0.000000   0.000000
    28  H    0.000000   0.000000   0.000000   0.000000   0.000000   0.000000
    29  O    0.000000   0.000000   0.000000   0.000000   0.000000   0.000000
    30  O    0.000000   0.000000   0.000000   0.000000   0.000000   0.000000
             19         20         21         22         23         24
     1  C    0.000000   0.000000   0.000000   0.000000   0.000000   0.000000
     2  H    0.000000   0.000000   0.000000   0.000000   0.000000   0.000000
     3  H    0.000000   0.000000   0.000000   0.000000   0.000000   0.000000
     4  H    0.000000   0.000000   0.000000   0.000000   0.000000   0.000000
     5  C    0.000000   0.000000   0.000000   0.000000   0.000000   0.000000
     6  H    0.000000   0.000000   0.000000   0.000000   0.000000   0.000000
     7  C    0.000000   0.000000   0.000000   0.000000   0.000000   0.000000
     8  H    0.000000   0.000000   0.000000   0.000000   0.000000   0.000000
     9  H    0.000000   0.000000   0.000000   0.000000   0.000000   0.000000
    10  C    0.000000   0.000000   0.000000   0.000000   0.000000   0.000000
    11  H    0.000000   0.000000   0.000000   0.000000   0.000000   0.000000
    12  H    0.000000   0.000000   0.000000   0.000000   0.000000   0.000000
    13  C    0.000000   0.000000   0.000000   0.000000   0.000000   0.000000
    14  H    0.000000   0.000000   0.000000   0.000000   0.000000   0.000000
    15  H    0.000000   0.000000   0.000000   0.000000   0.000000   0.000000
    16  C    0.000000   0.000000   0.000000   0.000000   0.000000   0.000000
    17  H    0.000000   0.000000   0.000000   0.000000   0.000000   0.000000
    18  C    0.000000   0.000000   0.000000   0.000000   0.000000   0.000000
    19  H    0.926242   0.000000   0.000000   0.000000   0.000000   0.000000
    20  H    0.000000   0.926160   0.000000   0.000000   0.000000   0.000000
    21  H    0.000000   0.000000   0.929402   0.000000   0.000000   0.000000
    22  C    0.000000   0.000000   0.000000   3.928410   0.000000   0.000000
    23  H    0.000000   0.000000   0.000000   0.000000   0.853825   0.000000
    24  H    0.000000   0.000000   0.000000   0.000000   0.000000   0.854750
    25  C    0.000000   0.000000   0.000000   0.000000   0.000000   0.000000
    26  H    0.000000   0.000000   0.000000   0.000000   0.000000   0.000000
    27  H    0.000000   0.000000   0.000000   0.000000   0.000000   0.000000
    28  H    0.000000   0.000000   0.000000   0.000000   0.000000   0.000000
    29  O    0.000000   0.000000   0.000000   0.000000   0.000000   0.000000
    30  O    0.000000   0.000000   0.000000   0.000000   0.000000   0.000000
             25         26         27         28         29         30
     1  C    0.000000   0.000000   0.000000   0.000000   0.000000   0.000000
     2  H    0.000000   0.000000   0.000000   0.000000   0.000000   0.000000
     3  H    0.000000   0.000000   0.000000   0.000000   0.000000   0.000000
     4  H    0.000000   0.000000   0.000000   0.000000   0.000000   0.000000
     5  C    0.000000   0.000000   0.000000   0.000000   0.000000   0.000000
     6  H    0.000000   0.000000   0.000000   0.000000   0.000000   0.000000
     7  C    0.000000   0.000000   0.000000   0.000000   0.000000   0.000000
     8  H    0.000000   0.000000   0.000000   0.000000   0.000000   0.000000
     9  H    0.000000   0.000000   0.000000   0.000000   0.000000   0.000000
    10  C    0.000000   0.000000   0.000000   0.000000   0.000000   0.000000
    11  H    0.000000   0.000000   0.000000   0.000000   0.000000   0.000000
    12  H    0.000000   0.000000   0.000000   0.000000   0.000000   0.000000
    13  C    0.000000   0.000000   0.000000   0.000000   0.000000   0.000000
    14  H    0.000000   0.000000   0.000000   0.000000   0.000000   0.000000
    15  H    0.000000   0.000000   0.000000   0.000000   0.000000   0.000000
    16  C    0.000000   0.000000   0.000000   0.000000   0.000000   0.000000
    17  H    0.000000   0.000000   0.000000   0.000000   0.000000   0.000000
    18  C    0.000000   0.000000   0.000000   0.000000   0.000000   0.000000
    19  H    0.000000   0.000000   0.000000   0.000000   0.000000   0.000000
    20  H    0.000000   0.000000   0.000000   0.000000   0.000000   0.000000
    21  H    0.000000   0.000000   0.000000   0.000000   0.000000   0.000000
    22  C    0.000000   0.000000   0.000000   0.000000   0.000000   0.000000
    23  H    0.000000   0.000000   0.000000   0.000000   0.000000   0.000000
    24  H    0.000000   0.000000   0.000000   0.000000   0.000000   0.000000
    25  C    4.205000   0.000000   0.000000   0.000000   0.000000   0.000000
    26  H    0.000000   0.925919   0.000000   0.000000   0.000000   0.000000
    27  H    0.000000   0.000000   0.924250   0.000000   0.000000   0.000000
    28  H    0.000000   0.000000   0.000000   0.927380   0.000000   0.000000
    29  O    0.000000   0.000000   0.000000   0.000000   6.261748   0.000000
    30  O    0.000000   0.000000   0.000000   0.000000   0.000000   6.138490
 Mulliken atomic charges:
              1
     1  C   -0.209872
     2  H    0.080585
     3  H    0.083467
     4  H    0.077054
     5  C   -0.151902
     6  H    0.122158
     7  C   -0.155103
     8  H    0.086202
     9  H    0.089877
    10  C   -0.167577
    11  H    0.079418
    12  H    0.090572
    13  C   -0.152554
    14  H    0.083549
    15  H    0.079249
    16  C   -0.117458
    17  H    0.087230
    18  C   -0.203322
    19  H    0.073758
    20  H    0.073840
    21  H    0.070598
    22  C    0.071590
    23  H    0.146175
    24  H    0.145250
    25  C   -0.205000
    26  H    0.074081
    27  H    0.075750
    28  H    0.072620
    29  O   -0.261748
    30  O   -0.138490
 Sum of Mulliken atomic charges =   0.00000
 Mulliken charges with hydrogens summed into heavy atoms:
              1
     1  C    0.031234
     5  C   -0.029744
     7  C    0.020976
    10  C    0.002413
    13  C    0.010245
    16  C   -0.030228
    18  C    0.014874
    22  C    0.363016
    25  C    0.017451
    29  O   -0.261748
    30  O   -0.138490
 Sum of Mulliken charges with hydrogens summed into heavy atoms =   0.00000
          Atomic-Atomic Spin Densities.
              1          2          3          4          5          6
     1  C    0.001234   0.000000   0.000000   0.000000   0.000000   0.000000
     2  H    0.000000  -0.000217   0.000000   0.000000   0.000000   0.000000
     3  H    0.000000   0.000000  -0.000085   0.000000   0.000000   0.000000
     4  H    0.000000   0.000000   0.000000  -0.000123   0.000000   0.000000
     5  C    0.000000   0.000000   0.000000   0.000000  -0.011574   0.000000
     6  H    0.000000   0.000000   0.000000   0.000000   0.000000   0.016584
     7  C    0.000000   0.000000   0.000000   0.000000   0.000000   0.000000
     8  H    0.000000   0.000000   0.000000   0.000000   0.000000   0.000000
     9  H    0.000000   0.000000   0.000000   0.000000   0.000000   0.000000
    10  C    0.000000   0.000000   0.000000   0.000000   0.000000   0.000000
    11  H    0.000000   0.000000   0.000000   0.000000   0.000000   0.000000
    12  H    0.000000   0.000000   0.000000   0.000000   0.000000   0.000000
    13  C    0.000000   0.000000   0.000000   0.000000   0.000000   0.000000
    14  H    0.000000   0.000000   0.000000   0.000000   0.000000   0.000000
    15  H    0.000000   0.000000   0.000000   0.000000   0.000000   0.000000
    16  C    0.000000   0.000000   0.000000   0.000000   0.000000   0.000000
    17  H    0.000000   0.000000   0.000000   0.000000   0.000000   0.000000
    18  C    0.000000   0.000000   0.000000   0.000000   0.000000   0.000000
    19  H    0.000000   0.000000   0.000000   0.000000   0.000000   0.000000
    20  H    0.000000   0.000000   0.000000   0.000000   0.000000   0.000000
    21  H    0.000000   0.000000   0.000000   0.000000   0.000000   0.000000
    22  C    0.000000   0.000000   0.000000   0.000000   0.000000   0.000000
    23  H    0.000000   0.000000   0.000000   0.000000   0.000000   0.000000
    24  H    0.000000   0.000000   0.000000   0.000000   0.000000   0.000000
    25  C    0.000000   0.000000   0.000000   0.000000   0.000000   0.000000
    26  H    0.000000   0.000000   0.000000   0.000000   0.000000   0.000000
    27  H    0.000000   0.000000   0.000000   0.000000   0.000000   0.000000
    28  H    0.000000   0.000000   0.000000   0.000000   0.000000   0.000000
    29  O    0.000000   0.000000   0.000000   0.000000   0.000000   0.000000
    30  O    0.000000   0.000000   0.000000   0.000000   0.000000   0.000000
              7          8          9         10         11         12
     1  C    0.000000   0.000000   0.000000   0.000000   0.000000   0.000000
     2  H    0.000000   0.000000   0.000000   0.000000   0.000000   0.000000
     3  H    0.000000   0.000000   0.000000   0.000000   0.000000   0.000000
     4  H    0.000000   0.000000   0.000000   0.000000   0.000000   0.000000
     5  C    0.000000   0.000000   0.000000   0.000000   0.000000   0.000000
     6  H    0.000000   0.000000   0.000000   0.000000   0.000000   0.000000
     7  C    0.002802   0.000000   0.000000   0.000000   0.000000   0.000000
     8  H    0.000000  -0.001216   0.000000   0.000000   0.000000   0.000000
     9  H    0.000000   0.000000  -0.000121   0.000000   0.000000   0.000000
    10  C    0.000000   0.000000   0.000000   0.000032   0.000000   0.000000
    11  H    0.000000   0.000000   0.000000   0.000000   0.000024   0.000000
    12  H    0.000000   0.000000   0.000000   0.000000   0.000000  -0.000049
    13  C    0.000000   0.000000   0.000000   0.000000   0.000000   0.000000
    14  H    0.000000   0.000000   0.000000   0.000000   0.000000   0.000000
    15  H    0.000000   0.000000   0.000000   0.000000   0.000000   0.000000
    16  C    0.000000   0.000000   0.000000   0.000000   0.000000   0.000000
    17  H    0.000000   0.000000   0.000000   0.000000   0.000000   0.000000
    18  C    0.000000   0.000000   0.000000   0.000000   0.000000   0.000000
    19  H    0.000000   0.000000   0.000000   0.000000   0.000000   0.000000
    20  H    0.000000   0.000000   0.000000   0.000000   0.000000   0.000000
    21  H    0.000000   0.000000   0.000000   0.000000   0.000000   0.000000
    22  C    0.000000   0.000000   0.000000   0.000000   0.000000   0.000000
    23  H    0.000000   0.000000   0.000000   0.000000   0.000000   0.000000
    24  H    0.000000   0.000000   0.000000   0.000000   0.000000   0.000000
    25  C    0.000000   0.000000   0.000000   0.000000   0.000000   0.000000
    26  H    0.000000   0.000000   0.000000   0.000000   0.000000   0.000000
    27  H    0.000000   0.000000   0.000000   0.000000   0.000000   0.000000
    28  H    0.000000   0.000000   0.000000   0.000000   0.000000   0.000000
    29  O    0.000000   0.000000   0.000000   0.000000   0.000000   0.000000
    30  O    0.000000   0.000000   0.000000   0.000000   0.000000   0.000000
             13         14         15         16         17         18
     1  C    0.000000   0.000000   0.000000   0.000000   0.000000   0.000000
     2  H    0.000000   0.000000   0.000000   0.000000   0.000000   0.000000
     3  H    0.000000   0.000000   0.000000   0.000000   0.000000   0.000000
     4  H    0.000000   0.000000   0.000000   0.000000   0.000000   0.000000
     5  C    0.000000   0.000000   0.000000   0.000000   0.000000   0.000000
     6  H    0.000000   0.000000   0.000000   0.000000   0.000000   0.000000
     7  C    0.000000   0.000000   0.000000   0.000000   0.000000   0.000000
     8  H    0.000000   0.000000   0.000000   0.000000   0.000000   0.000000
     9  H    0.000000   0.000000   0.000000   0.000000   0.000000   0.000000
    10  C    0.000000   0.000000   0.000000   0.000000   0.000000   0.000000
    11  H    0.000000   0.000000   0.000000   0.000000   0.000000   0.000000
    12  H    0.000000   0.000000   0.000000   0.000000   0.000000   0.000000
    13  C   -0.000002   0.000000   0.000000   0.000000   0.000000   0.000000
    14  H    0.000000   0.000000   0.000000   0.000000   0.000000   0.000000
    15  H    0.000000   0.000000   0.000006   0.000000   0.000000   0.000000
    16  C    0.000000   0.000000   0.000000   0.000018   0.000000   0.000000
    17  H    0.000000   0.000000   0.000000   0.000000  -0.000001   0.000000
    18  C    0.000000   0.000000   0.000000   0.000000   0.000000   0.000001
    19  H    0.000000   0.000000   0.000000   0.000000   0.000000   0.000000
    20  H    0.000000   0.000000   0.000000   0.000000   0.000000   0.000000
    21  H    0.000000   0.000000   0.000000   0.000000   0.000000   0.000000
    22  C    0.000000   0.000000   0.000000   0.000000   0.000000   0.000000
    23  H    0.000000   0.000000   0.000000   0.000000   0.000000   0.000000
    24  H    0.000000   0.000000   0.000000   0.000000   0.000000   0.000000
    25  C    0.000000   0.000000   0.000000   0.000000   0.000000   0.000000
    26  H    0.000000   0.000000   0.000000   0.000000   0.000000   0.000000
    27  H    0.000000   0.000000   0.000000   0.000000   0.000000   0.000000
    28  H    0.000000   0.000000   0.000000   0.000000   0.000000   0.000000
    29  O    0.000000   0.000000   0.000000   0.000000   0.000000   0.000000
    30  O    0.000000   0.000000   0.000000   0.000000   0.000000   0.000000
             19         20         21         22         23         24
     1  C    0.000000   0.000000   0.000000   0.000000   0.000000   0.000000
     2  H    0.000000   0.000000   0.000000   0.000000   0.000000   0.000000
     3  H    0.000000   0.000000   0.000000   0.000000   0.000000   0.000000
     4  H    0.000000   0.000000   0.000000   0.000000   0.000000   0.000000
     5  C    0.000000   0.000000   0.000000   0.000000   0.000000   0.000000
     6  H    0.000000   0.000000   0.000000   0.000000   0.000000   0.000000
     7  C    0.000000   0.000000   0.000000   0.000000   0.000000   0.000000
     8  H    0.000000   0.000000   0.000000   0.000000   0.000000   0.000000
     9  H    0.000000   0.000000   0.000000   0.000000   0.000000   0.000000
    10  C    0.000000   0.000000   0.000000   0.000000   0.000000   0.000000
    11  H    0.000000   0.000000   0.000000   0.000000   0.000000   0.000000
    12  H    0.000000   0.000000   0.000000   0.000000   0.000000   0.000000
    13  C    0.000000   0.000000   0.000000   0.000000   0.000000   0.000000
    14  H    0.000000   0.000000   0.000000   0.000000   0.000000   0.000000
    15  H    0.000000   0.000000   0.000000   0.000000   0.000000   0.000000
    16  C    0.000000   0.000000   0.000000   0.000000   0.000000   0.000000
    17  H    0.000000   0.000000   0.000000   0.000000   0.000000   0.000000
    18  C    0.000000   0.000000   0.000000   0.000000   0.000000   0.000000
    19  H    0.000000   0.000000   0.000000   0.000000   0.000000   0.000000
    20  H    0.000000   0.000001   0.000000   0.000000   0.000000   0.000000
    21  H    0.000000   0.000000   0.000000   0.000000   0.000000   0.000000
    22  C    0.000000   0.000000   0.000000   0.406362   0.000000   0.000000
    23  H    0.000000   0.000000   0.000000   0.000000  -0.028428   0.000000
    24  H    0.000000   0.000000   0.000000   0.000000   0.000000  -0.028620
    25  C    0.000000   0.000000   0.000000   0.000000   0.000000   0.000000
    26  H    0.000000   0.000000   0.000000   0.000000   0.000000   0.000000
    27  H    0.000000   0.000000   0.000000   0.000000   0.000000   0.000000
    28  H    0.000000   0.000000   0.000000   0.000000   0.000000   0.000000
    29  O    0.000000   0.000000   0.000000   0.000000   0.000000   0.000000
    30  O    0.000000   0.000000   0.000000   0.000000   0.000000   0.000000
             25         26         27         28         29         30
     1  C    0.000000   0.000000   0.000000   0.000000   0.000000   0.000000
     2  H    0.000000   0.000000   0.000000   0.000000   0.000000   0.000000
     3  H    0.000000   0.000000   0.000000   0.000000   0.000000   0.000000
     4  H    0.000000   0.000000   0.000000   0.000000   0.000000   0.000000
     5  C    0.000000   0.000000   0.000000   0.000000   0.000000   0.000000
     6  H    0.000000   0.000000   0.000000   0.000000   0.000000   0.000000
     7  C    0.000000   0.000000   0.000000   0.000000   0.000000   0.000000
     8  H    0.000000   0.000000   0.000000   0.000000   0.000000   0.000000
     9  H    0.000000   0.000000   0.000000   0.000000   0.000000   0.000000
    10  C    0.000000   0.000000   0.000000   0.000000   0.000000   0.000000
    11  H    0.000000   0.000000   0.000000   0.000000   0.000000   0.000000
    12  H    0.000000   0.000000   0.000000   0.000000   0.000000   0.000000
    13  C    0.000000   0.000000   0.000000   0.000000   0.000000   0.000000
    14  H    0.000000   0.000000   0.000000   0.000000   0.000000   0.000000
    15  H    0.000000   0.000000   0.000000   0.000000   0.000000   0.000000
    16  C    0.000000   0.000000   0.000000   0.000000   0.000000   0.000000
    17  H    0.000000   0.000000   0.000000   0.000000   0.000000   0.000000
    18  C    0.000000   0.000000   0.000000   0.000000   0.000000   0.000000
    19  H    0.000000   0.000000   0.000000   0.000000   0.000000   0.000000
    20  H    0.000000   0.000000   0.000000   0.000000   0.000000   0.000000
    21  H    0.000000   0.000000   0.000000   0.000000   0.000000   0.000000
    22  C    0.000000   0.000000   0.000000   0.000000   0.000000   0.000000
    23  H    0.000000   0.000000   0.000000   0.000000   0.000000   0.000000
    24  H    0.000000   0.000000   0.000000   0.000000   0.000000   0.000000
    25  C   -0.000002   0.000000   0.000000   0.000000   0.000000   0.000000
    26  H    0.000000   0.000000   0.000000   0.000000   0.000000   0.000000
    27  H    0.000000   0.000000   0.000000   0.000000   0.000000   0.000000
    28  H    0.000000   0.000000   0.000000   0.000000   0.000000   0.000000
    29  O    0.000000   0.000000   0.000000   0.000000  -0.280505   0.000000
    30  O    0.000000   0.000000   0.000000   0.000000   0.000000   0.923880
 Mulliken atomic spin densities:
              1
     1  C    0.001234
     2  H   -0.000217
     3  H   -0.000085
     4  H   -0.000123
     5  C   -0.011574
     6  H    0.016584
     7  C    0.002802
     8  H   -0.001216
     9  H   -0.000121
    10  C    0.000032
    11  H    0.000024
    12  H   -0.000049
    13  C   -0.000002
    14  H    0.000000
    15  H    0.000006
    16  C    0.000018
    17  H   -0.000001
    18  C    0.000001
    19  H    0.000000
    20  H    0.000001
    21  H    0.000000
    22  C    0.406362
    23  H   -0.028428
    24  H   -0.028620
    25  C   -0.000002
    26  H    0.000000
    27  H    0.000000
    28  H    0.000000
    29  O   -0.280505
    30  O    0.923880
 Sum of Mulliken atomic spin densities =   1.00000
 Charge=              0.0000 electrons
 Dipole moment (field-independent basis, Debye):
    X=              1.1788    Y=             -3.6504    Z=              0.9242  Tot=              3.9458
 N-N= 4.019853597599D+02 E-N=-1.062218098603D+03  KE=-6.756501416973D+01
 Calling FoFJK, ICntrl=      2127 FMM=F ISym2X=0 I1Cent= 0 IOpClX= 1 NMat=1 NMatS=1 NMatT=0.
 ***** Axes restored to original set *****
 -------------------------------------------------------------------
 Center     Atomic                   Forces (Hartrees/Bohr)
 Number     Number              X              Y              Z
 -------------------------------------------------------------------
      1        6           0.015749312    0.021106083    0.037968830
      2        1           0.011656026   -0.033070425   -0.000052718
      3        1           0.011479591    0.016030612   -0.028898383
      4        1          -0.035226902   -0.000362330   -0.000367200
      5        6           0.039245081    0.038191228   -0.066581205
      6        1          -0.015129275   -0.010461621    0.030858455
      7        6          -0.029004839    0.020858184    0.039749394
      8        1           0.011807233   -0.033559173   -0.000604915
      9        1           0.011860346    0.016032008   -0.029238421
     10        6           0.032381398   -0.024910267   -0.038424135
     11        1          -0.011926258   -0.016231304    0.029206762
     12        1          -0.011741530    0.033684217    0.000029481
     13        6          -0.032105227    0.020355814    0.038042069
     14        1           0.012092414    0.016169972   -0.029204551
     15        1           0.012188728   -0.033282650   -0.000191344
     16        6           0.016753032    0.023255335   -0.037569200
     17        1          -0.011349226   -0.016817056    0.028942014
     18        6          -0.046706137   -0.001199160   -0.000555249
     19        1           0.012028513    0.016496550   -0.028303661
     20        1           0.011867761    0.016314419    0.028493267
     21        1           0.011934221   -0.032864521   -0.000067939
     22        6           0.020536394   -0.103041496    0.011556331
     23        1          -0.064294088   -0.067513020   -0.044584995
     24        1           0.038694038   -0.031409882    0.090587307
     25        6           0.016648643   -0.042233968    0.001612750
     26        1           0.020017941    0.020444951    0.020382700
     27        1           0.000358579    0.013966525   -0.032254112
     28        1          -0.032585701    0.001741109    0.012658591
     29        8          -0.079373947    0.274730446   -0.013549363
     30        8           0.062143879   -0.102420580   -0.019640560
 -------------------------------------------------------------------
 Cartesian Forces:  Max     0.274730446 RMS     0.044138223

 GradGradGradGradGradGradGradGradGradGradGradGradGradGradGradGradGradGrad
 Berny optimization.
 Internal  Forces:  Max     0.168199143 RMS     0.027466574
 Search for a local minimum.
 Step number   1 out of a maximum of  165
 All quantities printed in internal units (Hartrees-Bohrs-Radians)
 Mixed Optimization -- RFO/linear search
 Second derivative matrix not updated -- first step.
 ITU=  0
 DSYEVD returned Info=        3739 IAlg= 4 N=    84 NDim=    84 NE2=    57501792 trying DSYEV.
     Eigenvalues ---    0.00237   0.00237   0.00237   0.00237   0.00237
     Eigenvalues ---    0.00237   0.00237   0.00237   0.02353   0.02353
     Eigenvalues ---    0.03170   0.03840   0.03840   0.03840   0.03921
     Eigenvalues ---    0.04267   0.04607   0.04607   0.04635   0.04896
     Eigenvalues ---    0.04896   0.04896   0.05436   0.05443   0.05720
     Eigenvalues ---    0.05720   0.05720   0.05720   0.05720   0.05720
     Eigenvalues ---    0.07503   0.07655   0.07655   0.07655   0.11701
     Eigenvalues ---    0.11701   0.11701   0.16000   0.16000   0.16000
     Eigenvalues ---    0.16000   0.16000   0.16000   0.16000   0.16000
     Eigenvalues ---    0.16000   0.16000   0.16000   0.16074   0.16074
     Eigenvalues ---    0.16074   0.17421   0.21948   0.21948   0.21948
     Eigenvalues ---    0.28519   0.28519   0.28519   0.28519   0.28519
     Eigenvalues ---    0.28519   0.28519   0.28519   0.37230   0.37230
     Eigenvalues ---    0.37230   0.37230   0.37230   0.37230   0.37230
     Eigenvalues ---    0.37230   0.37230   0.37230   0.37230   0.37230
     Eigenvalues ---    0.37230   0.37230   0.37230   0.37230   0.37230
     Eigenvalues ---    0.37230   0.37230   0.40989   0.61931
 RFO step:  Lambda=-2.43334526D-01 EMin= 2.36824060D-03
 Linear search not attempted -- first point.
 Maximum step size (   0.300) exceeded in Quadratic search.
    -- Step size scaled by   0.391
 Iteration  1 RMS(Cart)=  0.07465120 RMS(Int)=  0.00545149
 Iteration  2 RMS(Cart)=  0.00766592 RMS(Int)=  0.00039264
 Iteration  3 RMS(Cart)=  0.00004930 RMS(Int)=  0.00039213
 Iteration  4 RMS(Cart)=  0.00000003 RMS(Int)=  0.00039213
 Variable       Old X    -DE/DX   Delta X   Delta X   Delta X     New X
                                 (Linear)    (Quad)   (Total)
    R1        2.02201   0.03506   0.00000   0.02228   0.02228   2.04428
    R2        2.02201   0.03498   0.00000   0.02222   0.02222   2.04423
    R3        2.02201   0.03523   0.00000   0.02238   0.02238   2.04439
    R4        2.91018  -0.01003   0.00000  -0.00742  -0.00742   2.90276
    R5        2.02201   0.03517   0.00000   0.02234   0.02234   2.04435
    R6        2.91018  -0.00548   0.00000  -0.00406  -0.00406   2.90612
    R7        2.91018  -0.02053   0.00000  -0.01519  -0.01519   2.89499
    R8        2.02201   0.03558   0.00000   0.02260   0.02260   2.04461
    R9        2.02201   0.03538   0.00000   0.02248   0.02248   2.04449
   R10        2.91018  -0.00834   0.00000  -0.00617  -0.00617   2.90401
   R11        2.02201   0.03547   0.00000   0.02254   0.02254   2.04454
   R12        2.02201   0.03567   0.00000   0.02266   0.02266   2.04467
   R13        2.91018  -0.00886   0.00000  -0.00655  -0.00655   2.90362
   R14        2.02201   0.03550   0.00000   0.02255   0.02255   2.04456
   R15        2.02201   0.03544   0.00000   0.02252   0.02252   2.04452
   R16        2.91018  -0.00620   0.00000  -0.00459  -0.00459   2.90559
   R17        2.02201   0.03534   0.00000   0.02245   0.02245   2.04446
   R18        2.91018  -0.01088   0.00000  -0.00805  -0.00805   2.90213
   R19        2.91018  -0.00721   0.00000  -0.00534  -0.00534   2.90484
   R20        2.02201   0.03490   0.00000   0.02217   0.02217   2.04418
   R21        2.02201   0.03491   0.00000   0.02218   0.02218   2.04418
   R22        2.02201   0.03496   0.00000   0.02221   0.02221   2.04422
   R23        2.02201   0.07418   0.00000   0.04712   0.04712   2.06913
   R24        2.02201   0.07400   0.00000   0.04701   0.04701   2.06902
   R25        2.70231   0.16820   0.00000   0.10070   0.10070   2.80301
   R26        2.02201   0.03511   0.00000   0.02231   0.02231   2.04431
   R27        2.02201   0.03511   0.00000   0.02231   0.02231   2.04431
   R28        2.02201   0.03499   0.00000   0.02223   0.02223   2.04423
   R29        2.49444  -0.11728   0.00000  -0.05317  -0.05317   2.44127
    A1        1.91063  -0.00036   0.00000  -0.00037  -0.00037   1.91027
    A2        1.91063  -0.00032   0.00000  -0.00034  -0.00034   1.91030
    A3        1.91063  -0.00021   0.00000  -0.00023  -0.00023   1.91040
    A4        1.91063  -0.00049   0.00000  -0.00042  -0.00042   1.91021
    A5        1.91063   0.00076   0.00000   0.00075   0.00075   1.91139
    A6        1.91063   0.00061   0.00000   0.00060   0.00060   1.91123
    A7        1.91063   0.00223   0.00000   0.00186   0.00186   1.91250
    A8        1.91063  -0.00419   0.00000  -0.00326  -0.00326   1.90737
    A9        1.91063   0.00065   0.00000   0.00084   0.00084   1.91147
   A10        1.91063   0.00055   0.00000   0.00059   0.00060   1.91123
   A11        1.91063  -0.00556   0.00000  -0.00648  -0.00648   1.90416
   A12        1.91063   0.00632   0.00000   0.00644   0.00645   1.91708
   A13        1.91063  -0.00243   0.00000  -0.00222  -0.00222   1.90841
   A14        1.91063  -0.00182   0.00000  -0.00134  -0.00134   1.90929
   A15        1.91063   0.00700   0.00000   0.00607   0.00608   1.91671
   A16        1.91063   0.00079   0.00000   0.00016   0.00016   1.91079
   A17        1.91063  -0.00218   0.00000  -0.00189  -0.00189   1.90874
   A18        1.91063  -0.00136   0.00000  -0.00078  -0.00079   1.90985
   A19        1.91063   0.00035   0.00000   0.00028   0.00028   1.91091
   A20        1.91063   0.00054   0.00000   0.00055   0.00055   1.91118
   A21        1.91063  -0.00113   0.00000  -0.00095  -0.00095   1.90968
   A22        1.91063  -0.00030   0.00000  -0.00026  -0.00026   1.91038
   A23        1.91063   0.00014   0.00000   0.00002   0.00002   1.91065
   A24        1.91063   0.00040   0.00000   0.00036   0.00036   1.91100
   A25        1.91063  -0.00140   0.00000  -0.00084  -0.00085   1.90979
   A26        1.91063  -0.00227   0.00000  -0.00206  -0.00205   1.90858
   A27        1.91063   0.00676   0.00000   0.00586   0.00586   1.91649
   A28        1.91063   0.00079   0.00000   0.00020   0.00019   1.91083
   A29        1.91063  -0.00151   0.00000  -0.00098  -0.00098   1.90965
   A30        1.91063  -0.00237   0.00000  -0.00218  -0.00217   1.90846
   A31        1.91063  -0.00100   0.00000  -0.00108  -0.00108   1.90955
   A32        1.91063  -0.00261   0.00000  -0.00247  -0.00247   1.90817
   A33        1.91063   0.00485   0.00000   0.00494   0.00494   1.91557
   A34        1.91063   0.00094   0.00000   0.00044   0.00044   1.91108
   A35        1.91063  -0.00099   0.00000  -0.00082  -0.00082   1.90981
   A36        1.91063  -0.00118   0.00000  -0.00101  -0.00101   1.90962
   A37        1.91063   0.00051   0.00000   0.00050   0.00050   1.91113
   A38        1.91063   0.00018   0.00000   0.00017   0.00017   1.91080
   A39        1.91063   0.00029   0.00000   0.00028   0.00028   1.91091
   A40        1.91063  -0.00034   0.00000  -0.00033  -0.00033   1.91030
   A41        1.91063  -0.00035   0.00000  -0.00032  -0.00032   1.91031
   A42        1.91063  -0.00029   0.00000  -0.00029  -0.00029   1.91034
   A43        1.91063  -0.03277   0.00000  -0.02164  -0.02150   1.88913
   A44        1.91063  -0.03629   0.00000  -0.02550  -0.02311   1.88752
   A45        1.91063   0.03229   0.00000   0.02478   0.02372   1.93435
   A46        1.23096   0.09466   0.00000   0.10520   0.10576   1.33672
   A47        1.23096   0.09163   0.00000   0.10181   0.10473   1.33569
   A48        1.91061   0.00074   0.00000   0.00067   0.00067   1.91128
   A49        1.91066   0.00179   0.00000   0.00178   0.00178   1.91244
   A50        1.91062   0.00078   0.00000   0.00076   0.00076   1.91138
   A51        1.91063  -0.00126   0.00000  -0.00122  -0.00123   1.90941
   A52        1.91063  -0.00111   0.00000  -0.00117  -0.00117   1.90946
   A53        1.91063  -0.00093   0.00000  -0.00081  -0.00081   1.90982
   A54        3.14159   0.06190   0.00000   0.08356   0.08426   3.22585
   A55        3.14159  -0.02832   0.00000  -0.04151  -0.04151   3.10008
   A56        3.14159   0.10569   0.00000   0.14463   0.14207   3.28366
   A57        3.14159  -0.07014   0.00000  -0.10280  -0.10280   3.03880
    D1       -1.04720  -0.00150   0.00000  -0.00203  -0.00203  -1.04923
    D2        1.04720  -0.00202   0.00000  -0.00217  -0.00216   1.04503
    D3       -3.14159   0.00355   0.00000   0.00425   0.00425  -3.13735
    D4       -3.14159  -0.00140   0.00000  -0.00190  -0.00191   3.13969
    D5       -1.04720  -0.00192   0.00000  -0.00204  -0.00204  -1.04923
    D6        1.04720   0.00365   0.00000   0.00437   0.00437   1.05157
    D7        1.04720  -0.00164   0.00000  -0.00222  -0.00222   1.04498
    D8       -3.14159  -0.00216   0.00000  -0.00235  -0.00235   3.13924
    D9       -1.04720   0.00341   0.00000   0.00406   0.00406  -1.04314
   D10       -1.04722   0.00143   0.00000   0.00194   0.00194  -1.04528
   D11        1.04718  -0.00021   0.00000  -0.00004  -0.00004   1.04714
   D12        3.14157   0.00130   0.00000   0.00190   0.00190  -3.13972
   D13        1.04718   0.00193   0.00000   0.00259   0.00258   1.04976
   D14        3.14157   0.00029   0.00000   0.00061   0.00060  -3.14101
   D15       -1.04722   0.00180   0.00000   0.00254   0.00254  -1.04467
   D16        3.14157  -0.00067   0.00000  -0.00104  -0.00104   3.14053
   D17       -1.04722  -0.00231   0.00000  -0.00302  -0.00302  -1.05023
   D18        1.04718  -0.00080   0.00000  -0.00108  -0.00108   1.04610
   D19        0.67854   0.00159   0.00000  -0.00125  -0.00167   0.67686
   D20        2.77293  -0.00115   0.00000   0.00024   0.00066   2.77359
   D21       -1.41586   0.00187   0.00000  -0.00008  -0.00051  -1.41637
   D22        0.67854  -0.00087   0.00000   0.00141   0.00183   0.68036
   D23        2.77293   0.00073   0.00000  -0.00077  -0.00119   2.77174
   D24       -1.41586  -0.00201   0.00000   0.00071   0.00114  -1.41471
   D25        1.04720  -0.00045   0.00000  -0.00071  -0.00071   1.04649
   D26       -1.04720  -0.00063   0.00000  -0.00090  -0.00090  -1.04810
   D27       -3.14159  -0.00076   0.00000  -0.00110  -0.00110   3.14049
   D28       -1.04720  -0.00043   0.00000  -0.00055  -0.00055  -1.04775
   D29       -3.14159  -0.00061   0.00000  -0.00074  -0.00074   3.14085
   D30        1.04720  -0.00073   0.00000  -0.00094  -0.00094   1.04626
   D31       -3.14159   0.00077   0.00000   0.00089   0.00089  -3.14070
   D32        1.04720   0.00059   0.00000   0.00070   0.00070   1.04790
   D33       -1.04720   0.00047   0.00000   0.00050   0.00050  -1.04670
   D34        1.04720  -0.00059   0.00000  -0.00065  -0.00065   1.04655
   D35       -1.04720   0.00070   0.00000   0.00089   0.00089  -1.04631
   D36        3.14159   0.00085   0.00000   0.00122   0.00123  -3.14037
   D37        3.14159  -0.00076   0.00000  -0.00088  -0.00088   3.14071
   D38        1.04720   0.00052   0.00000   0.00065   0.00065   1.04785
   D39       -1.04720   0.00068   0.00000   0.00099   0.00099  -1.04621
   D40       -1.04720  -0.00080   0.00000  -0.00096  -0.00096  -1.04816
   D41        3.14159   0.00048   0.00000   0.00057   0.00057  -3.14102
   D42        1.04720   0.00063   0.00000   0.00091   0.00091   1.04811
   D43        1.04720  -0.00019   0.00000  -0.00037  -0.00037   1.04683
   D44       -3.14159  -0.00125   0.00000  -0.00200  -0.00200   3.13960
   D45       -1.04720  -0.00133   0.00000  -0.00172  -0.00173  -1.04892
   D46       -3.14159   0.00131   0.00000   0.00158   0.00158  -3.14001
   D47       -1.04720   0.00025   0.00000  -0.00004  -0.00004  -1.04724
   D48        1.04720   0.00017   0.00000   0.00023   0.00023   1.04743
   D49       -1.04720  -0.00009   0.00000  -0.00011  -0.00011  -1.04730
   D50        1.04720  -0.00116   0.00000  -0.00173  -0.00173   1.04547
   D51       -3.14159  -0.00124   0.00000  -0.00146  -0.00146   3.14013
   D52        1.04720   0.00204   0.00000   0.00229   0.00229   1.04949
   D53       -3.14159   0.00205   0.00000   0.00230   0.00230  -3.13929
   D54       -1.04720   0.00198   0.00000   0.00221   0.00221  -1.04498
   D55       -3.14159  -0.00021   0.00000  -0.00027  -0.00027   3.14133
   D56       -1.04720  -0.00021   0.00000  -0.00026  -0.00026  -1.04746
   D57        1.04720  -0.00027   0.00000  -0.00035  -0.00035   1.04685
   D58       -1.04720  -0.00157   0.00000  -0.00162  -0.00162  -1.04882
   D59        1.04720  -0.00157   0.00000  -0.00162  -0.00162   1.04558
   D60       -3.14159  -0.00163   0.00000  -0.00170  -0.00170   3.13989
   D61       -2.74798   0.00030   0.00000   0.00001   0.00001  -2.74797
   D62       -0.65358   0.00030   0.00000   0.00001   0.00001  -0.65357
   D63        1.44083   0.00073   0.00000   0.00057   0.00057   1.44140
   D64        1.44081  -0.00084   0.00000  -0.00118  -0.00118   1.43962
   D65       -2.74797  -0.00084   0.00000  -0.00118  -0.00119  -2.74916
   D66       -0.65357  -0.00041   0.00000  -0.00062  -0.00062  -0.65419
   D67       -0.65359  -0.00066   0.00000  -0.00061  -0.00061  -0.65419
   D68        1.44082  -0.00066   0.00000  -0.00061  -0.00061   1.44021
[...]
    18  C    6.532536   5.066153   5.057558   5.254326   3.926109
    19  H    6.971660   5.256581   5.288612   5.215701   4.274485
    20  H    7.337497   6.020549   6.056177   6.253470   4.760246
    21  H    6.541271   5.127697   4.884376   5.398305   4.173572
    22  C    2.097976   2.572213   3.487303   2.833655   3.156752
    23  H    2.447966   3.515992   4.302027   3.824169   4.149224
    24  H    2.473367   2.836443   3.840185   3.183933   2.847012
    25  C    5.784870   4.577836   5.098433   4.733989   3.157374
    26  H    6.687098   5.616979   6.092264   5.820935   4.150393
    27  H    6.228555   4.749823   5.314533   4.649759   3.533418
    28  H    5.213223   4.294329   4.984241   4.526366   2.864284
    29  O    3.373532   3.075722   4.023441   2.774818   3.797416
    30  O    4.060113   3.167214   4.195140   2.644126   3.506018
                   11         12         13         14         15
    11  H    0.000000
    12  H    1.760705   0.000000
    13  C    2.159355   2.160935   0.000000
    14  H    3.064321   2.493197   1.098407   0.000000
    15  H    2.520033   3.056828   1.097479   1.754184   0.000000
    16  C    2.804278   2.861797   1.540607   2.162180   2.155158
    17  H    2.536725   3.144593   2.144808   3.051886   2.500983
    18  C    4.174634   4.295144   2.526785   2.792702   2.665205
    19  H    4.762332   4.547627   2.799324   2.618297   3.013750
    20  H    4.875357   5.015934   3.488364   3.797390   3.682470
    21  H    4.319369   4.777649   2.766797   3.149476   2.446911
    22  C    3.416816   2.872719   4.604734   4.801063   5.113897
    23  H    4.237201   3.886024   5.635379   5.881610   6.088949
    24  H    3.016889   2.287494   4.301703   4.580921   4.974062
    25  C    3.473933   2.844997   2.559159   2.785762   3.487967
    26  H    4.296453   3.847373   3.508738   3.784230   4.314427
    27  H    4.121339   3.126639   2.819453   2.599082   3.781701
    28  H    3.090611   2.268422   2.841144   3.165851   3.854257
    29  O    4.390152   3.363457   5.001502   4.869639   5.586744
    30  O    4.297908   2.851346   4.454403   4.140564   5.210510
                   16         17         18         19         20
    16  C    0.000000
    17  H    1.099076   0.000000
    18  C    1.535227   2.142512   0.000000
    19  H    2.180259   3.064551   1.095546   0.000000
    20  H    2.184664   2.495061   1.093958   1.766938   0.000000
    21  H    2.186496   2.491209   1.094043   1.767879   1.768290
    22  C    5.643225   5.744823   7.031629   7.244843   7.825789
    23  H    6.635471   6.641238   8.050233   8.308635   8.818546
    24  H    5.089153   5.143432   6.557472   6.828296   7.246735
    25  C    1.535403   2.145112   2.522820   2.798679   2.758149
    26  H    2.179538   2.500600   2.740493   3.108655   2.521897
    27  H    2.179316   3.065639   2.806816   2.638032   3.144279
    28  H    2.195204   2.495446   3.488656   3.820229   3.756499
    29  O    6.117654   6.457840   7.396226   7.394821   8.237113
    30  O    5.436553   5.941663   6.650682   6.532927   7.450431
                   21         22         23         24         25
    21  H    0.000000
    22  C    7.320496   0.000000
    23  H    8.310803   1.092506   0.000000
    24  H    6.961908   1.089399   1.787018   0.000000
    25  C    3.484885   5.688858   6.665869   4.943174   0.000000
    26  H    3.747056   6.648383   7.580281   5.829818   1.093945
    27  H    3.818013   5.869854   6.894334   5.203655   1.095616
    28  H    4.345403   4.945295   5.855793   4.088067   1.092461
    29  O    7.764594   1.460904   2.023143   2.060238   6.006282
    30  O    7.154802   2.310006   3.122635   2.364949   5.119572
                   26         27         28         29         30
    26  H    0.000000
    27  H    1.767313   0.000000
    28  H    1.763234   1.766795   0.000000
    29  O    7.015100   5.918324   5.342599   0.000000
    30  O    6.118821   4.868203   4.522205   1.319771   0.000000
 Stoichiometry    C9H19O2(2)
 Framework group  C1[X(C9H19O2)]
 Deg. of freedom    84
 Full point group                 C1      NOp   1
 Largest Abelian subgroup         C1      NOp   1
 Largest concise Abelian subgroup C1      NOp   1
                         Standard orientation:                         
 ---------------------------------------------------------------------
 Center     Atomic      Atomic             Coordinates (Angstroms)
 Number     Number       Type             X           Y           Z
 ---------------------------------------------------------------------
      1          6           0       -3.191417   -1.646189   -0.204035
      2          1           0       -2.899082   -2.685462   -0.372962
      3          1           0       -3.421675   -1.199276   -1.174393
      4          1           0       -4.110088   -1.648917    0.390093
      5          6           0       -2.067143   -0.874275    0.503145
      6          1           0       -1.892660   -1.343655    1.482069
      7          6           0       -0.750753   -0.944723   -0.294377
      8          1           0       -0.561738   -2.000988   -0.520546
      9          1           0       -0.888069   -0.447996   -1.261537
     10          6           0        0.481472   -0.359818    0.407826
     11          1           0        0.574167   -0.799758    1.410378
     12          1           0        0.343702    0.715730    0.544201
     13          6           0        1.776673   -0.616049   -0.373731
     14          1           0        1.701776   -0.142945   -1.362195
     15          1           0        1.866723   -1.693941   -0.559471
     16          6           0        3.067387   -0.131902    0.314112
     17          1           0        3.100144   -0.587416    1.313813
     18          6           0        4.301997   -0.615614   -0.459633
     19          1           0        4.317282   -0.195199   -1.471185
     20          1           0        5.227164   -0.311951    0.038966
     21          1           0        4.313596   -1.705645   -0.552526
     22          6           0       -2.509697    0.554253    0.834990
     23          1           0       -3.442406    0.549677    1.403849
     24          1           0       -1.750212    1.123070    1.370172
     25          6           0        3.106377    1.392958    0.489445
     26          1           0        4.036744    1.705878    0.972366
     27          1           0        3.050762    1.896782   -0.481866
     28          1           0        2.279067    1.759503    1.101551
     29          8           0       -2.837666    1.313427   -0.369307
     30          8           0       -1.804155    1.994154   -0.827847
 ---------------------------------------------------------------------
 Rotational constants (GHZ):      1.8443646      0.4378393      0.3843912
 Standard basis: 6-31+(d') (6D, 7F)
 There are   247 symmetry adapted basis functions of A   symmetry.
 Integral buffers will be    131072 words long.
 Raffenetti 2 integral format.
 Two-electron integral symmetry is turned on.
   247 basis functions,   428 primitive gaussians,   247 cartesian basis functions
    45 alpha electrons       44 beta electrons
       nuclear repulsion energy       650.6238465989 Hartrees.
 NAtoms=   30 NActive=   30 NUniq=   30 SFac= 1.00D+00 NAtFMM=   60 NAOKFM=F Big=F
 One-electron integrals computed using PRISM.
 NBasis=   247 RedAO= T  NBF=   247
 NBsUse=   247 1.00D-06 NBFU=   247
 Initial guess read from the checkpoint file:  C9H19O2_1_26.chk
 B after Tr=     0.000000    0.000000    0.000000
         Rot=    1.000000    0.000000    0.000000    0.000000 Ang=   0.00 deg.
 Initial guess orbital symmetries:
 Alpha Orbitals:
       Occupied  (A) (A) (A) (A) (A) (A) (A) (A) (A) (A) (A) (A)
                 (A) (A) (A) (A) (A) (A) (A) (A) (A) (A) (A) (A)
                 (A) (A) (A) (A) (A) (A) (A) (A) (A) (A) (A) (A)
                 (A) (A) (A) (A) (A) (A) (A) (A) (A)
       Virtual   (A) (A) (A) (A) (A) (A) (A) (A) (A) (A) (A) (A)
                 (A) (A) (A) (A) (A) (A) (A) (A) (A) (A) (A) (A)
                 (A) (A) (A) (A) (A) (A) (A) (A) (A) (A) (A) (A)
                 (A) (A) (A) (A) (A) (A) (A) (A) (A) (A) (A) (A)
                 (A) (A) (A) (A) (A) (A) (A) (A) (A) (A) (A) (A)
                 (A) (A) (A) (A) (A) (A) (A) (A) (A) (A) (A) (A)
                 (A) (A) (A) (A) (A) (A) (A) (A) (A) (A) (A) (A)
                 (A) (A) (A) (A) (A) (A) (A) (A) (A) (A) (A) (A)
                 (A) (A) (A) (A) (A) (A) (A) (A) (A) (A) (A) (A)
                 (A) (A) (A) (A) (A) (A) (A) (A) (A) (A) (A) (A)
                 (A) (A) (A) (A) (A) (A) (A) (A) (A) (A) (A) (A)
                 (A) (A) (A) (A) (A) (A) (A) (A) (A) (A) (A) (A)
                 (A) (A) (A) (A) (A) (A) (A) (A) (A) (A) (A) (A)
                 (A) (A) (A) (A) (A) (A) (A) (A) (A) (A) (A) (A)
                 (A) (A) (A) (A) (A) (A) (A) (A) (A) (A) (A) (A)
                 (A) (A) (A) (A) (A) (A) (A) (A) (A) (A) (A) (A)
                 (A) (A) (A) (A) (A) (A) (A) (A) (A) (A)
 Beta  Orbitals:
       Occupied  (A) (A) (A) (A) (A) (A) (A) (A) (A) (A) (A) (A)
                 (A) (A) (A) (A) (A) (A) (A) (A) (A) (A) (A) (A)
                 (A) (A) (A) (A) (A) (A) (A) (A) (A) (A) (A) (A)
                 (A) (A) (A) (A) (A) (A) (A) (A)
       Virtual   (A) (A) (A) (A) (A) (A) (A) (A) (A) (A) (A) (A)
                 (A) (A) (A) (A) (A) (A) (A) (A) (A) (A) (A) (A)
                 (A) (A) (A) (A) (A) (A) (A) (A) (A) (A) (A) (A)
                 (A) (A) (A) (A) (A) (A) (A) (A) (A) (A) (A) (A)
                 (A) (A) (A) (A) (A) (A) (A) (A) (A) (A) (A) (A)
                 (A) (A) (A) (A) (A) (A) (A) (A) (A) (A) (A) (A)
                 (A) (A) (A) (A) (A) (A) (A) (A) (A) (A) (A) (A)
                 (A) (A) (A) (A) (A) (A) (A) (A) (A) (A) (A) (A)
                 (A) (A) (A) (A) (A) (A) (A) (A) (A) (A) (A) (A)
                 (A) (A) (A) (A) (A) (A) (A) (A) (A) (A) (A) (A)
                 (A) (A) (A) (A) (A) (A) (A) (A) (A) (A) (A) (A)
                 (A) (A) (A) (A) (A) (A) (A) (A) (A) (A) (A) (A)
                 (A) (A) (A) (A) (A) (A) (A) (A) (A) (A) (A) (A)
                 (A) (A) (A) (A) (A) (A) (A) (A) (A) (A) (A) (A)
                 (A) (A) (A) (A) (A) (A) (A) (A) (A) (A) (A) (A)
                 (A) (A) (A) (A) (A) (A) (A) (A) (A) (A) (A) (A)
                 (A) (A) (A) (A) (A) (A) (A) (A) (A) (A) (A)
 Initial guess <Sx>= 0.0000 <Sy>= 0.0000 <Sz>= 0.5000 <S**2>= 0.7535 S= 0.5017
 Requested convergence on RMS density matrix=1.00D-08 within 128 cycles.
 Requested convergence on MAX density matrix=1.00D-06.
 Requested convergence on             energy=1.00D-06.
 No special actions if energy rises.
 Keep R1 and R2 ints in memory in canonical form, NReq=945937424.
 SCF Done:  E(UHF) =  -501.481944920     A.U. after   23 cycles
             Convg  =    0.6795D-08             -V/T =  2.0019
 <Sx>= 0.0000 <Sy>= 0.0000 <Sz>= 0.5000 <S**2>= 0.7627 S= 0.5063
 <L.S>= 0.000000000000E+00
 Annihilation of the first spin contaminant:
 S**2 before annihilation     0.7627,   after     0.7501
 ExpMin= 4.38D-02 ExpMax= 5.48D+03 ExpMxC= 8.25D+02 IAcc=3 IRadAn=         5 AccDes= 0.00D+00
 HarFok:  IExCor=  205 AccDes= 0.00D+00 IRadAn=         5 IDoV=-2
 ScaDFX=  1.000000  1.000000  1.000000  1.000000
 Range of M.O.s used for correlation:    12   247
 NBasis=   247 NAE=    45 NBE=    44 NFC=    11 NFV=     0
 NROrb=    236 NOA=    34 NOB=    33 NVA=   202 NVB=   203

 **** Warning!!: The largest alpha MO coefficient is  0.81741257D+02


 **** Warning!!: The largest beta MO coefficient is  0.76034943D+02

 Semi-Direct transformation.
 ModeAB=           4 MOrb=            34 LenV=    4830167220
 LASXX=    201996142 LTotXX=   201996142 LenRXX=   410706400
 LTotAB=   208710258 MaxLAS=   226148416 LenRXY=           0
 NonZer=   612702542 LenScr=   922658816 LnRSAI=   226148416
 LnScr1=   340553728 LExtra=           0 Total=   1900067360
 MaxDsk=          -1 SrtSym=           T ITran=            4
 JobTyp=1 Pass  1:  I=   1 to  34.
 (rs|ai) integrals will be sorted in core.
 ModeAB=           4 MOrb=            33 LenV=    4830167220
 LASXX=    196728510 LTotXX=   196728510 LenRXX=   345580290
 LTotAB=   148851780 MaxLAS=   219496992 LenRXY=           0
 NonZer=   542308800 LenScr=   816653312 LnRSAI=   219496992
 LnScr1=   330536960 LExtra=           0 Total=   1712267554
 MaxDsk=          -1 SrtSym=           T ITran=            4
 JobTyp=2 Pass  1:  I=   1 to  33.
 (rs|ai) integrals will be sorted in core.
 SymMOI:  orbitals are not symmetric.
 Spin components of T(2) and E(2):
     alpha-alpha T2 =       0.6375038179D-01 E2=     -0.1955147207D+00
     alpha-beta  T2 =       0.3784705671D+00 E2=     -0.1169246093D+01
     beta-beta   T2 =       0.6602865907D-01 E2=     -0.1928169082D+00
 ANorm=    0.1228108142D+01
 E2 =    -0.1557577722D+01 EUMP2 =    -0.50303952264182D+03
 (S**2,0)=  0.76267D+00           (S**2,1)=  0.75319D+00
 E(PUHF)=      -0.50148635951D+03        E(PMP2)=      -0.50304229441D+03
 R2 and R3 integrals will be kept in memory, NReq=   945731384.
 Iterations=  50 Convergence= 0.100D-06
 Iteration Nr.   1
 **********************
 DD1Dir will call FoFMem   1 times, MxPair=      3334
 NAB=  1122 NAA=   561 NBB=   528.
 E(PMP3)=      -0.50313274053D+03
 MP4(R+Q)=  0.28124031D-01
 E3=       -0.91477125D-01        EUMP3=      -0.50313099977D+03
 E4(DQ)=   -0.10560157D-01        UMP4(DQ)=   -0.50314155992D+03
 E4(SDQ)=  -0.28331797D-01        UMP4(SDQ)=  -0.50315933156D+03
 DE(Corr)=  -1.6206208     E(Corr)=     -503.10256567    
 NORM(A)=   0.12547007D+01
 Iteration Nr.   2
 **********************
 DD1Dir will call FoFMem   1 times, MxPair=      3334
 NAB=  1122 NAA=   561 NBB=   528.
 DE(Corr)=  -1.6677501     E(CORR)=     -503.14969506     Delta=-4.71D-02
 NORM(A)=   0.12764857D+01
 Iteration Nr.   3
 **********************
 DD1Dir will call FoFMem   1 times, MxPair=      3334
 NAB=  1122 NAA=   561 NBB=   528.
 DE(Corr)=  -1.6757645     E(CORR)=     -503.15770937     Delta=-8.01D-03
 NORM(A)=   0.12840216D+01
 Iteration Nr.   4
 **********************
 DD1Dir will call FoFMem   1 times, MxPair=      3334
 NAB=  1122 NAA=   561 NBB=   528.
 DE(Corr)=  -1.6809609     E(CORR)=     -503.16290578     Delta=-5.20D-03
 NORM(A)=   0.12887769D+01
 Iteration Nr.   5
 **********************
 DD1Dir will call FoFMem   1 times, MxPair=      3334
 NAB=  1122 NAA=   561 NBB=   528.
 DE(Corr)=  -1.6822959     E(CORR)=     -503.16424083     Delta=-1.34D-03
 NORM(A)=   0.12922074D+01
 Iteration Nr.   6
 **********************
 DD1Dir will call FoFMem   1 times, MxPair=      3334
 NAB=  1122 NAA=   561 NBB=   528.
 DE(Corr)=  -1.6827791     E(CORR)=     -503.16472402     Delta=-4.83D-04
 NORM(A)=   0.12926747D+01
 Iteration Nr.   7
 **********************
 DD1Dir will call FoFMem   1 times, MxPair=      3334
 NAB=  1122 NAA=   561 NBB=   528.
 DE(Corr)=  -1.6828082     E(CORR)=     -503.16475314     Delta=-2.91D-05
 NORM(A)=   0.12928309D+01
 Iteration Nr.   8
 **********************
 DD1Dir will call FoFMem   1 times, MxPair=      3334
 NAB=  1122 NAA=   561 NBB=   528.
 DE(Corr)=  -1.6827877     E(CORR)=     -503.16473259     Delta= 2.05D-05
 NORM(A)=   0.12928930D+01
 Iteration Nr.   9
 **********************
 DD1Dir will call FoFMem   1 times, MxPair=      3334
 NAB=  1122 NAA=   561 NBB=   528.
 DE(Corr)=  -1.6828101     E(CORR)=     -503.16475501     Delta=-2.24D-05
 NORM(A)=   0.12928935D+01
 Iteration Nr.  10
 **********************
 DD1Dir will call FoFMem   1 times, MxPair=      3334
 NAB=  1122 NAA=   561 NBB=   528.
 DE(Corr)=  -1.6828118     E(CORR)=     -503.16475669     Delta=-1.69D-06
 NORM(A)=   0.12929044D+01
 Iteration Nr.  11
 **********************
 DD1Dir will call FoFMem   1 times, MxPair=      3334
 NAB=  1122 NAA=   561 NBB=   528.
 DE(Corr)=  -1.6828178     E(CORR)=     -503.16476270     Delta=-6.01D-06
 NORM(A)=   0.12929086D+01
 Iteration Nr.  12
 **********************
 DD1Dir will call FoFMem   1 times, MxPair=      3334
 NAB=  1122 NAA=   561 NBB=   528.
 DE(Corr)=  -1.6828195     E(CORR)=     -503.16476446     Delta=-1.76D-06
 NORM(A)=   0.12929170D+01
 Iteration Nr.  13
 **********************
 DD1Dir will call FoFMem   1 times, MxPair=      3334
 NAB=  1122 NAA=   561 NBB=   528.
 DE(Corr)=  -1.6828217     E(CORR)=     -503.16476660     Delta=-2.14D-06
 NORM(A)=   0.12929264D+01
 Iteration Nr.  14
 **********************
 DD1Dir will call FoFMem   1 times, MxPair=      3334
 NAB=  1122 NAA=   561 NBB=   528.
 DE(Corr)=  -1.6828237     E(CORR)=     -503.16476865     Delta=-2.04D-06
 NORM(A)=   0.12929344D+01
 Iteration Nr.  15
 **********************
 DD1Dir will call FoFMem   1 times, MxPair=      3334
 NAB=  1122 NAA=   561 NBB=   528.
 DE(Corr)=  -1.6828246     E(CORR)=     -503.16476948     Delta=-8.34D-07
 NORM(A)=   0.12929369D+01
 Iteration Nr.  16
 **********************
 DD1Dir will call FoFMem   1 times, MxPair=      3334
 NAB=  1122 NAA=   561 NBB=   528.
 DE(Corr)=  -1.6828250     E(CORR)=     -503.16476988     Delta=-3.96D-07
 NORM(A)=   0.12929349D+01
 Iteration Nr.  17
 **********************
 DD1Dir will call FoFMem   1 times, MxPair=      3334
 NAB=  1122 NAA=   561 NBB=   528.
 DE(Corr)=  -1.6828242     E(CORR)=     -503.16476915     Delta= 7.32D-07
 NORM(A)=   0.12929324D+01
 Iteration Nr.  18
 **********************
 DD1Dir will call FoFMem   1 times, MxPair=      3334
 NAB=  1122 NAA=   561 NBB=   528.
 DE(Corr)=  -1.6828237     E(CORR)=     -503.16476863     Delta= 5.19D-07
 NORM(A)=   0.12929301D+01
 Iteration Nr.  19
 **********************
 DD1Dir will call FoFMem   1 times, MxPair=      3334
 NAB=  1122 NAA=   561 NBB=   528.
 DE(Corr)=  -1.6828233     E(CORR)=     -503.16476822     Delta= 4.09D-07
 NORM(A)=   0.12929288D+01
 Iteration Nr.  20
 **********************
 DD1Dir will call FoFMem   1 times, MxPair=      3334
 NAB=  1122 NAA=   561 NBB=   528.
 DE(Corr)=  -1.6828231     E(CORR)=     -503.16476798     Delta= 2.36D-07
 NORM(A)=   0.12929282D+01
 Iteration Nr.  21
 **********************
 DD1Dir will call FoFMem   1 times, MxPair=      3334
 NAB=  1122 NAA=   561 NBB=   528.
 DE(Corr)=  -1.6828230     E(CORR)=     -503.16476791     Delta= 7.45D-08
 NORM(A)=   0.12929281D+01
 Iteration Nr.  22
 **********************
 DD1Dir will call FoFMem   1 times, MxPair=      3334
 NAB=  1122 NAA=   561 NBB=   528.
 DE(Corr)=  -1.6828230     E(CORR)=     -503.16476788     Delta= 2.39D-08
 NORM(A)=   0.12929281D+01
 Iteration Nr.  23
 **********************
 DD1Dir will call FoFMem   1 times, MxPair=      3334
 NAB=  1122 NAA=   561 NBB=   528.
 DE(Corr)=  -1.6828230     E(CORR)=     -503.16476789     Delta=-4.89D-09
 NORM(A)=   0.12929282D+01
 Iteration Nr.  24
 **********************
 DD1Dir will call FoFMem   1 times, MxPair=      3334
 NAB=  1122 NAA=   561 NBB=   528.
 DE(Corr)=  -1.6828230     E(CORR)=     -503.16476791     Delta=-1.70D-08
 NORM(A)=   0.12929283D+01
 Iteration Nr.  25
 **********************
 DD1Dir will call FoFMem   1 times, MxPair=      3334
 NAB=  1122 NAA=   561 NBB=   528.
 DE(Corr)=  -1.6828230     E(CORR)=     -503.16476792     Delta=-1.35D-08
 NORM(A)=   0.12929284D+01
 Iteration Nr.  26
 **********************
 DD1Dir will call FoFMem   1 times, MxPair=      3334
 NAB=  1122 NAA=   561 NBB=   528.
 DE(Corr)=  -1.6828230     E(CORR)=     -503.16476793     Delta=-1.19D-08
 NORM(A)=   0.12929284D+01
 Iteration Nr.  27
 **********************
 DD1Dir will call FoFMem   1 times, MxPair=      3334
 NAB=  1122 NAA=   561 NBB=   528.
 DE(Corr)=  -1.6828230     E(CORR)=     -503.16476794     Delta=-1.29D-08
 NORM(A)=   0.12929285D+01
 Iteration Nr.  28
 **********************
 DD1Dir will call FoFMem   1 times, MxPair=      3334
 NAB=  1122 NAA=   561 NBB=   528.
 DE(Corr)=  -1.6828230     E(CORR)=     -503.16476795     Delta=-1.69D-09
 NORM(A)=   0.12929285D+01
 Largest amplitude= 6.18D-02
