 Entering Gaussian System, Link 0=g09
 Initial command:
 /usr/caen/gaussian-09revc/g09/l1.exe /scratch/avioli_flux/hetanjin/scratch/Gau-7173.inp -scrdir=/scratch/avioli_flux/hetanjin/scratch/
 Entering Link 1 = /usr/caen/gaussian-09revc/g09/l1.exe PID=      7174.
  
 Copyright (c) 1988,1990,1992,1993,1995,1998,2003,2009,2011,
            Gaussian, Inc.  All Rights Reserved.
  
 This is part of the Gaussian(R) 09 program.  It is based on
 the Gaussian(R) 03 system (copyright 2003, Gaussian, Inc.),
 the Gaussian(R) 98 system (copyright 1998, Gaussian, Inc.),
 the Gaussian(R) 94 system (copyright 1995, Gaussian, Inc.),
 the Gaussian 92(TM) system (copyright 1992, Gaussian, Inc.),
 the Gaussian 90(TM) system (copyright 1990, Gaussian, Inc.),
 the Gaussian 88(TM) system (copyright 1988, Gaussian, Inc.),
 the Gaussian 86(TM) system (copyright 1986, Carnegie Mellon
 University), and the Gaussian 82(TM) system (copyright 1983,
 Carnegie Mellon University). Gaussian is a federally registered
 trademark of Gaussian, Inc.
  
 This software contains proprietary and confidential information,
 including trade secrets, belonging to Gaussian, Inc.
  
 This software is provided under written license and may be
 used, copied, transmitted, or stored only in accord with that
 written license.
  
 The following legend is applicable only to US Government
 contracts under FAR:
  
                    RESTRICTED RIGHTS LEGEND
  
 Use, reproduction and disclosure by the US Government is
 subject to restrictions as set forth in subparagraphs (a)
 and (c) of the Commercial Computer Software - Restricted
 Rights clause in FAR 52.227-19.
  
 Gaussian, Inc.
 340 Quinnipiac St., Bldg. 40, Wallingford CT 06492
  
  
 ---------------------------------------------------------------
 Warning -- This program may not be used in any manner that
 competes with the business of Gaussian, Inc. or will provide
 assistance to any competitor of Gaussian, Inc.  The licensee
 of this program is prohibited from giving any competitor of
 Gaussian, Inc. access to this program.  By using this program,
 the user acknowledges that Gaussian, Inc. is engaged in the
 business of creating and licensing software in the field of
 computational chemistry and represents and warrants to the
 licensee that it is not a competitor of Gaussian, Inc. and that
 it will not use this program in any manner prohibited above.
 ---------------------------------------------------------------
  

 Cite this work as:
 Gaussian 09, Revision C.01,
 M. J. Frisch, G. W. Trucks, H. B. Schlegel, G. E. Scuseria, 
 M. A. Robb, J. R. Cheeseman, G. Scalmani, V. Barone, B. Mennucci, 
 G. A. Petersson, H. Nakatsuji, M. Caricato, X. Li, H. P. Hratchian, 
 A. F. Izmaylov, J. Bloino, G. Zheng, J. L. Sonnenberg, M. Hada, 
 M. Ehara, K. Toyota, R. Fukuda, J. Hasegawa, M. Ishida, T. Nakajima, 
 Y. Honda, O. Kitao, H. Nakai, T. Vreven, J. A. Montgomery, Jr., 
 J. E. Peralta, F. Ogliaro, M. Bearpark, J. J. Heyd, E. Brothers, 
 K. N. Kudin, V. N. Staroverov, T. Keith, R. Kobayashi, J. Normand, 
 K. Raghavachari, A. Rendell, J. C. Burant, S. S. Iyengar, J. Tomasi, 
 M. Cossi, N. Rega, J. M. Millam, M. Klene, J. E. Knox, J. B. Cross, 
 V. Bakken, C. Adamo, J. Jaramillo, R. Gomperts, R. E. Stratmann, 
 O. Yazyev, A. J. Austin, R. Cammi, C. Pomelli, J. W. Ochterski, 
 R. L. Martin, K. Morokuma, V. G. Zakrzewski, G. A. Voth, 
 P. Salvador, J. J. Dannenberg, S. Dapprich, A. D. Daniels, 
 O. Farkas, J. B. Foresman, J. V. Ortiz, J. Cioslowski, 
 and D. J. Fox, Gaussian, Inc., Wallingford CT, 2010.
 
 ******************************************
 Gaussian 09:  EM64L-G09RevC.01 23-Sep-2011
                 6-Feb-2014 
 ******************************************
 %mem=30GB
 %nprocshared=8
 Will use up to    8 processors via shared memory.
 %chk=C9H18OOH_1_26_b.chk
 --------------------------------------------------
 #p stable=(opt,xqc) ub3lyp/6-311++g(d,p) guess=mix
 --------------------------------------------------
 1/38=1/1;
 2/12=2,17=6,18=5,40=1/2;
 3/5=4,6=6,7=1111,11=2,16=1,25=1,30=1,74=-5,116=2/1,2,3;
 4/13=-1/1;
 5/5=2,38=5/2;
 6/7=2,8=2,9=2,10=2,28=1/1;
 8/6=1,10=90,11=11/1;
 9/8=-3,42=1,46=1/14;
 5/5=2,8=3,13=1,17=40,38=5/2,8(-2);
 6/7=2,8=2,9=2,10=2,28=1/1;
 99/5=1,9=1/99;
 Leave Link    1 at Thu Feb  6 19:58:23 2014, MaxMem= 4026531840 cpu:       0.5
 (Enter /usr/caen/gaussian-09revc/g09/l101.exe)
 -----------------------------------------------------------------
 C9H18OOH_1_26_b using B3LYP/6-311++g(d,p) to do opt and cal. freq
 -----------------------------------------------------------------
 Charge =  0 Multiplicity = 2
 Symbolic Z-Matrix:
 C                    -3.17301  -1.66954  -0.19397 
 H                    -2.87617  -2.71161  -0.33638 
 H                    -3.39945  -1.24766  -1.17651 
 C                    -2.05413  -0.87986   0.50238 
 H                    -1.87109  -1.34161   1.4836 
 C                    -0.73961  -0.93993  -0.29882 
 H                    -0.55589  -1.99184  -0.54858 
 H                    -0.8744   -0.42299  -1.25598 
 C                     0.49652  -0.37953   0.41648 
 H                     0.59872  -0.86202   1.39833 
 H                     0.35867   0.68881   0.60351 
 C                     1.78599  -0.59801  -0.38576 
 H                     1.69941  -0.08941  -1.35556 
 H                     1.88007  -1.66787  -0.61185 
 C                     3.08034  -0.13145   0.30742 
 H                     3.12047  -0.61431   1.29398 
 C                     4.31064  -0.59099  -0.48791 
 H                     4.31678  -0.14434  -1.48839 
 H                     5.23878  -0.29712   0.0113 
 H                     4.3251   -1.67831  -0.60927 
 C                    -2.50965   0.54486   0.83292 
 H                    -3.43268   0.53048   1.41751 
 H                    -1.74913   1.12829   1.35099 
 C                     3.11823   1.38842   0.52354 
 H                     4.04969   1.68942   1.01217 
 H                     3.05973   1.91767  -0.43412 
 H                     2.29233   1.73843   1.1474 
 O                    -2.87034   1.29134  -0.37199 
 O                    -1.8763    2.03076  -0.82758 
 H                    -2.2286    2.82553  -1.2348 
 
 NAtoms=     30 NQM=        0 NQMF=       0 NMMI=     30 NMMIF=      0
                NMic=       0 NMicF=      0.
                    Isotopes and Nuclear Properties:
 (Nuclear quadrupole moments (NQMom) in fm**2, nuclear magnetic moments (NMagM)
  in nuclear magnetons)

  Atom         1           2           3           4           5           6           7           8           9          10
 IAtWgt=          12           1           1          12           1          12           1           1          12           1
 AtmWgt=  12.0000000   1.0078250   1.0078250  12.0000000   1.0078250  12.0000000   1.0078250   1.0078250  12.0000000   1.0078250
 NucSpn=           0           1           1           0           1           0           1           1           0           1
 AtZEff=   0.0000000   0.0000000   0.0000000   0.0000000   0.0000000   0.0000000   0.0000000   0.0000000   0.0000000   0.0000000
 NQMom=    0.0000000   0.0000000   0.0000000   0.0000000   0.0000000   0.0000000   0.0000000   0.0000000   0.0000000   0.0000000
 NMagM=    0.0000000   2.7928460   2.7928460   0.0000000   2.7928460   0.0000000   2.7928460   2.7928460   0.0000000   2.7928460

  Atom        11          12          13          14          15          16          17          18          19          20
 IAtWgt=           1          12           1           1          12           1          12           1           1           1
 AtmWgt=   1.0078250  12.0000000   1.0078250   1.0078250  12.0000000   1.0078250  12.0000000   1.0078250   1.0078250   1.0078250
 NucSpn=           1           0           1           1           0           1           0           1           1           1
 AtZEff=   0.0000000   0.0000000   0.0000000   0.0000000   0.0000000   0.0000000   0.0000000   0.0000000   0.0000000   0.0000000
 NQMom=    0.0000000   0.0000000   0.0000000   0.0000000   0.0000000   0.0000000   0.0000000   0.0000000   0.0000000   0.0000000
 NMagM=    2.7928460   0.0000000   2.7928460   2.7928460   0.0000000   2.7928460   0.0000000   2.7928460   2.7928460   2.7928460

  Atom        21          22          23          24          25          26          27          28          29          30
 IAtWgt=          12           1           1          12           1           1           1          16          16           1
 AtmWgt=  12.0000000   1.0078250   1.0078250  12.0000000   1.0078250   1.0078250   1.0078250  15.9949146  15.9949146   1.0078250
 NucSpn=           0           1           1           0           1           1           1           0           0           1
 AtZEff=   0.0000000   0.0000000   0.0000000   0.0000000   0.0000000   0.0000000   0.0000000   0.0000000   0.0000000   0.0000000
 NQMom=    0.0000000   0.0000000   0.0000000   0.0000000   0.0000000   0.0000000   0.0000000   0.0000000   0.0000000   0.0000000
 NMagM=    0.0000000   2.7928460   2.7928460   0.0000000   2.7928460   2.7928460   2.7928460   0.0000000   0.0000000   2.7928460
 Leave Link  101 at Thu Feb  6 19:58:23 2014, MaxMem= 4026531840 cpu:       0.4
 (Enter /usr/caen/gaussian-09revc/g09/l202.exe)
                          Input orientation:                          
 ---------------------------------------------------------------------
 Center     Atomic      Atomic             Coordinates (Angstroms)
 Number     Number       Type             X           Y           Z
 ---------------------------------------------------------------------
      1          6           0       -3.173014   -1.669538   -0.193965
      2          1           0       -2.876169   -2.711612   -0.336378
      3          1           0       -3.399449   -1.247661   -1.176513
      4          6           0       -2.054134   -0.879861    0.502380
      5          1           0       -1.871088   -1.341605    1.483598
      6          6           0       -0.739611   -0.939929   -0.298821
      7          1           0       -0.555894   -1.991835   -0.548576
      8          1           0       -0.874402   -0.422986   -1.255980
      9          6           0        0.496519   -0.379528    0.416475
     10          1           0        0.598724   -0.862021    1.398330
     11          1           0        0.358666    0.688807    0.603514
     12          6           0        1.785988   -0.598005   -0.385763
     13          1           0        1.699407   -0.089406   -1.355555
     14          1           0        1.880069   -1.667866   -0.611848
     15          6           0        3.080336   -0.131454    0.307420
     16          1           0        3.120467   -0.614312    1.293978
     17          6           0        4.310638   -0.590989   -0.487909
     18          1           0        4.316782   -0.144337   -1.488392
     19          1           0        5.238775   -0.297116    0.011302
     20          1           0        4.325105   -1.678305   -0.609266
     21          6           0       -2.509649    0.544864    0.832923
     22          1           0       -3.432676    0.530476    1.417505
     23          1           0       -1.749127    1.128289    1.350988
     24          6           0        3.118227    1.388421    0.523541
     25          1           0        4.049695    1.689416    1.012167
     26          1           0        3.059733    1.917672   -0.434118
     27          1           0        2.292328    1.738431    1.147402
     28          8           0       -2.870339    1.291342   -0.371991
     29          8           0       -1.876303    2.030758   -0.827575
     30          1           0       -2.228595    2.825530   -1.234795
 ---------------------------------------------------------------------
                    Distance matrix (angstroms):
                    1          2          3          4          5
     1  C    0.000000
     2  H    1.092848   0.000000
     3  H    1.093002   1.767145   0.000000
     4  C    1.536352   2.175906   2.182620   0.000000
     5  H    2.148667   2.489863   3.069349   1.099774   0.000000
     6  C    2.542592   2.775815   2.817762   1.540617   2.149093
     7  H    2.660628   2.438603   3.005645   2.141429   2.506445
     8  H    2.822301   3.176562   2.657492   2.166179   3.056555
     9  C    3.937288   4.168984   4.297654   2.600681   2.769460
    10  H    4.172948   4.301753   4.771155   2.800125   2.517388
    11  H    4.320941   4.786481   4.587138   2.879679   3.141484
    12  C    5.077073   5.119129   5.285461   3.951554   4.173926
    13  H    5.252294   5.371274   5.231820   4.262137   4.730457
    14  H    5.070333   4.877201   5.326230   4.164182   4.309120
    15  C    6.459216   6.523162   6.740593   5.192389   5.231105
    16  H    6.552509   6.558687   7.000983   5.241530   5.047824
    17  C    7.566685   7.494678   7.768580   6.447825   6.531769
    18  H    7.752343   7.723767   7.800950   6.715113   6.968207
    19  H    8.525484   8.473664   8.771166   7.332617   7.335446
    20  H    7.509617   7.280147   7.757316   6.524413   6.548760
    21  C    2.529452   3.479402   2.835969   1.531860   2.095210
    22  H    2.739402   3.727860   3.145124   2.174139   2.438773
    23  H    3.498881   4.343071   3.841479   2.201325   2.476456
    24  C    7.031759   7.313174   7.233202   5.647908   5.767843
    25  H    8.056355   8.315961   8.300993   6.642123   6.668209
    26  H    7.195338   7.528264   7.231287   5.903800   6.213978
    27  H    6.579018   6.979817   6.834739   5.115001   5.189767
    28  O    2.981630   4.003117   2.715465   2.478878   3.372554
    29  O    3.971790   4.871456   3.631771   3.205013   4.088323
    30  H    4.709660   5.646809   4.238535   4.096113   4.988235
                    6          7          8          9         10
     6  C    0.000000
     7  H    1.096647   0.000000
     8  H    1.096153   1.750187   0.000000
     9  C    1.534182   2.153702   2.162965   0.000000
    10  H    2.162760   2.529835   3.067281   1.098765   0.000000
    11  H    2.161759   3.057707   2.492841   1.093310   1.759099
    12  C    2.550122   2.730143   2.804565   1.534291   2.159233
    13  H    2.790857   3.058894   2.597245   2.161296   3.064689
    14  H    2.736896   2.458226   3.090589   2.152086   2.516356
    15  C    3.951349   4.173238   4.262530   2.597988   2.807528
    16  H    4.188465   4.336843   4.743192   2.776732   2.536028
    17  C    5.065820   5.064502   5.244311   3.925574   4.172489
    18  H    5.255012   5.295231   5.203850   4.275306   4.761532
    19  H    6.020837   6.063310   6.244420   4.760247   4.875760
    20  H    5.127663   4.891435   5.387851   4.170976   4.310763
    21  C    2.572642   3.487197   2.823877   3.172535   3.458467
    22  H    3.515745   4.301558   3.821175   4.155568   4.265161
    23  H    2.831699   3.842827   3.157195   2.861774   3.078308
    24  C    4.580437   5.106342   4.731699   3.163931   3.489648
    25  H    5.618683   6.099096   5.818373   4.154568   4.309078
    26  H    4.755965   5.326359   4.650974   3.545519   4.140184
    27  H    4.296257   4.990350   4.525058   2.871399   3.113456
    28  O    3.086086   4.020832   2.775630   3.840471   4.450327
    29  O    3.224381   4.242945   2.684809   3.603807   4.410055
    30  H    4.155936   5.145467   3.519538   4.519440   5.340891
                   11         12         13         14         15
    11  H    0.000000
    12  C    2.161435   0.000000
    13  H    2.498230   1.098483   0.000000
    14  H    3.057070   1.097528   1.754216   0.000000
    15  C    2.857969   1.540620   2.161994   2.155518   0.000000
    16  H    3.130879   2.145374   3.052042   2.506140   1.099117
    17  C    4.295016   2.526725   2.796949   2.661332   1.535371
    18  H    4.553777   2.797592   2.621319   3.004503   2.180345
    19  H    5.013803   3.488543   3.799811   3.680785   2.184946
    20  H    4.775635   2.768414   3.158455   2.445060   2.186895
    21  C    2.881073   4.609104   4.786218   5.123784   5.655218
    22  H    3.880969   5.635574   5.866208   6.097232   6.640012
    23  H    2.279178   4.300399   4.549785   4.984202   5.098990
    24  C    2.847987   2.558824   2.779932   3.487554   1.535631
    25  H    3.846025   3.508685   3.780763   4.314631   2.179884
    26  H    3.143653   2.820176   2.593819   3.778793   2.179271
    27  H    2.266401   2.840054   3.155525   3.855876   2.196132
    28  O    3.426533   5.025058   4.874058   5.601859   6.156012
    29  O    2.973876   4.529677   4.190413   5.276049   5.525545
    30  H    3.826080   5.343999   4.892917   6.120441   6.269524
                   16         17         18         19         20
    16  H    0.000000
    17  C    2.142935   0.000000
    18  H    3.064903   1.095674   0.000000
    19  H    2.496618   1.094080   1.767058   0.000000
    20  H    2.491098   1.094163   1.768047   1.768497   0.000000
    21  C    5.766669   7.039252   7.243180   7.837223   7.330501
    22  H    6.653532   8.052776   8.303837   8.823626   8.316831
    23  H    5.172316   6.561876   6.817397   7.256536   6.972507
    24  C    2.145814   2.522487   2.798885   2.756837   3.484912
    25  H    2.500009   2.742000   3.112359   2.522291   3.747858
    26  H    3.066096   2.803754   2.635061   3.138775   3.816136
    27  H    2.498539   3.489128   3.819770   3.757090   4.346510
    28  O    6.503593   7.424489   7.413652   8.272112   7.787780
    29  O    6.038634   6.728089   6.597123   7.533064   7.229265
    30  H    6.843952   7.415660   7.192106   8.189340   7.976641
                   21         22         23         24         25
    21  C    0.000000
    22  H    1.092667   0.000000
    23  H    1.089573   1.787776   0.000000
    24  C    5.699149   6.667051   4.944034   0.000000
    25  H    6.660865   7.582435   5.835752   1.094069   0.000000
    26  H    5.874352   6.892329   5.189881   1.095737   1.767446
    27  H    4.958072   5.857284   4.092320   1.092620   1.763244
    28  O    1.462581   2.024212   2.062125   6.055933   7.068326
    29  O    2.316519   3.116653   2.361517   5.213775   6.214388
    30  H    3.091260   3.708339   3.129983   5.809091   6.764357
                   26         27         28         29         30
    26  H    0.000000
    27  H    1.766987   0.000000
    28  O    5.963380   5.400146   0.000000
    29  O    4.952984   4.622064   1.320000   0.000000
    30  H    5.425099   5.224499   1.873499   0.960000   0.000000
 Stoichiometry    C9H19O2(2)
 Framework group  C1[X(C9H19O2)]
 Deg. of freedom    84
 Full point group                 C1      NOp   1
 Largest Abelian subgroup         C1      NOp   1
 Largest concise Abelian subgroup C1      NOp   1
                         Standard orientation:                         
 ---------------------------------------------------------------------
 Center     Atomic      Atomic             Coordinates (Angstroms)
 Number     Number       Type             X           Y           Z
 ---------------------------------------------------------------------
      1          6           0       -3.148026   -1.799892   -0.203489
      2          1           0       -2.824448   -2.829027   -0.378115
      3          1           0       -3.393207   -1.356147   -1.171803
      4          6           0       -2.045421   -1.000665    0.507761
      5          1           0       -1.842553   -1.485379    1.473887
      6          6           0       -0.735933   -1.002078   -0.303868
      7          1           0       -0.525997   -2.041001   -0.585295
      8          1           0       -0.891860   -0.461597   -1.244676
      9          6           0        0.490169   -0.429326    0.418867
     10          1           0        0.612788   -0.936976    1.385584
     11          1           0        0.325159    0.629060    0.637767
     12          6           0        1.778851   -0.589672   -0.398222
     13          1           0        1.671243   -0.055862   -1.352231
     14          1           0        1.899848   -1.649640   -0.655894
     15          6           0        3.065495   -0.108487    0.299286
     16          1           0        3.126110   -0.618314    1.271120
     17          6           0        4.301550   -0.511499   -0.517484
     18          1           0        4.288056   -0.036198   -1.504606
     19          1           0        5.225269   -0.207163   -0.016353
     20          1           0        4.344233   -1.594078   -0.670434
     21          6           0       -2.536425    0.401114    0.882627
     22          1           0       -3.454232    0.344950    1.472880
     23          1           0       -1.787874    0.989704    1.412158
     24          6           0        3.064278    1.404998    0.559147
     25          1           0        3.991055    1.716846    1.049882
     26          1           0        2.984284    1.959853   -0.382328
     27          1           0        2.234092    1.714440    1.198567
     28          8           0       -2.926214    1.171986   -0.297612
     29          8           0       -1.955878    1.950814   -0.738378
     30          1           0       -2.332459    2.747181   -1.119935
 ---------------------------------------------------------------------
 Rotational constants (GHZ):      1.7922621      0.4379604      0.3833862
 Leave Link  202 at Thu Feb  6 19:58:23 2014, MaxMem= 4026531840 cpu:       0.2
 (Enter /usr/caen/gaussian-09revc/g09/l301.exe)
 Standard basis: 6-311++G(d,p) (5D, 7F)
 Ernie: Thresh=  0.10000D-02 Tol=  0.10000D-05 Strict=F.
 There are   375 symmetry adapted basis functions of A   symmetry.
 Integral buffers will be    131072 words long.
 Raffenetti 2 integral format.
 Two-electron integral symmetry is turned on.
   375 basis functions,   567 primitive gaussians,   386 cartesian basis functions
    45 alpha electrons       44 beta electrons
       nuclear repulsion energy       650.4168359330 Hartrees.
 IExCor=  402 DFT=T Ex+Corr=B3LYP ExCW=0 ScaHFX=  0.200000
 ScaDFX=  0.800000  0.720000  1.000000  0.810000 ScalE2=  1.000000  1.000000
 IRadAn=      0 IRanWt=     -1 IRanGd=            0 ICorTp=0
 NAtoms=   30 NActive=   30 NUniq=   30 SFac= 1.00D+00 NAtFMM=   60 NAOKFM=F Big=F
 Leave Link  301 at Thu Feb  6 19:58:24 2014, MaxMem= 4026531840 cpu:       0.3
 (Enter /usr/caen/gaussian-09revc/g09/l302.exe)
 NPDir=0 NMtPBC=     1 NCelOv=     1 NCel=       1 NClECP=     1 NCelD=      1
         NCelK=      1 NCelE2=     1 NClLst=     1 CellRange=     0.0.
 One-electron integrals computed using PRISM.
 NBasis=   375 RedAO= T  NBF=   375
 NBsUse=   375 1.00D-06 NBFU=   375
 Precomputing XC quadrature grid using
 IXCGrd= 2 IRadAn=           0 IRanWt=          -1 IRanGd=           0 AccXCQ= 0.00D+00.
 NRdTot=    1958 NPtTot=      249392 NUsed=      263501 NTot=      263533
 NSgBfM=   386   386   386   386   386 NAtAll=    30    30.
 Leave Link  302 at Thu Feb  6 19:58:25 2014, MaxMem= 4026531840 cpu:       6.9
 (Enter /usr/caen/gaussian-09revc/g09/l303.exe)
 DipDrv:  MaxL=1.
 Leave Link  303 at Thu Feb  6 19:58:25 2014, MaxMem= 4026531840 cpu:       1.2
 (Enter /usr/caen/gaussian-09revc/g09/l401.exe)
 Harris functional with IExCor=  402 diagonalized for initial guess.
 ExpMin= 3.60D-02 ExpMax= 8.59D+03 ExpMxC= 1.30D+03 IAcc=3 IRadAn=         5 AccDes= 0.00D+00
 HarFok:  IExCor=  402 AccDes= 0.00D+00 IRadAn=         5 IDoV= 1
 ScaDFX=  1.000000  1.000000  1.000000  1.000000
 FoFCou: FMM=F IPFlag=           0 FMFlag=      100000 FMFlg1=           0
         NFxFlg=           0 DoJE=T BraDBF=F KetDBF=T FulRan=T
         Omega=  0.000000  0.000000  1.000000  0.000000  0.000000 ICntrl=     500 IOpCl=  0
         NMat0=    1 NMatS0=    1 NMatT0=    0 NMatD0=    1 NMtDS0=    0 NMtDT0=    0
         I1Cent=           4 NGrid=           0.
 Petite list used in FoFCou.
 Harris En= -504.859025377070    
 Mixing orbitals, IMix= 1 IMixAn=  0 NRI=1 NE=   45 Coef=  7.07106781D-01  7.07106781D-01
 Mixing orbitals, IMix= 1 IMixAn=  0 NRI=1 NE=   44 Coef= -7.07106781D-01  7.07106781D-01
 Initial guess orbital symmetries:
 Alpha Orbitals:
       Occupied  (A) (A) (A) (A) (A) (A) (A) (A) (A) (A) (A) (A)
                 (A) (A) (A) (A) (A) (A) (A) (A) (A) (A) (A) (A)
                 (A) (A) (A) (A) (A) (A) (A) (A) (A) (A) (A) (A)
                 (A) (A) (A) (A) (A) (A) (A) (A) (A)
       Virtual   (A) (A) (A) (A) (A) (A) (A) (A) (A) (A) (A) (A)
                 (A) (A) (A) (A) (A) (A) (A) (A) (A) (A) (A) (A)
                 (A) (A) (A) (A) (A) (A) (A) (A) (A) (A) (A) (A)
                 (A) (A) (A) (A) (A) (A) (A) (A) (A) (A) (A) (A)
                 (A) (A) (A) (A) (A) (A) (A) (A) (A) (A) (A) (A)
                 (A) (A) (A) (A) (A) (A) (A) (A) (A) (A) (A) (A)
                 (A) (A) (A) (A) (A) (A) (A) (A) (A) (A) (A) (A)
                 (A) (A) (A) (A) (A) (A) (A) (A) (A) (A) (A) (A)
                 (A) (A) (A) (A) (A) (A) (A) (A) (A) (A) (A) (A)
                 (A) (A) (A) (A) (A) (A) (A) (A) (A) (A) (A) (A)
                 (A) (A) (A) (A) (A) (A) (A) (A) (A) (A) (A) (A)
                 (A) (A) (A) (A) (A) (A) (A) (A) (A) (A) (A) (A)
                 (A) (A) (A) (A) (A) (A) (A) (A) (A) (A) (A) (A)
                 (A) (A) (A) (A) (A) (A) (A) (A) (A) (A) (A) (A)
                 (A) (A) (A) (A) (A) (A) (A) (A) (A) (A) (A) (A)
                 (A) (A) (A) (A) (A) (A) (A) (A) (A) (A) (A) (A)
                 (A) (A) (A) (A) (A) (A) (A) (A) (A) (A) (A) (A)
                 (A) (A) (A) (A) (A) (A) (A) (A) (A) (A) (A) (A)
                 (A) (A) (A) (A) (A) (A) (A) (A) (A) (A) (A) (A)
                 (A) (A) (A) (A) (A) (A) (A) (A) (A) (A) (A) (A)
                 (A) (A) (A) (A) (A) (A) (A) (A) (A) (A) (A) (A)
                 (A) (A) (A) (A) (A) (A) (A) (A) (A) (A) (A) (A)
                 (A) (A) (A) (A) (A) (A) (A) (A) (A) (A) (A) (A)
                 (A) (A) (A) (A) (A) (A) (A) (A) (A) (A) (A) (A)
                 (A) (A) (A) (A) (A) (A) (A) (A) (A) (A) (A) (A)
                 (A) (A) (A) (A) (A) (A) (A) (A) (A) (A) (A) (A)
                 (A) (A) (A) (A) (A) (A) (A) (A) (A) (A) (A) (A)
                 (A) (A) (A) (A) (A) (A)
 Beta  Orbitals:
       Occupied  (A) (A) (A) (A) (A) (A) (A) (A) (A) (A) (A) (A)
                 (A) (A) (A) (A) (A) (A) (A) (A) (A) (A) (A) (A)
                 (A) (A) (A) (A) (A) (A) (A) (A) (A) (A) (A) (A)
                 (A) (A) (A) (A) (A) (A) (A) (A)
       Virtual   (A) (A) (A) (A) (A) (A) (A) (A) (A) (A) (A) (A)
                 (A) (A) (A) (A) (A) (A) (A) (A) (A) (A) (A) (A)
                 (A) (A) (A) (A) (A) (A) (A) (A) (A) (A) (A) (A)
                 (A) (A) (A) (A) (A) (A) (A) (A) (A) (A) (A) (A)
                 (A) (A) (A) (A) (A) (A) (A) (A) (A) (A) (A) (A)
                 (A) (A) (A) (A) (A) (A) (A) (A) (A) (A) (A) (A)
                 (A) (A) (A) (A) (A) (A) (A) (A) (A) (A) (A) (A)
                 (A) (A) (A) (A) (A) (A) (A) (A) (A) (A) (A) (A)
                 (A) (A) (A) (A) (A) (A) (A) (A) (A) (A) (A) (A)
                 (A) (A) (A) (A) (A) (A) (A) (A) (A) (A) (A) (A)
                 (A) (A) (A) (A) (A) (A) (A) (A) (A) (A) (A) (A)
                 (A) (A) (A) (A) (A) (A) (A) (A) (A) (A) (A) (A)
                 (A) (A) (A) (A) (A) (A) (A) (A) (A) (A) (A) (A)
                 (A) (A) (A) (A) (A) (A) (A) (A) (A) (A) (A) (A)
                 (A) (A) (A) (A) (A) (A) (A) (A) (A) (A) (A) (A)
                 (A) (A) (A) (A) (A) (A) (A) (A) (A) (A) (A) (A)
                 (A) (A) (A) (A) (A) (A) (A) (A) (A) (A) (A) (A)
                 (A) (A) (A) (A) (A) (A) (A) (A) (A) (A) (A) (A)
                 (A) (A) (A) (A) (A) (A) (A) (A) (A) (A) (A) (A)
                 (A) (A) (A) (A) (A) (A) (A) (A) (A) (A) (A) (A)
                 (A) (A) (A) (A) (A) (A) (A) (A) (A) (A) (A) (A)
                 (A) (A) (A) (A) (A) (A) (A) (A) (A) (A) (A) (A)
                 (A) (A) (A) (A) (A) (A) (A) (A) (A) (A) (A) (A)
                 (A) (A) (A) (A) (A) (A) (A) (A) (A) (A) (A) (A)
                 (A) (A) (A) (A) (A) (A) (A) (A) (A) (A) (A) (A)
                 (A) (A) (A) (A) (A) (A) (A) (A) (A) (A) (A) (A)
                 (A) (A) (A) (A) (A) (A) (A) (A) (A) (A) (A) (A)
                 (A) (A) (A) (A) (A) (A) (A)
 The electronic state of the initial guess is 2-A.
 Initial guess <Sx>= 0.0000 <Sy>= 0.0000 <Sz>= 0.5000 <S**2>= 1.0000 S= 0.6180
 Leave Link  401 at Thu Feb  6 19:58:29 2014, MaxMem= 4026531840 cpu:      26.4
 (Enter /usr/caen/gaussian-09revc/g09/l502.exe)
 UHF open shell SCF:
 Requested convergence on RMS density matrix=1.00D-08 within 128 cycles.
 Requested convergence on MAX density matrix=1.00D-06.
 Requested convergence on             energy=1.00D-06.
 No special actions if energy rises.
 Using DIIS extrapolation, IDIIS=  1040.
 Integral symmetry usage will be decided dynamically.
       263218 words used for storage of precomputed grid.
 IEnd=      734352 IEndB=      734352 NGot=  4026531840 MDV=  4025963511
 LenX=  4025963511 LenY=  4025814074
 Fock matrices will be formed incrementally for  20 cycles.

 Cycle   1  Pass 1  IDiag  1:
 FoFCou: FMM=F IPFlag=           0 FMFlag=      100000 FMFlg1=           0
         NFxFlg=           0 DoJE=F BraDBF=F KetDBF=F FulRan=T
         Omega=  0.000000  0.000000  1.000000  0.000000  0.000000 ICntrl=       0 IOpCl=  1
         NMat0=    1 NMatS0=    1 NMatT0=    0 NMatD0=    1 NMtDS0=    0 NMtDT0=    0
         I1Cent=           0 NGrid=           0.
 Symmetry not used in FoFCou.
 E= -504.328397702761    
 DIIS: error= 2.88D-02 at cycle   1 NSaved=   1.
 NSaved= 1 IEnMin= 1 EnMin= -504.328397702761     IErMin= 1 ErrMin= 2.88D-02
 ErrMax= 2.88D-02 EMaxC= 1.00D-01 BMatC= 1.44D+00 BMatP= 1.44D+00
 IDIUse=3 WtCom= 7.12D-01 WtEn= 2.88D-01
 Coeff-Com:  0.100D+01
 Coeff-En:   0.100D+01
 Coeff:      0.100D+01
 Gap=     0.021 Goal=   None    Shift=    0.000
 Gap=     0.079 Goal=   None    Shift=    0.000
 GapD=    0.021 DampG=0.250 DampE=0.500 DampFc=0.2500 IDamp=-1.
 Damping current iteration by 2.50D-01
 RMSDP=1.91D-02 MaxDP=2.97D+00              OVMax= 6.09D-01

 Cycle   2  Pass 1  IDiag  1:
 RMSU=  2.43D-03    CP:  8.82D-01
 E= -504.467617707915     Delta-E=       -0.139220005153 Rises=F Damp=T
 DIIS: error= 1.17D-02 at cycle   2 NSaved=   2.
 NSaved= 2 IEnMin= 2 EnMin= -504.467617707915     IErMin= 2 ErrMin= 1.17D-02
 ErrMax= 1.17D-02 EMaxC= 1.00D-01 BMatC= 3.61D-01 BMatP= 1.44D+00
 IDIUse=3 WtCom= 8.83D-01 WtEn= 1.17D-01
 Coeff-Com: -0.669D+00 0.167D+01
 Coeff-En:   0.000D+00 0.100D+01
 Coeff:     -0.590D+00 0.159D+01
 Gap=     0.299 Goal=   None    Shift=    0.000
 Gap=     0.108 Goal=   None    Shift=    0.000
 RMSDP=1.17D-02 MaxDP=1.41D+00 DE=-1.39D-01 OVMax= 5.44D-01

 Cycle   3  Pass 1  IDiag  1:
 RMSU=  5.75D-03    CP:  6.11D-01  2.34D+00
 E= -504.769205634994     Delta-E=       -0.301587927079 Rises=F Damp=F
 DIIS: error= 8.62D-03 at cycle   3 NSaved=   3.
 NSaved= 3 IEnMin= 3 EnMin= -504.769205634994     IErMin= 3 ErrMin= 8.62D-03
 ErrMax= 8.62D-03 EMaxC= 1.00D-01 BMatC= 1.62D-01 BMatP= 3.61D-01
 IDIUse=3 WtCom= 9.14D-01 WtEn= 8.62D-02
 Coeff-Com: -0.418D+00 0.910D+00 0.508D+00
 Coeff-En:   0.000D+00 0.000D+00 0.100D+01
 Coeff:     -0.382D+00 0.831D+00 0.550D+00
 Gap=     0.207 Goal=   None    Shift=    0.000
 Gap=     0.104 Goal=   None    Shift=    0.000
 RMSDP=3.65D-03 MaxDP=4.41D-01 DE=-3.02D-01 OVMax= 1.15D-01

 Cycle   4  Pass 1  IDiag  1:
 RMSU=  2.72D-03    CP:  5.99D-01  2.52D+00  7.33D-01
 E= -504.812364453812     Delta-E=       -0.043158818819 Rises=F Damp=F
 DIIS: error= 2.49D-03 at cycle   4 NSaved=   4.
 NSaved= 4 IEnMin= 4 EnMin= -504.812364453812     IErMin= 4 ErrMin= 2.49D-03
 ErrMax= 2.49D-03 EMaxC= 1.00D-01 BMatC= 1.35D-02 BMatP= 1.62D-01
 IDIUse=3 WtCom= 9.75D-01 WtEn= 2.49D-02
 Coeff-Com: -0.149D+00 0.255D+00 0.221D+00 0.673D+00
 Coeff-En:   0.000D+00 0.000D+00 0.000D+00 0.100D+01
 Coeff:     -0.145D+00 0.249D+00 0.215D+00 0.681D+00
 Gap=     0.213 Goal=   None    Shift=    0.000
 Gap=     0.142 Goal=   None    Shift=    0.000
 RMSDP=1.13D-03 MaxDP=1.71D-01 DE=-4.32D-02 OVMax= 2.52D-02

 Cycle   5  Pass 1  IDiag  1:
 RMSU=  4.92D-04    CP:  5.72D-01  2.47D+00  7.09D-01  9.64D-01
 E= -504.816024164110     Delta-E=       -0.003659710297 Rises=F Damp=F
 DIIS: error= 9.63D-04 at cycle   5 NSaved=   5.
 NSaved= 5 IEnMin= 5 EnMin= -504.816024164110     IErMin= 5 ErrMin= 9.63D-04
 ErrMax= 9.63D-04 EMaxC= 1.00D-01 BMatC= 1.68D-03 BMatP= 1.35D-02
 IDIUse=3 WtCom= 9.90D-01 WtEn= 9.63D-03
 Coeff-Com: -0.274D-01 0.292D-01-0.401D-02 0.214D+00 0.789D+00
 Coeff-En:   0.000D+00 0.000D+00 0.000D+00 0.000D+00 0.100D+01
 Coeff:     -0.271D-01 0.289D-01-0.398D-02 0.211D+00 0.791D+00
 Gap=     0.221 Goal=   None    Shift=    0.000
 Gap=     0.149 Goal=   None    Shift=    0.000
 RMSDP=5.35D-04 MaxDP=8.32D-02 DE=-3.66D-03 OVMax= 1.05D-02

 Cycle   6  Pass 1  IDiag  1:
 RMSU=  2.99D-04    CP:  5.78D-01  2.52D+00  6.92D-01  1.05D+00  8.89D-01
 E= -504.816433425653     Delta-E=       -0.000409261543 Rises=F Damp=F
 DIIS: error= 7.38D-04 at cycle   6 NSaved=   6.
 NSaved= 6 IEnMin= 6 EnMin= -504.816433425653     IErMin= 6 ErrMin= 7.38D-04
 ErrMax= 7.38D-04 EMaxC= 1.00D-01 BMatC= 5.85D-04 BMatP= 1.68D-03
 IDIUse=3 WtCom= 9.93D-01 WtEn= 7.38D-03
 Coeff-Com:  0.708D-02-0.193D-01-0.420D-01-0.178D-02 0.461D+00 0.595D+00
 Coeff-En:   0.000D+00 0.000D+00 0.000D+00 0.000D+00 0.000D+00 0.100D+01
 Coeff:      0.703D-02-0.192D-01-0.417D-01-0.177D-02 0.458D+00 0.598D+00
 Gap=     0.220 Goal=   None    Shift=    0.000
 Gap=     0.151 Goal=   None    Shift=    0.000
 RMSDP=1.82D-04 MaxDP=2.29D-02 DE=-4.09D-04 OVMax= 4.57D-03

 Cycle   7  Pass 1  IDiag  1:
 RMSU=  1.04D-04    CP:  5.77D-01  2.52D+00  6.85D-01  1.07D+00  9.97D-01
                    CP:  1.13D+00
 E= -504.816550847707     Delta-E=       -0.000117422055 Rises=F Damp=F
 DIIS: error= 2.61D-04 at cycle   7 NSaved=   7.
 NSaved= 7 IEnMin= 7 EnMin= -504.816550847707     IErMin= 7 ErrMin= 2.61D-04
 ErrMax= 2.61D-04 EMaxC= 1.00D-01 BMatC= 5.46D-05 BMatP= 5.85D-04
 IDIUse=3 WtCom= 9.97D-01 WtEn= 2.61D-03
 Coeff-Com:  0.295D-02-0.384D-02-0.990D-02-0.278D-01 0.550D-01 0.259D+00
 Coeff-Com:  0.725D+00
 Coeff-En:   0.000D+00 0.000D+00 0.000D+00 0.000D+00 0.000D+00 0.000D+00
 Coeff-En:   0.100D+01
 Coeff:      0.294D-02-0.383D-02-0.987D-02-0.278D-01 0.549D-01 0.258D+00
 Coeff:      0.726D+00
 Gap=     0.220 Goal=   None    Shift=    0.000
 Gap=     0.151 Goal=   None    Shift=    0.000
 RMSDP=3.89D-05 MaxDP=5.77D-03 DE=-1.17D-04 OVMax= 1.03D-03

 Cycle   8  Pass 1  IDiag  1:
 RMSU=  2.57D-05    CP:  5.77D-01  2.52D+00  6.85D-01  1.07D+00  1.01D+00
                    CP:  1.15D+00  9.12D-01
 E= -504.816560951318     Delta-E=       -0.000010103611 Rises=F Damp=F
 DIIS: error= 6.86D-05 at cycle   8 NSaved=   8.
 NSaved= 8 IEnMin= 8 EnMin= -504.816560951318     IErMin= 8 ErrMin= 6.86D-05
 ErrMax= 6.86D-05 EMaxC= 1.00D-01 BMatC= 1.13D-05 BMatP= 5.46D-05
 IDIUse=1 WtCom= 1.00D+00 WtEn= 0.00D+00
 Coeff-Com:  0.140D-02-0.136D-02-0.824D-03-0.143D-01-0.212D-01 0.741D-01
 Coeff-Com:  0.388D+00 0.575D+00
 Coeff:      0.140D-02-0.136D-02-0.824D-03-0.143D-01-0.212D-01 0.741D-01
 Coeff:      0.388D+00 0.575D+00
 Gap=     0.220 Goal=   None    Shift=    0.000
 Gap=     0.151 Goal=   None    Shift=    0.000
 RMSDP=1.64D-05 MaxDP=2.03D-03 DE=-1.01D-05 OVMax= 3.20D-04

 Cycle   9  Pass 1  IDiag  1:
 RMSU=  9.38D-06    CP:  5.77D-01  2.52D+00  6.85D-01  1.08D+00  1.01D+00
                    CP:  1.17D+00  9.41D-01  8.81D-01
 E= -504.816563542825     Delta-E=       -0.000002591507 Rises=F Damp=F
 DIIS: error= 2.08D-05 at cycle   9 NSaved=   9.
 NSaved= 9 IEnMin= 9 EnMin= -504.816563542825     IErMin= 9 ErrMin= 2.08D-05
 ErrMax= 2.08D-05 EMaxC= 1.00D-01 BMatC= 8.72D-07 BMatP= 1.13D-05
 IDIUse=1 WtCom= 1.00D+00 WtEn= 0.00D+00
 Coeff-Com: -0.236D-03 0.664D-03 0.172D-02-0.448D-03-0.178D-01-0.189D-01
 Coeff-Com:  0.488D-02 0.194D+00 0.836D+00
 Coeff:     -0.236D-03 0.664D-03 0.172D-02-0.448D-03-0.178D-01-0.189D-01
 Coeff:      0.488D-02 0.194D+00 0.836D+00
 Gap=     0.220 Goal=   None    Shift=    0.000
 Gap=     0.151 Goal=   None    Shift=    0.000
 RMSDP=8.06D-06 MaxDP=1.37D-03 DE=-2.59D-06 OVMax= 1.50D-04

 Cycle  10  Pass 1  IDiag  1:
 RMSU=  3.99D-06    CP:  5.77D-01  2.52D+00  6.85D-01  1.08D+00  1.01D+00
                    CP:  1.18D+00  9.57D-01  8.96D-01  1.15D+00
 E= -504.816563814169     Delta-E=       -0.000000271345 Rises=F Damp=F
 DIIS: error= 8.79D-06 at cycle  10 NSaved=  10.
 NSaved=10 IEnMin=10 EnMin= -504.816563814169     IErMin=10 ErrMin= 8.79D-06
 ErrMax= 8.79D-06 EMaxC= 1.00D-01 BMatC= 1.93D-07 BMatP= 8.72D-07
 IDIUse=1 WtCom= 1.00D+00 WtEn= 0.00D+00
 Coeff-Com: -0.220D-03 0.241D-03 0.696D-03 0.197D-02-0.404D-02-0.201D-01
 Coeff-Com: -0.585D-01-0.603D-02 0.369D+00 0.717D+00
 Coeff:     -0.220D-03 0.241D-03 0.696D-03 0.197D-02-0.404D-02-0.201D-01
 Coeff:     -0.585D-01-0.603D-02 0.369D+00 0.717D+00
 Gap=     0.220 Goal=   None    Shift=    0.000
 Gap=     0.151 Goal=   None    Shift=    0.000
 RMSDP=3.82D-06 MaxDP=5.15D-04 DE=-2.71D-07 OVMax= 6.52D-05

 Cycle  11  Pass 1  IDiag  1:
 RMSU=  1.74D-06    CP:  5.77D-01  2.52D+00  6.85D-01  1.08D+00  1.01D+00
                    CP:  1.18D+00  9.55D-01  9.47D-01  1.15D+00  8.37D-01
 E= -504.816563869314     Delta-E=       -0.000000055144 Rises=F Damp=F
 DIIS: error= 3.90D-06 at cycle  11 NSaved=  11.
 NSaved=11 IEnMin=11 EnMin= -504.816563869314     IErMin=11 ErrMin= 3.90D-06
 ErrMax= 3.90D-06 EMaxC= 1.00D-01 BMatC= 2.66D-08 BMatP= 1.93D-07
 IDIUse=1 WtCom= 1.00D+00 WtEn= 0.00D+00
 Coeff-Com: -0.871D-04 0.111D-03 0.443D-04 0.659D-03 0.529D-03-0.529D-02
 Coeff-Com: -0.208D-01-0.251D-01 0.286D-01 0.305D+00 0.716D+00
 Coeff:     -0.871D-04 0.111D-03 0.443D-04 0.659D-03 0.529D-03-0.529D-02
 Coeff:     -0.208D-01-0.251D-01 0.286D-01 0.305D+00 0.716D+00
 Gap=     0.220 Goal=   None    Shift=    0.000
 Gap=     0.151 Goal=   None    Shift=    0.000
 RMSDP=1.08D-06 MaxDP=2.07D-04 DE=-5.51D-08 OVMax= 2.34D-05

 Cycle  12  Pass 1  IDiag  1:
 RMSU=  5.27D-07    CP:  5.77D-01  2.52D+00  6.85D-01  1.08D+00  1.01D+00
                    CP:  1.18D+00  9.57D-01  9.46D-01  1.17D+00  8.93D-01
                    CP:  1.01D+00
 E= -504.816563875495     Delta-E=       -0.000000006181 Rises=F Damp=F
 DIIS: error= 1.01D-06 at cycle  12 NSaved=  12.
 NSaved=12 IEnMin=12 EnMin= -504.816563875495     IErMin=12 ErrMin= 1.01D-06
 ErrMax= 1.01D-06 EMaxC= 1.00D-01 BMatC= 3.71D-09 BMatP= 2.66D-08
 IDIUse=1 WtCom= 1.00D+00 WtEn= 0.00D+00
 Coeff-Com: -0.930D-05 0.366D-05-0.678D-04 0.143D-03 0.785D-03-0.276D-03
 Coeff-Com: -0.320D-02-0.113D-01-0.333D-01 0.549D-01 0.328D+00 0.664D+00
 Coeff:     -0.930D-05 0.366D-05-0.678D-04 0.143D-03 0.785D-03-0.276D-03
 Coeff:     -0.320D-02-0.113D-01-0.333D-01 0.549D-01 0.328D+00 0.664D+00
 Gap=     0.220 Goal=   None    Shift=    0.000
 Gap=     0.151 Goal=   None    Shift=    0.000
 RMSDP=4.11D-07 MaxDP=5.25D-05 DE=-6.18D-09 OVMax= 5.93D-06

 Cycle  13  Pass 1  IDiag  1:
 RMSU=  2.06D-07    CP:  5.77D-01  2.52D+00  6.85D-01  1.08D+00  1.01D+00
                    CP:  1.18D+00  9.57D-01  9.45D-01  1.17D+00  9.11D-01
                    CP:  1.04D+00  8.55D-01
 E= -504.816563876450     Delta-E=       -0.000000000955 Rises=F Damp=F
 DIIS: error= 2.96D-07 at cycle  13 NSaved=  13.
 NSaved=13 IEnMin=13 EnMin= -504.816563876450     IErMin=13 ErrMin= 2.96D-07
 ErrMax= 2.96D-07 EMaxC= 1.00D-01 BMatC= 2.39D-10 BMatP= 3.71D-09
 IDIUse=1 WtCom= 1.00D+00 WtEn= 0.00D+00
 Coeff-Com:  0.492D-05-0.580D-05-0.228D-04-0.242D-04 0.176D-03 0.542D-03
 Coeff-Com:  0.129D-02-0.738D-03-0.134D-01-0.187D-01 0.244D-01 0.195D+00
 Coeff-Com:  0.812D+00
 Coeff:      0.492D-05-0.580D-05-0.228D-04-0.242D-04 0.176D-03 0.542D-03
 Coeff:      0.129D-02-0.738D-03-0.134D-01-0.187D-01 0.244D-01 0.195D+00
 Coeff:      0.812D+00
 Gap=     0.220 Goal=   None    Shift=    0.000
 Gap=     0.151 Goal=   None    Shift=    0.000
 RMSDP=1.42D-07 MaxDP=2.00D-05 DE=-9.55D-10 OVMax= 2.35D-06

 Cycle  14  Pass 1  IDiag  1:
 RMSU=  5.52D-08    CP:  5.77D-01  2.52D+00  6.85D-01  1.08D+00  1.01D+00
                    CP:  1.18D+00  9.57D-01  9.44D-01  1.17D+00  9.18D-01
                    CP:  1.04D+00  9.21D-01  8.42D-01
 E= -504.816563876523     Delta-E=       -0.000000000073 Rises=F Damp=F
 DIIS: error= 1.45D-07 at cycle  14 NSaved=  14.
 NSaved=14 IEnMin=14 EnMin= -504.816563876523     IErMin=14 ErrMin= 1.45D-07
 ErrMax= 1.45D-07 EMaxC= 1.00D-01 BMatC= 5.68D-11 BMatP= 2.39D-10
 IDIUse=1 WtCom= 1.00D+00 WtEn= 0.00D+00
 Coeff-Com:  0.385D-05-0.550D-05-0.135D-05-0.229D-04-0.144D-04 0.242D-03
 Coeff-Com:  0.780D-03 0.912D-03-0.993D-03-0.142D-01-0.290D-01-0.536D-02
 Coeff-Com:  0.354D+00 0.694D+00
 Coeff:      0.385D-05-0.550D-05-0.135D-05-0.229D-04-0.144D-04 0.242D-03
 Coeff:      0.780D-03 0.912D-03-0.993D-03-0.142D-01-0.290D-01-0.536D-02
 Coeff:      0.354D+00 0.694D+00
 Gap=     0.220 Goal=   None    Shift=    0.000
 Gap=     0.151 Goal=   None    Shift=    0.000
 RMSDP=5.72D-08 MaxDP=6.51D-06 DE=-7.30D-11 OVMax= 8.45D-07

 Cycle  15  Pass 1  IDiag  1:
 RMSU=  1.50D-08    CP:  5.77D-01  2.52D+00  6.85D-01  1.08D+00  1.01D+00
                    CP:  1.18D+00  9.57D-01  9.45D-01  1.17D+00  9.14D-01
                    CP:  1.05D+00  9.11D-01  8.78D-01  9.22D-01
 E= -504.816563876537     Delta-E=       -0.000000000014 Rises=F Damp=F
 DIIS: error= 5.04D-08 at cycle  15 NSaved=  15.
 NSaved=15 IEnMin=15 EnMin= -504.816563876537     IErMin=15 ErrMin= 5.04D-08
 ErrMax= 5.04D-08 EMaxC= 1.00D-01 BMatC= 5.48D-12 BMatP= 5.68D-11
 IDIUse=1 WtCom= 1.00D+00 WtEn= 0.00D+00
 Coeff-Com:  0.398D-06-0.421D-06 0.334D-05-0.570D-05-0.268D-04 0.148D-04
 Coeff-Com:  0.994D-04 0.403D-03 0.140D-02-0.209D-02-0.131D-01-0.284D-01
 Coeff-Com:  0.273D-02 0.238D+00 0.801D+00
 Coeff:      0.398D-06-0.421D-06 0.334D-05-0.570D-05-0.268D-04 0.148D-04
 Coeff:      0.994D-04 0.403D-03 0.140D-02-0.209D-02-0.131D-01-0.284D-01
 Coeff:      0.273D-02 0.238D+00 0.801D+00
 Gap=     0.220 Goal=   None    Shift=    0.000
 Gap=     0.151 Goal=   None    Shift=    0.000
 RMSDP=1.76D-08 MaxDP=1.68D-06 DE=-1.41D-11 OVMax= 3.61D-07

 Cycle  16  Pass 1  IDiag  1:
 RMSU=  8.86D-09    CP:  5.77D-01  2.52D+00  6.85D-01  1.08D+00  1.01D+00
                    CP:  1.18D+00  9.57D-01  9.45D-01  1.17D+00  9.14D-01
                    CP:  1.04D+00  9.10D-01  8.93D-01  8.93D-01  1.02D+00
 E= -504.816563876534     Delta-E=        0.000000000004 Rises=F Damp=F
 DIIS: error= 1.31D-08 at cycle  16 NSaved=  16.
 NSaved=16 IEnMin=15 EnMin= -504.816563876537     IErMin=16 ErrMin= 1.31D-08
 ErrMax= 1.31D-08 EMaxC= 1.00D-01 BMatC= 4.15D-13 BMatP= 5.48D-12
 IDIUse=1 WtCom= 1.00D+00 WtEn= 0.00D+00
 Coeff-Com: -0.194D-06 0.291D-06 0.648D-06 0.379D-06-0.360D-05-0.211D-04
 Coeff-Com: -0.539D-04 0.702D-06 0.356D-03 0.115D-02 0.118D-03-0.465D-02
 Coeff-Com: -0.406D-01-0.277D-01 0.170D+00 0.901D+00
 Coeff:     -0.194D-06 0.291D-06 0.648D-06 0.379D-06-0.360D-05-0.211D-04
 Coeff:     -0.539D-04 0.702D-06 0.356D-03 0.115D-02 0.118D-03-0.465D-02
 Coeff:     -0.406D-01-0.277D-01 0.170D+00 0.901D+00
 Gap=     0.220 Goal=   None    Shift=    0.000
 Gap=     0.151 Goal=   None    Shift=    0.000
 RMSDP=5.63D-09 MaxDP=6.94D-07 DE= 3.64D-12 OVMax= 1.16D-07

 SCF Done:  E(UB3LYP) =  -504.816563877     A.U. after   16 cycles
             Convg  =    0.5633D-08             -V/T =  2.0041
 <Sx>= 0.0000 <Sy>= 0.0000 <Sz>= 0.5000 <S**2>= 0.7528 S= 0.5014
 <L.S>= 0.000000000000E+00
 KE= 5.027646613057D+02 PE=-2.477079717896D+03 EE= 8.190816567809D+02
 Annihilation of the first spin contaminant:
 S**2 before annihilation     0.7528,   after     0.7500
 Leave Link  502 at Thu Feb  6 20:01:50 2014, MaxMem= 4026531840 cpu:    1608.0
 (Enter /usr/caen/gaussian-09revc/g09/l601.exe)
 Copying SCF densities to generalized density rwf, IOpCl= 1 IROHF=0.

 **********************************************************************

            Population analysis using the SCF density.

 **********************************************************************

 Orbital symmetries:
 Alpha Orbitals:
       Occupied  (A) (A) (A) (A) (A) (A) (A) (A) (A) (A) (A) (A)
                 (A) (A) (A) (A) (A) (A) (A) (A) (A) (A) (A) (A)
                 (A) (A) (A) (A) (A) (A) (A) (A) (A) (A) (A) (A)
                 (A) (A) (A) (A) (A) (A) (A) (A) (A)
       Virtual   (A) (A) (A) (A) (A) (A) (A) (A) (A) (A) (A) (A)
                 (A) (A) (A) (A) (A) (A) (A) (A) (A) (A) (A) (A)
                 (A) (A) (A) (A) (A) (A) (A) (A) (A) (A) (A) (A)
                 (A) (A) (A) (A) (A) (A) (A) (A) (A) (A) (A) (A)
                 (A) (A) (A) (A) (A) (A) (A) (A) (A) (A) (A) (A)
                 (A) (A) (A) (A) (A) (A) (A) (A) (A) (A) (A) (A)
                 (A) (A) (A) (A) (A) (A) (A) (A) (A) (A) (A) (A)
                 (A) (A) (A) (A) (A) (A) (A) (A) (A) (A) (A) (A)
                 (A) (A) (A) (A) (A) (A) (A) (A) (A) (A) (A) (A)
                 (A) (A) (A) (A) (A) (A) (A) (A) (A) (A) (A) (A)
                 (A) (A) (A) (A) (A) (A) (A) (A) (A) (A) (A) (A)
                 (A) (A) (A) (A) (A) (A) (A) (A) (A) (A) (A) (A)
                 (A) (A) (A) (A) (A) (A) (A) (A) (A) (A) (A) (A)
                 (A) (A) (A) (A) (A) (A) (A) (A) (A) (A) (A) (A)
                 (A) (A) (A) (A) (A) (A) (A) (A) (A) (A) (A) (A)
                 (A) (A) (A) (A) (A) (A) (A) (A) (A) (A) (A) (A)
                 (A) (A) (A) (A) (A) (A) (A) (A) (A) (A) (A) (A)
                 (A) (A) (A) (A) (A) (A) (A) (A) (A) (A) (A) (A)
                 (A) (A) (A) (A) (A) (A) (A) (A) (A) (A) (A) (A)
                 (A) (A) (A) (A) (A) (A) (A) (A) (A) (A) (A) (A)
                 (A) (A) (A) (A) (A) (A) (A) (A) (A) (A) (A) (A)
                 (A) (A) (A) (A) (A) (A) (A) (A) (A) (A) (A) (A)
                 (A) (A) (A) (A) (A) (A) (A) (A) (A) (A) (A) (A)
                 (A) (A) (A) (A) (A) (A) (A) (A) (A) (A) (A) (A)
                 (A) (A) (A) (A) (A) (A) (A) (A) (A) (A) (A) (A)
                 (A) (A) (A) (A) (A) (A) (A) (A) (A) (A) (A) (A)
                 (A) (A) (A) (A) (A) (A) (A) (A) (A) (A) (A) (A)
                 (A) (A) (A) (A) (A) (A)
 Beta  Orbitals:
       Occupied  (A) (A) (A) (A) (A) (A) (A) (A) (A) (A) (A) (A)
                 (A) (A) (A) (A) (A) (A) (A) (A) (A) (A) (A) (A)
                 (A) (A) (A) (A) (A) (A) (A) (A) (A) (A) (A) (A)
                 (A) (A) (A) (A) (A) (A) (A) (A)
       Virtual   (A) (A) (A) (A) (A) (A) (A) (A) (A) (A) (A) (A)
                 (A) (A) (A) (A) (A) (A) (A) (A) (A) (A) (A) (A)
                 (A) (A) (A) (A) (A) (A) (A) (A) (A) (A) (A) (A)
                 (A) (A) (A) (A) (A) (A) (A) (A) (A) (A) (A) (A)
                 (A) (A) (A) (A) (A) (A) (A) (A) (A) (A) (A) (A)
                 (A) (A) (A) (A) (A) (A) (A) (A) (A) (A) (A) (A)
                 (A) (A) (A) (A) (A) (A) (A) (A) (A) (A) (A) (A)
                 (A) (A) (A) (A) (A) (A) (A) (A) (A) (A) (A) (A)
                 (A) (A) (A) (A) (A) (A) (A) (A) (A) (A) (A) (A)
                 (A) (A) (A) (A) (A) (A) (A) (A) (A) (A) (A) (A)
                 (A) (A) (A) (A) (A) (A) (A) (A) (A) (A) (A) (A)
                 (A) (A) (A) (A) (A) (A) (A) (A) (A) (A) (A) (A)
                 (A) (A) (A) (A) (A) (A) (A) (A) (A) (A) (A) (A)
                 (A) (A) (A) (A) (A) (A) (A) (A) (A) (A) (A) (A)
                 (A) (A) (A) (A) (A) (A) (A) (A) (A) (A) (A) (A)
                 (A) (A) (A) (A) (A) (A) (A) (A) (A) (A) (A) (A)
                 (A) (A) (A) (A) (A) (A) (A) (A) (A) (A) (A) (A)
                 (A) (A) (A) (A) (A) (A) (A) (A) (A) (A) (A) (A)
                 (A) (A) (A) (A) (A) (A) (A) (A) (A) (A) (A) (A)
                 (A) (A) (A) (A) (A) (A) (A) (A) (A) (A) (A) (A)
                 (A) (A) (A) (A) (A) (A) (A) (A) (A) (A) (A) (A)
                 (A) (A) (A) (A) (A) (A) (A) (A) (A) (A) (A) (A)
                 (A) (A) (A) (A) (A) (A) (A) (A) (A) (A) (A) (A)
                 (A) (A) (A) (A) (A) (A) (A) (A) (A) (A) (A) (A)
                 (A) (A) (A) (A) (A) (A) (A) (A) (A) (A) (A) (A)
                 (A) (A) (A) (A) (A) (A) (A) (A) (A) (A) (A) (A)
                 (A) (A) (A) (A) (A) (A) (A) (A) (A) (A) (A) (A)
                 (A) (A) (A) (A) (A) (A) (A)
 The electronic state is 2-A.
 Alpha  occ. eigenvalues --  -19.17495 -19.17028 -10.22258 -10.18397 -10.18357
 Alpha  occ. eigenvalues --  -10.17284 -10.16833 -10.16444 -10.16209 -10.15579
 Alpha  occ. eigenvalues --  -10.15520  -1.17801  -0.90299  -0.82124  -0.80062
 Alpha  occ. eigenvalues --   -0.74756  -0.68317  -0.68171  -0.67143  -0.60331
 Alpha  occ. eigenvalues --   -0.57891  -0.55825  -0.54685  -0.50094  -0.47749
 Alpha  occ. eigenvalues --   -0.47171  -0.44855  -0.44039  -0.43643  -0.41964
 Alpha  occ. eigenvalues --   -0.41254  -0.39069  -0.38466  -0.38330  -0.36850
 Alpha  occ. eigenvalues --   -0.35795  -0.35493  -0.34043  -0.33478  -0.32250
 Alpha  occ. eigenvalues --   -0.31928  -0.31732  -0.30803  -0.24018  -0.23177
 Alpha virt. eigenvalues --   -0.01217  -0.00380   0.00124   0.00534   0.01729
 Alpha virt. eigenvalues --    0.02136   0.02358   0.03130   0.03718   0.03933
 Alpha virt. eigenvalues --    0.04627   0.04982   0.05230   0.05753   0.06306
 Alpha virt. eigenvalues --    0.07011   0.07316   0.08150   0.08370   0.09010
 Alpha virt. eigenvalues --    0.09267   0.09847   0.10341   0.11138   0.11395
 Alpha virt. eigenvalues --    0.11856   0.12115   0.12359   0.12383   0.12806
 Alpha virt. eigenvalues --    0.12975   0.13468   0.13958   0.14174   0.14377
 Alpha virt. eigenvalues --    0.14636   0.14676   0.15132   0.15479   0.15763
 Alpha virt. eigenvalues --    0.16000   0.16631   0.16781   0.17076   0.17525
 Alpha virt. eigenvalues --    0.17892   0.18135   0.18488   0.18728   0.19228
 Alpha virt. eigenvalues --    0.19543   0.19908   0.20529   0.20994   0.21106
 Alpha virt. eigenvalues --    0.21758   0.21779   0.22022   0.22329   0.23325
 Alpha virt. eigenvalues --    0.23515   0.23904   0.24110   0.25187   0.26034
 Alpha virt. eigenvalues --    0.26148   0.26623   0.26922   0.27830   0.28152
 Alpha virt. eigenvalues --    0.28511   0.29328   0.30106   0.30305   0.30897
 Alpha virt. eigenvalues --    0.31851   0.32385   0.33667   0.33751   0.33901
 Alpha virt. eigenvalues --    0.34295   0.34899   0.35296   0.35618   0.36134
 Alpha virt. eigenvalues --    0.37478   0.38207   0.39095   0.39853   0.41203
 Alpha virt. eigenvalues --    0.42057   0.44029   0.45192   0.46651   0.47423
 Alpha virt. eigenvalues --    0.48268   0.50285   0.51915   0.52805   0.53934
 Alpha virt. eigenvalues --    0.54632   0.55196   0.56414   0.56967   0.58336
 Alpha virt. eigenvalues --    0.58400   0.59202   0.60761   0.61173   0.62428
 Alpha virt. eigenvalues --    0.64353   0.64995   0.65188   0.65955   0.66645
 Alpha virt. eigenvalues --    0.67561   0.68509   0.69302   0.69515   0.70060
 Alpha virt. eigenvalues --    0.70914   0.71427   0.72371   0.72885   0.73822
 Alpha virt. eigenvalues --    0.74613   0.74816   0.75434   0.76443   0.76939
 Alpha virt. eigenvalues --    0.77822   0.78236   0.79130   0.80467   0.81696
 Alpha virt. eigenvalues --    0.83329   0.85201   0.85967   0.89346   0.92048
 Alpha virt. eigenvalues --    0.95062   0.96700   0.98297   0.99797   1.01899
 Alpha virt. eigenvalues --    1.02604   1.04307   1.05274   1.07754   1.09436
 Alpha virt. eigenvalues --    1.11801   1.13380   1.14306   1.14763   1.16563
 Alpha virt. eigenvalues --    1.18046   1.20104   1.20963   1.23891   1.25888
 Alpha virt. eigenvalues --    1.27434   1.32122   1.34631   1.35812   1.37906
 Alpha virt. eigenvalues --    1.42217   1.43538   1.45159   1.46251   1.47309
 Alpha virt. eigenvalues --    1.48483   1.49087   1.49876   1.52410   1.54570
 Alpha virt. eigenvalues --    1.55354   1.56355   1.57124   1.58013   1.59056
 Alpha virt. eigenvalues --    1.59343   1.60176   1.60674   1.61712   1.62823
 Alpha virt. eigenvalues --    1.64152   1.64930   1.65171   1.65918   1.66973
 Alpha virt. eigenvalues --    1.67837   1.68266   1.69425   1.70667   1.71519
 Alpha virt. eigenvalues --    1.73264   1.74022   1.74725   1.76235   1.77044
 Alpha virt. eigenvalues --    1.78675   1.79136   1.79524   1.81189   1.82245
 Alpha virt. eigenvalues --    1.83046   1.85058   1.87859   1.88856   1.89626
 Alpha virt. eigenvalues --    1.93462   1.96937   1.97998   1.99813   2.01195
 Alpha virt. eigenvalues --    2.04740   2.05650   2.07490   2.08942   2.11127
 Alpha virt. eigenvalues --    2.13275   2.13934   2.15209   2.18114   2.18855
 Alpha virt. eigenvalues --    2.21399   2.23521   2.26040   2.28107   2.29817
 Alpha virt. eigenvalues --    2.31946   2.33225   2.34412   2.37965   2.39175
 Alpha virt. eigenvalues --    2.40676   2.41973   2.46016   2.46570   2.47365
 Alpha virt. eigenvalues --    2.48436   2.50313   2.51011   2.51377   2.52479
 Alpha virt. eigenvalues --    2.53469   2.54076   2.55228   2.55976   2.56925
 Alpha virt. eigenvalues --    2.58017   2.59738   2.61092   2.62513   2.63509
 Alpha virt. eigenvalues --    2.64948   2.66055   2.67846   2.68799   2.69584
 Alpha virt. eigenvalues --    2.71952   2.73969   2.75048   2.75934   2.77210
 Alpha virt. eigenvalues --    2.77653   2.80438   2.81990   2.83323   2.85219
 Alpha virt. eigenvalues --    2.86685   2.88463   2.91232   2.92209   2.94564
 Alpha virt. eigenvalues --    2.95903   2.97104   2.97976   2.99551   3.02256
 Alpha virt. eigenvalues --    3.02925   3.04450   3.07687   3.11955   3.15194
 Alpha virt. eigenvalues --    3.17888   3.20595   3.25832   3.32829   3.40394
 Alpha virt. eigenvalues --    3.44123   3.49224   3.52348   3.73921   3.78234
 Alpha virt. eigenvalues --    3.78838   3.80107   3.81046   3.82522   3.84181
 Alpha virt. eigenvalues --    3.85807   3.86097   3.88922   3.92396   3.97637
 Alpha virt. eigenvalues --    3.99407   4.02081   4.11124   4.19624   4.24590
 Alpha virt. eigenvalues --    4.30344   4.32218   4.40236   4.90224   4.96193
 Alpha virt. eigenvalues --    5.09948   5.34176   5.55900   6.10872  23.81878
 Alpha virt. eigenvalues --   23.83806  23.85720  23.87307  23.90485  23.92447
 Alpha virt. eigenvalues --   23.93194  23.98126  23.98970  49.85503  49.89845
  Beta  occ. eigenvalues --  -19.17495 -19.17028 -10.22241 -10.18380 -10.17280
  Beta  occ. eigenvalues --  -10.16934 -10.16720 -10.16414 -10.16203 -10.15578
  Beta  occ. eigenvalues --  -10.15520  -1.17801  -0.90272  -0.81947  -0.79696
  Beta  occ. eigenvalues --   -0.74363  -0.68311  -0.67816  -0.65781  -0.59594
  Beta  occ. eigenvalues --   -0.57757  -0.55810  -0.54410  -0.49988  -0.47647
  Beta  occ. eigenvalues --   -0.47061  -0.44699  -0.43898  -0.43609  -0.41602
  Beta  occ. eigenvalues --   -0.41105  -0.38658  -0.38417  -0.37927  -0.36711
  Beta  occ. eigenvalues --   -0.35525  -0.35197  -0.33778  -0.33365  -0.32160
  Beta  occ. eigenvalues --   -0.31898  -0.31301  -0.30718  -0.23370
  Beta virt. eigenvalues --   -0.08291  -0.01205  -0.00378   0.00175   0.00575
  Beta virt. eigenvalues --    0.01773   0.02165   0.02434   0.03131   0.03734
  Beta virt. eigenvalues --    0.03927   0.04805   0.05000   0.05250   0.05757
  Beta virt. eigenvalues --    0.06420   0.07121   0.07404   0.08194   0.08422
  Beta virt. eigenvalues --    0.09020   0.09309   0.10030   0.10381   0.11224
  Beta virt. eigenvalues --    0.11558   0.11906   0.12132   0.12423   0.12471
  Beta virt. eigenvalues --    0.12824   0.13021   0.13513   0.14045   0.14207
  Beta virt. eigenvalues --    0.14391   0.14672   0.14771   0.15233   0.15585
  Beta virt. eigenvalues --    0.15830   0.16074   0.16728   0.16852   0.17171
  Beta virt. eigenvalues --    0.17592   0.17906   0.18205   0.18561   0.18805
  Beta virt. eigenvalues --    0.19414   0.19716   0.19952   0.20577   0.21074
  Beta virt. eigenvalues --    0.21325   0.21804   0.21874   0.22107   0.22455
  Beta virt. eigenvalues --    0.23399   0.23620   0.24022   0.24148   0.25389
  Beta virt. eigenvalues --    0.26209   0.26371   0.26825   0.27067   0.27949
  Beta virt. eigenvalues --    0.28411   0.28555   0.29529   0.30260   0.30511
  Beta virt. eigenvalues --    0.31431   0.31961   0.32523   0.33709   0.33941
  Beta virt. eigenvalues --    0.34032   0.34380   0.34919   0.35458   0.35773
  Beta virt. eigenvalues --    0.36206   0.37506   0.38423   0.39163   0.39905
  Beta virt. eigenvalues --    0.41231   0.42180   0.44093   0.45249   0.46704
  Beta virt. eigenvalues --    0.47608   0.48625   0.50460   0.52039   0.52898
  Beta virt. eigenvalues --    0.53989   0.54777   0.55278   0.56577   0.57173
  Beta virt. eigenvalues --    0.58553   0.58694   0.59403   0.60875   0.61334
  Beta virt. eigenvalues --    0.63150   0.64683   0.65203   0.65550   0.66280
  Beta virt. eigenvalues --    0.66808   0.68107   0.68940   0.69410   0.70082
  Beta virt. eigenvalues --    0.70391   0.71158   0.71566   0.72567   0.73371
  Beta virt. eigenvalues --    0.74494   0.74818   0.75029   0.75672   0.76498
  Beta virt. eigenvalues --    0.77275   0.77891   0.78288   0.79160   0.80552
  Beta virt. eigenvalues --    0.81794   0.83679   0.85586   0.86292   0.90081
  Beta virt. eigenvalues --    0.92142   0.95588   0.97005   0.98444   1.00431
  Beta virt. eigenvalues --    1.01946   1.02800   1.04477   1.05705   1.07938
  Beta virt. eigenvalues --    1.09477   1.11829   1.13589   1.14363   1.14911
  Beta virt. eigenvalues --    1.16771   1.18187   1.20236   1.21305   1.24225
  Beta virt. eigenvalues --    1.26002   1.27475   1.32627   1.35102   1.35899
  Beta virt. eigenvalues --    1.40148   1.42305   1.43707   1.45185   1.46262
  Beta virt. eigenvalues --    1.47342   1.48672   1.49203   1.50401   1.53159
  Beta virt. eigenvalues --    1.54680   1.55895   1.56381   1.57223   1.58071
  Beta virt. eigenvalues --    1.59206   1.59547   1.60253   1.60909   1.61769
  Beta virt. eigenvalues --    1.62877   1.64247   1.65162   1.65384   1.66373
  Beta virt. eigenvalues --    1.67043   1.68066   1.68480   1.69676   1.71120
  Beta virt. eigenvalues --    1.72124   1.73591   1.74071   1.75057   1.76946
  Beta virt. eigenvalues --    1.77138   1.78850   1.79298   1.79652   1.81254
  Beta virt. eigenvalues --    1.82453   1.83200   1.85146   1.87930   1.89626
  Beta virt. eigenvalues --    1.89825   1.93608   1.97593   1.98304   2.00176
  Beta virt. eigenvalues --    2.01394   2.04816   2.05795   2.07572   2.09669
  Beta virt. eigenvalues --    2.11661   2.13958   2.14448   2.15244   2.18342
  Beta virt. eigenvalues --    2.18968   2.21938   2.23770   2.26326   2.28248
  Beta virt. eigenvalues --    2.29872   2.32269   2.33322   2.34847   2.38046
  Beta virt. eigenvalues --    2.39470   2.40878   2.42022   2.46094   2.46602
  Beta virt. eigenvalues --    2.47499   2.48583   2.50334   2.51202   2.51607
  Beta virt. eigenvalues --    2.52704   2.53588   2.54149   2.55280   2.56261
  Beta virt. eigenvalues --    2.57420   2.58173   2.59927   2.61179   2.62622
  Beta virt. eigenvalues --    2.63604   2.65052   2.66123   2.67925   2.68934
  Beta virt. eigenvalues --    2.69652   2.72025   2.74238   2.75182   2.76010
  Beta virt. eigenvalues --    2.77255   2.77727   2.80541   2.82065   2.83584
  Beta virt. eigenvalues --    2.85608   2.86713   2.89434   2.91723   2.92821
  Beta virt. eigenvalues --    2.95308   2.95985   2.97143   2.98185   2.99619
  Beta virt. eigenvalues --    3.02279   3.03290   3.05228   3.07739   3.13258
  Beta virt. eigenvalues --    3.15376   3.17950   3.21154   3.26159   3.32839
  Beta virt. eigenvalues --    3.40571   3.44137   3.49481   3.52507   3.75131
  Beta virt. eigenvalues --    3.78437   3.78864   3.80177   3.81138   3.82551
  Beta virt. eigenvalues --    3.84237   3.85827   3.86136   3.88973   3.92420
  Beta virt. eigenvalues --    3.97841   3.99416   4.02105   4.11283   4.19978
  Beta virt. eigenvalues --    4.25124   4.30348   4.32306   4.40340   4.90225
  Beta virt. eigenvalues --    4.96193   5.09953   5.34178   5.55900   6.10873
  Beta virt. eigenvalues --   23.82387  23.83813  23.86291  23.87877  23.90571
  Beta virt. eigenvalues --   23.92473  23.93285  23.98128  23.98971  49.85503
  Beta virt. eigenvalues --   49.89845
          Condensed to atoms (all electrons):
              1          2          3          4          5          6
     1  C    6.422018   0.373244   0.382040  -1.327565  -0.122212   1.002545
     2  H    0.373244   0.636778  -0.073007  -0.052590  -0.021154  -0.011281
     3  H    0.382040  -0.073007   0.571183   0.050953   0.021040  -0.047236
     4  C   -1.327565  -0.052590   0.050953   9.473200   0.478039  -3.479087
     5  H   -0.122212  -0.021154   0.021040   0.478039   0.630844  -0.113071
     6  C    1.002545  -0.011281  -0.047236  -3.479087  -0.113071  10.967300
     7  H    0.011276  -0.004507  -0.000478  -0.145565  -0.012070   0.478140
     8  H   -0.000947   0.006429  -0.000771   0.001009   0.009573   0.432087
     9  C   -0.236775   0.016205  -0.001139   1.117720  -0.018286  -2.429094
    10  H    0.012282  -0.000179  -0.000413  -0.056654  -0.004214  -0.017806
    11  H    0.019360   0.000902   0.003335   0.097692   0.009378  -0.194684
    12  C   -0.067858   0.003585  -0.003228  -0.150208   0.015623   0.473751
    13  H    0.004262  -0.001212   0.001038  -0.003021  -0.000255  -0.002021
    14  H   -0.001568   0.002307  -0.000783  -0.003359  -0.000001  -0.039093
    15  C    0.016901   0.001897   0.000221  -0.099753  -0.008353  -0.334808
    16  H    0.003093   0.000003   0.000086   0.000688  -0.001062  -0.000289
    17  C   -0.004183  -0.000003  -0.000136   0.016428   0.001103  -0.092138
    18  H    0.000132   0.000042  -0.000012  -0.000798  -0.000021   0.000987
    19  H   -0.000053   0.000018  -0.000012   0.000046  -0.000046  -0.005258
    20  H   -0.000308  -0.000091   0.000021   0.001191   0.000094  -0.001258
    21  C   -0.132331   0.015515  -0.050869  -0.282676  -0.035200  -0.078317
    22  H   -0.041447   0.003239  -0.003113  -0.075003   0.003040   0.054197
    23  H    0.056328  -0.005994   0.006108  -0.085410  -0.005605   0.008947
    24  C   -0.003116  -0.000227   0.000170  -0.030432   0.002414   0.133879
    25  H    0.000033  -0.000016   0.000025  -0.002044   0.000113   0.008579
    26  H    0.000196   0.000013  -0.000036   0.002591  -0.000414  -0.018290
    27  H   -0.002868   0.000073  -0.000265  -0.000978   0.000982  -0.010151
    28  O    0.071799  -0.002460   0.020855  -0.246919   0.012090   0.151840
    29  O   -0.005028   0.000332  -0.006546  -0.042861  -0.008309   0.028196
    30  H   -0.014150   0.000058   0.000240   0.025104   0.002770  -0.015671
              7          8          9         10         11         12
     1  C    0.011276  -0.000947  -0.236775   0.012282   0.019360  -0.067858
     2  H   -0.004507   0.006429   0.016205  -0.000179   0.000902   0.003585
     3  H   -0.000478  -0.000771  -0.001139  -0.000413   0.003335  -0.003228
     4  C   -0.145565   0.001009   1.117720  -0.056654   0.097692  -0.150208
     5  H   -0.012070   0.009573  -0.018286  -0.004214   0.009378   0.015623
     6  C    0.478140   0.432087  -2.429094  -0.017806  -0.194684   0.473751
     7  H    0.651807  -0.068890  -0.095208  -0.027521   0.014707  -0.004726
     8  H   -0.068890   0.517603  -0.024548   0.018857  -0.009271  -0.002094
     9  C   -0.095208  -0.024548   7.822540   0.513084   0.483710  -1.503636
    10  H   -0.027521   0.018857   0.513084   0.692941  -0.121501  -0.141493
    11  H    0.014707  -0.009271   0.483710  -0.121501   0.754758  -0.114612
    12  C   -0.004726  -0.002094  -1.503636  -0.141493  -0.114612   8.558331
    13  H   -0.001549   0.005707  -0.086205   0.022128  -0.007981   0.413911
    14  H    0.003319   0.000081  -0.051630  -0.032258   0.014403   0.432539
    15  C   -0.008277   0.002016   0.446527   0.051348   0.068186  -1.517779
    16  H   -0.001430   0.000310  -0.006138   0.013201   0.020731  -0.158844
    17  C   -0.005114   0.003441  -0.176376  -0.000995  -0.005515   0.393756
    18  H   -0.000691   0.000637   0.002703   0.001115   0.003386  -0.090989
    19  H   -0.000203   0.000332   0.001396   0.000168  -0.000068   0.041758
    20  H    0.001496  -0.000755  -0.001366  -0.000013  -0.001917  -0.008204
    21  C    0.038728  -0.047181   0.135125  -0.019598  -0.089387   0.067273
    22  H    0.002835  -0.001242  -0.011762  -0.001275  -0.001090   0.009282
    23  H    0.008932  -0.009877   0.016451  -0.003116   0.015370  -0.056809
    24  C    0.009894  -0.008421   0.029435  -0.037560  -0.017293   0.149849
    25  H    0.000574  -0.000380   0.008645  -0.001100  -0.001989   0.034236
    26  H   -0.000768   0.000430   0.016888   0.004487   0.004550  -0.095102
    27  H   -0.000106   0.000041   0.023512  -0.002447  -0.011549  -0.006941
    28  O    0.011231  -0.016638  -0.068826  -0.001058   0.013055  -0.018574
    29  O   -0.000834   0.014756   0.016452   0.003232   0.011041   0.004216
    30  H   -0.000433  -0.003260  -0.002701  -0.001163  -0.004431   0.002269
             13         14         15         16         17         18
     1  C    0.004262  -0.001568   0.016901   0.003093  -0.004183   0.000132
     2  H   -0.001212   0.002307   0.001897   0.000003  -0.000003   0.000042
     3  H    0.001038  -0.000783   0.000221   0.000086  -0.000136  -0.000012
     4  C   -0.003021  -0.003359  -0.099753   0.000688   0.016428  -0.000798
     5  H   -0.000255  -0.000001  -0.008353  -0.001062   0.001103  -0.000021
     6  C   -0.002021  -0.039093  -0.334808  -0.000289  -0.092138   0.000987
     7  H   -0.001549   0.003319  -0.008277  -0.001430  -0.005114  -0.000691
     8  H    0.005707   0.000081   0.002016   0.000310   0.003441   0.000637
     9  C   -0.086205  -0.051630   0.446527  -0.006138  -0.176376   0.002703
    10  H    0.022128  -0.032258   0.051348   0.013201  -0.000995   0.001115
    11  H   -0.007981   0.014403   0.068186   0.020731  -0.005515   0.003386
    12  C    0.413911   0.432539  -1.517779  -0.158844   0.393756  -0.090989
    13  H    0.600606  -0.075216   0.034273   0.021595   0.002130   0.002854
    14  H   -0.075216   0.665125  -0.054175  -0.014291   0.015655   0.002852
    15  C    0.034273  -0.054175   6.757903   0.587558  -0.196180   0.097442
    16  H    0.021595  -0.014291   0.587558   0.625699  -0.063586   0.016332
    17  C    0.002130   0.015655  -0.196180  -0.063586   5.714503   0.375858
    18  H    0.002854   0.002852   0.097442   0.016332   0.375858   0.562286
    19  H   -0.003394   0.001268  -0.086060  -0.012762   0.401691  -0.032995
    20  H    0.004582  -0.001021  -0.055975  -0.013699   0.409498  -0.047514
    21  C   -0.005417   0.003342  -0.009823  -0.004121   0.002607  -0.000270
    22  H   -0.001108   0.000036  -0.001127  -0.000388   0.000207   0.000020
    23  H    0.002084  -0.000614   0.000026   0.001331  -0.002023  -0.000130
    24  C   -0.084053   0.027392  -0.130070  -0.136313  -0.167586  -0.037551
    25  H   -0.005097  -0.002109  -0.100134  -0.007733  -0.011174   0.002322
    26  H    0.016169  -0.003833   0.088778   0.015069  -0.005442   0.011477
    27  H   -0.001312   0.003590  -0.067923  -0.019530   0.016715  -0.006193
    28  O    0.000798   0.000062   0.002559   0.000398  -0.000658   0.000018
    29  O   -0.000578  -0.000340   0.007224   0.000306   0.000510  -0.000046
    30  H    0.000062   0.000086  -0.002137  -0.000075  -0.000025   0.000004
             19         20         21         22         23         24
     1  C   -0.000053  -0.000308  -0.132331  -0.041447   0.056328  -0.003116
     2  H    0.000018  -0.000091   0.015515   0.003239  -0.005994  -0.000227
     3  H   -0.000012   0.000021  -0.050869  -0.003113   0.006108   0.000170
     4  C    0.000046   0.001191  -0.282676  -0.075003  -0.085410  -0.030432
     5  H   -0.000046   0.000094  -0.035200   0.003040  -0.005605   0.002414
     6  C   -0.005258  -0.001258  -0.078317   0.054197   0.008947   0.133879
     7  H   -0.000203   0.001496   0.038728   0.002835   0.008932   0.009894
     8  H    0.000332  -0.000755  -0.047181  -0.001242  -0.009877  -0.008421
     9  C    0.001396  -0.001366   0.135125  -0.011762   0.016451   0.029435
    10  H    0.000168  -0.000013  -0.019598  -0.001275  -0.003116  -0.037560
    11  H   -0.000068  -0.001917  -0.089387  -0.001090   0.015370  -0.017293
    12  C    0.041758  -0.008204   0.067273   0.009282  -0.056809   0.149849
    13  H   -0.003394   0.004582  -0.005417  -0.001108   0.002084  -0.084053
    14  H    0.001268  -0.001021   0.003342   0.000036  -0.000614   0.027392
    15  C   -0.086060  -0.055975  -0.009823  -0.001127   0.000026  -0.130070
    16  H   -0.012762  -0.013699  -0.004121  -0.000388   0.001331  -0.136313
    17  C    0.401691   0.409498   0.002607   0.000207  -0.002023  -0.167586
    18  H   -0.032995  -0.047514  -0.000270   0.000020  -0.000130  -0.037551
    19  H    0.566282  -0.019827   0.000116   0.000007  -0.000131  -0.005839
    20  H   -0.019827   0.583398   0.000141   0.000003   0.000082   0.024018
    21  C    0.000116   0.000141   6.270079   0.400294   0.321354   0.018198
    22  H    0.000007   0.000003   0.400294   0.534434  -0.032723   0.000996
    23  H   -0.000131   0.000082   0.321354  -0.032723   0.607235   0.002468
    24  C   -0.005839   0.024018   0.018198   0.000996   0.002468   5.724848
    25  H    0.000116   0.001600   0.000392   0.000034   0.000363   0.424568
    26  H    0.001106  -0.002557  -0.000377  -0.000109   0.000068   0.335007
    27  H    0.002676  -0.001658   0.010940   0.000746  -0.007977   0.418202
    28  O   -0.000022  -0.000018   0.144067  -0.077623  -0.003031  -0.000075
    29  O    0.000035  -0.000018  -0.017959   0.023431   0.017416   0.000466
    30  H   -0.000011   0.000006   0.031567  -0.001784  -0.007792   0.000209
             25         26         27         28         29         30
     1  C    0.000033   0.000196  -0.002868   0.071799  -0.005028  -0.014150
     2  H   -0.000016   0.000013   0.000073  -0.002460   0.000332   0.000058
     3  H    0.000025  -0.000036  -0.000265   0.020855  -0.006546   0.000240
     4  C   -0.002044   0.002591  -0.000978  -0.246919  -0.042861   0.025104
     5  H    0.000113  -0.000414   0.000982   0.012090  -0.008309   0.002770
     6  C    0.008579  -0.018290  -0.010151   0.151840   0.028196  -0.015671
     7  H    0.000574  -0.000768  -0.000106   0.011231  -0.000834  -0.000433
     8  H   -0.000380   0.000430   0.000041  -0.016638   0.014756  -0.003260
     9  C    0.008645   0.016888   0.023512  -0.068826   0.016452  -0.002701
    10  H   -0.001100   0.004487  -0.002447  -0.001058   0.003232  -0.001163
    11  H   -0.001989   0.004550  -0.011549   0.013055   0.011041  -0.004431
    12  C    0.034236  -0.095102  -0.006941  -0.018574   0.004216   0.002269
    13  H   -0.005097   0.016169  -0.001312   0.000798  -0.000578   0.000062
    14  H   -0.002109  -0.003833   0.003590   0.000062  -0.000340   0.000086
    15  C   -0.100134   0.088778  -0.067923   0.002559   0.007224  -0.002137
    16  H   -0.007733   0.015069  -0.019530   0.000398   0.000306  -0.000075
    17  C   -0.011174  -0.005442   0.016715  -0.000658   0.000510  -0.000025
    18  H    0.002322   0.011477  -0.006193   0.000018  -0.000046   0.000004
    19  H    0.000116   0.001106   0.002676  -0.000022   0.000035  -0.000011
    20  H    0.001600  -0.002557  -0.001658  -0.000018  -0.000018   0.000006
    21  C    0.000392  -0.000377   0.010940   0.144067  -0.017959   0.031567
    22  H    0.000034  -0.000109   0.000746  -0.077623   0.023431  -0.001784
    23  H    0.000363   0.000068  -0.007977  -0.003031   0.017416  -0.007792
    24  C    0.424568   0.335007   0.418202  -0.000075   0.000466   0.000209
    25  H    0.571450  -0.032735  -0.029339   0.000012  -0.000004   0.000040
    26  H   -0.032735   0.566602  -0.042381  -0.000098   0.000634  -0.000324
    27  H   -0.029339  -0.042381   0.593481  -0.001537  -0.004605   0.001102
    28  O    0.000012  -0.000098  -0.001537   8.195209  -0.088166  -0.016340
    29  O   -0.000004   0.000634  -0.004605  -0.088166   8.147695   0.139573
    30  H    0.000040  -0.000324   0.001102  -0.016340   0.139573   0.580315
 Mulliken atomic charges:
              1
     1  C   -0.415099
     2  H    0.112084
     3  H    0.130729
     4  C    0.820263
     5  H    0.163172
     6  C   -0.850893
     7  H    0.145431
     8  H    0.180968
     9  C    0.063299
    10  H    0.137520
    11  H    0.046727
    12  C   -0.659282
    13  H    0.146217
    14  H    0.108234
    15  C    0.509716
    16  H    0.133861
    17  C   -0.622967
    18  H    0.136742
    19  H    0.149664
    20  H    0.130073
    21  C   -0.686213
    22  H    0.216992
    23  H    0.156669
    24  C   -0.643478
    25  H    0.140750
    26  H    0.138402
    27  H    0.145697
    28  O   -0.081950
    29  O   -0.240219
    30  H    0.286892
 Sum of Mulliken atomic charges =   0.00000
 Mulliken charges with hydrogens summed into heavy atoms:
              1
     1  C   -0.172286
     4  C    0.983435
     6  C   -0.524494
     9  C    0.247546
    12  C   -0.404831
    15  C    0.643577
    17  C   -0.206488
    21  C   -0.312552
    24  C   -0.218629
    28  O   -0.081950
    29  O    0.046672
 Sum of Mulliken charges with hydrogens summed into heavy atoms =   0.00000
          Atomic-Atomic Spin Densities.
              1          2          3          4          5          6
     1  C    1.165321   0.011569  -0.013634  -0.091598  -0.002765  -0.027905
     2  H    0.011569  -0.026633   0.004634  -0.010297   0.002878   0.005291
     3  H   -0.013634   0.004634  -0.035590   0.032807   0.001057  -0.017896
     4  C   -0.091598  -0.010297   0.032807   0.347670   0.022655  -0.323506
     5  H   -0.002765   0.002878   0.001057   0.022655   0.015718  -0.031919
     6  C   -0.027905   0.005291  -0.017896  -0.323506  -0.031919   0.385248
     7  H   -0.009812  -0.002432  -0.000032   0.004363  -0.001667   0.007802
     8  H    0.008230   0.001099  -0.000521   0.001828   0.000952  -0.007753
     9  C    0.000283  -0.004339   0.001268   0.040891  -0.000047  -0.027620
    10  H    0.000189   0.000856  -0.000487   0.003368  -0.000043  -0.006665
    11  H    0.003236   0.000504   0.000942   0.020433   0.003678  -0.028367
    12  C    0.011945   0.000632   0.001402  -0.020638   0.004537   0.008882
    13  H   -0.000468   0.000092  -0.000105  -0.001372  -0.000103   0.000865
    14  H    0.000277  -0.000136   0.000129  -0.001413   0.000119   0.001485
    15  C    0.003238   0.000167   0.000057  -0.012079   0.001079  -0.000872
    16  H   -0.000151  -0.000022   0.000010  -0.000809  -0.000015   0.000408
    17  C    0.000519  -0.000010   0.000023   0.002056   0.000235  -0.000052
    18  H   -0.000003  -0.000001   0.000000   0.000089   0.000003  -0.000001
    19  H    0.000038   0.000003   0.000000  -0.000052   0.000019  -0.000337
    20  H   -0.000009   0.000000  -0.000001   0.000119  -0.000013   0.000254
    21  C   -0.001040  -0.010115  -0.005548  -0.049017  -0.003886   0.075125
    22  H    0.004426  -0.000343   0.000101  -0.001915  -0.001032  -0.000025
    23  H   -0.000243  -0.001337  -0.000483  -0.027062  -0.004736   0.029763
    24  C   -0.000905  -0.000089   0.000019  -0.003042  -0.000549   0.006923
    25  H   -0.000042  -0.000005   0.000001  -0.000282  -0.000037   0.000511
    26  H    0.000037   0.000006   0.000001   0.000018   0.000013  -0.000232
    27  H    0.000073   0.000010  -0.000022   0.000709  -0.000027  -0.000055
    28  O   -0.002848   0.000316  -0.002108  -0.006069  -0.000377   0.005560
    29  O   -0.000068   0.000080   0.000035   0.006559   0.000287  -0.006358
    30  H    0.000093   0.000014   0.000014  -0.000118   0.000001  -0.000047
              7          8          9         10         11         12
     1  C   -0.009812   0.008230   0.000283   0.000189   0.003236   0.011945
     2  H   -0.002432   0.001099  -0.004339   0.000856   0.000504   0.000632
     3  H   -0.000032  -0.000521   0.001268  -0.000487   0.000942   0.001402
     4  C    0.004363   0.001828   0.040891   0.003368   0.020433  -0.020638
     5  H   -0.001667   0.000952  -0.000047  -0.000043   0.003678   0.004537
     6  C    0.007802  -0.007753  -0.027620  -0.006665  -0.028367   0.008882
     7  H    0.000132  -0.000923   0.001311  -0.000574  -0.001070  -0.002519
     8  H   -0.000923  -0.001072  -0.002642   0.000410   0.001691   0.003672
     9  C    0.001311  -0.002642   0.050300   0.002047  -0.004418  -0.010978
    10  H   -0.000574   0.000410   0.002047  -0.000108   0.000453  -0.000601
    11  H   -0.001070   0.001691  -0.004418   0.000453   0.005791   0.006372
    12  C   -0.002519   0.003672  -0.010978  -0.000601   0.006372   0.018426
    13  H   -0.000020   0.000021   0.000307  -0.000242  -0.000454  -0.000685
    14  H   -0.000157  -0.000186  -0.001481   0.000191   0.000106   0.000245
    15  C   -0.002517   0.001448  -0.038916   0.001344   0.002621  -0.012585
    16  H    0.000032  -0.000046  -0.000465  -0.000195  -0.000310   0.000029
    17  C   -0.000115   0.000163  -0.002114  -0.000005   0.001890   0.004440
    18  H    0.000017   0.000000   0.000217   0.000003   0.000000   0.000571
    19  H   -0.000068   0.000030  -0.001528   0.000050   0.000232  -0.002104
    20  H    0.000052  -0.000005   0.000714  -0.000019  -0.000059   0.000614
    21  C    0.001210  -0.003388  -0.007475   0.000362  -0.005181  -0.001770
    22  H    0.000140  -0.000126  -0.001098   0.000026  -0.000009  -0.000713
    23  H    0.001048  -0.001505  -0.000017  -0.000937  -0.005197  -0.002449
    24  C    0.000605  -0.000764   0.008084  -0.000223  -0.002935  -0.000509
    25  H    0.000045  -0.000051   0.000579  -0.000102  -0.000295  -0.000684
    26  H   -0.000049   0.000062  -0.000421   0.000057   0.000085   0.000253
    27  H    0.000000   0.000067   0.001138   0.000088   0.000051  -0.000158
    28  O   -0.000050   0.000028  -0.000525   0.000003  -0.000002   0.000279
    29  O   -0.000060   0.000279   0.000764  -0.000013   0.000537   0.000410
    30  H   -0.000008   0.000033  -0.000049   0.000003  -0.000001  -0.000068
             13         14         15         16         17         18
     1  C   -0.000468   0.000277   0.003238  -0.000151   0.000519  -0.000003
     2  H    0.000092  -0.000136   0.000167  -0.000022  -0.000010  -0.000001
     3  H   -0.000105   0.000129   0.000057   0.000010   0.000023   0.000000
     4  C   -0.001372  -0.001413  -0.012079  -0.000809   0.002056   0.000089
     5  H   -0.000103   0.000119   0.001079  -0.000015   0.000235   0.000003
     6  C    0.000865   0.001485  -0.000872   0.000408  -0.000052  -0.000001
     7  H   -0.000020  -0.000157  -0.002517   0.000032  -0.000115   0.000017
     8  H    0.000021  -0.000186   0.001448  -0.000046   0.000163   0.000000
     9  C    0.000307  -0.001481  -0.038916  -0.000465  -0.002114   0.000217
    10  H   -0.000242   0.000191   0.001344  -0.000195  -0.000005   0.000003
    11  H   -0.000454   0.000106   0.002621  -0.000310   0.001890   0.000000
    12  C   -0.000685   0.000245  -0.012585   0.000029   0.004440   0.000571
    13  H   -0.000302   0.000348   0.001326   0.000063  -0.000367  -0.000024
    14  H    0.000348  -0.000205   0.001538   0.000083  -0.000130  -0.000041
    15  C    0.001326   0.001538   0.071805   0.000961  -0.005069  -0.001094
    16  H    0.000063   0.000083   0.000961  -0.000072   0.000243  -0.000037
    17  C   -0.000367  -0.000130  -0.005069   0.000243   0.000373   0.000178
    18  H   -0.000024  -0.000041  -0.001094  -0.000037   0.000178   0.000016
    19  H    0.000071   0.000069   0.004041  -0.000004   0.000252  -0.000138
    20  H   -0.000062  -0.000017  -0.001624   0.000008  -0.000240   0.000060
    21  C    0.000520  -0.000319  -0.001158   0.000043  -0.000397  -0.000008
    22  H   -0.000016  -0.000020  -0.000174  -0.000005   0.000000   0.000001
    23  H    0.000164  -0.000052  -0.001048   0.000131  -0.000279  -0.000004
    24  C    0.000448  -0.000425  -0.010746   0.000084  -0.000663   0.000130
    25  H    0.000027  -0.000017   0.000137   0.000117  -0.000322   0.000005
[...]
 42236,0.00129817,0.00122371,0.00084650,-0.00067804,0.00105282,0.000300
 76,0.00034797,-0.17525292,-0.00949384,-0.00001538,-0.01834571,-0.00193
 410,0.00574524,-0.01715289,-0.00504217,-0.00133500,0.00126156,0.000891
 27,-0.00128602,0.00076327,0.00063774,0.00052358,0.00071722,-0.00044000
 ,0.00001641,0.00008024,0.00002206,-0.00000345,-0.00001504,-0.00000071,
 0.00001483,-0.00002580,-0.00001528,-0.00599314,0.45551968,0.00000808,0
 .00000282,0.00002685,-0.00000089,-0.00000381,-0.00001358,-0.00000852,-
 0.00000084,-0.00001041,-0.00001524,0.00010547,-0.00004168,0.00001521,0
 .00000829,-0.00000359,0.00032379,-0.00054451,0.00007768,-0.00014050,-0
 .00000668,-0.00010618,-0.00002501,0.00002405,-0.00004566,-0.00044510,0
 .00077682,0.00003000,-0.00013569,-0.00017301,0.00011919,0.00032940,-0.
 00074413,0.00026115,-0.00209667,-0.01730647,-0.00329355,0.00037803,-0.
 00113298,0.00051353,-0.00275522,-0.00166477,-0.00107672,0.00082612,-0.
 00694431,-0.07901482,0.00023909,0.03020820,0.00392211,0.00221343,-0.01
 992197,-0.00317915,-0.00037941,-0.00104061,0.00046894,-0.00107040,0.00
 069267,0.00045589,0.00261456,-0.00199899,-0.00159393,0.00011639,-0.000
 02378,0.00017328,-0.00004068,0.00001884,-0.00001901,0.00001543,-0.0000
 3068,-0.00005372,-0.00240656,-0.00619792,0.55842681,-0.00002060,0.0000
 2101,0.00004921,0.00000477,-0.00000570,-0.00001325,-0.00000260,-0.0000
 0381,-0.00001782,-0.00000388,0.00000879,-0.00004780,0.00001140,0.00000
 246,0.00000546,0.00014196,-0.00021085,0.00002721,-0.00011713,-0.000042
 10,-0.00005056,-0.00000986,0.00001268,-0.00000653,-0.00005915,0.000339
 88,-0.00019144,-0.00000174,-0.00011215,0.00005569,0.00035393,-0.000322
 86,-0.00005059,0.00087620,-0.00000208,0.00088649,0.00004920,0.00015013
 ,0.00005011,-0.00001930,-0.00007703,-0.00009816,-0.00096864,0.00042415
 ,0.00042155,0.00009107,-0.00050220,0.00031497,0.00072247,0.00085640,0.
 00048211,-0.00003914,-0.00002175,0.00002149,0.00054029,0.00001959,-0.0
 0014535,0.00023164,-0.00010409,0.00012892,0.00004934,-0.00001734,0.000
 04780,-0.00003304,0.00000304,-0.00000149,0.00002665,-0.00002717,-0.000
 03904,-0.22976942,-0.05968376,-0.10119200,0.24925261,-0.00001560,0.000
 02064,0.00003730,0.00000502,0.00000262,-0.00000701,-0.00000252,-0.0000
 0602,-0.00001274,-0.00005806,0.00002002,-0.00004399,0.00000780,0.00000
 338,0.00000409,-0.00016960,0.00007046,0.00011594,0.00005601,0.00010809
 ,0.00004495,0.00000787,-0.00001406,-0.00000888,0.00066912,-0.00022974,
 -0.00030982,-0.00005011,0.00001305,0.00005279,-0.00016141,0.00026509,0
 .00010969,0.00193662,-0.00667126,0.00010309,0.00019010,0.00012872,-0.0
 0011400,-0.00179079,-0.00082143,-0.00098561,-0.02834316,-0.00919086,-0
 .01659093,0.00001899,0.00123144,0.00066085,-0.00153719,0.00143272,0.00
 010287,0.00017334,-0.00004656,0.00000916,0.00094696,-0.00012839,-0.000
 02320,0.00004008,0.00028549,0.00044085,-0.00000349,-0.00009066,0.00003
 139,-0.00001666,0.00002091,-0.00000203,0.00000189,0.00000083,-0.000001
 95,-0.05844351,-0.06496783,-0.03199210,0.06519609,0.07260079,-0.000005
 97,0.00000987,0.00001485,0.00000252,-0.00000177,-0.00000207,0.00000085
 ,-0.00000093,-0.00000564,-0.00001838,-0.00000786,-0.00000725,0.0000007
 4,-0.00000171,0.00000254,-0.00012252,0.00014867,0.00003244,0.00007354,
 0.00003267,0.00003463,0.00001709,0.00000343,0.00001478,0.00031784,-0.0
 0015287,0.00005565,-0.00004984,-0.00000749,0.00000922,-0.00015947,0.00
 023800,-0.00006203,0.00056095,-0.00123355,0.00045018,0.00033059,0.0001
 4182,0.00049124,-0.00043976,-0.00034437,0.00019924,-0.00238865,-0.0001
 9577,-0.00272565,0.00041426,-0.00023964,0.00044888,-0.00067846,0.00020
 065,-0.00012752,-0.00009896,-0.00005813,-0.00007277,0.00051515,-0.0003
 0811,0.00018215,0.00027021,0.00018352,0.00007261,-0.00001724,-0.000013
 27,-0.00002276,-0.00000115,0.00000113,0.00000592,0.00000116,-0.0000004
 6,0.00000437,-0.10064400,-0.03259672,-0.10262243,0.11134606,0.03677124
 ,0.10760012,-0.00000019,-0.00000514,-0.00001034,-0.00000194,0.00000429
 ,0.00000208,-0.00000263,-0.00000286,0.00000152,-0.00000869,0.00000125,
 -0.00000319,0.00000260,0.00001031,-0.00000908,0.00002298,-0.00001523,-
 0.00000484,0.00000139,-0.00000586,-0.00000269,-0.00003158,-0.00001916,
 -0.00003299,-0.00021002,0.00001999,-0.00008169,0.00006804,0.00015990,-
 0.00006467,-0.00005573,-0.00004512,0.00015889,0.00036066,-0.00051592,0
 .00117434,0.00019238,-0.00005167,-0.00023755,-0.00002555,0.00012053,-0
 .00009962,-0.00106735,-0.00060578,0.00064898,0.00066417,-0.00023194,0.
 00003004,0.00008168,0.00032122,-0.00089485,0.00021659,0.00019192,0.000
 19119,-0.00000812,0.00005696,-0.00012376,-0.00008116,-0.00016526,0.000
 14959,0.00003506,-0.00003634,0.00004665,0.00000126,0.00000865,-0.00000
 869,-0.00001107,-0.00000004,0.00000974,-0.04780337,0.00404321,-0.00761
 484,-0.00032633,0.01324009,-0.02469205,0.04648152,-0.00000388,0.000001
 07,0.00000173,0.00000025,0.00000140,0.00000138,-0.00000233,-0.00000096
 ,-0.00000115,-0.00001558,-0.00000861,-0.00001117,0.00000751,0.00000332
 ,-0.00000819,-0.00004408,0.00003285,0.00002110,0.00000182,0.00000239,0
 .00000928,-0.00003687,-0.00001107,-0.00002171,-0.00015674,-0.00004658,
 -0.00010856,0.00019156,0.00004791,-0.00014374,-0.00009909,-0.00003579,
 0.00006679,0.00099680,0.00149864,0.00155129,-0.00054678,0.00025999,-0.
 00098874,0.00022368,0.00046048,-0.00032837,0.00101380,-0.01745239,0.03
 086212,-0.00003793,-0.00661214,-0.00138105,-0.00084962,0.00150318,0.00
 120014,0.00052886,0.00004290,-0.00094675,0.00004588,-0.00003640,-0.000
 11323,-0.00020238,0.00038153,-0.00035367,0.00000413,-0.00002238,0.0000
 0691,0.00000076,0.00000428,-0.00000163,-0.00000312,0.00000282,0.000000
 93,0.00396025,-0.09823244,0.10167207,0.00058168,0.00372083,-0.00831043
 ,-0.00415284,0.11009266,0.00000810,-0.00001012,-0.00001280,-0.00000044
 ,-0.00000278,0.00000239,0.00000748,0.00000593,0.00000850,0.00002468,0.
 00001252,0.00000946,-0.00000743,-0.00001838,0.00001172,-0.00004566,0.0
 0002068,-0.00003673,0.00001481,0.00000171,0.00001250,0.00002962,0.0000
 2286,0.00003623,0.00014264,0.00010588,0.00008778,-0.00004425,-0.000117
 06,0.00003361,-0.00000809,0.00011178,-0.00015467,-0.00002088,-0.000375
 25,0.00089276,0.00043204,0.00035071,0.00026635,0.00014445,0.00004840,0
 .00023308,0.00021483,-0.00111683,0.00248525,-0.00002043,-0.00102428,0.
 00146483,-0.00005698,-0.00040672,0.00090248,-0.00043980,0.00033402,0.0
 0032188,0.00004432,0.00004092,-0.00009727,-0.00010895,0.00007429,0.000
 24867,-0.00006699,0.00008420,-0.00008359,0.00001229,-0.00001743,0.0000
 1151,0.00000534,0.00001239,-0.00000023,-0.00755697,0.10207424,-0.24770
 606,0.00007107,0.00596762,-0.01302104,0.00861370,-0.11339430,0.2693941
 2,0.00001904,-0.00001031,-0.00002200,-0.00000451,-0.00000200,0.0000040
 8,-0.00000214,0.00000289,0.00000732,0.00004525,0.00001852,0.00003118,-
 0.00000288,0.00000294,-0.00000560,0.00013543,-0.00016859,-0.00010443,-
 0.00006325,-0.00005258,-0.00003966,-0.00000820,0.00000409,-0.00000779,
 -0.00093701,-0.00039397,-0.00021440,0.00002000,0.00006004,0.00003655,-
 0.00094680,-0.00140148,-0.00035561,-0.00005836,0.00036838,-0.00020037,
 -0.00002924,-0.00005046,-0.00005898,0.00011638,0.00009291,0.00012847,0
 .00111030,-0.00056454,-0.00161548,0.00018152,0.00057603,-0.00024021,0.
 00060565,0.00068688,-0.00049385,-0.00001756,-0.00013023,-0.00000173,0.
 00047663,-0.00021361,0.00001678,0.00010769,-0.00002979,0.00030405,0.00
 000780,0.00003210,-0.00000663,0.00001463,-0.00000024,0.00000321,-0.000
 01072,-0.00000091,0.00001185,-0.20317114,0.06326038,0.11131197,-0.0209
 0506,0.00810877,0.01548232,0.00148786,-0.00142513,-0.00141092,0.221797
 77,0.00001669,-0.00002031,-0.00002929,-0.00000180,0.00000391,0.0000076
 6,0.00000690,0.00000463,0.00001458,-0.00004066,-0.00000473,0.00001712,
 -0.00001363,-0.00001725,0.00000631,-0.00033346,0.00028833,0.00009427,0
 .00017495,0.00009739,0.00007628,0.00006227,0.00000326,0.00005402,-0.00
 007777,-0.00042516,-0.00014416,-0.00006323,-0.00016554,0.00008545,-0.0
 0104283,0.00020630,-0.00012165,0.00074357,0.00112974,0.00004979,-0.000
 14504,-0.00007725,-0.00001442,0.00008638,0.00007912,0.00019455,0.02644
 240,-0.00815105,-0.01837217,0.00001102,0.00137395,0.00066290,-0.001702
 12,-0.00683801,0.00001421,-0.00018158,0.00008420,-0.00018693,-0.000089
 98,0.00010736,0.00030273,0.00173339,-0.00082177,-0.00122983,-0.0000823
 2,0.00003240,-0.00008610,0.00002883,-0.00000624,0.00001045,-0.00001652
 ,0.00004565,0.00002455,0.06203995,-0.07198421,-0.04383843,-0.00649976,
 0.00216077,0.00574531,-0.01238832,0.00438115,0.00732204,-0.06874439,0.
 07858077,0.00000346,-0.00000351,-0.00002359,0.00000040,0.00000937,0.00
 000895,0.00000050,-0.00000343,0.00000639,-0.00002828,-0.00002067,0.000
 03094,-0.00000583,0.00000714,-0.00000688,-0.00027551,0.00040263,-0.000
 00638,0.00015390,0.00011539,0.00009248,0.00000356,-0.00004284,-0.00001
 267,0.00048828,-0.00078910,0.00019507,-0.00002924,0.00020122,-0.000108
 73,-0.00071423,0.00046396,0.00032291,0.00080477,-0.00013460,-0.0001954
 2,0.00002391,-0.00006652,-0.00002131,-0.00013175,0.00004335,0.00003226
 ,0.00146315,-0.00000647,-0.00283445,-0.00043452,-0.00024846,0.00055885
 ,-0.00062879,-0.00115901,0.00070505,-0.00029698,0.00020453,0.00045631,
 0.00027978,0.00008860,0.00001644,0.00045457,-0.00011911,0.00027679,-0.
 00003659,-0.00007686,-0.00002036,0.00002125,0.00001225,-0.00000192,-0.
 00002045,0.00001951,0.00004761,0.11053651,-0.04463590,-0.12556674,-0.0
 1201127,0.00566654,0.00903482,0.02289524,-0.00926679,-0.01538836,-0.12
 256930,0.04926225,0.13238721,-0.00039485,-0.00184102,-0.00022766,0.000
 45427,0.00004149,0.00037119,0.00092036,-0.00001901,0.00059600,-0.00391
 347,0.01158412,-0.01598802,-0.00031123,0.00393010,0.00099991,0.0011073
 1,-0.00065838,-0.00172561,0.00013976,-0.00021502,0.00045670,-0.0003824
 2,0.00008045,0.00071579,-0.00054255,-0.00011637,0.00027985,0.00025696,
 -0.00020373,0.00014921,-0.00016043,0.00026852,-0.00016815,0.00010596,0
 .00004068,-0.00002273,-0.00004405,-0.00003239,0.00005753,-0.00005710,0
 .00005622,0.00002254,0.00004000,0.00003380,0.00006505,0.00001050,-0.00
 001156,0.00000495,-0.00002515,-0.00001888,-0.00004297,0.00000407,-0.00
 000569,0.00001883,-0.00004073,-0.00000410,-0.00000433,0.00000737,0.000
 00722,0.00000212,-0.11660951,0.01579983,-0.03311309,0.00677775,-0.0156
 7029,0.02240911,-0.01162226,0.01803998,-0.02755781,0.00000280,-0.00001
 287,-0.00002735,-0.00004287,-0.00000407,-0.00001355,0.00001271,0.00000
 403,0.00001609,0.00000374,0.00004547,0.00002397,0.29180811,0.00007277,
 0.00185227,0.00111044,0.00032803,0.00021371,0.00030342,0.00019551,-0.0
 0084059,-0.00007529,0.01369688,-0.02208705,0.03645903,0.00271911,-0.00
 821134,-0.00216338,-0.00169319,0.00167371,0.00106804,-0.00018067,0.000
 32353,-0.00037300,0.00026945,0.00055541,-0.00075777,-0.00013649,-0.000
 70035,-0.00008886,-0.00007231,0.00003029,-0.00010315,0.00006760,0.0003
 2649,0.00006377,0.00010910,0.00033370,0.00018358,0.00001643,-0.0000149
 3,-0.00003706,-0.00008112,0.00004401,0.00004713,-0.00002518,-0.0001209
 0,-0.00012164,-0.00000167,0.00001816,-0.00000047,0.00004751,0.00006296
 ,0.00005771,-0.00000677,-0.00000376,-0.00001836,0.00006316,-0.00000167
 ,0.00000021,-0.00002362,0.00001373,0.00000424,0.04476662,-0.09531662,0
 .04835798,-0.00085051,-0.00490138,0.01162503,-0.00204828,0.00823877,-0
 .00083964,0.00007472,-0.00001490,0.00000842,0.00003204,0.00003561,0.00
 001492,0.00000185,0.00000162,-0.00003623,-0.00002465,-0.00003639,0.000
 01641,0.01203316,0.19683851,-0.00212961,-0.00122240,-0.00015628,0.0007
 5400,-0.00016882,0.00056525,0.00123542,0.00004512,0.00064010,-0.001110
 38,0.01135801,-0.00080415,-0.00011773,0.00015385,0.00151655,-0.0001534
 1,0.00005732,0.00016031,-0.00027812,0.00009320,0.00017018,-0.00041729,
 0.00007110,0.00036380,-0.00038709,-0.00026957,0.00003859,0.00018266,-0
 .00014721,0.00012185,-0.00000118,0.00030930,-0.00023754,0.00013576,0.0
 0008204,-0.00010966,-0.00008318,-0.00002130,0.00011001,-0.00003574,0.0
 0004481,0.00005918,0.00001205,0.00001920,0.00006785,0.00002391,-0.0000
 1883,0.00002165,-0.00001736,-0.00001151,-0.00003615,-0.00000329,-0.000
 00620,0.00002153,-0.00002794,-0.00000231,0.00000004,0.00000348,0.00000
 445,0.00000161,-0.07064182,0.05157034,-0.12203255,-0.00259877,0.013029
 02,-0.02263964,-0.01004762,0.01715910,-0.02889976,0.00004019,-0.000004
 35,-0.00008332,-0.00002720,-0.00001076,0.00000677,-0.00001979,-0.00000
 718,0.00004331,-0.00000278,0.00004206,0.00001609,0.00391160,-0.1512715
 3,0.23761604,-0.00022406,0.00002259,-0.00037266,0.00012231,-0.00009334
 ,0.00009264,-0.00000508,0.00008667,0.00028200,0.00184309,0.00058323,-0
 .00125731,-0.00017364,0.00018557,0.00005753,-0.00064165,-0.00035135,0.
 00041568,0.00031846,0.00006445,-0.00029491,-0.00033185,0.00077900,-0.0
 0057208,-0.00013843,-0.00054422,-0.00076364,-0.00011858,0.00037654,-0.
 00002957,0.00023190,0.00045659,0.00043444,0.00013592,0.00010128,0.0001
 1993,0.00004305,-0.00004449,-0.00007679,-0.00008091,0.00009177,0.00003
 886,0.00003967,-0.00005443,-0.00001781,-0.00001447,0.00002866,-0.00002
 451,0.00001368,0.00002365,0.00000401,0.00000712,-0.00000693,-0.0000050
 9,-0.00000970,-0.00001126,-0.00000815,-0.00000687,0.00002798,0.0000095
 0,0.00639310,0.00137654,0.00879161,0.00392715,-0.00048547,-0.00202642,
 0.00302608,0.00059839,-0.00051573,0.00001715,-0.00004263,-0.00001518,-
 0.00005979,0.00003622,-0.00001842,0.00006791,0.00001734,-0.00006826,0.
 00000731,0.00000242,0.00011934,-0.16254890,-0.02571137,0.06756030,0.21
 103874,0.00014519,-0.00016909,-0.00008244,0.00006451,-0.00007871,0.000
 05694,-0.00006196,0.00016813,0.00029101,-0.00059628,-0.00006127,0.0002
 0833,0.00024708,0.00009000,-0.00027576,0.00122291,-0.00195472,-0.00135
 254,0.00028613,-0.00054893,0.00062971,0.00098140,-0.00219605,0.0012436
 6,0.00011531,-0.00017903,-0.00023452,0.00002863,0.00000426,0.00004211,
 -0.00025536,-0.00034046,-0.00000413,-0.00006247,-0.00015258,0.00026905
 ,0.00004184,-0.00000006,-0.00012197,0.00003541,0.00004429,-0.00006923,
 -0.00003860,-0.00008850,-0.00012165,-0.00001747,0.00004155,-0.00002160
 ,0.00004806,0.00005398,0.00005930,0.00000343,-0.00000370,-0.00002603,0
 .00004523,-0.00000373,-0.00000436,-0.00002023,0.00002298,0.00000469,-0
 .02963200,-0.00782443,0.01447947,0.00255586,-0.00311534,0.00235484,0.0
 0193908,0.00129326,-0.00178195,0.00001816,-0.00003069,0.00007989,0.000
 00499,0.00005177,-0.00001725,0.00006573,0.00001666,-0.00009347,-0.0000
 1647,-0.00005468,0.00005613,-0.04502583,-0.07187251,0.05745600,-0.0842
 6172,0.56467865,-0.00047985,0.00015766,-0.00014517,0.00015188,0.000098
 71,0.00011855,0.00014950,0.00010856,0.00001551,-0.00164657,-0.00138793
 ,0.00256856,0.00020506,-0.00064061,0.00007481,-0.00006103,0.00136054,-
 0.00006266,-0.00033122,0.00023826,0.00020410,0.00006698,-0.00039354,0.
 00010252,-0.00019307,-0.00053874,-0.00017450,-0.00004369,0.00020468,0.
 00003576,0.00031173,0.00040637,0.00009522,0.00009085,0.00027967,-0.000
 25197,-0.00007038,-0.00006141,0.00010365,-0.00010380,0.00002540,0.0000
 8667,0.00000943,-0.00001173,0.00011796,0.00001855,-0.00001238,0.000019
 51,-0.00002498,0.00000200,-0.00006042,-0.00000399,-0.00001301,0.000027
 60,-0.00003546,-0.00000706,0.00000371,0.00000299,0.00000863,0.00000517
 ,0.03707578,0.01027266,-0.02733399,-0.00394102,0.00645901,-0.00450815,
 0.00211286,-0.00169277,0.00448341,0.00005624,0.00000826,-0.00013686,-0
 .00004510,-0.00001031,0.00001362,-0.00001085,-0.00001174,0.00004110,-0
 .00000570,0.00004023,0.00006663,0.05148563,0.03235149,-0.06060850,-0.0
 9676618,-0.05478163,0.09515148,0.00010428,-0.00008953,-0.00001345,-0.0
 0000682,-0.00003605,0.00000332,0.00000024,0.00006873,0.00008465,-0.000
 42605,-0.00041153,0.00052421,0.00013689,-0.00008449,-0.00012112,0.0000
 1443,0.00013688,0.00041789,-0.00007380,0.00016841,-0.00025482,0.000164
 31,-0.00015828,-0.00050404,0.00015985,0.00031196,0.00008826,-0.0000792
 0,-0.00003401,-0.00004633,0.00009980,-0.00001468,0.00004231,-0.0000002
 4,-0.00002369,-0.00008758,0.00002250,0.00002673,0.00002608,0.00001059,
 -0.00005130,0.00000164,0.00002672,0.00008989,0.00003928,-0.00000019,-0
 .00003626,0.00000771,-0.00002594,-0.00004279,-0.00001769,-0.00000165,0
 .00001044,0.00000759,-0.00001291,0.00000815,0.00000498,0.00001365,-0.0
 0002803,-0.00000738,-0.00555526,-0.00071841,-0.00046541,0.00051336,-0.
 00056635,0.00066296,0.00052668,0.00063745,-0.00037644,-0.00004004,0.00
 001834,-0.00002224,0.00002701,-0.00003879,0.00001513,-0.00006304,-0.00
 000203,0.00007459,0.00001985,0.00002914,-0.00008985,-0.00495615,-0.043
 63812,0.01424094,-0.06287870,0.15213946,0.01202538,0.07227987,-0.00004
 114,0.00000162,0.00004921,-0.00000468,0.00007382,-0.00000838,-0.000030
 76,-0.00007378,-0.00003257,-0.00028058,0.00012535,-0.00034007,-0.00007
 991,0.00021435,0.00003101,0.00023182,0.00003057,-0.00077958,-0.0000495
 7,-0.00001883,0.00023023,0.00016217,-0.00035288,0.00045887,-0.00013919
 ,-0.00007757,0.00000221,0.00001889,0.00002726,0.00003053,0.00006849,0.
 00008379,0.00001504,0.00001720,0.00002621,-0.00006343,-0.00001298,-0.0
 0000391,0.00002335,-0.00002367,0.00000101,0.00001398,0.00001853,0.0000
 2911,0.00004089,0.00000327,-0.00001167,0.00000210,-0.00001229,-0.00001
 471,-0.00001862,0.00000230,0.00000222,0.00000819,-0.00001964,0.0000006
 6,-0.00000118,0.00000581,-0.00000580,-0.00000035,-0.00044411,-0.001737
 54,0.00134455,-0.00000437,0.00025834,-0.00037616,-0.00032295,-0.000138
 20,-0.00014450,-0.00000451,-0.00000891,-0.00003155,-0.00002029,-0.0000
 0643,-0.00000091,-0.00000441,0.00000306,0.00002267,0.00001541,0.000023
 69,0.00000400,0.00187411,-0.00644008,0.00166705,0.10674833,-0.47779105
 ,0.00754074,-0.10767128,0.48578030,0.00010392,-0.00012975,0.00005694,-
 0.00003770,-0.00003044,-0.00005927,-0.00001275,-0.00001697,-0.00002774
 ,-0.00005351,-0.00001743,-0.00053746,-0.00008115,0.00006525,0.00009410
 ,0.00012244,-0.00035797,-0.00016434,0.00008434,-0.00015774,0.00011029,
 -0.00029803,0.00032302,0.00026678,-0.00004983,0.00022043,0.00009478,0.
 00004812,-0.00002996,0.00002173,-0.00003952,-0.00001965,-0.00000737,-0
 .00005345,-0.00004768,0.00008222,0.00001298,0.00002136,-0.00002583,0.0
 0002342,-0.00002679,-0.00002944,0.00000951,0.00003121,-0.00004393,-0.0
 0000450,0.00000134,-0.00000651,-0.00000084,-0.00002175,0.00003090,0.00
 000142,0.00000898,-0.00001613,0.00001325,0.00000588,-0.00000124,0.0000
 0509,-0.00001304,-0.00000713,0.00487684,0.00312380,-0.00142984,-0.0002
 0345,0.00067219,-0.00093041,-0.00040082,0.00012423,-0.00042486,-0.0000
 5398,-0.00000897,0.00009197,0.00002950,-0.00000503,-0.00000487,-0.0000
 1048,0.00000463,-0.00000678,0.00001768,-0.00000378,-0.00006801,-0.0026
 9479,0.02421457,-0.00593314,0.02490686,-0.01824262,-0.01005331,-0.0262
 6056,-0.00968730,0.01892791\\-0.00000681,0.00000191,0.00000225,0.00000
 448,0.00000081,-0.00001001,0.00000122,-0.00000481,-0.00000437,0.000004
 84,0.,-0.00001048,-0.00000123,-0.00000166,-0.00000080,-0.00000130,0.00
 000205,0.00000191,0.00000067,-0.00000031,-0.00000380,-0.00000042,0.000
 00205,-0.00000065,0.00000010,-0.00000193,-0.00000062,0.00000016,-0.000
 00200,-0.00000096,-0.00000082,-0.00000105,0.00000120,0.00000048,0.0000
 0132,0.00000004,0.00000054,0.00000270,0.00000043,0.00000084,0.00000150
 ,-0.00000202,-0.00000011,0.00000038,0.00000090,-0.00000032,-0.00000105
 ,0.00000019,0.00000040,0.00000228,0.00000061,0.00000052,0.00000379,0.0
 0000139,0.00000007,0.00000172,0.00000149,0.00000081,0.00000234,-0.0000
 0109,0.00000230,-0.00000269,0.00000139,-0.00000187,-0.00000486,0.00000
 081,-0.00000143,-0.00000283,0.00000008,-0.00000080,0.00000035,0.000003
 40,-0.00000104,-0.00000026,0.00000420,-0.00000052,0.00000165,0.0000041
 4,-0.00000108,-0.00000105,0.00000362,-0.00000336,-0.00000458,0.0000053
 6,0.00000369,0.00000315,-0.00000022,-0.00000001,0.00000110,0.00000162\
 \\@


 MANHOOD BEGINS BY TRYING TO SHAVE FACE,
 AND ENDS BY TRYING TO SAVE FACE.
 Job cpu time:  0 days  4 hours 17 minutes 59.7 seconds.
 File lengths (MBytes):  RWF=    713 Int=      0 D2E=      0 Chk=     20 Scr=      1
 Normal termination of Gaussian 09 at Thu Feb  6 21:53:44 2014.
