 Entering Gaussian System, Link 0=g09
 Initial command:
 /usr/caen/gaussian-09revc/g09/l1.exe /scratch/avioli_flux/hetanjin/scratch/Gau-48686.inp -scrdir=/scratch/avioli_flux/hetanjin/scratch/
 Entering Link 1 = /usr/caen/gaussian-09revc/g09/l1.exe PID=     48687.
  
 Copyright (c) 1988,1990,1992,1993,1995,1998,2003,2009,2011,
            Gaussian, Inc.  All Rights Reserved.
  
 This is part of the Gaussian(R) 09 program.  It is based on
 the Gaussian(R) 03 system (copyright 2003, Gaussian, Inc.),
 the Gaussian(R) 98 system (copyright 1998, Gaussian, Inc.),
 the Gaussian(R) 94 system (copyright 1995, Gaussian, Inc.),
 the Gaussian 92(TM) system (copyright 1992, Gaussian, Inc.),
 the Gaussian 90(TM) system (copyright 1990, Gaussian, Inc.),
 the Gaussian 88(TM) system (copyright 1988, Gaussian, Inc.),
 the Gaussian 86(TM) system (copyright 1986, Carnegie Mellon
 University), and the Gaussian 82(TM) system (copyright 1983,
 Carnegie Mellon University). Gaussian is a federally registered
 trademark of Gaussian, Inc.
  
 This software contains proprietary and confidential information,
 including trade secrets, belonging to Gaussian, Inc.
  
 This software is provided under written license and may be
 used, copied, transmitted, or stored only in accord with that
 written license.
  
 The following legend is applicable only to US Government
 contracts under FAR:
  
                    RESTRICTED RIGHTS LEGEND
  
 Use, reproduction and disclosure by the US Government is
 subject to restrictions as set forth in subparagraphs (a)
 and (c) of the Commercial Computer Software - Restricted
 Rights clause in FAR 52.227-19.
  
 Gaussian, Inc.
 340 Quinnipiac St., Bldg. 40, Wallingford CT 06492
  
  
 ---------------------------------------------------------------
 Warning -- This program may not be used in any manner that
 competes with the business of Gaussian, Inc. or will provide
 assistance to any competitor of Gaussian, Inc.  The licensee
 of this program is prohibited from giving any competitor of
 Gaussian, Inc. access to this program.  By using this program,
 the user acknowledges that Gaussian, Inc. is engaged in the
 business of creating and licensing software in the field of
 computational chemistry and represents and warrants to the
 licensee that it is not a competitor of Gaussian, Inc. and that
 it will not use this program in any manner prohibited above.
 ---------------------------------------------------------------
  

 Cite this work as:
 Gaussian 09, Revision C.01,
 M. J. Frisch, G. W. Trucks, H. B. Schlegel, G. E. Scuseria, 
 M. A. Robb, J. R. Cheeseman, G. Scalmani, V. Barone, B. Mennucci, 
 G. A. Petersson, H. Nakatsuji, M. Caricato, X. Li, H. P. Hratchian, 
 A. F. Izmaylov, J. Bloino, G. Zheng, J. L. Sonnenberg, M. Hada, 
 M. Ehara, K. Toyota, R. Fukuda, J. Hasegawa, M. Ishida, T. Nakajima, 
 Y. Honda, O. Kitao, H. Nakai, T. Vreven, J. A. Montgomery, Jr., 
 J. E. Peralta, F. Ogliaro, M. Bearpark, J. J. Heyd, E. Brothers, 
 K. N. Kudin, V. N. Staroverov, T. Keith, R. Kobayashi, J. Normand, 
 K. Raghavachari, A. Rendell, J. C. Burant, S. S. Iyengar, J. Tomasi, 
 M. Cossi, N. Rega, J. M. Millam, M. Klene, J. E. Knox, J. B. Cross, 
 V. Bakken, C. Adamo, J. Jaramillo, R. Gomperts, R. E. Stratmann, 
 O. Yazyev, A. J. Austin, R. Cammi, C. Pomelli, J. W. Ochterski, 
 R. L. Martin, K. Morokuma, V. G. Zakrzewski, G. A. Voth, 
 P. Salvador, J. J. Dannenberg, S. Dapprich, A. D. Daniels, 
 O. Farkas, J. B. Foresman, J. V. Ortiz, J. Cioslowski, 
 and D. J. Fox, Gaussian, Inc., Wallingford CT, 2010.
 
 ******************************************
 Gaussian 09:  EM64L-G09RevC.01 23-Sep-2011
                 6-Feb-2014 
 ******************************************
 %mem=30GB
 %nprocshared=8
 Will use up to    8 processors via shared memory.
 %chk=C9H18OOH_1_26_e.chk
 --------------------------------------------------
 #p stable=(opt,xqc) ub3lyp/6-311++g(d,p) guess=mix
 --------------------------------------------------
 1/38=1/1;
 2/12=2,17=6,18=5,40=1/2;
 3/5=4,6=6,7=1111,11=2,16=1,25=1,30=1,74=-5,116=2/1,2,3;
 4/13=-1/1;
 5/5=2,38=5/2;
 6/7=2,8=2,9=2,10=2,28=1/1;
 8/6=1,10=90,11=11/1;
 9/8=-3,42=1,46=1/14;
 5/5=2,8=3,13=1,17=40,38=5/2,8(-2);
 6/7=2,8=2,9=2,10=2,28=1/1;
 99/5=1,9=1/99;
 Leave Link    1 at Thu Feb  6 22:59:54 2014, MaxMem= 4026531840 cpu:       1.8
 (Enter /usr/caen/gaussian-09revc/g09/l101.exe)
 -----------------------------------------------------------------
 C9H18OOH_1_26_e using B3LYP/6-311++g(d,p) to do opt and cal. freq
 -----------------------------------------------------------------
 Charge =  0 Multiplicity = 2
 Symbolic Z-Matrix:
 C                    -3.17301  -1.66954  -0.19397 
 H                    -2.87617  -2.71161  -0.33638 
 H                    -3.39945  -1.24766  -1.17651 
 H                    -4.09526  -1.66148   0.39469 
 C                    -2.05413  -0.87986   0.50238 
 H                    -1.87109  -1.34161   1.4836 
 C                    -0.73961  -0.93993  -0.29882 
 H                    -0.55589  -1.99184  -0.54858 
 H                    -0.8744   -0.42299  -1.25598 
 C                     0.49652  -0.37953   0.41648 
 H                     0.35867   0.68881   0.60351 
 C                     1.78599  -0.59801  -0.38576 
 H                     1.69941  -0.08941  -1.35556 
 H                     1.88007  -1.66787  -0.61185 
 C                     3.08034  -0.13145   0.30742 
 H                     3.12047  -0.61431   1.29398 
 C                     4.31064  -0.59099  -0.48791 
 H                     4.31678  -0.14434  -1.48839 
 H                     5.23878  -0.29712   0.0113 
 H                     4.3251   -1.67831  -0.60927 
 C                    -2.50965   0.54486   0.83292 
 H                    -3.43268   0.53048   1.41751 
 H                    -1.74913   1.12829   1.35099 
 C                     3.11823   1.38842   0.52354 
 H                     4.04969   1.68942   1.01217 
 H                     3.05973   1.91767  -0.43412 
 H                     2.29233   1.73843   1.1474 
 O                    -2.87034   1.29134  -0.37199 
 O                    -1.8763    2.03076  -0.82758 
 H                    -2.2286    2.82553  -1.2348 
 
 NAtoms=     30 NQM=        0 NQMF=       0 NMMI=     30 NMMIF=      0
                NMic=       0 NMicF=      0.
                    Isotopes and Nuclear Properties:
 (Nuclear quadrupole moments (NQMom) in fm**2, nuclear magnetic moments (NMagM)
  in nuclear magnetons)

  Atom         1           2           3           4           5           6           7           8           9          10
 IAtWgt=          12           1           1           1          12           1          12           1           1          12
 AtmWgt=  12.0000000   1.0078250   1.0078250   1.0078250  12.0000000   1.0078250  12.0000000   1.0078250   1.0078250  12.0000000
 NucSpn=           0           1           1           1           0           1           0           1           1           0
 AtZEff=   0.0000000   0.0000000   0.0000000   0.0000000   0.0000000   0.0000000   0.0000000   0.0000000   0.0000000   0.0000000
 NQMom=    0.0000000   0.0000000   0.0000000   0.0000000   0.0000000   0.0000000   0.0000000   0.0000000   0.0000000   0.0000000
 NMagM=    0.0000000   2.7928460   2.7928460   2.7928460   0.0000000   2.7928460   0.0000000   2.7928460   2.7928460   0.0000000

  Atom        11          12          13          14          15          16          17          18          19          20
 IAtWgt=           1          12           1           1          12           1          12           1           1           1
 AtmWgt=   1.0078250  12.0000000   1.0078250   1.0078250  12.0000000   1.0078250  12.0000000   1.0078250   1.0078250   1.0078250
 NucSpn=           1           0           1           1           0           1           0           1           1           1
 AtZEff=   0.0000000   0.0000000   0.0000000   0.0000000   0.0000000   0.0000000   0.0000000   0.0000000   0.0000000   0.0000000
 NQMom=    0.0000000   0.0000000   0.0000000   0.0000000   0.0000000   0.0000000   0.0000000   0.0000000   0.0000000   0.0000000
 NMagM=    2.7928460   0.0000000   2.7928460   2.7928460   0.0000000   2.7928460   0.0000000   2.7928460   2.7928460   2.7928460

  Atom        21          22          23          24          25          26          27          28          29          30
 IAtWgt=          12           1           1          12           1           1           1          16          16           1
 AtmWgt=  12.0000000   1.0078250   1.0078250  12.0000000   1.0078250   1.0078250   1.0078250  15.9949146  15.9949146   1.0078250
 NucSpn=           0           1           1           0           1           1           1           0           0           1
 AtZEff=   0.0000000   0.0000000   0.0000000   0.0000000   0.0000000   0.0000000   0.0000000   0.0000000   0.0000000   0.0000000
 NQMom=    0.0000000   0.0000000   0.0000000   0.0000000   0.0000000   0.0000000   0.0000000   0.0000000   0.0000000   0.0000000
 NMagM=    0.0000000   2.7928460   2.7928460   0.0000000   2.7928460   2.7928460   2.7928460   0.0000000   0.0000000   2.7928460
 Leave Link  101 at Thu Feb  6 22:59:55 2014, MaxMem= 4026531840 cpu:       0.4
 (Enter /usr/caen/gaussian-09revc/g09/l202.exe)
                          Input orientation:                          
 ---------------------------------------------------------------------
 Center     Atomic      Atomic             Coordinates (Angstroms)
 Number     Number       Type             X           Y           Z
 ---------------------------------------------------------------------
      1          6           0       -3.173014   -1.669538   -0.193965
      2          1           0       -2.876169   -2.711612   -0.336378
      3          1           0       -3.399449   -1.247661   -1.176513
      4          1           0       -4.095257   -1.661481    0.394692
      5          6           0       -2.054134   -0.879861    0.502380
      6          1           0       -1.871088   -1.341605    1.483598
      7          6           0       -0.739611   -0.939929   -0.298821
      8          1           0       -0.555894   -1.991835   -0.548576
      9          1           0       -0.874402   -0.422986   -1.255980
     10          6           0        0.496519   -0.379528    0.416475
     11          1           0        0.358666    0.688807    0.603514
     12          6           0        1.785988   -0.598005   -0.385763
     13          1           0        1.699407   -0.089406   -1.355555
     14          1           0        1.880069   -1.667866   -0.611848
     15          6           0        3.080336   -0.131454    0.307420
     16          1           0        3.120467   -0.614312    1.293978
     17          6           0        4.310638   -0.590989   -0.487909
     18          1           0        4.316782   -0.144337   -1.488392
     19          1           0        5.238775   -0.297116    0.011302
     20          1           0        4.325105   -1.678305   -0.609266
     21          6           0       -2.509649    0.544864    0.832923
     22          1           0       -3.432676    0.530476    1.417505
     23          1           0       -1.749127    1.128289    1.350988
     24          6           0        3.118227    1.388421    0.523541
     25          1           0        4.049695    1.689416    1.012167
     26          1           0        3.059733    1.917672   -0.434118
     27          1           0        2.292328    1.738431    1.147402
     28          8           0       -2.870339    1.291342   -0.371991
     29          8           0       -1.876303    2.030758   -0.827575
     30          1           0       -2.228595    2.825530   -1.234795
 ---------------------------------------------------------------------
                    Distance matrix (angstroms):
                    1          2          3          4          5
     1  C    0.000000
     2  H    1.092848   0.000000
     3  H    1.093002   1.767145   0.000000
     4  H    1.094127   1.767318   1.767507   0.000000
     5  C    1.536352   2.175906   2.182620   2.188312   0.000000
     6  H    2.148667   2.489863   3.069349   2.496991   1.099774
     7  C    2.542592   2.775815   2.817762   3.501708   1.540617
     8  H    2.660628   2.438603   3.005645   3.677768   2.141429
     9  H    2.822301   3.176562   2.657492   3.825244   2.166179
    10  C    3.937288   4.168984   4.297654   4.767419   2.600681
    11  H    4.320941   4.786481   4.587138   5.040326   2.879679
    12  C    5.077073   5.119129   5.285461   6.027365   3.951554
    13  H    5.252294   5.371274   5.231820   6.254032   4.262137
    14  H    5.070333   4.877201   5.326230   6.059512   4.164182
    15  C    6.459216   6.523162   6.740593   7.337420   5.192389
    16  H    6.552509   6.558687   7.000983   7.346560   5.241530
    17  C    7.566685   7.494678   7.768580   8.519625   6.447825
    18  H    7.752343   7.723767   7.800950   8.752721   6.715113
    19  H    8.525484   8.473664   8.771166   9.441008   7.332617
    20  H    7.509617   7.280147   7.757316   8.480018   6.524413
    21  C    2.529452   3.479402   2.835969   2.752119   1.531860
    22  H    2.739402   3.727860   3.145124   2.507954   2.174139
    23  H    3.498881   4.343071   3.841479   3.768507   2.201325
    24  C    7.031759   7.313174   7.233202   7.832806   5.647908
    25  H    8.056355   8.315961   8.300993   8.828931   6.642123
    26  H    7.195338   7.528264   7.231287   8.043081   5.903800
    27  H    6.579018   6.979817   6.834739   7.275109   5.115001
    28  O    2.981630   4.003117   2.715465   3.287460   2.478878
    29  O    3.971790   4.871456   3.631771   4.477759   3.205013
    30  H    4.709660   5.646809   4.238535   5.125712   4.096113
                    6          7          8          9         10
     6  H    0.000000
     7  C    2.149093   0.000000
     8  H    2.506445   1.096647   0.000000
     9  H    3.056555   1.096153   1.750187   0.000000
    10  C    2.769460   1.534182   2.153702   2.162965   0.000000
    11  H    3.141484   2.161759   3.057707   2.492841   1.093310
    12  C    4.173926   2.550122   2.730143   2.804565   1.534291
    13  H    4.730457   2.790857   3.058894   2.597245   2.161296
    14  H    4.309120   2.736896   2.458226   3.090589   2.152086
    15  C    5.231105   3.951349   4.173238   4.262530   2.597988
    16  H    5.047824   4.188465   4.336843   4.743192   2.776732
    17  C    6.531769   5.065820   5.064502   5.244311   3.925574
    18  H    6.968207   5.255012   5.295231   5.203850   4.275306
    19  H    7.335446   6.020837   6.063310   6.244420   4.760247
    20  H    6.548760   5.127663   4.891435   5.387851   4.170976
    21  C    2.095210   2.572642   3.487197   2.823877   3.172535
    22  H    2.438773   3.515745   4.301558   3.821175   4.155568
    23  H    2.476456   2.831699   3.842827   3.157195   2.861774
    24  C    5.767843   4.580437   5.106342   4.731699   3.163931
    25  H    6.668209   5.618683   6.099096   5.818373   4.154568
    26  H    6.213978   4.755965   5.326359   4.650974   3.545519
    27  H    5.189767   4.296257   4.990350   4.525058   2.871399
    28  O    3.372554   3.086086   4.020832   2.775630   3.840471
    29  O    4.088323   3.224381   4.242945   2.684809   3.603807
    30  H    4.988235   4.155936   5.145467   3.519538   4.519440
                   11         12         13         14         15
    11  H    0.000000
    12  C    2.161435   0.000000
    13  H    2.498230   1.098483   0.000000
    14  H    3.057070   1.097528   1.754216   0.000000
    15  C    2.857969   1.540620   2.161994   2.155518   0.000000
    16  H    3.130879   2.145374   3.052042   2.506140   1.099117
    17  C    4.295016   2.526725   2.796949   2.661332   1.535371
    18  H    4.553777   2.797592   2.621319   3.004503   2.180345
    19  H    5.013803   3.488543   3.799811   3.680785   2.184946
    20  H    4.775635   2.768414   3.158455   2.445060   2.186895
    21  C    2.881073   4.609104   4.786218   5.123784   5.655218
    22  H    3.880969   5.635574   5.866208   6.097232   6.640012
    23  H    2.279178   4.300399   4.549785   4.984202   5.098990
    24  C    2.847987   2.558824   2.779932   3.487554   1.535631
    25  H    3.846025   3.508685   3.780763   4.314631   2.179884
    26  H    3.143653   2.820176   2.593819   3.778793   2.179271
    27  H    2.266401   2.840054   3.155525   3.855876   2.196132
    28  O    3.426533   5.025058   4.874058   5.601859   6.156012
    29  O    2.973876   4.529677   4.190413   5.276049   5.525545
    30  H    3.826080   5.343999   4.892917   6.120441   6.269524
                   16         17         18         19         20
    16  H    0.000000
    17  C    2.142935   0.000000
    18  H    3.064903   1.095674   0.000000
    19  H    2.496618   1.094080   1.767058   0.000000
    20  H    2.491098   1.094163   1.768047   1.768497   0.000000
    21  C    5.766669   7.039252   7.243180   7.837223   7.330501
    22  H    6.653532   8.052776   8.303837   8.823626   8.316831
    23  H    5.172316   6.561876   6.817397   7.256536   6.972507
    24  C    2.145814   2.522487   2.798885   2.756837   3.484912
    25  H    2.500009   2.742000   3.112359   2.522291   3.747858
    26  H    3.066096   2.803754   2.635061   3.138775   3.816136
    27  H    2.498539   3.489128   3.819770   3.757090   4.346510
    28  O    6.503593   7.424489   7.413652   8.272112   7.787780
    29  O    6.038634   6.728089   6.597123   7.533064   7.229265
    30  H    6.843952   7.415660   7.192106   8.189340   7.976641
                   21         22         23         24         25
    21  C    0.000000
    22  H    1.092667   0.000000
    23  H    1.089573   1.787776   0.000000
    24  C    5.699149   6.667051   4.944034   0.000000
    25  H    6.660865   7.582435   5.835752   1.094069   0.000000
    26  H    5.874352   6.892329   5.189881   1.095737   1.767446
    27  H    4.958072   5.857284   4.092320   1.092620   1.763244
    28  O    1.462581   2.024212   2.062125   6.055933   7.068326
    29  O    2.316519   3.116653   2.361517   5.213775   6.214388
    30  H    3.091260   3.708339   3.129983   5.809091   6.764357
                   26         27         28         29         30
    26  H    0.000000
    27  H    1.766987   0.000000
    28  O    5.963380   5.400146   0.000000
    29  O    4.952984   4.622064   1.320000   0.000000
    30  H    5.425099   5.224499   1.873499   0.960000   0.000000
 Stoichiometry    C9H19O2(2)
 Framework group  C1[X(C9H19O2)]
 Deg. of freedom    84
 Full point group                 C1      NOp   1
 Largest Abelian subgroup         C1      NOp   1
 Largest concise Abelian subgroup C1      NOp   1
                         Standard orientation:                         
 ---------------------------------------------------------------------
 Center     Atomic      Atomic             Coordinates (Angstroms)
 Number     Number       Type             X           Y           Z
 ---------------------------------------------------------------------
      1          6           0       -3.122450   -1.742104   -0.194108
      2          1           0       -2.814406   -2.777291   -0.360877
      3          1           0       -3.356616   -1.300733   -1.166225
      4          1           0       -4.042907   -1.757713    0.397186
      5          6           0       -2.010334   -0.955803    0.516742
      6          1           0       -1.819112   -1.437487    1.486751
      7          6           0       -0.697695   -0.982976   -0.289325
      8          1           0       -0.502993   -2.026843   -0.563311
      9          1           0       -0.841209   -0.446111   -1.234170
     10          6           0        0.534286   -0.424987    0.434958
     11          1           0        0.385067    0.637235    0.646486
     12          6           0        1.823641   -0.610778   -0.375656
     13          1           0        1.728389   -0.081426   -1.333455
     14          1           0        1.928987   -1.674137   -0.626130
     15          6           0        3.114818   -0.145455    0.324234
     16          1           0        3.163387   -0.649974    1.299508
     17          6           0        4.347728   -0.573048   -0.484754
     18          1           0        4.345793   -0.103888   -1.474899
     19          1           0        5.274053   -0.280091    0.018346
     20          1           0        4.373983   -1.657116   -0.630697
     21          6           0       -2.480738    0.455882    0.880691
     22          1           0       -3.401741    0.417918    1.467406
     23          1           0       -1.725197    1.035987    1.409659
     24          6           0        3.136370    1.369486    0.574546
     25          1           0        4.065913    1.669839    1.067215
     26          1           0        3.069009    1.919524   -0.370736
     27          1           0        2.308533    1.696010    1.208491
     28          8           0       -2.853466    1.225259   -0.306018
     29          8           0       -1.869172    1.985909   -0.747581
     30          1           0       -2.231585    2.785654   -1.135735
 ---------------------------------------------------------------------
 Rotational constants (GHZ):      1.7868324      0.4329084      0.3782695
 Leave Link  202 at Thu Feb  6 22:59:55 2014, MaxMem= 4026531840 cpu:       0.3
 (Enter /usr/caen/gaussian-09revc/g09/l301.exe)
 Standard basis: 6-311++G(d,p) (5D, 7F)
 Ernie: Thresh=  0.10000D-02 Tol=  0.10000D-05 Strict=F.
 There are   375 symmetry adapted basis functions of A   symmetry.
 Integral buffers will be    131072 words long.
 Raffenetti 2 integral format.
 Two-electron integral symmetry is turned on.
   375 basis functions,   567 primitive gaussians,   386 cartesian basis functions
    45 alpha electrons       44 beta electrons
       nuclear repulsion energy       647.5104561760 Hartrees.
 IExCor=  402 DFT=T Ex+Corr=B3LYP ExCW=0 ScaHFX=  0.200000
 ScaDFX=  0.800000  0.720000  1.000000  0.810000 ScalE2=  1.000000  1.000000
 IRadAn=      0 IRanWt=     -1 IRanGd=            0 ICorTp=0
 NAtoms=   30 NActive=   30 NUniq=   30 SFac= 1.00D+00 NAtFMM=   60 NAOKFM=F Big=F
 Leave Link  301 at Thu Feb  6 22:59:55 2014, MaxMem= 4026531840 cpu:       0.6
 (Enter /usr/caen/gaussian-09revc/g09/l302.exe)
 NPDir=0 NMtPBC=     1 NCelOv=     1 NCel=       1 NClECP=     1 NCelD=      1
         NCelK=      1 NCelE2=     1 NClLst=     1 CellRange=     0.0.
 One-electron integrals computed using PRISM.
 NBasis=   375 RedAO= T  NBF=   375
 NBsUse=   375 1.00D-06 NBFU=   375
 Precomputing XC quadrature grid using
 IXCGrd= 2 IRadAn=           0 IRanWt=          -1 IRanGd=           0 AccXCQ= 0.00D+00.
 NRdTot=    1961 NPtTot=      250122 NUsed=      264252 NTot=      264284
 NSgBfM=   386   386   386   386   386 NAtAll=    30    30.
 Leave Link  302 at Thu Feb  6 22:59:56 2014, MaxMem= 4026531840 cpu:       7.8
 (Enter /usr/caen/gaussian-09revc/g09/l303.exe)
 DipDrv:  MaxL=1.
 Leave Link  303 at Thu Feb  6 22:59:57 2014, MaxMem= 4026531840 cpu:       1.5
 (Enter /usr/caen/gaussian-09revc/g09/l401.exe)
 Harris functional with IExCor=  402 diagonalized for initial guess.
 ExpMin= 3.60D-02 ExpMax= 8.59D+03 ExpMxC= 1.30D+03 IAcc=3 IRadAn=         5 AccDes= 0.00D+00
 HarFok:  IExCor=  402 AccDes= 0.00D+00 IRadAn=         5 IDoV= 1
 ScaDFX=  1.000000  1.000000  1.000000  1.000000
 FoFCou: FMM=F IPFlag=           0 FMFlag=      100000 FMFlg1=           0
         NFxFlg=           0 DoJE=T BraDBF=F KetDBF=T FulRan=T
         Omega=  0.000000  0.000000  1.000000  0.000000  0.000000 ICntrl=     500 IOpCl=  0
         NMat0=    1 NMatS0=    1 NMatT0=    0 NMatD0=    1 NMtDS0=    0 NMtDT0=    0
         I1Cent=           4 NGrid=           0.
 Petite list used in FoFCou.
 Harris En= -504.872577089638    
 Mixing orbitals, IMix= 1 IMixAn=  0 NRI=1 NE=   45 Coef=  7.07106781D-01  7.07106781D-01
 Mixing orbitals, IMix= 1 IMixAn=  0 NRI=1 NE=   44 Coef= -7.07106781D-01  7.07106781D-01
 Initial guess orbital symmetries:
 Alpha Orbitals:
       Occupied  (A) (A) (A) (A) (A) (A) (A) (A) (A) (A) (A) (A)
                 (A) (A) (A) (A) (A) (A) (A) (A) (A) (A) (A) (A)
                 (A) (A) (A) (A) (A) (A) (A) (A) (A) (A) (A) (A)
                 (A) (A) (A) (A) (A) (A) (A) (A) (A)
       Virtual   (A) (A) (A) (A) (A) (A) (A) (A) (A) (A) (A) (A)
                 (A) (A) (A) (A) (A) (A) (A) (A) (A) (A) (A) (A)
                 (A) (A) (A) (A) (A) (A) (A) (A) (A) (A) (A) (A)
                 (A) (A) (A) (A) (A) (A) (A) (A) (A) (A) (A) (A)
                 (A) (A) (A) (A) (A) (A) (A) (A) (A) (A) (A) (A)
                 (A) (A) (A) (A) (A) (A) (A) (A) (A) (A) (A) (A)
                 (A) (A) (A) (A) (A) (A) (A) (A) (A) (A) (A) (A)
                 (A) (A) (A) (A) (A) (A) (A) (A) (A) (A) (A) (A)
                 (A) (A) (A) (A) (A) (A) (A) (A) (A) (A) (A) (A)
                 (A) (A) (A) (A) (A) (A) (A) (A) (A) (A) (A) (A)
                 (A) (A) (A) (A) (A) (A) (A) (A) (A) (A) (A) (A)
                 (A) (A) (A) (A) (A) (A) (A) (A) (A) (A) (A) (A)
                 (A) (A) (A) (A) (A) (A) (A) (A) (A) (A) (A) (A)
                 (A) (A) (A) (A) (A) (A) (A) (A) (A) (A) (A) (A)
                 (A) (A) (A) (A) (A) (A) (A) (A) (A) (A) (A) (A)
                 (A) (A) (A) (A) (A) (A) (A) (A) (A) (A) (A) (A)
                 (A) (A) (A) (A) (A) (A) (A) (A) (A) (A) (A) (A)
                 (A) (A) (A) (A) (A) (A) (A) (A) (A) (A) (A) (A)
                 (A) (A) (A) (A) (A) (A) (A) (A) (A) (A) (A) (A)
                 (A) (A) (A) (A) (A) (A) (A) (A) (A) (A) (A) (A)
                 (A) (A) (A) (A) (A) (A) (A) (A) (A) (A) (A) (A)
                 (A) (A) (A) (A) (A) (A) (A) (A) (A) (A) (A) (A)
                 (A) (A) (A) (A) (A) (A) (A) (A) (A) (A) (A) (A)
                 (A) (A) (A) (A) (A) (A) (A) (A) (A) (A) (A) (A)
                 (A) (A) (A) (A) (A) (A) (A) (A) (A) (A) (A) (A)
                 (A) (A) (A) (A) (A) (A) (A) (A) (A) (A) (A) (A)
                 (A) (A) (A) (A) (A) (A) (A) (A) (A) (A) (A) (A)
                 (A) (A) (A) (A) (A) (A)
 Beta  Orbitals:
       Occupied  (A) (A) (A) (A) (A) (A) (A) (A) (A) (A) (A) (A)
                 (A) (A) (A) (A) (A) (A) (A) (A) (A) (A) (A) (A)
                 (A) (A) (A) (A) (A) (A) (A) (A) (A) (A) (A) (A)
                 (A) (A) (A) (A) (A) (A) (A) (A)
       Virtual   (A) (A) (A) (A) (A) (A) (A) (A) (A) (A) (A) (A)
                 (A) (A) (A) (A) (A) (A) (A) (A) (A) (A) (A) (A)
                 (A) (A) (A) (A) (A) (A) (A) (A) (A) (A) (A) (A)
                 (A) (A) (A) (A) (A) (A) (A) (A) (A) (A) (A) (A)
                 (A) (A) (A) (A) (A) (A) (A) (A) (A) (A) (A) (A)
                 (A) (A) (A) (A) (A) (A) (A) (A) (A) (A) (A) (A)
                 (A) (A) (A) (A) (A) (A) (A) (A) (A) (A) (A) (A)
                 (A) (A) (A) (A) (A) (A) (A) (A) (A) (A) (A) (A)
                 (A) (A) (A) (A) (A) (A) (A) (A) (A) (A) (A) (A)
                 (A) (A) (A) (A) (A) (A) (A) (A) (A) (A) (A) (A)
                 (A) (A) (A) (A) (A) (A) (A) (A) (A) (A) (A) (A)
                 (A) (A) (A) (A) (A) (A) (A) (A) (A) (A) (A) (A)
                 (A) (A) (A) (A) (A) (A) (A) (A) (A) (A) (A) (A)
                 (A) (A) (A) (A) (A) (A) (A) (A) (A) (A) (A) (A)
                 (A) (A) (A) (A) (A) (A) (A) (A) (A) (A) (A) (A)
                 (A) (A) (A) (A) (A) (A) (A) (A) (A) (A) (A) (A)
                 (A) (A) (A) (A) (A) (A) (A) (A) (A) (A) (A) (A)
                 (A) (A) (A) (A) (A) (A) (A) (A) (A) (A) (A) (A)
                 (A) (A) (A) (A) (A) (A) (A) (A) (A) (A) (A) (A)
                 (A) (A) (A) (A) (A) (A) (A) (A) (A) (A) (A) (A)
                 (A) (A) (A) (A) (A) (A) (A) (A) (A) (A) (A) (A)
                 (A) (A) (A) (A) (A) (A) (A) (A) (A) (A) (A) (A)
                 (A) (A) (A) (A) (A) (A) (A) (A) (A) (A) (A) (A)
                 (A) (A) (A) (A) (A) (A) (A) (A) (A) (A) (A) (A)
                 (A) (A) (A) (A) (A) (A) (A) (A) (A) (A) (A) (A)
                 (A) (A) (A) (A) (A) (A) (A) (A) (A) (A) (A) (A)
                 (A) (A) (A) (A) (A) (A) (A) (A) (A) (A) (A) (A)
                 (A) (A) (A) (A) (A) (A) (A)
 The electronic state of the initial guess is 2-A.
 Initial guess <Sx>= 0.0000 <Sy>= 0.0000 <Sz>= 0.5000 <S**2>= 1.0000 S= 0.6180
 Leave Link  401 at Thu Feb  6 23:00:00 2014, MaxMem= 4026531840 cpu:      28.1
 (Enter /usr/caen/gaussian-09revc/g09/l502.exe)
 UHF open shell SCF:
 Requested convergence on RMS density matrix=1.00D-08 within 128 cycles.
 Requested convergence on MAX density matrix=1.00D-06.
 Requested convergence on             energy=1.00D-06.
 No special actions if energy rises.
 Using DIIS extrapolation, IDIIS=  1040.
 Integral symmetry usage will be decided dynamically.
       263969 words used for storage of precomputed grid.
 IEnd=      735103 IEndB=      735103 NGot=  4026531840 MDV=  4025962760
 LenX=  4025962760 LenY=  4025813323
 Fock matrices will be formed incrementally for  20 cycles.

 Cycle   1  Pass 1  IDiag  1:
 FoFCou: FMM=F IPFlag=           0 FMFlag=      100000 FMFlg1=           0
         NFxFlg=           0 DoJE=F BraDBF=F KetDBF=F FulRan=T
         Omega=  0.000000  0.000000  1.000000  0.000000  0.000000 ICntrl=       0 IOpCl=  1
         NMat0=    1 NMatS0=    1 NMatT0=    0 NMatD0=    1 NMtDS0=    0 NMtDT0=    0
         I1Cent=           0 NGrid=           0.
 Symmetry not used in FoFCou.
 E= -504.313368300049    
 DIIS: error= 4.08D-02 at cycle   1 NSaved=   1.
 NSaved= 1 IEnMin= 1 EnMin= -504.313368300049     IErMin= 1 ErrMin= 4.08D-02
 ErrMax= 4.08D-02 EMaxC= 1.00D-01 BMatC= 1.52D+00 BMatP= 1.52D+00
 IDIUse=3 WtCom= 5.92D-01 WtEn= 4.08D-01
 Coeff-Com:  0.100D+01
 Coeff-En:   0.100D+01
 Coeff:      0.100D+01
 Gap=     0.046 Goal=   None    Shift=    0.000
 Gap=     0.039 Goal=   None    Shift=    0.000
 GapD=    0.039 DampG=0.250 DampE=0.500 DampFc=0.2500 IDamp=-1.
 Damping current iteration by 2.50D-01
 RMSDP=2.07D-02 MaxDP=2.64D+00              OVMax= 5.12D-01

 Cycle   2  Pass 1  IDiag  1:
 RMSU=  2.48D-03    CP:  8.77D-01
 E= -504.472058052980     Delta-E=       -0.158689752931 Rises=F Damp=T
 DIIS: error= 1.76D-02 at cycle   2 NSaved=   2.
 NSaved= 2 IEnMin= 2 EnMin= -504.472058052980     IErMin= 2 ErrMin= 1.76D-02
 ErrMax= 1.76D-02 EMaxC= 1.00D-01 BMatC= 3.83D-01 BMatP= 1.52D+00
 IDIUse=3 WtCom= 8.24D-01 WtEn= 1.76D-01
 Coeff-Com: -0.773D+00 0.177D+01
 Coeff-En:   0.000D+00 0.100D+01
 Coeff:     -0.637D+00 0.164D+01
 Gap=     0.123 Goal=   None    Shift=    0.000
 Gap=     0.172 Goal=   None    Shift=    0.000
 RMSDP=1.64D-02 MaxDP=2.03D+00 DE=-1.59D-01 OVMax= 3.82D-01

 Cycle   3  Pass 1  IDiag  1:
 RMSU=  8.33D-03    CP:  4.94D-01  2.03D+00
 E= -504.811757368901     Delta-E=       -0.339699315921 Rises=F Damp=F
 DIIS: error= 4.72D-03 at cycle   3 NSaved=   3.
 NSaved= 3 IEnMin= 3 EnMin= -504.811757368901     IErMin= 3 ErrMin= 4.72D-03
 ErrMax= 4.72D-03 EMaxC= 1.00D-01 BMatC= 3.11D-02 BMatP= 3.83D-01
 IDIUse=3 WtCom= 9.53D-01 WtEn= 4.72D-02
 Coeff-Com: -0.172D+00 0.449D+00 0.723D+00
 Coeff-En:   0.000D+00 0.000D+00 0.100D+01
 Coeff:     -0.164D+00 0.428D+00 0.736D+00
 Gap=     0.178 Goal=   None    Shift=    0.000
 Gap=     0.148 Goal=   None    Shift=    0.000
 RMSDP=1.39D-03 MaxDP=1.33D-01 DE=-3.40D-01 OVMax= 8.08D-02

 Cycle   4  Pass 1  IDiag  1:
 RMSU=  8.89D-04    CP:  4.82D-01  1.91D+00  9.80D-01
 E= -504.819596485096     Delta-E=       -0.007839116195 Rises=F Damp=F
 DIIS: error= 2.51D-03 at cycle   4 NSaved=   4.
 NSaved= 4 IEnMin= 4 EnMin= -504.819596485096     IErMin= 4 ErrMin= 2.51D-03
 ErrMax= 2.51D-03 EMaxC= 1.00D-01 BMatC= 1.37D-02 BMatP= 3.11D-02
 IDIUse=3 WtCom= 9.75D-01 WtEn= 2.51D-02
 Coeff-Com: -0.104D-01 0.519D-01 0.392D+00 0.566D+00
 Coeff-En:   0.000D+00 0.000D+00 0.000D+00 0.100D+01
 Coeff:     -0.101D-01 0.506D-01 0.382D+00 0.577D+00
 Gap=     0.201 Goal=   None    Shift=    0.000
 Gap=     0.149 Goal=   None    Shift=    0.000
 RMSDP=8.46D-04 MaxDP=1.02D-01 DE=-7.84D-03 OVMax= 3.15D-02

 Cycle   5  Pass 1  IDiag  1:
 RMSU=  5.48D-04    CP:  4.69D-01  1.84D+00  9.65D-01  9.62D-01
 E= -504.822747576101     Delta-E=       -0.003151091005 Rises=F Damp=F
 DIIS: error= 1.03D-03 at cycle   5 NSaved=   5.
 NSaved= 5 IEnMin= 5 EnMin= -504.822747576101     IErMin= 5 ErrMin= 1.03D-03
 ErrMax= 1.03D-03 EMaxC= 1.00D-01 BMatC= 1.75D-03 BMatP= 1.37D-02
 IDIUse=3 WtCom= 9.90D-01 WtEn= 1.03D-02
 Coeff-Com:  0.943D-02-0.238D-01 0.599D-03 0.245D+00 0.769D+00
 Coeff-En:   0.000D+00 0.000D+00 0.000D+00 0.000D+00 0.100D+01
 Coeff:      0.934D-02-0.236D-01 0.593D-03 0.242D+00 0.772D+00
 Gap=     0.208 Goal=   None    Shift=    0.000
 Gap=     0.160 Goal=   None    Shift=    0.000
 RMSDP=3.31D-04 MaxDP=5.10D-02 DE=-3.15D-03 OVMax= 1.40D-02

 Cycle   6  Pass 1  IDiag  1:
 RMSU=  1.91D-04    CP:  4.75D-01  1.83D+00  9.72D-01  1.04D+00  9.93D-01
 E= -504.823147759717     Delta-E=       -0.000400183616 Rises=F Damp=F
 DIIS: error= 4.23D-04 at cycle   6 NSaved=   6.
 NSaved= 6 IEnMin= 6 EnMin= -504.823147759717     IErMin= 6 ErrMin= 4.23D-04
 ErrMax= 4.23D-04 EMaxC= 1.00D-01 BMatC= 4.58D-04 BMatP= 1.75D-03
 IDIUse=3 WtCom= 9.96D-01 WtEn= 4.23D-03
 Coeff-Com:  0.373D-02-0.133D-01-0.532D-01 0.505D-01 0.415D+00 0.598D+00
 Coeff-En:   0.000D+00 0.000D+00 0.000D+00 0.000D+00 0.000D+00 0.100D+01
 Coeff:      0.372D-02-0.132D-01-0.530D-01 0.503D-01 0.413D+00 0.599D+00
 Gap=     0.207 Goal=   None    Shift=    0.000
 Gap=     0.163 Goal=   None    Shift=    0.000
 RMSDP=1.30D-04 MaxDP=1.94D-02 DE=-4.00D-04 OVMax= 3.18D-03

 Cycle   7  Pass 1  IDiag  1:
 RMSU=  7.99D-05    CP:  4.73D-01  1.83D+00  9.69D-01  1.05D+00  1.04D+00
                    CP:  8.45D-01
 E= -504.823245118339     Delta-E=       -0.000097358621 Rises=F Damp=F
 DIIS: error= 1.50D-04 at cycle   7 NSaved=   7.
 NSaved= 7 IEnMin= 7 EnMin= -504.823245118339     IErMin= 7 ErrMin= 1.50D-04
 ErrMax= 1.50D-04 EMaxC= 1.00D-01 BMatC= 4.61D-05 BMatP= 4.58D-04
 IDIUse=3 WtCom= 9.98D-01 WtEn= 1.50D-03
 Coeff-Com: -0.221D-02 0.272D-02-0.178D-01-0.174D-01 0.306D-01 0.253D+00
 Coeff-Com:  0.751D+00
 Coeff-En:   0.000D+00 0.000D+00 0.000D+00 0.000D+00 0.000D+00 0.000D+00
 Coeff-En:   0.100D+01
 Coeff:     -0.221D-02 0.272D-02-0.177D-01-0.174D-01 0.306D-01 0.253D+00
 Coeff:      0.751D+00
 Gap=     0.207 Goal=   None    Shift=    0.000
 Gap=     0.163 Goal=   None    Shift=    0.000
 RMSDP=5.40D-05 MaxDP=7.59D-03 DE=-9.74D-05 OVMax= 1.39D-03

 Cycle   8  Pass 1  IDiag  1:
 RMSU=  3.88D-05    CP:  4.73D-01  1.83D+00  9.69D-01  1.07D+00  1.05D+00
                    CP:  8.98D-01  1.07D+00
 E= -504.823255724055     Delta-E=       -0.000010605716 Rises=F Damp=F
 DIIS: error= 3.72D-05 at cycle   8 NSaved=   8.
 NSaved= 8 IEnMin= 8 EnMin= -504.823255724055     IErMin= 8 ErrMin= 3.72D-05
 ErrMax= 3.72D-05 EMaxC= 1.00D-01 BMatC= 4.04D-06 BMatP= 4.61D-05
 IDIUse=1 WtCom= 1.00D+00 WtEn= 0.00D+00
 Coeff-Com: -0.130D-02 0.273D-02-0.864D-03-0.109D-01-0.253D-01 0.386D-01
 Coeff-Com:  0.271D+00 0.726D+00
 Coeff:     -0.130D-02 0.273D-02-0.864D-03-0.109D-01-0.253D-01 0.386D-01
 Coeff:      0.271D+00 0.726D+00
 Gap=     0.207 Goal=   None    Shift=    0.000
 Gap=     0.163 Goal=   None    Shift=    0.000
 RMSDP=2.24D-05 MaxDP=4.15D-03 DE=-1.06D-05 OVMax= 2.59D-04

 Cycle   9  Pass 1  IDiag  1:
 RMSU=  1.16D-05    CP:  4.73D-01  1.83D+00  9.70D-01  1.06D+00  1.04D+00
                    CP:  8.89D-01  1.21D+00  9.75D-01
 E= -504.823256729629     Delta-E=       -0.000001005574 Rises=F Damp=F
 DIIS: error= 1.87D-05 at cycle   9 NSaved=   9.
 NSaved= 9 IEnMin= 9 EnMin= -504.823256729629     IErMin= 9 ErrMin= 1.87D-05
 ErrMax= 1.87D-05 EMaxC= 1.00D-01 BMatC= 1.03D-06 BMatP= 4.04D-06
 IDIUse=1 WtCom= 1.00D+00 WtEn= 0.00D+00
 Coeff-Com:  0.289D-03-0.355D-03 0.239D-02-0.167D-02-0.147D-01-0.269D-01
 Coeff-Com: -0.170D-01 0.336D+00 0.722D+00
 Coeff:      0.289D-03-0.355D-03 0.239D-02-0.167D-02-0.147D-01-0.269D-01
 Coeff:     -0.170D-01 0.336D+00 0.722D+00
 Gap=     0.207 Goal=   None    Shift=    0.000
 Gap=     0.163 Goal=   None    Shift=    0.000
 RMSDP=6.25D-06 MaxDP=9.78D-04 DE=-1.01D-06 OVMax= 1.39D-04

 Cycle  10  Pass 1  IDiag  1:
 RMSU=  2.59D-06    CP:  4.73D-01  1.84D+00  9.70D-01  1.06D+00  1.04D+00
                    CP:  8.96D-01  1.20D+00  1.06D+00  1.03D+00
 E= -504.823256999363     Delta-E=       -0.000000269734 Rises=F Damp=F
 DIIS: error= 5.47D-06 at cycle  10 NSaved=  10.
 NSaved=10 IEnMin=10 EnMin= -504.823256999363     IErMin=10 ErrMin= 5.47D-06
 ErrMax= 5.47D-06 EMaxC= 1.00D-01 BMatC= 1.17D-07 BMatP= 1.03D-06
 IDIUse=1 WtCom= 1.00D+00 WtEn= 0.00D+00
 Coeff-Com:  0.135D-03-0.136D-03 0.951D-03 0.258D-03-0.312D-02-0.144D-01
 Coeff-Com: -0.386D-01 0.281D-01 0.293D+00 0.734D+00
 Coeff:      0.135D-03-0.136D-03 0.951D-03 0.258D-03-0.312D-02-0.144D-01
 Coeff:     -0.386D-01 0.281D-01 0.293D+00 0.734D+00
 Gap=     0.207 Goal=   None    Shift=    0.000
 Gap=     0.163 Goal=   None    Shift=    0.000
 RMSDP=2.32D-06 MaxDP=2.05D-04 DE=-2.70D-07 OVMax= 4.62D-05

 Cycle  11  Pass 1  IDiag  1:
 RMSU=  1.32D-06    CP:  4.73D-01  1.83D+00  9.70D-01  1.06D+00  1.04D+00
                    CP:  8.95D-01  1.20D+00  1.06D+00  9.87D-01  8.45D-01
 E= -504.823257030583     Delta-E=       -0.000000031220 Rises=F Damp=F
 DIIS: error= 2.34D-06 at cycle  11 NSaved=  11.
 NSaved=11 IEnMin=11 EnMin= -504.823257030583     IErMin=11 ErrMin= 2.34D-06
 ErrMax= 2.34D-06 EMaxC= 1.00D-01 BMatC= 1.09D-08 BMatP= 1.17D-07
 IDIUse=1 WtCom= 1.00D+00 WtEn= 0.00D+00
 Coeff-Com:  0.578D-04-0.103D-03 0.785D-04 0.478D-03 0.855D-03-0.254D-02
 Coeff-Com: -0.138D-01-0.355D-01 0.257D-01 0.254D+00 0.770D+00
 Coeff:      0.578D-04-0.103D-03 0.785D-04 0.478D-03 0.855D-03-0.254D-02
 Coeff:     -0.138D-01-0.355D-01 0.257D-01 0.254D+00 0.770D+00
 Gap=     0.207 Goal=   None    Shift=    0.000
 Gap=     0.163 Goal=   None    Shift=    0.000
 RMSDP=9.07D-07 MaxDP=9.30D-05 DE=-3.12D-08 OVMax= 1.76D-05

 Cycle  12  Pass 1  IDiag  1:
 RMSU=  3.83D-07    CP:  4.73D-01  1.83D+00  9.70D-01  1.06D+00  1.04D+00
                    CP:  8.95D-01  1.20D+00  1.06D+00  1.01D+00  9.21D-01
                    CP:  7.89D-01
 E= -504.823257033836     Delta-E=       -0.000000003253 Rises=F Damp=F
 DIIS: error= 8.33D-07 at cycle  12 NSaved=  12.
 NSaved=12 IEnMin=12 EnMin= -504.823257033836     IErMin=12 ErrMin= 8.33D-07
 ErrMax= 8.33D-07 EMaxC= 1.00D-01 BMatC= 1.81D-09 BMatP= 1.09D-08
 IDIUse=1 WtCom= 1.00D+00 WtEn= 0.00D+00
 Coeff-Com: -0.710D-05 0.957D-05-0.576D-04 0.154D-03 0.606D-03 0.448D-03
 Coeff-Com: -0.149D-02-0.171D-01-0.178D-01 0.318D-01 0.321D+00 0.683D+00
 Coeff:     -0.710D-05 0.957D-05-0.576D-04 0.154D-03 0.606D-03 0.448D-03
 Coeff:     -0.149D-02-0.171D-01-0.178D-01 0.318D-01 0.321D+00 0.683D+00
 Gap=     0.207 Goal=   None    Shift=    0.000
 Gap=     0.163 Goal=   None    Shift=    0.000
 RMSDP=4.77D-07 MaxDP=7.15D-05 DE=-3.25D-09 OVMax= 5.30D-06

 Cycle  13  Pass 1  IDiag  1:
 RMSU=  1.76D-07    CP:  4.73D-01  1.83D+00  9.70D-01  1.06D+00  1.04D+00
                    CP:  8.95D-01  1.20D+00  1.06D+00  1.01D+00  8.88D-01
                    CP:  8.56D-01  7.94D-01
 E= -504.823257034287     Delta-E=       -0.000000000451 Rises=F Damp=F
 DIIS: error= 3.38D-07 at cycle  13 NSaved=  13.
 NSaved=13 IEnMin=13 EnMin= -504.823257034287     IErMin=13 ErrMin= 3.38D-07
 ErrMax= 3.38D-07 EMaxC= 1.00D-01 BMatC= 3.18D-10 BMatP= 1.81D-09
 IDIUse=1 WtCom= 1.00D+00 WtEn= 0.00D+00
 Coeff-Com: -0.703D-05 0.871D-05-0.314D-04-0.562D-05 0.110D-03 0.502D-03
 Coeff-Com:  0.134D-02-0.795D-03-0.111D-01-0.280D-01-0.866D-02 0.308D+00
 Coeff-Com:  0.738D+00
 Coeff:     -0.703D-05 0.871D-05-0.314D-04-0.562D-05 0.110D-03 0.502D-03
 Coeff:      0.134D-02-0.795D-03-0.111D-01-0.280D-01-0.866D-02 0.308D+00
 Coeff:      0.738D+00
 Gap=     0.207 Goal=   None    Shift=    0.000
 Gap=     0.163 Goal=   None    Shift=    0.000
 RMSDP=2.02D-07 MaxDP=4.18D-05 DE=-4.51D-10 OVMax= 2.62D-06

 Cycle  14  Pass 1  IDiag  1:
 RMSU=  6.10D-08    CP:  4.73D-01  1.83D+00  9.70D-01  1.06D+00  1.04D+00
                    CP:  8.95D-01  1.20D+00  1.06D+00  1.00D+00  8.93D-01
                    CP:  8.59D-01  8.90D-01  8.34D-01
 E= -504.823257034375     Delta-E=       -0.000000000088 Rises=F Damp=F
 DIIS: error= 1.14D-07 at cycle  14 NSaved=  14.
 NSaved=14 IEnMin=14 EnMin= -504.823257034375     IErMin=14 ErrMin= 1.14D-07
 ErrMax= 1.14D-07 EMaxC= 1.00D-01 BMatC= 1.99D-11 BMatP= 3.18D-10
 IDIUse=1 WtCom= 1.00D+00 WtEn= 0.00D+00
 Coeff-Com: -0.103D-05 0.843D-06-0.228D-05-0.186D-04-0.345D-04 0.973D-04
 Coeff-Com:  0.575D-03 0.185D-02-0.123D-02-0.112D-01-0.435D-01 0.118D-01
 Coeff-Com:  0.214D+00 0.828D+00
 Coeff:     -0.103D-05 0.843D-06-0.228D-05-0.186D-04-0.345D-04 0.973D-04
 Coeff:      0.575D-03 0.185D-02-0.123D-02-0.112D-01-0.435D-01 0.118D-01
 Coeff:      0.214D+00 0.828D+00
 Gap=     0.207 Goal=   None    Shift=    0.000
 Gap=     0.163 Goal=   None    Shift=    0.000
 RMSDP=5.41D-08 MaxDP=1.04D-05 DE=-8.82D-11 OVMax= 1.12D-06

 Cycle  15  Pass 1  IDiag  1:
 RMSU=  2.21D-08    CP:  4.73D-01  1.83D+00  9.70D-01  1.06D+00  1.04D+00
                    CP:  8.95D-01  1.20D+00  1.06D+00  1.00D+00  8.90D-01
                    CP:  8.50D-01  8.88D-01  8.70D-01  7.71D-01
 E= -504.823257034385     Delta-E=       -0.000000000010 Rises=F Damp=F
 DIIS: error= 2.86D-08 at cycle  15 NSaved=  15.
 NSaved=15 IEnMin=15 EnMin= -504.823257034385     IErMin=15 ErrMin= 2.86D-08
 ErrMax= 2.86D-08 EMaxC= 1.00D-01 BMatC= 2.97D-12 BMatP= 1.99D-11
 IDIUse=1 WtCom= 1.00D+00 WtEn= 0.00D+00
 Coeff-Com: -0.385D-06 0.869D-06 0.667D-06-0.725D-05-0.217D-04 0.627D-05
 Coeff-Com:  0.128D-03 0.637D-03 0.376D-03-0.159D-02-0.135D-01-0.229D-01
 Coeff-Com:  0.723D-02 0.292D+00 0.738D+00
 Coeff:     -0.385D-06 0.869D-06 0.667D-06-0.725D-05-0.217D-04 0.627D-05
 Coeff:      0.128D-03 0.637D-03 0.376D-03-0.159D-02-0.135D-01-0.229D-01
 Coeff:      0.723D-02 0.292D+00 0.738D+00
 Gap=     0.207 Goal=   None    Shift=    0.000
 Gap=     0.163 Goal=   None    Shift=    0.000
 RMSDP=1.44D-08 MaxDP=2.16D-06 DE=-1.00D-11 OVMax= 2.47D-07

 Cycle  16  Pass 1  IDiag  1:
 RMSU=  6.02D-09    CP:  4.73D-01  1.83D+00  9.70D-01  1.06D+00  1.04D+00
                    CP:  8.95D-01  1.20D+00  1.06D+00  1.00D+00  8.90D-01
                    CP:  8.49D-01  8.91D-01  8.78D-01  7.94D-01  8.95D-01
 E= -504.823257034376     Delta-E=        0.000000000009 Rises=F Damp=F
 DIIS: error= 1.84D-08 at cycle  16 NSaved=  16.
 NSaved=16 IEnMin=15 EnMin= -504.823257034385     IErMin=16 ErrMin= 1.84D-08
 ErrMax= 1.84D-08 EMaxC= 1.00D-01 BMatC= 7.29D-13 BMatP= 2.97D-12
 IDIUse=1 WtCom= 1.00D+00 WtEn= 0.00D+00
 Coeff-Com:  0.223D-06-0.186D-06 0.991D-06-0.239D-07-0.607D-05-0.205D-04
 Coeff-Com: -0.529D-04 0.161D-05 0.496D-03 0.128D-02 0.114D-02-0.140D-01
 Coeff-Com: -0.356D-01-0.721D-02 0.358D+00 0.696D+00
 Coeff:      0.223D-06-0.186D-06 0.991D-06-0.239D-07-0.607D-05-0.205D-04
 Coeff:     -0.529D-04 0.161D-05 0.496D-03 0.128D-02 0.114D-02-0.140D-01
 Coeff:     -0.356D-01-0.721D-02 0.358D+00 0.696D+00
 Gap=     0.207 Goal=   None    Shift=    0.000
 Gap=     0.163 Goal=   None    Shift=    0.000
 RMSDP=7.54D-09 MaxDP=9.97D-07 DE= 8.64D-12 OVMax= 9.00D-08

 SCF Done:  E(UB3LYP) =  -504.823257034     A.U. after   16 cycles
             Convg  =    0.7545D-08             -V/T =  2.0041
 <Sx>= 0.0000 <Sy>= 0.0000 <Sz>= 0.5000 <S**2>= 0.7530 S= 0.5015
 <L.S>= 0.000000000000E+00
 KE= 5.027452221969D+02 PE=-2.471383916558D+03 EE= 8.163049811504D+02
 Annihilation of the first spin contaminant:
 S**2 before annihilation     0.7530,   after     0.7500
 Leave Link  502 at Thu Feb  6 23:04:00 2014, MaxMem= 4026531840 cpu:    1911.0
 (Enter /usr/caen/gaussian-09revc/g09/l601.exe)
 Copying SCF densities to generalized density rwf, IOpCl= 1 IROHF=0.

 **********************************************************************

            Population analysis using the SCF density.

 **********************************************************************

 Orbital symmetries:
 Alpha Orbitals:
       Occupied  (A) (A) (A) (A) (A) (A) (A) (A) (A) (A) (A) (A)
                 (A) (A) (A) (A) (A) (A) (A) (A) (A) (A) (A) (A)
                 (A) (A) (A) (A) (A) (A) (A) (A) (A) (A) (A) (A)
                 (A) (A) (A) (A) (A) (A) (A) (A) (A)
       Virtual   (A) (A) (A) (A) (A) (A) (A) (A) (A) (A) (A) (A)
                 (A) (A) (A) (A) (A) (A) (A) (A) (A) (A) (A) (A)
                 (A) (A) (A) (A) (A) (A) (A) (A) (A) (A) (A) (A)
                 (A) (A) (A) (A) (A) (A) (A) (A) (A) (A) (A) (A)
                 (A) (A) (A) (A) (A) (A) (A) (A) (A) (A) (A) (A)
                 (A) (A) (A) (A) (A) (A) (A) (A) (A) (A) (A) (A)
                 (A) (A) (A) (A) (A) (A) (A) (A) (A) (A) (A) (A)
                 (A) (A) (A) (A) (A) (A) (A) (A) (A) (A) (A) (A)
                 (A) (A) (A) (A) (A) (A) (A) (A) (A) (A) (A) (A)
                 (A) (A) (A) (A) (A) (A) (A) (A) (A) (A) (A) (A)
                 (A) (A) (A) (A) (A) (A) (A) (A) (A) (A) (A) (A)
                 (A) (A) (A) (A) (A) (A) (A) (A) (A) (A) (A) (A)
                 (A) (A) (A) (A) (A) (A) (A) (A) (A) (A) (A) (A)
                 (A) (A) (A) (A) (A) (A) (A) (A) (A) (A) (A) (A)
                 (A) (A) (A) (A) (A) (A) (A) (A) (A) (A) (A) (A)
                 (A) (A) (A) (A) (A) (A) (A) (A) (A) (A) (A) (A)
                 (A) (A) (A) (A) (A) (A) (A) (A) (A) (A) (A) (A)
                 (A) (A) (A) (A) (A) (A) (A) (A) (A) (A) (A) (A)
                 (A) (A) (A) (A) (A) (A) (A) (A) (A) (A) (A) (A)
                 (A) (A) (A) (A) (A) (A) (A) (A) (A) (A) (A) (A)
                 (A) (A) (A) (A) (A) (A) (A) (A) (A) (A) (A) (A)
                 (A) (A) (A) (A) (A) (A) (A) (A) (A) (A) (A) (A)
                 (A) (A) (A) (A) (A) (A) (A) (A) (A) (A) (A) (A)
                 (A) (A) (A) (A) (A) (A) (A) (A) (A) (A) (A) (A)
                 (A) (A) (A) (A) (A) (A) (A) (A) (A) (A) (A) (A)
                 (A) (A) (A) (A) (A) (A) (A) (A) (A) (A) (A) (A)
                 (A) (A) (A) (A) (A) (A) (A) (A) (A) (A) (A) (A)
                 (A) (A) (A) (A) (A) (A)
 Beta  Orbitals:
       Occupied  (A) (A) (A) (A) (A) (A) (A) (A) (A) (A) (A) (A)
                 (A) (A) (A) (A) (A) (A) (A) (A) (A) (A) (A) (A)
                 (A) (A) (A) (A) (A) (A) (A) (A) (A) (A) (A) (A)
                 (A) (A) (A) (A) (A) (A) (A) (A)
       Virtual   (A) (A) (A) (A) (A) (A) (A) (A) (A) (A) (A) (A)
                 (A) (A) (A) (A) (A) (A) (A) (A) (A) (A) (A) (A)
                 (A) (A) (A) (A) (A) (A) (A) (A) (A) (A) (A) (A)
                 (A) (A) (A) (A) (A) (A) (A) (A) (A) (A) (A) (A)
                 (A) (A) (A) (A) (A) (A) (A) (A) (A) (A) (A) (A)
                 (A) (A) (A) (A) (A) (A) (A) (A) (A) (A) (A) (A)
                 (A) (A) (A) (A) (A) (A) (A) (A) (A) (A) (A) (A)
                 (A) (A) (A) (A) (A) (A) (A) (A) (A) (A) (A) (A)
                 (A) (A) (A) (A) (A) (A) (A) (A) (A) (A) (A) (A)
                 (A) (A) (A) (A) (A) (A) (A) (A) (A) (A) (A) (A)
                 (A) (A) (A) (A) (A) (A) (A) (A) (A) (A) (A) (A)
                 (A) (A) (A) (A) (A) (A) (A) (A) (A) (A) (A) (A)
                 (A) (A) (A) (A) (A) (A) (A) (A) (A) (A) (A) (A)
                 (A) (A) (A) (A) (A) (A) (A) (A) (A) (A) (A) (A)
                 (A) (A) (A) (A) (A) (A) (A) (A) (A) (A) (A) (A)
                 (A) (A) (A) (A) (A) (A) (A) (A) (A) (A) (A) (A)
                 (A) (A) (A) (A) (A) (A) (A) (A) (A) (A) (A) (A)
                 (A) (A) (A) (A) (A) (A) (A) (A) (A) (A) (A) (A)
                 (A) (A) (A) (A) (A) (A) (A) (A) (A) (A) (A) (A)
                 (A) (A) (A) (A) (A) (A) (A) (A) (A) (A) (A) (A)
                 (A) (A) (A) (A) (A) (A) (A) (A) (A) (A) (A) (A)
                 (A) (A) (A) (A) (A) (A) (A) (A) (A) (A) (A) (A)
                 (A) (A) (A) (A) (A) (A) (A) (A) (A) (A) (A) (A)
                 (A) (A) (A) (A) (A) (A) (A) (A) (A) (A) (A) (A)
                 (A) (A) (A) (A) (A) (A) (A) (A) (A) (A) (A) (A)
                 (A) (A) (A) (A) (A) (A) (A) (A) (A) (A) (A) (A)
                 (A) (A) (A) (A) (A) (A) (A) (A) (A) (A) (A) (A)
                 (A) (A) (A) (A) (A) (A) (A)
 The electronic state is 2-A.
 Alpha  occ. eigenvalues --  -19.17528 -19.17012 -10.22154 -10.18216 -10.17766
 Alpha  occ. eigenvalues --  -10.17109 -10.16587 -10.16492 -10.15656 -10.15452
 Alpha  occ. eigenvalues --  -10.15368  -1.17811  -0.90285  -0.81781  -0.79839
 Alpha  occ. eigenvalues --   -0.74472  -0.68247  -0.68165  -0.67555  -0.60056
 Alpha  occ. eigenvalues --   -0.57302  -0.55365  -0.54438  -0.50023  -0.47388
 Alpha  occ. eigenvalues --   -0.47049  -0.44831  -0.43749  -0.42918  -0.41598
 Alpha  occ. eigenvalues --   -0.41143  -0.40200  -0.38455  -0.38278  -0.36741
 Alpha  occ. eigenvalues --   -0.36187  -0.35371  -0.34728  -0.33665  -0.32459
 Alpha  occ. eigenvalues --   -0.31897  -0.30841  -0.30627  -0.23361  -0.21901
 Alpha virt. eigenvalues --   -0.01200  -0.00142   0.00018   0.00770   0.01834
 Alpha virt. eigenvalues --    0.02140   0.02327   0.03217   0.03796   0.04063
 Alpha virt. eigenvalues --    0.04361   0.04942   0.05393   0.05862   0.06118
 Alpha virt. eigenvalues --    0.06975   0.07223   0.08214   0.08759   0.09103
 Alpha virt. eigenvalues --    0.09407   0.09474   0.10488   0.10799   0.11343
 Alpha virt. eigenvalues --    0.11584   0.12260   0.12306   0.12623   0.13080
 Alpha virt. eigenvalues --    0.13290   0.13492   0.13829   0.14274   0.14373
 Alpha virt. eigenvalues --    0.14533   0.14943   0.14999   0.15377   0.15786
 Alpha virt. eigenvalues --    0.15986   0.16200   0.17047   0.17186   0.17760
 Alpha virt. eigenvalues --    0.18041   0.18301   0.18543   0.18818   0.19073
 Alpha virt. eigenvalues --    0.19446   0.20026   0.20169   0.21205   0.21563
 Alpha virt. eigenvalues --    0.21817   0.22000   0.22239   0.22438   0.22779
 Alpha virt. eigenvalues --    0.23602   0.24135   0.24473   0.25222   0.26363
 Alpha virt. eigenvalues --    0.26552   0.26795   0.27273   0.27872   0.28248
 Alpha virt. eigenvalues --    0.28517   0.28957   0.29847   0.30493   0.31048
 Alpha virt. eigenvalues --    0.32366   0.32460   0.33234   0.33719   0.34034
 Alpha virt. eigenvalues --    0.34735   0.35131   0.35333   0.35890   0.36124
 Alpha virt. eigenvalues --    0.37809   0.38516   0.39013   0.40112   0.41272
 Alpha virt. eigenvalues --    0.42690   0.44075   0.45235   0.46468   0.47207
 Alpha virt. eigenvalues --    0.48042   0.50189   0.51440   0.52771   0.54042
 Alpha virt. eigenvalues --    0.54437   0.55186   0.56039   0.56610   0.58079
 Alpha virt. eigenvalues --    0.59396   0.59679   0.60604   0.61494   0.61984
 Alpha virt. eigenvalues --    0.64249   0.64620   0.65465   0.65881   0.66453
 Alpha virt. eigenvalues --    0.67354   0.68341   0.69012   0.69500   0.70387
 Alpha virt. eigenvalues --    0.70480   0.71730   0.71906   0.73245   0.73635
 Alpha virt. eigenvalues --    0.74551   0.75076   0.75476   0.76659   0.77175
 Alpha virt. eigenvalues --    0.77594   0.78952   0.78999   0.79504   0.80372
 Alpha virt. eigenvalues --    0.81760   0.85017   0.86786   0.89612   0.92308
 Alpha virt. eigenvalues --    0.94426   0.96530   0.97953   0.98857   1.01822
 Alpha virt. eigenvalues --    1.02589   1.04421   1.06297   1.08323   1.09631
 Alpha virt. eigenvalues --    1.10517   1.13143   1.14252   1.14815   1.16332
 Alpha virt. eigenvalues --    1.18093   1.19894   1.20472   1.21660   1.27869
 Alpha virt. eigenvalues --    1.29892   1.32323   1.33838   1.38764   1.39452
 Alpha virt. eigenvalues --    1.42010   1.45016   1.45738   1.46530   1.47308
 Alpha virt. eigenvalues --    1.48017   1.48707   1.49102   1.51591   1.53537
 Alpha virt. eigenvalues --    1.55086   1.55798   1.56777   1.57694   1.58738
 Alpha virt. eigenvalues --    1.59435   1.59922   1.60274   1.60849   1.62372
 Alpha virt. eigenvalues --    1.62483   1.64257   1.64504   1.65250   1.66571
 Alpha virt. eigenvalues --    1.66837   1.68141   1.68829   1.69867   1.71247
 Alpha virt. eigenvalues --    1.71849   1.73448   1.75021   1.76097   1.77737
 Alpha virt. eigenvalues --    1.78001   1.78287   1.80098   1.81718   1.82143
 Alpha virt. eigenvalues --    1.83136   1.85639   1.87052   1.88821   1.91616
 Alpha virt. eigenvalues --    1.94086   1.96028   1.98273   1.99776   2.03024
 Alpha virt. eigenvalues --    2.03457   2.05244   2.07867   2.08510   2.10993
 Alpha virt. eigenvalues --    2.13660   2.14488   2.14916   2.16265   2.17698
 Alpha virt. eigenvalues --    2.20627   2.22895   2.24206   2.26724   2.28549
 Alpha virt. eigenvalues --    2.30649   2.33448   2.36381   2.38275   2.39687
 Alpha virt. eigenvalues --    2.42034   2.44654   2.46640   2.47678   2.48187
 Alpha virt. eigenvalues --    2.48602   2.49989   2.50672   2.52035   2.52677
 Alpha virt. eigenvalues --    2.53547   2.54129   2.54703   2.55515   2.57463
 Alpha virt. eigenvalues --    2.58590   2.60433   2.60616   2.61316   2.62206
 Alpha virt. eigenvalues --    2.64479   2.65454   2.68430   2.68977   2.69237
 Alpha virt. eigenvalues --    2.71044   2.72633   2.74900   2.75370   2.76780
 Alpha virt. eigenvalues --    2.78039   2.78926   2.80197   2.82158   2.84025
 Alpha virt. eigenvalues --    2.85130   2.86405   2.90821   2.92360   2.93694
 Alpha virt. eigenvalues --    2.96334   2.96961   2.98378   3.00294   3.01143
 Alpha virt. eigenvalues --    3.02882   3.04196   3.09305   3.11103   3.15400
 Alpha virt. eigenvalues --    3.19115   3.20814   3.25474   3.32963   3.39882
 Alpha virt. eigenvalues --    3.43724   3.49714   3.52279   3.76874   3.78891
 Alpha virt. eigenvalues --    3.79328   3.80292   3.81439   3.82459   3.83288
 Alpha virt. eigenvalues --    3.85481   3.86203   3.87810   3.92340   3.96155
 Alpha virt. eigenvalues --    3.98749   4.01821   4.06812   4.17997   4.29593
 Alpha virt. eigenvalues --    4.30396   4.30452   4.38842   4.90462   4.96087
 Alpha virt. eigenvalues --    5.10143   5.33957   5.55611   6.10785  23.78863
 Alpha virt. eigenvalues --   23.83412  23.84214  23.87139  23.90641  23.93015
 Alpha virt. eigenvalues --   23.98117  23.98825  23.99156  49.85410  49.90018
  Beta  occ. eigenvalues --  -19.17528 -19.17010 -10.22155 -10.17745 -10.17089
  Beta  occ. eigenvalues --  -10.16790 -10.16611 -10.16519 -10.15656 -10.15452
  Beta  occ. eigenvalues --  -10.15369  -1.17809  -0.90280  -0.81254  -0.79775
  Beta  occ. eigenvalues --   -0.73510  -0.68239  -0.68161  -0.67403  -0.59401
  Beta  occ. eigenvalues --   -0.56844  -0.55022  -0.53874  -0.49933  -0.47213
  Beta  occ. eigenvalues --   -0.46742  -0.44760  -0.43591  -0.42632  -0.41429
  Beta  occ. eigenvalues --   -0.40416  -0.40029  -0.38334  -0.38027  -0.36620
  Beta  occ. eigenvalues --   -0.35946  -0.35236  -0.34550  -0.33528  -0.32307
  Beta  occ. eigenvalues --   -0.31585  -0.30724  -0.30376  -0.23348
  Beta virt. eigenvalues --   -0.07064  -0.01160  -0.00087   0.00042   0.00799
  Beta virt. eigenvalues --    0.01870   0.02163   0.02359   0.03205   0.03824
  Beta virt. eigenvalues --    0.04134   0.04482   0.04956   0.05407   0.05873
  Beta virt. eigenvalues --    0.06168   0.06968   0.07280   0.08297   0.08779
  Beta virt. eigenvalues --    0.09171   0.09484   0.09575   0.10496   0.10790
  Beta virt. eigenvalues --    0.11373   0.11583   0.12269   0.12350   0.12672
  Beta virt. eigenvalues --    0.13160   0.13326   0.13518   0.14024   0.14379
  Beta virt. eigenvalues --    0.14411   0.14544   0.14975   0.15028   0.15638
  Beta virt. eigenvalues --    0.15854   0.15992   0.16254   0.17081   0.17248
  Beta virt. eigenvalues --    0.17854   0.18064   0.18376   0.18604   0.18939
  Beta virt. eigenvalues --    0.19182   0.19487   0.20138   0.20238   0.21266
  Beta virt. eigenvalues --    0.21746   0.21933   0.22256   0.22335   0.22517
  Beta virt. eigenvalues --    0.22930   0.23641   0.24199   0.24678   0.25301
  Beta virt. eigenvalues --    0.26451   0.26688   0.26878   0.27605   0.27985
  Beta virt. eigenvalues --    0.28765   0.28818   0.29440   0.29934   0.30808
  Beta virt. eigenvalues --    0.31195   0.32474   0.32552   0.33304   0.33748
  Beta virt. eigenvalues --    0.34256   0.34886   0.35342   0.35545   0.36031
  Beta virt. eigenvalues --    0.36313   0.37897   0.38604   0.39062   0.40205
  Beta virt. eigenvalues --    0.41359   0.42884   0.44284   0.45265   0.46563
  Beta virt. eigenvalues --    0.47283   0.48143   0.50303   0.51709   0.52798
  Beta virt. eigenvalues --    0.54263   0.54546   0.55430   0.56233   0.56783
  Beta virt. eigenvalues --    0.58135   0.59499   0.60160   0.60741   0.62090
  Beta virt. eigenvalues --    0.62380   0.64481   0.64856   0.65589   0.66148
  Beta virt. eigenvalues --    0.66688   0.67790   0.68377   0.69261   0.69891
  Beta virt. eigenvalues --    0.70612   0.70849   0.71975   0.72130   0.73650
  Beta virt. eigenvalues --    0.73725   0.74748   0.75381   0.75538   0.76900
  Beta virt. eigenvalues --    0.77306   0.77678   0.79042   0.79401   0.80045
  Beta virt. eigenvalues --    0.81113   0.82025   0.85091   0.87067   0.89695
  Beta virt. eigenvalues --    0.92432   0.95946   0.96843   0.98142   0.99105
  Beta virt. eigenvalues --    1.01864   1.02796   1.04521   1.06349   1.08560
  Beta virt. eigenvalues --    1.09754   1.10868   1.13263   1.14426   1.14937
  Beta virt. eigenvalues --    1.16625   1.18383   1.20094   1.20613   1.21855
  Beta virt. eigenvalues --    1.28155   1.30307   1.32531   1.33928   1.39677
  Beta virt. eigenvalues --    1.40140   1.42074   1.45256   1.45887   1.46601
  Beta virt. eigenvalues --    1.48081   1.48354   1.48810   1.49228   1.51631
  Beta virt. eigenvalues --    1.54626   1.55317   1.56064   1.57291   1.57987
  Beta virt. eigenvalues --    1.58884   1.59518   1.60040   1.60372   1.61025
  Beta virt. eigenvalues --    1.62469   1.62600   1.64345   1.64678   1.65495
  Beta virt. eigenvalues --    1.67132   1.67465   1.68410   1.69024   1.70066
  Beta virt. eigenvalues --    1.71452   1.72235   1.73569   1.75196   1.76277
  Beta virt. eigenvalues --    1.77873   1.78162   1.78374   1.80324   1.81940
  Beta virt. eigenvalues --    1.82416   1.83465   1.85876   1.87404   1.89035
  Beta virt. eigenvalues --    1.91893   1.94314   1.96338   1.99061   2.00159
  Beta virt. eigenvalues --    2.03445   2.04802   2.05369   2.07972   2.08674
  Beta virt. eigenvalues --    2.11161   2.13748   2.14619   2.15047   2.16711
  Beta virt. eigenvalues --    2.18040   2.21131   2.23377   2.24710   2.27195
  Beta virt. eigenvalues --    2.28635   2.30934   2.33695   2.36637   2.38512
  Beta virt. eigenvalues --    2.39897   2.42306   2.45167   2.46703   2.47739
  Beta virt. eigenvalues --    2.48355   2.48692   2.50142   2.50700   2.52186
  Beta virt. eigenvalues --    2.52822   2.53785   2.54216   2.54812   2.55610
  Beta virt. eigenvalues --    2.57545   2.58894   2.60661   2.60921   2.61623
  Beta virt. eigenvalues --    2.62308   2.64651   2.65603   2.68601   2.69292
  Beta virt. eigenvalues --    2.69328   2.71159   2.72841   2.75120   2.75539
  Beta virt. eigenvalues --    2.76985   2.78264   2.79055   2.80401   2.82230
  Beta virt. eigenvalues --    2.84175   2.85739   2.86935   2.91471   2.92650
  Beta virt. eigenvalues --    2.94311   2.96514   2.97134   2.98785   3.00445
  Beta virt. eigenvalues --    3.01380   3.03196   3.04667   3.09819   3.11237
  Beta virt. eigenvalues --    3.16081   3.19815   3.21369   3.25739   3.32977
  Beta virt. eigenvalues --    3.40670   3.43762   3.49774   3.52624   3.77000
  Beta virt. eigenvalues --    3.78897   3.79398   3.80318   3.81529   3.82469
  Beta virt. eigenvalues --    3.83295   3.85541   3.86245   3.88065   3.92355
  Beta virt. eigenvalues --    3.96641   3.98877   4.01904   4.07399   4.18502
  Beta virt. eigenvalues --    4.29607   4.30415   4.30592   4.39354   4.90465
  Beta virt. eigenvalues --    4.96089   5.10148   5.33959   5.55613   6.10786
  Beta virt. eigenvalues --   23.80403  23.83418  23.84326  23.87152  23.90623
  Beta virt. eigenvalues --   23.92999  23.98125  23.98827  23.99156  49.85411
  Beta virt. eigenvalues --   49.90019
          Condensed to atoms (all electrons):
              1          2          3          4          5          6
     1  C    6.166822   0.412356   0.408547   0.389776  -0.820205  -0.101875
     2  H    0.412356   0.593769  -0.044112  -0.025385  -0.118564  -0.016089
     3  H    0.408547  -0.044112   0.521137  -0.032458   0.082570   0.014552
     4  H    0.389776  -0.025385  -0.032458   0.577644  -0.000748  -0.009651
     5  C   -0.820205  -0.118564   0.082570  -0.000748   9.418260   0.498670
     6  H   -0.101875  -0.016089   0.014552  -0.009651   0.498670   0.603020
     7  C    0.665340   0.040531  -0.109758   0.021941  -3.175428  -0.139169
     8  H    0.008936   0.001961   0.002177   0.000050  -0.162604  -0.016310
     9  H    0.007405   0.002794   0.007538  -0.002890   0.017893   0.016761
    10  C   -0.161705  -0.000648   0.013963  -0.006913   0.524798   0.020399
    11  H    0.027201   0.001074   0.003317   0.001189   0.030268  -0.004038
    12  C   -0.109456   0.001748  -0.005256  -0.001783  -0.225309   0.003958
    13  H    0.004728  -0.001044   0.000569   0.000158   0.011596   0.000118
    14  H   -0.002466   0.001878  -0.000759  -0.000087  -0.021138  -0.001869
    15  C    0.007662   0.002178   0.000329  -0.000728  -0.127747  -0.004337
    16  H    0.002312   0.000073   0.000022  -0.000017   0.000625  -0.001645
    17  C   -0.004582  -0.000116  -0.000061  -0.000009   0.008771   0.000804
    18  H    0.000096   0.000051  -0.000004  -0.000007  -0.000990  -0.000004
    19  H   -0.000127   0.000010  -0.000008  -0.000003  -0.000113  -0.000028
    20  H   -0.000113  -0.000097   0.000027   0.000011   0.001615   0.000155
    21  C   -0.334308   0.021225  -0.043946  -0.049521  -0.338733  -0.038355
    22  H   -0.051690   0.004020  -0.000697  -0.002021  -0.126069   0.003097
    23  H    0.054277  -0.004352   0.003151   0.000185  -0.032668  -0.006633
    24  C   -0.002238  -0.000041  -0.000001  -0.000085  -0.033632   0.001125
    25  H    0.000130   0.000002   0.000012  -0.000007  -0.001537   0.000165
    26  H    0.000064  -0.000009  -0.000005   0.000011   0.003175  -0.000184
    27  H   -0.002588   0.000048  -0.000167  -0.000033  -0.005171   0.001017
    28  O    0.078389   0.000316   0.012620  -0.003342  -0.206425   0.009375
    29  O   -0.023590   0.000353  -0.002004  -0.000991  -0.147944  -0.008012
    30  H   -0.009002  -0.000042  -0.001054   0.000472   0.051555   0.002567
              7          8          9         10         11         12
     1  C    0.665340   0.008936   0.007405  -0.161705   0.027201  -0.109456
     2  H    0.040531   0.001961   0.002794  -0.000648   0.001074   0.001748
     3  H   -0.109758   0.002177   0.007538   0.013963   0.003317  -0.005256
     4  H    0.021941   0.000050  -0.002890  -0.006913   0.001189  -0.001783
     5  C   -3.175428  -0.162604   0.017893   0.524798   0.030268  -0.225309
     6  H   -0.139169  -0.016310   0.016761   0.020399  -0.004038   0.003958
     7  C   10.544007   0.471587   0.445903  -1.650106  -0.153241   0.437309
     8  H    0.471587   0.631964  -0.070943  -0.092548   0.006084   0.005606
     9  H    0.445903  -0.070943   0.531749  -0.062850  -0.005958   0.002461
    10  C   -1.650106  -0.092548  -0.062850   6.920694   0.518231  -1.083720
    11  H   -0.153241   0.006084  -0.005958   0.518231   0.743865  -0.188084
    12  C    0.437309   0.005606   0.002461  -1.083720  -0.188084   8.620865
    13  H    0.009379   0.000535   0.005199  -0.079593  -0.001389   0.416616
    14  H   -0.016602  -0.000813   0.000204  -0.099318   0.010744   0.439127
    15  C   -0.416022  -0.005055  -0.008995   0.554192   0.090300  -1.738768
    16  H   -0.017156  -0.002298   0.000460   0.046577   0.015006  -0.197747
    17  C   -0.086001  -0.003711   0.002164  -0.160481  -0.007256   0.407217
    18  H   -0.000265  -0.000625   0.000465   0.007421   0.004085  -0.096685
    19  H   -0.004683  -0.000058   0.000219  -0.000735   0.000758   0.043503
    20  H    0.001483   0.001629  -0.000792  -0.007597  -0.001379  -0.000843
    21  C   -0.133658   0.046820  -0.061901   0.237852  -0.072378   0.123403
    22  H    0.072509   0.003479  -0.002989  -0.000736  -0.004306   0.013137
    23  H   -0.011529   0.006081  -0.006542   0.010484   0.020637  -0.046611
    24  C    0.119909   0.006587  -0.005043  -0.002947  -0.040065   0.166480
    25  H    0.008184   0.000355  -0.000122   0.003013  -0.002286   0.038772
    26  H   -0.017166  -0.000502  -0.000070   0.012162   0.009876  -0.096883
    27  H    0.000918   0.000261  -0.000163   0.000913  -0.008300   0.008844
    28  O    0.117415   0.009222  -0.006234  -0.039768   0.010792  -0.022115
    29  O    0.070934   0.000542  -0.001134   0.042246   0.002695   0.002403
    30  H   -0.025766  -0.000699   0.000591  -0.008936  -0.003401   0.002413
             13         14         15         16         17         18
     1  C    0.004728  -0.002466   0.007662   0.002312  -0.004582   0.000096
     2  H   -0.001044   0.001878   0.002178   0.000073  -0.000116   0.000051
     3  H    0.000569  -0.000759   0.000329   0.000022  -0.000061  -0.000004
     4  H    0.000158  -0.000087  -0.000728  -0.000017  -0.000009  -0.000007
     5  C    0.011596  -0.021138  -0.127747   0.000625   0.008771  -0.000990
     6  H    0.000118  -0.001869  -0.004337  -0.001645   0.000804  -0.000004
     7  C    0.009379  -0.016602  -0.416022  -0.017156  -0.086001  -0.000265
     8  H    0.000535  -0.000813  -0.005055  -0.002298  -0.003711  -0.000625
     9  H    0.005199   0.000204  -0.008995   0.000460   0.002164   0.000465
    10  C   -0.079593  -0.099318   0.554192   0.046577  -0.160481   0.007421
    11  H   -0.001389   0.010744   0.090300   0.015006  -0.007256   0.004085
    12  C    0.416616   0.439127  -1.738768  -0.197747   0.407217  -0.096685
    13  H    0.623918  -0.086981   0.005354   0.022676   0.000845   0.001822
    14  H   -0.086981   0.656279  -0.032686  -0.013654   0.020205   0.004399
    15  C    0.005354  -0.032686   7.027992   0.612141  -0.229406   0.103180
    16  H    0.022676  -0.013654   0.612141   0.604872  -0.070092   0.015326
    17  C    0.000845   0.020205  -0.229406  -0.070092   5.716817   0.369359
    18  H    0.001822   0.004399   0.103180   0.015326   0.369359   0.564844
    19  H   -0.004282   0.001551  -0.093202  -0.011470   0.406023  -0.032919
    20  H    0.005256  -0.001894  -0.063425  -0.012776   0.412095  -0.048301
    21  C   -0.011605   0.007350  -0.004040  -0.003897   0.005795  -0.000314
    22  H   -0.001242   0.000326  -0.000876  -0.000272   0.000233   0.000022
    23  H    0.003164  -0.001616   0.003355   0.000632  -0.000972  -0.000149
    24  C   -0.087974   0.025859  -0.114859  -0.133703  -0.159039  -0.033754
    25  H   -0.004669  -0.001978  -0.099282  -0.008815  -0.007010   0.002360
    26  H    0.015471  -0.002193   0.092986   0.016137  -0.007412   0.011142
    27  H   -0.001039   0.002266  -0.077489  -0.018799   0.018575  -0.005675
    28  O    0.001307  -0.000546   0.002092   0.000312  -0.000612   0.000021
    29  O   -0.001726   0.000695   0.007645   0.000426   0.000276  -0.000059
    30  H    0.000177  -0.000107  -0.001919  -0.000142   0.000027   0.000008
             19         20         21         22         23         24
     1  C   -0.000127  -0.000113  -0.334308  -0.051690   0.054277  -0.002238
     2  H    0.000010  -0.000097   0.021225   0.004020  -0.004352  -0.000041
     3  H   -0.000008   0.000027  -0.043946  -0.000697   0.003151  -0.000001
     4  H   -0.000003   0.000011  -0.049521  -0.002021   0.000185  -0.000085
     5  C   -0.000113   0.001615  -0.338733  -0.126069  -0.032668  -0.033632
     6  H   -0.000028   0.000155  -0.038355   0.003097  -0.006633   0.001125
     7  C   -0.004683   0.001483  -0.133658   0.072509  -0.011529   0.119909
     8  H   -0.000058   0.001629   0.046820   0.003479   0.006081   0.006587
     9  H    0.000219  -0.000792  -0.061901  -0.002989  -0.006542  -0.005043
    10  C   -0.000735  -0.007597   0.237852  -0.000736   0.010484  -0.002947
    11  H    0.000758  -0.001379  -0.072378  -0.004306   0.020637  -0.040065
    12  C    0.043503  -0.000843   0.123403   0.013137  -0.046611   0.166480
    13  H   -0.004282   0.005256  -0.011605  -0.001242   0.003164  -0.087974
    14  H    0.001551  -0.001894   0.007350   0.000326  -0.001616   0.025859
    15  C   -0.093202  -0.063425  -0.004040  -0.000876   0.003355  -0.114859
    16  H   -0.011470  -0.012776  -0.003897  -0.000272   0.000632  -0.133703
    17  C    0.406023   0.412095   0.005795   0.000233  -0.000972  -0.159039
    18  H   -0.032919  -0.048301  -0.000314   0.000022  -0.000149  -0.033754
    19  H    0.565747  -0.019649   0.000273   0.000012  -0.000109  -0.004698
    20  H   -0.019649   0.583170  -0.000033  -0.000014   0.000157   0.023240
    21  C    0.000273  -0.000033   6.368549   0.426414   0.281617   0.019135
    22  H    0.000012  -0.000014   0.426414   0.552774  -0.026522   0.001342
    23  H   -0.000109   0.000157   0.281617  -0.026522   0.588149  -0.001344
    24  C   -0.004698   0.023240   0.019135   0.001342  -0.001344   5.712116
    25  H    0.000187   0.001266  -0.000206   0.000028   0.000220   0.421087
    26  H    0.001423  -0.002784  -0.000539  -0.000155   0.000177   0.337433
    27  H    0.001437  -0.001566   0.011315   0.000890  -0.007578   0.423222
    28  O   -0.000025  -0.000002   0.107627  -0.080080  -0.007355  -0.000201
    29  O    0.000035  -0.000042   0.053496   0.023795   0.023149   0.001449
    30  H   -0.000010   0.000011   0.012280  -0.002361  -0.009152   0.000008
             25         26         27         28         29         30
     1  C    0.000130   0.000064  -0.002588   0.078389  -0.023590  -0.009002
     2  H    0.000002  -0.000009   0.000048   0.000316   0.000353  -0.000042
     3  H    0.000012  -0.000005  -0.000167   0.012620  -0.002004  -0.001054
     4  H   -0.000007   0.000011  -0.000033  -0.003342  -0.000991   0.000472
     5  C   -0.001537   0.003175  -0.005171  -0.206425  -0.147944   0.051555
     6  H    0.000165  -0.000184   0.001017   0.009375  -0.008012   0.002567
     7  C    0.008184  -0.017166   0.000918   0.117415   0.070934  -0.025766
     8  H    0.000355  -0.000502   0.000261   0.009222   0.000542  -0.000699
     9  H   -0.000122  -0.000070  -0.000163  -0.006234  -0.001134   0.000591
    10  C    0.003013   0.012162   0.000913  -0.039768   0.042246  -0.008936
    11  H   -0.002286   0.009876  -0.008300   0.010792   0.002695  -0.003401
    12  C    0.038772  -0.096883   0.008844  -0.022115   0.002403   0.002413
    13  H   -0.004669   0.015471  -0.001039   0.001307  -0.001726   0.000177
    14  H   -0.001978  -0.002193   0.002266  -0.000546   0.000695  -0.000107
    15  C   -0.099282   0.092986  -0.077489   0.002092   0.007645  -0.001919
    16  H   -0.008815   0.016137  -0.018799   0.000312   0.000426  -0.000142
    17  C   -0.007010  -0.007412   0.018575  -0.000612   0.000276   0.000027
    18  H    0.002360   0.011142  -0.005675   0.000021  -0.000059   0.000008
    19  H    0.000187   0.001423   0.001437  -0.000025   0.000035  -0.000010
    20  H    0.001266  -0.002784  -0.001566  -0.000002  -0.000042   0.000011
    21  C   -0.000206  -0.000539   0.011315   0.107627   0.053496   0.012280
    22  H    0.000028  -0.000155   0.000890  -0.080080   0.023795  -0.002361
    23  H    0.000220   0.000177  -0.007578  -0.007355   0.023149  -0.009152
    24  C    0.421087   0.337433   0.423222  -0.000201   0.001449   0.000008
    25  H    0.569779  -0.033761  -0.025852   0.000010   0.000022   0.000053
    26  H   -0.033761   0.569604  -0.045772  -0.000073   0.000638  -0.000303
    27  H   -0.025852  -0.045772   0.592919  -0.001500  -0.004174   0.000942
    28  O    0.000010  -0.000073  -0.001500   8.196359  -0.080317  -0.016095
    29  O    0.000022   0.000638  -0.004174  -0.080317   8.125077   0.145337
    30  H    0.000053  -0.000303   0.000942  -0.016095   0.145337   0.578033
 Mulliken atomic charges:
              1
     1  C   -0.610097
     2  H    0.126113
     3  H    0.169760
     4  H    0.145241
     5  C    0.895229
     6  H    0.172417
     7  C   -1.070799
     8  H    0.152291
     9  H    0.194822
    10  C    0.545656
    11  H   -0.004038
    12  C   -0.920602
    13  H    0.152655
    14  H    0.113824
    15  C    0.509429
    16  H    0.154888
    17  C   -0.632446
    18  H    0.135149
    19  H    0.150941
    20  H    0.131193
    21  C   -0.629716
    22  H    0.197953
    23  H    0.167697
    24  C   -0.639371
    25  H    0.139878
    26  H    0.137510
    27  H    0.142298
    28  O   -0.081167
    29  O   -0.231224
    30  H    0.284517
 Sum of Mulliken atomic charges =   0.00000
 Mulliken charges with hydrogens summed into heavy atoms:
              1
     1  C   -0.168982
     5  C    1.067645
     7  C   -0.723686
    10  C    0.541618
    12  C   -0.654122
    15  C    0.664317
    17  C   -0.215164
    21  C   -0.264066
    24  C   -0.219685
    28  O   -0.081167
    29  O    0.053292
 Sum of Mulliken charges with hydrogens summed into heavy atoms =   0.00000
          Atomic-Atomic Spin Densities.
              1          2          3          4          5          6
     1  C    0.030521  -0.000851  -0.000583   0.000897  -0.035441   0.005072
     2  H   -0.000851   0.000157   0.000125  -0.000233   0.000236   0.000030
     3  H   -0.000583   0.000125  -0.000359  -0.000078   0.001521  -0.000130
     4  H    0.000897  -0.000233  -0.000078  -0.000229   0.000537  -0.000269
     5  C   -0.035441   0.000236   0.001521   0.000537   0.059529  -0.002500
     6  H    0.005072   0.000030  -0.000130  -0.000269  -0.002500   0.000351
     7  C    0.050531  -0.001458  -0.001899   0.000708  -0.023649   0.007417
     8  H   -0.011468  -0.000007  -0.000562   0.000206   0.022537  -0.002537
     9  H    0.016093  -0.000308   0.001015  -0.000070  -0.018126   0.003231
    10  C   -0.032112   0.001791  -0.000435  -0.001891   0.012463  -0.003471
    11  H   -0.002864  -0.000118  -0.000144   0.000130  -0.006441   0.000388
    12  C    0.012318  -0.000257   0.000694   0.000276  -0.031555   0.002953
    13  H    0.003650  -0.000048   0.000082   0.000059  -0.003290   0.000812
    14  H   -0.002885   0.000042  -0.000037  -0.000044   0.003761  -0.000671
    15  C   -0.002066   0.000130  -0.000041  -0.000069   0.002569  -0.000932
    16  H    0.000479  -0.000001   0.000010   0.000007  -0.001083   0.000265
    17  C    0.000364  -0.000020   0.000019   0.000009  -0.001308   0.000082
    18  H    0.000010  -0.000001   0.000000   0.000000  -0.000056   0.000003
    19  H    0.000002   0.000001   0.000000   0.000000  -0.000066  -0.000001
    20  H   -0.000026   0.000002  -0.000003   0.000000   0.000130   0.000003
    21  C   -0.022588   0.000565   0.000750  -0.000277   0.006327  -0.006334
    22  H   -0.003904   0.000027   0.000038   0.000196  -0.000226  -0.000442
    23  H    0.000900   0.000027  -0.000117   0.000020   0.000271   0.000560
    24  C   -0.000769  -0.000003   0.000000  -0.000009   0.000962  -0.000399
    25  H   -0.000004  -0.000001   0.000001   0.000000   0.000036  -0.000006
    26  H    0.000050   0.000000   0.000000   0.000001  -0.000043   0.000031
    27  H   -0.000268   0.000004  -0.000012  -0.000011   0.000815  -0.000140
    28  O    0.001386  -0.000026  -0.000059  -0.000050   0.001709   0.000153
    29  O   -0.000195   0.000016   0.000040  -0.000004  -0.000809  -0.000047
    30  H   -0.000121   0.000002   0.000004  -0.000006  -0.000299  -0.000042
              7          8          9         10         11         12
     1  C    0.050531  -0.011468   0.016093  -0.032112  -0.002864   0.012318
     2  H   -0.001458  -0.000007  -0.000308   0.001791  -0.000118  -0.000257
     3  H   -0.001899  -0.000562   0.001015  -0.000435  -0.000144   0.000694
     4  H    0.000708   0.000206  -0.000070  -0.001891   0.000130   0.000276
     5  C   -0.023649   0.022537  -0.018126   0.012463  -0.006441  -0.031555
     6  H    0.007417  -0.002537   0.003231  -0.003471   0.000388   0.002953
     7  C    0.149089  -0.042283   0.088076  -0.233957  -0.042676   0.132523
     8  H   -0.042283   0.022847  -0.018039   0.031698  -0.000874  -0.013106
     9  H    0.088076  -0.018039   0.095046  -0.106038  -0.001702   0.022496
    10  C   -0.233957   0.031698  -0.106038   1.318735   0.075425  -0.118498
    11  H   -0.042676  -0.000874  -0.001702   0.075425  -0.051605  -0.030269
    12  C    0.132523  -0.013106   0.022496  -0.118498  -0.030269   0.021702
    13  H    0.054564  -0.007208   0.018753  -0.125712  -0.003007   0.066662
    14  H   -0.035545   0.006396  -0.006615   0.038817   0.000381  -0.032678
    15  C   -0.037561   0.003304  -0.003565   0.004792   0.008718  -0.034556
    16  H    0.008440  -0.000896   0.001053  -0.005628   0.000470   0.011923
    17  C    0.007350  -0.000400   0.000511  -0.000962  -0.001644   0.011334
    18  H    0.000043  -0.000021   0.000041  -0.000177  -0.000031  -0.001038
    19  H   -0.000213  -0.000008   0.000005  -0.000835   0.000102  -0.000463
    20  H   -0.000192  -0.000037   0.000012   0.000768  -0.000128  -0.000631
    21  C   -0.069631   0.010705  -0.026789   0.058051   0.017892  -0.016679
    22  H   -0.005286   0.000542  -0.001254   0.004796  -0.000409  -0.001851
    23  H    0.002611  -0.000539   0.001374  -0.004184  -0.000769   0.002658
    24  C   -0.015102   0.002096  -0.004095   0.034899   0.006100  -0.032367
    25  H   -0.000050   0.000045  -0.000074   0.001749  -0.000282  -0.001660
    26  H    0.001251  -0.000165   0.000405  -0.003677  -0.000440   0.001109
    27  H   -0.003482   0.000241  -0.000653   0.001706   0.000073  -0.001471
    28  O    0.002811  -0.000409   0.002239  -0.004574  -0.000014   0.001227
    29  O    0.000729   0.000212  -0.000939   0.000456   0.000613  -0.000094
    30  H   -0.000647   0.000068  -0.000477   0.000763   0.000334  -0.000107
             13         14         15         16         17         18
     1  C    0.003650  -0.002885  -0.002066   0.000479   0.000364   0.000010
     2  H   -0.000048   0.000042   0.000130  -0.000001  -0.000020  -0.000001
     3  H    0.000082  -0.000037  -0.000041   0.000010   0.000019   0.000000
     4  H    0.000059  -0.000044  -0.000069   0.000007   0.000009   0.000000
     5  C   -0.003290   0.003761   0.002569  -0.001083  -0.001308  -0.000056
     6  H    0.000812  -0.000671  -0.000932   0.000265   0.000082   0.000003
     7  C    0.054564  -0.035545  -0.037561   0.008440   0.007350   0.000043
     8  H   -0.007208   0.006396   0.003304  -0.000896  -0.000400  -0.000021
     9  H    0.018753  -0.006615  -0.003565   0.001053   0.000511   0.000041
    10  C   -0.125712   0.038817   0.004792  -0.005628  -0.000962  -0.000177
    11  H   -0.003007   0.000381   0.008718   0.000470  -0.001644  -0.000031
    12  C    0.066662  -0.032678  -0.034556   0.011923   0.011334  -0.001038
    13  H    0.118086  -0.026249  -0.017620   0.005358   0.006426   0.000047
    14  H   -0.026249   0.031220   0.023263  -0.004113  -0.005331   0.000201
    15  C   -0.017620   0.023263   0.055999  -0.010992  -0.010498  -0.000079
    16  H    0.005358  -0.004113  -0.010992   0.001721   0.004496  -0.000274
    17  C    0.006426  -0.005331  -0.010498   0.004496   0.001875   0.000227
    18  H    0.000047   0.000201  -0.000079  -0.000274   0.000227  -0.000325
    19  H   -0.000473   0.000507   0.000528  -0.000494   0.000484   0.000100
    20  H   -0.000308  -0.000065   0.000050  -0.000096  -0.000120   0.000001
    21  C   -0.007853   0.003947   0.002566  -0.001154  -0.000354   0.000002
    22  H   -0.000241   0.000106   0.000123  -0.000041  -0.000040   0.000000
    23  H   -0.000118   0.000042  -0.000004  -0.000078   0.000074  -0.000006
    24  C   -0.019482   0.007271   0.005988  -0.003405  -0.008323   0.001403
    25  H   -0.000005  -0.000060   0.000835   0.000061  -0.000779   0.000029
[...]
 5308,-0.00465872,-0.00446511,-0.00124439,0.00092790,0.00088999,-0.0009
 4923,0.00047547,0.00066023,-0.00117140,0.00130262,0.00090065,-0.000052
 23,0.00010985,-0.00007233,-0.00001475,-0.00002832,0.00001017,0.0000367
 2,-0.00005491,-0.00002739,0.01736788,0.46451444,0.00001353,-0.00003520
 ,0.00001771,-0.00001302,-0.00001098,-0.00001579,-0.00000710,-0.0000066
 5,-0.00001535,-0.00001427,0.00000265,0.00000697,-0.00005034,0.00006324
 ,-0.00005115,0.00001092,0.00002849,-0.00001935,0.00016469,-0.00003111,
 0.00006111,-0.00006613,-0.00000443,-0.00008289,-0.00003543,-0.00000961
 ,-0.00004453,0.00078899,-0.00053015,0.00028361,-0.00010178,0.00019748,
 0.00002689,-0.00040197,-0.01831324,-0.00776789,0.00088252,-0.00094139,
 0.00038554,-0.00253556,-0.00180860,-0.00119928,0.00534740,-0.02434776,
 -0.08556531,-0.00454211,0.02445028,0.00849839,0.00745434,-0.02119174,-
 0.00867263,-0.00047834,-0.00100852,0.00060119,-0.00137802,0.00042733,0
 .00077876,0.00294760,-0.00083005,-0.00208080,0.00042335,0.00001137,0.0
 0034388,-0.00007100,0.00001564,-0.00003497,0.00002371,-0.00010851,-0.0
 0003151,0.00281035,-0.02585783,0.55067042,-0.00000170,-0.00000327,0.00
 002506,-0.00000084,-0.00001306,-0.00000796,0.00000246,0.00000279,-0.00
 000549,-0.00002701,0.00000417,0.00000655,-0.00000438,0.00000783,-0.000
 07478,0.00000981,-0.00000223,0.00000723,0.00007748,-0.00004885,0.00003
 639,-0.00009096,-0.00005292,-0.00003497,-0.00001555,0.00002219,-0.0000
 0207,0.00012849,-0.00041310,-0.00018090,-0.00001124,0.00016453,-0.0000
 6928,0.00049614,0.00085662,0.00086852,0.00001795,0.00017432,0.00017000
 ,0.00022889,0.00019192,0.00013307,0.00399709,0.00238908,0.00405047,0.0
 0030291,-0.00076421,0.00005982,0.00085018,0.00047634,0.00041471,-0.000
 06088,-0.00001684,0.00003491,0.00032729,0.00010769,-0.00011144,0.00024
 429,-0.00011115,-0.00002288,0.00019104,0.00006283,0.00010161,-0.000054
 68,-0.00000436,-0.00000049,0.00002634,-0.00007145,-0.00005441,-0.20606
 855,-0.06903312,-0.10496400,0.22298505,-0.00003155,0.00003872,0.000035
 28,0.00001184,0.00000746,-0.00000121,0.00000342,-0.00000673,-0.0000055
 7,-0.00003204,-0.00000390,0.00000208,0.00002560,-0.00003436,-0.0000751
 0,-0.00000263,0.00000720,0.00001132,-0.00009292,0.00002816,0.00017836,
 -0.00000402,0.00001098,-0.00001946,0.00002442,-0.00002420,-0.00000241,
 0.00058176,0.00020836,-0.00044587,-0.00004681,-0.00004297,0.00012869,0
 .00273185,-0.00559186,-0.00119425,0.00011464,0.00014873,-0.00016452,-0
 .00157382,-0.00089857,-0.00106940,-0.02522830,-0.01034876,-0.01654287,
 -0.00029992,0.00093006,0.00080866,-0.00137557,0.00115334,0.00057851,0.
 00015903,-0.00001165,0.00002008,0.00085914,0.00014806,-0.00012122,0.00
 003216,0.00010844,0.00044201,-0.00005693,-0.00010934,0.00002170,-0.000
 00993,0.00002922,-0.00000135,0.00000770,-0.00000877,0.00001107,-0.0679
 1095,-0.07589831,-0.04456616,0.07506866,0.08355504,-0.00001364,0.00002
 137,0.00001359,0.00000699,-0.00000006,0.00000112,0.00000377,0.00000039
 ,-0.00000062,-0.00001547,-0.00000127,0.00000176,0.00001886,-0.00001695
 ,-0.00003884,-0.00000353,-0.00000468,0.00000989,-0.00009946,0.00005736
 ,0.00008851,0.00003302,0.00000484,0.00001423,0.00003385,0.00000775,0.0
 0001757,0.00028036,0.00026178,-0.00018537,-0.00006232,-0.00014787,0.00
 012119,0.00111371,-0.00204221,0.00015863,0.00031491,0.00010227,0.00043
 431,-0.00060495,-0.00066346,-0.00004511,-0.00740683,-0.00213549,-0.006
 13251,0.00042721,-0.00000877,0.00062276,-0.00104404,0.00038698,0.00000
 090,-0.00008743,-0.00004181,-0.00005879,0.00072502,-0.00027399,0.00002
 428,0.00023708,0.00021655,0.00019710,-0.00007166,-0.00002272,-0.000047
 19,0.00000160,0.00000449,0.00001030,-0.00000281,0.00000867,-0.00000686
 ,-0.10402039,-0.04503384,-0.11585919,0.11528283,0.05147016,0.12264934,
 -0.00000794,0.00001409,-0.00000288,0.00000355,0.00001078,0.00000174,-0
 .00000502,-0.00000616,-0.00000375,0.00000228,-0.00000357,-0.00000094,0
 .00001299,-0.00000902,0.00002661,0.00000741,0.00001580,-0.00001557,0.0
 0005499,-0.00001860,-0.00006001,-0.00000940,-0.00000029,-0.00000959,-0
 .00003265,-0.00002687,-0.00003579,-0.00018230,0.00008955,0.00019973,0.
 00006280,0.00006411,-0.00010825,0.00028626,-0.00079689,0.00076892,0.00
 025239,-0.00000300,-0.00011326,-0.00003034,0.00001665,-0.00005367,-0.0
 0197546,0.00359650,-0.00455563,0.00046985,0.00109339,0.00059577,0.0002
 3424,0.00026737,-0.00110534,-0.00002589,0.00015097,0.00044307,-0.00004
 066,0.00005902,-0.00010125,0.00000698,-0.00027398,0.00015881,-0.000038
 38,-0.00009288,0.00002259,0.00001689,0.00001662,-0.00000803,0.00001629
 ,-0.00000772,0.00006450,-0.05259314,0.02239041,-0.02966436,-0.00360055
 ,0.01621090,-0.02006966,0.05228678,-0.00001263,0.00001240,0.00000874,0
 .00000400,0.00000873,0.00000158,-0.00000368,-0.00000511,-0.00000472,-0
 .00000606,-0.00000321,-0.00000044,0.00000073,-0.00002343,-0.00001069,0
 .00000673,0.00001040,-0.00001252,-0.00000712,-0.00001104,0.00000941,-0
 .00000585,-0.00000450,-0.00000441,-0.00004090,-0.00002693,-0.00002869,
 -0.00026629,0.00003528,-0.00004463,0.00016936,0.00006004,-0.00013129,0
 .00091454,0.00120799,0.00158183,-0.00065725,0.00017825,-0.00101867,0.0
 0004472,0.00051462,-0.00024545,0.00509160,-0.02157482,0.02546762,0.001
 14014,-0.00565066,-0.00276646,-0.00102006,0.00119185,0.00121944,0.0005
 1168,0.00036136,-0.00092855,0.00005223,0.00000477,-0.00011316,-0.00028
 445,0.00035200,-0.00026761,-0.00000745,-0.00008548,0.00004440,0.000005
 09,0.00001950,-0.00001058,-0.00000486,0.00000941,0.00002174,0.02237240
 ,-0.13655430,0.11903160,-0.00080956,0.00696081,-0.00924308,-0.02644240
 ,0.15247374,0.00002193,-0.00003133,-0.00001349,-0.00000834,-0.00001320
 ,-0.00000139,0.00000376,0.00001038,0.00001043,0.00001674,0.00000578,-0
 .00000285,-0.00003518,0.00002959,-0.00000010,-0.00000639,-0.00002550,0
 .00001886,-0.00005111,0.00000325,0.00001203,0.00003453,0.00000968,0.00
 001817,0.00002403,0.00002760,0.00003609,0.00003416,0.00010609,-0.00015
 602,-0.00002354,-0.00004805,0.00008077,0.00032958,-0.00027344,0.001128
 26,0.00024921,0.00044536,0.00014772,0.00014727,0.00014214,0.00016918,0
 .00159195,-0.00595861,0.00730123,0.00049657,-0.00242892,0.00069668,-0.
 00016924,-0.00032984,0.00119673,-0.00032944,0.00019260,0.00008950,0.00
 004276,0.00006426,-0.00010979,-0.00016258,0.00006587,0.00021644,0.0000
 0581,0.00014299,-0.00006410,-0.00000093,-0.00002732,0.00000921,-0.0000
 1487,0.00003243,-0.00004548,-0.02983781,0.11955215,-0.20358147,-0.0015
 5761,0.00925831,-0.01305487,0.03279201,-0.13131423,0.22069226,0.000004
 27,-0.00000385,-0.00001079,-0.00000140,-0.00000078,0.00000272,-0.00000
 400,0.00000067,-0.00000319,0.00000934,0.00000060,0.00000045,0.00001500
 ,-0.00000304,0.00004012,0.00000364,0.00000794,-0.00001489,0.00012593,-
 0.00001236,-0.00014552,-0.00003834,-0.00001605,-0.00000740,-0.00003706
 ,-0.00000107,-0.00002273,-0.00015154,-0.00062953,0.00011225,-0.0000456
 2,-0.00029239,-0.00020398,0.00005358,-0.00012636,-0.00034177,0.0000015
 8,-0.00001066,-0.00003266,0.00006587,0.00015989,0.00010446,-0.00457335
 ,-0.00018439,0.00233881,0.00002506,0.00031732,-0.00023981,0.00057985,0
 .00199848,-0.00015073,0.00002391,-0.00013108,0.00005314,0.00050277,-0.
 00011305,-0.00010937,-0.00016508,-0.00000856,0.00055963,-0.00002054,-0
 .00001422,-0.00000626,0.00002500,0.00000706,0.00000219,-0.00010335,0.0
 0001198,-0.00001330,-0.21634575,0.00813758,0.12362539,-0.01983191,0.00
 083273,0.01503561,0.00482340,-0.00079226,-0.00359090,0.23504095,0.0000
 2264,-0.00004503,-0.00001438,-0.00001220,-0.00000818,-0.00000143,0.000
 00317,0.00000869,0.00000991,0.00002771,0.00000447,-0.00000611,-0.00010
 522,0.00001834,-0.00000039,-0.00002275,-0.00002296,0.00001949,-0.00024
 404,0.00000497,0.00018808,0.00010063,0.00006294,0.00003793,0.00008809,
 0.00002145,0.00006845,-0.00020998,0.00004759,-0.00061783,-0.00023203,-
 0.00071276,0.00024125,0.00019614,0.00145282,0.00054447,-0.00016341,-0.
 00013586,-0.00003405,0.00014354,0.00008892,0.00027947,0.02577112,0.000
 19713,-0.01875645,-0.00006546,0.00119127,0.00074580,-0.00013573,-0.006
 22766,-0.00134339,-0.00014412,0.00004608,-0.00024110,-0.00004483,-0.00
 002459,0.00028930,0.00164606,-0.00019275,-0.00135093,0.00004060,0.0000
 8873,-0.00002894,0.00002389,-0.00001251,0.00000129,-0.00009244,0.00010
 479,0.00001272,0.00711455,-0.04678603,-0.00477401,-0.00817022,-0.00046
 492,0.00711676,-0.01643412,0.00043485,0.01052471,-0.00913123,0.0509814
 0,-0.00002267,0.00004698,-0.00001438,0.00001375,0.00002567,0.00001216,
 -0.00000057,-0.00000896,0.00000379,0.00001135,-0.00000779,-0.00000536,
 0.00004591,-0.00005281,0.00007973,-0.00000815,0.00001126,-0.00000592,-
 0.00015955,0.00006710,0.00001089,0.00010006,0.00007908,0.00004601,0.00
 004306,-0.00003454,0.00001024,-0.00016113,0.00063602,0.00000560,0.0000
 7362,-0.00008222,0.00019604,0.00065661,0.00032954,0.00004318,-0.000055
 46,-0.00019615,-0.00016088,-0.00007695,-0.00000009,0.00004699,0.006932
 92,0.00059718,-0.00674250,-0.00036036,-0.00022180,0.00061244,-0.000356
 95,-0.00275327,0.00020708,-0.00033228,0.00007760,0.00046211,0.00022584
 ,0.00014414,0.00008275,0.00084020,-0.00014360,-0.00006733,-0.00035768,
 -0.00016674,-0.00019362,0.00007984,0.00002031,0.00001193,-0.00003534,0
 .00006629,0.00011816,0.12286646,-0.00559581,-0.13634968,-0.01401887,0.
 00127053,0.01102447,0.02088441,-0.00120401,-0.01488149,-0.13698058,0.0
 0702622,0.14531010,-0.00037419,-0.00132962,0.00010194,0.00040673,-0.00
 002273,0.00064870,0.00056689,-0.00006793,0.00111760,0.00010637,0.00006
 298,-0.00012577,-0.00035356,0.00653844,-0.01032509,0.00068302,0.001987
 34,0.00021550,0.00076510,-0.00063649,-0.00114122,0.00014931,-0.0000352
 7,0.00035510,-0.00049413,0.00036547,0.00063458,-0.00057839,0.00016355,
 0.00003266,0.00023792,-0.00015696,0.00022488,0.00007546,0.00010724,0.0
 0016976,-0.00005072,-0.00006678,-0.00001517,-0.00014433,0.00007746,0.0
 0003721,0.00004573,-0.00004717,0.00006680,0.00001050,-0.00000413,-0.00
 000461,-0.00000702,0.00002976,-0.00003457,0.00000812,-0.00001399,0.000
 01571,-0.00002991,-0.00001366,-0.00000606,-0.00000854,0.00002028,0.000
 01410,-0.11592910,0.02315169,-0.02791194,0.00569045,-0.01152078,0.0224
 1219,-0.01249533,0.01872184,-0.03282856,0.00010380,-0.00000563,-0.0001
 5887,-0.00008709,0.00000187,0.00000406,-0.00000046,0.00001123,0.000031
 80,0.00000912,0.00003399,0.00010665,0.28321792,0.00097690,0.00172152,-
 0.00072570,0.00047422,0.00024459,0.00063567,-0.00028541,-0.00059160,0.
 00064514,-0.00055872,-0.00016567,0.00034458,0.01381551,-0.01778357,0.0
 3997541,0.00098542,-0.00897131,-0.00047186,-0.00155857,0.00166583,0.00
 119891,-0.00005548,0.00030159,-0.00043612,0.00038921,0.00037628,-0.001
 01673,-0.00011835,0.00007259,-0.00010387,-0.00003762,-0.00005776,-0.00
 006775,0.00008243,0.00011687,0.00014108,0.00000463,-0.00001345,-0.0000
 7167,-0.00002049,0.00000796,-0.00000108,-0.00005115,-0.00014399,-0.000
 12173,-0.00000594,0.00004493,0.00000724,0.00004116,0.00007122,0.000069
 80,-0.00000578,-0.00000493,-0.00002574,0.00006137,0.00000855,-0.000001
 23,-0.00002813,0.00001457,0.00001016,0.04328222,-0.08999819,0.04212837
 ,-0.00207735,0.00180846,0.00275777,0.00056556,0.00667533,-0.00044577,0
 .00008140,0.00000140,0.00001673,0.00000904,0.00004782,0.00001946,0.000
 03112,0.00001580,-0.00007417,-0.00001070,-0.00008014,0.00004760,-0.033
 13302,0.14942903,-0.00145900,-0.00151138,0.00007136,0.00030020,-0.0003
 2698,0.00062791,0.00078193,0.00042371,0.00122663,0.00030337,0.00005980
 ,-0.00006834,-0.00152610,0.01310168,-0.00819088,-0.00029486,0.00148647
 ,0.00150253,0.00026116,-0.00047738,-0.00028980,-0.00023035,0.00027374,
 0.00016207,-0.00019409,-0.00003983,0.00028207,-0.00008019,0.00003409,-
 0.00012209,0.00011604,-0.00011019,0.00022112,0.00007091,0.00012632,-0.
 00017231,-0.00006648,-0.00009580,0.00009537,-0.00007330,0.00003522,0.0
 0009324,0.00001165,-0.00004813,0.00009312,0.00002453,-0.00001111,0.000
 01657,-0.00001248,0.00002681,-0.00004270,-0.00000049,-0.00001656,0.000
 02273,-0.00002536,-0.00000967,0.00000084,-0.00000635,0.00001282,0.0000
 1216,-0.06723487,0.05741156,-0.12531921,-0.00376039,0.01095088,-0.0288
 3648,-0.00892807,0.01058357,-0.02607205,0.00010204,0.00003067,-0.00016
 421,-0.00005967,-0.00001023,0.00001758,-0.00001441,-0.00001701,0.00003
 778,0.00000119,0.00003343,0.00008904,-0.02942188,-0.12728707,0.2899716
 9,-0.00011489,-0.00002739,0.00012085,0.00012620,-0.00011550,0.00001702
 ,-0.00024087,-0.00003292,0.00003067,0.00018739,0.00015992,-0.00025099,
 0.00121748,0.00004740,-0.00072554,-0.00005158,0.00008812,-0.00005750,-
 0.00013934,-0.00029863,0.00017449,0.00023229,-0.00010509,-0.00017416,-
 0.00005006,0.00046732,-0.00032942,-0.00025926,0.00009859,-0.00005732,0
 .00002570,0.00000609,-0.00007189,0.00016355,-0.00018202,0.00033944,0.0
 0010750,0.00005070,-0.00029136,-0.00001597,0.00010853,-0.00008054,0.00
 007608,-0.00000770,-0.00014770,-0.00007869,0.00005834,-0.00005313,0.00
 003329,0.00000862,0.00003179,0.00002182,0.00000504,-0.00002711,-0.0000
 0925,-0.00000947,-0.00002187,-0.00001568,0.00003753,0.00001569,0.00646
 126,0.00064534,0.00700904,0.00335196,-0.00143219,-0.00241209,0.0033493
 9,-0.00019268,-0.00045998,-0.00006636,-0.00015614,0.00016472,-0.000093
 79,0.00007735,-0.00007290,0.00014680,0.00012579,-0.00018307,0.00001240
 ,-0.00005173,0.00012873,-0.14912891,0.01178903,0.09211773,0.15474822,-
 0.00001487,0.00005621,0.00013884,0.00007513,-0.00004234,-0.00004765,-0
 .00016796,-0.00013778,-0.00001882,0.00011922,0.00009359,-0.00012460,-0
 .00103110,-0.00002805,0.00113119,0.00027171,-0.00023711,-0.00031532,0.
 00113655,-0.00208401,-0.00129379,0.00008762,-0.00047295,0.00079185,0.0
 0065837,-0.00248612,0.00180919,-0.00041782,-0.00029890,-0.00010094,0.0
 0007215,0.00007683,0.00004107,-0.00005256,-0.00018452,0.00025371,0.000
 03158,0.00002892,-0.00008824,0.00005526,0.00003216,-0.00007177,-0.0000
 2235,-0.00001079,-0.00015810,-0.00003162,0.00003510,-0.00001555,0.0000
 3442,0.00001248,0.00006660,0.00000486,0.00000890,-0.00003025,0.0000337
 8,0.00000633,-0.00000954,-0.00001361,0.00001123,0.00000180,-0.02294140
 ,0.00075914,0.01060151,0.00086168,-0.00162543,0.00215021,0.00158834,0.
 00041186,-0.00125302,-0.00004047,-0.00007685,0.00016765,0.00001260,0.0
 0005150,-0.00003029,0.00006551,0.00005959,-0.00009422,-0.00000385,-0.0
 0004859,-0.00001856,-0.00780809,-0.05166739,0.03938024,-0.00757672,0.5
 6893733,-0.00016945,0.00028166,-0.00060070,0.00005241,0.00015206,0.000
 20942,0.00009838,0.00002675,0.00021563,-0.00017166,-0.00011658,0.00003
 424,-0.00153173,-0.00057004,0.00288219,0.00004874,-0.00069197,0.000291
 47,-0.00014252,0.00159423,0.00007574,-0.00033231,0.00040098,0.00002335
 ,-0.00003103,0.00013137,0.00011322,0.00017298,0.00048799,0.00008551,0.
 00000425,-0.00005916,0.00003118,0.00012178,0.00017415,-0.00026261,0.00
 005868,-0.00021343,-0.00003659,-0.00009026,0.00001980,0.00005862,0.000
 00263,-0.00013356,0.00012157,0.00002456,0.00001877,0.00002922,-0.00001
 402,0.00005157,-0.00006864,-0.00000106,-0.00003071,0.00002917,-0.00002
 736,-0.00001643,0.00000986,-0.00001329,0.00001938,0.00001895,0.0373662
 4,-0.00349613,-0.03613149,-0.00369363,0.00707863,-0.00544355,0.0017237
 8,-0.00141694,0.00488659,0.00004555,0.00004797,-0.00015924,-0.00008585
 ,0.00001184,0.00000579,0.00005876,0.00000162,-0.00003515,-0.00001912,-
 0.00002225,0.00018177,0.07138087,0.01450545,-0.09305575,-0.11646253,-0
 .07623759,0.14561621,0.00006832,-0.00006043,0.00006481,-0.00001624,-0.
 00002225,-0.00003012,-0.00004679,0.00000123,-0.00001296,0.00003784,0.0
 0002518,-0.00002060,-0.00054044,-0.00020088,0.00049504,0.00008991,-0.0
 0007843,-0.00011102,0.00012791,0.00032681,0.00031439,-0.00007561,0.000
 13710,-0.00023632,0.00014277,-0.00030679,-0.00041161,0.00030701,-0.000
 02220,0.00004691,-0.00010269,-0.00000721,-0.00003560,-0.00004714,0.000
 08442,-0.00023000,0.00002197,0.00003563,0.00013291,0.00001759,-0.00007
 857,0.00003525,-0.00000639,0.00009356,0.00012540,0.00002700,-0.0000735
 9,0.00001163,-0.00003235,-0.00002794,-0.00005516,-0.00001467,0.0000051
 9,0.00003128,-0.00001167,0.00000550,0.00001674,0.00002323,-0.00003889,
 -0.00001209,-0.00417850,0.00045725,0.00010093,0.00035616,-0.00036305,0
 .00031943,0.00042276,0.00038773,-0.00063738,0.00001827,0.00013915,-0.0
 0017521,0.00006370,-0.00007769,0.00005620,-0.00014173,-0.00008941,0.00
 014890,-0.00000372,0.00004740,-0.00008286,-0.01239476,-0.03464251,0.01
 929759,-0.01999666,0.03501365,0.01162620,0.03588493,-0.00010830,0.0000
 5781,0.00004213,0.00001086,0.00008796,-0.00001359,0.00003163,-0.000070
 68,-0.00002920,-0.00005279,-0.00004332,0.00001717,-0.00014486,0.000134
 26,-0.00055351,-0.00007498,0.00023977,0.00004424,0.00017236,-0.0001122
 3,-0.00089462,-0.00000561,-0.00005955,0.00029133,0.00003645,-0.0002394
 8,0.00064985,-0.00012539,0.00009519,0.00003490,0.00006406,-0.00000842,
 0.00004988,0.00002325,0.00000188,0.00001102,0.00000972,-0.00004059,-0.
 00001886,-0.00002136,0.00001081,0.00000113,0.00002165,-0.00000215,0.00
 002469,-0.00000413,-0.00000448,-0.00000441,-0.00000450,-0.00000119,-0.
 00000805,0.00000748,0.00000143,0.00000480,-0.00001324,-0.00000183,-0.0
 0000595,0.00000052,0.00000069,0.00000225,0.00153734,-0.00131010,0.0012
 6133,-0.00013462,0.00039507,-0.00069473,-0.00056128,-0.00019571,0.0000
 6334,0.00000446,-0.00003195,-0.00003652,-0.00003625,0.00001043,-0.0000
 1234,0.00002276,0.00002808,0.00000564,0.00001119,0.00000755,0.00004083
 ,0.00358908,0.00685366,-0.00400966,-0.00358552,-0.51118035,0.05800059,
 -0.00066998,0.50537744,0.00002907,-0.00012736,-0.00000599,-0.00004314,
 -0.00004876,-0.00002636,0.00007561,0.00004091,-0.00000999,-0.00003664,
 -0.00001683,0.00004457,-0.00004115,-0.00006778,-0.00059277,-0.00008430
 ,0.00011151,0.00010979,0.00006588,-0.00011595,0.00015464,0.00006308,-0
 .00014260,0.00005439,-0.00028458,0.00045899,0.00003664,-0.00002794,-0.
 00010708,0.00003019,0.00004104,0.00004125,0.00000089,-0.00002232,-0.00
 003260,0.00004290,-0.00003622,0.00005191,0.00005246,0.00003292,-0.0000
 4245,-0.00001113,-0.00000172,0.00008431,0.00000299,0.00001052,-0.00003
 165,-0.00000796,-0.00000487,-0.00005246,0.00003499,-0.00000322,0.00002
 131,-0.00001230,0.00000978,0.00001210,-0.00000241,0.00001619,-0.000021
 53,-0.00001826,0.00569130,0.00194262,-0.00224332,-0.00028605,0.0004983
 1,-0.00093824,-0.00049148,0.00009662,-0.00038530,-0.00001355,-0.000011
 88,0.00002078,0.00005950,-0.00002897,0.00001602,-0.00009454,-0.0000217
 8,0.00008485,0.00001704,0.00005199,-0.00013332,0.00440362,0.02834711,-
 0.01220999,0.02172890,0.02337438,-0.01912599,-0.03077269,-0.05426365,0
 .03503724\\0.00000078,0.00000004,-0.00000194,0.00000005,0.00000034,-0.
 00000255,-0.00000107,0.00000171,-0.00000178,-0.00000062,0.00000040,-0.
 00000249,-0.00000719,0.00000477,0.00000087,-0.00000012,0.00000139,-0.0
 0000072,0.00000753,-0.00000774,-0.00000477,-0.00000032,0.00000456,0.00
 000383,0.00000088,0.00000399,0.00000014,-0.00000557,-0.00000718,-0.000
 01195,0.00000045,0.00000122,-0.00000002,0.00000356,0.00000031,0.000009
 33,0.00000089,0.00000046,-0.00000289,-0.00000058,0.00000194,0.00000120
 ,0.00000066,0.00000111,0.00000175,-0.00000085,-0.00000034,0.00000249,0
 .00000105,-0.00000017,0.00000058,-0.00000056,0.00000020,0.00000311,-0.
 00000003,-0.00000037,0.00000279,0.00000037,-0.00000014,0.00000192,0.00
 000140,-0.00000041,-0.00000059,-0.00000138,0.00000025,-0.00000260,0.00
 000025,-0.00000157,-0.00000034,0.00000009,-0.00000080,0.00000046,-0.00
 000065,-0.00000126,0.00000199,0.00000140,0.00000052,0.00000198,-0.0000
 0036,-0.00000297,0.00000201,0.00001144,0.00000029,-0.00001360,-0.00001
 304,-0.00000042,0.00000834,0.00000151,-0.00000011,0.00000345\\\@


 IT PROBABLY IS NOT POSSIBLE FOR A SCIENTIST TO INTERROGATE NATURE 
 FROM A WHOLLY DISINTERESTED VIEWPOINT.
 EVEN IF HE HAS NO PARTICULAR AXE TO GRIND, HE IS LIKELY TO HAVE 
 A DISTINCTIVE WAY OF VIEWING NATURE.

                                                   -- JOHN LOSEE
 Job cpu time:  0 days  5 hours  4 minutes 45.1 seconds.
 File lengths (MBytes):  RWF=    713 Int=      0 D2E=      0 Chk=     20 Scr=      1
 Normal termination of Gaussian 09 at Fri Feb  7 02:48:25 2014.
