 Entering Gaussian System, Link 0=g09
 Initial command:
 /usr/caen/gaussian-09revc/g09/l1.exe /scratch/avioli_flux/hetanjin/scratch/Gau-122196.inp -scrdir=/scratch/avioli_flux/hetanjin/scratch/
 Entering Link 1 = /usr/caen/gaussian-09revc/g09/l1.exe PID=    122197.
  
 Copyright (c) 1988,1990,1992,1993,1995,1998,2003,2009,2011,
            Gaussian, Inc.  All Rights Reserved.
  
 This is part of the Gaussian(R) 09 program.  It is based on
 the Gaussian(R) 03 system (copyright 2003, Gaussian, Inc.),
 the Gaussian(R) 98 system (copyright 1998, Gaussian, Inc.),
 the Gaussian(R) 94 system (copyright 1995, Gaussian, Inc.),
 the Gaussian 92(TM) system (copyright 1992, Gaussian, Inc.),
 the Gaussian 90(TM) system (copyright 1990, Gaussian, Inc.),
 the Gaussian 88(TM) system (copyright 1988, Gaussian, Inc.),
 the Gaussian 86(TM) system (copyright 1986, Carnegie Mellon
 University), and the Gaussian 82(TM) system (copyright 1983,
 Carnegie Mellon University). Gaussian is a federally registered
 trademark of Gaussian, Inc.
  
 This software contains proprietary and confidential information,
 including trade secrets, belonging to Gaussian, Inc.
  
 This software is provided under written license and may be
 used, copied, transmitted, or stored only in accord with that
 written license.
  
 The following legend is applicable only to US Government
 contracts under FAR:
  
                    RESTRICTED RIGHTS LEGEND
  
 Use, reproduction and disclosure by the US Government is
 subject to restrictions as set forth in subparagraphs (a)
 and (c) of the Commercial Computer Software - Restricted
 Rights clause in FAR 52.227-19.
  
 Gaussian, Inc.
 340 Quinnipiac St., Bldg. 40, Wallingford CT 06492
  
  
 ---------------------------------------------------------------
 Warning -- This program may not be used in any manner that
 competes with the business of Gaussian, Inc. or will provide
 assistance to any competitor of Gaussian, Inc.  The licensee
 of this program is prohibited from giving any competitor of
 Gaussian, Inc. access to this program.  By using this program,
 the user acknowledges that Gaussian, Inc. is engaged in the
 business of creating and licensing software in the field of
 computational chemistry and represents and warrants to the
 licensee that it is not a competitor of Gaussian, Inc. and that
 it will not use this program in any manner prohibited above.
 ---------------------------------------------------------------
  

 Cite this work as:
 Gaussian 09, Revision C.01,
 M. J. Frisch, G. W. Trucks, H. B. Schlegel, G. E. Scuseria, 
 M. A. Robb, J. R. Cheeseman, G. Scalmani, V. Barone, B. Mennucci, 
 G. A. Petersson, H. Nakatsuji, M. Caricato, X. Li, H. P. Hratchian, 
 A. F. Izmaylov, J. Bloino, G. Zheng, J. L. Sonnenberg, M. Hada, 
 M. Ehara, K. Toyota, R. Fukuda, J. Hasegawa, M. Ishida, T. Nakajima, 
 Y. Honda, O. Kitao, H. Nakai, T. Vreven, J. A. Montgomery, Jr., 
 J. E. Peralta, F. Ogliaro, M. Bearpark, J. J. Heyd, E. Brothers, 
 K. N. Kudin, V. N. Staroverov, T. Keith, R. Kobayashi, J. Normand, 
 K. Raghavachari, A. Rendell, J. C. Burant, S. S. Iyengar, J. Tomasi, 
 M. Cossi, N. Rega, J. M. Millam, M. Klene, J. E. Knox, J. B. Cross, 
 V. Bakken, C. Adamo, J. Jaramillo, R. Gomperts, R. E. Stratmann, 
 O. Yazyev, A. J. Austin, R. Cammi, C. Pomelli, J. W. Ochterski, 
 R. L. Martin, K. Morokuma, V. G. Zakrzewski, G. A. Voth, 
 P. Salvador, J. J. Dannenberg, S. Dapprich, A. D. Daniels, 
 O. Farkas, J. B. Foresman, J. V. Ortiz, J. Cioslowski, 
 and D. J. Fox, Gaussian, Inc., Wallingford CT, 2010.
 
 ******************************************
 Gaussian 09:  EM64L-G09RevC.01 23-Sep-2011
                 6-Feb-2014 
 ******************************************
 %mem=30GB
 %nprocshared=8
 Will use up to    8 processors via shared memory.
 %chk=C9H18OOH_1_26_d.chk
 --------------------------------------------------
 #p stable=(opt,xqc) ub3lyp/6-311++g(d,p) guess=mix
 --------------------------------------------------
 1/38=1/1;
 2/12=2,17=6,18=5,40=1/2;
 3/5=4,6=6,7=1111,11=2,16=1,25=1,30=1,74=-5,116=2/1,2,3;
 4/13=-1/1;
 5/5=2,38=5/2;
 6/7=2,8=2,9=2,10=2,28=1/1;
 8/6=1,10=90,11=11/1;
 9/8=-3,42=1,46=1/14;
 5/5=2,8=3,13=1,17=40,38=5/2,8(-2);
 6/7=2,8=2,9=2,10=2,28=1/1;
 99/5=1,9=1/99;
 Leave Link    1 at Thu Feb  6 21:54:16 2014, MaxMem= 4026531840 cpu:       0.6
 (Enter /usr/caen/gaussian-09revc/g09/l101.exe)
 -----------------------------------------------------------------
 C9H18OOH_1_26_d using B3LYP/6-311++g(d,p) to do opt and cal. freq
 -----------------------------------------------------------------
 Charge =  0 Multiplicity = 2
 Symbolic Z-Matrix:
 C                    -3.17301  -1.66954  -0.19397 
 H                    -2.87617  -2.71161  -0.33638 
 H                    -3.39945  -1.24766  -1.17651 
 H                    -4.09526  -1.66148   0.39469 
 C                    -2.05413  -0.87986   0.50238 
 H                    -1.87109  -1.34161   1.4836 
 C                    -0.73961  -0.93993  -0.29882 
 H                    -0.8744   -0.42299  -1.25598 
 C                     0.49652  -0.37953   0.41648 
 H                     0.59872  -0.86202   1.39833 
 H                     0.35867   0.68881   0.60351 
 C                     1.78599  -0.59801  -0.38576 
 H                     1.69941  -0.08941  -1.35556 
 H                     1.88007  -1.66787  -0.61185 
 C                     3.08034  -0.13145   0.30742 
 H                     3.12047  -0.61431   1.29398 
 C                     4.31064  -0.59099  -0.48791 
 H                     4.31678  -0.14434  -1.48839 
 H                     5.23878  -0.29712   0.0113 
 H                     4.3251   -1.67831  -0.60927 
 C                    -2.50965   0.54486   0.83292 
 H                    -3.43268   0.53048   1.41751 
 H                    -1.74913   1.12829   1.35099 
 C                     3.11823   1.38842   0.52354 
 H                     4.04969   1.68942   1.01217 
 H                     3.05973   1.91767  -0.43412 
 H                     2.29233   1.73843   1.1474 
 O                    -2.87034   1.29134  -0.37199 
 O                    -1.8763    2.03076  -0.82758 
 H                    -2.2286    2.82553  -1.2348 
 
 NAtoms=     30 NQM=        0 NQMF=       0 NMMI=     30 NMMIF=      0
                NMic=       0 NMicF=      0.
                    Isotopes and Nuclear Properties:
 (Nuclear quadrupole moments (NQMom) in fm**2, nuclear magnetic moments (NMagM)
  in nuclear magnetons)

  Atom         1           2           3           4           5           6           7           8           9          10
 IAtWgt=          12           1           1           1          12           1          12           1          12           1
 AtmWgt=  12.0000000   1.0078250   1.0078250   1.0078250  12.0000000   1.0078250  12.0000000   1.0078250  12.0000000   1.0078250
 NucSpn=           0           1           1           1           0           1           0           1           0           1
 AtZEff=   0.0000000   0.0000000   0.0000000   0.0000000   0.0000000   0.0000000   0.0000000   0.0000000   0.0000000   0.0000000
 NQMom=    0.0000000   0.0000000   0.0000000   0.0000000   0.0000000   0.0000000   0.0000000   0.0000000   0.0000000   0.0000000
 NMagM=    0.0000000   2.7928460   2.7928460   2.7928460   0.0000000   2.7928460   0.0000000   2.7928460   0.0000000   2.7928460

  Atom        11          12          13          14          15          16          17          18          19          20
 IAtWgt=           1          12           1           1          12           1          12           1           1           1
 AtmWgt=   1.0078250  12.0000000   1.0078250   1.0078250  12.0000000   1.0078250  12.0000000   1.0078250   1.0078250   1.0078250
 NucSpn=           1           0           1           1           0           1           0           1           1           1
 AtZEff=   0.0000000   0.0000000   0.0000000   0.0000000   0.0000000   0.0000000   0.0000000   0.0000000   0.0000000   0.0000000
 NQMom=    0.0000000   0.0000000   0.0000000   0.0000000   0.0000000   0.0000000   0.0000000   0.0000000   0.0000000   0.0000000
 NMagM=    2.7928460   0.0000000   2.7928460   2.7928460   0.0000000   2.7928460   0.0000000   2.7928460   2.7928460   2.7928460

  Atom        21          22          23          24          25          26          27          28          29          30
 IAtWgt=          12           1           1          12           1           1           1          16          16           1
 AtmWgt=  12.0000000   1.0078250   1.0078250  12.0000000   1.0078250   1.0078250   1.0078250  15.9949146  15.9949146   1.0078250
 NucSpn=           0           1           1           0           1           1           1           0           0           1
 AtZEff=   0.0000000   0.0000000   0.0000000   0.0000000   0.0000000   0.0000000   0.0000000   0.0000000   0.0000000   0.0000000
 NQMom=    0.0000000   0.0000000   0.0000000   0.0000000   0.0000000   0.0000000   0.0000000   0.0000000   0.0000000   0.0000000
 NMagM=    0.0000000   2.7928460   2.7928460   0.0000000   2.7928460   2.7928460   2.7928460   0.0000000   0.0000000   2.7928460
 Leave Link  101 at Thu Feb  6 21:54:16 2014, MaxMem= 4026531840 cpu:       0.4
 (Enter /usr/caen/gaussian-09revc/g09/l202.exe)
                          Input orientation:                          
 ---------------------------------------------------------------------
 Center     Atomic      Atomic             Coordinates (Angstroms)
 Number     Number       Type             X           Y           Z
 ---------------------------------------------------------------------
      1          6           0       -3.173014   -1.669538   -0.193965
      2          1           0       -2.876169   -2.711612   -0.336378
      3          1           0       -3.399449   -1.247661   -1.176513
      4          1           0       -4.095257   -1.661481    0.394692
      5          6           0       -2.054134   -0.879861    0.502380
      6          1           0       -1.871088   -1.341605    1.483598
      7          6           0       -0.739611   -0.939929   -0.298821
      8          1           0       -0.874402   -0.422986   -1.255980
      9          6           0        0.496519   -0.379528    0.416475
     10          1           0        0.598724   -0.862021    1.398330
     11          1           0        0.358666    0.688807    0.603514
     12          6           0        1.785988   -0.598005   -0.385763
     13          1           0        1.699407   -0.089406   -1.355555
     14          1           0        1.880069   -1.667866   -0.611848
     15          6           0        3.080336   -0.131454    0.307420
     16          1           0        3.120467   -0.614312    1.293978
     17          6           0        4.310638   -0.590989   -0.487909
     18          1           0        4.316782   -0.144337   -1.488392
     19          1           0        5.238775   -0.297116    0.011302
     20          1           0        4.325105   -1.678305   -0.609266
     21          6           0       -2.509649    0.544864    0.832923
     22          1           0       -3.432676    0.530476    1.417505
     23          1           0       -1.749127    1.128289    1.350988
     24          6           0        3.118227    1.388421    0.523541
     25          1           0        4.049695    1.689416    1.012167
     26          1           0        3.059733    1.917672   -0.434118
     27          1           0        2.292328    1.738431    1.147402
     28          8           0       -2.870339    1.291342   -0.371991
     29          8           0       -1.876303    2.030758   -0.827575
     30          1           0       -2.228595    2.825530   -1.234795
 ---------------------------------------------------------------------
                    Distance matrix (angstroms):
                    1          2          3          4          5
     1  C    0.000000
     2  H    1.092848   0.000000
     3  H    1.093002   1.767145   0.000000
     4  H    1.094127   1.767318   1.767507   0.000000
     5  C    1.536352   2.175906   2.182620   2.188312   0.000000
     6  H    2.148667   2.489863   3.069349   2.496991   1.099774
     7  C    2.542592   2.775815   2.817762   3.501708   1.540617
     8  H    2.822301   3.176562   2.657492   3.825244   2.166179
     9  C    3.937288   4.168984   4.297654   4.767419   2.600681
    10  H    4.172948   4.301753   4.771155   4.866198   2.800125
    11  H    4.320941   4.786481   4.587138   5.040326   2.879679
    12  C    5.077073   5.119129   5.285461   6.027365   3.951554
    13  H    5.252294   5.371274   5.231820   6.254032   4.262137
    14  H    5.070333   4.877201   5.326230   6.059512   4.164182
    15  C    6.459216   6.523162   6.740593   7.337420   5.192389
    16  H    6.552509   6.558687   7.000983   7.346560   5.241530
    17  C    7.566685   7.494678   7.768580   8.519625   6.447825
    18  H    7.752343   7.723767   7.800950   8.752721   6.715113
    19  H    8.525484   8.473664   8.771166   9.441008   7.332617
    20  H    7.509617   7.280147   7.757316   8.480018   6.524413
    21  C    2.529452   3.479402   2.835969   2.752119   1.531860
    22  H    2.739402   3.727860   3.145124   2.507954   2.174139
    23  H    3.498881   4.343071   3.841479   3.768507   2.201325
    24  C    7.031759   7.313174   7.233202   7.832806   5.647908
    25  H    8.056355   8.315961   8.300993   8.828931   6.642123
    26  H    7.195338   7.528264   7.231287   8.043081   5.903800
    27  H    6.579018   6.979817   6.834739   7.275109   5.115001
    28  O    2.981630   4.003117   2.715465   3.287460   2.478878
    29  O    3.971790   4.871456   3.631771   4.477759   3.205013
    30  H    4.709660   5.646809   4.238535   5.125712   4.096113
                    6          7          8          9         10
     6  H    0.000000
     7  C    2.149093   0.000000
     8  H    3.056555   1.096153   0.000000
     9  C    2.769460   1.534182   2.162965   0.000000
    10  H    2.517388   2.162760   3.067281   1.098765   0.000000
    11  H    3.141484   2.161759   2.492841   1.093310   1.759099
    12  C    4.173926   2.550122   2.804565   1.534291   2.159233
    13  H    4.730457   2.790857   2.597245   2.161296   3.064689
    14  H    4.309120   2.736896   3.090589   2.152086   2.516356
    15  C    5.231105   3.951349   4.262530   2.597988   2.807528
    16  H    5.047824   4.188465   4.743192   2.776732   2.536028
    17  C    6.531769   5.065820   5.244311   3.925574   4.172489
    18  H    6.968207   5.255012   5.203850   4.275306   4.761532
    19  H    7.335446   6.020837   6.244420   4.760247   4.875760
    20  H    6.548760   5.127663   5.387851   4.170976   4.310763
    21  C    2.095210   2.572642   2.823877   3.172535   3.458467
    22  H    2.438773   3.515745   3.821175   4.155568   4.265161
    23  H    2.476456   2.831699   3.157195   2.861774   3.078308
    24  C    5.767843   4.580437   4.731699   3.163931   3.489648
    25  H    6.668209   5.618683   5.818373   4.154568   4.309078
    26  H    6.213978   4.755965   4.650974   3.545519   4.140184
    27  H    5.189767   4.296257   4.525058   2.871399   3.113456
    28  O    3.372554   3.086086   2.775630   3.840471   4.450327
    29  O    4.088323   3.224381   2.684809   3.603807   4.410055
    30  H    4.988235   4.155936   3.519538   4.519440   5.340891
                   11         12         13         14         15
    11  H    0.000000
    12  C    2.161435   0.000000
    13  H    2.498230   1.098483   0.000000
    14  H    3.057070   1.097528   1.754216   0.000000
    15  C    2.857969   1.540620   2.161994   2.155518   0.000000
    16  H    3.130879   2.145374   3.052042   2.506140   1.099117
    17  C    4.295016   2.526725   2.796949   2.661332   1.535371
    18  H    4.553777   2.797592   2.621319   3.004503   2.180345
    19  H    5.013803   3.488543   3.799811   3.680785   2.184946
    20  H    4.775635   2.768414   3.158455   2.445060   2.186895
    21  C    2.881073   4.609104   4.786218   5.123784   5.655218
    22  H    3.880969   5.635574   5.866208   6.097232   6.640012
    23  H    2.279178   4.300399   4.549785   4.984202   5.098990
    24  C    2.847987   2.558824   2.779932   3.487554   1.535631
    25  H    3.846025   3.508685   3.780763   4.314631   2.179884
    26  H    3.143653   2.820176   2.593819   3.778793   2.179271
    27  H    2.266401   2.840054   3.155525   3.855876   2.196132
    28  O    3.426533   5.025058   4.874058   5.601859   6.156012
    29  O    2.973876   4.529677   4.190413   5.276049   5.525545
    30  H    3.826080   5.343999   4.892917   6.120441   6.269524
                   16         17         18         19         20
    16  H    0.000000
    17  C    2.142935   0.000000
    18  H    3.064903   1.095674   0.000000
    19  H    2.496618   1.094080   1.767058   0.000000
    20  H    2.491098   1.094163   1.768047   1.768497   0.000000
    21  C    5.766669   7.039252   7.243180   7.837223   7.330501
    22  H    6.653532   8.052776   8.303837   8.823626   8.316831
    23  H    5.172316   6.561876   6.817397   7.256536   6.972507
    24  C    2.145814   2.522487   2.798885   2.756837   3.484912
    25  H    2.500009   2.742000   3.112359   2.522291   3.747858
    26  H    3.066096   2.803754   2.635061   3.138775   3.816136
    27  H    2.498539   3.489128   3.819770   3.757090   4.346510
    28  O    6.503593   7.424489   7.413652   8.272112   7.787780
    29  O    6.038634   6.728089   6.597123   7.533064   7.229265
    30  H    6.843952   7.415660   7.192106   8.189340   7.976641
                   21         22         23         24         25
    21  C    0.000000
    22  H    1.092667   0.000000
    23  H    1.089573   1.787776   0.000000
    24  C    5.699149   6.667051   4.944034   0.000000
    25  H    6.660865   7.582435   5.835752   1.094069   0.000000
    26  H    5.874352   6.892329   5.189881   1.095737   1.767446
    27  H    4.958072   5.857284   4.092320   1.092620   1.763244
    28  O    1.462581   2.024212   2.062125   6.055933   7.068326
    29  O    2.316519   3.116653   2.361517   5.213775   6.214388
    30  H    3.091260   3.708339   3.129983   5.809091   6.764357
                   26         27         28         29         30
    26  H    0.000000
    27  H    1.766987   0.000000
    28  O    5.963380   5.400146   0.000000
    29  O    4.952984   4.622064   1.320000   0.000000
    30  H    5.425099   5.224499   1.873499   0.960000   0.000000
 Stoichiometry    C9H19O2(2)
 Framework group  C1[X(C9H19O2)]
 Deg. of freedom    84
 Full point group                 C1      NOp   1
 Largest Abelian subgroup         C1      NOp   1
 Largest concise Abelian subgroup C1      NOp   1
                         Standard orientation:                         
 ---------------------------------------------------------------------
 Center     Atomic      Atomic             Coordinates (Angstroms)
 Number     Number       Type             X           Y           Z
 ---------------------------------------------------------------------
      1          6           0       -3.129924   -1.758054   -0.260883
      2          1           0       -2.818733   -2.787334   -0.455973
      3          1           0       -3.366483   -1.291222   -1.220446
      4          1           0       -4.049731   -1.792680    0.330616
      5          6           0       -2.019619   -0.987746    0.470024
      6          1           0       -1.825877   -1.494958    1.426425
      7          6           0       -0.707713   -0.988791   -0.337692
      8          1           0       -0.853898   -0.426947   -1.267484
      9          6           0        0.523203   -0.446686    0.400336
     10          1           0        0.636414   -0.975827    1.356619
     11          1           0        0.370794    0.608916    0.640755
     12          6           0        1.812329   -0.606241   -0.416208
     13          1           0        1.714416   -0.051401   -1.359199
     14          1           0        1.920831   -1.662065   -0.695550
     15          6           0        3.102713   -0.155914    0.294865
     16          1           0        3.153881   -0.686557    1.256041
     17          6           0        4.336171   -0.557408   -0.526565
     18          1           0        4.331735   -0.061557   -1.503609
     19          1           0        5.262059   -0.275221   -0.016552
     20          1           0        4.365754   -1.637026   -0.701904
     21          6           0       -2.494178    0.412014    0.872588
     22          1           0       -3.414463    0.355165    1.458903
     23          1           0       -1.739968    0.979988    1.416411
     24          6           0        3.119661    1.351736    0.586184
     25          1           0        4.048733    1.641610    1.085969
     26          1           0        3.049586    1.927007   -0.343758
     27          1           0        2.291421    1.658258    1.229521
     28          8           0       -2.870565    1.212106   -0.292457
     29          8           0       -1.889160    1.987636   -0.714117
     30          1           0       -2.254526    2.796447   -1.080087
 ---------------------------------------------------------------------
 Rotational constants (GHZ):      1.7979773      0.4322406      0.3790715
 Leave Link  202 at Thu Feb  6 21:54:16 2014, MaxMem= 4026531840 cpu:       0.3
 (Enter /usr/caen/gaussian-09revc/g09/l301.exe)
 Standard basis: 6-311++G(d,p) (5D, 7F)
 Ernie: Thresh=  0.10000D-02 Tol=  0.10000D-05 Strict=F.
 There are   375 symmetry adapted basis functions of A   symmetry.
 Integral buffers will be    131072 words long.
 Raffenetti 2 integral format.
 Two-electron integral symmetry is turned on.
   375 basis functions,   567 primitive gaussians,   386 cartesian basis functions
    45 alpha electrons       44 beta electrons
       nuclear repulsion energy       647.7762869803 Hartrees.
 IExCor=  402 DFT=T Ex+Corr=B3LYP ExCW=0 ScaHFX=  0.200000
 ScaDFX=  0.800000  0.720000  1.000000  0.810000 ScalE2=  1.000000  1.000000
 IRadAn=      0 IRanWt=     -1 IRanGd=            0 ICorTp=0
 NAtoms=   30 NActive=   30 NUniq=   30 SFac= 1.00D+00 NAtFMM=   60 NAOKFM=F Big=F
 Leave Link  301 at Thu Feb  6 21:54:16 2014, MaxMem= 4026531840 cpu:       0.7
 (Enter /usr/caen/gaussian-09revc/g09/l302.exe)
 NPDir=0 NMtPBC=     1 NCelOv=     1 NCel=       1 NClECP=     1 NCelD=      1
         NCelK=      1 NCelE2=     1 NClLst=     1 CellRange=     0.0.
 One-electron integrals computed using PRISM.
 NBasis=   375 RedAO= T  NBF=   375
 NBsUse=   375 1.00D-06 NBFU=   375
 Precomputing XC quadrature grid using
 IXCGrd= 2 IRadAn=           0 IRanWt=          -1 IRanGd=           0 AccXCQ= 0.00D+00.
 NRdTot=    1961 NPtTot=      250122 NUsed=      264252 NTot=      264284
 NSgBfM=   386   386   386   386   386 NAtAll=    30    30.
 Leave Link  302 at Thu Feb  6 21:54:18 2014, MaxMem= 4026531840 cpu:      10.0
 (Enter /usr/caen/gaussian-09revc/g09/l303.exe)
 DipDrv:  MaxL=1.
 Leave Link  303 at Thu Feb  6 21:54:19 2014, MaxMem= 4026531840 cpu:       1.4
 (Enter /usr/caen/gaussian-09revc/g09/l401.exe)
 Harris functional with IExCor=  402 diagonalized for initial guess.
 ExpMin= 3.60D-02 ExpMax= 8.59D+03 ExpMxC= 1.30D+03 IAcc=3 IRadAn=         5 AccDes= 0.00D+00
 HarFok:  IExCor=  402 AccDes= 0.00D+00 IRadAn=         5 IDoV= 1
 ScaDFX=  1.000000  1.000000  1.000000  1.000000
 FoFCou: FMM=F IPFlag=           0 FMFlag=      100000 FMFlg1=           0
         NFxFlg=           0 DoJE=T BraDBF=F KetDBF=T FulRan=T
         Omega=  0.000000  0.000000  1.000000  0.000000  0.000000 ICntrl=     500 IOpCl=  0
         NMat0=    1 NMatS0=    1 NMatT0=    0 NMatD0=    1 NMtDS0=    0 NMtDT0=    0
         I1Cent=           4 NGrid=           0.
 Petite list used in FoFCou.
 Harris En= -504.876021557853    
 Mixing orbitals, IMix= 1 IMixAn=  0 NRI=1 NE=   45 Coef=  7.07106781D-01  7.07106781D-01
 Mixing orbitals, IMix= 1 IMixAn=  0 NRI=1 NE=   44 Coef= -7.07106781D-01  7.07106781D-01
 Initial guess orbital symmetries:
 Alpha Orbitals:
       Occupied  (A) (A) (A) (A) (A) (A) (A) (A) (A) (A) (A) (A)
                 (A) (A) (A) (A) (A) (A) (A) (A) (A) (A) (A) (A)
                 (A) (A) (A) (A) (A) (A) (A) (A) (A) (A) (A) (A)
                 (A) (A) (A) (A) (A) (A) (A) (A) (A)
       Virtual   (A) (A) (A) (A) (A) (A) (A) (A) (A) (A) (A) (A)
                 (A) (A) (A) (A) (A) (A) (A) (A) (A) (A) (A) (A)
                 (A) (A) (A) (A) (A) (A) (A) (A) (A) (A) (A) (A)
                 (A) (A) (A) (A) (A) (A) (A) (A) (A) (A) (A) (A)
                 (A) (A) (A) (A) (A) (A) (A) (A) (A) (A) (A) (A)
                 (A) (A) (A) (A) (A) (A) (A) (A) (A) (A) (A) (A)
                 (A) (A) (A) (A) (A) (A) (A) (A) (A) (A) (A) (A)
                 (A) (A) (A) (A) (A) (A) (A) (A) (A) (A) (A) (A)
                 (A) (A) (A) (A) (A) (A) (A) (A) (A) (A) (A) (A)
                 (A) (A) (A) (A) (A) (A) (A) (A) (A) (A) (A) (A)
                 (A) (A) (A) (A) (A) (A) (A) (A) (A) (A) (A) (A)
                 (A) (A) (A) (A) (A) (A) (A) (A) (A) (A) (A) (A)
                 (A) (A) (A) (A) (A) (A) (A) (A) (A) (A) (A) (A)
                 (A) (A) (A) (A) (A) (A) (A) (A) (A) (A) (A) (A)
                 (A) (A) (A) (A) (A) (A) (A) (A) (A) (A) (A) (A)
                 (A) (A) (A) (A) (A) (A) (A) (A) (A) (A) (A) (A)
                 (A) (A) (A) (A) (A) (A) (A) (A) (A) (A) (A) (A)
                 (A) (A) (A) (A) (A) (A) (A) (A) (A) (A) (A) (A)
                 (A) (A) (A) (A) (A) (A) (A) (A) (A) (A) (A) (A)
                 (A) (A) (A) (A) (A) (A) (A) (A) (A) (A) (A) (A)
                 (A) (A) (A) (A) (A) (A) (A) (A) (A) (A) (A) (A)
                 (A) (A) (A) (A) (A) (A) (A) (A) (A) (A) (A) (A)
                 (A) (A) (A) (A) (A) (A) (A) (A) (A) (A) (A) (A)
                 (A) (A) (A) (A) (A) (A) (A) (A) (A) (A) (A) (A)
                 (A) (A) (A) (A) (A) (A) (A) (A) (A) (A) (A) (A)
                 (A) (A) (A) (A) (A) (A) (A) (A) (A) (A) (A) (A)
                 (A) (A) (A) (A) (A) (A) (A) (A) (A) (A) (A) (A)
                 (A) (A) (A) (A) (A) (A)
 Beta  Orbitals:
       Occupied  (A) (A) (A) (A) (A) (A) (A) (A) (A) (A) (A) (A)
                 (A) (A) (A) (A) (A) (A) (A) (A) (A) (A) (A) (A)
                 (A) (A) (A) (A) (A) (A) (A) (A) (A) (A) (A) (A)
                 (A) (A) (A) (A) (A) (A) (A) (A)
       Virtual   (A) (A) (A) (A) (A) (A) (A) (A) (A) (A) (A) (A)
                 (A) (A) (A) (A) (A) (A) (A) (A) (A) (A) (A) (A)
                 (A) (A) (A) (A) (A) (A) (A) (A) (A) (A) (A) (A)
                 (A) (A) (A) (A) (A) (A) (A) (A) (A) (A) (A) (A)
                 (A) (A) (A) (A) (A) (A) (A) (A) (A) (A) (A) (A)
                 (A) (A) (A) (A) (A) (A) (A) (A) (A) (A) (A) (A)
                 (A) (A) (A) (A) (A) (A) (A) (A) (A) (A) (A) (A)
                 (A) (A) (A) (A) (A) (A) (A) (A) (A) (A) (A) (A)
                 (A) (A) (A) (A) (A) (A) (A) (A) (A) (A) (A) (A)
                 (A) (A) (A) (A) (A) (A) (A) (A) (A) (A) (A) (A)
                 (A) (A) (A) (A) (A) (A) (A) (A) (A) (A) (A) (A)
                 (A) (A) (A) (A) (A) (A) (A) (A) (A) (A) (A) (A)
                 (A) (A) (A) (A) (A) (A) (A) (A) (A) (A) (A) (A)
                 (A) (A) (A) (A) (A) (A) (A) (A) (A) (A) (A) (A)
                 (A) (A) (A) (A) (A) (A) (A) (A) (A) (A) (A) (A)
                 (A) (A) (A) (A) (A) (A) (A) (A) (A) (A) (A) (A)
                 (A) (A) (A) (A) (A) (A) (A) (A) (A) (A) (A) (A)
                 (A) (A) (A) (A) (A) (A) (A) (A) (A) (A) (A) (A)
                 (A) (A) (A) (A) (A) (A) (A) (A) (A) (A) (A) (A)
                 (A) (A) (A) (A) (A) (A) (A) (A) (A) (A) (A) (A)
                 (A) (A) (A) (A) (A) (A) (A) (A) (A) (A) (A) (A)
                 (A) (A) (A) (A) (A) (A) (A) (A) (A) (A) (A) (A)
                 (A) (A) (A) (A) (A) (A) (A) (A) (A) (A) (A) (A)
                 (A) (A) (A) (A) (A) (A) (A) (A) (A) (A) (A) (A)
                 (A) (A) (A) (A) (A) (A) (A) (A) (A) (A) (A) (A)
                 (A) (A) (A) (A) (A) (A) (A) (A) (A) (A) (A) (A)
                 (A) (A) (A) (A) (A) (A) (A) (A) (A) (A) (A) (A)
                 (A) (A) (A) (A) (A) (A) (A)
 The electronic state of the initial guess is 2-A.
 Initial guess <Sx>= 0.0000 <Sy>= 0.0000 <Sz>= 0.5000 <S**2>= 1.0000 S= 0.6180
 Leave Link  401 at Thu Feb  6 21:54:23 2014, MaxMem= 4026531840 cpu:      29.3
 (Enter /usr/caen/gaussian-09revc/g09/l502.exe)
 UHF open shell SCF:
 Requested convergence on RMS density matrix=1.00D-08 within 128 cycles.
 Requested convergence on MAX density matrix=1.00D-06.
 Requested convergence on             energy=1.00D-06.
 No special actions if energy rises.
 Using DIIS extrapolation, IDIIS=  1040.
 Integral symmetry usage will be decided dynamically.
       263969 words used for storage of precomputed grid.
 IEnd=      735103 IEndB=      735103 NGot=  4026531840 MDV=  4025962760
 LenX=  4025962760 LenY=  4025813323
 Fock matrices will be formed incrementally for  20 cycles.

 Cycle   1  Pass 1  IDiag  1:
 FoFCou: FMM=F IPFlag=           0 FMFlag=      100000 FMFlg1=           0
         NFxFlg=           0 DoJE=F BraDBF=F KetDBF=F FulRan=T
         Omega=  0.000000  0.000000  1.000000  0.000000  0.000000 ICntrl=       0 IOpCl=  1
         NMat0=    1 NMatS0=    1 NMatT0=    0 NMatD0=    1 NMtDS0=    0 NMtDT0=    0
         I1Cent=           0 NGrid=           0.
 Symmetry not used in FoFCou.
 E= -504.335767881815    
 DIIS: error= 4.37D-02 at cycle   1 NSaved=   1.
 NSaved= 1 IEnMin= 1 EnMin= -504.335767881815     IErMin= 1 ErrMin= 4.37D-02
 ErrMax= 4.37D-02 EMaxC= 1.00D-01 BMatC= 1.49D+00 BMatP= 1.49D+00
 IDIUse=3 WtCom= 5.63D-01 WtEn= 4.37D-01
 Coeff-Com:  0.100D+01
 Coeff-En:   0.100D+01
 Coeff:      0.100D+01
 Gap=     0.030 Goal=   None    Shift=    0.000
 Gap=     0.094 Goal=   None    Shift=    0.000
 GapD=    0.030 DampG=0.250 DampE=0.500 DampFc=0.2500 IDamp=-1.
 Damping current iteration by 2.50D-01
 RMSDP=1.86D-02 MaxDP=2.16D+00              OVMax= 5.05D-01

 Cycle   2  Pass 1  IDiag  1:
 RMSU=  2.35D-03    CP:  8.81D-01
 E= -504.491388673522     Delta-E=       -0.155620791707 Rises=F Damp=T
 DIIS: error= 1.85D-02 at cycle   2 NSaved=   2.
 NSaved= 2 IEnMin= 2 EnMin= -504.491388673522     IErMin= 2 ErrMin= 1.85D-02
 ErrMax= 1.85D-02 EMaxC= 1.00D-01 BMatC= 3.88D-01 BMatP= 1.49D+00
 IDIUse=3 WtCom= 8.15D-01 WtEn= 1.85D-01
 Coeff-Com: -0.822D+00 0.182D+01
 Coeff-En:   0.000D+00 0.100D+01
 Coeff:     -0.670D+00 0.167D+01
 Gap=     0.254 Goal=   None    Shift=    0.000
 Gap=     0.200 Goal=   None    Shift=    0.000
 RMSDP=1.09D-02 MaxDP=1.23D+00 DE=-1.56D-01 OVMax= 1.76D-01

 Cycle   3  Pass 1  IDiag  1:
 RMSU=  4.56D-03    CP:  6.06D-01  2.48D+00
 E= -504.815766523183     Delta-E=       -0.324377849661 Rises=F Damp=F
 DIIS: error= 3.65D-03 at cycle   3 NSaved=   3.
 NSaved= 3 IEnMin= 3 EnMin= -504.815766523183     IErMin= 3 ErrMin= 3.65D-03
 ErrMax= 3.65D-03 EMaxC= 1.00D-01 BMatC= 2.92D-02 BMatP= 3.88D-01
 IDIUse=3 WtCom= 9.64D-01 WtEn= 3.65D-02
 Coeff-Com: -0.226D+00 0.522D+00 0.704D+00
 Coeff-En:   0.000D+00 0.000D+00 0.100D+01
 Coeff:     -0.218D+00 0.503D+00 0.715D+00
 Gap=     0.199 Goal=   None    Shift=    0.000
 Gap=     0.149 Goal=   None    Shift=    0.000
 RMSDP=1.40D-03 MaxDP=1.79D-01 DE=-3.24D-01 OVMax= 5.32D-02

 Cycle   4  Pass 1  IDiag  1:
 RMSU=  8.71D-04    CP:  5.85D-01  2.47D+00  9.57D-01
 E= -504.821041453993     Delta-E=       -0.005274930810 Rises=F Damp=F
 DIIS: error= 2.36D-03 at cycle   4 NSaved=   4.
 NSaved= 4 IEnMin= 4 EnMin= -504.821041453993     IErMin= 4 ErrMin= 2.36D-03
 ErrMax= 2.36D-03 EMaxC= 1.00D-01 BMatC= 1.13D-02 BMatP= 2.92D-02
 IDIUse=3 WtCom= 9.76D-01 WtEn= 2.36D-02
 Coeff-Com: -0.300D-01 0.721D-01 0.379D+00 0.579D+00
 Coeff-En:   0.000D+00 0.000D+00 0.158D+00 0.842D+00
 Coeff:     -0.293D-01 0.704D-01 0.374D+00 0.585D+00
 Gap=     0.196 Goal=   None    Shift=    0.000
 Gap=     0.165 Goal=   None    Shift=    0.000
 RMSDP=7.87D-04 MaxDP=1.13D-01 DE=-5.27D-03 OVMax= 1.23D-02

 Cycle   5  Pass 1  IDiag  1:
 RMSU=  4.23D-04    CP:  5.71D-01  2.38D+00  9.77D-01  8.75D-01
 E= -504.823581460036     Delta-E=       -0.002540006043 Rises=F Damp=F
 DIIS: error= 8.82D-04 at cycle   5 NSaved=   5.
 NSaved= 5 IEnMin= 5 EnMin= -504.823581460036     IErMin= 5 ErrMin= 8.82D-04
 ErrMax= 8.82D-04 EMaxC= 1.00D-01 BMatC= 9.86D-04 BMatP= 1.13D-02
 IDIUse=3 WtCom= 9.91D-01 WtEn= 8.82D-03
 Coeff-Com:  0.950D-02-0.215D-01 0.516D-01 0.245D+00 0.715D+00
 Coeff-En:   0.000D+00 0.000D+00 0.000D+00 0.000D+00 0.100D+01
 Coeff:      0.942D-02-0.213D-01 0.512D-01 0.243D+00 0.718D+00
 Gap=     0.199 Goal=   None    Shift=    0.000
 Gap=     0.169 Goal=   None    Shift=    0.000
 RMSDP=2.92D-04 MaxDP=3.78D-02 DE=-2.54D-03 OVMax= 7.19D-03

 Cycle   6  Pass 1  IDiag  1:
 RMSU=  1.38D-04    CP:  5.75D-01  2.40D+00  9.85D-01  9.33D-01  7.82D-01
 E= -504.823761659193     Delta-E=       -0.000180199157 Rises=F Damp=F
 DIIS: error= 4.37D-04 at cycle   6 NSaved=   6.
 NSaved= 6 IEnMin= 6 EnMin= -504.823761659193     IErMin= 6 ErrMin= 4.37D-04
 ErrMax= 4.37D-04 EMaxC= 1.00D-01 BMatC= 3.02D-04 BMatP= 9.86D-04
 IDIUse=3 WtCom= 9.96D-01 WtEn= 4.37D-03
 Coeff-Com:  0.889D-02-0.195D-01-0.188D-01 0.637D-01 0.414D+00 0.552D+00
 Coeff-En:   0.000D+00 0.000D+00 0.000D+00 0.000D+00 0.111D-01 0.989D+00
 Coeff:      0.885D-02-0.194D-01-0.187D-01 0.635D-01 0.412D+00 0.554D+00
 Gap=     0.201 Goal=   None    Shift=    0.000
 Gap=     0.169 Goal=   None    Shift=    0.000
 RMSDP=9.91D-05 MaxDP=1.00D-02 DE=-1.80D-04 OVMax= 3.13D-03

 Cycle   7  Pass 1  IDiag  1:
 RMSU=  6.72D-05    CP:  5.75D-01  2.40D+00  9.82D-01  9.68D-01  8.12D-01
                    CP:  9.47D-01
 E= -504.823822270672     Delta-E=       -0.000060611478 Rises=F Damp=F
 DIIS: error= 1.15D-04 at cycle   7 NSaved=   7.
 NSaved= 7 IEnMin= 7 EnMin= -504.823822270672     IErMin= 7 ErrMin= 1.15D-04
 ErrMax= 1.15D-04 EMaxC= 1.00D-01 BMatC= 2.14D-05 BMatP= 3.02D-04
 IDIUse=3 WtCom= 9.99D-01 WtEn= 1.15D-03
 Coeff-Com:  0.103D-03-0.119D-03-0.129D-01-0.218D-01 0.484D-02 0.207D+00
 Coeff-Com:  0.823D+00
 Coeff-En:   0.000D+00 0.000D+00 0.000D+00 0.000D+00 0.000D+00 0.000D+00
 Coeff-En:   0.100D+01
 Coeff:      0.103D-03-0.119D-03-0.128D-01-0.217D-01 0.484D-02 0.207D+00
 Coeff:      0.823D+00
 Gap=     0.201 Goal=   None    Shift=    0.000
 Gap=     0.169 Goal=   None    Shift=    0.000
 RMSDP=4.17D-05 MaxDP=3.55D-03 DE=-6.06D-05 OVMax= 8.17D-04

 Cycle   8  Pass 1  IDiag  1:
 RMSU=  2.91D-05    CP:  5.75D-01  2.40D+00  9.81D-01  9.75D-01  8.24D-01
                    CP:  1.00D+00  1.11D+00
 E= -504.823828101819     Delta-E=       -0.000005831148 Rises=F Damp=F
 DIIS: error= 2.53D-05 at cycle   8 NSaved=   8.
 NSaved= 8 IEnMin= 8 EnMin= -504.823828101819     IErMin= 8 ErrMin= 2.53D-05
 ErrMax= 2.53D-05 EMaxC= 1.00D-01 BMatC= 1.93D-06 BMatP= 2.14D-05
 IDIUse=1 WtCom= 1.00D+00 WtEn= 0.00D+00
 Coeff-Com: -0.672D-03 0.146D-02-0.214D-02-0.125D-01-0.323D-01 0.248D-01
 Coeff-Com:  0.278D+00 0.744D+00
 Coeff:     -0.672D-03 0.146D-02-0.214D-02-0.125D-01-0.323D-01 0.248D-01
 Coeff:      0.278D+00 0.744D+00
 Gap=     0.201 Goal=   None    Shift=    0.000
 Gap=     0.169 Goal=   None    Shift=    0.000
 RMSDP=1.40D-05 MaxDP=2.28D-03 DE=-5.83D-06 OVMax= 2.29D-04

 Cycle   9  Pass 1  IDiag  1:
 RMSU=  6.59D-06    CP:  5.75D-01  2.40D+00  9.82D-01  9.74D-01  8.20D-01
                    CP:  1.03D+00  1.18D+00  9.54D-01
 E= -504.823828696353     Delta-E=       -0.000000594534 Rises=F Damp=F
 DIIS: error= 1.14D-05 at cycle   9 NSaved=   9.
 NSaved= 9 IEnMin= 9 EnMin= -504.823828696353     IErMin= 9 ErrMin= 1.14D-05
 ErrMax= 1.14D-05 EMaxC= 1.00D-01 BMatC= 3.31D-07 BMatP= 1.93D-06
 IDIUse=1 WtCom= 1.00D+00 WtEn= 0.00D+00
 Coeff-Com: -0.246D-03 0.474D-03 0.108D-02-0.147D-02-0.125D-01-0.236D-01
 Coeff-Com: -0.310D-01 0.270D+00 0.797D+00
 Coeff:     -0.246D-03 0.474D-03 0.108D-02-0.147D-02-0.125D-01-0.236D-01
 Coeff:     -0.310D-01 0.270D+00 0.797D+00
 Gap=     0.201 Goal=   None    Shift=    0.000
 Gap=     0.169 Goal=   None    Shift=    0.000
 RMSDP=4.45D-06 MaxDP=5.31D-04 DE=-5.95D-07 OVMax= 9.87D-05

 Cycle  10  Pass 1  IDiag  1:
 RMSU=  1.80D-06    CP:  5.75D-01  2.40D+00  9.82D-01  9.74D-01  8.23D-01
                    CP:  1.03D+00  1.19D+00  1.02D+00  9.54D-01
 E= -504.823828802308     Delta-E=       -0.000000105954 Rises=F Damp=F
 DIIS: error= 4.59D-06 at cycle  10 NSaved=  10.
 NSaved=10 IEnMin=10 EnMin= -504.823828802308     IErMin=10 ErrMin= 4.59D-06
 ErrMax= 4.59D-06 EMaxC= 1.00D-01 BMatC= 4.82D-08 BMatP= 3.31D-07
 IDIUse=1 WtCom= 1.00D+00 WtEn= 0.00D+00
 Coeff-Com: -0.244D-04 0.367D-04 0.544D-03 0.814D-03-0.927D-03-0.121D-01
 Coeff-Com: -0.438D-01 0.803D-02 0.309D+00 0.738D+00
 Coeff:     -0.244D-04 0.367D-04 0.544D-03 0.814D-03-0.927D-03-0.121D-01
 Coeff:     -0.438D-01 0.803D-02 0.309D+00 0.738D+00
 Gap=     0.201 Goal=   None    Shift=    0.000
 Gap=     0.169 Goal=   None    Shift=    0.000
 RMSDP=1.54D-06 MaxDP=1.42D-04 DE=-1.06D-07 OVMax= 3.98D-05

 Cycle  11  Pass 1  IDiag  1:
 RMSU=  8.31D-07    CP:  5.75D-01  2.40D+00  9.82D-01  9.74D-01  8.22D-01
                    CP:  1.03D+00  1.19D+00  1.03D+00  9.05D-01  8.27D-01
 E= -504.823828816500     Delta-E=       -0.000000014193 Rises=F Damp=F
 DIIS: error= 1.76D-06 at cycle  11 NSaved=  11.
 NSaved=11 IEnMin=11 EnMin= -504.823828816500     IErMin=11 ErrMin= 1.76D-06
 ErrMax= 1.76D-06 EMaxC= 1.00D-01 BMatC= 6.07D-09 BMatP= 4.82D-08
 IDIUse=1 WtCom= 1.00D+00 WtEn= 0.00D+00
 Coeff-Com:  0.207D-04-0.393D-04 0.956D-04 0.583D-03 0.116D-02-0.206D-02
 Coeff-Com: -0.134D-01-0.311D-01 0.166D-01 0.288D+00 0.741D+00
 Coeff:      0.207D-04-0.393D-04 0.956D-04 0.583D-03 0.116D-02-0.206D-02
 Coeff:     -0.134D-01-0.311D-01 0.166D-01 0.288D+00 0.741D+00
 Gap=     0.201 Goal=   None    Shift=    0.000
 Gap=     0.169 Goal=   None    Shift=    0.000
 RMSDP=5.98D-07 MaxDP=3.51D-05 DE=-1.42D-08 OVMax= 1.34D-05

 Cycle  12  Pass 1  IDiag  1:
 RMSU=  2.32D-07    CP:  5.75D-01  2.40D+00  9.82D-01  9.74D-01  8.22D-01
                    CP:  1.03D+00  1.19D+00  1.02D+00  9.34D-01  8.67D-01
                    CP:  8.15D-01
 E= -504.823828818364     Delta-E=       -0.000000001863 Rises=F Damp=F
 DIIS: error= 4.07D-07 at cycle  12 NSaved=  12.
 NSaved=12 IEnMin=12 EnMin= -504.823828818364     IErMin=12 ErrMin= 4.07D-07
 ErrMax= 4.07D-07 EMaxC= 1.00D-01 BMatC= 5.59D-10 BMatP= 6.07D-09
 IDIUse=1 WtCom= 1.00D+00 WtEn= 0.00D+00
 Coeff-Com:  0.108D-04-0.180D-04-0.657D-05 0.143D-03 0.461D-03 0.279D-03
 Coeff-Com: -0.107D-02-0.112D-01-0.201D-01 0.358D-01 0.256D+00 0.740D+00
 Coeff:      0.108D-04-0.180D-04-0.657D-05 0.143D-03 0.461D-03 0.279D-03
 Coeff:     -0.107D-02-0.112D-01-0.201D-01 0.358D-01 0.256D+00 0.740D+00
 Gap=     0.201 Goal=   None    Shift=    0.000
 Gap=     0.169 Goal=   None    Shift=    0.000
 RMSDP=2.72D-07 MaxDP=3.60D-05 DE=-1.86D-09 OVMax= 3.73D-06

 Cycle  13  Pass 1  IDiag  1:
 RMSU=  1.20D-07    CP:  5.75D-01  2.40D+00  9.82D-01  9.74D-01  8.22D-01
                    CP:  1.03D+00  1.19D+00  1.02D+00  9.28D-01  8.63D-01
                    CP:  8.62D-01  8.70D-01
 E= -504.823828818510     Delta-E=       -0.000000000146 Rises=F Damp=F
 DIIS: error= 2.34D-07 at cycle  13 NSaved=  13.
 NSaved=13 IEnMin=13 EnMin= -504.823828818510     IErMin=13 ErrMin= 2.34D-07
 ErrMax= 2.34D-07 EMaxC= 1.00D-01 BMatC= 1.36D-10 BMatP= 5.59D-10
 IDIUse=1 WtCom= 1.00D+00 WtEn= 0.00D+00
 Coeff-Com:  0.145D-05-0.161D-05-0.157D-04-0.295D-04 0.314D-04 0.452D-03
 Coeff-Com:  0.156D-02 0.340D-04-0.114D-01-0.311D-01-0.827D-02 0.342D+00
 Coeff-Com:  0.706D+00
 Coeff:      0.145D-05-0.161D-05-0.157D-04-0.295D-04 0.314D-04 0.452D-03
 Coeff:      0.156D-02 0.340D-04-0.114D-01-0.311D-01-0.827D-02 0.342D+00
 Coeff:      0.706D+00
 Gap=     0.201 Goal=   None    Shift=    0.000
 Gap=     0.169 Goal=   None    Shift=    0.000
 RMSDP=8.97D-08 MaxDP=1.15D-05 DE=-1.46D-10 OVMax= 1.63D-06

 Cycle  14  Pass 1  IDiag  1:
 RMSU=  2.95D-08    CP:  5.75D-01  2.40D+00  9.82D-01  9.74D-01  8.22D-01
                    CP:  1.03D+00  1.19D+00  1.02D+00  9.24D-01  8.67D-01
                    CP:  8.65D-01  9.30D-01  9.36D-01
 E= -504.823828818554     Delta-E=       -0.000000000044 Rises=F Damp=F
 DIIS: error= 7.44D-08 at cycle  14 NSaved=  14.
 NSaved=14 IEnMin=14 EnMin= -504.823828818554     IErMin=14 ErrMin= 7.44D-08
 ErrMax= 7.44D-08 EMaxC= 1.00D-01 BMatC= 1.23D-11 BMatP= 1.36D-10
 IDIUse=1 WtCom= 1.00D+00 WtEn= 0.00D+00
 Coeff-Com: -0.664D-07-0.654D-06-0.285D-05-0.241D-04-0.368D-04 0.939D-04
 Coeff-Com:  0.509D-03 0.139D-02-0.294D-03-0.133D-01-0.384D-01 0.117D-02
 Coeff-Com:  0.232D+00 0.817D+00
 Coeff:     -0.664D-07-0.654D-06-0.285D-05-0.241D-04-0.368D-04 0.939D-04
 Coeff:      0.509D-03 0.139D-02-0.294D-03-0.133D-01-0.384D-01 0.117D-02
 Coeff:      0.232D+00 0.817D+00
 Gap=     0.201 Goal=   None    Shift=    0.000
 Gap=     0.169 Goal=   None    Shift=    0.000
 RMSDP=2.94D-08 MaxDP=3.98D-06 DE=-4.39D-11 OVMax= 7.06D-07

 Cycle  15  Pass 1  IDiag  1:
 RMSU=  1.40D-08    CP:  5.75D-01  2.40D+00  9.82D-01  9.74D-01  8.22D-01
                    CP:  1.03D+00  1.19D+00  1.02D+00  9.25D-01  8.63D-01
                    CP:  8.63D-01  9.67D-01  8.85D-01  8.67D-01
 E= -504.823828818556     Delta-E=       -0.000000000003 Rises=F Damp=F
 DIIS: error= 3.05D-08 at cycle  15 NSaved=  15.
 NSaved=15 IEnMin=15 EnMin= -504.823828818556     IErMin=15 ErrMin= 3.05D-08
 ErrMax= 3.05D-08 EMaxC= 1.00D-01 BMatC= 2.28D-12 BMatP= 1.23D-11
 IDIUse=1 WtCom= 1.00D+00 WtEn= 0.00D+00
 Coeff-Com: -0.886D-06 0.155D-05-0.149D-05-0.122D-04-0.251D-04 0.220D-04
 Coeff-Com:  0.182D-03 0.590D-03 0.465D-03-0.333D-02-0.148D-01-0.306D-01
 Coeff-Com:  0.291D-01 0.343D+00 0.675D+00
 Coeff:     -0.886D-06 0.155D-05-0.149D-05-0.122D-04-0.251D-04 0.220D-04
 Coeff:      0.182D-03 0.590D-03 0.465D-03-0.333D-02-0.148D-01-0.306D-01
 Coeff:      0.291D-01 0.343D+00 0.675D+00
 Gap=     0.201 Goal=   None    Shift=    0.000
 Gap=     0.169 Goal=   None    Shift=    0.000
 RMSDP=1.04D-08 MaxDP=7.28D-07 DE=-2.50D-12 OVMax= 2.17D-07

 Cycle  16  Pass 1  IDiag  1:
 RMSU=  4.43D-09    CP:  5.75D-01  2.40D+00  9.82D-01  9.74D-01  8.22D-01
                    CP:  1.03D+00  1.19D+00  1.02D+00  9.25D-01  8.63D-01
                    CP:  8.60D-01  9.63D-01  9.12D-01  8.98D-01  9.92D-01
 E= -504.823828818558     Delta-E=       -0.000000000002 Rises=F Damp=F
 DIIS: error= 1.36D-08 at cycle  16 NSaved=  16.
 NSaved=16 IEnMin=16 EnMin= -504.823828818558     IErMin=16 ErrMin= 1.36D-08
 ErrMax= 1.36D-08 EMaxC= 1.00D-01 BMatC= 4.82D-13 BMatP= 2.28D-12
 IDIUse=1 WtCom= 1.00D+00 WtEn= 0.00D+00
 Coeff-Com: -0.213D-06 0.353D-06 0.510D-06 0.470D-06-0.408D-05-0.196D-04
 Coeff-Com: -0.597D-04 0.217D-04 0.532D-03 0.139D-02-0.350D-04-0.182D-01
 Coeff-Com: -0.344D-01 0.113D-01 0.335D+00 0.705D+00
 Coeff:     -0.213D-06 0.353D-06 0.510D-06 0.470D-06-0.408D-05-0.196D-04
 Coeff:     -0.597D-04 0.217D-04 0.532D-03 0.139D-02-0.350D-04-0.182D-01
 Coeff:     -0.344D-01 0.113D-01 0.335D+00 0.705D+00
 Gap=     0.201 Goal=   None    Shift=    0.000
 Gap=     0.169 Goal=   None    Shift=    0.000
 RMSDP=5.82D-09 MaxDP=9.26D-07 DE=-2.05D-12 OVMax= 1.03D-07

 SCF Done:  E(UB3LYP) =  -504.823828819     A.U. after   16 cycles
             Convg  =    0.5822D-08             -V/T =  2.0041
 <Sx>= 0.0000 <Sy>= 0.0000 <Sz>= 0.5000 <S**2>= 0.7531 S= 0.5015
 <L.S>= 0.000000000000E+00
 KE= 5.027407450116D+02 PE=-2.471869305662D+03 EE= 8.165284448513D+02
 Annihilation of the first spin contaminant:
 S**2 before annihilation     0.7531,   after     0.7500
 Leave Link  502 at Thu Feb  6 21:57:41 2014, MaxMem= 4026531840 cpu:    1579.6
 (Enter /usr/caen/gaussian-09revc/g09/l601.exe)
 Copying SCF densities to generalized density rwf, IOpCl= 1 IROHF=0.

 **********************************************************************

            Population analysis using the SCF density.

 **********************************************************************

 Orbital symmetries:
 Alpha Orbitals:
       Occupied  (A) (A) (A) (A) (A) (A) (A) (A) (A) (A) (A) (A)
                 (A) (A) (A) (A) (A) (A) (A) (A) (A) (A) (A) (A)
                 (A) (A) (A) (A) (A) (A) (A) (A) (A) (A) (A) (A)
                 (A) (A) (A) (A) (A) (A) (A) (A) (A)
       Virtual   (A) (A) (A) (A) (A) (A) (A) (A) (A) (A) (A) (A)
                 (A) (A) (A) (A) (A) (A) (A) (A) (A) (A) (A) (A)
                 (A) (A) (A) (A) (A) (A) (A) (A) (A) (A) (A) (A)
                 (A) (A) (A) (A) (A) (A) (A) (A) (A) (A) (A) (A)
                 (A) (A) (A) (A) (A) (A) (A) (A) (A) (A) (A) (A)
                 (A) (A) (A) (A) (A) (A) (A) (A) (A) (A) (A) (A)
                 (A) (A) (A) (A) (A) (A) (A) (A) (A) (A) (A) (A)
                 (A) (A) (A) (A) (A) (A) (A) (A) (A) (A) (A) (A)
                 (A) (A) (A) (A) (A) (A) (A) (A) (A) (A) (A) (A)
                 (A) (A) (A) (A) (A) (A) (A) (A) (A) (A) (A) (A)
                 (A) (A) (A) (A) (A) (A) (A) (A) (A) (A) (A) (A)
                 (A) (A) (A) (A) (A) (A) (A) (A) (A) (A) (A) (A)
                 (A) (A) (A) (A) (A) (A) (A) (A) (A) (A) (A) (A)
                 (A) (A) (A) (A) (A) (A) (A) (A) (A) (A) (A) (A)
                 (A) (A) (A) (A) (A) (A) (A) (A) (A) (A) (A) (A)
                 (A) (A) (A) (A) (A) (A) (A) (A) (A) (A) (A) (A)
                 (A) (A) (A) (A) (A) (A) (A) (A) (A) (A) (A) (A)
                 (A) (A) (A) (A) (A) (A) (A) (A) (A) (A) (A) (A)
                 (A) (A) (A) (A) (A) (A) (A) (A) (A) (A) (A) (A)
                 (A) (A) (A) (A) (A) (A) (A) (A) (A) (A) (A) (A)
                 (A) (A) (A) (A) (A) (A) (A) (A) (A) (A) (A) (A)
                 (A) (A) (A) (A) (A) (A) (A) (A) (A) (A) (A) (A)
                 (A) (A) (A) (A) (A) (A) (A) (A) (A) (A) (A) (A)
                 (A) (A) (A) (A) (A) (A) (A) (A) (A) (A) (A) (A)
                 (A) (A) (A) (A) (A) (A) (A) (A) (A) (A) (A) (A)
                 (A) (A) (A) (A) (A) (A) (A) (A) (A) (A) (A) (A)
                 (A) (A) (A) (A) (A) (A) (A) (A) (A) (A) (A) (A)
                 (A) (A) (A) (A) (A) (A)
 Beta  Orbitals:
       Occupied  (A) (A) (A) (A) (A) (A) (A) (A) (A) (A) (A) (A)
                 (A) (A) (A) (A) (A) (A) (A) (A) (A) (A) (A) (A)
                 (A) (A) (A) (A) (A) (A) (A) (A) (A) (A) (A) (A)
                 (A) (A) (A) (A) (A) (A) (A) (A)
       Virtual   (A) (A) (A) (A) (A) (A) (A) (A) (A) (A) (A) (A)
                 (A) (A) (A) (A) (A) (A) (A) (A) (A) (A) (A) (A)
                 (A) (A) (A) (A) (A) (A) (A) (A) (A) (A) (A) (A)
                 (A) (A) (A) (A) (A) (A) (A) (A) (A) (A) (A) (A)
                 (A) (A) (A) (A) (A) (A) (A) (A) (A) (A) (A) (A)
                 (A) (A) (A) (A) (A) (A) (A) (A) (A) (A) (A) (A)
                 (A) (A) (A) (A) (A) (A) (A) (A) (A) (A) (A) (A)
                 (A) (A) (A) (A) (A) (A) (A) (A) (A) (A) (A) (A)
                 (A) (A) (A) (A) (A) (A) (A) (A) (A) (A) (A) (A)
                 (A) (A) (A) (A) (A) (A) (A) (A) (A) (A) (A) (A)
                 (A) (A) (A) (A) (A) (A) (A) (A) (A) (A) (A) (A)
                 (A) (A) (A) (A) (A) (A) (A) (A) (A) (A) (A) (A)
                 (A) (A) (A) (A) (A) (A) (A) (A) (A) (A) (A) (A)
                 (A) (A) (A) (A) (A) (A) (A) (A) (A) (A) (A) (A)
                 (A) (A) (A) (A) (A) (A) (A) (A) (A) (A) (A) (A)
                 (A) (A) (A) (A) (A) (A) (A) (A) (A) (A) (A) (A)
                 (A) (A) (A) (A) (A) (A) (A) (A) (A) (A) (A) (A)
                 (A) (A) (A) (A) (A) (A) (A) (A) (A) (A) (A) (A)
                 (A) (A) (A) (A) (A) (A) (A) (A) (A) (A) (A) (A)
                 (A) (A) (A) (A) (A) (A) (A) (A) (A) (A) (A) (A)
                 (A) (A) (A) (A) (A) (A) (A) (A) (A) (A) (A) (A)
                 (A) (A) (A) (A) (A) (A) (A) (A) (A) (A) (A) (A)
                 (A) (A) (A) (A) (A) (A) (A) (A) (A) (A) (A) (A)
                 (A) (A) (A) (A) (A) (A) (A) (A) (A) (A) (A) (A)
                 (A) (A) (A) (A) (A) (A) (A) (A) (A) (A) (A) (A)
                 (A) (A) (A) (A) (A) (A) (A) (A) (A) (A) (A) (A)
                 (A) (A) (A) (A) (A) (A) (A) (A) (A) (A) (A) (A)
                 (A) (A) (A) (A) (A) (A) (A)
 The electronic state is 2-A.
 Alpha  occ. eigenvalues --  -19.17791 -19.17365 -10.22854 -10.18161 -10.18134
 Alpha  occ. eigenvalues --  -10.17057 -10.16531 -10.15898 -10.15587 -10.15427
 Alpha  occ. eigenvalues --  -10.15385  -1.18106  -0.90632  -0.81730  -0.79782
 Alpha  occ. eigenvalues --   -0.74684  -0.68443  -0.68172  -0.66919  -0.60569
 Alpha  occ. eigenvalues --   -0.57025  -0.55647  -0.54833  -0.49684  -0.47825
 Alpha  occ. eigenvalues --   -0.46912  -0.44751  -0.43940  -0.43082  -0.42129
 Alpha  occ. eigenvalues --   -0.41326  -0.40038  -0.38408  -0.38143  -0.36442
 Alpha  occ. eigenvalues --   -0.35679  -0.35296  -0.35043  -0.33280  -0.32383
 Alpha  occ. eigenvalues --   -0.31915  -0.31051  -0.30635  -0.24382  -0.21349
 Alpha virt. eigenvalues --   -0.01279  -0.00281  -0.00011   0.00818   0.01697
 Alpha virt. eigenvalues --    0.02208   0.02357   0.03130   0.03809   0.04180
 Alpha virt. eigenvalues --    0.04444   0.04803   0.05333   0.05843   0.06079
 Alpha virt. eigenvalues --    0.06899   0.07273   0.08131   0.08441   0.08827
 Alpha virt. eigenvalues --    0.09070   0.09675   0.10445   0.10992   0.11300
 Alpha virt. eigenvalues --    0.11887   0.12195   0.12316   0.12479   0.12887
 Alpha virt. eigenvalues --    0.13517   0.13575   0.13762   0.14306   0.14395
 Alpha virt. eigenvalues --    0.14561   0.14929   0.15085   0.15394   0.15681
 Alpha virt. eigenvalues --    0.16092   0.16224   0.17095   0.17453   0.17752
 Alpha virt. eigenvalues --    0.17906   0.18040   0.18552   0.18869   0.19053
 Alpha virt. eigenvalues --    0.19388   0.19525   0.20491   0.20618   0.20934
 Alpha virt. eigenvalues --    0.21511   0.21976   0.22327   0.22989   0.23227
 Alpha virt. eigenvalues --    0.23594   0.24052   0.24361   0.24991   0.25398
 Alpha virt. eigenvalues --    0.26610   0.26940   0.27311   0.27732   0.28240
 Alpha virt. eigenvalues --    0.28701   0.28915   0.30522   0.31026   0.31216
 Alpha virt. eigenvalues --    0.32174   0.32715   0.33082   0.33792   0.33979
 Alpha virt. eigenvalues --    0.34564   0.35126   0.35242   0.36037   0.36958
 Alpha virt. eigenvalues --    0.37182   0.38106   0.38804   0.39442   0.40899
 Alpha virt. eigenvalues --    0.42144   0.43712   0.45396   0.46670   0.47346
 Alpha virt. eigenvalues --    0.48001   0.50145   0.51565   0.52437   0.53918
 Alpha virt. eigenvalues --    0.54573   0.54989   0.55502   0.56148   0.58101
 Alpha virt. eigenvalues --    0.59036   0.59357   0.59860   0.61086   0.62718
 Alpha virt. eigenvalues --    0.64078   0.65237   0.65523   0.66354   0.66673
 Alpha virt. eigenvalues --    0.67091   0.68131   0.69401   0.69886   0.70710
 Alpha virt. eigenvalues --    0.70970   0.71322   0.72363   0.72662   0.73800
 Alpha virt. eigenvalues --    0.74759   0.74956   0.75538   0.76207   0.76839
 Alpha virt. eigenvalues --    0.78174   0.78617   0.78763   0.79718   0.80754
 Alpha virt. eigenvalues --    0.82457   0.85304   0.86405   0.89549   0.92056
 Alpha virt. eigenvalues --    0.93900   0.97332   0.97953   0.99181   1.00936
 Alpha virt. eigenvalues --    1.02239   1.03934   1.05835   1.08139   1.09925
 Alpha virt. eigenvalues --    1.11026   1.12742   1.14113   1.14831   1.16814
 Alpha virt. eigenvalues --    1.18841   1.19850   1.20299   1.23514   1.25549
 Alpha virt. eigenvalues --    1.29264   1.32971   1.34094   1.37132   1.41181
 Alpha virt. eigenvalues --    1.42051   1.44678   1.45727   1.46581   1.47507
 Alpha virt. eigenvalues --    1.48371   1.49326   1.49433   1.50472   1.52028
 Alpha virt. eigenvalues --    1.55055   1.57206   1.58000   1.58495   1.59041
 Alpha virt. eigenvalues --    1.59803   1.60379   1.60789   1.61142   1.62561
 Alpha virt. eigenvalues --    1.63176   1.63584   1.64723   1.65222   1.65574
 Alpha virt. eigenvalues --    1.66940   1.67206   1.68609   1.69856   1.71504
 Alpha virt. eigenvalues --    1.72462   1.73778   1.75694   1.76596   1.77472
 Alpha virt. eigenvalues --    1.77648   1.79321   1.80161   1.81048   1.81913
 Alpha virt. eigenvalues --    1.83106   1.85120   1.86634   1.88427   1.89185
 Alpha virt. eigenvalues --    1.95117   1.96809   1.98829   1.99649   2.02573
 Alpha virt. eigenvalues --    2.05044   2.05248   2.07019   2.07884   2.09659
 Alpha virt. eigenvalues --    2.11881   2.14713   2.15395   2.17045   2.17894
 Alpha virt. eigenvalues --    2.21072   2.22943   2.25567   2.27360   2.29630
 Alpha virt. eigenvalues --    2.31739   2.33156   2.36761   2.38327   2.39609
 Alpha virt. eigenvalues --    2.41717   2.42737   2.45838   2.46612   2.47529
 Alpha virt. eigenvalues --    2.48666   2.49765   2.50754   2.51390   2.51914
 Alpha virt. eigenvalues --    2.53323   2.54084   2.54923   2.56285   2.58160
 Alpha virt. eigenvalues --    2.59146   2.60426   2.61163   2.62233   2.62938
 Alpha virt. eigenvalues --    2.65064   2.65548   2.67599   2.68649   2.69492
 Alpha virt. eigenvalues --    2.71170   2.72780   2.73973   2.75376   2.77070
 Alpha virt. eigenvalues --    2.77910   2.78700   2.79395   2.80439   2.82718
 Alpha virt. eigenvalues --    2.84929   2.86172   2.90633   2.90721   2.95512
 Alpha virt. eigenvalues --    2.96117   2.97072   2.98325   3.00651   3.01401
 Alpha virt. eigenvalues --    3.02290   3.05583   3.10321   3.11393   3.12063
 Alpha virt. eigenvalues --    3.17627   3.19823   3.27066   3.32577   3.40465
 Alpha virt. eigenvalues --    3.43763   3.50618   3.53245   3.78716   3.79008
 Alpha virt. eigenvalues --    3.79653   3.80421   3.81965   3.82551   3.82880
 Alpha virt. eigenvalues --    3.84762   3.85593   3.87595   3.91495   3.96633
 Alpha virt. eigenvalues --    3.99535   4.01023   4.08097   4.17855   4.28989
 Alpha virt. eigenvalues --    4.29886   4.30586   4.38908   4.90136   4.95658
 Alpha virt. eigenvalues --    5.09818   5.33941   5.55484   6.10634  23.77858
 Alpha virt. eigenvalues --   23.83916  23.85023  23.86969  23.90613  23.92533
 Alpha virt. eigenvalues --   23.98296  23.98790  23.99111  49.85286  49.89611
  Beta  occ. eigenvalues --  -19.17781 -19.17360 -10.22749 -10.18187 -10.17058
  Beta  occ. eigenvalues --  -10.16703 -10.16554 -10.15874 -10.15563 -10.15423
  Beta  occ. eigenvalues --  -10.15385  -1.18091  -0.90564  -0.81339  -0.79335
  Beta  occ. eigenvalues --   -0.74334  -0.68305  -0.68162  -0.65988  -0.60358
  Beta  occ. eigenvalues --   -0.56249  -0.55612  -0.54466  -0.49325  -0.47496
  Beta  occ. eigenvalues --   -0.46675  -0.44544  -0.43778  -0.42844  -0.41933
  Beta  occ. eigenvalues --   -0.41150  -0.39771  -0.38326  -0.37917  -0.36165
  Beta  occ. eigenvalues --   -0.35547  -0.35099  -0.34825  -0.32858  -0.32249
  Beta  occ. eigenvalues --   -0.31843  -0.30943  -0.30299  -0.23785
  Beta virt. eigenvalues --   -0.06859  -0.01264  -0.00241  -0.00008   0.00878
  Beta virt. eigenvalues --    0.01700   0.02274   0.02438   0.03159   0.03811
  Beta virt. eigenvalues --    0.04202   0.04501   0.04820   0.05321   0.05869
  Beta virt. eigenvalues --    0.06110   0.06914   0.07342   0.08167   0.08546
  Beta virt. eigenvalues --    0.08849   0.09074   0.09736   0.10457   0.11027
  Beta virt. eigenvalues --    0.11331   0.11942   0.12189   0.12329   0.12511
  Beta virt. eigenvalues --    0.12924   0.13578   0.13717   0.13832   0.14359
  Beta virt. eigenvalues --    0.14446   0.14627   0.15064   0.15172   0.15463
  Beta virt. eigenvalues --    0.15689   0.16164   0.16303   0.17183   0.17490
  Beta virt. eigenvalues --    0.17863   0.18011   0.18089   0.18673   0.18954
  Beta virt. eigenvalues --    0.19188   0.19554   0.19620   0.20524   0.20679
  Beta virt. eigenvalues --    0.21038   0.21621   0.22066   0.22394   0.23107
  Beta virt. eigenvalues --    0.23374   0.23789   0.24231   0.24422   0.25144
  Beta virt. eigenvalues --    0.25606   0.26870   0.27142   0.27433   0.27899
  Beta virt. eigenvalues --    0.28455   0.28800   0.29067   0.30693   0.31167
  Beta virt. eigenvalues --    0.31510   0.32383   0.32785   0.33360   0.34000
  Beta virt. eigenvalues --    0.34240   0.34674   0.35301   0.35563   0.36112
  Beta virt. eigenvalues --    0.37222   0.37351   0.38250   0.39155   0.39627
  Beta virt. eigenvalues --    0.40969   0.42306   0.43938   0.45450   0.46836
  Beta virt. eigenvalues --    0.47385   0.48117   0.50363   0.51639   0.52626
  Beta virt. eigenvalues --    0.54017   0.54769   0.55146   0.55600   0.56231
  Beta virt. eigenvalues --    0.58144   0.59260   0.59470   0.60114   0.61199
  Beta virt. eigenvalues --    0.62875   0.64429   0.65661   0.65782   0.66658
  Beta virt. eigenvalues --    0.66828   0.67443   0.68193   0.69485   0.70001
  Beta virt. eigenvalues --    0.70804   0.71111   0.71866   0.72589   0.73047
  Beta virt. eigenvalues --    0.74017   0.75081   0.75352   0.75626   0.76308
  Beta virt. eigenvalues --    0.77060   0.78348   0.78820   0.79302   0.80049
  Beta virt. eigenvalues --    0.81082   0.83591   0.85571   0.86524   0.89864
  Beta virt. eigenvalues --    0.92769   0.94501   0.97404   0.98183   0.99753
  Beta virt. eigenvalues --    1.01287   1.02289   1.04180   1.05987   1.08252
  Beta virt. eigenvalues --    1.10080   1.11210   1.12841   1.14395   1.14954
  Beta virt. eigenvalues --    1.17066   1.19165   1.20043   1.20401   1.23730
  Beta virt. eigenvalues --    1.25695   1.29550   1.33379   1.34636   1.37877
  Beta virt. eigenvalues --    1.41330   1.42119   1.44896   1.45857   1.46667
  Beta virt. eigenvalues --    1.47567   1.48504   1.49378   1.49544   1.51736
  Beta virt. eigenvalues --    1.52700   1.55397   1.57297   1.58170   1.58631
  Beta virt. eigenvalues --    1.59154   1.60061   1.60501   1.61247   1.61412
  Beta virt. eigenvalues --    1.62853   1.63420   1.64094   1.64877   1.65428
  Beta virt. eigenvalues --    1.65779   1.67081   1.67336   1.68876   1.70145
  Beta virt. eigenvalues --    1.71946   1.72710   1.74069   1.76197   1.76821
  Beta virt. eigenvalues --    1.77643   1.77838   1.79616   1.80356   1.81227
  Beta virt. eigenvalues --    1.82026   1.83650   1.85248   1.87013   1.88544
  Beta virt. eigenvalues --    1.89299   1.95639   1.97374   1.98942   2.00130
  Beta virt. eigenvalues --    2.02919   2.05295   2.05518   2.07292   2.08088
  Beta virt. eigenvalues --    2.09940   2.12341   2.14771   2.15652   2.17263
  Beta virt. eigenvalues --    2.18393   2.21633   2.23355   2.25723   2.27646
  Beta virt. eigenvalues --    2.29717   2.31973   2.33326   2.37254   2.38529
  Beta virt. eigenvalues --    2.40099   2.41843   2.42980   2.46185   2.46690
  Beta virt. eigenvalues --    2.47585   2.48845   2.49817   2.50764   2.51445
  Beta virt. eigenvalues --    2.52087   2.53543   2.54185   2.54976   2.56362
  Beta virt. eigenvalues --    2.58246   2.59396   2.60623   2.61343   2.62480
  Beta virt. eigenvalues --    2.63209   2.65113   2.65943   2.67862   2.68827
  Beta virt. eigenvalues --    2.69552   2.71304   2.73245   2.74204   2.75629
  Beta virt. eigenvalues --    2.77173   2.78080   2.79176   2.79496   2.80610
  Beta virt. eigenvalues --    2.82785   2.85022   2.86293   2.90942   2.91054
  Beta virt. eigenvalues --    2.95867   2.96160   2.97493   2.98836   3.00842
  Beta virt. eigenvalues --    3.02058   3.02350   3.06288   3.10854   3.11562
  Beta virt. eigenvalues --    3.13387   3.17674   3.19941   3.27968   3.32645
  Beta virt. eigenvalues --    3.40658   3.43850   3.50793   3.53871   3.78728
  Beta virt. eigenvalues --    3.79030   3.79711   3.80518   3.81991   3.82594
  Beta virt. eigenvalues --    3.82937   3.84901   3.85691   3.87623   3.91693
  Beta virt. eigenvalues --    3.97134   3.99571   4.01132   4.08583   4.18069
  Beta virt. eigenvalues --    4.29226   4.30217   4.30675   4.39295   4.90143
  Beta virt. eigenvalues --    4.95688   5.09848   5.33954   5.55499   6.10643
  Beta virt. eigenvalues --   23.79209  23.83934  23.85249  23.87113  23.90607
  Beta virt. eigenvalues --   23.92550  23.98296  23.98811  23.99118  49.85295
  Beta virt. eigenvalues --   49.89617
          Condensed to atoms (all electrons):
              1          2          3          4          5          6
     1  C    6.173731   0.433362   0.408122   0.369450  -0.771736  -0.097694
     2  H    0.433362   0.563976  -0.038282  -0.025101  -0.123389  -0.012335
     3  H    0.408122  -0.038282   0.520315  -0.034887   0.076753   0.014114
     4  H    0.369450  -0.025101  -0.034887   0.588036   0.013772  -0.011716
     5  C   -0.771736  -0.123389   0.076753   0.013772   9.592152   0.516224
     6  H   -0.097694  -0.012335   0.014114  -0.011716   0.516224   0.626007
     7  C    0.578322   0.070644  -0.116144   0.007881  -3.228327  -0.203656
     8  H   -0.014478  -0.001559   0.009660  -0.001935   0.018732   0.016928
     9  C   -0.183476  -0.025254   0.015641   0.004637   0.657280   0.031663
    10  H    0.004038  -0.000606   0.000311   0.000011  -0.072386  -0.005297
    11  H    0.029026   0.000870   0.003281   0.000454   0.090757   0.006674
    12  C   -0.106152  -0.002191  -0.001947  -0.002047  -0.428130   0.000568
    13  H    0.001393  -0.000659   0.000154   0.000133   0.009104  -0.000831
    14  H    0.000135   0.000571  -0.000075  -0.000022  -0.019312   0.000704
    15  C    0.012873   0.000982   0.001023  -0.000580  -0.172732  -0.006919
    16  H    0.002788   0.000028   0.000066  -0.000016   0.004050  -0.001050
    17  C   -0.005120  -0.000391   0.000003   0.000010   0.000265   0.000539
    18  H    0.000156   0.000028  -0.000004  -0.000004  -0.000935  -0.000014
    19  H   -0.000111   0.000000   0.000001  -0.000003  -0.000881  -0.000056
    20  H   -0.000259  -0.000029  -0.000004   0.000009   0.002233   0.000075
    21  C   -0.360938   0.011610  -0.042285  -0.040048  -0.379832  -0.037596
    22  H   -0.035429   0.004559  -0.000513  -0.003086  -0.131039   0.007203
    23  H    0.051505  -0.002750   0.001418   0.000946  -0.027027  -0.007192
    24  C   -0.002263   0.000266  -0.000120  -0.000116  -0.026236   0.001847
    25  H    0.000022   0.000018  -0.000002  -0.000008  -0.001212   0.000094
    26  H    0.000146  -0.000031   0.000013   0.000013   0.003121  -0.000294
    27  H   -0.003653  -0.000048  -0.000170   0.000013  -0.005374   0.001312
    28  O    0.093135   0.003019   0.009484  -0.004324  -0.204389   0.012795
    29  O   -0.013283  -0.000229  -0.000382  -0.001179  -0.160133  -0.009341
    30  H   -0.011343  -0.000060  -0.001311   0.000564   0.051632   0.003066
              7          8          9         10         11         12
     1  C    0.578322  -0.014478  -0.183476   0.004038   0.029026  -0.106152
     2  H    0.070644  -0.001559  -0.025254  -0.000606   0.000870  -0.002191
     3  H   -0.116144   0.009660   0.015641   0.000311   0.003281  -0.001947
     4  H    0.007881  -0.001935   0.004637   0.000011   0.000454  -0.002047
     5  C   -3.228327   0.018732   0.657280  -0.072386   0.090757  -0.428130
     6  H   -0.203656   0.016928   0.031663  -0.005297   0.006674   0.000568
     7  C    9.745154   0.268931  -1.227201  -0.108674  -0.089232   0.495168
     8  H    0.268931   0.583705   0.064971   0.017346  -0.022697  -0.021058
     9  C   -1.227201   0.064971   7.299116   0.573556   0.403842  -1.583941
    10  H   -0.108674   0.017346   0.573556   0.680968  -0.137832  -0.139592
    11  H   -0.089232  -0.022697   0.403842  -0.137832   0.777418  -0.121247
    12  C    0.495168  -0.021058  -1.583941  -0.139592  -0.121247   8.953782
    13  H   -0.065381   0.010537  -0.032445   0.020035  -0.007186   0.373395
    14  H    0.060074  -0.006234  -0.101153  -0.026112   0.012108   0.466631
    15  C   -0.152624  -0.003502   0.364620   0.065543   0.052012  -1.586862
    16  H   -0.000111  -0.000087   0.002469   0.013811   0.020414  -0.164717
    17  C   -0.078745   0.000799  -0.219629  -0.005085  -0.007085   0.440835
    18  H    0.002697   0.000374   0.000579   0.001229   0.002772  -0.086943
    19  H   -0.002555   0.000089  -0.001125   0.000154  -0.000155   0.047212
    20  H   -0.005693  -0.000273   0.002461  -0.000586  -0.001282  -0.019057
    21  C    0.039378  -0.029195   0.181460   0.003301  -0.099205   0.138934
    22  H    0.113745  -0.002809  -0.030031  -0.000079  -0.004575   0.009183
    23  H   -0.057919  -0.001904   0.041947   0.000758   0.020960  -0.043802
    24  C    0.093680  -0.001371   0.034991  -0.030339  -0.017186   0.183690
    25  H    0.001981   0.000148   0.008551  -0.001301  -0.000286   0.028198
    26  H   -0.010699  -0.000459   0.019593   0.004066   0.003600  -0.099561
    27  H   -0.011688   0.001053   0.011213  -0.003275  -0.009864   0.006685
    28  O    0.098909   0.003025  -0.058229   0.000099   0.011664  -0.012941
    29  O    0.158293  -0.006963  -0.017560   0.003570   0.001735   0.003582
    30  H   -0.042319   0.000506   0.002572  -0.001284  -0.001834   0.002718
             13         14         15         16         17         18
     1  C    0.001393   0.000135   0.012873   0.002788  -0.005120   0.000156
     2  H   -0.000659   0.000571   0.000982   0.000028  -0.000391   0.000028
     3  H    0.000154  -0.000075   0.001023   0.000066   0.000003  -0.000004
     4  H    0.000133  -0.000022  -0.000580  -0.000016   0.000010  -0.000004
     5  C    0.009104  -0.019312  -0.172732   0.004050   0.000265  -0.000935
     6  H   -0.000831   0.000704  -0.006919  -0.001050   0.000539  -0.000014
     7  C   -0.065381   0.060074  -0.152624  -0.000111  -0.078745   0.002697
     8  H    0.010537  -0.006234  -0.003502  -0.000087   0.000799   0.000374
     9  C   -0.032445  -0.101153   0.364620   0.002469  -0.219629   0.000579
    10  H    0.020035  -0.026112   0.065543   0.013811  -0.005085   0.001229
    11  H   -0.007186   0.012108   0.052012   0.020414  -0.007085   0.002772
    12  C    0.373395   0.466631  -1.586862  -0.164717   0.440835  -0.086943
    13  H    0.601837  -0.064009   0.064042   0.024355   0.003315   0.004125
    14  H   -0.064009   0.621679  -0.097119  -0.018900   0.003046   0.000190
    15  C    0.064042  -0.097119   6.883343   0.585283  -0.224762   0.092736
    16  H    0.024355  -0.018900   0.585283   0.629979  -0.062862   0.016183
    17  C    0.003315   0.003046  -0.224762  -0.062862   5.732367   0.377588
    18  H    0.004125   0.000190   0.092736   0.016183   0.377588   0.562570
    19  H   -0.003092   0.000610  -0.089912  -0.013893   0.399205  -0.034188
    20  H    0.003303   0.004118  -0.046568  -0.012565   0.410845  -0.045901
    21  C   -0.003443   0.000785  -0.011262  -0.005238   0.006563  -0.000322
    22  H   -0.000954   0.000261  -0.001577  -0.000390   0.000060   0.000017
    23  H    0.001650   0.001210   0.005296   0.000923  -0.000750  -0.000123
    24  C   -0.089666   0.036810  -0.145070  -0.142044  -0.146769  -0.036840
    25  H   -0.005959  -0.001221  -0.092903  -0.006531  -0.006587   0.002777
    26  H    0.017276  -0.004605   0.084747   0.015215  -0.009722   0.011154
    27  H   -0.002256   0.003494  -0.074582  -0.020813   0.018834  -0.006288
    28  O   -0.000365   0.001302   0.002200   0.000310  -0.000512   0.000023
    29  O    0.002550  -0.001165   0.005091   0.000353   0.000174  -0.000091
    30  H   -0.000742   0.000147  -0.001938  -0.000094   0.000040   0.000020
             19         20         21         22         23         24
     1  C   -0.000111  -0.000259  -0.360938  -0.035429   0.051505  -0.002263
     2  H    0.000000  -0.000029   0.011610   0.004559  -0.002750   0.000266
     3  H    0.000001  -0.000004  -0.042285  -0.000513   0.001418  -0.000120
     4  H   -0.000003   0.000009  -0.040048  -0.003086   0.000946  -0.000116
     5  C   -0.000881   0.002233  -0.379832  -0.131039  -0.027027  -0.026236
     6  H   -0.000056   0.000075  -0.037596   0.007203  -0.007192   0.001847
     7  C   -0.002555  -0.005693   0.039378   0.113745  -0.057919   0.093680
     8  H    0.000089  -0.000273  -0.029195  -0.002809  -0.001904  -0.001371
     9  C   -0.001125   0.002461   0.181460  -0.030031   0.041947   0.034991
    10  H    0.000154  -0.000586   0.003301  -0.000079   0.000758  -0.030339
    11  H   -0.000155  -0.001282  -0.099205  -0.004575   0.020960  -0.017186
    12  C    0.047212  -0.019057   0.138934   0.009183  -0.043802   0.183690
    13  H   -0.003092   0.003303  -0.003443  -0.000954   0.001650  -0.089666
    14  H    0.000610   0.004118   0.000785   0.000261   0.001210   0.036810
    15  C   -0.089912  -0.046568  -0.011262  -0.001577   0.005296  -0.145070
    16  H   -0.013893  -0.012565  -0.005238  -0.000390   0.000923  -0.142044
    17  C    0.399205   0.410845   0.006563   0.000060  -0.000750  -0.146769
    18  H   -0.034188  -0.045901  -0.000322   0.000017  -0.000123  -0.036840
    19  H    0.568256  -0.019463   0.000221   0.000004  -0.000045  -0.003591
    20  H   -0.019463   0.578359   0.000153  -0.000002   0.000014   0.021298
    21  C    0.000221   0.000153   6.360027   0.398742   0.301140   0.018059
    22  H    0.000004  -0.000002   0.398742   0.558077  -0.030007   0.001341
    23  H   -0.000045   0.000014   0.301140  -0.030007   0.579688  -0.002588
    24  C   -0.003591   0.021298   0.018059   0.001341  -0.002588   5.708263
    25  H    0.000870   0.001099   0.000283   0.000052  -0.000083   0.420936
    26  H    0.000573  -0.002135  -0.000511  -0.000125   0.000426   0.339963
    27  H    0.002861  -0.001616   0.012313   0.000693  -0.006482   0.426227
    28  O   -0.000017  -0.000034   0.113109  -0.078838  -0.009062  -0.000276
    29  O    0.000023   0.000010   0.038897   0.026250   0.018768   0.000356
    30  H   -0.000009   0.000002   0.016548  -0.003034  -0.007835   0.000175
             25         26         27         28         29         30
     1  C    0.000022   0.000146  -0.003653   0.093135  -0.013283  -0.011343
     2  H    0.000018  -0.000031  -0.000048   0.003019  -0.000229  -0.000060
     3  H   -0.000002   0.000013  -0.000170   0.009484  -0.000382  -0.001311
     4  H   -0.000008   0.000013   0.000013  -0.004324  -0.001179   0.000564
     5  C   -0.001212   0.003121  -0.005374  -0.204389  -0.160133   0.051632
     6  H    0.000094  -0.000294   0.001312   0.012795  -0.009341   0.003066
     7  C    0.001981  -0.010699  -0.011688   0.098909   0.158293  -0.042319
     8  H    0.000148  -0.000459   0.001053   0.003025  -0.006963   0.000506
     9  C    0.008551   0.019593   0.011213  -0.058229  -0.017560   0.002572
    10  H   -0.001301   0.004066  -0.003275   0.000099   0.003570  -0.001284
    11  H   -0.000286   0.003600  -0.009864   0.011664   0.001735  -0.001834
    12  C    0.028198  -0.099561   0.006685  -0.012941   0.003582   0.002718
    13  H   -0.005959   0.017276  -0.002256  -0.000365   0.002550  -0.000742
    14  H   -0.001221  -0.004605   0.003494   0.001302  -0.001165   0.000147
    15  C   -0.092903   0.084747  -0.074582   0.002200   0.005091  -0.001938
    16  H   -0.006531   0.015215  -0.020813   0.000310   0.000353  -0.000094
    17  C   -0.006587  -0.009722   0.018834  -0.000512   0.000174   0.000040
    18  H    0.002777   0.011154  -0.006288   0.000023  -0.000091   0.000020
    19  H    0.000870   0.000573   0.002861  -0.000017   0.000023  -0.000009
    20  H    0.001099  -0.002135  -0.001616  -0.000034   0.000010   0.000002
    21  C    0.000283  -0.000511   0.012313   0.113109   0.038897   0.016548
    22  H    0.000052  -0.000125   0.000693  -0.078838   0.026250  -0.003034
    23  H   -0.000083   0.000426  -0.006482  -0.009062   0.018768  -0.007835
    24  C    0.420936   0.339963   0.426227  -0.000276   0.000356   0.000175
    25  H    0.571274  -0.031729  -0.029272  -0.000011  -0.000019   0.000028
    26  H   -0.031729   0.565833  -0.044721  -0.000066   0.000651  -0.000312
    27  H   -0.029272  -0.044721   0.597961  -0.001273  -0.004347   0.001072
    28  O   -0.000011  -0.000066  -0.001273   8.188584  -0.080427  -0.011129
    29  O   -0.000019   0.000651  -0.004347  -0.080427   8.115013   0.140583
    30  H    0.000028  -0.000312   0.001072  -0.011129   0.140583   0.579900
 Mulliken atomic charges:
              1
     1  C   -0.552270
     2  H    0.142981
     3  H    0.175770
     4  H    0.139143
     5  C    0.716994
     6  H    0.154179
     7  C   -0.333888
     8  H    0.117721
     9  C   -0.241118
    10  H    0.143650
    11  H    0.082078
    12  C   -0.730393
    13  H    0.139785
    14  H    0.126053
    15  C    0.489121
    16  H    0.133085
    17  C   -0.626467
    18  H    0.136434
    19  H    0.149015
    20  H    0.131485
    21  C   -0.631647
    22  H    0.202300
    23  H    0.170918
    24  C   -0.643425
    25  H    0.140792
    26  H    0.138580
    27  H    0.141993
    28  O   -0.075764
    29  O   -0.220778
    30  H    0.283671
 Sum of Mulliken atomic charges =   0.00000
 Mulliken charges with hydrogens summed into heavy atoms:
              1
     1  C   -0.094375
     5  C    0.871173
     7  C   -0.216167
     9  C   -0.015390
    12  C   -0.464554
    15  C    0.622206
    17  C   -0.209533
    21  C   -0.258429
    24  C   -0.222060
    28  O   -0.075764
    29  O    0.062894
 Sum of Mulliken charges with hydrogens summed into heavy atoms =   0.00000
          Atomic-Atomic Spin Densities.
              1          2          3          4          5          6
     1  C    0.025740  -0.001984  -0.000631  -0.004023   0.078701   0.017790
     2  H   -0.001984  -0.002340   0.000483   0.001172  -0.003097  -0.000349
     3  H   -0.000631   0.000483  -0.000598  -0.000168   0.002416   0.000189
     4  H   -0.004023   0.001172  -0.000168   0.002564  -0.006766  -0.002212
     5  C    0.078701  -0.003097   0.002416  -0.006766  -0.005829  -0.001525
     6  H    0.017790  -0.000349   0.000189  -0.002212  -0.001525   0.013484
     7  C   -0.027541   0.003064  -0.000497   0.002738   0.058489   0.019304
     8  H    0.014001  -0.000181   0.000235  -0.000270  -0.039508  -0.001081
     9  C   -0.015550   0.001347  -0.000630   0.001859  -0.074343  -0.017689
    10  H    0.006541  -0.000313   0.000067  -0.000169   0.013629   0.004830
    11  H   -0.006884   0.000153  -0.000047  -0.000001  -0.027303  -0.004961
    12  C   -0.016116   0.000179  -0.000240   0.000073  -0.005864  -0.002922
    13  H    0.000362  -0.000017   0.000006   0.000015   0.000925   0.000170
    14  H   -0.000735   0.000052  -0.000022  -0.000007  -0.003629  -0.000455
    15  C   -0.001586  -0.000002  -0.000019   0.000012  -0.008393  -0.001236
    16  H    0.000015   0.000001   0.000001  -0.000002  -0.000019   0.000023
    17  C   -0.000634   0.000001  -0.000019   0.000000  -0.002689  -0.000367
    18  H    0.000030  -0.000001   0.000000   0.000000   0.000076   0.000011
    19  H   -0.000031   0.000000  -0.000001   0.000000  -0.000103  -0.000016
    20  H   -0.000016   0.000001   0.000001   0.000001  -0.000026  -0.000014
    21  C   -0.061553   0.002298  -0.001118   0.007501  -0.103292  -0.020703
    22  H    0.006960  -0.000158   0.000168  -0.001314   0.004075   0.002468
    23  H    0.000034   0.000038  -0.000107   0.000013   0.004924  -0.000245
    24  C   -0.000023   0.000002  -0.000009   0.000000  -0.000765  -0.000099
    25  H   -0.000015   0.000000  -0.000001   0.000000  -0.000239  -0.000024
    26  H    0.000035  -0.000001   0.000002   0.000000   0.000126   0.000017
    27  H   -0.000290  -0.000002  -0.000009   0.000015  -0.001868  -0.000198
    28  O    0.002523  -0.000175  -0.000065  -0.000252   0.001187   0.000699
    29  O   -0.001402   0.000033   0.000001  -0.000008   0.000524  -0.000234
    30  H    0.000241  -0.000010  -0.000002  -0.000008   0.000726   0.000083
              7          8          9         10         11         12
     1  C   -0.027541   0.014001  -0.015550   0.006541  -0.006884  -0.016116
     2  H    0.003064  -0.000181   0.001347  -0.000313   0.000153   0.000179
     3  H   -0.000497   0.000235  -0.000630   0.000067  -0.000047  -0.000240
     4  H    0.002738  -0.000270   0.001859  -0.000169  -0.000001   0.000073
     5  C    0.058489  -0.039508  -0.074343   0.013629  -0.027303  -0.005864
     6  H    0.019304  -0.001081  -0.017689   0.004830  -0.004961  -0.002922
     7  C    1.302345   0.063808  -0.035965   0.033857  -0.111362  -0.108076
     8  H    0.063808  -0.048299  -0.023559   0.000128  -0.003289  -0.004785
     9  C   -0.035965  -0.023559  -0.054375  -0.012704   0.027869   0.095000
    10  H    0.033857   0.000128  -0.012704   0.028459  -0.027073  -0.010588
    11  H   -0.111362  -0.003289   0.027869  -0.027073   0.122457   0.032915
    12  C   -0.108076  -0.004785   0.095000  -0.010588   0.032915   0.010740
    13  H    0.006510  -0.000268  -0.005329   0.001095  -0.002946   0.003939
    14  H    0.000339   0.000410  -0.001947  -0.002661   0.003626   0.000555
    15  C   -0.015720  -0.002917  -0.006064  -0.012761   0.015894   0.014651
    16  H    0.000480  -0.000023  -0.002519  -0.000019  -0.000122   0.001287
    17  C   -0.017156  -0.000324  -0.006007  -0.004711   0.006109  -0.001674
    18  H    0.000596   0.000041   0.000619   0.000189  -0.000321  -0.000166
    19  H   -0.001300  -0.000030  -0.001007  -0.000610   0.000676  -0.002182
    20  H   -0.000083  -0.000008  -0.000416  -0.000087   0.000138   0.000712
    21  C   -0.125233   0.003369   0.069549  -0.015339   0.029911   0.034612
    22  H    0.009435   0.000085  -0.005641   0.001166  -0.002412  -0.000773
    23  H   -0.003903   0.000172   0.003282   0.000349  -0.000366  -0.001987
    24  C   -0.000419   0.000070   0.007005   0.000008  -0.000966  -0.008117
    25  H   -0.001240   0.000005  -0.001320  -0.000478   0.000746  -0.001059
    26  H    0.001142  -0.000028  -0.001620   0.000165  -0.000433   0.001496
    27  H   -0.006345   0.000088   0.000763  -0.001256   0.002936   0.001741
    28  O    0.003974   0.002589   0.001157   0.000401  -0.001288  -0.003142
    29  O   -0.013171  -0.001622   0.001492  -0.000461   0.002981   0.003901
    30  H    0.001615   0.000434   0.000026   0.000160  -0.001173  -0.000627
             13         14         15         16         17         18
     1  C    0.000362  -0.000735  -0.001586   0.000015  -0.000634   0.000030
     2  H   -0.000017   0.000052  -0.000002   0.000001   0.000001  -0.000001
     3  H    0.000006  -0.000022  -0.000019   0.000001  -0.000019   0.000000
     4  H    0.000015  -0.000007   0.000012  -0.000002   0.000000   0.000000
     5  C    0.000925  -0.003629  -0.008393  -0.000019  -0.002689   0.000076
     6  H    0.000170  -0.000455  -0.001236   0.000023  -0.000367   0.000011
     7  C    0.006510   0.000339  -0.015720   0.000480  -0.017156   0.000596
     8  H   -0.000268   0.000410  -0.002917  -0.000023  -0.000324   0.000041
     9  C   -0.005329  -0.001947  -0.006064  -0.002519  -0.006007   0.000619
    10  H    0.001095  -0.002661  -0.012761  -0.000019  -0.004711   0.000189
    11  H   -0.002946   0.003626   0.015894  -0.000122   0.006109  -0.000321
    12  C    0.003939   0.000555   0.014651   0.001287  -0.001674  -0.000166
    13  H   -0.001163   0.000293  -0.003128  -0.000208  -0.000737   0.000137
    14  H    0.000293  -0.000229   0.002378   0.000050   0.002212  -0.000157
    15  C   -0.003128   0.002378   0.002697   0.000171   0.008896  -0.000254
    16  H   -0.000208   0.000050   0.000171  -0.000004   0.000538  -0.000008
    17  C   -0.000737   0.002212   0.008896   0.000538   0.013422  -0.000600
    18  H    0.000137  -0.000157  -0.000254  -0.000008  -0.000600   0.000040
    19  H   -0.000191   0.000391  -0.000748   0.000110   0.002851  -0.000194
    20  H   -0.000151   0.000128   0.000211  -0.000133  -0.000350   0.000008
    21  C   -0.001311   0.001797   0.006619  -0.000126   0.002117  -0.000062
    22  H    0.000063  -0.000054  -0.000141   0.000000  -0.000010   0.000001
    23  H    0.000131  -0.000077  -0.000097   0.000007  -0.000064  -0.000001
    24  C    0.000746   0.000391   0.001379   0.000524  -0.000365  -0.000092
    25  H   -0.000203   0.000179   0.000280  -0.000036   0.001395  -0.000061
[...]
 259,0.00003635,-0.00016634,-0.00010963,-0.00015512,-0.00320330,-0.0000
 8508,-0.00086599,0.00006117,-0.00042339,0.00038200,0.00068438,0.000951
 53,0.00044976,-0.00002988,-0.00003210,0.00001722,0.00061235,-0.0000366
 3,-0.00014520,0.00023472,-0.00008648,0.00016704,0.00002968,-0.00008877
 ,0.00004261,-0.00004334,0.00001665,0.00001139,0.00002198,-0.00001773,-
 0.00002512,-0.24210975,-0.04967954,-0.09900586,0.26294949,-0.00001584,
 0.00000562,0.00002288,0.00000748,0.00000719,-0.00000043,0.00000196,-0.
 00000195,-0.00000414,-0.00001709,-0.00000588,0.00000025,-0.00001280,0.
 00000414,-0.00003613,-0.00000180,-0.00000464,0.00001191,-0.00013554,0.
 00020066,0.00012529,0.00004352,-0.00002961,0.00002146,0.00060345,-0.00
 023470,-0.00028016,-0.00005544,0.00002196,0.00005011,-0.00014021,0.000
 33370,0.00010906,0.00138421,-0.00684123,0.00022492,0.00019349,0.000097
 88,-0.00011212,-0.00185724,-0.00067777,-0.00092739,-0.02928218,-0.0075
 4888,-0.01589304,0.00011841,0.00123722,0.00061264,-0.00151026,0.001519
 79,0.00003181,0.00017512,-0.00005261,0.00000093,0.00097502,-0.00010512
 ,0.00001510,0.00005839,0.00030837,0.00042108,0.00001280,-0.00008166,0.
 00001787,-0.00001684,0.00001558,0.00000213,0.00000064,0.00000403,0.000
 00167,-0.04838011,-0.05817165,-0.02419185,0.05451028,0.06511829,-0.000
 00293,0.00000497,0.00000429,0.00000309,0.00000046,-0.00000017,0.000001
 47,0.00000023,-0.00000069,-0.00000573,-0.00000217,0.00000171,-0.000002
 58,-0.00000393,-0.00000696,0.00000008,-0.00000220,0.00000361,-0.000101
 48,0.00012448,0.00004635,0.00004021,-0.00000063,0.00001116,0.00028628,
 -0.00008380,0.00009659,-0.00005622,-0.00002147,0.00000216,-0.00014628,
 0.00022167,-0.00007908,0.00042535,-0.00109382,0.00047145,0.00034123,0.
 00013851,0.00047676,-0.00040083,-0.00026236,0.00024129,-0.00160706,0.0
 0004923,-0.00224543,0.00040101,-0.00028639,0.00041216,-0.00064440,0.00
 022634,-0.00011505,-0.00010141,-0.00003712,-0.00007387,0.00045111,-0.0
 0035915,0.00016751,0.00027907,0.00015800,0.00004622,-0.00000438,-0.000
 01125,-0.00001420,-0.00000128,-0.00000054,0.00000467,0.00000109,0.0000
 0072,0.00000336,-0.09846412,-0.02479492,-0.09682739,0.10896248,0.02804
 323,0.10121136,0.00000087,-0.00000523,-0.00000332,-0.00000280,0.000002
 20,0.00000113,-0.00000306,-0.00000206,-0.00000175,0.00000694,0.0000005
 0,-0.00000165,-0.00002165,-0.00001048,0.00000324,0.00000432,0.00000912
 ,-0.00001204,0.00002391,0.00000346,-0.00000414,-0.00002719,-0.00002409
 ,-0.00002751,-0.00021545,-0.00002793,-0.00008465,0.00009418,0.00016141
 ,-0.00008602,-0.00004336,0.00001674,0.00015634,0.00045329,-0.00035769,
 0.00132675,0.00000628,-0.00011258,-0.00024739,0.00000299,0.00014920,-0
 .00012169,-0.00111128,-0.00178772,0.00313138,0.00060081,-0.00082331,-0
 .00003140,0.00007764,0.00040091,-0.00083427,0.00023654,0.00016650,0.00
 015272,-0.00000489,0.00005427,-0.00014118,-0.00010432,-0.00012070,0.00
 013534,0.00002617,-0.00001454,0.00003067,0.00000428,0.00000516,-0.0000
 0834,-0.00000962,-0.00000153,0.00000557,-0.04756600,0.00240641,-0.0041
 4831,0.00020988,0.01288818,-0.02589525,0.04641478,-0.00000410,0.000000
 19,0.00000495,0.00000045,0.00000031,0.00000300,-0.00000233,0.00000094,
 -0.00000196,-0.00000077,-0.00000175,-0.00000156,-0.00001161,-0.0000075
 4,-0.00000883,0.00000597,0.00000169,-0.00000838,-0.00003925,0.00003360
 ,0.00002881,-0.00002701,-0.00001532,-0.00001251,-0.00014956,-0.0000215
 7,-0.00011143,0.00018550,0.00000613,-0.00013240,-0.00007872,-0.0000089
 2,0.00005462,0.00109222,0.00151799,0.00143144,-0.00057299,0.00019936,-
 0.00097378,0.00025406,0.00040958,-0.00033771,0.00047477,-0.01648199,0.
 03110501,-0.00061606,-0.00661570,-0.00112470,-0.00075314,0.00145654,0.
 00134773,0.00045241,0.00010498,-0.00103712,0.00004756,-0.00005153,-0.0
 0009848,-0.00017162,0.00039048,-0.00036865,0.00000201,-0.00001571,0.00
 000130,0.00000038,0.00000261,-0.00000019,-0.00000123,0.00000160,0.0000
 0057,0.00230677,-0.09330591,0.09779355,0.00068774,0.00260450,-0.006831
 06,-0.00169626,0.10447523,0.00001223,-0.00000439,-0.00001611,-0.000002
 48,-0.00000400,-0.00000130,0.00000243,0.00000196,0.00000819,0.00001082
 ,0.00000581,0.00000073,0.00001361,0.00000820,0.00001520,-0.00000149,-0
 .00001148,0.00000992,-0.00003886,-0.00000622,-0.00003715,0.00002984,0.
 00002616,0.00003013,0.00016849,0.00014469,0.00009816,-0.00005505,-0.00
 013604,0.00004464,0.00002356,0.00009086,-0.00017270,-0.00008982,-0.000
 40906,0.00085248,0.00049081,0.00031065,0.00023886,0.00014530,0.0000292
 8,0.00023857,0.00023776,-0.00052944,0.00154083,-0.00007635,-0.00077566
 ,0.00153301,-0.00009365,-0.00036303,0.00089701,-0.00039085,0.00030304,
 0.00024756,0.00004776,0.00003504,-0.00009056,-0.00009108,0.00008354,0.
 00025244,-0.00006129,0.00007791,-0.00006705,0.00001357,-0.00001566,0.0
 0000669,0.00000588,0.00001081,0.00000217,-0.00408504,0.09802306,-0.252
 98704,0.00023556,0.00523120,-0.01245996,0.00470870,-0.10910854,0.27552
 119,0.00001564,-0.00000367,-0.00001428,-0.00000459,-0.00000545,-0.0000
 0033,-0.00000214,0.00000168,0.00000082,0.00001225,0.00000540,0.0000008
 1,0.00001622,0.00001778,0.00004269,-0.00000200,0.00000629,-0.00000535,
 0.00014762,-0.00012077,-0.00008800,-0.00002163,0.00001512,-0.00000776,
 -0.00101202,-0.00054377,-0.00023599,0.00004977,0.00011382,0.00004188,-
 0.00116139,-0.00127295,-0.00041917,0.00003354,0.00049672,-0.00023987,-
 0.00002846,-0.00005607,-0.00006172,0.00012893,0.00010023,0.00015351,0.
 00296171,-0.00144397,-0.00310116,0.00024112,0.00060051,-0.00019711,0.0
 0048242,0.00008007,-0.00049665,-0.00004521,-0.00011953,-0.00000704,0.0
 0045572,-0.00023577,0.00004267,0.00023730,-0.00010627,0.00021323,-0.00
 000603,0.00003795,-0.00000305,0.00001265,-0.00000105,0.00000139,-0.000
 01119,-0.00000446,0.00000865,-0.18782501,0.07428952,0.10690716,-0.0205
 5730,0.01046336,0.01625230,0.00093260,-0.00139533,-0.00118615,0.204922
 10,0.00002502,-0.00001913,-0.00002866,-0.00000826,0.00000314,0.0000005
 4,-0.00000035,-0.00000155,0.00000828,0.00002788,0.00000881,-0.00000090
 ,-0.00003938,-0.00006144,0.00004709,-0.00000173,-0.00000476,-0.0000024
 1,-0.00025044,0.00029510,0.00013535,0.00012369,0.00001183,0.00006461,-
 0.00004664,-0.00025283,-0.00006069,-0.00008762,-0.00013356,0.00007402,
 -0.00096963,0.00027301,-0.00022467,0.00076731,0.00111930,0.00005585,-0
 .00012388,-0.00004723,-0.00000928,0.00007832,0.00006368,0.00018034,0.0
 2534604,-0.01052085,-0.01852348,0.00010583,0.00123137,0.00066228,-0.00
 229304,-0.00674209,0.00029292,-0.00018343,0.00011234,-0.00017232,-0.00
 010595,0.00014368,0.00029827,0.00164476,-0.00098573,-0.00123510,-0.000
 05384,0.00007291,-0.00007049,0.00003426,-0.00001628,-0.00000225,-0.000
 01053,0.00003167,0.00001925,0.07311564,-0.08549138,-0.05506106,-0.0049
 4832,0.00221406,0.00482628,-0.01131785,0.00530744,0.00706870,-0.080899
 46,0.09346000,0.00001194,-0.00000705,-0.00002200,-0.00000612,0.0000069
 3,0.00000252,-0.00000270,-0.00000444,0.00000143,0.00002257,0.00000271,
 -0.00000018,-0.00003836,-0.00007174,0.00005565,0.00000496,0.00001361,-
 0.00001813,-0.00016571,0.00036825,0.00004100,0.00006484,-0.00002736,0.
 00001811,0.00036946,-0.00067556,0.00022745,-0.00003472,0.00016003,-0.0
 0013355,-0.00061479,0.00046209,0.00017865,0.00069057,-0.00014740,-0.00
 017213,0.00005135,-0.00004089,-0.00001563,-0.00013322,0.00003645,0.000
 02443,0.00060466,0.00014342,-0.00229419,-0.00044346,-0.00025716,0.0005
 7414,-0.00065984,-0.00087750,0.00075296,-0.00026831,0.00023885,0.00045
 875,0.00028065,0.00006493,0.00000193,0.00039649,-0.00011234,0.00030585
 ,-0.00000096,-0.00001126,-0.00002143,0.00002656,-0.00000077,-0.0000102
 6,-0.00001746,0.00001437,0.00003304,0.10615121,-0.05581156,-0.12734759
 ,-0.01075105,0.00652718,0.00861184,0.02202441,-0.01160400,-0.01577549,
 -0.11760908,0.06157991,0.13450321,0.00005642,-0.00177286,-0.00003073,0
 .00027017,-0.00010546,0.00035222,0.00044631,0.00003208,0.00083011,0.00
 022134,0.00020763,-0.00012919,-0.00742533,0.01419276,-0.01764626,-0.00
 123095,0.00437474,0.00105839,0.00271518,-0.00114237,-0.00151906,-0.000
 47802,0.00040625,0.00040698,-0.00062227,-0.00008210,-0.00000371,0.0001
 5568,-0.00011657,0.00018834,-0.00008683,0.00023838,-0.00010297,0.00013
 004,-0.00000526,-0.00009344,-0.00004153,-0.00002172,0.00006505,-0.0000
 3217,0.00004571,0.00001792,0.00004677,0.00004158,0.00007017,0.00001115
 ,-0.00001412,0.00000959,-0.00003143,-0.00002674,-0.00004588,0.00000410
 ,-0.00000476,0.00002168,-0.00004848,-0.00000119,-0.00000388,0.00001152
 ,0.00000476,0.00000110,-0.12228018,0.01503825,-0.03731507,0.00785676,-
 0.01540835,0.02167497,-0.01275015,0.01681870,-0.02679781,-0.00001401,-
 0.00001244,-0.00003299,-0.00004947,-0.00000822,-0.00001105,0.00000886,
 0.00000171,0.00002050,0.00000911,0.00004954,0.00002396,0.29257772,0.00
 036989,0.00214632,-0.00006599,0.00026511,0.00033591,0.00060365,-0.0000
 3089,-0.00068311,0.00037501,-0.00051524,-0.00043256,0.00024779,0.01637
 505,-0.02127972,0.03218083,0.00382826,-0.00739423,-0.00171218,-0.00344
 690,0.00150175,0.00102926,0.00050856,0.00000286,-0.00033032,0.00005257
 ,-0.00013463,-0.00002108,-0.00001845,-0.00010617,-0.00010427,0.0002566
 0,0.00021625,0.00003939,0.00004561,0.00024796,0.00021011,0.00001145,-0
 .00001367,-0.00003762,-0.00006563,0.00002491,0.00003458,-0.00004135,-0
 .00010592,-0.00011121,-0.00000154,0.00001568,-0.00000368,0.00004616,0.
 00005656,0.00005336,-0.00000665,-0.00000259,-0.00001900,0.00006365,-0.
 00000331,0.00000098,-0.00002177,0.00001279,0.00000342,0.04659061,-0.09
 254514,0.04792113,0.00011170,-0.00722867,0.01333819,-0.00358093,0.0094
 8609,-0.00209925,0.00007013,-0.00001345,0.00002089,0.00004723,0.000029
 42,0.00001161,-0.00000203,0.00000177,-0.00003195,-0.00002308,-0.000039
 79,0.00000211,0.01421687,0.20347502,-0.00068124,-0.00123632,-0.0001937
 3,0.00050286,-0.00029627,0.00069368,0.00068685,0.00038619,0.00152421,0
 .00021906,0.00001348,0.00004168,-0.00353364,0.01129860,0.00050919,-0.0
 0001249,-0.00040987,0.00134693,0.00108914,-0.00010964,-0.00066059,-0.0
 0018712,-0.00015953,0.00036548,-0.00020987,-0.00002784,0.00011829,0.00
 016049,-0.00015209,0.00011550,-0.00000891,0.00008162,-0.00017064,0.000
 09409,0.00000747,-0.00012144,-0.00007919,-0.00001143,0.00010790,-0.000
 02642,0.00003455,0.00003745,0.00001331,0.00003050,0.00008125,0.0000221
 1,-0.00002074,0.00002075,-0.00002587,-0.00002110,-0.00004054,-0.000002
 58,-0.00000537,0.00002280,-0.00003521,-0.00000043,0.00000047,0.0000070
 3,0.00000475,0.00000046,-0.07457169,0.04730514,-0.12470128,-0.00330119
 ,0.01307033,-0.02115344,-0.01241113,0.01783236,-0.02889012,0.00002499,
 -0.00000489,-0.00007975,-0.00003420,-0.00001228,0.00000448,-0.00001556
 ,-0.00000630,0.00004192,-0.00000055,0.00004444,0.00001856,0.01388496,-
 0.15231349,0.23840339,-0.00011470,-0.00004417,0.00007431,0.00011844,-0
 .00005413,0.00001829,-0.00013411,-0.00000594,0.00004139,0.00007344,0.0
 0019973,-0.00014587,0.00204271,0.00042654,-0.00149854,-0.00025658,0.00
 024678,0.00010362,-0.00097570,0.00032763,-0.00051920,0.00011737,0.0000
 6358,-0.00026044,-0.00012022,-0.00021802,-0.00033523,-0.00003751,0.000
 23577,-0.00004479,0.00034243,0.00035710,0.00041840,0.00009062,0.000158
 34,0.00008477,0.00001461,-0.00003986,-0.00004929,-0.00009922,0.0000644
 2,0.00003997,0.00002978,-0.00003469,0.00001024,-0.00000773,0.00001979,
 -0.00002041,0.00000310,0.00000773,0.00000245,0.00000519,-0.00000588,-0
 .00000441,-0.00000849,-0.00000566,-0.00000609,-0.00000092,0.00002212,0
 .00000553,0.00827522,0.00206946,0.00731190,0.00364837,0.00041353,-0.00
 218542,0.00283621,0.00078364,-0.00010636,0.00002464,-0.00002645,-0.000
 02255,-0.00003834,0.00002377,-0.00000961,0.00004256,0.00000735,-0.0000
 4471,0.00000608,0.00000410,0.00007856,-0.15772229,-0.03159228,0.064040
 21,0.22580150,-0.00008434,-0.00010685,0.00021095,0.00013043,-0.0000271
 9,-0.00006782,-0.00018038,-0.00022188,-0.00004685,0.00012990,0.0002442
 1,-0.00014469,0.00003839,-0.00001199,-0.00067939,0.00011118,0.00041032
 ,-0.00029245,0.00100260,-0.00257132,0.00026379,0.00016603,-0.00033362,
 0.00036219,-0.00009736,-0.00001801,-0.00021681,0.00000451,0.00003505,-
 0.00001405,0.00002909,-0.00002761,0.00018028,-0.00007372,-0.00003768,0
 .00025758,0.00004692,-0.00001149,-0.00010366,-0.00000336,0.00002941,-0
 .00004615,-0.00003682,-0.00006155,-0.00010652,-0.00001495,0.00003264,-
 0.00002003,0.00004144,0.00004005,0.00005306,0.00000111,-0.00000364,-0.
 00002318,0.00004264,-0.00000428,-0.00000418,-0.00001656,0.00002001,0.0
 0000286,-0.03016958,-0.01068418,0.01677782,0.00345174,-0.00296530,0.00
 267810,0.00235801,0.00148775,-0.00199756,0.00003317,-0.00001107,0.0000
 7656,0.00002070,0.00004050,-0.00001435,0.00004664,0.00000901,-0.000076
 29,-0.00001129,-0.00004889,0.00003306,-0.04930012,-0.07814379,0.061914
 20,-0.10895557,0.54781114,-0.00019821,0.00022130,-0.00061153,0.0000143
 1,0.00007965,0.00020524,0.00002205,-0.00003349,0.00021816,-0.00006876,
 -0.00012137,-0.00001218,-0.00205409,-0.00113699,0.00282206,0.00043176,
 -0.00075010,0.00002468,-0.00003670,0.00131509,0.00014991,-0.00019246,0
 .00006672,0.00019893,-0.00009130,-0.00044163,0.00005566,-0.00005149,0.
 00010777,0.00003312,0.00035381,0.00017407,0.00002940,0.00008432,0.0002
 2401,-0.00026672,-0.00005611,-0.00003664,0.00009109,-0.00007683,0.0000
 2225,0.00006297,0.00002173,0.00001588,0.00011081,0.00001633,-0.0000153
 7,0.00001761,-0.00003580,-0.00002740,-0.00004852,-0.00000363,-0.000010
 00,0.00002534,-0.00003751,-0.00000051,0.00000035,0.00000697,0.00000673
 ,0.00000131,0.03629309,0.01372024,-0.02633338,-0.00429664,0.00596513,-
 0.00427314,0.00223312,-0.00170701,0.00430897,0.00002728,-0.00000126,-0
 .00011313,-0.00004402,-0.00001315,0.00001053,-0.00000871,-0.00000628,0
 .00004200,-0.00000016,0.00004623,0.00004297,0.04967328,0.03674022,-0.0
 6154551,-0.09186876,-0.06604754,0.09434142,0.00010272,-0.00005957,0.00
 001622,-0.00000959,-0.00003808,-0.00002426,-0.00003922,-0.00000109,0.0
 0000513,0.00004425,0.00005452,-0.00001003,-0.00031192,-0.00054342,0.00
 037779,0.00013709,-0.00003462,-0.00008742,-0.00021213,0.00078551,-0.00
 006827,0.00011771,-0.00021195,-0.00022472,0.00022655,0.00014068,0.0000
 8562,-0.00006145,-0.00001026,-0.00002237,-0.00000934,-0.00009471,0.000
 00190,0.00000675,-0.00004894,-0.00009850,0.00001246,0.00002266,0.00002
 007,0.00002441,-0.00003488,-0.00000012,0.00002203,0.00005977,0.0000281
 0,-0.00000068,-0.00002386,0.00000577,-0.00001782,-0.00002782,-0.000015
 25,-0.00000126,0.00000804,0.00000570,-0.00001080,0.00000531,0.00000468
 ,0.00000744,-0.00002173,-0.00000421,-0.00581378,-0.00091200,-0.0003063
 3,0.00062773,-0.00059696,0.00074888,0.00054502,0.00062722,-0.00036230,
 -0.00004079,0.00000954,-0.00001338,0.00001167,-0.00002653,0.00000982,-
 0.00003726,0.00000107,0.00004999,0.00001221,0.00001794,-0.00005642,-0.
 00170801,-0.04351270,0.01439177,-0.08395645,0.18128955,0.00994314,0.09
 033246,-0.00008566,-0.00000491,0.00006156,-0.00000790,0.00008119,-0.00
 000266,0.00002634,-0.00007607,-0.00004858,-0.00001958,-0.00003617,-0.0
 0000702,-0.00035603,0.00042217,-0.00029558,-0.00006651,0.00018728,0.00
 001322,0.00068991,-0.00086851,-0.00000598,-0.00002393,0.00012313,0.000
 19077,-0.00022902,-0.00008384,-0.00005497,0.00000544,0.00002156,0.0000
 2947,0.00005952,0.00015357,-0.00002036,0.00002672,0.00002035,-0.000052
 33,-0.00000761,0.00000283,0.00001973,-0.00001825,0.00000089,0.00001087
 ,0.00001741,0.00002703,0.00002753,0.00000180,-0.00001104,0.00000316,-0
 .00001154,-0.00001111,-0.00001512,0.00000222,0.00000256,0.00000703,-0.
 00001630,0.00000133,-0.00000087,0.00000571,-0.00000733,-0.00000047,-0.
 00089832,-0.00207665,0.00134567,0.00011587,0.00021108,-0.00035221,-0.0
 0027880,-0.00007218,-0.00020183,-0.00000761,-0.00000359,-0.00001758,-0
 .00001346,-0.00000721,-0.00000057,-0.00000670,0.00000201,0.00002087,0.
 00001443,0.00001718,-0.00000488,0.00235329,-0.00942655,0.00276395,0.13
 555125,-0.45486975,0.01164344,-0.13682271,0.46628075,0.00007880,-0.000
 06075,0.00002723,-0.00002853,-0.00004404,-0.00003154,0.00005781,0.0000
 4465,-0.00000919,-0.00003991,-0.00003378,0.00002698,0.00010233,-0.0002
 1567,-0.00046532,-0.00011651,0.00003691,0.00009120,0.00011515,-0.00034
 450,0.00002310,-0.00010330,0.00004302,0.00013030,-0.00003948,0.0002454
 3,0.00003088,0.00003411,-0.00002421,0.00001837,-0.00006332,-0.00003238
 ,0.00002148,-0.00004345,-0.00005514,0.00008758,0.00001293,0.00001356,-
 0.00002802,0.00002197,-0.00002099,-0.00002609,-0.00000166,0.00000673,-
 0.00004184,-0.00000449,0.00000547,-0.00000613,0.00000708,0.00000074,0.
 00002311,0.00000150,0.00000656,-0.00001434,0.00001446,0.00000199,0.000
 00055,0.00000115,-0.00000984,-0.00000382,0.00478878,0.00361954,-0.0017
 5754,-0.00032187,0.00069256,-0.00098683,-0.00038893,0.00006322,-0.0004
 2309,-0.00003730,-0.00000119,0.00007331,0.00002356,0.,-0.00000471,-0.0
 0000306,0.00000287,-0.00001433,0.00000832,-0.00001307,-0.00004192,-0.0
 0456720,0.02403753,-0.00589735,0.02489204,-0.01290896,-0.00958844,-0.0
 2440099,-0.01505626,0.01878641\\0.00000162,-0.00000349,0.00000116,0.00
 000239,-0.00000316,0.00000159,0.00000097,-0.00000416,0.00000091,0.0000
 0176,-0.00000396,0.00000145,0.00000133,-0.00000230,0.00000120,0.000001
 44,-0.00000170,0.00000082,-0.00000120,-0.00000198,-0.00000186,0.000000
 45,-0.00000207,0.00000055,0.00000113,0.00000043,0.00000150,0.00000105,
 0.00000060,0.00000063,-0.00000170,0.00000106,-0.00000036,0.00000065,0.
 00000163,0.00000001,-0.00000029,0.00000059,-0.00000026,0.00000134,0.00
 000111,0.00000048,0.00000001,0.00000279,-0.00000047,0.00000067,0.00000
 324,-0.00000019,0.00000055,0.00000365,-0.00000039,-0.00000002,0.000003
 23,-0.00000051,0.00000040,0.00000475,-0.00000060,0.00000161,0.00000354
 ,0.00000014,-0.00000062,-0.00000097,0.00000058,-0.00000016,-0.00000304
 ,0.00000046,-0.00000039,-0.00000217,-0.00000045,-0.00000143,0.00000299
 ,-0.00000104,-0.00000151,0.00000411,-0.00000140,-0.00000190,0.00000257
 ,-0.00000134,-0.00000167,0.00000252,-0.00000124,-0.00000423,-0.0000051
 3,0.00000172,0.00000116,-0.00000176,-0.00000273,-0.00000342,-0.0000029
 3,-0.00000034\\\@


 "THE ACADEMIC HIERARCHY"


 THE PRESIDENT:
   LEAPS TALL BUILDINGS IN A SINGLE BOUND,
     IS MORE POWERFUL THAN A LOCOMOTIVE,
       IS FASTER THAN A SPEEDING BULLET,
         WALKS ON WATER,
           GIVES POLICY TO GOD.

 THE VICE PRESIDENT FOR ACADEMIC AFFAIRS:
   LEAPS SHORT BUILDINGS IN A SINGLE BOUND,
     IS MORE POWERFUL THAN A SWITCH ENGINE,
       IS JUST AS FAST AS A SPEEDING BULLET,
         WALKS ON WATER IF SEA IS CALM,
           TALKS WITH GOD.

 PROFESSOR:
   LEAPS SHORT BUILDINGS WITH A RUNNING START AND FAVORABLE WINDS,
     IS ALMOST AS POWERFUL AS A SWITCH ENGINE,
       CAN FIRE A SPEEDING BULLET,
         WALKS ON WATER IN AN INDOOR SWIMMING POOL,
          TALKS WITH GOD IF SPECIAL REQUEST IS APPROVED.

 ASSOCIATE PROFESSOR:
   BARELY CLEARS A QUONSET HUT,
     LOSES TUG OF WAR WITH LOCOMOTIVE,
       MISFIRES FREQUENTLY,
         SWIMS WELL,
           IS OCCASIONALLY ADDRESSED BY GOD.

 ASSISTANT PROFESSOR:
   MAKES HIGH MARKS ON WALLS WHEN TRYING TO LEAP TALL BUILDINGS,
     IS RUN OVER BY LOCOMOTIVES,
       CAN SOMETIMES HANDLE A GUN WITHOUT INFLICTING SELF INJURY,
         DOG PADDLES,
           TALKS TO ANIMALS.

 GRADUATE STUDENT:
   RUNS INTO BUILDINGS,
     RECOGNIZES LOCOMOTIVES TWO OUT OF THREE TIMES,
       IS NOT ISSUED AMMUNITION,
         CAN STAY AFLOAT WITH A LIFE JACKET,
           TALKS TO WALLS.

 UNDERGRADUATE AND WORK STUDY STUDENT:
   FALLS OVER DOORSTEP WHEN TRYING TO ENTER BUILDINGS,
     SAYS, "LOOK AT THE CHOO-CHOO,"
       WETS HIMSELF WITH A WATER PISTOL,
        PLAYS IN MUD PUDDLES,
          MUMBLES TO HIMSELF.

 DEPARTMENT SECRETARY:
   LIFTS TALL BUILDINGS AND WALKS UNDER THEM,
     KICKS LOCOMOTIVES OFF THE TRACKS,
       CATCHES SPEEDING BULLETS IN HER TEETH AND EATS THEM,
         FREEZES WATER WITH A SINGLE GLANCE,
           IS GOD.
 Job cpu time:  0 days  3 hours 43 minutes 43.1 seconds.
 File lengths (MBytes):  RWF=    713 Int=      0 D2E=      0 Chk=     20 Scr=      1
 Normal termination of Gaussian 09 at Thu Feb  6 23:39:26 2014.
