 Entering Gaussian System, Link 0=g09
 Initial command:
 /usr/caen/gaussian-09revc/g09/l1.exe /scratch/avioli_flux/hetanjin/scratch/Gau-101571.inp -scrdir=/scratch/avioli_flux/hetanjin/scratch/
 Entering Link 1 = /usr/caen/gaussian-09revc/g09/l1.exe PID=    101572.
  
 Copyright (c) 1988,1990,1992,1993,1995,1998,2003,2009,2011,
            Gaussian, Inc.  All Rights Reserved.
  
 This is part of the Gaussian(R) 09 program.  It is based on
 the Gaussian(R) 03 system (copyright 2003, Gaussian, Inc.),
 the Gaussian(R) 98 system (copyright 1998, Gaussian, Inc.),
 the Gaussian(R) 94 system (copyright 1995, Gaussian, Inc.),
 the Gaussian 92(TM) system (copyright 1992, Gaussian, Inc.),
 the Gaussian 90(TM) system (copyright 1990, Gaussian, Inc.),
 the Gaussian 88(TM) system (copyright 1988, Gaussian, Inc.),
 the Gaussian 86(TM) system (copyright 1986, Carnegie Mellon
 University), and the Gaussian 82(TM) system (copyright 1983,
 Carnegie Mellon University). Gaussian is a federally registered
 trademark of Gaussian, Inc.
  
 This software contains proprietary and confidential information,
 including trade secrets, belonging to Gaussian, Inc.
  
 This software is provided under written license and may be
 used, copied, transmitted, or stored only in accord with that
 written license.
  
 The following legend is applicable only to US Government
 contracts under FAR:
  
                    RESTRICTED RIGHTS LEGEND
  
 Use, reproduction and disclosure by the US Government is
 subject to restrictions as set forth in subparagraphs (a)
 and (c) of the Commercial Computer Software - Restricted
 Rights clause in FAR 52.227-19.
  
 Gaussian, Inc.
 340 Quinnipiac St., Bldg. 40, Wallingford CT 06492
  
  
 ---------------------------------------------------------------
 Warning -- This program may not be used in any manner that
 competes with the business of Gaussian, Inc. or will provide
 assistance to any competitor of Gaussian, Inc.  The licensee
 of this program is prohibited from giving any competitor of
 Gaussian, Inc. access to this program.  By using this program,
 the user acknowledges that Gaussian, Inc. is engaged in the
 business of creating and licensing software in the field of
 computational chemistry and represents and warrants to the
 licensee that it is not a competitor of Gaussian, Inc. and that
 it will not use this program in any manner prohibited above.
 ---------------------------------------------------------------
  

 Cite this work as:
 Gaussian 09, Revision C.01,
 M. J. Frisch, G. W. Trucks, H. B. Schlegel, G. E. Scuseria, 
 M. A. Robb, J. R. Cheeseman, G. Scalmani, V. Barone, B. Mennucci, 
 G. A. Petersson, H. Nakatsuji, M. Caricato, X. Li, H. P. Hratchian, 
 A. F. Izmaylov, J. Bloino, G. Zheng, J. L. Sonnenberg, M. Hada, 
 M. Ehara, K. Toyota, R. Fukuda, J. Hasegawa, M. Ishida, T. Nakajima, 
 Y. Honda, O. Kitao, H. Nakai, T. Vreven, J. A. Montgomery, Jr., 
 J. E. Peralta, F. Ogliaro, M. Bearpark, J. J. Heyd, E. Brothers, 
 K. N. Kudin, V. N. Staroverov, T. Keith, R. Kobayashi, J. Normand, 
 K. Raghavachari, A. Rendell, J. C. Burant, S. S. Iyengar, J. Tomasi, 
 M. Cossi, N. Rega, J. M. Millam, M. Klene, J. E. Knox, J. B. Cross, 
 V. Bakken, C. Adamo, J. Jaramillo, R. Gomperts, R. E. Stratmann, 
 O. Yazyev, A. J. Austin, R. Cammi, C. Pomelli, J. W. Ochterski, 
 R. L. Martin, K. Morokuma, V. G. Zakrzewski, G. A. Voth, 
 P. Salvador, J. J. Dannenberg, S. Dapprich, A. D. Daniels, 
 O. Farkas, J. B. Foresman, J. V. Ortiz, J. Cioslowski, 
 and D. J. Fox, Gaussian, Inc., Wallingford CT, 2010.
 
 ******************************************
 Gaussian 09:  EM64L-G09RevC.01 23-Sep-2011
                24-Feb-2014 
 ******************************************
 %mem=30GB
 %nprocshared=8
 Will use up to    8 processors via shared memory.
 %chk=TS_1_C9H18_1.chk
 ----------------------------------------------
 #p opt=(calcfc,qst3) freq ub3lyp/6-311++g(d,p)
 ----------------------------------------------
 1/5=1,10=4,14=-1,18=20,26=3,27=203,38=1/1,3;
 2/9=110,12=2,17=6,18=5,40=1/2;
 3/5=4,6=6,7=1111,11=2,16=1,25=1,30=1,71=2,74=-5,116=2/1,2,3;
 4//1;
 5/5=2,38=5/2;
 8/6=4,10=90,11=11/1;
 11/6=1,8=1,9=11,15=111,16=1/1,2,10;
 10/6=1,7=6,13=1/2;
 6/7=2,8=2,9=2,10=2,28=1/1;
 7/10=1,18=20,25=1/1,2,3,16;
 1/5=1,10=4,14=-1,18=20,27=203/3(2);
 2/9=110/2;
 99//99;
 2/9=110/2;
 3/5=4,6=6,7=1111,11=2,16=1,25=1,30=1,71=1,74=-5,116=2/1,2,3;
 4/5=5,16=3/1;
 5/5=2,38=5/2;
 7//1,2,3,16;
 1/5=1,14=-1,18=20,27=203/3(-5);
 2/9=110/2;
 6/7=2,8=2,9=2,10=2,19=2,28=1/1;
 99/9=1/99;
 Leave Link    1 at Mon Feb 24 19:15:09 2014, MaxMem= 4026531840 cpu:       0.9
 (Enter /usr/caen/gaussian-09revc/g09/l101.exe)
 -------------------------------------------------------------
 TS_1_C9H18_1 using B3LYP/6-311++g(d,p) to find TS | reactants
 -------------------------------------------------------------
 Charge =  0 Multiplicity = 2
 Symbolic Z-Matrix:
 C                     2.81735  -1.88016  -0.06712 
 H                     2.80832  -2.29847   0.94531 
 H                     2.53573  -2.6779   -0.75931 
 H                     3.84186  -1.58063  -0.29797 
 C                     1.84468  -0.69861  -0.18147 
 H                     1.85232  -0.33347  -1.21558 
 C                     0.40452  -1.1235    0.17121 
 H                     0.20334  -2.07034  -0.34334 
 H                     0.34622  -1.35223   1.24429 
 C                    -0.69526  -0.12018  -0.20391 
 H                    -0.61958   0.10952  -1.27441 
 H                    -0.53763   0.82598   0.323 
 C                    -2.10273  -0.64894   0.10186 
 H                    -2.19767  -0.82931   1.18168 
 H                    -2.21979  -1.6284   -0.37912 
 C                    -3.2616    0.25784  -0.35453 
 H                    -3.13132   0.44501  -1.42948 
 C                    -4.6077   -0.4552   -0.16414 
 H                    -4.78968  -0.66985   0.89483 
 H                    -5.43702   0.1608   -0.52396 
 H                    -4.6365   -1.40532  -0.70583 
 C                     2.29192   0.46786   0.69902 
 H                     1.60846   1.31562   0.6555 
 H                     2.4401    0.15734   1.73681 
 C                    -3.26526   1.61595   0.36234 
 H                    -4.10918   2.22866   0.03216 
 H                    -3.3571    1.48326   1.44649 
 H                    -2.35308   2.18637   0.17119 
 O                     3.60701   0.97195   0.30324 
 O                     3.54257   1.70843  -0.78846 
 
 --------
 products
 --------
 Charge =  0 Multiplicity = 2
 Symbolic Z-Matrix:
 C                     2.92808   1.75872   0.38262 
 H                     2.68374   2.81619   0.53209 
 H                     3.07048   1.32492   1.37813 
 H                     3.87395   1.69637  -0.15707 
 C                     1.8121    1.06251  -0.35465 
 H                     1.89945  -0.90097   1.13018 
 C                     0.47879   1.06674   0.35916 
 H                     0.23313   2.1132    0.58806 
 H                     0.62183   0.59465   1.34152 
 C                    -0.70891   0.41371  -0.35255 
 H                    -0.87777   0.91232  -1.31453 
 H                    -0.47073  -0.62993  -0.57914 
 C                    -1.99485   0.47909   0.48222 
 H                    -1.85028  -0.07741   1.41849 
 H                    -2.17291   1.52189   0.77392 
 C                    -3.25948  -0.05137  -0.21986 
 H                    -3.37462   0.50661  -1.1596 
 C                    -4.50203   0.21977   0.64022 
 H                    -4.44369  -0.32121   1.59118 
 H                    -5.41448  -0.10421   0.13137 
 H                    -4.60598   1.28483   0.86838 
 C                     2.01499   0.50034  -1.55502 
 H                     1.21293   0.01841  -2.10989 
 H                     2.98693   0.54504  -2.0367 
 C                    -3.15899  -1.54413  -0.5656 
 H                    -4.07884  -1.8964   -1.04146 
 H                    -3.004    -2.14276   0.33906 
 H                    -2.33452  -1.75713  -1.25025 
 O                     2.64582  -1.61292  -0.42075 
 O                     2.42767  -1.70396   0.88661 
 
 -------------
 intermediates
 -------------
 Charge =  0 Multiplicity = 2
 Symbolic Z-Matrix:
 C                    -2.97644  -1.50878   0.8041 
 H                    -3.07872  -2.44301   0.2325 
 H                    -2.66913  -1.78084   1.81721 
 H                    -3.95999  -1.03638   0.85007 
 C                    -1.96248  -0.60261   0.14527 
 H                    -2.04456   0.58827   0.77102 
 C                    -0.54106  -1.12278   0.10972 
 H                    -0.46261  -1.85156  -0.71488 
 H                    -0.35822  -1.70027   1.02322 
 C                     0.56929  -0.07017  -0.04596 
 H                     0.42263   0.50333  -0.96763 
 H                     0.4896    0.64823   0.77552 
 C                     1.96646  -0.70275  -0.06712 
 H                     2.13595  -1.24535   0.87327 
 H                     1.99651  -1.459    -0.86204 
 C                     3.12992   0.2826   -0.28869 
 H                     2.91846   0.84308  -1.20986 
 C                     4.44575  -0.48036  -0.49713 
 H                     4.70291  -1.06595   0.39257 
 H                     5.27486   0.20605  -0.69206 
 H                     4.37788  -1.172    -1.34223 
 C                    -2.49539   0.13973  -1.09665 
 H                    -1.67746   0.58542  -1.67052 
 H                    -3.12118  -0.47766  -1.74945 
 C                     3.26975   1.29495   0.85749 
 H                     4.11031   1.97156   0.6783 
 H                     3.45491   0.78183   1.80808 
 H                     2.37468   1.90979   0.97768 
 O                    -3.25494   1.69702   0.27937 
 O                    -2.20144   1.5275    1.26116 
 
 NAtoms=     30 NQM=        0 NQMF=       0 NMMI=     30 NMMIF=      0
                NMic=       0 NMicF=      0.
                    Isotopes and Nuclear Properties:
 (Nuclear quadrupole moments (NQMom) in fm**2, nuclear magnetic moments (NMagM)
  in nuclear magnetons)

  Atom         1           2           3           4           5           6           7           8           9          10
 IAtWgt=          12           1           1           1          12           1          12           1           1          12
 AtmWgt=  12.0000000   1.0078250   1.0078250   1.0078250  12.0000000   1.0078250  12.0000000   1.0078250   1.0078250  12.0000000
 NucSpn=           0           1           1           1           0           1           0           1           1           0
 AtZEff=   0.0000000   0.0000000   0.0000000   0.0000000   0.0000000   0.0000000   0.0000000   0.0000000   0.0000000   0.0000000
 NQMom=    0.0000000   0.0000000   0.0000000   0.0000000   0.0000000   0.0000000   0.0000000   0.0000000   0.0000000   0.0000000
 NMagM=    0.0000000   2.7928460   2.7928460   2.7928460   0.0000000   2.7928460   0.0000000   2.7928460   2.7928460   0.0000000

  Atom        11          12          13          14          15          16          17          18          19          20
 IAtWgt=           1           1          12           1           1          12           1          12           1           1
 AtmWgt=   1.0078250   1.0078250  12.0000000   1.0078250   1.0078250  12.0000000   1.0078250  12.0000000   1.0078250   1.0078250
 NucSpn=           1           1           0           1           1           0           1           0           1           1
 AtZEff=   0.0000000   0.0000000   0.0000000   0.0000000   0.0000000   0.0000000   0.0000000   0.0000000   0.0000000   0.0000000
 NQMom=    0.0000000   0.0000000   0.0000000   0.0000000   0.0000000   0.0000000   0.0000000   0.0000000   0.0000000   0.0000000
 NMagM=    2.7928460   2.7928460   0.0000000   2.7928460   2.7928460   0.0000000   2.7928460   0.0000000   2.7928460   2.7928460

  Atom        21          22          23          24          25          26          27          28          29          30
 IAtWgt=           1          12           1           1          12           1           1           1          16          16
 AtmWgt=   1.0078250  12.0000000   1.0078250   1.0078250  12.0000000   1.0078250   1.0078250   1.0078250  15.9949146  15.9949146
 NucSpn=           1           0           1           1           0           1           1           1           0           0
 AtZEff=   0.0000000   0.0000000   0.0000000   0.0000000   0.0000000   0.0000000   0.0000000   0.0000000   0.0000000   0.0000000
 NQMom=    0.0000000   0.0000000   0.0000000   0.0000000   0.0000000   0.0000000   0.0000000   0.0000000   0.0000000   0.0000000
 NMagM=    2.7928460   0.0000000   2.7928460   2.7928460   0.0000000   2.7928460   2.7928460   2.7928460   0.0000000   0.0000000
 Leave Link  101 at Mon Feb 24 19:15:10 2014, MaxMem= 4026531840 cpu:       5.3
 (Enter /usr/caen/gaussian-09revc/g09/l103.exe)

 GradGradGradGradGradGradGradGradGradGradGradGradGradGradGradGradGradGrad
 Berny optimization.
 Initialization pass.
                           ----------------------------
                           !    Initial Parameters    !
                           ! (Angstroms and Degrees)  !
 --------------------------                            --------------------------
 ! Name  Definition        TS        Reactant  Product Derivative Info.         !
 --------------------------------------------------------------------------------
 ! R1    R(1,2)             1.1       1.0955    1.0956 calculate D2E/DX2 analyti!
 ! R2    R(1,3)             1.0931    1.0931    1.0952 calculate D2E/DX2 analyti!
 ! R3    R(1,4)             1.0921    1.0921    1.0908 calculate D2E/DX2 analyti!
 ! R4    R(1,5)             1.5111    1.5347    1.5079 calculate D2E/DX2 analyti!
 ! R5    R(5,6)             1.3478    1.0967    2.4633 calculate D2E/DX2 analyti!
 ! R6    R(5,7)             1.514     1.5424    1.5124 calculate D2E/DX2 analyti!
 ! R7    R(5,22)            1.5419    1.5284    1.3409 calculate D2E/DX2 analyti!
 ! R8    R(6,7)             2.3718    2.1549    2.5465 calculate D2E/DX2 analyti!
 ! R9    R(6,30)            1.071     2.6849    0.9915 calculate D2E/DX2 analyti!
 ! R10   R(7,8)             1.1033    1.0962    1.099  calculate D2E/DX2 analyti!
 ! R11   R(7,9)             1.0961    1.0987    1.0993 calculate D2E/DX2 analyti!
 ! R12   R(7,10)            1.5379    1.5352    1.5309 calculate D2E/DX2 analyti!
 ! R13   R(10,11)           1.0954    1.0975    1.0966 calculate D2E/DX2 analyti!
 ! R14   R(10,12)           1.0942    1.0944    1.0942 calculate D2E/DX2 analyti!
 ! R15   R(10,13)           1.5338    1.5343    1.5345 calculate D2E/DX2 analyti!
 ! R16   R(13,14)           1.0989    1.0989    1.0987 calculate D2E/DX2 analyti!
 ! R17   R(13,15)           1.0976    1.0974    1.0974 calculate D2E/DX2 analyti!
 ! R18   R(13,16)           1.5407    1.5406    1.5407 calculate D2E/DX2 analyti!
 ! R19   R(16,17)           1.0988    1.0989    1.099  calculate D2E/DX2 analyti!
 ! R20   R(16,18)           1.5352    1.5351    1.5353 calculate D2E/DX2 analyti!
 ! R21   R(16,25)           1.5356    1.5357    1.5356 calculate D2E/DX2 analyti!
 ! R22   R(18,19)           1.0957    1.0957    1.0956 calculate D2E/DX2 analyti!
 ! R23   R(18,20)           1.0939    1.0939    1.0938 calculate D2E/DX2 analyti!
 ! R24   R(18,21)           1.0941    1.0941    1.0942 calculate D2E/DX2 analyti!
 ! R25   R(22,23)           1.0941    1.0898    1.0879 calculate D2E/DX2 analyti!
 ! R26   R(22,24)           1.095     1.0933    1.0857 calculate D2E/DX2 analyti!
 ! R27   R(22,29)           2.2126    1.463     2.48   calculate D2E/DX2 analyti!
 ! R28   R(25,26)           1.0938    1.0939    1.0939 calculate D2E/DX2 analyti!
 ! R29   R(25,27)           1.096     1.0961    1.0958 calculate D2E/DX2 analyti!
 ! R30   R(25,28)           1.0925    1.0927    1.0926 calculate D2E/DX2 analyti!
 ! R31   R(29,30)           1.45      1.3185    1.3286 calculate D2E/DX2 analyti!
 ! A1    A(2,1,3)         107.2396  107.7244  106.697  calculate D2E/DX2 analyti!
 ! A2    A(2,1,4)         107.7892  107.9286  108.4247 calculate D2E/DX2 analyti!
 ! A3    A(2,1,5)         110.1908  110.9541  110.3223 calculate D2E/DX2 analyti!
 ! A4    A(3,1,4)         108.7752  107.9391  108.3215 calculate D2E/DX2 analyti!
 ! A5    A(3,1,5)         111.3897  110.5734  110.9639 calculate D2E/DX2 analyti!
 ! A6    A(4,1,5)         111.302   111.5719  111.9292 calculate D2E/DX2 analyti!
 ! A7    A(1,5,6)         106.6532  108.7945   92.6973 calculate D2E/DX2 analyti!
 ! A8    A(1,5,7)         115.7332  111.2635  114.8606 calculate D2E/DX2 analyti!
 ! A9    A(1,5,22)        114.0784  111.0516  121.2844 calculate D2E/DX2 analyti!
 ! A10   A(6,5,7)         111.8173  108.29     75.4624 calculate D2E/DX2 analyti!
 ! A11   A(6,5,22)         85.8431  106.6825  101.5406 calculate D2E/DX2 analyti!
 ! A12   A(7,5,22)        118.0977  110.5944  123.8533 calculate D2E/DX2 analyti!
 ! A13   A(5,6,30)        175.0658   96.1765  121.0878 calculate D2E/DX2 analyti!
 ! A14   A(7,6,30)        148.5523  126.8283  148.0607 calculate D2E/DX2 analyti!
 ! A15   A(5,7,8)         108.1345  107.5759  107.3391 calculate D2E/DX2 analyti!
 ! A16   A(5,7,9)         108.5452  109.2811  107.8104 calculate D2E/DX2 analyti!
 ! A17   A(5,7,10)        116.427   115.657   117.6039 calculate D2E/DX2 analyti!
 ! A18   A(6,7,8)         136.8856   97.9261  142.8833 calculate D2E/DX2 analyti!
 ! A19   A(6,7,9)         104.6821  137.7743   47.5435 calculate D2E/DX2 analyti!
 ! A20   A(6,7,10)         89.5493   94.8448  104.1208 calculate D2E/DX2 analyti!
 ! A21   A(8,7,9)         105.249   105.5976  104.5894 calculate D2E/DX2 analyti!
 ! A22   A(8,7,10)        108.9727  108.5609  109.2435 calculate D2E/DX2 analyti!
 ! A23   A(9,7,10)        108.9382  109.6744  109.4642 calculate D2E/DX2 analyti!
 ! A24   A(7,10,11)       110.2952  109.0089  109.4714 calculate D2E/DX2 analyti!
 ! A25   A(7,10,12)       108.7107  110.1326  109.5275 calculate D2E/DX2 analyti!
 ! A26   A(7,10,13)       112.1344  112.5341  112.2762 calculate D2E/DX2 analyti!
 ! A27   A(11,10,12)      106.1523  106.1851  106.5907 calculate D2E/DX2 analyti!
 ! A28   A(11,10,13)      109.043   109.2556  109.196  calculate D2E/DX2 analyti!
 ! A29   A(12,10,13)      110.3329  109.5197  109.6154 calculate D2E/DX2 analyti!
 ! A30   A(10,13,14)      109.4111  109.3693  109.3727 calculate D2E/DX2 analyti!
 ! A31   A(10,13,15)      108.608   108.547   108.7273 calculate D2E/DX2 analyti!
 ! A32   A(10,13,16)      115.2202  115.3502  115.1697 calculate D2E/DX2 analyti!
 ! A33   A(14,13,15)      105.9828  105.9598  106.0307 calculate D2E/DX2 analyti!
 ! A34   A(14,13,16)      108.8079  108.8273  108.7802 calculate D2E/DX2 analyti!
 ! A35   A(15,13,16)      108.4107  108.3749  108.3688 calculate D2E/DX2 analyti!
 ! A36   A(13,16,17)      107.5447  107.5095  107.5094 calculate D2E/DX2 analyti!
 ! A37   A(13,16,18)      110.4218  110.4539  110.3788 calculate D2E/DX2 analyti!
 ! A38   A(13,16,25)      112.5224  112.5834  112.5568 calculate D2E/DX2 analyti!
 ! A39   A(17,16,18)      107.7347  107.7212  107.7326 calculate D2E/DX2 analyti!
 ! A40   A(17,16,25)      107.8778  107.8364  107.9331 calculate D2E/DX2 analyti!
 ! A41   A(18,16,25)      110.5438  110.5348  110.5348 calculate D2E/DX2 analyti!
 ! A42   A(16,18,19)      110.8853  110.8843  110.8509 calculate D2E/DX2 analyti!
 ! A43   A(16,18,20)      111.2211  111.2484  111.2354 calculate D2E/DX2 analyti!
 ! A44   A(16,18,21)      111.4596  111.4101  111.4447 calculate D2E/DX2 analyti!
 ! A45   A(19,18,20)      107.588   107.5955  107.5748 calculate D2E/DX2 analyti!
 ! A46   A(19,18,21)      107.6913  107.6983  107.74   calculate D2E/DX2 analyti!
 ! A47   A(20,18,21)      107.8205  107.8308  107.8221 calculate D2E/DX2 analyti!
 ! A48   A(5,22,23)       111.114   112.7788  122.0574 calculate D2E/DX2 analyti!
 ! A49   A(5,22,24)       113.9702  111.6983  121.0211 calculate D2E/DX2 analyti!
 ! A50   A(5,22,29)        87.5118  111.7263   89.2152 calculate D2E/DX2 analyti!
 ! A51   A(23,22,24)      110.1364  110.1104  116.8715 calculate D2E/DX2 analyti!
 ! A52   A(23,22,29)      107.2256  106.5534   92.4832 calculate D2E/DX2 analyti!
 ! A53   A(24,22,29)      124.8501  103.4633   90.5889 calculate D2E/DX2 analyti!
 ! A54   A(16,25,26)      110.8235  110.8726  110.8527 calculate D2E/DX2 analyti!
 ! A55   A(16,25,27)      110.7391  110.7851  110.7589 calculate D2E/DX2 analyti!
 ! A56   A(16,25,28)      112.2421  112.2102  112.3318 calculate D2E/DX2 analyti!
 ! A57   A(26,25,27)      107.5691  107.5603  107.5856 calculate D2E/DX2 analyti!
 ! A58   A(26,25,28)      107.4264  107.387   107.4068 calculate D2E/DX2 analyti!
 ! A59   A(27,25,28)      107.8464  107.8281  107.7026 calculate D2E/DX2 analyti!
 ! A60   A(22,29,30)       95.1287  111.8724  117.82   calculate D2E/DX2 analyti!
 ! A61   A(6,30,29)        84.2076   74.7923  105.8851 calculate D2E/DX2 analyti!
 ! D1    D(2,1,5,6)       170.6078 -177.7827 -136.4331 calculate D2E/DX2 analyti!
 ! D2    D(2,1,5,7)       -64.3066  -58.5634  -61.2144 calculate D2E/DX2 analyti!
 ! D3    D(2,1,5,22)       77.696    65.0937  118.3196 calculate D2E/DX2 analyti!
 ! D4    D(3,1,5,6)       -70.4993  -58.3143  -18.399  calculate D2E/DX2 analyti!
 ! D5    D(3,1,5,7)        54.5863   60.905    56.8197 calculate D2E/DX2 analyti!
 ! D6    D(3,1,5,22)     -163.4111 -175.4379 -123.6464 calculate D2E/DX2 analyti!
 ! D7    D(4,1,5,6)        51.0842   61.8288  102.7413 calculate D2E/DX2 analyti!
 ! D8    D(4,1,5,7)       176.1698 -178.9519  177.96   calculate D2E/DX2 analyti!
 ! D9    D(4,1,5,22)      -41.8276  -55.2947   -2.506  calculate D2E/DX2 analyti!
 ! D10   D(1,5,6,30)      -45.8151  -98.5545  -95.06   calculate D2E/DX2 analyti!
 ! D11   D(22,5,6,30)      68.0905   21.3198   27.6379 calculate D2E/DX2 analyti!
 ! D12   D(1,5,7,8)        79.3862  -45.455    54.6309 calculate D2E/DX2 analyti!
 ! D13   D(1,5,7,9)       -34.3041   68.7257  -57.5461 calculate D2E/DX2 analyti!
 ! D14   D(1,5,7,10)     -157.6023 -166.9601  178.1953 calculate D2E/DX2 analyti!
 ! D15   D(6,5,7,8)      -158.2277   74.065   140.8137 calculate D2E/DX2 analyti!
 ! D16   D(6,5,7,9)        88.082  -171.7543   28.6366 calculate D2E/DX2 analyti!
 ! D17   D(6,5,7,10)      -35.2162  -47.44    -95.6219 calculate D2E/DX2 analyti!
 ! D18   D(22,5,7,8)      -61.0342 -169.372  -124.8895 calculate D2E/DX2 analyti!
 ! D19   D(22,5,7,9)     -174.7245  -55.1913  122.9334 calculate D2E/DX2 analyti!
 ! D20   D(22,5,7,10)      61.9772   69.1229   -1.3252 calculate D2E/DX2 analyti!
 ! D21   D(1,5,22,23)    -166.3644 -178.7721 -178.3217 calculate D2E/DX2 analyti!
 ! D22   D(1,5,22,24)     -41.2266  -54.13     -0.9754 calculate D2E/DX2 analyti!
 ! D23   D(1,5,22,29)      86.1201   61.2298   89.2398 calculate D2E/DX2 analyti!
 ! D24   D(6,5,22,23)      87.2417   62.821    81.2925 calculate D2E/DX2 analyti!
 ! D25   D(6,5,22,24)    -147.6206 -172.5369 -101.3612 calculate D2E/DX2 analyti!
 ! D26   D(6,5,22,29)     -20.2739  -57.1771  -11.146  calculate D2E/DX2 analyti!
 ! D27   D(7,5,22,23)     -25.3158  -54.7334    1.1692 calculate D2E/DX2 analyti!
 ! D28   D(7,5,22,24)      99.822    69.9087  178.5154 calculate D2E/DX2 analyti!
 ! D29   D(7,5,22,29)    -132.8314 -174.7315  -91.2694 calculate D2E/DX2 analyti!
 ! D30   D(30,6,7,8)     -150.062  -164.6233 -146.007  calculate D2E/DX2 analyti!
 ! D31   D(30,6,7,9)       77.2762  -40.7505  164.0277 calculate D2E/DX2 analyti!
 ! D32   D(30,6,7,10)     -32.2022   85.8445   60.4039 calculate D2E/DX2 analyti!
 ! D33   D(5,6,30,29)     -39.2436   12.0737  -18.013  calculate D2E/DX2 analyti!
 ! D34   D(7,6,30,29)     148.4255   44.8516   14.9638 calculate D2E/DX2 analyti!
 ! D35   D(5,7,10,11)     -58.3922   55.2228  -58.9071 calculate D2E/DX2 analyti!
 ! D36   D(5,7,10,12)      57.6103  -60.9      57.6269 calculate D2E/DX2 analyti!
 ! D37   D(5,7,10,13)     179.8739  176.5935  179.6461 calculate D2E/DX2 analyti!
 ! D38   D(6,7,10,11)     -76.1037   34.2937 -132.8261 calculate D2E/DX2 analyti!
 ! D39   D(6,7,10,12)      39.8988  -81.829   -16.292  calculate D2E/DX2 analyti!
 ! D40   D(6,7,10,13)     162.1624  155.6645  105.7271 calculate D2E/DX2 analyti!
 ! D41   D(8,7,10,11)      64.1826  -65.7525   63.6908 calculate D2E/DX2 analyti!
 ! D42   D(8,7,10,12)    -179.8149  178.1247 -179.7751 calculate D2E/DX2 analyti!
 ! D43   D(8,7,10,13)     -57.5514   55.6182  -57.7559 calculate D2E/DX2 analyti!
 ! D44   D(9,7,10,11)     178.5134  179.3324  177.6662 calculate D2E/DX2 analyti!
 ! D45   D(9,7,10,12)     -65.4842   63.2096  -65.7998 calculate D2E/DX2 analyti!
 ! D46   D(9,7,10,13)      56.7794  -59.2969   56.2194 calculate D2E/DX2 analyti!
 ! D47   D(7,10,13,14)    -59.8761   61.7396  -62.1418 calculate D2E/DX2 analyti!
 ! D48   D(7,10,13,15)     55.3816  -53.4349   53.2176 calculate D2E/DX2 analyti!
 ! D49   D(7,10,13,16)    177.1806 -175.2301  175.0182 calculate D2E/DX2 analyti!
 ! D50   D(11,10,13,14)   177.6761 -177.0304  176.2538 calculate D2E/DX2 analyti!
 ! D51   D(11,10,13,15)   -67.0663   67.7951  -68.3867 calculate D2E/DX2 analyti!
 ! D52   D(11,10,13,16)    54.7327  -54.0001   53.4139 calculate D2E/DX2 analyti!
 ! D53   D(12,10,13,14)    61.4598  -61.1114   59.8273 calculate D2E/DX2 analyti!
 ! D54   D(12,10,13,15)   176.7175 -176.2858  175.1868 calculate D2E/DX2 analyti!
 ! D55   D(12,10,13,16)   -61.4835   61.919   -63.0126 calculate D2E/DX2 analyti!
 ! D56   D(10,13,16,17)   -54.3668   55.2522  -55.9158 calculate D2E/DX2 analyti!
 ! D57   D(10,13,16,18)  -171.6643  172.5306 -173.1667 calculate D2E/DX2 analyti!
 ! D58   D(10,13,16,25)    64.2958  -63.3724   62.8123 calculate D2E/DX2 analyti!
 ! D59   D(14,13,16,17)  -177.6307  178.5696 -179.0713 calculate D2E/DX2 analyti!
 ! D60   D(14,13,16,18)    65.0718  -64.152    63.6777 calculate D2E/DX2 analyti!
 ! D61   D(14,13,16,25)   -58.9681   59.9451  -60.3433 calculate D2E/DX2 analyti!
 ! D62   D(15,13,16,17)    67.5386  -66.6355   66.0782 calculate D2E/DX2 analyti!
 ! D63   D(15,13,16,18)   -49.759    50.6429  -51.1728 calculate D2E/DX2 analyti!
 ! D64   D(15,13,16,25)  -173.7989  174.7399 -175.1938 calculate D2E/DX2 analyti!
 ! D65   D(13,16,18,19)   -62.3937   62.7181  -63.3317 calculate D2E/DX2 analyti!
 ! D66   D(13,16,18,20)   177.9293 -177.5781  177.0214 calculate D2E/DX2 analyti!
 ! D67   D(13,16,18,21)    57.5719  -57.2228   56.6624 calculate D2E/DX2 analyti!
 ! D68   D(17,16,18,19)  -179.5739  179.8658  179.5554 calculate D2E/DX2 analyti!
 ! D69   D(17,16,18,20)    60.7491  -60.4305   59.9084 calculate D2E/DX2 analyti!
 ! D70   D(17,16,18,21)   -59.6083   59.9249  -60.4505 calculate D2E/DX2 analyti!
 ! D71   D(25,16,18,19)    62.7778  -62.5487   61.8467 calculate D2E/DX2 analyti!
 ! D72   D(25,16,18,20)   -56.8992   57.1551  -57.8002 calculate D2E/DX2 analyti!
 ! D73   D(25,16,18,21)  -177.2566  177.5104 -178.1592 calculate D2E/DX2 analyti!
 ! D74   D(13,16,25,26)   179.2757 -178.8945  178.7033 calculate D2E/DX2 analyti!
 ! D75   D(13,16,25,27)    59.9784  -59.5466   59.3536 calculate D2E/DX2 analyti!
 ! D76   D(13,16,25,28)   -60.6116   61.0305  -61.1278 calculate D2E/DX2 analyti!
 ! D77   D(17,16,25,26)   -62.2572   62.6725  -62.8169 calculate D2E/DX2 analyti!
 ! D78   D(17,16,25,27)   178.4456 -177.9796  177.8334 calculate D2E/DX2 analyti!
 ! D79   D(17,16,25,28)    57.8556  -57.4024   57.352  calculate D2E/DX2 analyti!
 ! D80   D(18,16,25,26)    55.3033  -54.8422   54.7686 calculate D2E/DX2 analyti!
 ! D81   D(18,16,25,27)   -63.994    64.5057  -64.581  calculate D2E/DX2 analyti!
 ! D82   D(18,16,25,28)   175.416  -174.9172  174.9376 calculate D2E/DX2 analyti!
 ! D83   D(5,22,29,30)     31.4499   76.3873   10.1043 calculate D2E/DX2 analyti!
 ! D84   D(23,22,29,30)   -79.8976  -47.2024 -111.95   calculate D2E/DX2 analyti!
 ! D85   D(24,22,29,30)   149.1768 -163.3056  131.121  calculate D2E/DX2 analyti!
 ! D86   D(22,29,30,6)    -17.8651  -39.881     8.6433 calculate D2E/DX2 analyti!
 --------------------------------------------------------------------------------
 Trust Radius=3.00D-01 FncErr=1.00D-07 GrdErr=1.00D-06
 Number of steps in this run=    180 maximum allowed number of steps=    180.
 Search for a saddle point of order  1.
 GradGradGradGradGradGradGradGradGradGradGradGradGradGradGradGradGradGrad

 Leave Link  103 at Mon Feb 24 19:15:10 2014, MaxMem= 4026531840 cpu:       0.1
 (Enter /usr/caen/gaussian-09revc/g09/l202.exe)
                          Input orientation:                          
 ---------------------------------------------------------------------
 Center     Atomic      Atomic             Coordinates (Angstroms)
 Number     Number       Type             X           Y           Z
 ---------------------------------------------------------------------
      1          6           0       -2.976443   -1.508775    0.804101
      2          1           0       -3.078723   -2.443011    0.232499
      3          1           0       -2.669126   -1.780841    1.817207
      4          1           0       -3.959987   -1.036379    0.850070
      5          6           0       -1.962484   -0.602607    0.145265
      6          1           0       -2.044565    0.588270    0.771019
      7          6           0       -0.541059   -1.122780    0.109720
      8          1           0       -0.462609   -1.851563   -0.714880
      9          1           0       -0.358223   -1.700273    1.023223
     10          6           0        0.569293   -0.070171   -0.045964
     11          1           0        0.422629    0.503333   -0.967634
     12          1           0        0.489596    0.648233    0.775517
     13          6           0        1.966455   -0.702750   -0.067123
     14          1           0        2.135951   -1.245350    0.873267
     15          1           0        1.996512   -1.458995   -0.862036
     16          6           0        3.129924    0.282601   -0.288691
     17          1           0        2.918458    0.843075   -1.209864
     18          6           0        4.445753   -0.480364   -0.497133
     19          1           0        4.702906   -1.065952    0.392569
     20          1           0        5.274856    0.206050   -0.692063
     21          1           0        4.377882   -1.171997   -1.342230
     22          6           0       -2.495385    0.139730   -1.096653
     23          1           0       -1.677456    0.585418   -1.670517
     24          1           0       -3.121176   -0.477663   -1.749450
     25          6           0        3.269746    1.294951    0.857489
     26          1           0        4.110306    1.971561    0.678304
     27          1           0        3.454910    0.781830    1.808083
     28          1           0        2.374678    1.909791    0.977684
     29          8           0       -3.254942    1.697016    0.279369
     30          8           0       -2.201444    1.527503    1.261157
 ---------------------------------------------------------------------
                    Distance matrix (angstroms):
                    1          2          3          4          5
     1  C    0.000000
     2  H    1.099994   0.000000
     3  H    1.093091   1.765655   0.000000
     4  H    1.092076   1.771054   1.776485   0.000000
     5  C    1.511065   2.154225   2.164017   2.162158   0.000000
     6  H    2.295014   3.247792   2.664071   2.512882   1.347773
     7  C    2.561689   2.863184   2.806640   3.499236   1.514032
     8  H    2.957054   2.844537   3.359343   3.917301   2.132924
     9  H    2.634343   2.928826   2.444826   3.666530   2.132917
    10  C    3.919749   4.360726   4.109155   4.717077   2.594215
    11  H    4.329124   4.730827   4.746761   4.988194   2.854893
    12  H    4.082515   4.752216   4.118622   4.758389   2.823918
    13  C    5.083399   5.345288   5.118749   6.006269   3.935950
    14  H    5.119643   5.388673   4.926108   6.099563   4.211921
    15  H    5.244881   5.284345   5.389815   6.212068   4.173932
    16  C    6.456852   6.800581   6.505504   7.300912   5.186958
    17  H    6.658612   6.988916   6.875259   7.422175   5.267824
    18  C    7.605250   7.810383   7.594005   8.531153   6.441515
    19  H    7.703107   7.904155   7.542381   8.675016   6.686051
    20  H    8.559385   8.812186   8.564521   9.444794   7.330357
    21  H    7.668523   7.726332   7.746809   8.622333   6.537361
    22  C    2.561611   2.962681   3.494189   2.705184   1.541885
    23  H    3.492384   3.841406   4.329759   3.767430   2.188540
    24  H    2.757673   2.791508   3.824090   2.788059   2.224438
    25  C    6.846795   7.393648   6.756608   7.596328   5.611080
    26  H    7.896238   8.448037   7.831878   8.614339   6.617345
    27  H    6.900518   7.454557   6.638613   7.694438   5.833506
    28  H    6.352261   7.017248   6.305991   6.987430   5.080949
    29  O    3.260368   4.144041   3.847547   2.879971   2.641344
    30  O    3.166782   4.194370   3.387191   3.136074   2.416545
                    6          7          8          9         10
     6  H    0.000000
     7  C    2.371822   0.000000
     8  H    3.265466   1.103288   0.000000
     9  H    2.853907   1.096091   1.747795   0.000000
    10  C    2.816604   1.537890   2.164631   2.158861   0.000000
    11  H    3.019466   2.175691   2.528451   3.070687   1.095396
    12  H    2.534874   2.154535   3.062182   2.509111   1.094206
    13  C    4.296219   2.548593   2.764003   2.754639   1.533840
    14  H    4.566107   2.786469   3.105192   2.539753   2.163434
    15  H    4.815440   2.737995   2.494602   3.026086   2.152152
    16  C    5.290724   3.950942   4.200308   4.221383   2.596189
    17  H    5.349806   4.192153   4.351746   4.710832   2.776195
    18  C    6.698837   5.064510   5.100943   5.184385   3.924125
    19  H    6.957589   5.251895   5.340990   5.139564   4.274418
    20  H    7.473997   6.019428   6.095309   6.189334   4.757737
    21  H    6.986572   5.128992   4.928056   5.320257   4.171292
    22  C    1.972974   2.620812   2.871093   3.528023   3.246576
    23  H    2.468983   2.716355   2.885823   3.771073   2.849009
    24  H    2.940760   3.244949   3.166372   4.100780   4.085031
    25  C    5.361789   4.574584   5.128681   4.707546   3.157884
    26  H    6.309083   5.615464   6.121176   5.793883   4.151145
    27  H    5.599749   4.741281   5.352294   4.617015   3.534145
    28  H    4.617233   4.295506   5.006271   4.528066   2.868365
    29  O    1.713490   3.917294   4.623642   4.526132   4.225348
    30  O    1.070984   3.332670   4.283265   3.724596   3.455158
                   11         12         13         14         15
    11  H    0.000000
    12  H    1.750445   0.000000
    13  C    2.156144   2.171707   0.000000
    14  H    3.063051   2.511115   1.098853   0.000000
    15  H    2.517735   3.064765   1.097587   1.753957   0.000000
    16  C    2.799845   2.870115   1.540672   2.161657   2.155575
    17  H    2.530467   3.143099   2.145167   3.051765   2.504096
    18  C    4.168280   4.306338   2.526120   2.792559   2.662640
    19  H    4.757476   4.564763   2.798463   2.617730   3.008834
    20  H    4.869130   5.024742   3.487404   3.795991   3.680870
    21  H    4.311737   4.787155   2.767864   3.152786   2.446196
    22  C    2.943409   3.560015   4.655934   5.219991   4.773689
    23  H    2.216109   3.268508   4.184296   4.936053   4.281508
    24  H    3.759274   4.547612   5.363290   5.924979   5.285948
    25  C    3.473299   2.855556   2.558180   2.781882   3.487422
    26  H    4.296949   3.856188   3.507663   3.779498   4.313871
    27  H    4.120303   3.142790   2.817068   2.592873   3.778592
    28  H    3.094007   2.277265   2.843174   3.165882   3.856980
    29  O    4.062563   3.920162   5.756902   6.170248   6.232253
    30  O    3.591963   2.872396   4.910167   5.162574   5.572249
                   16         17         18         19         20
    16  C    0.000000
    17  H    1.098821   0.000000
    18  C    1.535243   2.142920   0.000000
    19  H    2.181051   3.065360   1.095724   0.000000
    20  H    2.183873   2.495302   1.093880   1.766789   0.000000
    21  H    2.187053   2.491577   1.094144   1.768167   1.768133
    22  C    5.684832   5.460513   6.994522   7.448949   7.781050
    23  H    5.011192   4.626123   6.325062   6.905966   7.031069
    24  H    6.464369   6.205859   7.669858   8.133301   8.489928
    25  C    1.535621   2.145121   2.523834   2.800707   2.758130
    26  H    2.179177   2.501831   2.739729   3.107942   2.520141
    27  H    2.179749   3.065866   2.808723   2.641112   3.145545
    28  H    2.195871   2.493781   3.489596   3.823356   3.755239
    29  O    6.564280   6.407643   8.040189   8.424616   8.713444
    30  O    5.689930   5.726062   7.162985   7.426339   7.839412
                   21         22         23         24         25
    21  H    0.000000
    22  C    7.001624   0.000000
    23  H    6.313747   1.094059   0.000000
    24  H    7.542135   1.094958   1.794631   0.000000
    25  C    3.486052   6.195962   5.600809   7.126161   0.000000
    26  H    3.746480   7.081047   6.398167   8.011680   1.093823
    27  H    3.820182   6.652503   6.203259   7.582036   1.095996
    28  H    4.346521   5.581532   5.018637   6.583434   1.092530
    29  O    8.313893   2.212578   2.743386   2.977117   6.562578
    30  O    7.573141   2.751652   3.123588   3.732339   5.490988
                   26         27         28         29         30
    26  H    0.000000
    27  H    1.766750   0.000000
    28  H    1.762342   1.768830   0.000000
    29  O    7.381152   6.942380   5.676754   0.000000
    30  O    6.354140   5.731448   4.600804   1.450000   0.000000
 Stoichiometry    C9H19O2(2)
 Framework group  C1[X(C9H19O2)]
 Deg. of freedom    84
 Full point group                 C1      NOp   1
 Largest Abelian subgroup         C1      NOp   1
 Largest concise Abelian subgroup C1      NOp   1
                         Standard orientation:                         
 ---------------------------------------------------------------------
 Center     Atomic      Atomic             Coordinates (Angstroms)
 Number     Number       Type             X           Y           Z
 ---------------------------------------------------------------------
      1          6           0        3.032336   -1.407297   -0.863032
      2          1           0        3.091923   -2.455440   -0.534652
      3          1           0        2.779181   -1.414848   -1.926377
      4          1           0        4.022168   -0.962491   -0.740520
      5          6           0        1.993347   -0.665691   -0.054428
      6          1           0        2.123742    0.639903   -0.362513
      7          6           0        0.566394   -1.143431   -0.221346
      8          1           0        0.433695   -2.050065    0.393186
      9          1           0        0.428502   -1.474488   -1.257108
     10          6           0       -0.539009   -0.134094    0.131398
     11          1           0       -0.437731    0.191986    1.172219
     12          1           0       -0.405356    0.761685   -0.482608
     13          6           0       -1.942198   -0.717841   -0.075879
     14          1           0       -2.064875   -1.008815   -1.128382
     15          1           0       -2.025231   -1.645001    0.505650
     16          6           0       -3.105078    0.211463    0.321328
     17          1           0       -2.939223    0.523438    1.361796
     18          6           0       -4.439022   -0.546595    0.267383
     19          1           0       -4.652534   -0.889501   -0.751164
     20          1           0       -5.269956    0.091280    0.582403
     21          1           0       -4.426369   -1.425866    0.918439
     22          6           0        2.464201   -0.264087    1.357811
     23          1           0        1.620495    0.047260    1.980859
     24          1           0        3.045467   -1.038011    1.869772
     25          6           0       -3.169095    1.477187   -0.545837
     26          1           0       -4.010697    2.109706   -0.249060
     27          1           0       -3.306510    1.217672   -1.601762
     28          1           0       -2.261834    2.080433   -0.464636
     29          8           0        3.317101    1.563929    0.448732
     30          8           0        2.318385    1.666506   -0.597473
 ---------------------------------------------------------------------
 Rotational constants (GHZ):      1.8712988      0.4018675      0.3642788
 Leave Link  202 at Mon Feb 24 19:15:11 2014, MaxMem= 4026531840 cpu:       0.3
 (Enter /usr/caen/gaussian-09revc/g09/l301.exe)
 Standard basis: 6-311++G(d,p) (5D, 7F)
 Ernie: Thresh=  0.10000D-02 Tol=  0.10000D-05 Strict=F.
 There are   375 symmetry adapted basis functions of A   symmetry.
 Integral buffers will be    131072 words long.
 Raffenetti 2 integral format.
 Two-electron integral symmetry is turned on.
   375 basis functions,   567 primitive gaussians,   386 cartesian basis functions
    45 alpha electrons       44 beta electrons
       nuclear repulsion energy       636.8753178181 Hartrees.
 IExCor=  402 DFT=T Ex+Corr=B3LYP ExCW=0 ScaHFX=  0.200000
 ScaDFX=  0.800000  0.720000  1.000000  0.810000 ScalE2=  1.000000  1.000000
 IRadAn=      0 IRanWt=     -1 IRanGd=            0 ICorTp=0
 NAtoms=   30 NActive=   30 NUniq=   30 SFac= 1.00D+00 NAtFMM=   60 NAOKFM=F Big=F
 Leave Link  301 at Mon Feb 24 19:15:11 2014, MaxMem= 4026531840 cpu:       0.7
 (Enter /usr/caen/gaussian-09revc/g09/l302.exe)
 NPDir=0 NMtPBC=     1 NCelOv=     1 NCel=       1 NClECP=     1 NCelD=      1
         NCelK=      1 NCelE2=     1 NClLst=     1 CellRange=     0.0.
 One-electron integrals computed using PRISM.
 NBasis=   375 RedAO= T  NBF=   375
 NBsUse=   375 1.00D-06 NBFU=   375
 Precomputing XC quadrature grid using
 IXCGrd= 2 IRadAn=           0 IRanWt=          -1 IRanGd=           0 AccXCQ= 0.00D+00.
 NRdTot=    1960 NPtTot=      250122 NUsed=      264245 NTot=      264277
 NSgBfM=   386   386   386   386   386 NAtAll=    30    30.
 Leave Link  302 at Mon Feb 24 19:15:12 2014, MaxMem= 4026531840 cpu:       7.2
 (Enter /usr/caen/gaussian-09revc/g09/l303.exe)
 DipDrv:  MaxL=1.
 Leave Link  303 at Mon Feb 24 19:15:12 2014, MaxMem= 4026531840 cpu:       1.7
 (Enter /usr/caen/gaussian-09revc/g09/l401.exe)
 Harris functional with IExCor=  402 diagonalized for initial guess.
 ExpMin= 3.60D-02 ExpMax= 8.59D+03 ExpMxC= 1.30D+03 IAcc=3 IRadAn=         5 AccDes= 0.00D+00
 HarFok:  IExCor=  402 AccDes= 0.00D+00 IRadAn=         5 IDoV= 1
 ScaDFX=  1.000000  1.000000  1.000000  1.000000
 FoFCou: FMM=F IPFlag=           0 FMFlag=      100000 FMFlg1=           0
         NFxFlg=           0 DoJE=T BraDBF=F KetDBF=T FulRan=T
         Omega=  0.000000  0.000000  1.000000  0.000000  0.000000 ICntrl=     500 IOpCl=  0
         NMat0=    1 NMatS0=    1 NMatT0=    0 NMatD0=    1 NMtDS0=    0 NMtDT0=    0
         I1Cent=           4 NGrid=           0.
 Petite list used in FoFCou.
 Harris En= -504.811544082250    
 Initial guess orbital symmetries:
 Alpha Orbitals:
       Occupied  (A) (A) (A) (A) (A) (A) (A) (A) (A) (A) (A) (A)
                 (A) (A) (A) (A) (A) (A) (A) (A) (A) (A) (A) (A)
                 (A) (A) (A) (A) (A) (A) (A) (A) (A) (A) (A) (A)
                 (A) (A) (A) (A) (A) (A) (A) (A) (A)
       Virtual   (A) (A) (A) (A) (A) (A) (A) (A) (A) (A) (A) (A)
                 (A) (A) (A) (A) (A) (A) (A) (A) (A) (A) (A) (A)
                 (A) (A) (A) (A) (A) (A) (A) (A) (A) (A) (A) (A)
                 (A) (A) (A) (A) (A) (A) (A) (A) (A) (A) (A) (A)
                 (A) (A) (A) (A) (A) (A) (A) (A) (A) (A) (A) (A)
                 (A) (A) (A) (A) (A) (A) (A) (A) (A) (A) (A) (A)
                 (A) (A) (A) (A) (A) (A) (A) (A) (A) (A) (A) (A)
                 (A) (A) (A) (A) (A) (A) (A) (A) (A) (A) (A) (A)
                 (A) (A) (A) (A) (A) (A) (A) (A) (A) (A) (A) (A)
                 (A) (A) (A) (A) (A) (A) (A) (A) (A) (A) (A) (A)
                 (A) (A) (A) (A) (A) (A) (A) (A) (A) (A) (A) (A)
                 (A) (A) (A) (A) (A) (A) (A) (A) (A) (A) (A) (A)
                 (A) (A) (A) (A) (A) (A) (A) (A) (A) (A) (A) (A)
                 (A) (A) (A) (A) (A) (A) (A) (A) (A) (A) (A) (A)
                 (A) (A) (A) (A) (A) (A) (A) (A) (A) (A) (A) (A)
                 (A) (A) (A) (A) (A) (A) (A) (A) (A) (A) (A) (A)
                 (A) (A) (A) (A) (A) (A) (A) (A) (A) (A) (A) (A)
                 (A) (A) (A) (A) (A) (A) (A) (A) (A) (A) (A) (A)
                 (A) (A) (A) (A) (A) (A) (A) (A) (A) (A) (A) (A)
                 (A) (A) (A) (A) (A) (A) (A) (A) (A) (A) (A) (A)
                 (A) (A) (A) (A) (A) (A) (A) (A) (A) (A) (A) (A)
                 (A) (A) (A) (A) (A) (A) (A) (A) (A) (A) (A) (A)
                 (A) (A) (A) (A) (A) (A) (A) (A) (A) (A) (A) (A)
                 (A) (A) (A) (A) (A) (A) (A) (A) (A) (A) (A) (A)
                 (A) (A) (A) (A) (A) (A) (A) (A) (A) (A) (A) (A)
                 (A) (A) (A) (A) (A) (A) (A) (A) (A) (A) (A) (A)
                 (A) (A) (A) (A) (A) (A) (A) (A) (A) (A) (A) (A)
                 (A) (A) (A) (A) (A) (A)
 Beta  Orbitals:
       Occupied  (A) (A) (A) (A) (A) (A) (A) (A) (A) (A) (A) (A)
                 (A) (A) (A) (A) (A) (A) (A) (A) (A) (A) (A) (A)
                 (A) (A) (A) (A) (A) (A) (A) (A) (A) (A) (A) (A)
                 (A) (A) (A) (A) (A) (A) (A) (A)
       Virtual   (A) (A) (A) (A) (A) (A) (A) (A) (A) (A) (A) (A)
                 (A) (A) (A) (A) (A) (A) (A) (A) (A) (A) (A) (A)
                 (A) (A) (A) (A) (A) (A) (A) (A) (A) (A) (A) (A)
                 (A) (A) (A) (A) (A) (A) (A) (A) (A) (A) (A) (A)
                 (A) (A) (A) (A) (A) (A) (A) (A) (A) (A) (A) (A)
                 (A) (A) (A) (A) (A) (A) (A) (A) (A) (A) (A) (A)
                 (A) (A) (A) (A) (A) (A) (A) (A) (A) (A) (A) (A)
                 (A) (A) (A) (A) (A) (A) (A) (A) (A) (A) (A) (A)
                 (A) (A) (A) (A) (A) (A) (A) (A) (A) (A) (A) (A)
                 (A) (A) (A) (A) (A) (A) (A) (A) (A) (A) (A) (A)
                 (A) (A) (A) (A) (A) (A) (A) (A) (A) (A) (A) (A)
                 (A) (A) (A) (A) (A) (A) (A) (A) (A) (A) (A) (A)
                 (A) (A) (A) (A) (A) (A) (A) (A) (A) (A) (A) (A)
                 (A) (A) (A) (A) (A) (A) (A) (A) (A) (A) (A) (A)
                 (A) (A) (A) (A) (A) (A) (A) (A) (A) (A) (A) (A)
                 (A) (A) (A) (A) (A) (A) (A) (A) (A) (A) (A) (A)
                 (A) (A) (A) (A) (A) (A) (A) (A) (A) (A) (A) (A)
                 (A) (A) (A) (A) (A) (A) (A) (A) (A) (A) (A) (A)
                 (A) (A) (A) (A) (A) (A) (A) (A) (A) (A) (A) (A)
                 (A) (A) (A) (A) (A) (A) (A) (A) (A) (A) (A) (A)
                 (A) (A) (A) (A) (A) (A) (A) (A) (A) (A) (A) (A)
                 (A) (A) (A) (A) (A) (A) (A) (A) (A) (A) (A) (A)
                 (A) (A) (A) (A) (A) (A) (A) (A) (A) (A) (A) (A)
                 (A) (A) (A) (A) (A) (A) (A) (A) (A) (A) (A) (A)
                 (A) (A) (A) (A) (A) (A) (A) (A) (A) (A) (A) (A)
                 (A) (A) (A) (A) (A) (A) (A) (A) (A) (A) (A) (A)
                 (A) (A) (A) (A) (A) (A) (A) (A) (A) (A) (A) (A)
                 (A) (A) (A) (A) (A) (A) (A)
 The electronic state of the initial guess is 2-A.
 Initial guess <Sx>= 0.0000 <Sy>= 0.0000 <Sz>= 0.5000 <S**2>= 0.7500 S= 0.5000
 Leave Link  401 at Mon Feb 24 19:15:17 2014, MaxMem= 4026531840 cpu:      35.0
 (Enter /usr/caen/gaussian-09revc/g09/l502.exe)
 UHF open shell SCF:
 Requested convergence on RMS density matrix=1.00D-08 within 128 cycles.
 Requested convergence on MAX density matrix=1.00D-06.
 Requested convergence on             energy=1.00D-06.
 No special actions if energy rises.
 Using DIIS extrapolation, IDIIS=  1040.
 Integral symmetry usage will be decided dynamically.
       263962 words used for storage of precomputed grid.
 IEnd=      735096 IEndB=      735096 NGot=  4026531840 MDV=  4025962767
 LenX=  4025962767 LenY=  4025813330
 Fock matrices will be formed incrementally for  20 cycles.

 Cycle   1  Pass 1  IDiag  1:
 FoFCou: FMM=F IPFlag=           0 FMFlag=      100000 FMFlg1=           0
         NFxFlg=           0 DoJE=F BraDBF=F KetDBF=F FulRan=T
         Omega=  0.000000  0.000000  1.000000  0.000000  0.000000 ICntrl=       0 IOpCl=  1
         NMat0=    1 NMatS0=    1 NMatT0=    0 NMatD0=    1 NMtDS0=    0 NMtDT0=    0
         I1Cent=           0 NGrid=           0.
 Symmetry not used in FoFCou.
 E= -504.336568024591    
 DIIS: error= 3.55D-02 at cycle   1 NSaved=   1.
 NSaved= 1 IEnMin= 1 EnMin= -504.336568024591     IErMin= 1 ErrMin= 3.55D-02
 ErrMax= 3.55D-02 EMaxC= 1.00D-01 BMatC= 1.58D+00 BMatP= 1.58D+00
 IDIUse=3 WtCom= 6.45D-01 WtEn= 3.55D-01
 Coeff-Com:  0.100D+01
 Coeff-En:   0.100D+01
 Coeff:      0.100D+01
 Gap=     0.324 Goal=   None    Shift=    0.000
 Gap=    -0.068 Goal=   None    Shift=    0.000
 GapD=   -0.068 DampG=0.250 DampE=0.500 DampFc=0.2500 IDamp=-1.
 Damping current iteration by 2.50D-01
 RMSDP=1.28D-02 MaxDP=1.30D+00              OVMax= 5.47D-01

 Cycle   2  Pass 1  IDiag  1:
 RMSU=  1.74D-03    CP:  9.26D-01
 E= -504.475482831725     Delta-E=       -0.138914807134 Rises=F Damp=T
 DIIS: error= 1.51D-02 at cycle   2 NSaved=   2.
 NSaved= 2 IEnMin= 2 EnMin= -504.475482831725     IErMin= 2 ErrMin= 1.51D-02
 ErrMax= 1.51D-02 EMaxC= 1.00D-01 BMatC= 3.52D-01 BMatP= 1.58D+00
 IDIUse=3 WtCom= 8.49D-01 WtEn= 1.51D-01
 Coeff-Com: -0.483D+00 0.148D+01
 Coeff-En:   0.000D+00 0.100D+01
 Coeff:     -0.410D+00 0.141D+01
 Gap=     0.333 Goal=   None    Shift=    0.000
 Gap=     0.083 Goal=   None    Shift=    0.000
 RMSDP=8.45D-03 MaxDP=7.94D-01 DE=-1.39D-01 OVMax= 8.10D-01

 Cycle   3  Pass 1  IDiag  1:
 RMSU=  5.40D-03    CP:  8.50D-01  1.12D+00
 E= -504.506405698062     Delta-E=       -0.030922866337 Rises=F Damp=F
 DIIS: error= 4.22D-02 at cycle   3 NSaved=   3.
 NSaved= 3 IEnMin= 3 EnMin= -504.506405698062     IErMin= 2 ErrMin= 1.51D-02
 ErrMax= 4.22D-02 EMaxC= 1.00D-01 BMatC= 9.79D-01 BMatP= 3.52D-01
 IDIUse=2 WtCom= 0.00D+00 WtEn= 1.00D+00
 Coeff-En:   0.000D+00 0.439D+00 0.561D+00
 Coeff:      0.000D+00 0.439D+00 0.561D+00
 Gap=     0.307 Goal=   None    Shift=    0.000
 Gap=    -0.061 Goal=   None    Shift=    0.000
 RMSDP=9.94D-03 MaxDP=9.90D-01 DE=-3.09D-02 OVMax= 7.81D-01

 Cycle   4  Pass 1  IDiag  1:
 RMSU=  2.47D-03    CP:  7.87D-01  2.18D+00 -5.93D-02
 E= -504.075664199381     Delta-E=        0.430741498681 Rises=F Damp=F
 DIIS: error= 8.74D-02 at cycle   4 NSaved=   4.
 NSaved= 4 IEnMin= 3 EnMin= -504.506405698062     IErMin= 2 ErrMin= 1.51D-02
 ErrMax= 8.74D-02 EMaxC= 1.00D-01 BMatC= 2.83D+00 BMatP= 3.52D-01
 IDIUse=2 WtCom= 0.00D+00 WtEn= 1.00D+00
 Coeff-En:   0.000D+00 0.000D+00 0.665D+00 0.335D+00
 Coeff:      0.000D+00 0.000D+00 0.665D+00 0.335D+00
 Gap=     0.211 Goal=   None    Shift=    0.000
 Gap=     0.116 Goal=   None    Shift=    0.000
 RMSDP=4.91D-03 MaxDP=3.91D-01 DE= 4.31D-01 OVMax= 6.10D-01

 Cycle   5  Pass 1  IDiag  1:
 RMSU=  1.04D-03    CP:  8.19D-01  1.22D+00  3.40D-01  5.86D-01
 E= -504.695873468341     Delta-E=       -0.620209268961 Rises=F Damp=F
 DIIS: error= 2.05D-02 at cycle   5 NSaved=   5.
 NSaved= 5 IEnMin= 5 EnMin= -504.695873468341     IErMin= 2 ErrMin= 1.51D-02
 ErrMax= 2.05D-02 EMaxC= 1.00D-01 BMatC= 1.81D-01 BMatP= 3.52D-01
 IDIUse=3 WtCom= 7.95D-01 WtEn= 2.05D-01
 Coeff-Com: -0.251D+00 0.391D+00 0.265D+00-0.739D-01 0.668D+00
 Coeff-En:   0.000D+00 0.000D+00 0.233D+00 0.000D+00 0.767D+00
 Coeff:     -0.199D+00 0.311D+00 0.258D+00-0.587D-01 0.689D+00
 Gap=     0.138 Goal=   None    Shift=    0.000
 Gap=     0.056 Goal=   None    Shift=    0.000
 RMSDP=2.21D-03 MaxDP=1.84D-01 DE=-6.20D-01 OVMax= 2.43D-01

 Cycle   6  Pass 1  IDiag  1:
 RMSU=  5.43D-04    CP:  8.02D-01  1.20D+00  5.57D-01  3.55D-01  8.53D-01
 E= -504.738548469791     Delta-E=       -0.042675001450 Rises=F Damp=F
 DIIS: error= 1.84D-03 at cycle   6 NSaved=   6.
 NSaved= 6 IEnMin= 6 EnMin= -504.738548469791     IErMin= 6 ErrMin= 1.84D-03
 ErrMax= 1.84D-03 EMaxC= 1.00D-01 BMatC= 5.93D-03 BMatP= 1.81D-01
 IDIUse=3 WtCom= 9.82D-01 WtEn= 1.84D-02
 Coeff-Com: -0.107D+00 0.175D+00 0.512D-01-0.345D-01 0.234D+00 0.682D+00
 Coeff-En:   0.000D+00 0.000D+00 0.000D+00 0.000D+00 0.000D+00 0.100D+01
 Coeff:     -0.105D+00 0.171D+00 0.503D-01-0.338D-01 0.230D+00 0.687D+00
 Gap=     0.139 Goal=   None    Shift=    0.000
 Gap=     0.069 Goal=   None    Shift=    0.000
 RMSDP=5.13D-04 MaxDP=5.67D-02 DE=-4.27D-02 OVMax= 2.28D-02

 Cycle   7  Pass 1  IDiag  1:
 RMSU=  3.10D-04    CP:  8.00D-01  1.20D+00  5.21D-01  3.76D-01  8.97D-01
                    CP:  1.10D+00
 E= -504.740009776465     Delta-E=       -0.001461306673 Rises=F Damp=F
 DIIS: error= 3.04D-03 at cycle   7 NSaved=   7.
 NSaved= 7 IEnMin= 7 EnMin= -504.740009776465     IErMin= 6 ErrMin= 1.84D-03
 ErrMax= 3.04D-03 EMaxC= 1.00D-01 BMatC= 2.41D-03 BMatP= 5.93D-03
 IDIUse=3 WtCom= 9.82D-01 WtEn= 1.84D-02
 Coeff-Com: -0.170D-01 0.206D-01-0.149D-01-0.283D-02 0.420D-01 0.453D+00
 Coeff-Com:  0.519D+00
 Coeff-En:   0.000D+00 0.000D+00 0.000D+00 0.000D+00 0.000D+00 0.000D+00
 Coeff-En:   0.100D+01
 Coeff:     -0.167D-01 0.202D-01-0.146D-01-0.278D-02 0.412D-01 0.445D+00
 Coeff:      0.528D+00
 Gap=     0.139 Goal=   None    Shift=    0.000
 Gap=     0.075 Goal=   None    Shift=    0.000
 RMSDP=3.08D-04 MaxDP=3.45D-02 DE=-1.46D-03 OVMax= 3.04D-02

 Cycle   8  Pass 1  IDiag  1:
 RMSU=  1.59D-04    CP:  7.97D-01  1.21D+00  5.38D-01  3.71D-01  8.90D-01
                    CP:  1.16D+00  9.09D-01
 E= -504.740581691516     Delta-E=       -0.000571915052 Rises=F Damp=F
 DIIS: error= 7.19D-04 at cycle   8 NSaved=   8.
 NSaved= 8 IEnMin= 8 EnMin= -504.740581691516     IErMin= 8 ErrMin= 7.19D-04
 ErrMax= 7.19D-04 EMaxC= 1.00D-01 BMatC= 7.99D-04 BMatP= 2.41D-03
 IDIUse=3 WtCom= 9.93D-01 WtEn= 7.19D-03
 Coeff-Com: -0.670D-02 0.784D-02-0.195D-01 0.198D-02-0.190D-02 0.217D+00
 Coeff-Com:  0.372D+00 0.429D+00
 Coeff-En:   0.000D+00 0.000D+00 0.000D+00 0.000D+00 0.000D+00 0.000D+00
 Coeff-En:   0.000D+00 0.100D+01
 Coeff:     -0.666D-02 0.778D-02-0.194D-01 0.196D-02-0.189D-02 0.216D+00
 Coeff:      0.369D+00 0.433D+00
 Gap=     0.140 Goal=   None    Shift=    0.000
 Gap=     0.075 Goal=   None    Shift=    0.000
 RMSDP=1.48D-04 MaxDP=1.79D-02 DE=-5.72D-04 OVMax= 1.10D-02

 Cycle   9  Pass 1  IDiag  1:
 RMSU=  6.24D-05    CP:  7.97D-01  1.21D+00  5.30D-01  3.72D-01  8.78D-01
                    CP:  1.24D+00  1.09D+00  9.49D-01
 E= -504.740862431340     Delta-E=       -0.000280739824 Rises=F Damp=F
 DIIS: error= 8.95D-04 at cycle   9 NSaved=   9.
 NSaved= 9 IEnMin= 9 EnMin= -504.740862431340     IErMin= 8 ErrMin= 7.19D-04
 ErrMax= 8.95D-04 EMaxC= 1.00D-01 BMatC= 3.40D-04 BMatP= 7.99D-04
 IDIUse=3 WtCom= 9.93D-01 WtEn= 7.19D-03
 Coeff-Com: -0.475D-02 0.561D-02-0.976D-02 0.212D-02-0.387D-02-0.382D-01
 Coeff-Com: -0.106D-01 0.222D+00 0.837D+00
 Coeff-En:   0.000D+00 0.000D+00 0.000D+00 0.000D+00 0.000D+00 0.000D+00
 Coeff-En:   0.000D+00 0.000D+00 0.100D+01
 Coeff:     -0.471D-02 0.557D-02-0.969D-02 0.211D-02-0.385D-02-0.379D-01
 Coeff:     -0.105D-01 0.220D+00 0.838D+00
 Gap=     0.140 Goal=   None    Shift=    0.000
 Gap=     0.077 Goal=   None    Shift=    0.000
 RMSDP=1.68D-04 MaxDP=1.09D-02 DE=-2.81D-04 OVMax= 2.65D-02

 Cycle  10  Pass 1  IDiag  1:
 RMSU=  3.79D-05    CP:  7.97D-01  1.20D+00  5.29D-01  3.71D-01  8.59D-01
                    CP:  1.31D+00  1.28D+00  1.35D+00  1.48D+00
 E= -504.741123550604     Delta-E=       -0.000261119264 Rises=F Damp=F
 DIIS: error= 3.96D-04 at cycle  10 NSaved=  10.
 NSaved=10 IEnMin=10 EnMin= -504.741123550604     IErMin=10 ErrMin= 3.96D-04
 ErrMax= 3.96D-04 EMaxC= 1.00D-01 BMatC= 2.54D-04 BMatP= 3.40D-04
 IDIUse=3 WtCom= 9.96D-01 WtEn= 3.96D-03
 Coeff-Com: -0.600D-02 0.860D-02-0.150D-02 0.889D-03 0.186D-02-0.142D+00
 Coeff-Com: -0.201D+00-0.541D-01 0.812D+00 0.581D+00
 Coeff-En:   0.000D+00 0.000D+00 0.000D+00 0.000D+00 0.000D+00 0.000D+00
 Coeff-En:   0.000D+00 0.000D+00 0.000D+00 0.100D+01
 Coeff:     -0.597D-02 0.857D-02-0.150D-02 0.885D-03 0.186D-02-0.142D+00
 Coeff:     -0.200D+00-0.539D-01 0.809D+00 0.583D+00
 Gap=     0.141 Goal=   None    Shift=    0.000
 Gap=     0.078 Goal=   None    Shift=    0.000
 RMSDP=1.41D-04 MaxDP=1.01D-02 DE=-2.61D-04 OVMax= 1.85D-02

 Cycle  11  Pass 1  IDiag  1:
 RMSU=  3.73D-05    CP:  7.96D-01  1.20D+00  5.26D-01  3.72D-01  8.44D-01
                    CP:  1.35D+00  1.43D+00  1.69D+00  2.13D+00  1.25D+00
 E= -504.741349080640     Delta-E=       -0.000225530036 Rises=F Damp=F
 DIIS: error= 3.39D-04 at cycle  11 NSaved=  11.
 NSaved=11 IEnMin=11 EnMin= -504.741349080640     IErMin=11 ErrMin= 3.39D-04
 ErrMax= 3.39D-04 EMaxC= 1.00D-01 BMatC= 8.98D-05 BMatP= 2.54D-04
 IDIUse=3 WtCom= 9.97D-01 WtEn= 3.39D-03
 Coeff-Com: -0.571D-02 0.856D-02 0.852D-03-0.133D-02 0.123D-01 0.584D-01
 Coeff-Com:  0.272D-01-0.183D+00-0.576D+00-0.842D-01 0.174D+01
 Coeff-En:   0.000D+00 0.000D+00 0.000D+00 0.000D+00 0.000D+00 0.000D+00
 Coeff-En:   0.000D+00 0.000D+00 0.000D+00 0.000D+00 0.100D+01
 Coeff:     -0.569D-02 0.853D-02 0.850D-03-0.132D-02 0.122D-01 0.582D-01
 Coeff:      0.271D-01-0.183D+00-0.574D+00-0.839D-01 0.174D+01
 Gap=     0.142 Goal=   None    Shift=    0.000
 Gap=     0.079 Goal=   None    Shift=    0.000
 RMSDP=2.14D-04 MaxDP=1.65D-02 DE=-2.26D-04 OVMax= 3.27D-02

 Cycle  12  Pass 1  IDiag  1:
 RMSU=  2.83D-05    CP:  7.94D-01  1.20D+00  5.20D-01  3.75D-01  8.17D-01
                    CP:  1.41D+00  1.63D+00  2.12D+00  3.00D+00  2.21D+00
                    CP:  2.58D+00
 E= -504.741592814604     Delta-E=       -0.000243733964 Rises=F Damp=F
 DIIS: error= 1.58D-04 at cycle  12 NSaved=  12.
 NSaved=12 IEnMin=12 EnMin= -504.741592814604     IErMin=12 ErrMin= 1.58D-04
 ErrMax= 1.58D-04 EMaxC= 1.00D-01 BMatC= 2.32D-05 BMatP= 8.98D-05
 IDIUse=3 WtCom= 9.98D-01 WtEn= 1.58D-03
 Coeff-Com:  0.121D-03-0.196D-03 0.147D-02-0.142D-02 0.607D-02 0.991D-01
 Coeff-Com:  0.984D-01-0.654D-01-0.670D+00-0.337D+00 0.101D+01 0.861D+00
 Coeff-En:   0.000D+00 0.000D+00 0.000D+00 0.000D+00 0.000D+00 0.000D+00
 Coeff-En:   0.000D+00 0.000D+00 0.000D+00 0.000D+00 0.000D+00 0.100D+01
 Coeff:      0.121D-03-0.195D-03 0.147D-02-0.141D-02 0.606D-02 0.990D-01
 Coeff:      0.982D-01-0.653D-01-0.669D+00-0.336D+00 0.101D+01 0.861D+00
 Gap=     0.143 Goal=   None    Shift=    0.000
 Gap=     0.080 Goal=   None    Shift=    0.000
 RMSDP=1.16D-04 MaxDP=7.27D-03 DE=-2.44D-04 OVMax= 1.95D-02

 Cycle  13  Pass 1  IDiag  1:
 RMSU=  4.87D-05    CP:  7.94D-01  1.19D+00  5.17D-01  3.76D-01  8.01D-01
                    CP:  1.42D+00  1.73D+00  2.32D+00  3.00D+00  2.84D+00
                    CP:  3.00D+00  1.59D+00
 E= -504.741686715493     Delta-E=       -0.000093900890 Rises=F Damp=F
 DIIS: error= 2.18D-04 at cycle  13 NSaved=  13.
 NSaved=13 IEnMin=13 EnMin= -504.741686715493     IErMin=12 ErrMin= 1.58D-04
 ErrMax= 2.18D-04 EMaxC= 1.00D-01 BMatC= 3.71D-05 BMatP= 2.32D-05
 IDIUse=3 WtCom= 9.98D-01 WtEn= 1.58D-03
 Coeff-Com:  0.343D-02-0.436D-02 0.166D-02-0.633D-03-0.378D-02 0.286D-01
 Coeff-Com:  0.273D-01 0.471D-01-0.121D+00-0.140D+00 0.134D-01 0.228D+00
 Coeff-Com:  0.921D+00
 Coeff-En:   0.000D+00 0.000D+00 0.000D+00 0.000D+00 0.000D+00 0.000D+00
 Coeff-En:   0.000D+00 0.000D+00 0.000D+00 0.000D+00 0.000D+00 0.000D+00
 Coeff-En:   0.100D+01
 Coeff:      0.342D-02-0.436D-02 0.165D-02-0.632D-03-0.377D-02 0.285D-01
 Coeff:      0.272D-01 0.470D-01-0.121D+00-0.140D+00 0.134D-01 0.227D+00
 Coeff:      0.921D+00
 Gap=     0.144 Goal=   None    Shift=    0.000
 Gap=     0.080 Goal=   None    Shift=    0.000
 RMSDP=5.58D-05 MaxDP=4.04D-03 DE=-9.39D-05 OVMax= 1.01D-02

 Cycle  14  Pass 1  IDiag  1:
 RMSU=  1.77D-05    CP:  7.94D-01  1.19D+00  5.18D-01  3.76D-01  7.98D-01
                    CP:  1.41D+00  1.73D+00  2.37D+00  3.00D+00  3.00D+00
                    CP:  3.00D+00  2.20D+00  1.53D+00
 E= -504.741733628381     Delta-E=       -0.000046912888 Rises=F Damp=F
 DIIS: error= 1.70D-04 at cycle  14 NSaved=  14.
 NSaved=14 IEnMin=14 EnMin= -504.741733628381     IErMin=12 ErrMin= 1.58D-04
 ErrMax= 1.70D-04 EMaxC= 1.00D-01 BMatC= 2.14D-05 BMatP= 2.32D-05
 IDIUse=3 WtCom= 9.98D-01 WtEn= 1.58D-03
 Coeff-Com:  0.905D-03-0.577D-03 0.196D-02-0.279D-03-0.249D-02-0.381D-01
 Coeff-Com: -0.594D-01 0.213D-01 0.178D+00 0.122D+00-0.124D+00-0.703D+00
 Coeff-Com: -0.657D+00 0.226D+01
 Coeff-En:   0.000D+00 0.000D+00 0.000D+00 0.000D+00 0.000D+00 0.000D+00
 Coeff-En:   0.000D+00 0.000D+00 0.000D+00 0.000D+00 0.000D+00 0.000D+00
 Coeff-En:   0.000D+00 0.100D+01
 Coeff:      0.903D-03-0.576D-03 0.196D-02-0.278D-03-0.248D-02-0.380D-01
 Coeff:     -0.593D-01 0.212D-01 0.178D+00 0.121D+00-0.124D+00-0.702D+00
 Coeff:     -0.656D+00 0.226D+01
 Gap=     0.146 Goal=   None    Shift=    0.000
 Gap=     0.081 Goal=   None    Shift=    0.000
 RMSDP=1.22D-04 MaxDP=9.74D-03 DE=-4.69D-05 OVMax= 2.30D-02

 Cycle  15  Pass 1  IDiag  1:
 RMSU=  2.19D-05    CP:  7.94D-01  1.18D+00  5.20D-01  3.76D-01  7.92D-01
                    CP:  1.37D+00  1.73D+00  2.46D+00  3.00D+00  3.00D+00
                    CP:  3.00D+00  3.00D+00  2.72D+00  3.00D+00
 E= -504.741803694003     Delta-E=       -0.000070065622 Rises=F Damp=F
 DIIS: error= 1.03D-04 at cycle  15 NSaved=  15.
 NSaved=15 IEnMin=15 EnMin= -504.741803694003     IErMin=15 ErrMin= 1.03D-04
 ErrMax= 1.03D-04 EMaxC= 1.00D-01 BMatC= 9.22D-06 BMatP= 2.14D-05
 IDIUse=3 WtCom= 9.99D-01 WtEn= 1.03D-03
 Coeff-Com: -0.167D-02 0.263D-02 0.146D-02-0.414D-03 0.277D-02-0.151D-01
 Coeff-Com: -0.302D-01-0.339D-01-0.412D-02 0.320D-01 0.270D+00-0.388D+00
 Coeff-Com: -0.109D+01 0.115D+01 0.111D+01
 Coeff-En:   0.000D+00 0.000D+00 0.000D+00 0.000D+00 0.000D+00 0.000D+00
 Coeff-En:   0.000D+00 0.000D+00 0.000D+00 0.000D+00 0.000D+00 0.000D+00
 Coeff-En:   0.000D+00 0.000D+00 0.100D+01
 Coeff:     -0.167D-02 0.263D-02 0.146D-02-0.414D-03 0.277D-02-0.151D-01
 Coeff:     -0.301D-01-0.339D-01-0.411D-02 0.320D-01 0.270D+00-0.388D+00
 Coeff:     -0.109D+01 0.115D+01 0.111D+01
 Gap=     0.148 Goal=   None    Shift=    0.000
 Gap=     0.082 Goal=   None    Shift=    0.000
 RMSDP=9.00D-05 MaxDP=7.27D-03 DE=-7.01D-05 OVMax= 1.66D-02

 Cycle  16  Pass 1  IDiag  1:
 RMSU=  4.38D-05    CP:  7.94D-01  1.17D+00  5.21D-01  3.75D-01  7.87D-01
                    CP:  1.35D+00  1.71D+00  2.51D+00  3.00D+00  3.00D+00
                    CP:  3.00D+00  3.00D+00  3.00D+00  3.00D+00  2.13D+00
 E= -504.741827538727     Delta-E=       -0.000023844724 Rises=F Damp=F
 DIIS: error= 7.46D-05 at cycle  16 NSaved=  16.
 NSaved=16 IEnMin=16 EnMin= -504.741827538727     IErMin=16 ErrMin= 7.46D-05
 ErrMax= 7.46D-05 EMaxC= 1.00D-01 BMatC= 4.65D-06 BMatP= 9.22D-06
 IDIUse=1 WtCom= 1.00D+00 WtEn= 0.00D+00
 Coeff-Com: -0.770D-03 0.109D-02 0.792D-03-0.369D-03 0.244D-02 0.151D-01
 Coeff-Com:  0.106D-01-0.258D-01-0.122D+00-0.843D-01 0.329D+00 0.827D-01
 Coeff-Com: -0.304D+00-0.192D+00 0.419D+00 0.868D+00
 Coeff:     -0.770D-03 0.109D-02 0.792D-03-0.369D-03 0.244D-02 0.151D-01
 Coeff:      0.106D-01-0.258D-01-0.122D+00-0.843D-01 0.329D+00 0.827D-01
 Coeff:     -0.304D+00-0.192D+00 0.419D+00 0.868D+00
 Gap=     0.148 Goal=   None    Shift=    0.000
 Gap=     0.082 Goal=   None    Shift=    0.000
 RMSDP=2.86D-05 MaxDP=2.34D-03 DE=-2.38D-05 OVMax= 4.21D-03

 Cycle  17  Pass 1  IDiag  1:
 RMSU=  7.68D-06    CP:  7.94D-01  1.17D+00  5.22D-01  3.75D-01  7.88D-01
                    CP:  1.34D+00  1.69D+00  2.49D+00  3.00D+00  3.00D+00
                    CP:  3.00D+00  3.00D+00  3.00D+00  3.00D+00  2.43D+00
                    CP:  1.30D+00
 E= -504.741831267397     Delta-E=       -0.000003728670 Rises=F Damp=F
 DIIS: error= 3.95D-05 at cycle  17 NSaved=  17.
 NSaved=17 IEnMin=17 EnMin= -504.741831267397     IErMin=17 ErrMin= 3.95D-05
 ErrMax= 3.95D-05 EMaxC= 1.00D-01 BMatC= 2.80D-06 BMatP= 4.65D-06
 IDIUse=1 WtCom= 1.00D+00 WtEn= 0.00D+00
 Coeff-Com:  0.906D-03-0.127D-02 0.349D-03-0.192D-03 0.337D-04 0.198D-01
 Coeff-Com:  0.176D-01 0.108D-01-0.106D+00-0.670D-01 0.113D+00 0.211D+00
 Coeff-Com:  0.332D+00-0.547D+00-0.416D+00 0.155D+00 0.128D+01
 Coeff:      0.906D-03-0.127D-02 0.349D-03-0.192D-03 0.337D-04 0.198D-01
 Coeff:      0.176D-01 0.108D-01-0.106D+00-0.670D-01 0.113D+00 0.211D+00
 Coeff:      0.332D+00-0.547D+00-0.416D+00 0.155D+00 0.128D+01
 Gap=     0.149 Goal=   None    Shift=    0.000
 Gap=     0.082 Goal=   None    Shift=    0.000
 RMSDP=3.21D-05 MaxDP=2.35D-03 DE=-3.73D-06 OVMax= 4.24D-03

 Cycle  18  Pass 1  IDiag  1:
 RMSU=  4.06D-06    CP:  7.94D-01  1.17D+00  5.23D-01  3.75D-01  7.89D-01
                    CP:  1.33D+00  1.66D+00  2.47D+00  3.00D+00  3.00D+00
                    CP:  3.00D+00  3.00D+00  3.00D+00  3.00D+00  2.72D+00
                    CP:  1.55D+00  2.43D+00
 E= -504.741833967311     Delta-E=       -0.000002699915 Rises=F Damp=F
 DIIS: error= 2.83D-05 at cycle  18 NSaved=  18.
 NSaved=18 IEnMin=18 EnMin= -504.741833967311     IErMin=18 ErrMin= 2.83D-05
 ErrMax= 2.83D-05 EMaxC= 1.00D-01 BMatC= 1.33D-06 BMatP= 2.80D-06
 IDIUse=1 WtCom= 1.00D+00 WtEn= 0.00D+00
 Coeff-Com:  0.795D-03-0.105D-02 0.577D-04-0.208D-04-0.520D-03 0.971D-02
 Coeff-Com:  0.802D-02 0.163D-01-0.590D-01-0.584D-02 0.103D-01 0.795D-01
 Coeff-Com:  0.134D+00-0.171D+00-0.248D+00-0.253D+00 0.361D+00 0.112D+01
 Coeff:      0.795D-03-0.105D-02 0.577D-04-0.208D-04-0.520D-03 0.971D-02
 Coeff:      0.802D-02 0.163D-01-0.590D-01-0.584D-02 0.103D-01 0.795D-01
 Coeff:      0.134D+00-0.171D+00-0.248D+00-0.253D+00 0.361D+00 0.112D+01
 Gap=     0.149 Goal=   None    Shift=    0.000
 Gap=     0.082 Goal=   None    Shift=    0.000
 RMSDP=3.12D-05 MaxDP=2.58D-03 DE=-2.70D-06 OVMax= 4.08D-03

 Cycle  19  Pass 1  IDiag  1:
 RMSU=  4.80D-06    CP:  7.94D-01  1.17D+00  5.23D-01  3.75D-01  7.88D-01
                    CP:  1.32D+00  1.64D+00  2.46D+00  3.00D+00  3.00D+00
                    CP:  3.00D+00  3.00D+00  3.00D+00  3.00D+00  3.00D+00
                    CP:  1.84D+00  3.00D+00  1.51D+00
 E= -504.741835626636     Delta-E=       -0.000001659324 Rises=F Damp=F
 DIIS: error= 9.94D-06 at cycle  19 NSaved=  19.
 NSaved=19 IEnMin=19 EnMin= -504.741835626636     IErMin=19 ErrMin= 9.94D-06
 ErrMax= 9.94D-06 EMaxC= 1.00D-01 BMatC= 2.00D-07 BMatP= 1.33D-06
 IDIUse=1 WtCom= 1.00D+00 WtEn= 0.00D+00
 Coeff-Com: -0.334D-05 0.462D-04-0.143D-04 0.774D-05 0.113D-03 0.677D-03
 Coeff-Com: -0.344D-03 0.211D-02-0.102D-01 0.989D-02 0.469D-03-0.302D-01
 Coeff-Com: -0.100D+00 0.120D+00 0.852D-01-0.146D+00-0.413D+00 0.385D+00
 Coeff-Com:  0.110D+01
 Coeff:     -0.334D-05 0.462D-04-0.143D-04 0.774D-05 0.113D-03 0.677D-03
 Coeff:     -0.344D-03 0.211D-02-0.102D-01 0.989D-02 0.469D-03-0.302D-01
 Coeff:     -0.100D+00 0.120D+00 0.852D-01-0.146D+00-0.413D+00 0.385D+00
 Coeff:      0.110D+01
 Gap=     0.149 Goal=   None    Shift=    0.000
 Gap=     0.082 Goal=   None    Shift=    0.000
 RMSDP=2.13D-05 MaxDP=1.61D-03 DE=-1.66D-06 OVMax= 2.69D-03

 Cycle  20  Pass 1  IDiag  1:
 Restarting incremental Fock formation.
 E= -504.741835989228     Delta-E=       -0.000000362592 Rises=F Damp=F
 DIIS: error= 4.15D-06 at cycle  20 NSaved=  20.
 NSaved=20 IEnMin=20 EnMin= -504.741835989228     IErMin=20 ErrMin= 4.15D-06
 ErrMax= 4.15D-06 EMaxC= 1.00D-01 BMatC= 1.94D-08 BMatP= 2.00D-07
 IDIUse=1 WtCom= 1.00D+00 WtEn= 0.00D+00
 Coeff-Com: -0.100D-03 0.134D-03 0.589D-05-0.618D-05 0.163D-03-0.106D-02
 Coeff-Com: -0.185D-02-0.155D-02 0.717D-02 0.159D-02-0.322D-03-0.264D-01
 Coeff-Com: -0.499D-01 0.789D-01 0.602D-01-0.269D-01-0.209D+00-0.279D-01
 Coeff-Com:  0.458D+00 0.739D+00
 Coeff:     -0.100D-03 0.134D-03 0.589D-05-0.618D-05 0.163D-03-0.106D-02
 Coeff:     -0.185D-02-0.155D-02 0.717D-02 0.159D-02-0.322D-03-0.264D-01
 Coeff:     -0.499D-01 0.789D-01 0.602D-01-0.269D-01-0.209D+00-0.279D-01
 Coeff:      0.458D+00 0.739D+00
 Gap=     0.149 Goal=   None    Shift=    0.000
 Gap=     0.082 Goal=   None    Shift=    0.000
 RMSDP=2.92D-06 MaxDP=1.64D-04 DE=-3.63D-07 OVMax= 3.97D-04

 Cycle  21  Pass 1  IDiag  1:
 RMSU=  1.57D-06    CP:  1.00D+00
 E= -504.741836009948     Delta-E=       -0.000000020720 Rises=F Damp=F
 DIIS: error= 2.91D-06 at cycle  21 NSaved=  20.
 NSaved=20 IEnMin=20 EnMin= -504.741836009948     IErMin=20 ErrMin= 2.91D-06
 ErrMax= 2.91D-06 EMaxC= 1.00D-01 BMatC= 2.78D-09 BMatP= 1.94D-08
 IDIUse=1 WtCom= 1.00D+00 WtEn= 0.00D+00
 Coeff-Com: -0.278D-04 0.335D-04 0.166D-04-0.106D-04-0.649D-03-0.797D-03
 Coeff-Com: -0.107D-02 0.510D-02-0.260D-02 0.201D-02-0.256D-02 0.802D-02
 Coeff-Com:  0.455D-03-0.267D-02 0.275D-01 0.486D-01-0.101D+00-0.178D+00
 Coeff-Com:  0.187D+00 0.101D+01
 Coeff:     -0.278D-04 0.335D-04 0.166D-04-0.106D-04-0.649D-03-0.797D-03
 Coeff:     -0.107D-02 0.510D-02-0.260D-02 0.201D-02-0.256D-02 0.802D-02
 Coeff:      0.455D-03-0.267D-02 0.275D-01 0.486D-01-0.101D+00-0.178D+00
 Coeff:      0.187D+00 0.101D+01
 Gap=     0.149 Goal=   None    Shift=    0.000
 Gap=     0.082 Goal=   None    Shift=    0.000
 RMSDP=1.06D-06 MaxDP=6.64D-05 DE=-2.07D-08 OVMax= 1.89D-04

 Cycle  22  Pass 1  IDiag  1:
 RMSU=  5.87D-07    CP:  1.00D+00  1.21D+00
 E= -504.741836012584     Delta-E=       -0.000000002635 Rises=F Damp=F
 DIIS: error= 2.06D-06 at cycle  22 NSaved=  20.
 NSaved=20 IEnMin=20 EnMin= -504.741836012584     IErMin=20 ErrMin= 2.06D-06
 ErrMax= 2.06D-06 EMaxC= 1.00D-01 BMatC= 1.16D-09 BMatP= 2.78D-09
 IDIUse=1 WtCom= 1.00D+00 WtEn= 0.00D+00
 Coeff-Com:  0.286D-05 0.917D-05-0.208D-04-0.113D-03 0.724D-04-0.156D-03
 Coeff-Com: -0.850D-03 0.394D-03 0.150D-02 0.257D-02 0.166D-02-0.902D-02
 Coeff-Com: -0.339D-02 0.105D-01 0.297D-01-0.197D-01-0.839D-01-0.783D-01
 Coeff-Com:  0.121D+00 0.103D+01
 Coeff:      0.286D-05 0.917D-05-0.208D-04-0.113D-03 0.724D-04-0.156D-03
 Coeff:     -0.850D-03 0.394D-03 0.150D-02 0.257D-02 0.166D-02-0.902D-02
 Coeff:     -0.339D-02 0.105D-01 0.297D-01-0.197D-01-0.839D-01-0.783D-01
 Coeff:      0.121D+00 0.103D+01
 Gap=     0.149 Goal=   None    Shift=    0.000
 Gap=     0.082 Goal=   None    Shift=    0.000
 RMSDP=1.01D-06 MaxDP=9.55D-05 DE=-2.64D-09 OVMax= 1.44D-04

 Cycle  23  Pass 1  IDiag  1:
 RMSU=  2.79D-07    CP:  1.00D+00  1.44D+00  3.19D-01
 E= -504.741836013982     Delta-E=       -0.000000001399 Rises=F Damp=F
 DIIS: error= 5.29D-07 at cycle  23 NSaved=  20.
 NSaved=20 IEnMin=20 EnMin= -504.741836013982     IErMin=20 ErrMin= 5.29D-07
 ErrMax= 5.29D-07 EMaxC= 1.00D-01 BMatC= 1.14D-10 BMatP= 1.16D-09
 IDIUse=1 WtCom= 1.00D+00 WtEn= 0.00D+00
 Coeff-Com:  0.176D-05 0.624D-05 0.539D-04 0.981D-04 0.391D-04-0.926D-03
 Coeff-Com:  0.455D-03 0.822D-03 0.845D-03-0.163D-02-0.253D-02 0.405D-03
 Coeff-Com:  0.104D-02 0.212D-02 0.326D-02-0.428D-02-0.466D-01-0.891D-01
 Coeff-Com:  0.287D+00 0.849D+00
 Coeff:      0.176D-05 0.624D-05 0.539D-04 0.981D-04 0.391D-04-0.926D-03
 Coeff:      0.455D-03 0.822D-03 0.845D-03-0.163D-02-0.253D-02 0.405D-03
 Coeff:      0.104D-02 0.212D-02 0.326D-02-0.428D-02-0.466D-01-0.891D-01
 Coeff:      0.287D+00 0.849D+00
 Gap=     0.149 Goal=   None    Shift=    0.000
 Gap=     0.082 Goal=   None    Shift=    0.000
 RMSDP=2.88D-07 MaxDP=2.77D-05 DE=-1.40D-09 OVMax= 3.87D-05

 Cycle  24  Pass 1  IDiag  1:
 RMSU=  5.91D-08    CP:  1.00D+00  1.52D+00  1.89D-01  1.19D+00
 E= -504.741836014054     Delta-E=       -0.000000000072 Rises=F Damp=F
 DIIS: error= 4.71D-07 at cycle  24 NSaved=  20.
 NSaved=20 IEnMin=20 EnMin= -504.741836014054     IErMin=20 ErrMin= 4.71D-07
 ErrMax= 4.71D-07 EMaxC= 1.00D-01 BMatC= 3.02D-11 BMatP= 1.14D-10
 IDIUse=1 WtCom= 1.00D+00 WtEn= 0.00D+00
 Coeff-Com:  0.959D-05 0.784D-04 0.281D-04 0.875D-04-0.334D-03-0.145D-04
 Coeff-Com:  0.157D-03 0.222D-04-0.434D-03 0.329D-03 0.405D-03-0.146D-02
 Coeff-Com: -0.375D-02 0.541D-02 0.127D-01-0.556D-02-0.581D-01-0.861D-01
 Coeff-Com:  0.342D+00 0.795D+00
 Coeff:      0.959D-05 0.784D-04 0.281D-04 0.875D-04-0.334D-03-0.145D-04
 Coeff:      0.157D-03 0.222D-04-0.434D-03 0.329D-03 0.405D-03-0.146D-02
 Coeff:     -0.375D-02 0.541D-02 0.127D-01-0.556D-02-0.581D-01-0.861D-01
 Coeff:      0.342D+00 0.795D+00
 Gap=     0.149 Goal=   None    Shift=    0.000
 Gap=     0.082 Goal=   None    Shift=    0.000
 RMSDP=6.46D-08 MaxDP=5.43D-06 DE=-7.19D-11 OVMax= 1.08D-05

 Cycle  25  Pass 1  IDiag  1:
 RMSU=  2.07D-08    CP:  1.00D+00  1.52D+00  2.50D-01  1.15D+00  1.16D+00
 E= -504.741836014075     Delta-E=       -0.000000000020 Rises=F Damp=F
 DIIS: error= 1.47D-07 at cycle  25 NSaved=  20.
 NSaved=20 IEnMin=20 EnMin= -504.741836014075     IErMin=20 ErrMin= 1.47D-07
 ErrMax= 1.47D-07 EMaxC= 1.00D-01 BMatC= 4.03D-12 BMatP= 3.02D-11
 IDIUse=1 WtCom= 1.00D+00 WtEn= 0.00D+00
 Coeff-Com: -0.345D-05-0.309D-04 0.351D-04 0.130D-03-0.754D-04-0.211D-03
 Coeff-Com: -0.150D-03 0.359D-03 0.529D-03-0.990D-04-0.555D-03-0.764D-03
 Coeff-Com:  0.623D-03 0.245D-02 0.534D-02 0.287D-02-0.562D-01-0.737D-01
 Coeff-Com:  0.176D+00 0.943D+00
 Coeff:     -0.345D-05-0.309D-04 0.351D-04 0.130D-03-0.754D-04-0.211D-03
 Coeff:     -0.150D-03 0.359D-03 0.529D-03-0.990D-04-0.555D-03-0.764D-03
 Coeff:      0.623D-03 0.245D-02 0.534D-02 0.287D-02-0.562D-01-0.737D-01
 Coeff:      0.176D+00 0.943D+00
 Gap=     0.149 Goal=   None    Shift=    0.000
 Gap=     0.082 Goal=   None    Shift=    0.000
 RMSDP=3.74D-08 MaxDP=2.51D-06 DE=-2.02D-11 OVMax= 5.71D-06

 Cycle  26  Pass 1  IDiag  1:
 RMSU=  8.76D-09    CP:  1.00D+00  1.52D+00  2.80D-01  1.12D+00  1.08D+00
                    CP:  1.36D+00
 E= -504.741836014082     Delta-E=       -0.000000000008 Rises=F Damp=F
 DIIS: error= 4.09D-08 at cycle  26 NSaved=  20.
 NSaved=20 IEnMin=20 EnMin= -504.741836014082     IErMin=20 ErrMin= 4.09D-08
 ErrMax= 4.09D-08 EMaxC= 1.00D-01 BMatC= 6.45D-13 BMatP= 4.03D-12
 IDIUse=1 WtCom= 1.00D+00 WtEn= 0.00D+00
 Coeff-Com: -0.305D-05 0.825D-05 0.190D-04-0.220D-04-0.325D-04-0.270D-04
 Coeff-Com:  0.235D-04 0.131D-03-0.363D-04-0.335D-03-0.405D-03 0.565D-03
 Coeff-Com:  0.149D-02 0.141D-02-0.313D-03-0.139D-01-0.365D-01-0.691D-02
 Coeff-Com:  0.258D+00 0.796D+00
 Coeff:     -0.305D-05 0.825D-05 0.190D-04-0.220D-04-0.325D-04-0.270D-04
 Coeff:      0.235D-04 0.131D-03-0.363D-04-0.335D-03-0.405D-03 0.565D-03
 Coeff:      0.149D-02 0.141D-02-0.313D-03-0.139D-01-0.365D-01-0.691D-02
 Coeff:      0.258D+00 0.796D+00
 Gap=     0.149 Goal=   None    Shift=    0.000
 Gap=     0.082 Goal=   None    Shift=    0.000
 RMSDP=1.72D-08 MaxDP=2.05D-06 DE=-7.96D-12 OVMax= 2.42D-06

 Cycle  27  Pass 1  IDiag  1:
 RMSU=  3.63D-09    CP:  1.00D+00  1.52D+00  2.70D-01  1.13D+00  1.13D+00
                    CP:  1.41D+00  1.10D+00
 E= -504.741836014084     Delta-E=       -0.000000000001 Rises=F Damp=F
 DIIS: error= 2.17D-08 at cycle  27 NSaved=  20.
 NSaved=20 IEnMin=20 EnMin= -504.741836014084     IErMin=20 ErrMin= 2.17D-08
 ErrMax= 2.17D-08 EMaxC= 1.00D-01 BMatC= 1.26D-13 BMatP= 6.45D-13
 IDIUse=1 WtCom= 1.00D+00 WtEn= 0.00D+00
 Coeff-Com: -0.939D-05-0.749D-05-0.123D-04 0.589D-04 0.104D-04-0.299D-04
 Coeff-Com: -0.751D-04 0.144D-04 0.161D-03 0.285D-03-0.378D-03-0.907D-03
 Coeff-Com: -0.401D-03 0.274D-02 0.833D-02-0.636D-02-0.406D-01-0.814D-01
 Coeff-Com:  0.137D+00 0.982D+00
 Coeff:     -0.939D-05-0.749D-05-0.123D-04 0.589D-04 0.104D-04-0.299D-04
 Coeff:     -0.751D-04 0.144D-04 0.161D-03 0.285D-03-0.378D-03-0.907D-03
 Coeff:     -0.401D-03 0.274D-02 0.833D-02-0.636D-02-0.406D-01-0.814D-01
 Coeff:      0.137D+00 0.982D+00
 Gap=     0.149 Goal=   None    Shift=    0.000
 Gap=     0.082 Goal=   None    Shift=    0.000
 RMSDP=3.81D-09 MaxDP=2.53D-07 DE=-1.36D-12 OVMax= 4.01D-07

 SCF Done:  E(UB3LYP) =  -504.741836014     A.U. after   27 cycles
             Convg  =    0.3809D-08             -V/T =  2.0049
 <Sx>= 0.0000 <Sy>= 0.0000 <Sz>= 0.5000 <S**2>= 0.8568 S= 0.5521
 <L.S>= 0.000000000000E+00
 KE= 5.022760578818D+02 PE=-2.448973463420D+03 EE= 8.050802517060D+02
 Annihilation of the first spin contaminant:
 S**2 before annihilation     0.8568,   after     0.7512
 Leave Link  502 at Mon Feb 24 19:22:26 2014, MaxMem= 4026531840 cpu:    3398.8
 (Enter /usr/caen/gaussian-09revc/g09/l801.exe)
 Range of M.O.s used for correlation:     1   375
 NBasis=   375 NAE=    45 NBE=    44 NFC=     0 NFV=     0
 NROrb=    375 NOA=    45 NOB=    44 NVA=   330 NVB=   331

 **** Warning!!: The largest alpha MO coefficient is  0.16384807D+03


 **** Warning!!: The largest beta MO coefficient is  0.16254763D+03


 **** Warning!!: The smallest beta delta epsilon is  0.82020862D-01

 Leave Link  801 at Mon Feb 24 19:22:27 2014, MaxMem= 4026531840 cpu:       1.1
 (Enter /usr/caen/gaussian-09revc/g09/l1101.exe)
 Using compressed storage, NAtomX=    30.
 Will process  31 centers per pass.
 Leave Link 1101 at Mon Feb 24 19:22:27 2014, MaxMem= 4026531840 cpu:       4.9
 (Enter /usr/caen/gaussian-09revc/g09/l1102.exe)
 Symmetrizing basis deriv contribution to polar:
 IMax=3 JMax=2 DiffMx= 0.00D+00
 Leave Link 1102 at Mon Feb 24 19:22:28 2014, MaxMem= 4026531840 cpu:       1.3
 (Enter /usr/caen/gaussian-09revc/g09/l1110.exe)
 Forming Gx(P) for the SCF density, NAtomX=    30.
 Integral derivatives from FoFDir/FoFCou, PRISM(SPDF).
 Do as many integral derivatives as possible in FoFDir.
 G2DrvN: MDV=    4026531496.
 G2DrvN: will do    31 centers at a time, making    1 passes doing MaxLOS=2.
 Calling FoFCou, ICntrl=  3107 FMM=F I1Cent=   0 AccDes= 0.00D+00.
 FoFCou: FMM=F IPFlag=           0 FMFlag=      100000 FMFlg1=           0
         NFxFlg=           0 DoJE=F BraDBF=F KetDBF=F FulRan=T
         Omega=  0.000000  0.000000  1.000000  0.000000  0.000000 ICntrl=    3107 IOpCl=  1
         NMat0=    1 NMatS0=    1 NMatT0=    0 NMatD0=    1 NMtDS0=    0 NMtDT0=    0
         I1Cent=           0 NGrid=           0.
 Symmetry not used in FoFCou.
 FoFDir/FoFCou used for L=0 through L=2.
 End of G2Drv Frequency-dependent properties file   721 does not exist.
 End of G2Drv Frequency-dependent properties file   722 does not exist.
 Leave Link 1110 at Mon Feb 24 19:26:44 2014, MaxMem= 4026531840 cpu:    2048.5
 (Enter /usr/caen/gaussian-09revc/g09/l1002.exe)
 Minotr:  UHF open shell wavefunction.
          IDoAtm=111111111111111111111111111111
          Direct CPHF calculation.
          Differentiating once with respect to nuclear coordinates.
          Requested convergence is 1.0D-06 RMS, and 1.0D-05 maximum.
          Secondary convergence is 1.0D-12 RMS, and 1.0D-12 maximum.
          NewPWx=T KeepS1=F KeepF1=F KeepIn=T MapXYZ=F SortEE=F KeepMc=T.
          MDV=    4026531536 using IRadAn=       2.
 Generate precomputed XC quadrature information.
          Solving linear equations simultaneously, MaxMat=       0.
 Integrals replicated using symmetry in FoFDir.
 MinBra= 0 MaxBra= 2 Meth= 1.
 IRaf=       0 NMat=  93 IRICut=     232 DoRegI=T DoRafI=T ISym2E= 2 JSym2E=2.
          There are    93 degrees of freedom in the 1st order CPHF.  IDoFFX=5.
     87 vectors produced by pass  0 Test12= 3.16D-10 1.08D-07 XBig12= 6.57D-01 5.40D-01.
 AX will form    87 AO Fock derivatives at one time.
     87 vectors produced by pass  1 Test12= 3.16D-10 1.08D-07 XBig12= 1.53D-01 7.13D-02.
     87 vectors produced by pass  2 Test12= 3.16D-10 1.08D-07 XBig12= 4.15D-04 4.96D-03.
     87 vectors produced by pass  3 Test12= 3.16D-10 1.08D-07 XBig12= 3.19D-06 2.74D-04.
     67 vectors produced by pass  4 Test12= 3.16D-10 1.08D-07 XBig12= 2.88D-08 1.55D-05.
     19 vectors produced by pass  5 Test12= 3.16D-10 1.08D-07 XBig12= 1.19D-10 9.41D-07.
      5 vectors produced by pass  6 Test12= 3.16D-10 1.08D-07 XBig12= 4.69D-12 2.35D-07.
 Inverted reduced A of dimension   439 with in-core refinement.
 End of Minotr Frequency-dependent properties file   721 does not exist.
 End of Minotr Frequency-dependent properties file   722 does not exist.
 Leave Link 1002 at Mon Feb 24 19:47:20 2014, MaxMem= 4026531840 cpu:    9871.2
 (Enter /usr/caen/gaussian-09revc/g09/l601.exe)
 Copying SCF densities to generalized density rwf, IOpCl= 1 IROHF=0.

 **********************************************************************

            Population analysis using the SCF density.

 **********************************************************************

 Orbital symmetries:
[...]
 009601,0.00016711,0.00019922,-0.00006967,-0.00008624,0.00004216,-0.000
 06831,-0.00004953,0.00000933,0.00000178,0.00002676,-0.00003277,-0.0000
 1515,0.00001622,0.00001074,-0.00001534,0.00000754,0.00001494,-0.000004
 94,-0.00000335,0.00000003,-0.00000123,0.00000616,-0.00000204,0.0000003
 3,-0.00000126,-0.00000024,0.00000116,0.03020184,-0.04643393,0.02117510
 ,-0.01431960,0.00409095,-0.00352517,-0.03518329,0.04547817,-0.00034411
 ,-0.00148823,-0.00209278,-0.00021169,-0.00058913,0.00005873,0.00020773
 ,-0.00008714,0.00003885,0.00083106,0.00023639,-0.00006874,-0.02075980,
 0.00540670,0.00389125,0.00044214,-0.00341756,-0.00122642,0.00232637,0.
 00316459,0.00060864,-0.00084839,0.00047150,-0.00032893,-0.00045844,0.0
 0032361,0.00001878,0.00073573,-0.00005651,-0.00027187,-0.00012852,-0.0
 0006971,0.00035613,-0.00002723,-0.00008563,-0.00008044,-0.00015500,-0.
 00013552,0.00026599,0.00011738,-0.00002497,0.00002098,0.00004115,-0.00
 003262,-0.00002845,-0.00001587,0.00000250,-0.00003193,-0.00001089,0.00
 000031,0.00000885,-0.00000198,-0.00000389,0.00000698,0.00000072,-0.000
 00028,-0.00000048,-0.00000104,0.00000153,-0.00000134,0.00000103,-0.000
 00113,-0.00000136,-0.07197720,0.02343008,-0.06340875,0.01409666,-0.000
 75327,0.00852462,0.07914689,-0.02348458,0.05922894,-0.00004738,0.00004
 244,0.00000572,0.00001948,0.00001481,0.00000352,0.00001226,0.00000433,
 -0.00001202,-0.00002526,-0.00000802,-0.00000048,-0.00000332,0.00003221
 ,-0.00008396,-0.00002466,-0.00001676,-0.00005246,-0.00002840,0.0000055
 1,-0.00008989,-0.00000154,0.00020523,0.00013648,0.00008169,0.00003520,
 -0.00005529,0.00060339,-0.00087119,-0.00031966,-0.00008072,0.00000175,
 -0.00028833,-0.00078385,-0.00054130,0.00017853,-0.00085383,-0.02306752
 ,-0.01502997,0.00088778,0.00104375,-0.00033825,-0.00405035,-0.00352768
 ,0.00102629,-0.07856902,-0.00333865,-0.00224062,-0.00019984,-0.0041458
 8,-0.00273002,-0.00139516,0.02699148,0.01793905,0.00106114,-0.00053859
 ,0.00032545,0.00081957,0.00068704,0.00041574,-0.00534351,0.00405598,0.
 00028476,-0.00005809,-0.00016916,0.00009690,-0.00000631,-0.00002052,-0
 .00001193,-0.00000948,0.00001799,-0.00001908,0.56928457,0.00002784,-0.
 00001180,-0.00002353,-0.00000170,-0.00000737,0.00000436,0.00000073,-0.
 00000634,0.00000616,-0.00000135,0.00001001,-0.00000206,0.00007681,0.00
 014746,0.00003387,0.00002793,0.00003033,-0.00000927,0.00060702,-0.0004
 7020,-0.00037820,-0.00015892,-0.00012874,0.00010810,-0.00000690,-0.000
 03912,0.00004230,-0.00053483,0.00089664,0.00075632,-0.00015892,0.00005
 133,-0.00017188,0.00012562,-0.00057559,-0.00078948,-0.00593779,-0.0227
 7257,-0.01109584,0.00114355,0.00092808,-0.00090119,-0.00253671,-0.0010
 2245,0.00058242,-0.00034675,-0.14257244,-0.04561865,0.00020544,0.00531
 366,0.00310026,0.00549164,-0.02072131,-0.01208478,-0.00129776,0.000684
 55,-0.00042704,-0.00171405,0.00123057,0.00039895,0.00187818,-0.0009910
 4,0.00020565,0.00001778,0.00000072,-0.00000562,0.00001567,0.00001053,0
 .00004759,-0.00001150,-0.00001188,-0.00000152,-0.00772483,0.49419993,0
 .00005537,-0.00005260,0.00003117,-0.00000938,0.00000164,-0.00000404,-0
 .00000651,0.00000678,-0.00000425,0.00003158,0.00001068,-0.00000496,0.0
 0000211,0.00006575,-0.00002569,-0.00000702,0.00000375,0.00005833,0.000
 18170,-0.00011130,0.00031592,0.00001688,0.00000649,-0.00008088,-0.0000
 2296,0.00002587,-0.00002290,0.00004028,0.00036595,-0.00014425,0.000080
 46,0.00000567,0.00009215,-0.00006702,0.00001254,0.00031076,-0.00222060
 ,0.00548289,0.00522924,0.00046607,0.00135101,0.00096591,0.00214916,0.0
 0280318,0.00018751,-0.00140937,-0.04751447,-0.11225653,-0.00068568,-0.
 02872580,-0.01964498,0.00257720,-0.00139646,0.00036785,-0.00068949,0.0
 0134105,0.00097461,-0.00021140,-0.00007932,-0.00012764,-0.00095126,0.0
 0140129,0.00085132,0.00002078,0.00006701,-0.00003557,-0.00000859,0.000
 00943,-0.00002800,0.00001562,-0.00000187,0.00000785,-0.00539717,-0.049
 83194,0.52010088,-0.00003318,0.00003799,-0.00000985,0.00000665,-0.0000
 0615,-0.00000056,0.00000882,-0.00000153,0.00000101,-0.00002874,-0.0000
 0331,0.00000263,0.00004549,-0.00005293,-0.00004231,0.00003786,0.000019
 23,-0.00002340,0.00013205,-0.00008647,-0.00017897,-0.00011793,-0.00008
 467,0.00002912,-0.00000979,-0.00000812,0.00002065,-0.00004425,0.000079
 92,0.00041633,0.00000215,-0.00002172,-0.00008825,0.00034943,-0.0002180
 8,-0.00026883,0.00068836,0.00059043,-0.00071076,0.00000566,0.00006162,
 0.00011228,0.00002945,-0.00014109,0.00009991,-0.00150835,0.00017461,0.
 00004573,-0.00005148,-0.00017142,-0.00048203,0.00070374,0.00103613,0.0
 0011096,-0.00001661,0.00003758,-0.00004066,0.00047082,-0.00001150,0.00
 006813,0.00015984,0.00001219,-0.00020356,-0.00000330,-0.00004305,0.000
 02415,0.00002611,-0.00001573,0.00003980,-0.00002316,-0.00000301,0.0000
 0134,-0.19950876,-0.11447705,0.05599447,0.21581274,-0.00003627,0.00003
 546,-0.00000189,0.00000836,-0.00000043,-0.00000011,0.00000747,-0.00000
 106,-0.00000179,-0.00002305,-0.00000632,0.00000155,-0.00002268,-0.0000
 4928,-0.00003096,-0.00000043,-0.00001105,-0.00003972,-0.00018573,0.000
 19468,0.00007518,0.00006613,0.00009656,0.00001727,0.00003181,0.0000080
 1,-0.00001803,0.00073794,-0.00023060,-0.00012937,-0.00007350,0.0000130
 0,-0.00003802,-0.00018931,0.00022150,0.00023610,0.00151800,-0.00391173
 ,-0.00443788,0.00030914,0.00032853,-0.00008218,-0.00153322,-0.00118293
 ,0.00014552,-0.02065226,-0.01641224,0.00911210,0.00014274,0.00104588,-
 0.00019012,-0.00142271,0.00088790,0.00106274,0.00007057,-0.00012202,-0
 .00001576,0.00109435,0.00000519,-0.00037505,0.00016626,0.00052164,-0.0
 0009969,-0.00001927,-0.00006408,0.00003548,0.00000972,-0.00000835,0.00
 001238,-0.00001391,0.00000490,-0.00000343,-0.11331829,-0.13102015,0.04
 191720,0.12568687,0.14375455,-0.00001124,0.00000638,-0.00000345,0.0000
 0275,0.00000240,0.00000254,-0.00000015,-0.00000188,-0.00000041,-0.0000
 0293,-0.00000271,0.00000106,-0.00001266,-0.00000345,0.00000145,-0.0000
 1277,-0.00001277,-0.00002744,-0.00004913,0.00003486,-0.00003138,0.0000
 0779,0.00003162,0.00003398,0.00000307,-0.00002455,-0.00000057,0.000250
 51,-0.00019587,0.00005267,0.00000724,0.00004858,0.00001606,-0.00007483
 ,0.00011883,-0.00004993,0.00062313,-0.00283928,-0.00209729,-0.00005642
 ,-0.00034473,0.00030325,-0.00071974,-0.00079737,0.00051497,-0.01532405
 ,-0.01161815,0.00507928,-0.00032875,0.00075591,0.00064335,-0.00059819,
 0.00048557,0.00047550,0.00018451,0.00006123,-0.00005839,0.00022859,0.0
 0011665,0.00019718,-0.00023481,0.00017579,-0.00008839,-0.00000696,-0.0
 0001752,0.00001084,-0.00000020,0.00000073,0.00000384,-0.00000225,0.000
 00073,-0.00000233,0.05633497,0.04279035,-0.06721961,-0.06205724,-0.043
 67709,0.07029660,-0.00000174,-0.00000474,0.00000021,-0.00000045,0.0000
 0218,0.00000348,-0.00000325,-0.00000454,0.00000182,0.00000361,-0.00000
 074,0.00000036,-0.00001058,-0.00001060,0.00002280,-0.00001893,-0.00002
 558,-0.00004076,0.00000630,-0.00000142,0.00000252,0.00001450,-0.000000
 42,0.00000119,-0.00002609,-0.00005149,0.00002557,-0.00016872,-0.000089
 61,0.00003816,0.00010321,0.00009010,0.00017630,-0.00010771,0.00012463,
 -0.00014255,0.00019830,0.00049358,-0.00106170,0.00010734,-0.00027788,0
 .00013903,-0.00000897,-0.00000093,0.00019629,-0.00131334,0.00003388,-0
 .00149096,0.00067368,-0.00034587,-0.00011616,0.00027121,-0.00037116,0.
 00098017,0.00025242,0.00018114,-0.00002161,0.00000915,-0.00004677,0.00
 011708,-0.00008793,-0.00006144,-0.00017368,0.00001802,0.00002263,-0.00
 000515,0.00000372,0.00001119,0.00000206,0.00000057,-0.00000545,0.00000
 351,-0.05087220,0.00771766,-0.02913085,0.00360021,-0.00553718,0.024894
 24,0.04991625,0.00000780,-0.00000720,0.00000234,-0.00000157,0.00000074
 ,-0.00000148,-0.00000280,0.00000344,-0.00000039,0.00000669,0.00000041,
 0.00000068,-0.00000287,0.00000337,0.00000500,-0.00000191,0.00001366,0.
 00003051,-0.00005553,0.00000782,0.00003424,0.00001239,0.00001306,-0.00
 000834,-0.00001531,0.00000342,-0.00000041,-0.00004893,0.00002778,0.000
 06404,0.00013552,-0.00007476,0.00001617,-0.00000879,-0.00001148,0.0000
 8317,0.00044348,0.00194265,-0.00090176,0.00000562,-0.00018823,0.000702
 09,0.00029845,0.00023986,0.00030297,-0.00346457,0.00583120,-0.02780685
 ,-0.00017966,-0.00430303,-0.00368878,-0.00092395,0.00159209,-0.0003793
 6,0.00023595,-0.00010389,0.00048520,0.00010629,-0.00010958,0.00007031,
 -0.00019420,0.00015940,0.00031564,-0.00000450,0.00000894,-0.00000065,-
 0.00000868,-0.00000587,-0.00001221,0.00000752,0.00000060,-0.00000300,0
 .00769107,-0.06141760,0.06003383,0.00335381,-0.00505344,0.01741684,-0.
 00814968,0.06616813,-0.00001767,0.00001327,-0.00001253,0.00000172,0.00
 000006,0.00000182,0.00000126,-0.00000481,0.00000425,-0.00000980,-0.000
 00390,0.00000124,-0.00000849,-0.00003493,0.00001351,-0.00000516,-0.000
 02537,-0.00005518,-0.00002052,0.00004934,-0.00001665,-0.00000372,-0.00
 000242,0.00000402,-0.00002954,-0.00004216,0.00002694,-0.00016670,-0.00
 018670,0.00003752,0.00017300,0.00001385,0.00012650,-0.00010460,0.00003
 967,-0.00016165,0.00061687,0.00117743,0.00064566,-0.00061664,-0.000788
 99,0.00066273,0.00011834,-0.00005698,0.00043132,-0.00254461,0.00402203
 ,-0.02050963,0.00008948,-0.00395392,-0.00083762,-0.00054545,0.00105550
 ,0.00063157,0.00075379,-0.00072384,0.00039191,-0.00002030,-0.00002104,
 -0.00003669,0.00004255,-0.00013303,0.00046905,0.00001633,-0.00000454,0
 .00000134,0.00000990,-0.00000395,0.00000697,-0.00000839,-0.00000263,0.
 00000310,-0.02907692,0.05971106,-0.28045354,-0.00095254,0.00213991,-0.
 00823509,0.03273117,-0.06303971,0.30891510,0.00002415,-0.00001255,-0.0
 0000552,-0.00000599,-0.00000456,-0.00000133,-0.00000279,-0.00000145,0.
 00000454,0.00001007,0.00000416,-0.00000021,0.00003105,0.00004714,0.000
 02570,0.00000357,0.00000646,0.00002063,0.00016040,-0.00021536,-0.00011
 725,-0.00006278,-0.00008419,0.00000417,-0.00000994,-0.00000925,0.00001
 294,-0.00092188,-0.00046112,0.00017791,0.00002353,0.00009494,0.0000007
 3,-0.00079053,-0.00139902,-0.00051070,-0.00005135,0.00007322,0.0004219
 1,-0.00003406,-0.00003882,0.00001367,0.00011293,0.00016174,-0.00005975
 ,0.00208100,-0.00174564,0.00065066,0.00033272,0.00031727,0.00061110,0.
 00072447,0.00007556,0.00069427,0.00003008,-0.00017508,-0.00004109,0.00
 039798,-0.00011163,-0.00022660,0.00008000,0.00010442,-0.00019644,0.000
 01106,0.00004352,-0.00001998,-0.00000664,0.00000843,-0.00000822,0.0000
 0505,-0.00000238,-0.00000118,-0.23094729,0.11762450,-0.02084204,-0.020
 68322,0.01318565,-0.00306070,-0.00258405,0.00075550,-0.00043088,0.2520
 7486,0.00002401,-0.00003496,0.00001304,-0.00000306,0.00000871,0.000002
 70,-0.00000638,0.00000203,-0.00000526,0.00002642,0.00000059,-0.0000024
 3,-0.00008910,0.00003945,0.00001569,-0.00005092,-0.00002988,0.00001570
 ,-0.00037401,0.00029393,0.00033018,0.00021032,0.00019205,-0.00001893,0
 .00005008,0.00003304,-0.00006714,0.00016949,-0.00055210,-0.00061437,-0
 .00007543,-0.00000609,-0.00000125,-0.00143974,0.00007741,0.00042947,0.
 00106335,0.00065736,0.00047520,-0.00008370,-0.00009466,-0.00003846,-0.
 00004133,0.00019219,-0.00008159,0.02268714,-0.01328227,0.00482735,-0.0
 0027609,0.00118100,-0.00005696,-0.00188658,-0.00418949,-0.00386658,-0.
 00034487,0.00020891,0.00005346,0.00012079,0.00025122,-0.00012251,0.001
 66085,-0.00084439,-0.00015999,-0.00001747,0.00001134,0.00000128,-0.000
 03377,0.00001488,-0.00004890,0.00002655,0.00000858,-0.00000558,0.11628
 876,-0.12172375,0.01285534,-0.01578826,0.01088652,-0.00253626,0.006296
 85,-0.00471560,0.00076926,-0.12818155,0.13143330,0.00000524,-0.0000011
 1,-0.00000587,-0.00000100,-0.00000316,-0.00000199,0.00000045,0.0000040
 5,0.00000041,0.00000160,0.00000120,0.00000162,0.00000149,0.00000610,-0
 .00000054,0.00001921,0.00004158,0.00006073,-0.00004644,-0.00000845,-0.
 00012860,-0.00000113,-0.00002463,0.00000076,0.00003305,0.00005268,-0.0
 0002214,-0.00020152,0.00012302,0.00047394,-0.00009348,-0.00010010,-0.0
 0027311,0.00002815,-0.00014721,0.00013458,-0.00010351,0.00072579,0.000
 35060,-0.00010576,0.00002280,0.00000646,0.00012182,0.00007100,-0.00007
 904,0.01736734,-0.00917513,0.00152686,0.00035019,0.00079556,0.00055477
 ,-0.00079876,-0.00318474,-0.00203791,0.00017410,-0.00034599,0.00027258
 ,-0.00035606,0.00012157,-0.00006158,0.00094226,-0.00096677,0.00036877,
 -0.00002233,-0.00000606,0.00000932,-0.00001324,-0.00001350,-0.00000801
 ,0.00000973,0.00000559,-0.00000892,-0.02106378,0.01355266,-0.04938778,
 0.00807438,-0.00565352,0.00015845,-0.02718649,0.01631067,-0.00210688,0
 .02290367,-0.01215261,0.05025914,-0.00118304,0.00086275,0.00106353,0.0
 0042650,0.00030928,0.00001274,-0.00002944,-0.00002336,-0.00007500,0.00
 014480,-0.00004033,0.00003940,0.00060885,-0.00096001,-0.01262854,0.003
 64582,0.02482774,-0.00313227,0.00079374,0.00151237,0.00142404,-0.00049
 434,0.00011145,0.00017995,0.00014101,-0.00002992,-0.00003130,0.0000159
 8,0.00006546,-0.00003788,0.00012001,-0.00005337,-0.00017107,-0.0003730
 9,0.00002752,0.00009684,0.00004834,-0.00016447,-0.00001778,-0.00003751
 ,0.00003585,-0.00002968,0.00004288,-0.00000834,-0.00000225,0.00002816,
 0.00009220,-0.00001959,0.00000698,-0.00001086,-0.00002053,-0.00002776,
 -0.00006036,0.00000500,0.00000198,0.00001063,-0.00001202,-0.00003989,-
 0.00000757,0.00000813,0.00001457,-0.00000259,-0.00000338,-0.01387424,-
 0.01107829,-0.00060640,0.00084230,0.00465450,0.00421912,0.00201171,-0.
 00330691,-0.00325848,-0.00001553,-0.00002460,0.00002136,-0.00002584,-0
 .00002508,-0.00000633,-0.00001483,0.00002670,-0.00002806,0.00001096,0.
 00002661,0.00003669,0.05251676,0.00334052,-0.00334453,-0.00554599,-0.0
 0176305,-0.00143323,0.00001737,0.00031895,0.00026113,0.00007126,-0.000
 47594,0.00023219,-0.00001351,0.00831348,-0.00097717,0.04595640,0.02307
 748,-0.07556298,0.00237906,-0.00337800,-0.00545474,-0.00556535,0.00262
 949,-0.00061504,-0.00048274,-0.00044006,0.00030317,0.00006214,-0.00060
 617,-0.00122169,-0.00001264,0.00007293,0.00013377,-0.00012468,0.000408
 38,0.00039826,0.00041943,0.00015568,0.00072411,-0.00008618,-0.00001275
 ,-0.00004868,0.00000651,-0.00022088,0.00015028,0.00006560,-0.00004296,
 -0.00033368,0.00008501,0.00000790,0.00003334,0.00000276,0.00009411,0.0
 0019481,-0.00000741,-0.00001287,-0.00003066,0.00001307,0.00012472,0.00
 000706,-0.00002124,-0.00005446,0.00003113,0.00002739,-0.00885808,0.024
 59571,0.01517723,0.00023158,-0.00155639,-0.00336514,0.00075448,-0.0038
 8632,-0.00568891,0.00021952,-0.00000770,-0.00005206,0.00005885,0.00008
 811,0.00002618,0.00001038,-0.00003437,0.00004286,-0.00006474,-0.000035
 21,-0.00007100,-0.08496839,0.22092766,-0.00057511,-0.00030389,-0.00232
 246,-0.00050770,-0.00106308,0.00034798,-0.00004293,0.00039493,-0.00025
 131,-0.00021815,-0.00013147,0.00050956,0.00283331,-0.01270986,-0.00025
 406,-0.00615810,0.01361565,-0.00712509,0.00049423,-0.00052050,-0.00214
 904,0.00100582,-0.00064602,0.00019086,-0.00030955,0.00023065,-0.000182
 39,0.00013788,0.00049197,0.00096942,0.00035416,0.00003975,-0.00045868,
 -0.00015783,-0.00020405,-0.00023036,0.00007560,-0.00018940,-0.00037496
 ,-0.00013285,0.00009803,-0.00004835,0.00006811,-0.00005965,0.00001199,
 0.00005941,0.00010987,0.00009667,0.00001162,-0.00000508,-0.00006250,-0
 .00003343,-0.00007248,-0.00002455,-0.00000344,0.00001918,-0.00001384,-
 0.00003561,0.00000088,0.00001461,0.00002431,-0.00003035,-0.00000906,0.
 00337216,-0.00014095,0.00920002,-0.00016480,-0.00337380,-0.00365277,0.
 00050013,-0.00214488,-0.00287115,-0.00008861,0.00003348,-0.00001844,0.
 00000545,-0.00003447,-0.00001475,-0.00003571,0.00002692,-0.00004514,0.
 00002876,-0.00000972,0.00009237,0.10588294,-0.21235289,0.36307706,0.00
 071890,-0.00039190,-0.00035172,-0.00010407,0.00023308,-0.00029674,0.00
 007032,0.00019592,-0.00009357,0.00018862,0.00010060,0.00002294,0.00495
 510,0.00955871,0.02197478,-0.01883832,-0.01764993,-0.00403940,0.000451
 80,-0.00211159,-0.00192509,0.00046119,0.00005593,-0.00016933,-0.000233
 28,0.00001249,-0.00024937,-0.00026131,-0.00069994,-0.00033870,-0.00011
 790,0.00014752,0.00029687,0.00007910,0.00047031,0.00021814,0.00004613,
 0.00016210,0.00015691,0.00004978,-0.00005250,0.00001097,-0.00009488,0.
 00007943,0.00001708,-0.00000797,-0.00005728,-0.00003923,-0.00000261,0.
 00000630,0.00003140,0.00001961,0.00003812,0.00001294,0.00000230,-0.000
 00974,0.00000142,0.00000949,-0.00000462,-0.00000532,-0.00001349,0.0000
 2171,0.00000950,0.00572354,0.01331236,-0.00696673,-0.00040758,-0.00219
 466,-0.00210560,-0.00029790,0.00046951,0.00026716,0.00005462,-0.000026
 70,0.00000628,-0.00002479,0.00001788,0.00002255,0.00004032,-0.00002383
 ,0.00003555,-0.00001335,0.00004101,-0.00007589,-0.04530584,0.06107992,
 -0.10639004,0.05285247,0.00010898,0.00582661,0.00488709,0.00095201,0.0
 0012456,0.00059249,-0.00080577,-0.00107024,0.00120337,-0.00031290,-0.0
 0041452,0.00004240,-0.00514814,-0.03356593,-0.10343109,-0.01603467,0.0
 4892334,0.02055046,-0.00077432,0.00571741,0.00503385,-0.00099979,-0.00
 020292,0.00094840,0.00151638,-0.00076129,0.00105194,0.00075809,0.00000
 691,-0.00000430,-0.00013601,-0.00010461,0.00013128,0.00023296,-0.00001
 242,-0.00033766,0.00006596,-0.00003046,0.00001289,0.00002528,0.0000040
 9,-0.00000343,0.00002803,-0.00002647,-0.00001460,0.00003237,0.00002659
 ,-0.00001148,-0.00000149,-0.00000615,-0.00000439,-0.00001240,-0.000029
 55,-0.00000702,0.00000301,0.00000726,-0.00000297,-0.00002219,-0.000004
 97,0.00000560,0.00001101,-0.00000474,-0.00000464,0.01568365,-0.0467014
 7,0.00633329,0.00006912,0.00156896,0.00194937,-0.00060261,0.00226650,0
 .00289541,-0.00004870,-0.00000377,-0.00000152,-0.00001514,-0.00001877,
 -0.00000101,0.00000127,0.00000849,-0.00000531,0.00000483,0.00001588,0.
 00001970,0.06820139,-0.15353833,0.21893124,-0.06278021,0.17199999,0.00
 150649,0.00146613,0.00223081,0.00006016,0.00039522,0.00019127,-0.00047
 062,-0.00142192,0.00108520,-0.00024570,-0.00013898,-0.00061396,-0.0047
 2618,-0.00152826,-0.03423541,-0.00107820,0.00931056,-0.01339121,-0.001
 93775,0.00126802,0.00216156,-0.00030331,0.00035171,0.00023304,0.001450
 18,-0.00085474,0.00085085,0.00017975,-0.00120043,-0.00120194,-0.000566
 32,-0.00010379,0.00070599,0.00050090,0.00049909,0.00016684,0.00000745,
 0.00058112,0.00035586,0.00022640,-0.00016979,0.00010412,-0.00017515,0.
 00013349,0.00002236,-0.00006087,-0.00028866,-0.00007841,-0.00002321,0.
 00001252,0.00010194,0.00008041,0.00016981,0.00001344,0.00000675,-0.000
 03895,0.00003301,0.00009328,0.00000048,-0.00002440,-0.00004926,0.00004
 908,0.00002147,-0.00186528,-0.01298112,-0.02771747,-0.00094436,-0.0018
 9879,-0.00205204,0.00109690,-0.00187322,-0.00261578,0.00015101,-0.0000
 3252,-0.00003444,0.00001263,0.00007368,0.00003802,0.00006965,-0.000057
 70,0.00009606,-0.00004877,-0.00000013,-0.00014898,-0.09290919,0.169037
 48,-0.35440163,0.09996221,-0.16075939,0.42810383\\-0.00000234,-0.00000
 478,0.00001911,0.00000162,0.00000068,-0.00000327,-0.00000225,-0.000002
 50,-0.00000322,-0.00000125,-0.00000283,-0.00000397,0.00004372,-0.00003
 983,-0.00003956,-0.00001304,-0.00007150,0.00004557,-0.00000813,0.00000
 677,0.00001837,0.00000574,0.00000680,-0.00001310,-0.00001619,0.0000034
 7,-0.00000136,0.00000043,-0.00000335,-0.00000918,-0.00000035,0.0000010
 6,-0.00000131,-0.00000035,-0.00000149,0.00000241,0.00000019,0.00000150
 ,-0.00000155,0.00000188,-0.00000277,-0.00000068,-0.00000118,0.00000252
 ,-0.00000206,-0.00000121,0.00000341,0.00000279,0.00000246,-0.00000133,
 0.00000018,0.00000019,0.00000207,0.00000335,0.00000050,0.00000013,-0.0
 0000005,0.00000017,0.00000212,0.00000183,0.00000099,0.00000263,-0.0000
 0085,-0.00000457,0.00006181,0.00000147,-0.00001136,-0.00000264,-0.0000
 0963,0.00000634,-0.00000752,-0.00000835,-0.00000241,0.00000122,-0.0000
 0196,-0.00000183,0.00000174,0.00000140,0.00000117,0.00000004,0.0000020
 1,-0.00000123,0.00000001,0.00000319,-0.00001208,0.00000675,-0.00005551
 ,0.00001437,0.00003582,0.00005394\\\@


 MYSTERY IS THE WISDOM OF BLOCKHEADS... HORACE WALPOLE 
 Job cpu time:  0 days  4 hours 55 minutes 30.3 seconds.
 File lengths (MBytes):  RWF=    713 Int=      0 D2E=      0 Chk=     15 Scr=      1
 Normal termination of Gaussian 09 at Mon Feb 24 23:16:03 2014.
