 Entering Gaussian System, Link 0=g09
 Initial command:
 /usr/caen/gaussian-09revc/g09/l1.exe /scratch/avioli_flux/hetanjin/scratch/Gau-17271.inp -scrdir=/scratch/avioli_flux/hetanjin/scratch/
 Entering Link 1 = /usr/caen/gaussian-09revc/g09/l1.exe PID=     17272.
  
 Copyright (c) 1988,1990,1992,1993,1995,1998,2003,2009,2011,
            Gaussian, Inc.  All Rights Reserved.
  
 This is part of the Gaussian(R) 09 program.  It is based on
 the Gaussian(R) 03 system (copyright 2003, Gaussian, Inc.),
 the Gaussian(R) 98 system (copyright 1998, Gaussian, Inc.),
 the Gaussian(R) 94 system (copyright 1995, Gaussian, Inc.),
 the Gaussian 92(TM) system (copyright 1992, Gaussian, Inc.),
 the Gaussian 90(TM) system (copyright 1990, Gaussian, Inc.),
 the Gaussian 88(TM) system (copyright 1988, Gaussian, Inc.),
 the Gaussian 86(TM) system (copyright 1986, Carnegie Mellon
 University), and the Gaussian 82(TM) system (copyright 1983,
 Carnegie Mellon University). Gaussian is a federally registered
 trademark of Gaussian, Inc.
  
 This software contains proprietary and confidential information,
 including trade secrets, belonging to Gaussian, Inc.
  
 This software is provided under written license and may be
 used, copied, transmitted, or stored only in accord with that
 written license.
  
 The following legend is applicable only to US Government
 contracts under FAR:
  
                    RESTRICTED RIGHTS LEGEND
  
 Use, reproduction and disclosure by the US Government is
 subject to restrictions as set forth in subparagraphs (a)
 and (c) of the Commercial Computer Software - Restricted
 Rights clause in FAR 52.227-19.
  
 Gaussian, Inc.
 340 Quinnipiac St., Bldg. 40, Wallingford CT 06492
  
  
 ---------------------------------------------------------------
 Warning -- This program may not be used in any manner that
 competes with the business of Gaussian, Inc. or will provide
 assistance to any competitor of Gaussian, Inc.  The licensee
 of this program is prohibited from giving any competitor of
 Gaussian, Inc. access to this program.  By using this program,
 the user acknowledges that Gaussian, Inc. is engaged in the
 business of creating and licensing software in the field of
 computational chemistry and represents and warrants to the
 licensee that it is not a competitor of Gaussian, Inc. and that
 it will not use this program in any manner prohibited above.
 ---------------------------------------------------------------
  

 Cite this work as:
 Gaussian 09, Revision C.01,
 M. J. Frisch, G. W. Trucks, H. B. Schlegel, G. E. Scuseria, 
 M. A. Robb, J. R. Cheeseman, G. Scalmani, V. Barone, B. Mennucci, 
 G. A. Petersson, H. Nakatsuji, M. Caricato, X. Li, H. P. Hratchian, 
 A. F. Izmaylov, J. Bloino, G. Zheng, J. L. Sonnenberg, M. Hada, 
 M. Ehara, K. Toyota, R. Fukuda, J. Hasegawa, M. Ishida, T. Nakajima, 
 Y. Honda, O. Kitao, H. Nakai, T. Vreven, J. A. Montgomery, Jr., 
 J. E. Peralta, F. Ogliaro, M. Bearpark, J. J. Heyd, E. Brothers, 
 K. N. Kudin, V. N. Staroverov, T. Keith, R. Kobayashi, J. Normand, 
 K. Raghavachari, A. Rendell, J. C. Burant, S. S. Iyengar, J. Tomasi, 
 M. Cossi, N. Rega, J. M. Millam, M. Klene, J. E. Knox, J. B. Cross, 
 V. Bakken, C. Adamo, J. Jaramillo, R. Gomperts, R. E. Stratmann, 
 O. Yazyev, A. J. Austin, R. Cammi, C. Pomelli, J. W. Ochterski, 
 R. L. Martin, K. Morokuma, V. G. Zakrzewski, G. A. Voth, 
 P. Salvador, J. J. Dannenberg, S. Dapprich, A. D. Daniels, 
 O. Farkas, J. B. Foresman, J. V. Ortiz, J. Cioslowski, 
 and D. J. Fox, Gaussian, Inc., Wallingford CT, 2010.
 
 ******************************************
 Gaussian 09:  EM64L-G09RevC.01 23-Sep-2011
                15-Feb-2014 
 ******************************************
 %mem=30GB
 %nprocshared=8
 Will use up to    8 processors via shared memory.
 %chk=TS_1_1g.chk
 ----------------------------
 #p ub3lyp/6-311++g(d,p) freq
 ----------------------------
 1/10=4,30=1,38=1/1,3;
 2/12=2,17=6,18=5,40=1/2;
 3/5=4,6=6,7=1111,11=2,16=1,25=1,30=1,71=2,74=-5,116=2/1,2,3;
 4//1;
 5/5=2,38=5,98=1/2;
 8/6=4,10=90,11=11/1;
 11/6=1,8=1,9=11,15=111,16=1/1,2,10;
 10/6=1/2;
 6/7=2,8=2,9=2,10=2,18=1,28=1/1;
 7/8=1,10=1,25=1/1,2,3,16;
 1/10=4,30=1/3;
 99//99;
 Leave Link    1 at Sat Feb 15 18:11:31 2014, MaxMem= 4026531840 cpu:       0.6
 (Enter /usr/caen/gaussian-09revc/g09/l101.exe)
 --------------------------------------------------------
 TS_1_1g using B3LYP/6-311++g(d,p) to find TS | reactants
 --------------------------------------------------------
 Charge =  0 Multiplicity = 2
 Symbolic Z-Matrix:
 C                     3.59491  -0.53904   0.39813 
 H                     3.54277  -0.43054   1.48673 
 H                     3.9176   -1.56047   0.18044 
 H                     4.37111   0.14066   0.03263 
 C                     2.23258  -0.24819  -0.25051 
 H                     2.32744  -0.42802  -1.32895 
 C                     1.12717  -1.1733    0.30007 
 H                     1.57856  -2.12213   0.60887 
 H                     0.72109  -0.72606   1.21334 
 C                    -0.01598  -1.47412  -0.70001 
 H                     0.18158  -2.43319  -1.18885 
 H                    -0.01569  -0.72616  -1.49743 
 C                    -1.41151  -1.5095   -0.04622 
 H                    -1.34066  -1.99657   0.93246 
 H                    -2.0825   -2.13828  -0.65055 
 C                    -2.06726  -0.13969   0.0969 
 H                    -1.06716   0.75429   0.30162 
 C                    -2.67117   0.40769  -1.18247 
 H                    -3.57406  -0.16346  -1.44454 
 H                    -2.96073   1.45527  -1.07152 
 H                    -1.98013   0.33733  -2.02583 
 C                     1.91818   1.24     -0.04358 
 H                     1.974     1.50511   1.01641 
 H                     2.63953   1.85521  -0.59183 
 C                    -2.93441   0.04447   1.3246 
 H                    -3.28676   1.07521   1.41792 
 H                    -3.82315  -0.60152   1.26339 
 H                    -2.4004   -0.22201   2.2406 
 O                     0.64223   1.68354  -0.53776 
 O                    -0.31191   1.66337   0.50321 
 
 NAtoms=     30 NQM=        0 NQMF=       0 NMMI=     30 NMMIF=      0
                NMic=       0 NMicF=      0.
                    Isotopes and Nuclear Properties:
 (Nuclear quadrupole moments (NQMom) in fm**2, nuclear magnetic moments (NMagM)
  in nuclear magnetons)

  Atom         1           2           3           4           5           6           7           8           9          10
 IAtWgt=          12           1           1           1          12           1          12           1           1          12
 AtmWgt=  12.0000000   1.0078250   1.0078250   1.0078250  12.0000000   1.0078250  12.0000000   1.0078250   1.0078250  12.0000000
 NucSpn=           0           1           1           1           0           1           0           1           1           0
 AtZEff=   0.0000000   0.0000000   0.0000000   0.0000000   0.0000000   0.0000000   0.0000000   0.0000000   0.0000000   0.0000000
 NQMom=    0.0000000   0.0000000   0.0000000   0.0000000   0.0000000   0.0000000   0.0000000   0.0000000   0.0000000   0.0000000
 NMagM=    0.0000000   2.7928460   2.7928460   2.7928460   0.0000000   2.7928460   0.0000000   2.7928460   2.7928460   0.0000000

  Atom        11          12          13          14          15          16          17          18          19          20
 IAtWgt=           1           1          12           1           1          12           1          12           1           1
 AtmWgt=   1.0078250   1.0078250  12.0000000   1.0078250   1.0078250  12.0000000   1.0078250  12.0000000   1.0078250   1.0078250
 NucSpn=           1           1           0           1           1           0           1           0           1           1
 AtZEff=   0.0000000   0.0000000   0.0000000   0.0000000   0.0000000   0.0000000   0.0000000   0.0000000   0.0000000   0.0000000
 NQMom=    0.0000000   0.0000000   0.0000000   0.0000000   0.0000000   0.0000000   0.0000000   0.0000000   0.0000000   0.0000000
 NMagM=    2.7928460   2.7928460   0.0000000   2.7928460   2.7928460   0.0000000   2.7928460   0.0000000   2.7928460   2.7928460

  Atom        21          22          23          24          25          26          27          28          29          30
 IAtWgt=           1          12           1           1          12           1           1           1          16          16
 AtmWgt=   1.0078250  12.0000000   1.0078250   1.0078250  12.0000000   1.0078250   1.0078250   1.0078250  15.9949146  15.9949146
 NucSpn=           1           0           1           1           0           1           1           1           0           0
 AtZEff=   0.0000000   0.0000000   0.0000000   0.0000000   0.0000000   0.0000000   0.0000000   0.0000000   0.0000000   0.0000000
 NQMom=    0.0000000   0.0000000   0.0000000   0.0000000   0.0000000   0.0000000   0.0000000   0.0000000   0.0000000   0.0000000
 NMagM=    2.7928460   0.0000000   2.7928460   2.7928460   0.0000000   2.7928460   2.7928460   2.7928460   0.0000000   0.0000000
 Leave Link  101 at Sat Feb 15 18:11:31 2014, MaxMem= 4026531840 cpu:       0.6
 (Enter /usr/caen/gaussian-09revc/g09/l103.exe)

 GradGradGradGradGradGradGradGradGradGradGradGradGradGradGradGradGradGrad
 Berny optimization.
 Initialization pass.
 Trust Radius=3.00D-01 FncErr=1.00D-07 GrdErr=1.00D-07
 Number of steps in this run=      2 maximum allowed number of steps=      2.
 GradGradGradGradGradGradGradGradGradGradGradGradGradGradGradGradGradGrad

 Leave Link  103 at Sat Feb 15 18:11:32 2014, MaxMem= 4026531840 cpu:       0.2
 (Enter /usr/caen/gaussian-09revc/g09/l202.exe)
                          Input orientation:                          
 ---------------------------------------------------------------------
 Center     Atomic      Atomic             Coordinates (Angstroms)
 Number     Number       Type             X           Y           Z
 ---------------------------------------------------------------------
      1          6           0        3.594908   -0.539038    0.398132
      2          1           0        3.542768   -0.430536    1.486734
      3          1           0        3.917599   -1.560467    0.180440
      4          1           0        4.371108    0.140655    0.032634
      5          6           0        2.232575   -0.248188   -0.250512
      6          1           0        2.327437   -0.428015   -1.328948
      7          6           0        1.127169   -1.173298    0.300067
      8          1           0        1.578563   -2.122128    0.608870
      9          1           0        0.721088   -0.726055    1.213342
     10          6           0       -0.015980   -1.474118   -0.700013
     11          1           0        0.181576   -2.433194   -1.188852
     12          1           0       -0.015689   -0.726158   -1.497432
     13          6           0       -1.411509   -1.509496   -0.046215
     14          1           0       -1.340663   -1.996574    0.932455
     15          1           0       -2.082500   -2.138276   -0.650545
     16          6           0       -2.067257   -0.139693    0.096900
     17          1           0       -1.067157    0.754288    0.301624
     18          6           0       -2.671169    0.407693   -1.182468
     19          1           0       -3.574064   -0.163459   -1.444539
     20          1           0       -2.960732    1.455272   -1.071524
     21          1           0       -1.980130    0.337334   -2.025834
     22          6           0        1.918179    1.240003   -0.043576
     23          1           0        1.973996    1.505108    1.016411
     24          1           0        2.639526    1.855206   -0.591832
     25          6           0       -2.934405    0.044474    1.324598
     26          1           0       -3.286761    1.075210    1.417917
     27          1           0       -3.823148   -0.601522    1.263392
     28          1           0       -2.400397   -0.222009    2.240602
     29          8           0        0.642226    1.683537   -0.537756
     30          8           0       -0.311912    1.663374    0.503207
 ---------------------------------------------------------------------
                    Distance matrix (angstroms):
                    1          2          3          4          5
     1  C    0.000000
     2  H    1.095238   0.000000
     3  H    1.093086   1.767384   0.000000
     4  H    1.094558   1.768280   1.766729   0.000000
     5  C    1.536647   2.183548   2.178784   2.191961   0.000000
     6  H    2.145137   3.066774   2.467654   2.520691   1.097434
     7  C    2.549831   2.791951   2.819700   3.510147   1.543013
     8  H    2.572204   2.736828   2.443380   3.640129   2.162850
     9  H    2.993056   2.850255   3.461331   3.932926   2.157735
    10  C    3.888291   4.305301   4.031835   4.731892   2.600184
    11  H    4.213927   4.739938   4.073632   5.066449   3.140275
    12  H    4.082228   4.653521   4.356843   4.726146   2.614949
    13  C    5.118930   5.297070   5.334169   6.013973   3.861604
    14  H    5.173951   5.158255   5.329637   6.164556   4.150216
    15  H    5.990847   6.255236   6.084865   6.878177   4.727825
    16  C    5.684218   5.786934   6.151754   6.444786   4.315208
    17  H    4.839097   4.905069   5.497324   5.479382   3.492570
    18  C    6.531333   6.814711   7.010209   7.151325   5.034424
    19  H    7.411522   7.701493   7.792124   8.087044   5.928738
    20  H    7.008108   7.238540   7.614035   7.530157   5.526868
    21  H    6.142043   6.590156   6.576663   6.679386   4.608849
    22  C    2.484253   2.787802   3.448260   2.689096   1.535050
    23  H    2.681074   2.535541   3.724807   2.928429   2.178532
    24  H    2.761374   3.218835   3.727827   2.515555   2.169418
    25  C    6.620480   6.496591   7.129859   7.419497   5.409649
    26  H    7.141647   6.993888   7.770518   7.838071   5.915920
    27  H    7.468610   7.371285   7.874740   8.319340   6.252082
    28  H    6.280039   5.994415   6.778850   7.131615   5.260301
    29  O    3.812356   4.120802   4.665558   4.075585   2.518587
    30  O    4.486079   4.495591   5.327860   4.946796   3.270562
                    6          7          8          9         10
     6  H    0.000000
     7  C    2.156335   0.000000
     8  H    2.680666   1.095169   0.000000
     9  H    3.021990   1.094988   1.746330   0.000000
    10  C    2.642252   1.548368   2.162327   2.182612   0.000000
    11  H    2.940253   2.167571   2.297855   2.995986   1.094449
    12  H    2.368019   2.176479   2.987788   2.809117   1.093308
    13  C    4.098136   2.584149   3.121696   2.597736   1.541494
    14  H    4.585769   2.677292   2.939788   2.438018   2.166263
    15  H    4.778365   3.483794   3.871662   3.650828   2.171188
    16  C    4.629202   3.363625   4.181407   3.060250   2.573616
    17  H    3.947135   2.920729   3.920205   2.494086   2.659707
    18  C    5.070101   4.373193   5.260143   4.304962   3.289985
    19  H    5.908559   5.115175   5.882384   5.082241   3.864209
    20  H    5.619410   5.049909   6.018863   4.851247   4.170241
    21  H    4.430185   4.164989   5.065068   4.349671   2.982791
    22  C    2.145217   2.562774   3.441649   2.622643   3.396812
    23  H    3.059836   2.898987   3.671416   2.566447   3.972644
    24  H    2.419471   3.500649   4.287950   3.688084   4.260025
    25  C    5.911982   4.362226   5.057006   3.737475   3.862949
    26  H    6.428388   5.078204   5.877832   4.398779   4.656470
    27  H    6.676828   5.075486   5.649701   4.546218   4.371603
    28  H    5.927608   4.136949   4.701609   3.324604   3.987535
    29  O    2.815062   3.016392   4.083450   2.979714   3.229605
    30  O    3.833649   3.187307   4.232622   2.698287   3.373303
                   11         12         13         14         15
    11  H    0.000000
    12  H    1.745883   0.000000
    13  C    2.167200   2.160547   0.000000
    14  H    2.647223   3.045302   1.095472   0.000000
    15  H    2.345803   2.642537   1.100367   1.753936   0.000000
    16  C    3.459849   2.663600   1.525401   2.161966   2.133832
    17  H    3.733751   2.556151   2.316093   2.835488   3.210058
    18  C    4.026020   2.904547   2.559966   3.467513   2.666727
    19  H    4.395669   3.602979   2.905817   3.741456   2.599056
    20  H    5.000803   3.689622   3.498743   4.307644   3.723184
    21  H    3.612387   2.295485   2.766406   3.821978   2.833822
    22  C    4.221353   3.117584   4.318168   4.695542   5.271301
    23  H    4.856560   3.905996   4.656034   4.822426   5.701592
    24  H    4.978788   3.812311   5.294318   5.744699   6.184568
    25  C    4.708036   4.132388   2.571607   2.619097   3.064528
    26  H    5.579741   4.737520   3.512970   3.668627   4.006903
    27  H    5.040470   4.704724   2.890586   2.866779   3.009090
    28  H    4.828776   4.462499   2.804470   2.446092   3.483083
    29  O    4.193280   2.675904   3.828172   4.431319   4.695009
    30  O    4.459648   3.130522   3.402658   3.825938   4.349560
                   16         17         18         19         20
    16  C    0.000000
    17  H    1.356950   0.000000
    18  C    1.516945   2.212580   0.000000
    19  H    2.155706   3.189973   1.100052   0.000000
    20  H    2.169660   2.441831   1.092510   1.770764   0.000000
    21  H    2.177417   2.534646   1.092589   1.768989   1.766939
    22  C    4.219833   3.044226   4.801243   5.839275   4.990670
    23  H    4.458991   3.212983   5.255183   6.294550   5.358498
    24  H    5.158273   3.968600   5.536030   6.588689   5.634975
    25  C    1.514300   2.244310   2.546881   2.849653   2.780727
    26  H    2.169854   2.505143   2.754366   3.132171   2.539303
    27  H    2.158041   3.218494   2.885793   2.754421   3.228931
    28  H    2.170994   2.547611   3.491024   3.867969   3.754654
    29  O    3.326899   2.118974   3.608603   4.691562   3.649427
    30  O    2.548994   1.198945   3.159799   4.215764   3.088581
                   21         22         23         24         25
    21  H    0.000000
    22  C    4.465531   0.000000
    23  H    5.123872   1.094061   0.000000
    24  H    5.069667   1.095172   1.775372   0.000000
    25  C    3.495969   5.181579   5.130383   6.166049   0.000000
    26  H    3.756483   5.408745   5.293542   6.306216   1.093289
    27  H    3.885508   6.169458   6.172987   7.158458   1.100419
    28  H    4.323421   5.099514   4.859721   6.143153   1.093271
    29  O    3.302028   1.438399   2.054479   2.005393   4.352836
    30  O    3.307171   2.334849   2.348149   3.153870   3.189512
                   26         27         28         29         30
    26  H    0.000000
    27  H    1.767207   0.000000
    28  H    1.773479   1.767255   0.000000
    29  O    4.430763   5.329652   4.539596   0.000000
    30  O    3.167390   4.246930   3.306808   1.412229   0.000000
 Stoichiometry    C9H19O2(2)
 Framework group  C1[X(C9H19O2)]
 Deg. of freedom    84
 Full point group                 C1      NOp   1
 Largest Abelian subgroup         C1      NOp   1
 Largest concise Abelian subgroup C1      NOp   1
                         Standard orientation:                         
 ---------------------------------------------------------------------
 Center     Atomic      Atomic             Coordinates (Angstroms)
 Number     Number       Type             X           Y           Z
 ---------------------------------------------------------------------
      1          6           0        3.594908   -0.539038    0.398132
      2          1           0        3.542768   -0.430536    1.486734
      3          1           0        3.917599   -1.560467    0.180440
      4          1           0        4.371108    0.140655    0.032634
      5          6           0        2.232575   -0.248188   -0.250512
      6          1           0        2.327437   -0.428015   -1.328948
      7          6           0        1.127169   -1.173298    0.300067
      8          1           0        1.578563   -2.122128    0.608870
      9          1           0        0.721088   -0.726055    1.213342
     10          6           0       -0.015980   -1.474118   -0.700013
     11          1           0        0.181576   -2.433194   -1.188852
     12          1           0       -0.015689   -0.726158   -1.497432
     13          6           0       -1.411509   -1.509496   -0.046215
     14          1           0       -1.340663   -1.996574    0.932455
     15          1           0       -2.082500   -2.138276   -0.650545
     16          6           0       -2.067257   -0.139693    0.096900
     17          1           0       -1.067157    0.754288    0.301624
     18          6           0       -2.671169    0.407693   -1.182468
     19          1           0       -3.574064   -0.163459   -1.444539
     20          1           0       -2.960732    1.455272   -1.071524
     21          1           0       -1.980130    0.337334   -2.025834
     22          6           0        1.918179    1.240003   -0.043576
     23          1           0        1.973996    1.505108    1.016411
     24          1           0        2.639526    1.855206   -0.591832
     25          6           0       -2.934405    0.044474    1.324598
     26          1           0       -3.286761    1.075210    1.417917
     27          1           0       -3.823148   -0.601522    1.263392
     28          1           0       -2.400397   -0.222009    2.240602
     29          8           0        0.642226    1.683537   -0.537756
     30          8           0       -0.311912    1.663374    0.503207
 ---------------------------------------------------------------------
 Rotational constants (GHZ):      1.6726851      0.6626965      0.5644939
 Leave Link  202 at Sat Feb 15 18:11:32 2014, MaxMem= 4026531840 cpu:       0.6
 (Enter /usr/caen/gaussian-09revc/g09/l301.exe)
 Standard basis: 6-311++G(d,p) (5D, 7F)
 Ernie: Thresh=  0.10000D-02 Tol=  0.10000D-05 Strict=F.
 There are   375 symmetry adapted basis functions of A   symmetry.
 Integral buffers will be    131072 words long.
 Raffenetti 2 integral format.
 Two-electron integral symmetry is turned on.
   375 basis functions,   567 primitive gaussians,   386 cartesian basis functions
    45 alpha electrons       44 beta electrons
       nuclear repulsion energy       691.2997300454 Hartrees.
 IExCor=  402 DFT=T Ex+Corr=B3LYP ExCW=0 ScaHFX=  0.200000
 ScaDFX=  0.800000  0.720000  1.000000  0.810000 ScalE2=  1.000000  1.000000
 IRadAn=      0 IRanWt=     -1 IRanGd=            0 ICorTp=0
 NAtoms=   30 NActive=   30 NUniq=   30 SFac= 1.00D+00 NAtFMM=   60 NAOKFM=F Big=F
 Leave Link  301 at Sat Feb 15 18:11:32 2014, MaxMem= 4026531840 cpu:       1.2
 (Enter /usr/caen/gaussian-09revc/g09/l302.exe)
 NPDir=0 NMtPBC=     1 NCelOv=     1 NCel=       1 NClECP=     1 NCelD=      1
         NCelK=      1 NCelE2=     1 NClLst=     1 CellRange=     0.0.
 One-electron integrals computed using PRISM.
 NBasis=   375 RedAO= T  NBF=   375
 NBsUse=   375 1.00D-06 NBFU=   375
 Precomputing XC quadrature grid using
 IXCGrd= 2 IRadAn=           0 IRanWt=          -1 IRanGd=           0 AccXCQ= 0.00D+00.
 NRdTot=    1953 NPtTot=      248370 NUsed=      262444 NTot=      262476
 NSgBfM=   386   386   386   386   386 NAtAll=    30    30.
 Leave Link  302 at Sat Feb 15 18:11:34 2014, MaxMem= 4026531840 cpu:       8.9
 (Enter /usr/caen/gaussian-09revc/g09/l303.exe)
 DipDrv:  MaxL=1.
 Leave Link  303 at Sat Feb 15 18:11:35 2014, MaxMem= 4026531840 cpu:       1.8
 (Enter /usr/caen/gaussian-09revc/g09/l401.exe)
 Harris functional with IExCor=  402 diagonalized for initial guess.
 ExpMin= 3.60D-02 ExpMax= 8.59D+03 ExpMxC= 1.30D+03 IAcc=3 IRadAn=         5 AccDes= 0.00D+00
 HarFok:  IExCor=  402 AccDes= 0.00D+00 IRadAn=         5 IDoV= 1
 ScaDFX=  1.000000  1.000000  1.000000  1.000000
 FoFCou: FMM=F IPFlag=           0 FMFlag=      100000 FMFlg1=           0
         NFxFlg=           0 DoJE=T BraDBF=F KetDBF=T FulRan=T
         Omega=  0.000000  0.000000  1.000000  0.000000  0.000000 ICntrl=     500 IOpCl=  0
         NMat0=    1 NMatS0=    1 NMatT0=    0 NMatD0=    1 NMtDS0=    0 NMtDT0=    0
         I1Cent=           4 NGrid=           0.
 Petite list used in FoFCou.
 Harris En= -504.893052958120    
 Initial guess orbital symmetries:
 Alpha Orbitals:
       Occupied  (A) (A) (A) (A) (A) (A) (A) (A) (A) (A) (A) (A)
                 (A) (A) (A) (A) (A) (A) (A) (A) (A) (A) (A) (A)
                 (A) (A) (A) (A) (A) (A) (A) (A) (A) (A) (A) (A)
                 (A) (A) (A) (A) (A) (A) (A) (A) (A)
       Virtual   (A) (A) (A) (A) (A) (A) (A) (A) (A) (A) (A) (A)
                 (A) (A) (A) (A) (A) (A) (A) (A) (A) (A) (A) (A)
                 (A) (A) (A) (A) (A) (A) (A) (A) (A) (A) (A) (A)
                 (A) (A) (A) (A) (A) (A) (A) (A) (A) (A) (A) (A)
                 (A) (A) (A) (A) (A) (A) (A) (A) (A) (A) (A) (A)
                 (A) (A) (A) (A) (A) (A) (A) (A) (A) (A) (A) (A)
                 (A) (A) (A) (A) (A) (A) (A) (A) (A) (A) (A) (A)
                 (A) (A) (A) (A) (A) (A) (A) (A) (A) (A) (A) (A)
                 (A) (A) (A) (A) (A) (A) (A) (A) (A) (A) (A) (A)
                 (A) (A) (A) (A) (A) (A) (A) (A) (A) (A) (A) (A)
                 (A) (A) (A) (A) (A) (A) (A) (A) (A) (A) (A) (A)
                 (A) (A) (A) (A) (A) (A) (A) (A) (A) (A) (A) (A)
                 (A) (A) (A) (A) (A) (A) (A) (A) (A) (A) (A) (A)
                 (A) (A) (A) (A) (A) (A) (A) (A) (A) (A) (A) (A)
                 (A) (A) (A) (A) (A) (A) (A) (A) (A) (A) (A) (A)
                 (A) (A) (A) (A) (A) (A) (A) (A) (A) (A) (A) (A)
                 (A) (A) (A) (A) (A) (A) (A) (A) (A) (A) (A) (A)
                 (A) (A) (A) (A) (A) (A) (A) (A) (A) (A) (A) (A)
                 (A) (A) (A) (A) (A) (A) (A) (A) (A) (A) (A) (A)
                 (A) (A) (A) (A) (A) (A) (A) (A) (A) (A) (A) (A)
                 (A) (A) (A) (A) (A) (A) (A) (A) (A) (A) (A) (A)
                 (A) (A) (A) (A) (A) (A) (A) (A) (A) (A) (A) (A)
                 (A) (A) (A) (A) (A) (A) (A) (A) (A) (A) (A) (A)
                 (A) (A) (A) (A) (A) (A) (A) (A) (A) (A) (A) (A)
                 (A) (A) (A) (A) (A) (A) (A) (A) (A) (A) (A) (A)
                 (A) (A) (A) (A) (A) (A) (A) (A) (A) (A) (A) (A)
                 (A) (A) (A) (A) (A) (A) (A) (A) (A) (A) (A) (A)
                 (A) (A) (A) (A) (A) (A)
 Beta  Orbitals:
       Occupied  (A) (A) (A) (A) (A) (A) (A) (A) (A) (A) (A) (A)
                 (A) (A) (A) (A) (A) (A) (A) (A) (A) (A) (A) (A)
                 (A) (A) (A) (A) (A) (A) (A) (A) (A) (A) (A) (A)
                 (A) (A) (A) (A) (A) (A) (A) (A)
       Virtual   (A) (A) (A) (A) (A) (A) (A) (A) (A) (A) (A) (A)
                 (A) (A) (A) (A) (A) (A) (A) (A) (A) (A) (A) (A)
                 (A) (A) (A) (A) (A) (A) (A) (A) (A) (A) (A) (A)
                 (A) (A) (A) (A) (A) (A) (A) (A) (A) (A) (A) (A)
                 (A) (A) (A) (A) (A) (A) (A) (A) (A) (A) (A) (A)
                 (A) (A) (A) (A) (A) (A) (A) (A) (A) (A) (A) (A)
                 (A) (A) (A) (A) (A) (A) (A) (A) (A) (A) (A) (A)
                 (A) (A) (A) (A) (A) (A) (A) (A) (A) (A) (A) (A)
                 (A) (A) (A) (A) (A) (A) (A) (A) (A) (A) (A) (A)
                 (A) (A) (A) (A) (A) (A) (A) (A) (A) (A) (A) (A)
                 (A) (A) (A) (A) (A) (A) (A) (A) (A) (A) (A) (A)
                 (A) (A) (A) (A) (A) (A) (A) (A) (A) (A) (A) (A)
                 (A) (A) (A) (A) (A) (A) (A) (A) (A) (A) (A) (A)
                 (A) (A) (A) (A) (A) (A) (A) (A) (A) (A) (A) (A)
                 (A) (A) (A) (A) (A) (A) (A) (A) (A) (A) (A) (A)
                 (A) (A) (A) (A) (A) (A) (A) (A) (A) (A) (A) (A)
                 (A) (A) (A) (A) (A) (A) (A) (A) (A) (A) (A) (A)
                 (A) (A) (A) (A) (A) (A) (A) (A) (A) (A) (A) (A)
                 (A) (A) (A) (A) (A) (A) (A) (A) (A) (A) (A) (A)
                 (A) (A) (A) (A) (A) (A) (A) (A) (A) (A) (A) (A)
                 (A) (A) (A) (A) (A) (A) (A) (A) (A) (A) (A) (A)
                 (A) (A) (A) (A) (A) (A) (A) (A) (A) (A) (A) (A)
                 (A) (A) (A) (A) (A) (A) (A) (A) (A) (A) (A) (A)
                 (A) (A) (A) (A) (A) (A) (A) (A) (A) (A) (A) (A)
                 (A) (A) (A) (A) (A) (A) (A) (A) (A) (A) (A) (A)
                 (A) (A) (A) (A) (A) (A) (A) (A) (A) (A) (A) (A)
                 (A) (A) (A) (A) (A) (A) (A) (A) (A) (A) (A) (A)
                 (A) (A) (A) (A) (A) (A) (A)
 The electronic state of the initial guess is 2-A.
 Initial guess <Sx>= 0.0000 <Sy>= 0.0000 <Sz>= 0.5000 <S**2>= 0.7500 S= 0.5000
 Leave Link  401 at Sat Feb 15 18:11:40 2014, MaxMem= 4026531840 cpu:      35.3
 (Enter /usr/caen/gaussian-09revc/g09/l502.exe)
 UHF open shell SCF:
 Requested convergence on RMS density matrix=1.00D-08 within 128 cycles.
 Requested convergence on MAX density matrix=1.00D-06.
 Requested convergence on             energy=1.00D-06.
 No special actions if energy rises.
 Using DIIS extrapolation, IDIIS=  1040.
 Integral symmetry usage will be decided dynamically.
       262161 words used for storage of precomputed grid.
 IEnd=      733295 IEndB=      733295 NGot=  4026531840 MDV=  4025964568
 LenX=  4025964568 LenY=  4025815131
 Fock matrices will be formed incrementally for  20 cycles.

 Cycle   1  Pass 1  IDiag  1:
 FoFCou: FMM=F IPFlag=           0 FMFlag=      100000 FMFlg1=           0
         NFxFlg=           0 DoJE=F BraDBF=F KetDBF=F FulRan=T
         Omega=  0.000000  0.000000  1.000000  0.000000  0.000000 ICntrl=       0 IOpCl=  1
         NMat0=    1 NMatS0=    1 NMatT0=    0 NMatD0=    1 NMtDS0=    0 NMtDT0=    0
         I1Cent=           0 NGrid=           0.
 Symmetry not used in FoFCou.
 E= -504.462697642424    
 DIIS: error= 2.99D-02 at cycle   1 NSaved=   1.
 NSaved= 1 IEnMin= 1 EnMin= -504.462697642424     IErMin= 1 ErrMin= 2.99D-02
 ErrMax= 2.99D-02 EMaxC= 1.00D-01 BMatC= 1.49D+00 BMatP= 1.49D+00
 IDIUse=3 WtCom= 7.01D-01 WtEn= 2.99D-01
 Coeff-Com:  0.100D+01
 Coeff-En:   0.100D+01
 Coeff:      0.100D+01
 Gap=     0.182 Goal=   None    Shift=    0.000
 Gap=     0.174 Goal=   None    Shift=    0.000
 GapD=    0.174 DampG=1.000 DampE=0.500 DampFc=0.5000 IDamp=-1.
 Damping current iteration by 5.00D-01
 RMSDP=1.06D-02 MaxDP=1.29D+00              OVMax= 2.96D-01

 Cycle   2  Pass 1  IDiag  1:
 RMSU=  3.03D-03    CP:  8.30D-01
 E= -504.605209754489     Delta-E=       -0.142512112065 Rises=F Damp=T
 DIIS: error= 7.36D-03 at cycle   2 NSaved=   2.
 NSaved= 2 IEnMin= 2 EnMin= -504.605209754489     IErMin= 2 ErrMin= 7.36D-03
 ErrMax= 7.36D-03 EMaxC= 1.00D-01 BMatC= 1.33D-01 BMatP= 1.49D+00
 IDIUse=3 WtCom= 9.26D-01 WtEn= 7.36D-02
 Coeff-Com:  0.112D+00 0.888D+00
 Coeff-En:   0.224D+00 0.776D+00
 Coeff:      0.120D+00 0.880D+00
 Gap=     0.231 Goal=   None    Shift=    0.000
 Gap=     0.218 Goal=   None    Shift=    0.000
 RMSDP=4.48D-03 MaxDP=3.16D-01 DE=-1.43D-01 OVMax= 2.87D-01

 Cycle   3  Pass 1  IDiag  1:
 RMSU=  2.66D-03    CP:  9.10D-01  5.90D-01
 E= -504.806595659197     Delta-E=       -0.201385904709 Rises=F Damp=F
 DIIS: error= 8.67D-03 at cycle   3 NSaved=   3.
 NSaved= 3 IEnMin= 3 EnMin= -504.806595659197     IErMin= 2 ErrMin= 7.36D-03
 ErrMax= 8.67D-03 EMaxC= 1.00D-01 BMatC= 1.39D-01 BMatP= 1.33D-01
 IDIUse=3 WtCom= 9.13D-01 WtEn= 8.67D-02
 Coeff-Com:  0.932D-02 0.505D+00 0.486D+00
 Coeff-En:   0.000D+00 0.000D+00 0.100D+01
 Coeff:      0.851D-02 0.461D+00 0.530D+00
 Gap=     0.226 Goal=   None    Shift=    0.000
 Gap=     0.142 Goal=   None    Shift=    0.000
 RMSDP=2.62D-03 MaxDP=1.58D-01 DE=-2.01D-01 OVMax= 1.77D-01

 Cycle   4  Pass 1  IDiag  1:
 RMSU=  1.09D-03    CP:  8.50D-01  6.71D-01  5.37D-01
 E= -504.827437649827     Delta-E=       -0.020841990629 Rises=F Damp=F
 DIIS: error= 6.02D-03 at cycle   4 NSaved=   4.
 NSaved= 4 IEnMin= 4 EnMin= -504.827437649827     IErMin= 4 ErrMin= 6.02D-03
 ErrMax= 6.02D-03 EMaxC= 1.00D-01 BMatC= 5.01D-02 BMatP= 1.33D-01
 IDIUse=3 WtCom= 9.40D-01 WtEn= 6.02D-02
 Coeff-Com: -0.145D-01 0.120D+00 0.381D+00 0.513D+00
 Coeff-En:   0.000D+00 0.000D+00 0.287D+00 0.713D+00
 Coeff:     -0.136D-01 0.113D+00 0.376D+00 0.525D+00
 Gap=     0.209 Goal=   None    Shift=    0.000
 Gap=     0.138 Goal=   None    Shift=    0.000
 RMSDP=9.10D-04 MaxDP=1.28D-01 DE=-2.08D-02 OVMax= 4.23D-02

 Cycle   5  Pass 1  IDiag  1:
 RMSU=  4.50D-04    CP:  8.30D-01  6.77D-01  6.14D-01  7.03D-01
 E= -504.837296521465     Delta-E=       -0.009858871639 Rises=F Damp=F
 DIIS: error= 1.17D-03 at cycle   5 NSaved=   5.
 NSaved= 5 IEnMin= 5 EnMin= -504.837296521465     IErMin= 5 ErrMin= 1.17D-03
 ErrMax= 1.17D-03 EMaxC= 1.00D-01 BMatC= 1.76D-03 BMatP= 5.01D-02
 IDIUse=3 WtCom= 9.88D-01 WtEn= 1.17D-02
 Coeff-Com: -0.709D-02 0.242D-01 0.167D+00 0.252D+00 0.564D+00
 Coeff-En:   0.000D+00 0.000D+00 0.000D+00 0.000D+00 0.100D+01
 Coeff:     -0.700D-02 0.239D-01 0.165D+00 0.249D+00 0.569D+00
 Gap=     0.208 Goal=   None    Shift=    0.000
 Gap=     0.139 Goal=   None    Shift=    0.000
 RMSDP=3.42D-04 MaxDP=2.79D-02 DE=-9.86D-03 OVMax= 5.70D-03

 Cycle   6  Pass 1  IDiag  1:
 RMSU=  1.11D-04    CP:  8.40D-01  6.74D-01  6.58D-01  6.83D-01  7.64D-01
 E= -504.837569823983     Delta-E=       -0.000273302518 Rises=F Damp=F
 DIIS: error= 1.29D-03 at cycle   6 NSaved=   6.
 NSaved= 6 IEnMin= 6 EnMin= -504.837569823983     IErMin= 5 ErrMin= 1.17D-03
 ErrMax= 1.29D-03 EMaxC= 1.00D-01 BMatC= 7.75D-04 BMatP= 1.76D-03
 IDIUse=3 WtCom= 9.88D-01 WtEn= 1.17D-02
 Coeff-Com: -0.883D-03-0.971D-02 0.356D-01 0.494D-01 0.393D+00 0.533D+00
 Coeff-En:   0.000D+00 0.000D+00 0.000D+00 0.000D+00 0.229D+00 0.771D+00
 Coeff:     -0.873D-03-0.959D-02 0.352D-01 0.489D-01 0.391D+00 0.535D+00
 Gap=     0.210 Goal=   None    Shift=    0.000
 Gap=     0.141 Goal=   None    Shift=    0.000
 RMSDP=1.05D-04 MaxDP=7.44D-03 DE=-2.73D-04 OVMax= 8.29D-03

 Cycle   7  Pass 1  IDiag  1:
 RMSU=  6.70D-05    CP:  8.41D-01  6.72D-01  6.63D-01  6.76D-01  7.97D-01
                    CP:  7.44D-01
 E= -504.837715361414     Delta-E=       -0.000145537431 Rises=F Damp=F
 DIIS: error= 2.57D-04 at cycle   7 NSaved=   7.
 NSaved= 7 IEnMin= 7 EnMin= -504.837715361414     IErMin= 7 ErrMin= 2.57D-04
 ErrMax= 2.57D-04 EMaxC= 1.00D-01 BMatC= 9.49D-05 BMatP= 7.75D-04
 IDIUse=3 WtCom= 9.97D-01 WtEn= 2.57D-03
 Coeff-Com:  0.128D-02-0.894D-02-0.107D-01-0.296D-01 0.806D-01 0.290D+00
 Coeff-Com:  0.678D+00
 Coeff-En:   0.000D+00 0.000D+00 0.000D+00 0.000D+00 0.000D+00 0.000D+00
 Coeff-En:   0.100D+01
 Coeff:      0.128D-02-0.892D-02-0.106D-01-0.295D-01 0.804D-01 0.289D+00
 Coeff:      0.678D+00
 Gap=     0.209 Goal=   None    Shift=    0.000
 Gap=     0.141 Goal=   None    Shift=    0.000
 RMSDP=5.52D-05 MaxDP=4.02D-03 DE=-1.46D-04 OVMax= 3.14D-03

 Cycle   8  Pass 1  IDiag  1:
 RMSU=  2.52D-05    CP:  8.40D-01  6.72D-01  6.66D-01  6.67D-01  8.31D-01
                    CP:  8.89D-01  7.99D-01
 E= -504.837742314674     Delta-E=       -0.000026953260 Rises=F Damp=F
 DIIS: error= 1.36D-04 at cycle   8 NSaved=   8.
 NSaved= 8 IEnMin= 8 EnMin= -504.837742314674     IErMin= 8 ErrMin= 1.36D-04
 ErrMax= 1.36D-04 EMaxC= 1.00D-01 BMatC= 1.72D-05 BMatP= 9.49D-05
 IDIUse=3 WtCom= 9.99D-01 WtEn= 1.36D-03
 Coeff-Com:  0.979D-03-0.121D-02-0.128D-01-0.302D-01-0.745D-01-0.307D-02
 Coeff-Com:  0.334D+00 0.786D+00
 Coeff-En:   0.000D+00 0.000D+00 0.000D+00 0.000D+00 0.000D+00 0.000D+00
 Coeff-En:   0.000D+00 0.100D+01
 Coeff:      0.977D-03-0.121D-02-0.127D-01-0.302D-01-0.744D-01-0.306D-02
 Coeff:      0.334D+00 0.787D+00
 Gap=     0.210 Goal=   None    Shift=    0.000
 Gap=     0.141 Goal=   None    Shift=    0.000
 RMSDP=2.45D-05 MaxDP=1.63D-03 DE=-2.70D-05 OVMax= 3.14D-03

 Cycle   9  Pass 1  IDiag  1:
 RMSU=  7.96D-06    CP:  8.41D-01  6.71D-01  6.68D-01  6.63D-01  8.36D-01
                    CP:  9.49D-01  9.39D-01  1.10D+00
 E= -504.837749163693     Delta-E=       -0.000006849019 Rises=F Damp=F
 DIIS: error= 2.42D-05 at cycle   9 NSaved=   9.
 NSaved= 9 IEnMin= 9 EnMin= -504.837749163693     IErMin= 9 ErrMin= 2.42D-05
 ErrMax= 2.42D-05 EMaxC= 1.00D-01 BMatC= 1.26D-06 BMatP= 1.72D-05
 IDIUse=1 WtCom= 1.00D+00 WtEn= 0.00D+00
 Coeff-Com:  0.665D-04 0.625D-03-0.161D-02-0.515D-02-0.291D-01-0.322D-01
 Coeff-Com:  0.481D-02 0.222D+00 0.841D+00
 Coeff:      0.665D-04 0.625D-03-0.161D-02-0.515D-02-0.291D-01-0.322D-01
 Coeff:      0.481D-02 0.222D+00 0.841D+00
 Gap=     0.210 Goal=   None    Shift=    0.000
 Gap=     0.141 Goal=   None    Shift=    0.000
 RMSDP=1.08D-05 MaxDP=5.23D-04 DE=-6.85D-06 OVMax= 1.03D-03

 Cycle  10  Pass 1  IDiag  1:
 RMSU=  3.98D-06    CP:  8.41D-01  6.72D-01  6.70D-01  6.61D-01  8.34D-01
                    CP:  9.67D-01  9.75D-01  1.15D+00  1.05D+00
 E= -504.837749840314     Delta-E=       -0.000000676621 Rises=F Damp=F
 DIIS: error= 1.30D-05 at cycle  10 NSaved=  10.
 NSaved=10 IEnMin=10 EnMin= -504.837749840314     IErMin=10 ErrMin= 1.30D-05
 ErrMax= 1.30D-05 EMaxC= 1.00D-01 BMatC= 2.12D-07 BMatP= 1.26D-06
 IDIUse=1 WtCom= 1.00D+00 WtEn= 0.00D+00
 Coeff-Com: -0.129D-03 0.360D-03 0.155D-02 0.277D-02 0.307D-02-0.680D-02
 Coeff-Com: -0.526D-01-0.534D-01 0.239D+00 0.866D+00
 Coeff:     -0.129D-03 0.360D-03 0.155D-02 0.277D-02 0.307D-02-0.680D-02
 Coeff:     -0.526D-01-0.534D-01 0.239D+00 0.866D+00
 Gap=     0.210 Goal=   None    Shift=    0.000
 Gap=     0.141 Goal=   None    Shift=    0.000
 RMSDP=4.66D-06 MaxDP=6.35D-04 DE=-6.77D-07 OVMax= 4.09D-04

 Cycle  11  Pass 1  IDiag  1:
 RMSU=  1.67D-06    CP:  8.41D-01  6.72D-01  6.70D-01  6.60D-01  8.36D-01
                    CP:  9.80D-01  9.74D-01  1.19D+00  1.17D+00  1.07D+00
 E= -504.837749980218     Delta-E=       -0.000000139904 Rises=F Damp=F
 DIIS: error= 6.75D-06 at cycle  11 NSaved=  11.
 NSaved=11 IEnMin=11 EnMin= -504.837749980218     IErMin=11 ErrMin= 6.75D-06
 ErrMax= 6.75D-06 EMaxC= 1.00D-01 BMatC= 5.44D-08 BMatP= 2.12D-07
 IDIUse=1 WtCom= 1.00D+00 WtEn= 0.00D+00
 Coeff-Com: -0.559D-04 0.239D-04 0.983D-03 0.209D-02 0.696D-02 0.381D-02
 Coeff-Com: -0.212D-01-0.629D-01-0.664D-01 0.357D+00 0.780D+00
 Coeff:     -0.559D-04 0.239D-04 0.983D-03 0.209D-02 0.696D-02 0.381D-02
 Coeff:     -0.212D-01-0.629D-01-0.664D-01 0.357D+00 0.780D+00
 Gap=     0.210 Goal=   None    Shift=    0.000
 Gap=     0.141 Goal=   None    Shift=    0.000
 RMSDP=2.07D-06 MaxDP=3.32D-04 DE=-1.40D-07 OVMax= 2.01D-04

 Cycle  12  Pass 1  IDiag  1:
 RMSU=  8.12D-07    CP:  8.41D-01  6.72D-01  6.70D-01  6.61D-01  8.35D-01
                    CP:  9.78D-01  9.74D-01  1.22D+00  1.23D+00  1.23D+00
                    CP:  8.96D-01
 E= -504.837750011979     Delta-E=       -0.000000031761 Rises=F Damp=F
 DIIS: error= 2.98D-06 at cycle  12 NSaved=  12.
 NSaved=12 IEnMin=12 EnMin= -504.837750011979     IErMin=12 ErrMin= 2.98D-06
 ErrMax= 2.98D-06 EMaxC= 1.00D-01 BMatC= 1.07D-08 BMatP= 5.44D-08
 IDIUse=1 WtCom= 1.00D+00 WtEn= 0.00D+00
 Coeff-Com:  0.139D-04-0.737D-04 0.305D-04 0.180D-03 0.197D-02 0.289D-02
 Coeff-Com:  0.377D-02-0.128D-01-0.841D-01-0.659D-01 0.323D+00 0.831D+00
 Coeff:      0.139D-04-0.737D-04 0.305D-04 0.180D-03 0.197D-02 0.289D-02
 Coeff:      0.377D-02-0.128D-01-0.841D-01-0.659D-01 0.323D+00 0.831D+00
 Gap=     0.210 Goal=   None    Shift=    0.000
 Gap=     0.141 Goal=   None    Shift=    0.000
 RMSDP=1.14D-06 MaxDP=1.67D-04 DE=-3.18D-08 OVMax= 1.06D-04

 Cycle  13  Pass 1  IDiag  1:
 RMSU=  3.31D-07    CP:  8.41D-01  6.72D-01  6.70D-01  6.60D-01  8.35D-01
                    CP:  9.80D-01  9.76D-01  1.22D+00  1.26D+00  1.31D+00
                    CP:  1.07D+00  9.70D-01
 E= -504.837750018804     Delta-E=       -0.000000006825 Rises=F Damp=F
 DIIS: error= 7.58D-07 at cycle  13 NSaved=  13.
 NSaved=13 IEnMin=13 EnMin= -504.837750018804     IErMin=13 ErrMin= 7.58D-07
 ErrMax= 7.58D-07 EMaxC= 1.00D-01 BMatC= 1.25D-09 BMatP= 1.07D-08
 IDIUse=1 WtCom= 1.00D+00 WtEn= 0.00D+00
 Coeff-Com:  0.124D-04-0.338D-04-0.117D-03-0.198D-03-0.132D-03 0.685D-03
 Coeff-Com:  0.418D-02 0.322D-02-0.234D-01-0.728D-01 0.223D-01 0.314D+00
 Coeff-Com:  0.752D+00
 Coeff:      0.124D-04-0.338D-04-0.117D-03-0.198D-03-0.132D-03 0.685D-03
 Coeff:      0.418D-02 0.322D-02-0.234D-01-0.728D-01 0.223D-01 0.314D+00
 Coeff:      0.752D+00
 Gap=     0.210 Goal=   None    Shift=    0.000
 Gap=     0.141 Goal=   None    Shift=    0.000
 RMSDP=3.19D-07 MaxDP=3.44D-05 DE=-6.82D-09 OVMax= 2.81D-05

 Cycle  14  Pass 1  IDiag  1:
 RMSU=  9.57D-08    CP:  8.41D-01  6.72D-01  6.70D-01  6.60D-01  8.35D-01
                    CP:  9.81D-01  9.77D-01  1.22D+00  1.26D+00  1.32D+00
                    CP:  1.11D+00  1.07D+00  8.94D-01
 E= -504.837750019465     Delta-E=       -0.000000000661 Rises=F Damp=F
 DIIS: error= 3.35D-07 at cycle  14 NSaved=  14.
 NSaved=14 IEnMin=14 EnMin= -504.837750019465     IErMin=14 ErrMin= 3.35D-07
 ErrMax= 3.35D-07 EMaxC= 1.00D-01 BMatC= 1.79D-10 BMatP= 1.25D-09
 IDIUse=1 WtCom= 1.00D+00 WtEn= 0.00D+00
 Coeff-Com:  0.234D-05-0.204D-05-0.494D-04-0.104D-03-0.306D-03-0.155D-03
 Coeff-Com:  0.991D-03 0.268D-02 0.246D-02-0.183D-01-0.336D-01 0.536D-02
 Coeff-Com:  0.267D+00 0.774D+00
 Coeff:      0.234D-05-0.204D-05-0.494D-04-0.104D-03-0.306D-03-0.155D-03
 Coeff:      0.991D-03 0.268D-02 0.246D-02-0.183D-01-0.336D-01 0.536D-02
 Coeff:      0.267D+00 0.774D+00
 Gap=     0.210 Goal=   None    Shift=    0.000
 Gap=     0.141 Goal=   None    Shift=    0.000
 RMSDP=1.02D-07 MaxDP=6.66D-06 DE=-6.61D-10 OVMax= 9.60D-06

 Cycle  15  Pass 1  IDiag  1:
 RMSU=  3.36D-08    CP:  8.41D-01  6.72D-01  6.70D-01  6.60D-01  8.35D-01
                    CP:  9.81D-01  9.77D-01  1.22D+00  1.27D+00  1.33D+00
                    CP:  1.12D+00  1.10D+00  9.83D-01  9.69D-01
 E= -504.837750019547     Delta-E=       -0.000000000081 Rises=F Damp=F
 DIIS: error= 1.05D-07 at cycle  15 NSaved=  15.
 NSaved=15 IEnMin=15 EnMin= -504.837750019547     IErMin=15 ErrMin= 1.05D-07
 ErrMax= 1.05D-07 EMaxC= 1.00D-01 BMatC= 4.02D-11 BMatP= 1.79D-10
 IDIUse=1 WtCom= 1.00D+00 WtEn= 0.00D+00
 Coeff-Com: -0.191D-05 0.573D-05 0.400D-05-0.254D-05-0.875D-04-0.213D-03
 Coeff-Com: -0.441D-03 0.410D-03 0.593D-02 0.721D-02-0.192D-01-0.639D-01
 Coeff-Com: -0.409D-01 0.335D+00 0.776D+00
 Coeff:     -0.191D-05 0.573D-05 0.400D-05-0.254D-05-0.875D-04-0.213D-03
 Coeff:     -0.441D-03 0.410D-03 0.593D-02 0.721D-02-0.192D-01-0.639D-01
 Coeff:     -0.409D-01 0.335D+00 0.776D+00
 Gap=     0.210 Goal=   None    Shift=    0.000
 Gap=     0.141 Goal=   None    Shift=    0.000
 RMSDP=4.53D-08 MaxDP=4.19D-06 DE=-8.14D-11 OVMax= 3.78D-06

 Cycle  16  Pass 1  IDiag  1:
 RMSU=  1.58D-08    CP:  8.41D-01  6.72D-01  6.70D-01  6.60D-01  8.35D-01
                    CP:  9.81D-01  9.77D-01  1.22D+00  1.27D+00  1.33D+00
                    CP:  1.12D+00  1.11D+00  1.02D+00  1.07D+00  1.03D+00
 E= -504.837750019569     Delta-E=       -0.000000000023 Rises=F Damp=F
 DIIS: error= 4.35D-08 at cycle  16 NSaved=  16.
 NSaved=16 IEnMin=16 EnMin= -504.837750019569     IErMin=16 ErrMin= 4.35D-08
 ErrMax= 4.35D-08 EMaxC= 1.00D-01 BMatC= 3.37D-12 BMatP= 4.02D-11
 IDIUse=1 WtCom= 1.00D+00 WtEn= 0.00D+00
 Coeff-Com: -0.760D-06 0.197D-05 0.728D-05 0.121D-04 0.154D-04-0.464D-04
 Coeff-Com: -0.252D-03-0.221D-03 0.141D-02 0.440D-02-0.121D-02-0.184D-01
 Coeff-Com: -0.466D-01-0.103D-01 0.214D+00 0.858D+00
 Coeff:     -0.760D-06 0.197D-05 0.728D-05 0.121D-04 0.154D-04-0.464D-04
 Coeff:     -0.252D-03-0.221D-03 0.141D-02 0.440D-02-0.121D-02-0.184D-01
 Coeff:     -0.466D-01-0.103D-01 0.214D+00 0.858D+00
 Gap=     0.210 Goal=   None    Shift=    0.000
 Gap=     0.141 Goal=   None    Shift=    0.000
 RMSDP=1.65D-08 MaxDP=2.05D-06 DE=-2.25D-11 OVMax= 1.14D-06

 Cycle  17  Pass 1  IDiag  1:
 RMSU=  6.35D-09    CP:  8.41D-01  6.72D-01  6.70D-01  6.60D-01  8.35D-01
                    CP:  9.81D-01  9.77D-01  1.22D+00  1.27D+00  1.33D+00
                    CP:  1.13D+00  1.11D+00  1.02D+00  1.12D+00  1.11D+00
                    CP:  1.02D+00
 E= -504.837750019571     Delta-E=       -0.000000000002 Rises=F Damp=F
 DIIS: error= 1.63D-08 at cycle  17 NSaved=  17.
 NSaved=17 IEnMin=17 EnMin= -504.837750019571     IErMin=17 ErrMin= 1.63D-08
 ErrMax= 1.63D-08 EMaxC= 1.00D-01 BMatC= 4.52D-13 BMatP= 3.37D-12
 IDIUse=1 WtCom= 1.00D+00 WtEn= 0.00D+00
 Coeff-Com:  0.875D-07-0.271D-06 0.108D-05 0.391D-05 0.154D-04 0.119D-04
 Coeff-Com: -0.106D-05-0.112D-03-0.394D-03 0.123D-03 0.214D-02 0.400D-02
 Coeff-Com: -0.594D-02-0.456D-01-0.526D-01 0.213D+00 0.885D+00
 Coeff:      0.875D-07-0.271D-06 0.108D-05 0.391D-05 0.154D-04 0.119D-04
 Coeff:     -0.106D-05-0.112D-03-0.394D-03 0.123D-03 0.214D-02 0.400D-02
 Coeff:     -0.594D-02-0.456D-01-0.526D-01 0.213D+00 0.885D+00
 Gap=     0.210 Goal=   None    Shift=    0.000
 Gap=     0.141 Goal=   None    Shift=    0.000
 RMSDP=4.97D-09 MaxDP=4.26D-07 DE=-1.59D-12 OVMax= 2.89D-07

 SCF Done:  E(UB3LYP) =  -504.837750020     A.U. after   17 cycles
             Convg  =    0.4971D-08             -V/T =  2.0045
 <Sx>= 0.0000 <Sy>= 0.0000 <Sz>= 0.5000 <S**2>= 0.7568 S= 0.5034
 <L.S>= 0.000000000000E+00
 KE= 5.025791498180D+02 PE=-2.558665021639D+03 EE= 8.599483917555D+02
 Annihilation of the first spin contaminant:
 S**2 before annihilation     0.7568,   after     0.7500
 Leave Link  502 at Sat Feb 15 18:16:25 2014, MaxMem= 4026531840 cpu:    2272.0
 (Enter /usr/caen/gaussian-09revc/g09/l801.exe)
 Range of M.O.s used for correlation:     1   375
 NBasis=   375 NAE=    45 NBE=    44 NFC=     0 NFV=     0
 NROrb=    375 NOA=    45 NOB=    44 NVA=   330 NVB=   331

 **** Warning!!: The largest alpha MO coefficient is  0.84711001D+02


 **** Warning!!: The largest beta MO coefficient is  0.85058055D+02

 Leave Link  801 at Sat Feb 15 18:16:25 2014, MaxMem= 4026531840 cpu:       0.3
 (Enter /usr/caen/gaussian-09revc/g09/l1101.exe)
 Using compressed storage, NAtomX=    30.
 Will process  31 centers per pass.
 Leave Link 1101 at Sat Feb 15 18:16:26 2014, MaxMem= 4026531840 cpu:       4.8
 (Enter /usr/caen/gaussian-09revc/g09/l1102.exe)
 Symmetrizing basis deriv contribution to polar:
 IMax=3 JMax=2 DiffMx= 0.00D+00
 Leave Link 1102 at Sat Feb 15 18:16:27 2014, MaxMem= 4026531840 cpu:       1.4
 (Enter /usr/caen/gaussian-09revc/g09/l1110.exe)
 Forming Gx(P) for the SCF density, NAtomX=    30.
 Integral derivatives from FoFDir/FoFCou, PRISM(SPDF).
 Do as many integral derivatives as possible in FoFDir.
 G2DrvN: MDV=    4026531496.
 G2DrvN: will do    31 centers at a time, making    1 passes doing MaxLOS=2.
 Calling FoFCou, ICntrl=  3107 FMM=F I1Cent=   0 AccDes= 0.00D+00.
 FoFCou: FMM=F IPFlag=           0 FMFlag=      100000 FMFlg1=           0
         NFxFlg=           0 DoJE=F BraDBF=F KetDBF=F FulRan=T
         Omega=  0.000000  0.000000  1.000000  0.000000  0.000000 ICntrl=    3107 IOpCl=  1
         NMat0=    1 NMatS0=    1 NMatT0=    0 NMatD0=    1 NMtDS0=    0 NMtDT0=    0
         I1Cent=           0 NGrid=           0.
 Symmetry not used in FoFCou.
 FoFDir/FoFCou used for L=0 through L=2.
 End of G2Drv Frequency-dependent properties file   721 does not exist.
 End of G2Drv Frequency-dependent properties file   722 does not exist.
 Leave Link 1110 at Sat Feb 15 18:21:07 2014, MaxMem= 4026531840 cpu:    2238.5
 (Enter /usr/caen/gaussian-09revc/g09/l1002.exe)
 Minotr:  UHF open shell wavefunction.
          IDoAtm=111111111111111111111111111111
          Direct CPHF calculation.
          Differentiating once with respect to electric field.
                with respect to dipole field.
          Differentiating once with respect to nuclear coordinates.
          Requested convergence is 1.0D-08 RMS, and 1.0D-07 maximum.
          Secondary convergence is 1.0D-12 RMS, and 1.0D-12 maximum.
          NewPWx=T KeepS1=F KeepF1=F KeepIn=T MapXYZ=F SortEE=F KeepMc=T.
          MDV=    4026531536 using IRadAn=       2.
 Generate precomputed XC quadrature information.
          Solving linear equations simultaneously, MaxMat=       0.
 Integrals replicated using symmetry in FoFDir.
 MinBra= 0 MaxBra= 2 Meth= 1.
 IRaf=       0 NMat=  93 IRICut=     232 DoRegI=T DoRafI=T ISym2E= 2 JSym2E=2.
          There are    93 degrees of freedom in the 1st order CPHF.  IDoFFX=5.
     90 vectors produced by pass  0 Test12= 3.16D-14 1.08D-09 XBig12= 2.79D+02 8.67D+00.
 AX will form    90 AO Fock derivatives at one time.
     90 vectors produced by pass  1 Test12= 3.16D-14 1.08D-09 XBig12= 3.09D+01 9.29D-01.
     90 vectors produced by pass  2 Test12= 3.16D-14 1.08D-09 XBig12= 3.68D-01 8.17D-02.
     90 vectors produced by pass  3 Test12= 3.16D-14 1.08D-09 XBig12= 2.05D-03 3.07D-03.
     90 vectors produced by pass  4 Test12= 3.16D-14 1.08D-09 XBig12= 1.33D-05 3.12D-04.
     90 vectors produced by pass  5 Test12= 3.16D-14 1.08D-09 XBig12= 8.57D-08 2.15D-05.
     46 vectors produced by pass  6 Test12= 3.16D-14 1.08D-09 XBig12= 2.58D-10 9.69D-07.
      7 vectors produced by pass  7 Test12= 3.16D-14 1.08D-09 XBig12= 3.40D-12 1.26D-07.
      5 vectors produced by pass  8 Test12= 3.16D-14 1.08D-09 XBig12= 1.38D-13 3.13D-08.
      1 vectors produced by pass  9 Test12= 3.16D-14 1.08D-09 XBig12= 3.11D-16 1.24D-09.
 Inverted reduced A of dimension   599 with in-core refinement.
 FullF1:  Do perturbations    1 to     3.
 Isotropic polarizability for W=    0.000000      132.70 Bohr**3.
 End of Minotr Frequency-dependent properties file   721 does not exist.
 End of Minotr Frequency-dependent properties file   722 does not exist.
 Leave Link 1002 at Sat Feb 15 18:49:37 2014, MaxMem= 4026531840 cpu:   13671.8
 (Enter /usr/caen/gaussian-09revc/g09/l601.exe)
 Copying SCF densities to generalized density rwf, IOpCl= 1 IROHF=0.

 **********************************************************************

            Population analysis using the SCF density.

 **********************************************************************

 Orbital symmetries:
 Alpha Orbitals:
       Occupied  (A) (A) (A) (A) (A) (A) (A) (A) (A) (A) (A) (A)
                 (A) (A) (A) (A) (A) (A) (A) (A) (A) (A) (A) (A)
                 (A) (A) (A) (A) (A) (A) (A) (A) (A) (A) (A) (A)
                 (A) (A) (A) (A) (A) (A) (A) (A) (A)
       Virtual   (A) (A) (A) (A) (A) (A) (A) (A) (A) (A) (A) (A)
                 (A) (A) (A) (A) (A) (A) (A) (A) (A) (A) (A) (A)
                 (A) (A) (A) (A) (A) (A) (A) (A) (A) (A) (A) (A)
                 (A) (A) (A) (A) (A) (A) (A) (A) (A) (A) (A) (A)
                 (A) (A) (A) (A) (A) (A) (A) (A) (A) (A) (A) (A)
                 (A) (A) (A) (A) (A) (A) (A) (A) (A) (A) (A) (A)
                 (A) (A) (A) (A) (A) (A) (A) (A) (A) (A) (A) (A)
                 (A) (A) (A) (A) (A) (A) (A) (A) (A) (A) (A) (A)
                 (A) (A) (A) (A) (A) (A) (A) (A) (A) (A) (A) (A)
                 (A) (A) (A) (A) (A) (A) (A) (A) (A) (A) (A) (A)
                 (A) (A) (A) (A) (A) (A) (A) (A) (A) (A) (A) (A)
                 (A) (A) (A) (A) (A) (A) (A) (A) (A) (A) (A) (A)
                 (A) (A) (A) (A) (A) (A) (A) (A) (A) (A) (A) (A)
                 (A) (A) (A) (A) (A) (A) (A) (A) (A) (A) (A) (A)
                 (A) (A) (A) (A) (A) (A) (A) (A) (A) (A) (A) (A)
                 (A) (A) (A) (A) (A) (A) (A) (A) (A) (A) (A) (A)
                 (A) (A) (A) (A) (A) (A) (A) (A) (A) (A) (A) (A)
                 (A) (A) (A) (A) (A) (A) (A) (A) (A) (A) (A) (A)
                 (A) (A) (A) (A) (A) (A) (A) (A) (A) (A) (A) (A)
                 (A) (A) (A) (A) (A) (A) (A) (A) (A) (A) (A) (A)
                 (A) (A) (A) (A) (A) (A) (A) (A) (A) (A) (A) (A)
                 (A) (A) (A) (A) (A) (A) (A) (A) (A) (A) (A) (A)
                 (A) (A) (A) (A) (A) (A) (A) (A) (A) (A) (A) (A)
                 (A) (A) (A) (A) (A) (A) (A) (A) (A) (A) (A) (A)
                 (A) (A) (A) (A) (A) (A) (A) (A) (A) (A) (A) (A)
                 (A) (A) (A) (A) (A) (A) (A) (A) (A) (A) (A) (A)
                 (A) (A) (A) (A) (A) (A) (A) (A) (A) (A) (A) (A)
                 (A) (A) (A) (A) (A) (A)
 Beta  Orbitals:
       Occupied  (A) (A) (A) (A) (A) (A) (A) (A) (A) (A) (A) (A)
                 (A) (A) (A) (A) (A) (A) (A) (A) (A) (A) (A) (A)
                 (A) (A) (A) (A) (A) (A) (A) (A) (A) (A) (A) (A)
                 (A) (A) (A) (A) (A) (A) (A) (A)
       Virtual   (A) (A) (A) (A) (A) (A) (A) (A) (A) (A) (A) (A)
                 (A) (A) (A) (A) (A) (A) (A) (A) (A) (A) (A) (A)
                 (A) (A) (A) (A) (A) (A) (A) (A) (A) (A) (A) (A)
                 (A) (A) (A) (A) (A) (A) (A) (A) (A) (A) (A) (A)
                 (A) (A) (A) (A) (A) (A) (A) (A) (A) (A) (A) (A)
                 (A) (A) (A) (A) (A) (A) (A) (A) (A) (A) (A) (A)
                 (A) (A) (A) (A) (A) (A) (A) (A) (A) (A) (A) (A)
                 (A) (A) (A) (A) (A) (A) (A) (A) (A) (A) (A) (A)
                 (A) (A) (A) (A) (A) (A) (A) (A) (A) (A) (A) (A)
                 (A) (A) (A) (A) (A) (A) (A) (A) (A) (A) (A) (A)
                 (A) (A) (A) (A) (A) (A) (A) (A) (A) (A) (A) (A)
                 (A) (A) (A) (A) (A) (A) (A) (A) (A) (A) (A) (A)
                 (A) (A) (A) (A) (A) (A) (A) (A) (A) (A) (A) (A)
                 (A) (A) (A) (A) (A) (A) (A) (A) (A) (A) (A) (A)
                 (A) (A) (A) (A) (A) (A) (A) (A) (A) (A) (A) (A)
                 (A) (A) (A) (A) (A) (A) (A) (A) (A) (A) (A) (A)
                 (A) (A) (A) (A) (A) (A) (A) (A) (A) (A) (A) (A)
                 (A) (A) (A) (A) (A) (A) (A) (A) (A) (A) (A) (A)
                 (A) (A) (A) (A) (A) (A) (A) (A) (A) (A) (A) (A)
                 (A) (A) (A) (A) (A) (A) (A) (A) (A) (A) (A) (A)
                 (A) (A) (A) (A) (A) (A) (A) (A) (A) (A) (A) (A)
                 (A) (A) (A) (A) (A) (A) (A) (A) (A) (A) (A) (A)
                 (A) (A) (A) (A) (A) (A) (A) (A) (A) (A) (A) (A)
                 (A) (A) (A) (A) (A) (A) (A) (A) (A) (A) (A) (A)
                 (A) (A) (A) (A) (A) (A) (A) (A) (A) (A) (A) (A)
                 (A) (A) (A) (A) (A) (A) (A) (A) (A) (A) (A) (A)
                 (A) (A) (A) (A) (A) (A) (A) (A) (A) (A) (A) (A)
                 (A) (A) (A) (A) (A) (A) (A)
 The electronic state is 2-A.
 Alpha  occ. eigenvalues --  -19.18097 -19.16884 -10.21735 -10.19621 -10.18011
 Alpha  occ. eigenvalues --  -10.17440 -10.16903 -10.16801 -10.16710 -10.16676
 Alpha  occ. eigenvalues --  -10.16519  -1.11934  -0.88850  -0.83219  -0.80169
 Alpha  occ. eigenvalues --   -0.75692  -0.69737  -0.68580  -0.66948  -0.61065
 Alpha  occ. eigenvalues --   -0.57581  -0.57001  -0.51318  -0.49252  -0.47741
 Alpha  occ. eigenvalues --   -0.45937  -0.45428  -0.44755  -0.43299  -0.42473
 Alpha  occ. eigenvalues --   -0.40904  -0.40158  -0.39701  -0.38714  -0.38077
 Alpha  occ. eigenvalues --   -0.37309  -0.36402  -0.35304  -0.34043  -0.32961
 Alpha  occ. eigenvalues --   -0.32867  -0.32381  -0.29410  -0.26783  -0.21895
 Alpha virt. eigenvalues --   -0.00927  -0.00277   0.00324   0.00814   0.02145
 Alpha virt. eigenvalues --    0.02226   0.02510   0.03098   0.03437   0.03814
 Alpha virt. eigenvalues --    0.04430   0.05121   0.05510   0.05605   0.05895
 Alpha virt. eigenvalues --    0.06920   0.07059   0.07544   0.07851   0.08802
 Alpha virt. eigenvalues --    0.09450   0.09689   0.10415   0.10629   0.11216
 Alpha virt. eigenvalues --    0.11456   0.11889   0.12276   0.12385   0.12847
 Alpha virt. eigenvalues --    0.13122   0.13224   0.13423   0.13823   0.14185
 Alpha virt. eigenvalues --    0.14616   0.14823   0.15044   0.15191   0.15545
 Alpha virt. eigenvalues --    0.16065   0.16331   0.16568   0.16874   0.17070
 Alpha virt. eigenvalues --    0.17663   0.17787   0.18335   0.18587   0.18805
 Alpha virt. eigenvalues --    0.19195   0.19269   0.19877   0.20935   0.21235
 Alpha virt. eigenvalues --    0.21863   0.22183   0.22568   0.22672   0.23487
 Alpha virt. eigenvalues --    0.24138   0.24913   0.24973   0.25837   0.26137
 Alpha virt. eigenvalues --    0.26818   0.26972   0.27726   0.28396   0.28881
 Alpha virt. eigenvalues --    0.29253   0.29851   0.30755   0.31392   0.32291
 Alpha virt. eigenvalues --    0.32783   0.33587   0.33938   0.34794   0.35501
 Alpha virt. eigenvalues --    0.35787   0.36410   0.36723   0.37560   0.38339
 Alpha virt. eigenvalues --    0.39487   0.39970   0.40761   0.41821   0.43369
 Alpha virt. eigenvalues --    0.44077   0.45063   0.46306   0.46953   0.47388
 Alpha virt. eigenvalues --    0.48191   0.49381   0.50843   0.51326   0.53132
 Alpha virt. eigenvalues --    0.53468   0.54751   0.56402   0.56775   0.57938
 Alpha virt. eigenvalues --    0.59582   0.60794   0.61961   0.62911   0.63474
 Alpha virt. eigenvalues --    0.64003   0.64186   0.65332   0.65989   0.66788
 Alpha virt. eigenvalues --    0.67454   0.67789   0.68493   0.69108   0.69450
 Alpha virt. eigenvalues --    0.69941   0.70991   0.71635   0.72945   0.73789
 Alpha virt. eigenvalues --    0.74645   0.75388   0.76344   0.76940   0.77225
 Alpha virt. eigenvalues --    0.78219   0.79080   0.79224   0.79628   0.80346
 Alpha virt. eigenvalues --    0.81695   0.82525   0.85972   0.91083   0.92440
 Alpha virt. eigenvalues --    0.95799   0.96150   0.99117   1.00810   1.02157
 Alpha virt. eigenvalues --    1.03979   1.04938   1.07196   1.07758   1.12611
 Alpha virt. eigenvalues --    1.13113   1.15976   1.17930   1.19311   1.20636
 Alpha virt. eigenvalues --    1.21797   1.23825   1.27465   1.28682   1.31581
 Alpha virt. eigenvalues --    1.32849   1.35984   1.38419   1.40613   1.42288
 Alpha virt. eigenvalues --    1.44750   1.45374   1.46603   1.47562   1.47808
 Alpha virt. eigenvalues --    1.48426   1.49211   1.51238   1.52740   1.53673
 Alpha virt. eigenvalues --    1.55414   1.56182   1.57660   1.58136   1.59210
 Alpha virt. eigenvalues --    1.59668   1.60166   1.60801   1.61910   1.62691
 Alpha virt. eigenvalues --    1.64549   1.65416   1.66417   1.67030   1.68846
 Alpha virt. eigenvalues --    1.69677   1.69795   1.71321   1.72049   1.73333
 Alpha virt. eigenvalues --    1.75078   1.75843   1.77059   1.77493   1.79649
 Alpha virt. eigenvalues --    1.80253   1.80615   1.82676   1.84016   1.85758
 Alpha virt. eigenvalues --    1.86746   1.88367   1.90943   1.92110   1.94033
 Alpha virt. eigenvalues --    1.96458   1.97305   1.98520   2.00537   2.01288
 Alpha virt. eigenvalues --    2.04893   2.05376   2.09942   2.10453   2.10760
 Alpha virt. eigenvalues --    2.12625   2.14103   2.16285   2.18273   2.18387
 Alpha virt. eigenvalues --    2.20148   2.22875   2.25133   2.26096   2.28758
 Alpha virt. eigenvalues --    2.31701   2.34121   2.35202   2.38866   2.42325
 Alpha virt. eigenvalues --    2.44826   2.45647   2.47106   2.48315   2.48761
 Alpha virt. eigenvalues --    2.49077   2.50544   2.51430   2.51879   2.52942
 Alpha virt. eigenvalues --    2.54231   2.55128   2.56535   2.57473   2.58665
 Alpha virt. eigenvalues --    2.59619   2.60853   2.61652   2.62919   2.63633
 Alpha virt. eigenvalues --    2.64234   2.65672   2.67212   2.70142   2.70673
 Alpha virt. eigenvalues --    2.71640   2.73357   2.73931   2.75605   2.77299
 Alpha virt. eigenvalues --    2.79670   2.80118   2.81069   2.81501   2.84191
 Alpha virt. eigenvalues --    2.86464   2.88897   2.91302   2.92392   2.95152
 Alpha virt. eigenvalues --    2.95901   2.98139   2.98579   2.99768   3.03364
 Alpha virt. eigenvalues --    3.04465   3.08354   3.13421   3.18319   3.21365
 Alpha virt. eigenvalues --    3.21470   3.26091   3.28840   3.29648   3.31098
 Alpha virt. eigenvalues --    3.41472   3.48996   3.61821   3.71504   3.76197
 Alpha virt. eigenvalues --    3.77296   3.79247   3.80488   3.80964   3.81759
 Alpha virt. eigenvalues --    3.84093   3.85763   3.87178   3.88390   4.00090
 Alpha virt. eigenvalues --    4.00866   4.04274   4.17027   4.28006   4.30048
 Alpha virt. eigenvalues --    4.31178   4.37118   4.37725   4.90323   5.09548
 Alpha virt. eigenvalues --    5.11695   5.35782   5.50905   5.83322  23.80604
 Alpha virt. eigenvalues --   23.83208  23.86329  23.90316  23.94376  23.95641
 Alpha virt. eigenvalues --   23.96796  23.98537  23.99000  49.87268  49.92022
  Beta  occ. eigenvalues --  -19.17875 -19.15703 -10.21739 -10.18750 -10.18004
  Beta  occ. eigenvalues --  -10.17455 -10.16871 -10.16819 -10.16712 -10.16674
  Beta  occ. eigenvalues --  -10.16536  -1.10666  -0.87128  -0.82605  -0.79580
  Beta  occ. eigenvalues --   -0.75469  -0.69569  -0.68497  -0.66687  -0.60834
  Beta  occ. eigenvalues --   -0.57448  -0.55320  -0.50527  -0.48593  -0.47358
  Beta  occ. eigenvalues --   -0.45522  -0.45177  -0.44060  -0.42931  -0.41650
  Beta  occ. eigenvalues --   -0.40099  -0.39764  -0.39201  -0.38610  -0.37703
  Beta  occ. eigenvalues --   -0.36984  -0.36187  -0.34649  -0.33803  -0.32791
  Beta  occ. eigenvalues --   -0.32594  -0.32164  -0.28205  -0.25135
  Beta virt. eigenvalues --   -0.10990  -0.00865  -0.00247   0.00359   0.00822
  Beta virt. eigenvalues --    0.02210   0.02243   0.02534   0.03332   0.03454
  Beta virt. eigenvalues --    0.03974   0.04549   0.05179   0.05530   0.05694
  Beta virt. eigenvalues --    0.05937   0.06968   0.07067   0.07572   0.07914
  Beta virt. eigenvalues --    0.08835   0.09512   0.09725   0.10422   0.10674
  Beta virt. eigenvalues --    0.11254   0.11497   0.11929   0.12314   0.12395
  Beta virt. eigenvalues --    0.12895   0.13205   0.13316   0.13469   0.13871
  Beta virt. eigenvalues --    0.14233   0.14638   0.14860   0.15091   0.15251
  Beta virt. eigenvalues --    0.15575   0.16109   0.16352   0.16636   0.16916
  Beta virt. eigenvalues --    0.17102   0.17726   0.17855   0.18413   0.18717
  Beta virt. eigenvalues --    0.18900   0.19256   0.19323   0.19923   0.21013
  Beta virt. eigenvalues --    0.21473   0.21943   0.22237   0.22694   0.22865
  Beta virt. eigenvalues --    0.23606   0.24274   0.25020   0.25111   0.25983
  Beta virt. eigenvalues --    0.26285   0.27090   0.27235   0.27824   0.28546
  Beta virt. eigenvalues --    0.29002   0.29391   0.30095   0.31014   0.31731
  Beta virt. eigenvalues --    0.32401   0.32917   0.33676   0.34213   0.35100
  Beta virt. eigenvalues --    0.35711   0.36005   0.36562   0.36980   0.37664
  Beta virt. eigenvalues --    0.38438   0.39820   0.40071   0.40829   0.41883
  Beta virt. eigenvalues --    0.43517   0.44248   0.45233   0.46681   0.47021
  Beta virt. eigenvalues --    0.47511   0.48238   0.49429   0.50924   0.51427
  Beta virt. eigenvalues --    0.53240   0.53588   0.54802   0.56589   0.56884
  Beta virt. eigenvalues --    0.58099   0.60148   0.60886   0.62064   0.63274
  Beta virt. eigenvalues --    0.63602   0.64166   0.64350   0.65493   0.66161
  Beta virt. eigenvalues --    0.66943   0.67533   0.68110   0.68717   0.69186
  Beta virt. eigenvalues --    0.69511   0.70016   0.71194   0.71683   0.73041
  Beta virt. eigenvalues --    0.73824   0.74786   0.75464   0.76475   0.77033
  Beta virt. eigenvalues --    0.77308   0.78412   0.79160   0.79323   0.79692
  Beta virt. eigenvalues --    0.80416   0.81762   0.82649   0.86097   0.91194
  Beta virt. eigenvalues --    0.92608   0.96009   0.96257   0.99225   1.01111
  Beta virt. eigenvalues --    1.02313   1.04246   1.05212   1.07494   1.07905
  Beta virt. eigenvalues --    1.12881   1.13499   1.16220   1.18171   1.19613
  Beta virt. eigenvalues --    1.21283   1.22056   1.24077   1.28099   1.28987
  Beta virt. eigenvalues --    1.31941   1.33157   1.36272   1.38963   1.40845
  Beta virt. eigenvalues --    1.42511   1.45014   1.45502   1.46796   1.47830
  Beta virt. eigenvalues --    1.47941   1.48692   1.49570   1.51511   1.53473
  Beta virt. eigenvalues --    1.54168   1.55703   1.56418   1.57962   1.58391
  Beta virt. eigenvalues --    1.59335   1.59821   1.60354   1.60930   1.61983
  Beta virt. eigenvalues --    1.63353   1.64808   1.65575   1.66485   1.67322
  Beta virt. eigenvalues --    1.68979   1.69791   1.70124   1.71425   1.72170
  Beta virt. eigenvalues --    1.73670   1.75290   1.75969   1.77316   1.77636
  Beta virt. eigenvalues --    1.79772   1.80424   1.80824   1.82851   1.84126
  Beta virt. eigenvalues --    1.85879   1.86895   1.88670   1.91022   1.92766
  Beta virt. eigenvalues --    1.94201   1.96587   1.97456   1.98884   2.00697
  Beta virt. eigenvalues --    2.01649   2.05055   2.05533   2.10330   2.10592
  Beta virt. eigenvalues --    2.10987   2.12719   2.14448   2.16431   2.18391
  Beta virt. eigenvalues --    2.18696   2.20517   2.23082   2.25622   2.26160
  Beta virt. eigenvalues --    2.28923   2.31839   2.34476   2.35555   2.38978
  Beta virt. eigenvalues --    2.42675   2.44980   2.46154   2.47150   2.48622
  Beta virt. eigenvalues --    2.48818   2.49255   2.50837   2.51701   2.52047
  Beta virt. eigenvalues --    2.53066   2.54390   2.55310   2.56724   2.57918
  Beta virt. eigenvalues --    2.58783   2.59963   2.61198   2.61849   2.63149
  Beta virt. eigenvalues --    2.64234   2.64482   2.66064   2.67377   2.70303
  Beta virt. eigenvalues --    2.70779   2.71836   2.73548   2.74101   2.75857
  Beta virt. eigenvalues --    2.77559   2.80002   2.80242   2.81329   2.81765
  Beta virt. eigenvalues --    2.84372   2.86688   2.88983   2.91403   2.92683
  Beta virt. eigenvalues --    2.95369   2.96601   2.98529   2.98697   3.00967
  Beta virt. eigenvalues --    3.03833   3.04629   3.08905   3.13568   3.18514
  Beta virt. eigenvalues --    3.21711   3.21730   3.27681   3.29205   3.30169
  Beta virt. eigenvalues --    3.32269   3.42451   3.49093   3.62672   3.71563
  Beta virt. eigenvalues --    3.76420   3.77437   3.79286   3.80641   3.81041
  Beta virt. eigenvalues --    3.81885   3.84223   3.86099   3.87334   3.88693
  Beta virt. eigenvalues --    4.00265   4.01038   4.06274   4.17512   4.28092
  Beta virt. eigenvalues --    4.30324   4.31806   4.37364   4.37975   4.90801
  Beta virt. eigenvalues --    5.10500   5.12654   5.37998   5.52621   5.84205
  Beta virt. eigenvalues --   23.81279  23.83372  23.86339  23.90377  23.94377
  Beta virt. eigenvalues --   23.95655  23.96801  23.98565  23.99025  49.87847
  Beta virt. eigenvalues --   49.92840
          Condensed to atoms (all electrons):
              1          2          3          4          5          6
     1  C    5.835039   0.368195   0.389416   0.402198  -0.378165  -0.073806
     2  H    0.368195   0.560027  -0.040358  -0.038359   0.053756   0.009683
     3  H    0.389416  -0.040358   0.563981  -0.019205  -0.016576  -0.015253
     4  H    0.402198  -0.038359  -0.019205   0.583342  -0.075197  -0.010804
     5  C   -0.378165   0.053756  -0.016576  -0.075197   8.491414   0.808317
     6  H   -0.073806   0.009683  -0.015253  -0.010804   0.808317   0.616727
     7  C    0.483434  -0.047406  -0.019987   0.024229  -1.368878  -0.200700
     8  H    0.000716  -0.002345  -0.001101   0.002466  -0.123245   0.004074
     9  H    0.001833   0.004485   0.004014  -0.003507   0.105324   0.015341
    10  C   -0.332785  -0.004865   0.011309  -0.003843  -0.449698  -0.100924
    11  H    0.012939  -0.000028  -0.001995  -0.000499  -0.032802  -0.003101
    12  H   -0.028907   0.001379   0.000123   0.000585  -0.073868  -0.018393
    13  C   -0.045297  -0.002604   0.003845  -0.003299  -0.296174  -0.038738
    14  H   -0.009432   0.000116   0.000313  -0.000168  -0.076300  -0.006108
    15  H    0.000069  -0.000057   0.000079  -0.000107   0.019397   0.001124
    16  C    0.047816   0.003335   0.000340   0.002531   0.374759   0.032780
    17  H   -0.001091  -0.000181  -0.000177   0.000354   0.049297   0.004840
    18  C   -0.019636   0.000885   0.000279  -0.000634  -0.120346  -0.003250
    19  H    0.000512  -0.000002  -0.000011   0.000007  -0.001143  -0.000263
    20  H   -0.000565   0.000018   0.000018  -0.000028  -0.006901  -0.000396
    21  H    0.001434  -0.000133  -0.000050  -0.000096   0.002534   0.001490
    22  C   -0.095697  -0.017556   0.011030   0.002677  -1.027176  -0.197200
    23  H   -0.016907   0.002154  -0.007209  -0.000647   0.202121   0.026508
    24  H    0.016140   0.004669   0.002224   0.000396  -0.285333  -0.039600
    25  C    0.017967  -0.001295  -0.000607   0.000878   0.157551   0.009243
    26  H    0.000383  -0.000020  -0.000007  -0.000008   0.003417   0.000117
    27  H   -0.000140   0.000026   0.000015  -0.000015  -0.000824  -0.000128
    28  H    0.000280   0.000081  -0.000056   0.000021   0.002681   0.000185
    29  O    0.050970   0.000169  -0.002276  -0.001377  -0.084305  -0.007635
    30  O   -0.014250   0.000698  -0.000272  -0.000382  -0.121129  -0.000136
              7          8          9         10         11         12
     1  C    0.483434   0.000716   0.001833  -0.332785   0.012939  -0.028907
     2  H   -0.047406  -0.002345   0.004485  -0.004865  -0.000028   0.001379
     3  H   -0.019987  -0.001101   0.004014   0.011309  -0.001995   0.000123
     4  H    0.024229   0.002466  -0.003507  -0.003843  -0.000499   0.000585
     5  C   -1.368878  -0.123245   0.105324  -0.449698  -0.032802  -0.073868
     6  H   -0.200700   0.004074   0.015341  -0.100924  -0.003101  -0.018393
     7  C    8.526111   0.422236   0.509716  -1.337374   0.040478  -0.241155
     8  H    0.422236   0.582090  -0.038714  -0.000620  -0.008500  -0.001031
     9  H    0.509716  -0.038714   0.529994  -0.172282   0.003102  -0.003527
    10  C   -1.337374  -0.000620  -0.172282   7.320642   0.348169   0.646535
    11  H    0.040478  -0.008500   0.003102   0.348169   0.568457  -0.036778
    12  H   -0.241155  -0.001031  -0.003527   0.646535  -0.036778   0.594490
    13  C   -0.791951  -0.024567  -0.017781   0.360765  -0.068428   0.071887
    14  H   -0.123041  -0.003453  -0.019158   0.046241  -0.003638   0.020458
    15  H    0.035113   0.001345   0.005060  -0.073047  -0.011306  -0.000229
    16  C    0.714265   0.002637   0.044290  -0.651956   0.001692  -0.101581
    17  H   -0.075846  -0.004465  -0.005901  -0.013162  -0.002900  -0.000551
    18  C   -0.209189  -0.008604  -0.024104   0.320016   0.006752   0.001521
    19  H    0.014461   0.000385  -0.000036   0.012507  -0.000356  -0.002515
    20  H   -0.006251  -0.000154   0.000915   0.006791   0.000953  -0.000561
    21  H   -0.005304   0.000195   0.000613  -0.010118   0.001645  -0.001329
    22  C   -0.255568  -0.004453  -0.100962   0.614898   0.003815   0.072543
    23  H   -0.132422   0.002058   0.004413  -0.026744   0.001350  -0.005810
    24  H    0.117549  -0.000219  -0.005055   0.033189   0.001348   0.004603
    25  C    0.294519   0.017123   0.019759  -0.358852  -0.004246  -0.029329
    26  H    0.001111   0.000186   0.000986  -0.003866   0.000331  -0.000875
    27  H   -0.000537  -0.000644   0.001274   0.001504   0.000750  -0.000910
    28  H    0.011106   0.001868  -0.002091  -0.020611  -0.001005   0.001214
    29  O    0.053459  -0.000101  -0.003596  -0.059392   0.008830  -0.026702
    30  O   -0.007791   0.007739  -0.031190   0.122028   0.002085  -0.002595
             13         14         15         16         17         18
     1  C   -0.045297  -0.009432   0.000069   0.047816  -0.001091  -0.019636
     2  H   -0.002604   0.000116  -0.000057   0.003335  -0.000181   0.000885
     3  H    0.003845   0.000313   0.000079   0.000340  -0.000177   0.000279
     4  H   -0.003299  -0.000168  -0.000107   0.002531   0.000354  -0.000634
     5  C   -0.296174  -0.076300   0.019397   0.374759   0.049297  -0.120346
     6  H   -0.038738  -0.006108   0.001124   0.032780   0.004840  -0.003250
     7  C   -0.791951  -0.123041   0.035113   0.714265  -0.075846  -0.209189
     8  H   -0.024567  -0.003453   0.001345   0.002637  -0.004465  -0.008604
     9  H   -0.017781  -0.019158   0.005060   0.044290  -0.005901  -0.024104
    10  C    0.360765   0.046241  -0.073047  -0.651956  -0.013162   0.320016
    11  H   -0.068428  -0.003638  -0.011306   0.001692  -0.002900   0.006752
    12  H    0.071887   0.020458  -0.000229  -0.101581  -0.000551   0.001521
    13  C    7.351790   0.557448   0.345610  -1.031519  -0.124848   0.072155
    14  H    0.557448   0.570580  -0.034413  -0.121842   0.004735   0.066412
    15  H    0.345610  -0.034413   0.586149   0.005960   0.001152  -0.055893
    16  C   -1.031519  -0.121842   0.005960   7.586455   0.260662  -0.384629
    17  H   -0.124848   0.004735   0.001152   0.260662   0.547426   0.025979
    18  C    0.072155   0.066412  -0.055893  -0.384629   0.025979   6.348692
    19  H   -0.102318  -0.005450   0.014194   0.009383   0.008906   0.376723
    20  H    0.061166  -0.000730  -0.000745  -0.074848  -0.014975   0.409229
    21  H    0.021077   0.003338  -0.007639  -0.097174  -0.014712   0.425987
    22  C    0.165000   0.049239  -0.013296  -0.200577   0.034610   0.112344
    23  H   -0.011450  -0.003227   0.000529   0.002367   0.012431  -0.005267
    24  H    0.018442   0.002603  -0.000456  -0.022297  -0.008660   0.009031
    25  C   -0.313841  -0.092382   0.025538  -0.017423  -0.095809  -0.706629
    26  H    0.029705  -0.001647  -0.000122  -0.048452  -0.016182  -0.027220
    27  H   -0.015248   0.002263   0.000366  -0.035748   0.006185   0.016576
    28  H   -0.021752  -0.001239   0.003790  -0.037868  -0.014031  -0.000272
    29  O   -0.015087  -0.001655   0.000710   0.067730  -0.016686  -0.021718
    30  O    0.055809   0.008572  -0.005482  -0.056918  -0.008755  -0.044071
             19         20         21         22         23         24
     1  C    0.000512  -0.000565   0.001434  -0.095697  -0.016907   0.016140
     2  H   -0.000002   0.000018  -0.000133  -0.017556   0.002154   0.004669
     3  H   -0.000011   0.000018  -0.000050   0.011030  -0.007209   0.002224
     4  H    0.000007  -0.000028  -0.000096   0.002677  -0.000647   0.000396
     5  C   -0.001143  -0.006901   0.002534  -1.027176   0.202121  -0.285333
     6  H   -0.000263  -0.000396   0.001490  -0.197200   0.026508  -0.039600
     7  C    0.014461  -0.006251  -0.005304  -0.255568  -0.132422   0.117549
     8  H    0.000385  -0.000154   0.000195  -0.004453   0.002058  -0.000219
     9  H   -0.000036   0.000915   0.000613  -0.100962   0.004413  -0.005055
    10  C    0.012507   0.006791  -0.010118   0.614898  -0.026744   0.033189
    11  H   -0.000356   0.000953   0.001645   0.003815   0.001350   0.001348
    12  H   -0.002515  -0.000561  -0.001329   0.072543  -0.005810   0.004603
    13  C   -0.102318   0.061166   0.021077   0.165000  -0.011450   0.018442
    14  H   -0.005450  -0.000730   0.003338   0.049239  -0.003227   0.002603
    15  H    0.014194  -0.000745  -0.007639  -0.013296   0.000529  -0.000456
    16  C    0.009383  -0.074848  -0.097174  -0.200577   0.002367  -0.022297
    17  H    0.008906  -0.014975  -0.014712   0.034610   0.012431  -0.008660
    18  C    0.376723   0.409229   0.425987   0.112344  -0.005267   0.009031
    19  H    0.577230  -0.036482  -0.044027  -0.000994   0.000042   0.000103
    20  H   -0.036482   0.538758  -0.019339   0.005405  -0.000878   0.000597
    21  H   -0.044027  -0.019339   0.575906  -0.008757   0.001522   0.000149
    22  C   -0.000994   0.005405  -0.008757   6.667998   0.264812   0.472015
    23  H    0.000042  -0.000878   0.001522   0.264812   0.561249  -0.052133
    24  H    0.000103   0.000597   0.000149   0.472015  -0.052133   0.605707
    25  C    0.030110  -0.028912   0.013505  -0.148337   0.013393  -0.008911
    26  H    0.002523   0.001720  -0.000528  -0.004891   0.000212  -0.000193
    27  H    0.007833   0.004016  -0.000999   0.001282  -0.000296   0.000174
    28  H   -0.000372  -0.001576  -0.003435  -0.004352   0.000572  -0.000054
    29  O    0.001874  -0.005156   0.008503   0.143076  -0.026508  -0.052389
    30  O   -0.006351   0.003178   0.010046   0.058579  -0.020830   0.018770
             25         26         27         28         29         30
     1  C    0.017967   0.000383  -0.000140   0.000280   0.050970  -0.014250
     2  H   -0.001295  -0.000020   0.000026   0.000081   0.000169   0.000698
     3  H   -0.000607  -0.000007   0.000015  -0.000056  -0.002276  -0.000272
     4  H    0.000878  -0.000008  -0.000015   0.000021  -0.001377  -0.000382
     5  C    0.157551   0.003417  -0.000824   0.002681  -0.084305  -0.121129
     6  H    0.009243   0.000117  -0.000128   0.000185  -0.007635  -0.000136
     7  C    0.294519   0.001111  -0.000537   0.011106   0.053459  -0.007791
     8  H    0.017123   0.000186  -0.000644   0.001868  -0.000101   0.007739
     9  H    0.019759   0.000986   0.001274  -0.002091  -0.003596  -0.031190
    10  C   -0.358852  -0.003866   0.001504  -0.020611  -0.059392   0.122028
    11  H   -0.004246   0.000331   0.000750  -0.001005   0.008830   0.002085
    12  H   -0.029329  -0.000875  -0.000910   0.001214  -0.026702  -0.002595
    13  C   -0.313841   0.029705  -0.015248  -0.021752  -0.015087   0.055809
    14  H   -0.092382  -0.001647   0.002263  -0.001239  -0.001655   0.008572
    15  H    0.025538  -0.000122   0.000366   0.003790   0.000710  -0.005482
    16  C   -0.017423  -0.048452  -0.035748  -0.037868   0.067730  -0.056918
    17  H   -0.095809  -0.016182   0.006185  -0.014031  -0.016686  -0.008755
    18  C   -0.706629  -0.027220   0.016576  -0.000272  -0.021718  -0.044071
    19  H    0.030110   0.002523   0.007833  -0.000372   0.001874  -0.006351
    20  H   -0.028912   0.001720   0.004016  -0.001576  -0.005156   0.003178
    21  H    0.013505  -0.000528  -0.000999  -0.003435   0.008503   0.010046
    22  C   -0.148337  -0.004891   0.001282  -0.004352   0.143076   0.058579
    23  H    0.013393   0.000212  -0.000296   0.000572  -0.026508  -0.020830
    24  H   -0.008911  -0.000193   0.000174  -0.000054  -0.052389   0.018770
    25  C    6.492194   0.414768   0.367403   0.434550   0.015789   0.019836
    26  H    0.414768   0.544138  -0.040108  -0.018480  -0.000402   0.004873
    27  H    0.367403  -0.040108   0.585508  -0.041554   0.000256  -0.005171
    28  H    0.434550  -0.018480  -0.041554   0.555017   0.000090   0.004910
    29  O    0.015789  -0.000402   0.000256   0.000090   7.894618   0.072468
    30  O    0.019836   0.004873  -0.005171   0.004910   0.072468   8.167755
 Mulliken atomic charges:
              1
     1  C   -0.612663
     2  H    0.145533
     3  H    0.138155
     4  H    0.138491
     5  C    0.267492
     6  H    0.186009
     7  C   -0.424386
     8  H    0.177099
     9  H    0.176786
    10  C   -0.224452
    11  H    0.172887
    12  H    0.161307
    13  C   -0.189798
    14  H    0.171565
    15  H    0.156606
    16  C   -0.274172
    17  H    0.462358
    18  C   -0.561122
    19  H    0.143524
    20  H    0.165732
    21  H    0.145698
    22  C   -0.599510
    23  H    0.214595
    24  H    0.167590
    25  C   -0.537552
    26  H    0.158534
    27  H    0.146893
    28  H    0.152381
    29  O    0.006442
    30  O   -0.232023
 Sum of Mulliken atomic charges =   0.00000
 Mulliken charges with hydrogens summed into heavy atoms:
              1
     1  C   -0.190484
     5  C    0.453501
     7  C   -0.070501
    10  C    0.109742
    13  C    0.138374
    16  C   -0.274172
    18  C   -0.106168
    22  C   -0.217324
    25  C   -0.079744
    29  O    0.006442
    30  O    0.230334
 Sum of Mulliken charges with hydrogens summed into heavy atoms =   0.00000
          Atomic-Atomic Spin Densities.
              1          2          3          4          5          6
     1  C    0.022096   0.004001   0.002005   0.000601  -0.056740  -0.013384
     2  H    0.004001   0.000670  -0.000023  -0.000027  -0.008501  -0.001016
     3  H    0.002005  -0.000023  -0.000519  -0.000132  -0.002271   0.000067
     4  H    0.000601  -0.000027  -0.000132  -0.000190  -0.001232   0.000133
     5  C   -0.056740  -0.008501  -0.002271  -0.001232   0.137952   0.023249
     6  H   -0.013384  -0.001016   0.000067   0.000133   0.023249   0.008082
     7  C    0.017939   0.003130   0.002016   0.000670  -0.055529  -0.015781
     8  H   -0.007851  -0.000634   0.000279   0.000230   0.017406   0.002352
     9  H    0.001633   0.000246   0.000121  -0.000078  -0.008048  -0.000890
    10  C   -0.006999  -0.001609  -0.001363  -0.000081   0.044254   0.011516
    11  H    0.000945   0.000078   0.000100  -0.000017  -0.000365  -0.001355
    12  H    0.002098   0.000119  -0.000084  -0.000060  -0.005918  -0.000962
    13  C   -0.004318  -0.000442  -0.000119   0.000086   0.020484   0.005326
[...]
 0.00007728,-0.00006594,0.00012429,-0.00012806,0.00009671,0.00000585,-0
 .00003876,0.00004735,0.00003983,-0.00003180,-0.00013723,0.00008635,-0.
 00000402,-0.00047509,-0.00065267,-0.00009901,0.00058639,-0.00009697,-0
 .00022820,0.00013540,0.00018311,0.00000047,0.00003011,-0.00000505,0.00
 006402,-0.00004150,0.00002624,-0.00001914,-0.00000544,-0.00002628,0.00
 002605,-0.09498472,-0.13017299,0.07658578,0.00527710,0.00484007,-0.003
 69282,0.09665142,0.14146088,0.00010611,0.00039836,-0.00014572,0.000095
 21,0.00002809,0.00005586,-0.00026664,-0.00007990,-0.00004349,-0.000355
 32,0.00019289,0.00018129,-0.00285734,-0.00611115,0.00304811,-0.0007278
 4,0.00030765,0.00091696,0.00051761,-0.00116995,0.00066542,-0.00022206,
 -0.00005583,0.00034229,-0.00029826,-0.00015797,0.00037568,-0.00008919,
 0.00033341,0.00002380,0.00011161,0.00002660,0.00008078,-0.00002001,-0.
 00002036,-0.00001925,-0.00006162,-0.00002346,-0.00004927,0.00000575,-0
 .00002034,-0.00000735,0.00002453,-0.00003993,0.00000375,0.00021671,0.0
 0024711,0.00013585,-0.00045813,-0.00021246,0.00033516,-0.00001074,-0.0
 0003560,0.00004172,-0.00000812,0.00000968,-0.00002958,-0.00000326,0.00
 000061,-0.00000014,-0.00000508,-0.00000806,-0.00003114,0.08759380,0.07
 467861,-0.12129204,0.01941922,0.01750632,-0.01289638,-0.09185477,-0.08
 076521,0.12103022,0.00004137,0.00024178,0.00008938,-0.00000616,-0.0000
 2753,-0.00002113,-0.00009465,0.00007009,-0.00002789,0.00003717,-0.0000
 1556,-0.00000602,-0.00024279,-0.00025335,-0.00036483,0.00003946,0.0000
 3471,0.00000272,0.00004099,-0.00001832,0.00030319,0.00002635,0.0001186
 6,-0.00001070,-0.00010183,-0.00017601,-0.00003150,-0.00048482,0.001800
 00,0.00061181,-0.00045700,0.00018755,0.00014338,-0.00000406,-0.0000171
 8,-0.00020629,-0.00792265,0.00388003,0.01041533,0.00030899,-0.00053582
 ,0.00083509,-0.00025284,-0.00017571,-0.00041269,-0.10190829,0.02229660
 ,0.05931519,-0.02123349,-0.01252404,0.00875021,0.01115533,-0.00137537,
 -0.01101289,0.00034412,0.00010588,0.00015111,-0.00021893,-0.00003950,-
 0.00029905,-0.00081008,0.00160918,-0.00411672,0.00143191,-0.00073032,0
 .00064947,-0.00008254,-0.00001637,-0.00014890,-0.00028083,0.00013413,-
 0.00008543,0.49575284,0.00010433,0.00039685,0.00005002,0.00000034,-0.0
 0003199,0.00000467,-0.00013869,0.00008836,-0.00003942,0.00011106,-0.00
 000944,0.00000611,-0.00024121,-0.00035038,-0.00019360,-0.00002692,-0.0
 0000319,0.00007164,-0.00022154,-0.00012778,-0.00042685,0.00004320,0.00
 017442,0.00006867,0.00005231,-0.00004046,0.00025357,-0.00017929,-0.005
 62680,-0.00109675,0.00191512,0.00008673,-0.00073060,-0.00012354,0.0001
 0849,-0.00025046,0.02408374,-0.00248911,-0.02164888,0.00025891,0.00127
 945,-0.00151298,-0.00067126,-0.00042964,-0.00035591,0.01804079,-0.0727
 1477,-0.00411098,-0.01374038,-0.00776072,0.00479398,-0.00619122,0.0027
 7779,0.00768088,0.00016997,0.00035637,0.00006089,-0.00078898,0.0002204
 4,0.00069553,0.00114698,-0.00040741,0.00246334,0.00184526,-0.00086715,
 0.00067663,-0.00010805,0.00004495,-0.00018076,-0.00032068,0.00017631,-
 0.00008236,-0.02154340,0.55184331,0.00004929,0.00017482,0.00007733,-0.
 00000766,-0.00002116,-0.00001919,-0.00006762,0.00005105,-0.00002323,0.
 00002499,-0.00001625,-0.00000355,-0.00016271,-0.00024275,-0.00030056,0
 .00002274,0.00004009,0.00001326,-0.00001237,0.00007759,0.00019132,0.00
 001051,0.00010622,0.00006135,-0.00002648,-0.00014272,0.00007995,-0.001
 16343,0.00027243,0.00026025,-0.00012548,0.00017139,0.00008486,-0.00016
 775,-0.00004183,-0.00007185,0.00613610,-0.00337228,-0.00173191,-0.0009
 5042,0.00150531,0.00069036,-0.00049014,0.00122832,0.00013637,0.0515510
 3,-0.00913790,-0.15127134,0.00202510,0.00045468,-0.00178023,0.01778778
 ,0.00068766,-0.02998913,0.00093702,-0.00033881,0.00191222,0.00055215,-
 0.00083560,0.00130359,-0.00219622,0.00179213,-0.00351213,0.00090065,-0
 .00037075,0.00055862,-0.00006025,-0.00000562,-0.00010772,-0.00022952,0
 .00007605,-0.00006008,0.04897012,-0.01375308,0.50219839,-0.00001274,-0
 .00006288,0.00000402,0.00000055,0.00000856,-0.00000523,0.00002080,-0.0
 0001499,0.00000336,-0.00002986,-0.00000248,0.,0.00004537,0.00007480,0.
 00000234,-0.00000065,-0.00001096,-0.00000451,0.00006661,-0.00004664,-0
 .00000724,-0.00000523,-0.00002359,-0.00000489,-0.00000499,0.00003776,-
 0.00001382,0.00008725,0.00098251,0.00039614,-0.00037037,-0.00002379,0.
 00013931,-0.00001497,-0.00001959,0.00004619,-0.00100479,-0.00030111,0.
 00307229,0.00001289,-0.00050772,0.00011206,-0.00022103,0.00054008,0.00
 049933,-0.00873228,0.01916190,0.00145209,0.00037105,0.00134431,0.00023
 040,0.00011196,-0.00027044,-0.00097119,0.00002837,-0.00016085,-0.00013
 734,0.00051878,-0.00034894,0.00032733,-0.00011696,-0.00016989,-0.00019
 893,-0.00017971,0.00021724,-0.00012805,-0.00000389,-0.00001692,0.00000
 764,0.00006734,-0.00005499,0.00001514,-0.07019327,0.07716903,0.0048771
 5,0.07627590,0.00000092,0.00000976,-0.00002099,-0.00000230,-0.00000331
 ,0.00000789,0.00000075,-0.00000517,0.00000379,0.00002307,0.00001038,-0
 .00000064,0.00002722,-0.00002953,0.00006627,-0.00000138,0.00000517,-0.
 00000511,0.00000059,0.00005334,-0.00003056,0.00001078,-0.00000653,0.00
 000421,-0.00000750,-0.00001974,-0.00000925,-0.00039268,-0.00030623,-0.
 00004989,0.00014239,0.00002831,-0.00006696,0.00009532,0.00002716,-0.00
 007713,0.00065004,0.00130833,-0.00037627,-0.00026279,0.00033596,-0.000
 10853,-0.00012978,0.00003039,-0.00005420,0.00086862,-0.00292222,-0.000
 24552,0.00013182,0.00010349,0.00000430,-0.00035152,0.00031397,0.000576
 40,0.00003516,-0.00010431,-0.00005434,-0.00016790,0.00053779,-0.000413
 14,-0.00006945,0.00033485,0.00002347,-0.00011960,-0.00007474,-0.000051
 60,0.00000998,-0.00000089,0.00001870,0.00001413,0.00002019,-0.00000759
 ,0.07881135,-0.27976837,-0.01839932,-0.08650241,0.30372541,0.00001097,
 0.00002691,-0.00001136,0.00000083,0.00000118,0.00000421,-0.00000577,0.
 00000025,-0.00000257,0.00001748,0.00000254,0.00000311,0.00001853,-0.00
 001109,0.00005776,-0.00001539,-0.00000868,0.00001192,-0.00001955,-0.00
 007501,-0.00021136,0.00002045,0.00000861,0.00002160,-0.00001256,0.0000
 5678,0.00006442,0.00008920,-0.00145182,0.00003027,0.00048131,-0.000009
 33,-0.00016128,-0.00008776,0.00005783,0.00003364,0.00325148,0.00133409
 ,-0.00360241,0.00010612,-0.00004661,0.00028720,-0.00015332,-0.00012411
 ,0.00007817,0.00773839,-0.02578315,-0.00146995,-0.00032428,-0.00071305
 ,0.00011639,-0.00007487,-0.00112309,0.00108067,0.00000402,0.00003930,-
 0.00007772,-0.00003715,0.00067092,-0.00040274,-0.00005062,0.00028619,0
 .00040035,0.00000417,-0.00006793,0.00002344,-0.00000394,0.00000868,0.0
 0000105,-0.00000990,0.00001616,-0.00000288,0.00508086,-0.01731433,-0.0
 5063865,-0.00950405,0.02047138,0.05201679,0.00004169,0.00013325,0.0000
 3504,0.00000341,-0.00001184,-0.00000501,-0.00005077,0.00003895,-0.0000
 1478,0.00001961,-0.00001253,0.00000243,-0.00008100,-0.00012460,-0.0001
 1119,-0.00000310,0.00000368,0.00003045,0.00004366,-0.00002881,-0.00016
 077,-0.00001576,0.00007231,0.00002596,0.00002628,-0.00005099,0.0000911
 1,-0.00019696,0.00005908,0.00007271,0.00000679,0.00009268,-0.00000283,
 0.00012910,-0.00002384,-0.00015676,0.00199674,-0.00035830,0.00012184,-
 0.00038521,0.00024027,-0.00028099,-0.00031372,0.00066336,0.00045603,-0
 .01896906,-0.01002179,0.00414339,-0.00130802,0.00036370,0.00203110,0.0
 0037934,0.00054359,-0.00110048,0.00067793,-0.00004749,0.00073184,0.000
 03062,0.00005204,-0.00002894,0.00014013,0.00028843,0.00010261,0.000681
 35,-0.00016196,0.00024939,-0.00003990,0.00001157,-0.00007274,-0.000109
 00,0.00003684,-0.00002454,-0.19954059,-0.11775931,-0.01753155,0.008650
 40,0.00575938,0.00046678,0.22120544,-0.00000121,-0.00001967,0.00000069
 ,0.00000236,0.00000079,-0.00000072,0.00000543,0.00000163,0.00000127,-0
 .00000961,-0.00000547,0.00000068,0.00003631,0.00000680,-0.00000092,-0.
 00000282,0.00000616,0.00000263,0.00002226,0.00001074,0.00001307,-0.000
 00362,0.00000170,-0.00000047,-0.00000237,-0.00000201,0.00000574,-0.000
 02211,0.00025229,0.00014450,-0.00009137,0.00000530,0.00004263,0.000033
 93,-0.00004090,0.00001257,-0.00050220,0.00013892,-0.00010516,0.0000279
 7,0.00002160,0.00016664,0.00001191,0.00017726,-0.00000156,0.00179108,0
 .00165708,0.00193718,0.00106148,0.00156430,0.00037957,0.00002230,0.000
 15760,-0.00007606,0.00007761,0.00006384,0.00041928,-0.00013524,-0.0000
 3011,-0.00010221,0.00017468,0.00007158,0.00019249,-0.00009960,-0.00000
 790,-0.00000581,0.00001001,0.00000174,0.00000448,-0.00000435,-0.000003
 57,-0.00000147,-0.11389633,-0.12926224,-0.01172941,-0.02514426,-0.0179
 9757,-0.00245353,0.12979226,0.13915976,-0.00002914,-0.00012278,-0.0000
 3896,0.00000445,0.00001007,0.00000839,0.00004490,-0.00002919,0.0000164
 7,-0.00002391,0.00000508,0.00000143,0.00010317,0.00014648,0.00013711,-
 0.00001390,-0.00001096,-0.00001151,0.00000168,-0.00003126,0.00002122,-
 0.00000939,-0.00004953,-0.00001303,0.00003813,0.00003610,-0.00005610,0
 .00003634,0.00026493,-0.00016597,-0.00008368,-0.00007355,0.00005571,0.
 00003605,-0.00000902,0.00009463,-0.00135251,0.00040449,0.00042865,-0.0
 0007474,-0.00018274,0.00006363,0.00008970,-0.00049543,-0.00019264,0.02
 230357,0.01474921,-0.00212914,0.00307431,0.00144818,-0.00127139,-0.000
 22545,-0.00040665,0.00181526,-0.00049133,-0.00023498,-0.00059299,0.000
 14769,-0.00002586,-0.00004825,-0.00022334,-0.00037293,0.00017798,-0.00
 062950,0.00024728,-0.00030747,0.00005658,0.00000577,0.00007215,0.00012
 251,-0.00004810,0.00003509,-0.01180642,-0.00789589,-0.04330649,-0.0018
 9643,-0.00104058,-0.00088058,0.01270081,0.01132141,0.04764226,-0.00000
 688,-0.00001339,-0.00001267,-0.00000585,0.00000231,0.00000232,0.000007
 50,-0.00001001,0.00000054,0.00000523,0.00000628,-0.00000057,0.00000274
 ,-0.00000854,0.00000462,0.00001994,0.00000539,-0.00001554,-0.00001040,
 0.00007095,0.00011447,0.00001999,-0.00003478,-0.00003837,-0.00009737,-
 0.00000631,-0.00004214,0.00011861,-0.00016500,0.00004392,0.00004228,-0
 .00002926,-0.00002538,0.00000934,-0.00000414,0.00003007,0.00043231,-0.
 00067638,-0.00000882,0.00023467,-0.00004058,-0.00016279,0.00003357,-0.
 00009566,-0.00006990,0.00937268,-0.00575623,0.01735253,0.00099427,0.00
 047004,0.00046961,-0.00203969,0.00065988,0.00281928,0.00014300,0.00015
 424,0.00025401,-0.00013587,-0.00007092,-0.00006589,0.00048469,-0.00029
 379,0.00105453,-0.00010916,0.00007141,-0.00004046,-0.00001117,-0.00001
 314,0.00001147,0.00003620,-0.00000857,-0.00000473,-0.11071003,0.034166
 42,-0.10955432,-0.00546475,0.00123601,-0.00709503,-0.01324891,0.006983
 32,-0.02132674,0.11997892,-0.00000690,-0.00002693,0.00000618,-0.000004
 14,0.00000742,-0.00000758,0.00001201,-0.00001021,-0.00000235,-0.000011
 24,-0.00000104,-0.00000062,0.00001454,0.00002441,-0.00000111,0.0000012
 5,-0.00000986,-0.00000942,-0.00000681,0.00000519,0.00003516,0.00001834
 ,-0.00002391,-0.00001505,0.00000552,0.00006402,-0.00001510,0.00004804,
 -0.00002087,0.00019119,-0.00004036,0.00001012,-0.00000390,-0.00007947,
 0.00002167,0.00001866,-0.00086281,0.00029031,-0.00130485,0.00020447,0.
 00000812,0.00002973,0.00016008,0.00002627,0.00001061,-0.00318533,-0.00
 092439,-0.00131717,0.00037568,0.00029352,0.00045908,0.00019425,0.00043
 210,-0.00041773,0.00024264,-0.00000404,0.00025342,-0.00007523,0.000410
 39,-0.00030864,0.00007466,0.00057247,0.00008322,-0.00012459,0.00012040
 ,0.00000740,-0.00001708,-0.00001391,0.00000119,0.00002958,-0.00002319,
 0.00000314,0.03419527,-0.06293738,0.05175957,0.01494181,-0.00591443,0.
 02567381,-0.00977307,0.00453148,-0.01657666,-0.03628533,0.06327971,-0.
 00000258,-0.00002928,-0.00000744,0.00001012,0.00000611,0.00000765,0.00
 001105,-0.00000431,0.00000227,-0.00001547,-0.00000658,0.00000278,0.000
 06632,0.00009109,0.00005692,-0.00003645,-0.00001991,0.00003082,0.00003
 331,-0.00019665,-0.00023714,0.00001172,0.00000578,0.00003939,0.0000844
 0,0.00008069,0.00009454,0.00015423,-0.00003790,0.00027283,0.00000312,0
 .00000126,0.00004292,-0.00019668,-0.00001841,0.00015044,-0.00046098,0.
 00156952,0.00052210,0.00032603,-0.00117638,0.00060507,-0.00012711,0.00
 011256,0.00036498,-0.01317950,0.00725652,-0.02224095,-0.00077046,-0.00
 040211,-0.00028658,0.00484001,-0.00146120,-0.00320417,-0.00003247,-0.0
 0021968,0.00037258,0.00004665,-0.00002269,0.00031381,-0.00075095,0.000
 60564,-0.00142867,-0.00011753,0.00008197,-0.00008721,0.00003159,0.0000
 1252,0.00001898,0.00001998,-0.00002025,0.00000872,-0.10773853,0.051833
 64,-0.22505648,0.00201416,-0.00022523,0.00315591,-0.00128919,0.0000813
 0,-0.00170149,0.11655368,-0.05828619,0.24772708,0.00191600,0.00545578,
 0.00218679,-0.00001728,-0.00027374,-0.00020554,-0.00153851,0.00034391,
 -0.00090449,0.00065572,-0.00051815,0.00009082,-0.01805314,0.01099255,-
 0.00862576,0.00068337,-0.00080975,0.00100984,-0.00111006,-0.00093117,0
 .00035610,0.00044681,0.00035778,-0.00008162,-0.00009282,-0.00014742,-0
 .00028586,-0.00058219,-0.00014942,0.00008206,0.00053278,-0.00033071,0.
 00012886,-0.00004352,-0.00001796,0.00030427,-0.00471960,-0.00156571,-0
 .00218957,0.00006100,-0.00050293,0.00019830,0.00085825,-0.00220351,0.0
 0016002,0.02225799,0.01545196,0.00452656,-0.03577127,-0.02352856,0.010
 91235,-0.00244734,-0.00350416,0.00067997,-0.00084531,0.00049441,-0.001
 55270,-0.00011023,0.00044777,0.00008150,0.00016761,0.00011865,-0.00045
 639,-0.12964385,0.03458344,-0.06202782,-0.02284340,0.00360847,-0.01064
 386,-0.03298575,0.00679155,-0.00975778,-0.00314580,-0.00368854,-0.0023
 4489,0.00029441,0.00038317,0.00002710,-0.00112119,0.00034631,0.0014500
 6,0.00025011,0.00013109,0.00029277,0.33313164,0.00017580,-0.00812886,-
 0.00293847,-0.00016831,0.00001917,0.00020630,0.00255191,-0.00036008,0.
 00110284,0.00020580,0.00033483,-0.00021930,0.03388836,-0.00381379,0.01
 549060,-0.00070739,0.00161773,-0.00019218,-0.00045698,0.00340831,-0.00
 166673,0.00023531,0.00062182,0.00008471,-0.00037447,-0.00008902,0.0005
 8848,-0.00007359,-0.00105812,-0.00209466,-0.00035455,-0.00072056,0.000
 60411,0.00023404,-0.00132826,0.00161523,0.00041562,0.00000031,0.000480
 46,-0.00019277,0.00004547,0.00007935,-0.00024088,0.00021057,-0.0000408
 5,-0.00393510,-0.00525140,-0.00008073,-0.00188494,0.00774114,0.0149924
 2,0.00139306,0.00104611,-0.00016609,0.00003678,-0.00007633,0.00045161,
 -0.00019624,0.00012763,-0.00008483,-0.00005687,-0.00006088,0.00019399,
 0.02682007,-0.06794409,0.02915946,-0.00019064,0.00269156,0.00127635,-0
 .00814884,0.00672491,-0.00388024,0.00027034,-0.00004684,0.00005455,-0.
 00018013,0.00014739,0.00006374,0.00013550,0.00018734,-0.00011234,0.000
 00426,-0.00003136,-0.00013599,-0.05233456,0.08464111,0.00020319,-0.000
 41833,0.00079201,0.00050959,-0.00034576,0.00058566,-0.00011307,-0.0002
 3934,0.00058074,-0.00042932,-0.00016908,-0.00008560,-0.00139277,0.0062
 5593,0.00312355,0.00003177,0.00119640,0.00069595,-0.00016753,-0.000323
 56,0.00085362,0.00003302,-0.00065589,-0.00011973,0.00023182,0.00028843
 ,-0.00057788,0.00113884,0.00000870,-0.00240165,-0.00064672,-0.00049942
 ,0.00056516,0.00024778,-0.00046365,0.00136777,0.00471570,0.00178116,0.
 00223616,-0.00023229,0.00032903,0.00001180,-0.00070704,0.00196967,-0.0
 0021050,-0.02486006,-0.01872957,-0.00565824,0.03219157,0.03847914,0.00
 471300,0.00320826,0.00363960,-0.00066040,0.00076525,-0.00068420,0.0016
 9827,0.00022162,-0.00044675,0.00006212,-0.00012247,0.00004582,0.000690
 48,-0.03240039,0.02354130,-0.11748404,-0.03646617,0.01290069,-0.014735
 33,0.01705669,-0.00547535,0.00715025,0.00303370,0.00363990,0.00184280,
 0.00004717,-0.00036845,-0.00019859,0.00131866,-0.00035736,-0.00130541,
 -0.00019399,-0.00019799,-0.00007654,-0.02149737,-0.05301104,0.27181991
 ,-0.00015853,-0.00166088,-0.00035729,0.00000830,0.00018106,0.00000129,
 0.00066700,-0.00014972,0.00002124,0.00001182,0.00009320,0.00003040,0.0
 0177926,0.00028268,0.00200821,-0.00033764,0.00023295,-0.00017516,0.000
 83910,0.00119941,-0.00106885,-0.00043909,0.00003281,0.00054254,-0.0000
 9960,0.00083723,0.00077319,0.00192683,-0.00041109,-0.00247936,-0.00053
 011,-0.00019296,0.00039401,0.00025684,-0.00011400,0.00084158,0.0066935
 5,0.00445075,0.00406194,-0.00017565,0.00041453,-0.00005983,-0.00094296
 ,0.00227066,-0.00084185,-0.08063673,-0.07223335,-0.01816750,0.04934661
 ,0.05241014,0.00090039,0.00711832,0.00573600,0.00163684,0.00085927,-0.
 00113401,0.00222906,0.00041414,-0.00053130,-0.00011417,-0.00015507,0.0
 0023659,0.00038425,-0.05056258,-0.00114301,0.03324590,0.00577608,-0.00
 051640,0.00485943,-0.00519096,0.00464795,-0.00099483,0.00851210,0.0066
 3552,0.00124618,-0.00019619,-0.00019342,0.00007650,0.00135070,-0.00048
 412,-0.00202346,-0.00034596,-0.00017686,0.00021877,-0.10618443,0.00312
 941,0.05427456,0.16039559,-0.00040409,-0.00126473,0.00001690,0.0000697
 2,0.00002207,0.00005592,0.00031721,-0.00021366,0.00024365,-0.00003141,
 0.00006763,-0.00005660,0.00280273,0.00149949,0.00152856,-0.00009514,0.
 00033687,-0.00021899,0.00085597,-0.00164929,0.00245061,0.00035194,-0.0
 0062348,-0.00072783,0.00093902,-0.00078933,-0.00139691,0.00133129,-0.0
 0022935,-0.00022198,-0.00031314,0.00017381,-0.00010061,0.00017519,-0.0
 0017905,-0.00026710,0.00238968,0.00435051,0.00219396,-0.00001370,0.000
 18456,-0.00009536,-0.00041120,0.00061333,-0.00066831,-0.07298841,-0.06
 398531,-0.01514529,0.04926819,0.01049966,-0.02091357,0.00640156,0.0035
 1698,0.00261665,0.00007306,-0.00032760,0.00079604,-0.00054572,0.000536
 82,-0.00040162,-0.00020231,-0.00002055,-0.00041069,-0.00251413,-0.0035
 7065,-0.01047417,0.00049924,0.00060355,0.00048453,-0.00184826,0.000655
 54,-0.00106059,0.00758924,0.00532019,-0.00004436,-0.00061541,0.0001611
 8,0.00046338,0.00008764,-0.00064847,-0.00092056,-0.00031847,-0.0001560
 7,0.00052417,0.01099946,-0.02065579,-0.01169004,-0.00384975,0.06577115
 ,0.00021112,0.00097208,0.00039400,0.00005167,-0.00013176,-0.00003490,-
 0.00037688,0.00009677,-0.00009043,0.00009376,-0.00010889,-0.00002394,0
 .00014343,-0.00052721,-0.00096665,-0.00008668,0.00027987,0.00034408,-0
 .00026014,-0.00006312,-0.00116377,-0.00000566,0.00051198,0.00035268,-0
 .00048221,-0.00033534,0.00105866,-0.00142520,-0.00000617,0.00135876,0.
 00066540,0.00031542,-0.00025262,-0.00005489,-0.00002752,-0.00078948,-0
 .00476968,-0.00130155,-0.00199825,0.00017541,-0.00053702,0.00015048,0.
 00081588,-0.00201178,0.00013750,0.01281519,0.00860580,0.00665225,-0.01
 964158,-0.04372535,-0.03660458,-0.00369827,-0.00443022,0.00158625,-0.0
 0053131,0.00053295,-0.00170659,0.00024193,0.00022645,-0.00001983,0.000
 26400,0.00016281,-0.00052144,0.01135597,-0.00634762,0.00981392,-0.0040
 4973,-0.00020313,0.00282341,-0.00378268,-0.00132978,0.00014636,-0.0020
 6257,-0.00270663,-0.00153815,-0.00037443,0.00042891,0.00027317,-0.0018
 0039,0.00010854,0.00145143,-0.00005372,-0.00006801,0.00053688,0.098086
 25,-0.00182072,-0.15527531,-0.08146399,0.05344023,0.17390612\\0.000002
 01,0.00000551,-0.00000260,0.00000154,0.00000477,-0.00000246,0.00000146
 ,0.00000416,-0.00000299,0.00000015,0.00000318,-0.00000336,-0.00000327,
 0.00000717,0.00001079,-0.00000409,0.00000455,-0.00000208,0.00002251,-0
 .00002220,0.00000759,0.00000161,0.00000214,-0.00000084,-0.00000149,0.0
 0000948,-0.00000527,-0.00000412,-0.00002532,0.00002777,-0.00000738,0.0
 0001146,-0.00000928,-0.00000145,0.00002138,-0.00001993,0.00000749,0.00
 006270,0.00006318,-0.00003378,-0.00003905,-0.00001504,-0.00000157,-0.0
 0001333,0.00001213,0.00000016,0.00008246,0.00002428,0.00002852,-0.0000
 2046,-0.00005897,-0.00000146,-0.00001898,-0.00001082,-0.00000228,-0.00
 000233,0.00000579,-0.00000285,-0.00000226,0.00000105,-0.00000272,-0.00
 000178,-0.00000060,-0.00000342,-0.00000839,0.00000358,-0.00000097,0.00
 000263,-0.00000159,-0.00000605,0.00001199,0.00000440,0.00000854,-0.000
 06716,-0.00000337,-0.00001127,-0.00000538,-0.00000861,-0.00000877,0.00
 000967,-0.00000885,0.00002850,-0.00000704,0.00000393,-0.00001422,0.000
 00664,-0.00002000,0.00000864,-0.00001620,0.00001218\\\@


 FROM THE ASHES OF OUR DESPAIR GROW THE FLOWERS OF TOMORROW.
 Job cpu time:  0 days  5 hours 46 minutes  7.2 seconds.
 File lengths (MBytes):  RWF=    713 Int=      0 D2E=      0 Chk=     12 Scr=      1
 Normal termination of Gaussian 09 at Sat Feb 15 18:54:55 2014.
